# vtk DataFile Version 3.0
vtk output
ASCII
DATASET POLYDATA
POINTS 5568 float
0.0 0.0 0.0
0.12751428935786402 -0.018451368683468628 0.9916650911488544
0.25433782571872726 -0.03815036000081659 1.9833947621610735
0.36761995014422366 -0.05840048911589487 2.9767512402476006
0.4503788236727195 -0.07542258942975136 3.9731754556062997
0.48569998363236594 -0.08146153578878482 4.972533222767779
0.45836505962747026 -0.0709369164939384 5.972104147874319
0.3535368109112499 -0.04072976534354947 6.966135619353199
0.16286798943239694 0.008710103824947371 7.946544258570779
-0.11261112282972478 0.07410246389108216 8.905624598246373
-0.46569627520645 0.15432300696850096 9.837770262635512
-0.8819014509280885 0.24912920867851787 10.742084940068008
-1.341368749244773 0.35320746072930626 11.624160627992586
-1.8259903658805912 0.4591813843288778 12.492441352301377
-2.321708466217137 0.5621062095542172 13.35480441119888
-2.8194373242858535 0.6601609018603748 14.21657657433851
-3.3126217544516012 0.7486693472760317 15.08198709711495
-3.7889873037535278 0.8217882300146965 15.958188838967434
-4.231436042247797 0.875659803638251 16.853363105443048
-4.622756859850001 0.9052760232306379 17.773140740117974
-4.950336503515756 0.9050062859903686 18.717964270888476
-5.205655534837585 0.8720559184801955 19.68425949778646
-5.386382435325395 0.8080659110945774 20.66570896994224
-5.4944880357715755 0.7198030347952155 21.655922504398085
-5.534172611706078 0.6154286346904481 22.649668507678435
-5.512390491462057 0.5049176300757962 23.643304687120757
-5.435810296432282 0.39761082554034666 24.634576962244797
-5.317227190008779 0.300139517970613 25.6227254283528
-5.1737533008183565 0.21338855506754587 26.60856999701257
-5.01804543106 0.13716222533981146 27.593427654723342
-4.8556049932971606 0.07697204545055267 28.57830848326267
-4.689253401704197 0.04406310535603185 29.56382568231926
-4.525994580131728 0.049925146385540936 30.55039154107058
-4.376825601455962 0.11664112887702871 31.536950000301978
-4.248666320964328 0.24738012059586326 32.52004842613136
-4.143317385456071 0.4347825229890477 33.49666602855543
-4.052930798624384 0.6650423606026049 34.46558845687624
-3.967423289811046 0.9130338534905276 35.4305696408336
-3.882672161635496 1.1617181988616911 36.395439239608635
-3.796038304000463 1.4005216548166575 37.36263491998321
-3.6993890100328937 1.5968622306055422 38.338395798618166
-3.58590885270587 1.7254946667328595 39.323573929855854
-3.454561120467933 1.7357882715233068 40.314856843527004
-3.3016256077936217 1.5848845338614006 41.29150355084891
-3.1137304765840232 1.3244487179860922 42.238535021010854
-2.8810803655452926 0.9782356528223713 43.147386185582704
-2.5845122629391004 0.5590667054001178 44.00549151363602
-2.2303163389788643 0.12538246915258036 44.83402227992074
-1.8069251409986131 -0.29294451238728475 45.63760328392008
-1.2900220418487862 -0.6636149300867634 46.40923443125136
-0.6709764480366761 -0.9277900865421755 47.148824885147015
0.00813951142924492 -1.0332983862625502 47.87523352516226
0.6915184549652108 -0.9870800479175662 48.60383292451165
1.3531991710570976 -0.8298309841440583 49.33694366777932
1.9920617912231626 -0.5907681559119542 50.068177909805925
2.6214233948089594 -0.2990686944603787 50.788466321569416
3.2549353367671836 0.03962992843456222 51.484128496942915
3.9024729999331753 0.4363824723628803 52.13473005985829
4.565723392254853 0.8972081540331937 52.724423716088566
5.2371969069693876 1.4222380893384206 53.24736433037503
5.906835139938433 2.004351810991857 53.70858906085777
6.5677903084195055 2.6330736293165447 54.11828057946739
7.210535692552749 3.2990539038082414 54.49689469061933
7.823476076618107 3.9988887672401097 54.86368516147034
0.0 0.0 0.0
0.13462569167134913 -0.027058459555180978 0.9905270127101589
0.26880304442851854 -0.05622505615787115 1.981055027281021
0.3913228997077564 -0.08596715307720332 2.973075335910434
0.48627684920600495 -0.11078050860884006 3.9682477053329097
0.5364853914887708 -0.12248236771173429 4.9669179055368495
0.526385127847836 -0.11504934462071248 5.966839269866121
0.43970685331717335 -0.0857201202163061 6.962643805565884
0.26581468136174957 -0.03567235058344104 7.946135917017422
0.004098090493846296 0.032384880371268646 8.908878166728766
-0.3375992022480128 0.11834718643266917 9.84474858621508
-0.7447402668331002 0.22276385614465247 10.7521257473861
-1.196639456093628 0.34092225046872043 11.6363348383801
-1.673907163948913 0.46422183664478517 12.5063996331439
-2.1622677611187693 0.5855134317535755 13.370571072204383
-2.6530133984724222 0.7013075789478692 14.234145293041193
-3.1392116823199165 0.8055757647434327 15.101750833718897
-3.6080848077456427 0.8911989592136765 15.98085643648925
-4.042978955342781 0.9534040883507046 16.879186889215195
-4.428287921348081 0.9863770445072096 17.801385232782472
-4.7526485240466165 0.9851372917089978 18.747317927232793
-5.007348342705883 0.9484829001442375 19.71364316127874
-5.189554042970002 0.8797706270216391 20.694499779910426
-5.301285064876899 0.7878338919210061 21.683976316005484
-5.3471959638964215 0.6827336308607189 22.677377606761784
-5.33491855564571 0.5753023353878685 23.671514308629124
-5.2716738124442895 0.47500461360164564 24.66445965932164
-5.168358351551809 0.3885740838489466 25.655345969181273
-5.0388355490413925 0.316874458952613 26.64432676142123
-4.893896516383551 0.2593971115377672 27.63209648729177
-4.739033088214479 0.22158190655735147 28.619308383942133
-4.577344206231156 0.21494437571786293 29.606127844951764
-4.415919319768724 0.2502464210628372 30.592381246276723
-4.265944671866651 0.3463609183328695 31.57638816109042
-4.1344404468400935 0.507244965982351 32.554561439202274
-4.022280487138461 0.7237714693587977 33.52437400706026
-3.9249773244524655 0.9774566894649398 34.486754339169664
-3.8337840221118755 1.244060463581114 35.44623660020174
-3.744260580010133 1.50927642061848 36.40626058398913
-3.6540049065804627 1.7561304079907016 37.37110099687211
-3.553749034055352 1.9505619540538113 38.34688024133252
-3.4337343761070396 2.067258101721904 39.33276993647949
-3.2899227400103417 2.058112307047491 40.32233275296107
-3.116406915105181 1.8921275070834793 41.29307540922399
-2.9025044724305347 1.620955279582188 42.231537645038415
-2.640850304868769 1.2688982239495086 43.130199386839415
-2.3176454885085698 0.8564177142396996 43.98190266603417
-1.940363573391961 0.43398230161083895 44.80604262907627
-1.5044355663589983 0.024246139582560063 45.60734347782823
-0.9897818015269895 -0.3447003497626055 46.38130083475697
-0.3852227096483187 -0.6179643743268738 47.129522110387235
0.27561408875505705 -0.7507225781071927 47.86821689526459
0.9451272843293257 -0.7396834959353521 48.610935024581984
1.5984304635162214 -0.6162633005989031 49.35790384016093
2.2350043823189014 -0.4069710935549559 50.10017765619573
2.8650551096928707 -0.13545712431152562 50.827718889007464
3.500562266218343 0.19295129116873283 51.52648821192216
4.148243826582867 0.5875231624587031 52.178271638184675
4.8068018430940525 1.0522142895949365 52.77018674632917
5.468809623272701 1.5853515426934601 53.29697927507412
6.125439378800503 2.176771706854126 53.76501725812643
6.7699542123087 2.815436648974594 54.185383433138355
7.393172908848774 3.4928603269989806 54.57614629823022
7.983265589872605 4.206414726557826 54.9538111584864
0.0 0.0 0.0
0.13653707204276813 -0.029409086546132616 0.990198330430076
0.272712326515397 -0.06122166787096024 1.9803721837198736
0.3977004443489156 -0.09361799636981698 2.9720013726308436
0.4958557640878748 -0.1206580431502595 3.966805056317758
0.5499266173208053 -0.13402792898518323 4.965252645820295
0.5442347291039089 -0.127576114521167 5.965215633384658
0.4621438380401225 -0.09863504802849077 6.961420180791776
0.29244865887188054 -0.048579345864246906 7.945644734868692
0.03412289493828399 0.02003746564498213 8.909262674130114
-0.3048204181412657 0.1073896962560588 9.846005444759237
-0.7098390354402423 0.21424971155815714 10.754047765783351
-1.1600420407477448 0.3360809398285309 11.638623599632675
-1.6357011732094164 0.46393880349420313 12.508911343085758
-2.1224624330922843 0.5900662189323462 13.373292827704754
-2.6117145651391622 0.7105233193392733 14.237076619083789
-3.096429024304533 0.8188937591860743 15.105009646939873
-3.563684721462554 0.9076985498922047 15.98466061330154
-3.9969289406343003 0.9719263520843985 16.883645727738827
-4.38095076889445 1.0055646430799048 17.806356788038112
-4.704706505409684 1.0038276551330259 18.75249589300437
-4.959455944195297 0.9659515509268761 19.718760931266946
-5.142251427703059 0.8957538349463617 20.699402604805393
-5.255111019702226 0.8026109664532908 21.6886382281746
-5.302750028057104 0.6970734376831769 22.681911783094925
-5.292946518997668 0.5901965512769412 23.67613571278191
-5.233080689300004 0.49147413958379205 24.66944833621126
-5.133581119841457 0.40770127765652303 25.66095322438987
-5.007485783180099 0.33980445079731414 26.650645089050133
-4.865077304595596 0.2872043392142913 27.639054444271288
-4.711806818284559 0.25530717889437177 28.626723786303074
-4.550865049616374 0.2557151340145985 29.61368760563516
-4.389390826658842 0.29907880972100565 30.599611368889445
-4.238682601137442 0.40340003346291053 31.582669919046648
-4.105775172316675 0.5727385722354501 32.559225127240545
-3.991316979685185 0.7974419636234044 33.52690674225567
-3.8916599657892856 1.0578661723726688 34.48724403252335
-3.7983676646834885 1.3301022208067972 35.44494131271546
-3.7070465366456973 1.6003661504829674 36.40338685623366
-3.6154362758757648 1.8495472690759824 37.36750112864041
-3.513844005672827 2.0434319928122244 38.34325095545912
-3.391643909255236 2.156677261915483 39.32927460906042
-3.243948733861316 2.1416896744290503 40.31819397250048
-3.06435962225618 1.9707439672173528 41.286969135362725
-2.842950166743762 1.6956750560618539 42.22255181323006
-2.573048121451989 1.3409837004726575 43.117731643329925
-2.242245943614816 0.9289422091193293 43.96672618308946
[...]
CELL_DATA 87
SCALARS quad_param_group int 1
LOOKUP_TABLE default
3
1
3
1
2
0
3
3
3
2
0
0
0
0
0
2
0
3
1
3
0
0
2
0
2
0
0
1
3
1
0
3
1
3
1
2
1
2
1
0
1
3
3
1
3
2
2
3
3
3
2
0
1
3
3
1
0
2
3
3
2
2
0
0
3
1
1
1
3
2
3
3
0
0
1
3
2
3
2
0
0
0
0
0
2
3
1
SCALARS single_component_feature float 1
LOOKUP_TABLE default
0.20967141452482496
-0.0027070966513447203
-0.059099099056067306
0.8991276650207531
0.044608540402513365
-0.8892905008603043
0.02624945842626647
0.11358846833279612
-0.5799790629141814
-0.4313227219979801
-0.40729955822548547
0.1940608073883593
-0.7824448287649179
-1.248556177168449
0.2470190740666821
-0.017417586027390103
-0.10325448540857624
-0.35375581609617623
0.6015201316753304
0.2802893220579713
0.5248518701064707
-0.4887810860243756
0.22374887510275546
-0.14129341026621184
0.3445248747096324
0.0340378807478309
-0.5374042210129717
0.364324372645484
0.8123133348837877
1.255680806978748
0.2625829283375676
0.3699561961700051
-0.03335552369351742
0.048961586418037606
-0.6969764119335171
0.9474135087099123
0.8166857600653474
-0.06110280421532013
-0.27167010200398417
-1.5784597577411525
-1.2428227875623221
-0.349960011756299
-0.597630810302106
-0.10443448175702472
-0.5900377990780175
-0.26790473816400207
0.4934818718276751
0.31000634801785726
-0.2869022051628388
0.1067876570834086
0.18809775178113633
0.8946073514896575
0.07648300029609456
-0.34920492272164005
-0.5706579851771972
2.9900620449767024
0.8605627625680905
1.4512454712099077
-0.41855307678393844
-0.8177631224059129
-0.9999054548006194
-1.2553766379592934
0.2971897603256801
0.9541872696898446
-0.3742938428418766
0.43947556748463107
0.5018672454125341
0.3327673166149423
0.5046498830258979
1.315077256150455
-0.29288326677662924
-1.3779235596898252
-1.310244117487878
-0.00039730537978188707
-0.22202588559940917
-0.6709923610612052
-0.0542924019313582
0.11103871012485472
0.5547350267048814
1.0940758634641172
-0.65719515670557
0.9774649407598628
-0.36661433056459225
0.10377555005530156
-0.25594310859294855
-0.49733114184478994
-0.5633947636656111
POINT_DATA 5568
SCALARS single_curvature float 1
LOOKUP_TABLE default
0.011479460531670115
0.023667130848175774
0.03948781667348897
0.05605741574773185
0.07052058652492013
0.08047342695314905
0.08509833453345589
0.08271113389371786
0.07291463129721228
0.05796471636536247
0.04039222396898538
0.024118855835555533
0.014541763544905788
0.013659939970043078
0.021262012367177393
0.035344331217929875
0.051186520639821945
0.06535618036754892
0.07500198692704363
0.07881325264779733
0.07773675694274647
0.07267801668623476
0.06590813491564566
0.057497543767364045
0.04674169268187952
0.03536722689944789
0.025993541208488707
0.022076552056902798
0.02500103918013271
0.036556354620334255
0.04904353525971838
0.05747732270280329
0.059253422752951375
0.048378642736889424
0.03180552869766606
0.019045894858903248
0.018651102964133536
0.03153039381405237
0.061111752351916446
0.09896909378444865
0.11726945784632287
0.12552428888557282
0.12298494863465266
0.0991822880661295
0.08842033211333568
0.08982762497558897
0.10005080920794898
0.1255231438226955
0.14424448028396758
0.1450996935603363
0.12898635539284323
0.10062318433929648
0.07627614279906521
0.06675622231507666
0.06795526681842921
0.07748122995809179
0.08513283373942028
0.08394576973016954
0.07453208236585875
0.06302049272459617
0.04207587596692953
0.021131259209262884
0.00018664245159624726
-0.020757974306070404
0.010524335305122964
0.022207342572042935
0.03746769707544217
0.054412281917297065
0.06990510731099275
0.08113540276741353
0.08682511924064251
0.08533242738936568
0.07585219252093758
0.0603171274332571
0.04200259938345333
0.025108969984476995
0.015315226539065018
0.014923600782963403
0.02311890852585332
0.03717098902751088
0.05232386337340119
0.06547055610861223
0.07417979278130306
0.07725384365862799
0.07562250012492573
0.07003175243094314
0.06279865699377578
0.05477480172997036
0.04552829042061514
0.03624226581799328
0.028892526985914643
0.026262435804312343
0.029213766146805223
0.03942257664580587
0.05078296302570178
0.05765236330306423
0.05734327617747887
0.045546952093767815
0.029238303289126653
0.019125129579767128
0.022564260605756607
0.03909686390261046
0.07040608307468545
0.10543356751343881
0.12087017551996418
0.12606582379730444
0.1187340318557591
0.09433184255526333
0.08122533453055858
0.07894149158799385
0.087731094675447
0.10994643563156412
0.12955266111527894
0.13465067404478265
0.12335086555930772
0.10188265794932831
0.08210606988720208
0.07429133593512952
0.07558689452406663
0.08308760641068809
0.08777954584707001
0.08434841393191234
0.07452565918374238
0.0636498228633226
0.042993996720269295
0.022338170577215988
0.0016823444341626803
-0.018973481708890627
0.010317161533744804
0.02188566465116337
0.037002372380776395
0.05405882768425383
0.0698149979696592
0.08136887381227109
0.08732280318988259
0.08606144302243907
0.0766839357966315
0.06101787789566395
0.042507163886642524
0.025437341732065077
0.015568813481743072
0.015297514063436385
0.023668270614854284
0.03774699795500968
0.05273934579817662
0.06561165174734683
0.07405159229474763
0.07690072258364009
0.07511604747405991
0.06940919315184516
0.062090742203058526
0.0542014504231104
0.04536082315204383
0.03661464137575535
0.02979108016021412
0.027497438266621023
0.030479551173581452
0.04035183522829613
0.05140209886587027
0.05783198157405074
0.056931932561834
0.0448975932277486
0.028720585956363235
0.019433362570026307
0.023933484943413227
0.04144293833995704
0.0732373151905891
0.10747843470866167
0.12214601448486996
0.12649897732224322
0.11786781926120778
0.09325450240547949
0.0795234393734311
0.07630831695545646
0.08468416912760297
0.10602765278314964
0.12583752867336143
0.13200855115614635
0.12199272146508161
0.10238691017748061
0.08385782789073505
0.0765209274136699
0.07784541921184589
0.08477271886856937
0.08864429981788614
0.0845954327180835
0.07461921997899659
0.06387147100690753
0.04327294976591281
0.02267442852491809
0.0020759072839233728
-0.018522613957071346
0.01646973846525579
0.031094036058332185
0.04898004141372354
0.06486496124435155
0.07557244773889245
0.0807037173145147
0.08104712238968824
0.07544470809509513
0.06539299014738421
0.05334855994727034
0.03821809715842838
0.023521867236355683
0.013949734199620202
0.011083352824715719
0.017506173701318392
0.03309561963098194
0.052098307172500934
0.06948317645963317
0.08133507541363123
0.08632786974089302
0.08685843168565875
0.0847203428976961
0.08113849239625695
0.0728692449461989
0.05742995744647866
0.03857968621138312
0.022089980458274438
0.013716226596930507
0.017483305075462897
0.03419203297271365
0.04978654973859905
0.0622700537000187
0.06928230069623824
0.061940007305656686
0.04938459894311703
0.033472887406828855
0.022212040091165633
0.022918181080451874
0.04533180867141638
0.09061468753400771
0.11820656433188832
0.1360485066862062
0.14969290758787016
0.12673411554872216
0.12391870492645536
0.13897977185939997
0.15052254154217679
0.18460624036322093
0.19826760880006247
0.1828299063809539
0.15173972724932855
0.10258825600929565
0.06498183529129399
0.05107755155945781
0.052399898957065046
0.06747253067512478
0.08353639551824026
0.08886968807380591
0.07907342362335287
0.06378421428900687
0.041031343444469716
0.018278472599932566
-0.004474398244604591
-0.027227269089141734
0.010713192118178642
0.0224985766545768
0.0378810687240688
0.05473573368620578
0.07000433050008656
0.08095809510737315
0.08642018738950613
0.08473145525980771
0.07517109117510347
0.059753821138142794
0.04160419647325583
0.024854657177903798
0.01511808642201164
0.014622322031435217
0.022676198857990784
0.03671713769717537
0.052011966901449144
0.06538796773060761
0.07431647215973881
0.07756982728763773
0.0760651241141353
0.0705797403667702
0.0634302817065459
0.055303714301533656
0.045718284854954765
0.03597466865770466
0.028179919786361696
0.025265961702083773
0.028199270537109543
0.038697378577096535
0.05031453463530034
0.05754486172674482
0.05771947247103443
0.046124735796302545
0.029716259609575517
0.01894981883827042
0.021512940420111967
0.037228803712593024
0.068149207303263
0.10382514407630677
0.11990334365101457
0.12579462033278133
0.11954197160331752
0.09529908074102827
0.08271575584203762
0.0812295418892509
0.09035744356180504
0.11330338450063407
0.13272930903889596
0.13691012056031884
0.12453485159191352
0.10151446357684399
0.08070236238947305
0.0724948766709132
0.07376687381873981
0.08173640312527505
0.08710499455826316
0.08418478582787364
0.07447621343102429
0.06348006443259763
0.042770277998197555
0.022060491563797482
0.0013507051293974101
-0.019359081305002662
0.009506597918895597
0.02032479198923335
0.033522991199704213
0.052792633508776325
0.07190963416001336
0.08747155094413916
0.09644763116613005
0.09833022185830165
0.09136033227629627
0.07494092471269967
0.05362388022508661
0.033399505448139306
0.021619071432094884
0.022655571005153353
0.034439823717369006
0.05057376440098641
0.06427519323773732
0.07295569786592618
0.07642527473557041
0.07458089821179818
0.07019576415549866
0.06384420779581076
0.05695221077339272
0.05245040625901837
0.04977495006956182
0.04832618031173124
0.048784916698548994
0.0513271620088333
0.056154641550990446
0.062292167316778155
0.06831395531956279
0.06698938315628249
0.055458500787524546
0.0400092258126783
0.02886549707402923
0.037637181933163774
0.06007448538350719
0.0928396712971707
0.13356302323791672
0.15456108841551003
0.15649369887671485
0.14532014540774796
0.11409348570015235
0.08303304194689498
0.0602704155166369
0.046400256647690825
0.048371021472560685
0.0574144957814277
0.07877550870484905
0.09804368560370459
0.10702359216264967
0.11647127467111971
0.11821615860567097
0.11933647011943158
0.12105739569920573
0.11726055926165745
0.10709811378895254
0.09280288673889167
0.07851091091216046
0.06808553587631906
0.04789207243551765
0.02769860899471624
0.0075051455539148285
-0.012688317886886583
0.010638284657101616
0.0223832620397301
0.03771818561205132
0.05460731113619359
0.06996326472178803
0.08102487300922133
0.08657593252714685
0.0849634800141678
0.07543354970391879
0.05996971899696846
0.04175607932419497
0.024951035965204944
0.015192886442201594
0.014737874012331464
0.022846000146035012
0.03689004608978417
0.05212900652390708
0.06541613076588472
0.07426028009336902
0.0774450845929207
0.07589145765911107
0.07036431985383451
0.06318109788545224
0.055093272651013395
0.04563916909003495
0.03607361310361825
0.02845192166889569
0.025648285397692275
0.02858775063023128
0.03897286423470516
0.050490768036290296
0.05758189812661771
0.05757013875844298
0.04589696474890331
0.029526123494549493
0.019008846518266075
0.021910346625816365
0.03794283749570055
0.06901210140567886
0.10443765293895615
0.12026725002384564
0.12588976004345265
0.11921945957692945
0.09491664020725442
0.08213040168078316
0.08033296553366621
0.08933065741594476
0.11199328194136017
0.13149021692991286
0.13602876498272562
0.12407058801182537
0.1016513513414047
0.08123984688609495
0.07318387551633346
0.07446491912954864
0.08225383123791578
0.08736110861722286
0.0842434390513937
0.07449214044845272
0.0635440869975774
0.04285590018387055
0.02216771337016371
0.0014795265564568685
-0.019208660257249974
0.011013100938291468
0.022958059586888648
0.0385213360878644
0.055251424238994255
0.07018780871357574
0.08073016602158421
0.08585061184018176
0.08387280638054502
0.07420555004948043
0.05897291249234021
0.0410641347670162
0.024518570119247695
0.014856209532054356
0.014203417117297522
0.0220606010986325
0.036103655749990755
0.05161735227878422
0.06532619496562796
0.07456345292104495
0.07806276630153552
0.0767395123543053
0.07142105792702028
0.06441345959781133
0.056154032942831
0.04607721836053204
0.03565871392309784
0.027209248185857578
0.023878652428906907
0.026798176997506085
0.03772914114986495
0.049714847672865
0.057458605747603524
0.058318667737566506
0.04702136241395784
0.030488453176044695
0.01883483463992021
0.02014359719969821
0.034672373752418516
0.06505129026230831
0.10165417504357464
0.11866331260050221
0.1255528106479868
0.12085934342275398
0.09682118337921286
0.08499942127288951
0.08470179696055127
0.09430538008650217
0.11831277755651336
0.13745936945898357
0.14027470323378696
0.12633460159120277
0.10106795148792373
0.07876405666347853
0.06999719282001485
0.07123659302096882
0.07987079176315291
0.0862076452846071
0.0840207308719433
0.07445485896276229
0.06326169171610482
0.042462898280564265
0.021664104845023707
0.0008653114094831493
-0.01993348202605741
0.009321216942962071
0.020215475359451965
0.034091386155099754
0.05241505513160382
0.07039696650562277
0.08463235091577445
0.09267079925327504
0.09343664166210545
0.08537657988152415
0.06898225151669968
0.048686634072463465
0.02975928190990858
0.01886455552285786
0.019512938646019468
0.029849501123692522
0.044856543504405405
0.05880583372666679
0.06908269461867414
0.07462410720183343
0.07482672232915469
0.07148961492580473
0.06515893136944527
0.05775483588667478
0.05170121999144732
0.04669879594905504
0.04267281913889549
0.04051452455794309
0.04126574274437011
0.04506583915714684
0.05229868879950543
0.06029071656784357
0.06215476456713039
0.05502213351738771
0.04084827392993945
0.027046883004285073
0.027807500661286767
0.043031985814072984
0.06986516954841215
0.10688342589274721
0.13316054946352265
0.14027034934545676
0.1357577370323606
0.11394052140471632
0.08609094344511797
0.06658962696570886
0.05591885904540141
0.06022937940873669
0.07365560912146484
0.09478491560906513
0.1098202725912365
0.11175247240815842
0.11004805270364584
0.10381437515843171
0.10144762471689389
0.10303470291182627
0.10376504120123016
0.09925906778241042
0.08901754153089006
0.07675362422320567
0.06650100935740577
0.04619439201699106
0.025887774676576353
0.0055811573361616434
-0.014725460004253066
0.009437128871564532
0.0204536097551866
0.034669376738626724
0.05258919229899353
0.0699748901755248
0.08350169649968543
0.09101009956680195
0.09121664849993058
0.08271330741147156
0.0664384484036137
0.04664580673463639
0.02829078590415295
0.017749701035454903
0.018170395315569365
0.027883728191037314
0.04250102475179391
0.05666769037032598
0.06769701023513233
0.07414137881698665
0.07520294139201393
0.07233530519177353
0.06610427339301597
0.05859928676513305
0.051916999265865314
0.04580489314463352
0.04047949136904474
0.03702358103159751
0.03691320541992876
0.04037332273898485
0.048266536460541
0.0571653107950133
0.060429734002413145
0.05522248535510613
0.04165502163501668
0.026919565536127264
0.024369173931116754
0.03635664557921366
0.06045831759747069
0.09587066888094654
0.12454628791242446
0.13392606754036618
0.1321911236934178
0.1144162797592644
0.08775045954503859
0.06988447348201186
0.061107991750758206
0.06659168327993964
0.08223114220700078
0.1030922255971425
0.11579992532734062
0.11431396542453527
0.10737073820797725
0.09747778428694884
0.09358245599577297
0.09509923687314879
0.09777797901884146
0.0958161988195722
0.0874319377762758
0.07597565250356507
0.06569558209461597
0.04533356267690522
0.02497154325919447
0.00460952384148372
-0.01575249557622703
0.009468438147804332
0.020509913281581527
0.03478157837208076
0.05263925191151787
0.06992561204228077
0.08333363775868645
0.09075154517055271
0.09086630887830814
0.0822963356783589
0.06604738643421895
0.046336605655123396
0.02807092759991634
0.017582500909609094
0.01796382845282383
0.02758101813197204
0.0421446424250371
0.0563524283820262
0.06750244490899816
0.07408705667629889
0.07527972294764845
0.07248590625324865
0.06627663665188041
0.05876450930428732
0.05198820430856416
0.045697671260961026
0.04015872552890699
0.0364906719449612
0.03624075028300117
0.03965447549631421
0.047661827747270034
0.05670466902390666
0.060187804662165036
0.055280449307565024
0.04181091860592275
0.026945046225020277
0.02389273024831943
0.03537068263542616
0.059037151419566565
0.09419877165460942
0.12325296072082019
0.13298925832188932
0.13168165161680992
0.11453547638639895
0.08804007683158753
0.0704402025555954
0.061988904692610224
0.06766298920119493
0.08366487437009218
0.10447398102208086
0.11678946635032691
0.1147509888614871
0.10697052727112619
0.09649770363990796
0.0923640396173553
0.09386898487086193
0.09684852759147838
0.09528632895715114
0.08719567146692674
0.07585875294310063
0.06556648198752914
0.04519434511946144
0.024822208251393738
0.0044500713833260375
-0.015922065484741663
0.011399840327524443
0.02354645703902351
0.039324867633054296
0.05591950040277854
0.07046038272196307
0.08051031492280211
0.0852173071406221
0.08289717149149546
0.07312011039683887
0.05812223549656041
0.04049504472406769
0.024178388715086645
0.014588876726429808
0.013745079827411563
0.021387101711940484
0.03546016513282312
0.05124710976863911
0.06534211853201063
0.07492324949377215
0.07868626546160942
0.07757013594153146
0.07246699620770777
0.06565527331126371
0.057266528011376536
0.04662056837038164
0.035402707215138614
0.026180178347222822
0.022358967346252312
0.025280758184102883
0.03673296544460885
0.049139639764904486
0.05746330961337059
0.059093639842563446
0.0481494880443756
0.0315642406460685
0.018973960850710292
0.01885256282732376
0.031999716422373675
0.06172233153754435
0.09937881912560069
0.11746967988858549
0.12550434050401693
0.12261585010494469
0.09877857328001395
0.08784440346597198
0.08897086834598499
0.09909729270734886
0.12433309052793524
0.14312661506288962
0.14430501963778639
0.1285442105479597
0.10068156867049337
0.07666372325208859
0.0672640696826749
0.06846917823525396
0.07785278700392317
0.08529336541051825
0.08394549243454429
0.07451073923648183
0.06305442558845158
0.04213529397777994
0.0212161623671083
0.0002970307564366531
-0.02062210085423498
0.009377799627758731
0.020195126617427846
0.033623344684524985
0.052550130288043874
0.07129153312456965
0.08641804699996286
0.09509551840741427
0.0965994703500323
0.08922776125918847
0.0727831652114576
0.05181449568502439
0.032054202341799405
0.020602207013126175
0.021517451330080834
0.032779196639884954
0.048475836093171194
0.06223161565508296
0.07146815698428298
0.0756827586665427
0.07458476809967526
0.07057255076606601
0.06420030693419299
0.05708648269399844
0.052013186315108276
0.048532832545820206
0.046214025503959186
0.04578154687140531
0.047704577650656034
0.05212530143486377
0.058595741798708925
0.06531100691508625
0.06513156493636851
0.05518029400362817
0.040174499369901445
0.028003259815385276
0.03383799033801635
0.05370968318375185
0.08438446269957134
0.12376467858352044
0.14662862237533816
0.15043117960548755
0.14170930422777656
0.1139013917996142
0.08406526393245205
0.062397037395532116
0.049507895500347954
0.05226415685612648
0.0627816968288036
0.08411618311996356
0.10202298387923006
0.10858609768050324
0.11415341849302545
0.11309173252413086
0.11296027196609812
0.11463586968917357
0.11247219513384044
0.10431343061354702
0.09144235313011122
0.07789975151810108
0.06756533665919048
0.0473293061520094
0.027093275644828316
0.006857245137647232
-0.013378785369533852
0.010434029127125283
0.02146431808684836
0.03391546026613844
0.05446296529322542
0.07470921597309381
0.09155389937363947
0.10133661401184918
0.10443679331076267
0.09900566592759594
0.08292653782013487
0.060482039326281656
0.038575777219342806
0.025523076688271303
0.0268727951685317
0.04057746695190125
0.05855080515897586
0.0723145980590828
0.07909364082838996
0.07983445040063908
0.07518223697444482
0.06946256599156557
0.06339213704043221
0.05757423873763274
0.055239037457650506
0.055245795641504496
0.056544141464659727
0.05989309975121501
0.06452525696583726
0.0711542077578945
0.07656210553087368
0.08014183839061105
0.07460911977430934
0.05731438332771292
0.04034989739016143
0.033487965847087194
0.05339819305028936
0.08503948752401119
0.12518539569235146
0.1710188252580818
0.18541146570651681
0.18022219423419172
0.1594264418922344
0.11529591803416159
0.07936357835028406
0.05337764326638439
0.037328874912663006
0.03685944715156311
0.04128133388942916
0.06227021616942119
0.08521772670788838
0.10203414747841813
0.12450323345174363
0.13592571547666193
0.14159761155389614
0.1434973267615