# vtk DataFile Version 3.0
vtk output
ASCII
DATASET POLYDATA
POINTS 5568 float
0.0 0.0 0.0
0.14933815580614324 -0.06549210908770242 0.9866148685620262
0.29835667608299365 -0.13287442355902424 1.9731507798754389
0.43324031204791813 -0.1969642904555717 2.9619373562962887
0.539129241800093 -0.2502467351612064 3.9548867586537955
0.6019469778678292 -0.2816719600335977 4.952416902196859
0.6071670564645958 -0.2841545655806263 5.952400195781877
0.5415760734651358 -0.25852108161055765 6.949917487586246
0.3949232244429406 -0.20927078873465593 7.937878696604752
0.16380971413505513 -0.14189032191266865 8.908469453846967
-0.15469406859079404 -0.05369534052037895 9.8522792787834
-0.5530551206082167 0.061114128798564156 10.762294255577888
-1.0093781130268051 0.19794708878615908 11.641524639294909
-1.5018566687423303 0.3436161493170336 12.499572072112235
-2.0127550993804975 0.48724600674418567 13.347129301818237
-2.527821052094592 0.6237840573032017 14.193335201764738
-3.0381423429845027 0.7461566286340544 15.044567916038767
-3.5265859672826254 0.8466159316233695 15.911361290682008
-3.9724856349149844 0.923963828146107 16.803095998601837
-4.3603950129620195 0.9775718324045173 17.72323321462051
-4.678781121852338 1.0014800177862235 18.670892797138112
-4.919205279126964 0.9858358189427268 19.641434647673847
-5.08314933419051 0.927877216012144 20.62620017669873
-5.177450374585154 0.8380328922592547 21.617681548823228
-5.206102334279984 0.727696953873007 22.61116282489544
-5.175239741746691 0.6091159764504722 23.603627460122127
-5.093131005242243 0.4925444739328816 24.593409880753264
-4.974319906906511 0.38841509593150314 25.580851522344958
-4.833383592594152 0.2998410788545903 26.566899999250076
-4.6789897823399205 0.22654128335315274 27.552186602901333
-4.5182606451738865 0.17729538457564006 28.53795583853382
-4.357265907484087 0.1743313568500203 29.524906652392257
-4.200950301060728 0.23596072094446285 30.510689210905955
-4.058997269428911 0.38242923966877335 31.489666386244195
-3.934548756579388 0.6302960151370923 32.45043411533822
-3.824795433349304 0.9529527851990557 33.3905653916891
-3.7262943031844857 1.3092866752248749 34.31971752464437
-3.630703286673681 1.6718775019626588 35.246750560694345
-3.5366658570203464 2.023119843827951 36.17830076283333
-3.4420585159783705 2.324718746943567 37.127030204065356
-3.33843013888705 2.521674537076883 38.101950496291536
-3.215679181494429 2.600404652240001 39.09126024122767
-3.079770185082161 2.5480840153622175 40.08059905864611
-2.9279851512704456 2.3384917730693817 41.0465350790333
-2.7381688728085667 2.0414628690685106 41.98234681790973
-2.5036346233064917 1.693270165804818 42.889956605871724
-2.193108508119738 1.2963100484923342 43.753667319623894
-1.8094167644792731 0.8948763378695804 44.585311246937614
-1.3580334537265926 0.5101435151366391 45.39044090226394
-0.8174143702522536 0.18334573106853191 46.16564037008596
-0.19352132612884643 -0.01827127732071216 46.92069536902485
0.461570643628757 -0.06449760427989662 47.67482906927631
1.0985994289650003 0.01811583826367138 48.44122932094911
1.7082718531762342 0.17657588878770936 49.217882362882456
2.3048254234253287 0.3812413512960487 49.99392094844332
2.9045933153097367 0.6160657635955739 50.75886275750641
3.527478685967436 0.889371758410466 51.491882299005034
4.17938760940611 1.2257479427028093 52.17148940475214
4.849694740586409 1.6401717265512132 52.787071468549975
5.530229978488387 2.128918307920391 53.3329639205711
6.211958200909121 2.6784864130101127 53.81589406937438
6.887597452434097 3.275271760628703 54.24874375537003
7.547398477269123 3.9092877575295124 54.65208768218748
8.178498757261986 4.5791267831004285 55.04327576535865
0.0 0.0 0.0
0.1282993759554476 -0.0096152631404311 0.991688870989376
0.2560733125099138 -0.021481691982533555 1.9834211982853613
0.3729920633458551 -0.03561436318405328 2.9764621205577884
0.4626617259167828 -0.04755001417394265 3.972362161651202
0.5061052126132998 -0.050513147553422386 4.971413653469429
0.4872148364840101 -0.03904390218700778 5.9711694286967685
0.3884272920406384 -0.008855539098575341 6.965819962199309
0.19907406987878995 0.04050833873666896 7.946487370050714
-0.07993559725634601 0.10776761698558156 8.904417323196858
-0.43548984608481844 0.19148944498485482 9.835315723483635
-0.8498671744275093 0.28998336909225364 10.740075568232228
-1.3030794429001786 0.39868031331283166 11.624826162480668
-1.7770334136386539 0.5110004100052659 12.498182807557715
-2.2591395245593504 0.6213970294460366 13.367312420578104
-2.742911815566913 0.7268780534579239 14.236126626278436
-3.222185975177633 0.821900918580959 15.10863274948517
-3.6861233494326098 0.8997342005032678 15.991074868263848
-4.119815210501902 0.9540617197412554 16.89049684392138
-4.507441830141751 0.9764572539672661 17.81204122364127
-4.83778703362072 0.962377471335143 18.755796385883823
-5.102383340077922 0.9148381779730401 19.718983185105987
-5.296181161206178 0.8400313500252247 20.697168414507008
-5.41855927426764 0.7462032450852738 21.685206816679155
-5.474411703932472 0.6427906997165017 22.67827597417066
-5.4722639989455795 0.539923661189338 23.672968770841038
-5.418986920468658 0.44673926544490256 24.667191191277585
-5.323780477777593 0.3681725009583187 25.65954344566522
-5.199952317443881 0.3040220437285445 26.64977135152608
-5.059668758966892 0.253565084741359 27.638596218987857
-4.907699283518551 0.22093966838084217 28.626442796518628
-4.746438009763081 0.21355657971163644 29.613326929326764
-4.583980984455299 0.23882988133544508 30.599718826674454
-4.43185655136703 0.31498482225259833 31.58514187381283
-4.298330485151886 0.4412357104041616 32.56811262764127
-4.186408947479041 0.6147649466325068 33.54656097762146
-4.091383436888973 0.827891730038084 34.51895345318485
-4.004627191882358 1.0589421877114837 35.48801951902415
-3.919932558626706 1.2913642877173757 36.45693994224091
-3.8345274328503147 1.5153843968866159 37.427775126594526
-3.7395497045373425 1.7058263587230806 38.404868310633994
-3.6248465968815826 1.8336933900880972 39.390004453197044
-3.4809030614256224 1.8347468745514517 40.37958979503014
-3.3007360488008874 1.6749767538978393 41.35016352026085
-3.0788138921942694 1.3979785103541327 42.28505524098618
-2.808353947739946 1.0240643096150452 43.17220775827473
-2.481913707822622 0.5833135973544408 44.008374954118054
-2.107921512804145 0.13020563347859626 44.81758630545808
-1.6785788418689642 -0.31179775501774154 45.60517622125944
-1.1750293926666944 -0.7200794384533133 46.366585453656256
-0.5788894166292097 -1.0454640019842352 47.100575926881774
0.08587597640282753 -1.237237865529165 47.82259376425701
0.7747942669309192 -1.2762464363390773 48.546382352436744
1.455566033663742 -1.1801619246646127 49.27254870268698
2.1181004046131 -0.9734030165508741 49.9924785334527
2.7666339449956445 -0.6840456576766819 50.696521547667196
3.410345393578643 -0.3253650016614762 51.37252728578166
4.058024424904188 0.10142037552445275 52.003689795917886
4.712851509261466 0.5941872427362626 52.576736307267886
5.367694175723471 1.1519334185911738 53.08673658716992
6.013756712378996 1.7662145759897108 53.5397949260131
6.644487517294905 2.4273567979001585 53.94608252628838
7.250948600147734 3.1277448972265574 54.322461942977085
7.822060423913236 3.864246248221027 54.68494924584239
0.0 0.0 0.0
0.13580228853499487 -0.030371952956590276 0.9902703079979025
0.2711656093753023 -0.06281304787036858 1.9805350941697015
0.3946606824110551 -0.09549738245855836 2.9723418803979573
0.49046054292916397 -0.1227465769762919 3.9673694519369804
0.5417105587260929 -0.13611950186056862 4.9659657671519195
0.5329545872597136 -0.12949421958351456 5.965905484634144
0.4482068392776828 -0.10040928304871413 6.961883338644332
0.27688005289192197 -0.05034248532045629 7.9458246214615365
0.018107249393679803 0.01772181445392863 8.909361796284534
-0.3212834435285616 0.10392168204936857 9.846049332437486
-0.7273829144824963 0.20924839454508323 10.75378800811776
-1.1793915996481337 0.32896824268881014 11.637731052943204
-1.6576985601447638 0.45409542977201545 12.5069638402868
-2.1477095315227466 0.5771894658983349 13.369945361641307
-2.6402483388757294 0.6946687832533252 14.232270203707861
-3.128226213740972 0.8004301030793142 15.098695120749532
-3.598487590054734 0.8873038175682192 15.976936087499766
-4.034023437403778 0.9508381838766845 16.874862537701414
-4.4192386707174185 0.9857202778225425 17.797029802109055
-4.742729773167379 0.9868752580067479 18.743260309256485
-4.995767365206653 0.9522750847776175 19.7100978369867
-5.1759392633378 0.8847002118368774 20.691409063698625
-5.285746977870663 0.7930850474213577 21.681130705110082
-5.3297895714382175 0.6875868437167328 22.67457440203857
-5.315533126897558 0.5791583787521212 23.6685764250619
-5.250269774402018 0.47732842125103425 24.661235155228702
-5.145251456674264 0.38917082749677007 25.651790247893967
-5.014473484959779 0.31575111498584224 26.640479616669143
-4.868516854486012 0.2565983643477105 27.628000560301576
-4.71301434308755 0.21742660524267804 28.615059090601267
-4.55124640554101 0.21061739850369243 29.60186442555114
-4.390112392931665 0.24760468982905984 30.588103630947487
-4.240698037265489 0.3474302077129552 31.571826262739634
-4.109738640245125 0.5150686374854954 32.54893781890682
-3.9977417099004757 0.7400545782149155 33.51684174702545
-3.9002374450291644 1.001869696912846 34.47702181448837
-3.8084679423544086 1.275852199149175 35.43436811904443
-3.7183421247776813 1.5479040007612865 36.39242091208129
-3.627468724145077 1.7994062968896443 37.35600205557655
-3.526576595159975 1.9945400264639979 38.33157553097001
-3.4059742115332425 2.1088713597172575 39.31767056254662
-3.262656685832691 2.0974164981534953 40.30728102781749
-3.0909827553734446 1.9295444170344207 41.27802663093986
-2.8792480337841395 1.6585087502606748 42.217019748598354
-2.620019151531368 1.3095039285100571 43.117572923597365
-2.2980687295860127 0.9010682856269334 43.971697183545444
-1.9205576951502987 0.4830645732300316 44.797989090380845
[...]
CELL_DATA 87
SCALARS quad_param_group int 1
LOOKUP_TABLE default
3
1
3
1
2
0
3
3
3
2
0
0
0
0
0
2
0
3
1
3
0
0
2
0
2
0
0
1
3
1
0
3
1
3
1
2
1
2
1
0
1
3
3
1
3
2
2
3
3
3
2
0
1
3
3
1
0
2
3
3
2
2
0
0
3
1
1
1
3
2
3
3
0
0
1
3
2
3
2
0
0
0
0
0
2
3
1
SCALARS single_component_feature float 1
LOOKUP_TABLE default
-0.5731791082996085
0.28382852630220806
-0.05398203460288806
-1.5319116467258032
0.0647726760808775
-0.10780574550463948
0.5547473962312333
0.69643670733926
0.631271960797118
-0.14076610329227435
-0.4412666232137192
-0.5539579697343828
0.7015985422764919
-1.1039086230503303
0.06358358111134815
0.42796355029976985
-0.17968288660643472
0.03934353146151198
0.3011186774931914
-0.6231575836392002
0.8893986842411605
0.4551785990267335
-0.35616569372841056
-1.2054525407419336
-0.3355755536632309
-0.47526829766334255
-0.7149311017025887
-0.6978523386882827
0.11718514141704625
1.0685743459950277
-0.0536653103695352
-0.2145271271395311
-0.1494779424550141
-0.5893226245669262
-1.0479097057694626
0.34371428708101637
0.11080272035921876
0.6913911627859364
1.5482210810676669
1.314641897385233
0.36613801553248315
0.7934659966193759
-0.3282716612733012
0.7067285730032872
0.11056869476810971
-0.24394629650415678
0.38758589657478615
0.5009164855837793
0.6565486719440266
-0.73459944584951
-0.6807581783126245
-0.8745206408819444
-0.5560208065910242
1.530112296911496
-0.4765217860413702
0.047512189593418325
-0.1059039496938532
-0.07630708782707987
0.49157182513134223
-0.23442597425935457
0.26652836806495367
-0.40189623342396535
-0.05566824178618168
-0.04264471240246567
-0.30379586402523323
0.4425843388088415
-0.26273929886041525
-0.7615973194157171
0.9798486733339102
-0.6783745858930484
1.1652937053342474
-0.37362621769441684
-1.5411210199924095
-0.6827672461022467
0.7005063130531797
-0.026411573442098445
0.327846110723476
0.790697624886853
0.34954511540998
-0.3164232866539337
0.8415040248121608
0.5419919594574447
-1.4228999628976933
0.05476253926812448
0.15810107216945624
-0.0038489247145919794
-0.17927468404060912
POINT_DATA 5568
SCALARS single_curvature float 1
LOOKUP_TABLE default
0.011955270963506293
0.024076737711308336
0.03969926810989435
0.05503619287419626
0.06840389655375702
0.0782322029692459
0.08547459016374549
0.0890569930708077
0.08515944909204903
0.07392793787380272
0.05591852993378556
0.035392898349224204
0.022048237389545464
0.020007642730479763
0.028289859874574382
0.043375517426006746
0.05948956672988313
0.07333408353318197
0.0817893042095643
0.08379424910157687
0.08090674488428148
0.0733993613730701
0.06416091836602021
0.05469077866229041
0.044295975775566876
0.034387848445269056
0.02777883471712422
0.02964430239771538
0.039048045425467436
0.05547699479616212
0.07526072882742861
0.08336373556744779
0.0765128844722185
0.05684736445818149
0.033885360282150064
0.027295091717294724
0.04500379885742013
0.07319940365388658
0.10274449747220533
0.12907582750201377
0.12705482579621583
0.11550682439112159
0.10781637119184019
0.0881730661020309
0.08188656997358315
0.09102572310425237
0.10365030176962174
0.12291192759486305
0.13664070120974936
0.12948407646817814
0.10402895442467629
0.07285134321822374
0.054094236149583426
0.05566469673877312
0.06922505594934243
0.08661111423189041
0.0946451017441905
0.09007071653076637
0.07705827595256602
0.06342821834945517
0.04162300305468435
0.019817787759913538
-0.0019874275348572834
-0.02379264282962809
0.01024016683563785
0.02203223548745985
0.037428778963292934
0.055136267985740214
0.0715788427240994
0.08323947904606743
0.0879062644086772
0.08390017009585604
0.0718065896923047
0.05433527901217778
0.03602904817957256
0.0208400104791523
0.012621592560409392
0.01290832666156199
0.021033179768599062
0.03478001141877375
0.04961209116815655
0.06235868022862955
0.07116604141726812
0.07471715231554028
0.07371249402719648
0.06917759292241427
0.06289119911284363
0.05539788803388501
0.04660868306063137
0.03748776558949118
0.029826034691527406
0.02544944240055413
0.025590370023503905
0.03319856586634089
0.041220702680551925
0.047519850192059135
0.050210299622664406
0.0422536071636186
0.029521819881446067
0.018650044688010937
0.016651071428844637
0.028157353440039435
0.05995785360903909
0.0988872329365907
0.12202996317717128
0.1348559197684162
0.12771310327725008
0.10073284009142383
0.08368919727877995
0.07556655285072549
0.08206098311708566
0.10541138182927239
0.12853575040397575
0.1406904110330325
0.1370505884823981
0.12105682636837535
0.10147084447583456
0.08822177868594967
0.0822573614942957
0.08356160522674155
0.08499457701271461
0.08160566425693684
0.07336484964227621
0.06389623367438542
0.0437918811377694
0.023687528601153376
0.003583176064537355
-0.016521176472078666
0.01062191658988963
0.022314701455658184
0.03758021835604024
0.05437114717005622
0.06966180389592189
0.08077355611087114
0.08662474583365573
0.08559782818618737
0.07662041360960838
0.06147473753548495
0.043180532705208746
0.02596479336170859
0.01586167984168109
0.015324588933363914
0.023522421930568412
0.0376469435907061
0.052881109757273885
0.06611403230679697
0.07481661469865566
0.07780784177163955
0.07606590859350494
0.07028906822378755
0.06287733222191629
0.05473171391627242
0.04536870780622538
0.036012381672565444
0.028698872113518292
0.026419691106566365
0.029932209586379852
0.040687622772710735
0.05276054125742026
0.059765904997295394
0.058899539564890455
0.046386353067595774
0.029432820405786108
0.019494241572084514
0.02403032018009962
0.041514765007236575
0.07265421661984385
0.10694109946303278
0.12087604181287519
0.12461281031055517
0.11731238395730752
0.09340064046003738
0.08104308819145681
0.07991287981067532
0.08913035671899017
0.11114266465026629
0.13010547952192866
0.13387552987421109
0.12110283562163973
0.09855385253469151
0.07873531989848526
0.07187546809757601
0.07446576810706163
0.08308109725150388
0.08831821970912666
0.08487179580433174
0.07475451487079626
0.06360627228735133
0.042839607373827755
0.022072942460304182
0.0013062775467806084
-0.019460387366742965
0.016621923013959462
0.03140314479540932
0.04948528128467663
0.062118189181093235
0.07145984067692951
0.07748208574202263
0.08594169520662188
0.09818930474719194
0.10474458250782227
0.10200021495858654
0.08543453136742674
0.058134309950205826
0.03762986885914205
0.03198182305283248
0.04030991017185848
0.05841338431565327
0.07693492886790118
0.09142762687219705
0.09904558425650034
0.09871435006992049
0.09360973641968334
0.08340654345713784
0.07049691671222608
0.057622349228947656
0.04486278803309187
0.03333679153585669
0.02854206917321049
0.040986814531387465
0.06382977116243006
0.09375556333606155
0.13175119868771032
0.14033988648733112
0.12041795432993632
0.08590525314924799
0.052307746071457585
0.0587734190033848
0.11234131431061797
0.16814576164036021
0.1964636869683585
0.21001953853616923
0.17493760090400473
0.1306714100635839
0.12166802533381062
0.10575383551251394
0.10377937966032029
0.12898553027181897
0.1460061296986676
0.15932191923648367
0.16806765439793056
0.1460267996094726
0.09902821440936047
0.05460896087113588
0.04136812433059383
0.05376048196921563
0.0800496005865464
0.1049688285571611
0.1081638468746437
0.09844974583574424
0.08050452514005686
0.062998705892493
0.03962963444031558
0.01626056298813816
-0.007108508464039251
-0.030477579916216677
0.010443259833284618
0.02213710965848934
0.037416188824506445
0.054532715008424146
0.07023742392557429
0.0815678415918856
0.0870280256176695
0.08495235013908342
0.07486324538401849
0.05888104961073834
0.04056740211378058
0.024075278908672563
0.014654369688503413
0.014420325913410036
0.02259402958423974
0.03656372438368685
0.05164108811211943
0.06471090622160511
0.07345471191466009
0.07664919403954026
0.07516648012671101
0.06981504392287055
0.06280450007759773
0.054907610860056216
0.04575549205136515
0.0364931761804655
0.029047107780234203
0.02597629001880662
0.02826354759028442
0.03786651583471027
0.04843003130325734
0.055183123977404186
0.05559561711409813
0.044683755704087884
0.029147485140622126
0.018772853874177965
0.020837362494152797
0.03614821871213926
0.06759675360320816
0.10357803772083554
0.12086463229087994
0.1278759292044186
0.12064038141119666
0.09566509347537834
0.08170918717138986
0.07813454654315498
0.08643997514061785
0.10897670641757139
0.12935075677587818
0.13596117863583385
0.12631790024083353
0.10597776582560989
0.08614669937851659
0.07711322918453191
0.07681558057055388
0.08299708614458995
0.08706880579473779
0.08370275189660366
0.07424792764568931
0.06368586651348905
0.04315568053073613
0.02262549454798321
0.0020953085652302902
-0.01843487741752263
0.01071860863660693
0.02242303247472707
0.03769404579445347
0.05433636307668185
0.06943616721185976
0.08043965505693751
0.08645907765190736
0.0859080729579909
0.07744044516162674
0.06268083876199179
0.04440093209549443
0.02685318931462376
0.01643375220300181
0.01575442258482006
0.023962631253310607
0.038165242195526305
0.053475973046300015
0.06678001705645453
0.07546221605040465
0.07835881692643977
0.07649921640866197
0.070533374772743
0.06293778026442426
0.05467263809864304
0.04521088691949454
0.035807971138936585
0.028558100225902813
0.026656969183570824
0.030739369267356334
0.042034167870962404
0.05482221677640229
0.06194295040110257
0.06048643691873241
0.04724577484471139
0.02965975308589564
0.01995817673444094
0.025678515006445128
0.04417722039072996
0.07516354705246298
0.10866258405297897
0.12103936927138059
0.12326439935056818
0.11593161660400607
0.09249453663349833
0.08084032626801796
0.08080978470790347
0.09042382508822128
0.11218205811423679
0.1305280144003095
0.13305174697547395
0.11889051529924692
0.09537258918828018
0.07559056027061621
0.06968738150818383
0.07354184031149963
0.08320972911459588
0.08891202811959709
0.08540742162862713
0.07498925473872496
0.06357705928606236
0.04270229697342443
0.021827534660786505
0.0009527723481485839
-0.01992198996448935
0.010218467742953641
0.02230331306005953
0.03800954806172249
0.056426095267029616
0.07373227903013618
0.08566851433625071
0.08922266644448908
0.08283591101585427
0.06834463502600396
0.04912688321856768
0.03090760464005252
0.017274645267588196
0.010445190128054262
0.011309019020323788
0.019365683720918885
0.0329484499289354
0.04755617968919686
0.0598619850303406
0.06872786248532613
0.07269184679598464
0.07228245421876657
0.0688193088501502
0.06340094863462307
0.05630420408670558
0.047913841005737895
0.03890944546062647
0.031034664331759505
0.025324872308049803
0.023011658941918242
0.028375429435135092
0.033675232819010865
0.03943536283328622
0.0448042543225509
0.04054217365776545
0.03148890570561243
0.020531172303227957
0.014360603917222495
0.02146119655779415
0.053431601198511564
0.09564540864415444
0.1253921529278842
0.14497328450050595
0.13787519053442532
0.10837529337242083
0.08734105536874665
0.07360639909722115
0.07766918330206324
0.10169839202483447
0.12837839196466136
0.14784345834473175
0.15198644283516297
0.14187282139689938
0.1231367898446457
0.1043879270171897
0.09087098191387026
0.08549657940561363
0.08283364965687955
0.07911925877152269
0.07235943373494005
0.06426367160194423
0.04466787626610558
0.02507208093026693
0.005476285594428282
-0.014119509741410366
0.010308899050681828
0.022621337448675914
0.03856088748998485
0.05733604392696319
0.07507043390016149
0.08709089737541291
0.09000424144135742
0.0823757255700261
0.06666672047346475
0.04657817436559468
0.028439518435669667
0.015596565037446605
0.009450928047357865
0.010587503798392616
0.018604857843656168
0.032150427037615815
0.04667555235400192
0.05873197643726561
0.0676203119956525
0.07178994760260032
0.07169585936108658
0.0688229483441934
0.0638469653761099
0.05691066271282203
0.0487049880856199
0.03973536007416807
0.03177395888389056
0.025493958011580196
0.021985007800901027
0.026268079542080058
0.0303219988484191
0.035808517239886754
0.04251934759179039
0.04022231181187064
0.033159749646377114
0.0223628907251763
0.014376545538540618
0.019280127986039033
0.05125005671954827
0.09502513968433612
0.12791481978004227
0.15081427017329016
0.14369137448026317
0.11286839181727897
0.0897053454278824
0.07308254465421547
0.07581816051120124
0.10004504858577447
0.12860052729284616
0.15203205771349043
0.16035917058019888
0.15353236603287776
0.13550600380032954
0.11380418736936335
0.09613770833800711
0.08701433364201376
0.08186898284266397
0.07785948637125503
0.07186156991458185
0.06449144199531186
0.04515564757196745
0.025819853148623048
0.006484058725278644
-0.012851735698065761
0.01025861179335523
0.022460084160274358
0.03828630996270485
0.056897722975510795
0.07443729365033601
0.0864242209146449
0.08963735559364139
0.08257961683390541
0.0674275051619964
0.0477357337184533
0.02955692922857736
0.01635264643857781
0.009896131122417544
0.010909740483383617
0.018945505107973666
0.032504063966435105
0.0470642229734609
0.059236993722188026
0.06811567315270915
0.07219150083516
0.07195194451519643
0.06880492147451456
0.06362644640341883
0.056620453040083306
0.04833198419507723
0.039348624570477525
0.031424880775773656
0.025396119143801844
0.022429591374525736
0.027201946401231022
0.03181403157395802
0.03742581079245039
0.04352440573911262
0.04032016383801952
0.03233503567976126
0.021449341993639237
0.014267135852347968
0.020172889091759072
0.052151431380570226
0.09521967902297626
0.1266916524082181
0.14808432153198806
0.1409780518553387
0.11076383673990255
0.08858206589485497
0.07328168513215459
0.07663077482634288
0.10078037841081845
0.12847440781104935
0.15007271576773665
0.15646858611962156
0.14811340470727252
0.12973730486469662
0.10939748888046441
0.09365421288266487
0.08627527001746728
0.08229917146318791
0.07843570595484194
0.07208866998190559
0.06438428117300365
0.04492932506999942
0.02547436896699519
0.006019412863990957
-0.013435543239013276
0.010782632634228056
0.022497921596225677
0.0377758910703798
0.05432690754143039
0.06930886190403271
0.08024323072841548
0.08636291821556027
0.08610354201749094
0.07794994923696479
0.06342892964134884
0.0451594814050213
0.027407176001281213
0.016791817475020947
0.016023863592168088
0.02423824986062225
0.03849112568632888
0.05385043072261547
0.06719716176588195
0.07586633143574276
0.07870418136922674
0.07677244389462319
0.07069200700736981
0.06298319514862806
0.05464278924973879
0.0451196094319014
0.035686942752806455
0.028477129860983875
0.026813420197198568
0.03124933507360127
0.04287979509604914
0.056115385530922345
0.0633069809212769
0.06148577069932496
0.04779877217754393
0.029826793926149894
0.02028261013149241
0.02674819161269131
0.045877559123099335
0.07676788196933051
0.10977880579322166
0.12118969452636391
0.1224805573623424
0.11512707957735689
0.09197803142219288
0.08074743513016781
0.08138725423690536
0.09123895486524225
0.11283704020519272
0.13081283746321254
0.13258626166164889
0.11758384658831939
0.09348207288190354
0.07373148205202364
0.06840506868904309
0.07301960661631149
0.0833162160906268
0.08928373694331085
0.08573677668838955
0.07513423659936098
0.06356099280290328
0.04261985326475504
0.02167871372660679
0.0007375741884585452
-0.0202035653496897
0.011532806212492985
0.023478352501309988
0.03894578397747762
0.05465572376102579
0.06852926183974162
0.07873439526163664
0.08567212415589308
0.08807910868127018
0.08285561114315973
0.07058824186999074
0.052474888253064976
0.0328131500804053
0.02033283135457014
0.018702519653691338
0.026966760847479374
0.041764045729966864
0.05762489849788152
0.0713300376520935
0.07985958600920778
0.08213153328957402
0.07953786582246714
0.07245118096969153
0.06368809591879017
0.05459024888611344
0.04447413053836099
0.03472775325170582
0.027920768268314064
0.028628096376007717
0.03644981249542508
0.05133487704401589
0.06898863976979315
0.07682265106825178
0.07155615107685095
0.05374704335016276
0.032291429883422096
0.02462123513224379
0.03860372461454626
0.06386090335571157
0.09382605539756121
0.12223091076486192
0.12444859041608301
0.116931953349082
0.10935821598261326
0.0887118774795462
0.08105289618690269
0.08766653710719267
0.09950922065335153
0.11951964442383478
0.13441643460793173
0.12980628388241652
0.10743580568946198
0.07831320413042483
0.059144847166230696
0.058745736393931346
0.06978287796894032
0.08523959996716705
0.0929246016955896
0.08875599144515486
0.07647465205139943
0.06345902575761996
0.04191371869182917
0.02036841162603839
-0.0011768954397523984
-0.022722202505543174
0.01189023408208021
0.023983220022233933
0.03958041281345017
0.05497179443282773
0.06841393427929637
0.07829931568365997
0.08549937237064956
0.08891029391733703
0.08481798062440263
0.07343369783727227
0.055407768944978474
0.03500900638240187
0.021792052348027214
0.019812472321826924
0.02809222687926057
0.04313397759069179
0.05920989475824774
0.07303480282379911
0.08150138888619451
0.08354598755984305
0.08070144672941895
0.07325459114439847
0.06408588751108975
0.054671482853233616
0.04431797981666981
0.034434331280856836
0.02779567639704603
0.029487936445832606
0.03865741317990031
0.054856879928005864
0.07432317503113728
0.08238795822682606
0.07577082278022385
0.05637816836234602
0.03363473263224916
0.026877060995065316
0.04402607562322845
0.07178286804803288
0.10138898440696166
0.12802291719160339
0.1266266404971675
0.11567240271124987
0.10799982360222689
0.08821497039712053
0.0817369589432414
0.09051231766717323
0.10302610378285819
0.12239817134305053
0.1362897889916335
0.12949484500410216
0.10448445162576511
0.07360140912908245
0.054778811029204996
0.05606969693334946
0.0692738326092006
0.08639181937773531
0.09439046751719447
0.08988018177251882
0.07697388727043374
0.06343250630602487
0.041664812348197515
0.019897118390370158
-0.0018705755674572055
-0.023638269525284555
0.010313515573599823
0.022635199848716706
0.03858416241171691
0.0573721982818671
0.07512186196187065
0.08714460001145147
0.0900338261722498
0.08236012345374943
0.06660723832310321
0.04648753692984649
0.028352287364060903
0.015537810271937928
0.00941653515810321
0.010562671092337965
0.01857854189326461
0.03212338098760358
0.04664594642401908
0.058693032761404286
0.06758208479504811
0.07175909813186275
0.07167656978029556
0.06882556886093627
0.06386555637139525
0.05693447253723699
0.04873519607847791
0.03976649038300331
0.0318022671177332
0.025503172195564597
0.021951804354253344
0.026196677330177564
0.030207453050323057
0.03568408652963758
0.042443055791145774
0.040218152538773894
0.033229222057262225
0.02244041159515373
0.014392618665419373
0.019217398546198437
0.051186026890744654
0.09501635882174783
0.12801629499753547
0.15103367146534785
0.14390903702783686
0.11303780301861076
0.0897968957347623
0.0730698194430707
0.07575666921181907
0.09998868944887813
0.1286122461015056
0.15218952685852913
0.16067000985219715
0.15396542331876398
0.13596847216275262
0.11415857157537944
0.09633875435341266
0.08707578384735012
0.08183585991152174
0.07781405827506928
0.07184369555093208
0.06450008025669644
0.045173699038267616
0.02584731781983879
0.0065209366014099615
-0.012805444617018866
0.014205084698743976
0.027497806668206025
0.04419069402423119
0.05801992283172767
0.06923418773380378
0.07719072950120034
0.0853242432738513
0.09367412093612933
0.09537711860106929
0.08862574702445224
0.07126349292063246
0.047098089510883324
0.029984161580984322
0.026086959828328093
0.03441420158544947
0.05096894377231467
0.06829781797859769
0.08258440686840184
0.09064571831471857
0.09144741545026586
0.08735068665806957
0.07827295080669451
0.06704671198680578
0.055841160931153495
0.044212258637218685
0.03350538330696025
0.02782032467245399
0.03507029634920091
0.05147325050244286
0.07487222762254797
0.10428131950325928
0.11314635851985336
0.09942551375571895
0.07179945683664038
0.04290696639488192
0.04236233639337098
0.07791181900154058
0.11993199124183988
0.14809889245061272
0.16644621298002707
0.1463868683416152
0.1175297262569528
0.10920189232602695
0.09259130346995074
0.09018830733281506
0.10873827773284835
0.12408012541258522
0.14018763448558091
0.150432656723742
0.13440499632861497
0.09704025383207525
0.05823788170397973
0.04199917852823959
0.05030297169403735
0.07213705928467928
0.09512132218542577