# vtk DataFile Version 3.0
vtk output
ASCII
DATASET POLYDATA
POINTS 5568 float
0.0 0.0 0.0
0.19040582442733217 0.007372878819313443 0.9816777794582415
0.3789996057404307 0.00953709701948675 1.9637305793674975
0.5455311451149192 0.001697562267741995 2.9497355428886958
0.6729011262803296 -0.012173374302966652 3.9414938224188307
0.7520877930103417 -0.023487733978255605 4.93828941684997
0.770309663747606 -0.024701570561123584 5.93812264795783
0.7107569220122769 -0.005088522922199036 6.936155112016048
0.5687934549422805 0.04266452286528472 7.9248744961870505
0.35299967513495056 0.11800050797452365 8.898402890197255
0.06940414623528163 0.21328924493127938 9.852600790319292
-0.2784707976387426 0.3198768723791709 10.78406313582751
-0.6884104907423255 0.4355458111174738 11.688811799617238
-1.141067153569988 0.5576218351463813 12.572100761370422
-1.6147742825881015 0.6833594676912221 13.443761018396883
-2.0937436967898253 0.8107515315056611 14.312299769597056
-2.572465418123977 0.9379583649576811 15.181002212926172
-3.043906266473066 1.060827336186621 16.054298693176168
-3.4928284661921887 1.1699298710373809 16.941183970699978
-3.90114173862204 1.2493767295683638 17.850562037417657
-4.256121732883852 1.2838485441545493 18.78480017497843
-4.546833033370201 1.2686098543795485 19.741489634575156
-4.76683823389603 1.2098759894801443 20.715218572655754
-4.913385925597295 1.1175626594229822 21.700105379934026
-4.985682948805 1.0015992605122797 22.69072419186341
-4.978630927986887 0.8764826361831516 23.682841170510013
-4.893615430568854 0.7607530863240369 24.6724769805372
-4.7499180158469905 0.6660074007257153 25.657552768516357
-4.5705392579977335 0.5870982489417006 26.638163092241935
-4.377747158247337 0.5168014174030261 27.616881418293644
-4.181415117639932 0.4521731929616359 28.595286713882587
-3.985775046327019 0.3990120870001786 29.57452052626328
-3.806714003850931 0.37527384426953736 30.558072069853875
-3.657807521881712 0.4006545351629771 31.546597577950312
-3.5596886851840543 0.49357368165177706 32.53742487173107
-3.5375885031558445 0.6722034277965866 33.52109300466339
-3.5735332851428856 0.9133683590136396 34.490911260110764
-3.639629848760503 1.178302242359321 35.452909847289206
-3.7271354338806386 1.4443858593627377 36.41287978501391
-3.818859003719832 1.6978700099569521 37.375860871086466
-3.8572711372112694 1.8828678212803003 38.35784881286895
-3.7803744988491284 1.9404421377074588 39.35322417176455
-3.5663805462031464 1.804674495487808 40.32057815845043
-3.2110845664812593 1.46220937904043 41.19033813155229
-2.771412407665278 1.048092546498213 41.987329751186586
-2.3079920932590268 0.5849771847230236 42.74282017063838
-1.8126335073459017 0.06719191724036531 43.44032880007608
-1.2621417467763858 -0.44920863800100075 44.09629319552105
-0.6717149188916429 -0.9439075888150932 44.73399932609954
-0.0332256317818862 -1.3859199585715507 45.364044161986925
0.6654260165589484 -1.68592938535815 46.01356723171564
1.3794333238098035 -1.7957961117394063 46.70503152408846
2.053753631931186 -1.7320387350072732 47.44071292181938
2.684589284586483 -1.5614304678622055 48.19764039425034
3.2980879456784757 -1.3296140465995847 48.95254471909643
3.9121170724029355 -1.06148942338704 49.69489060745382
4.539053626231625 -0.7544715976521875 50.41091477754478
5.191448746935913 -0.39200877288993113 51.076498211192735
5.872894923447513 0.045305815353127374 51.66334321579576
6.571521725832763 0.5722069061713951 52.1473843622735
7.260204457750286 1.1958703231107322 52.51719517489283
7.917186251941736 1.902319953276832 52.78045140395334
8.520611748350742 2.678287012774348 52.96417073570241
9.039394351351692 3.5233786480186575 53.09334015493025
0.0 0.0 0.0
0.0881509587944441 -0.05639846451438005 0.9945092365906113
0.1763782834770378 -0.11346288207894051 1.9889737112840864
0.25730493373314534 -0.1661004070583982 2.9843028871060167
0.31654095252370473 -0.20617896460242804 3.9817420097110174
0.33206026636592134 -0.22368489243481046 4.981468318951999
0.2868524864501426 -0.21401221972656817 5.980399095351327
0.16501856202348078 -0.18143898029014868 6.972414961621326
-0.0496248955719773 -0.1347254985290983 7.9479896828668215
-0.3668248753802029 -0.07970680490395342 8.894751065772484
-0.7756410798602024 -0.009448795360767454 9.804659370520604
-1.251921903292121 0.08576896071345015 10.678781876900118
-1.7611104499075578 0.1976974414538258 11.532127668004058
-2.2842327760467387 0.31351211522927 12.376479486402657
-2.813344107987951 0.4244802812894941 13.217744762360619
-3.342699259431334 0.5139083623588149 14.06141871713024
-3.858163263060238 0.5669019154206734 14.916689752707114
-4.343462729154718 0.5816045957928453 15.790914128595986
-4.7829760320379995 0.5635313581292344 16.688968366751446
-5.1648000628032475 0.5176421761738527 17.61206348238669
-5.478473535277544 0.4474465261796722 18.55899617449728
-5.717014579071639 0.35480651201251945 19.525699851019066
-5.88117187215531 0.24092204558343822 20.505537955724943
-5.976603237043124 0.11343931125299656 21.49277703874551
-6.011376904753143 -0.01812151106526605 22.483475046245744
-6.001707295179652 -0.14677082409528955 23.475118053031753
-5.958713162828572 -0.2694458126709798 24.46663323282545
-5.888503760766824 -0.38279098227986086 25.45770513354127
-5.797038539842726 -0.48115551841412363 26.448643341197226
-5.685505690968713 -0.5557745100437201 27.43959865285877
-5.556397696391366 -0.5911766071141521 28.43059704703468
-5.4086669700415255 -0.5694831879467612 29.41938672540768
-5.2426705609326385 -0.4859363407118704 30.40196757016299
-5.071612060616545 -0.3251021363482741 31.374012501313985
-4.895548226889259 -0.09245343268010614 32.33050406276906
-4.70029039490468 0.19686756803394007 33.26761010671206
-4.48998942468906 0.516516709764603 34.191513742443206
-4.272212226852687 0.8451324493182009 35.11052668458286
-4.051333796838343 1.1705171846503688 36.029949053881765
-3.8318741545997526 1.458381765931093 36.9621354345335
-3.6349006003504054 1.6834137654219425 37.91636916802416
-3.4682201350354345 1.8306394957732213 38.89132670905091
-3.3383318239826556 1.8622729396033755 39.882350599723225
-3.247551243206824 1.7434632222153605 40.871108981335325
-3.1585360606721036 1.4823323902287644 41.83229938175779
-3.0114263720715484 1.1133471685514496 42.75001864476996
-2.784174317255694 0.6840553782706578 43.62412679733432
-2.509868920015884 0.24073811534844533 44.47748859249524
-2.159730217247364 -0.19789922482804093 45.305135964645046
-1.6916022362639378 -0.6081057631150749 46.087815202498554
-1.0980724835120639 -0.9496098276430502 46.81657950356521
-0.41378950836510286 -1.1751634146758212 47.51003634382325
0.3160824221916966 -1.268613040984255 48.18720259543958
1.053983498174591 -1.2355320560347045 48.861300251939035
1.776685857782589 -1.0861179786237307 49.536116325316414
2.4834020138726456 -0.8422173164865021 50.20024337771702
3.1861183327169043 -0.5208819149623536 50.83501367865846
3.8881197823544205 -0.12246564117878642 51.425317361089164
4.58745027074823 0.34221948798597235 51.96846061911232
5.281934194498488 0.8588268347697592 52.46926889470435
5.972675127951609 1.407323428372783 52.94046784383114
6.658765733350578 1.9786961145917719 53.39081541474295
7.336903910594563 2.5673247814071773 53.83086644038353
8.003717298295722 3.1697617259823243 54.26953446268908
0.0 0.0 0.0
0.15030311501072952 -0.017143577596802392 0.9884913107181337
0.29985234736642524 -0.03711181850728251 1.9770439377728408
0.4353564306895326 -0.05975167342798919 2.9675620246202916
0.5404852518455647 -0.08022445313684357 3.9618098791582517
0.6001256985727723 -0.09060416382531843 4.959975836662415
0.5993806861751927 -0.08447955224452221 5.95995680352604
0.5218419163392136 -0.0568009570099756 6.956561857967451
0.3586690283476243 -0.006285083128533907 7.941865240236323
0.11207589604060181 0.06510664083247979 8.908351168146753
-0.21079871837703118 0.15505832868495592 9.850508626970466
-0.5986024495478934 0.26133209341939684 10.766103599116516
-1.0357146369331125 0.38012336956306364 11.657631259007934
-1.5027290736662082 0.5044136325171076 12.53310224448814
-1.9832407114607986 0.6279606116821929 13.401344555069201
-2.4663583077050193 0.7485853235731886 14.268551028223328
-2.946839748415818 0.8629116132485901 15.138072209461331
-3.4133883595887546 0.9637164518015404 16.01680469317689
-3.849498125816707 1.0441093229452933 16.913099989421305
-4.238669361986859 1.095109730487737 17.832852514488945
-4.569169636845621 1.1088493586433623 18.776558396073046
-4.831671206104094 1.0831232400098907 19.741146957562812
-5.022252259254231 1.0220322883850599 20.72091568425792
-5.141621686541788 0.9347436029525507 21.709921055944296
-5.193050772800867 0.8313571422548194 22.703231827470987
-5.180843094767466 0.7237708874714031 23.69735263017995
-5.110684644340711 0.6237840395452381 24.68986480747326
-4.995534591011921 0.5393767006481078 25.679620265330747
-4.851896685555738 0.4697941643281773 26.666801313951236
-4.693987249503929 0.41215463388604673 27.652571213337605
-4.528343239851445 0.3691006320366827 28.637816571099318
-4.358699683840934 0.35039611964047257 29.623144539402322
-4.194135771399974 0.36896898219229285 30.609336086465444
-4.046166132683191 0.4442573543301655 31.59545811088172
-3.924822533866401 0.5839629010620808 32.57818802863051
-3.8356324178787697 0.7844247932133057 33.55382123481266
-3.7715307193824255 1.027431553086123 34.521725510506286
-3.7189806566028873 1.285898235306851 35.486315301600754
-3.671304874659531 1.5432430484093482 36.451458123666654
-3.6231156735992864 1.784522831887165 37.420716534507676
-3.5546183841485406 1.9708750165574862 38.40080886924278
-3.4470057511976346 2.0708467816178886 39.38996263252737
-3.291830222406647 2.0329594992509894 40.37712275586061
-3.080918983841402 1.8280486247430776 41.332909334002025
-2.8168886337414047 1.5270659014804016 42.24925936238826
-2.510359953107094 1.1537931439905538 43.12487778182934
-2.1493345535322326 0.7205191751767221 43.950670933175445
[...]
CELL_DATA 87
SCALARS quad_param_group int 1
LOOKUP_TABLE default
3
1
3
1
2
0
3
3
3
2
0
0
0
0
0
2
0
3
1
3
0
0
2
0
2
0
0
1
3
1
0
3
1
3
1
2
1
2
1
0
1
3
3
1
3
2
2
3
3
3
2
0
1
3
3
1
0
2
3
3
2
2
0
0
3
1
1
1
3
2
3
3
0
0
1
3
2
3
2
0
0
0
0
0
2
3
1
SCALARS single_component_feature float 1
LOOKUP_TABLE default
-0.9275042418824077
0.7941459283578678
-0.26506642791014373
-0.46220074327684524
0.11518612405567452
0.3326187443665277
-0.6340380467895789
-1.0349015912868538
0.26474506866725767
-0.02615625369532587
-0.3049898818462007
0.5452335944859539
-0.6994477210235354
-0.4852753095461446
-0.25024691041529856
0.03787918791233645
0.06299498207545873
-0.1872341329763183
-0.1385542332397698
-0.3061543311495945
1.1711626000228212
0.2567650360286803
0.6086616951790729
0.38036088641126853
-0.7351936970850672
0.8175729703796478
0.015359300694024858
-0.49208074398551627
-0.23876317701291688
0.31216388687895763
-0.8176748172650166
-0.04771926572372365
0.9634459636689078
0.5686610516108759
-0.2272509454431687
0.294334490082409
-0.027961850110312714
-0.720853035078102
-0.9138862893638711
1.0191775416131068
0.8010111895836822
-0.4930925667505636
-0.3713304697539799
0.29943747045137725
-0.6610290217721103
0.6842507648707244
0.2202794644760061
-0.08938960043031546
0.6415419400513175
-0.19197735682382777
0.2432312067761237
-0.08497473791482496
-0.21011405258338334
0.06268591520249037
0.12088438490270254
1.24739817513203
-0.4733080998171342
-0.6046832904270407
0.1617775567038866
-0.1165818290963696
-0.3918948575584218
-0.4337056630268024
-0.8507585909464735
-0.7466479378959663
0.46255866957129227
1.0931530569901264
1.013920889836937
0.025321302660272715
-0.07967353870366548
-0.09821036172670161
0.31415373583735506
0.5472725189784604
-0.18131530350129285
1.038549561159843
0.5358280558671635
1.076409803474686
0.05561283805072681
-0.312348249065569
-0.3972074905898204
-0.33921714298768535
-0.023296961392316018
-0.3647810562297101
1.1122176602827694
-0.09819191000862179
-1.1406098593942404
-0.6727109001176803
-0.947760718730594
POINT_DATA 5568
SCALARS single_curvature float 1
LOOKUP_TABLE default
0.017523481716891054
0.029641351988412945
0.043700506649681885
0.05764611822486479
0.0694641559540525
0.07734677726185964
0.08017473494129783
0.07734256645772102
0.07253032972353436
0.06457226646662065
0.052389464581442405
0.03673788916146697
0.019804943069401157
0.01016275390619301
0.011502223234578146
0.023680045175873694
0.04207499506279198
0.06067026937039564
0.07435365537994812
0.08091456745752444
0.08192422834829928
0.08083283927486033
0.07930204816013392
0.07457743304094634
0.06492664305592712
0.04903526129338632
0.0311109052231982
0.01838404231230145
0.01707381161523851
0.02751226615823034
0.04692691704000942
0.07260384211910625
0.08560078632736494
0.08097016287386981
0.06532345183867705
0.040151035780631186
0.04075028142504617
0.07377754272819034
0.12707789763084198
0.18864865901950204
0.19909577133250808
0.17416997909198856
0.13729441947885013
0.08861264703500164
0.0679374323959213
0.06874779601642414
0.0859445634205049
0.11696390550090902
0.14980783565486652
0.16088846270957405
0.13856135408624237
0.10012955574754016
0.06685510735068163
0.05739206493840526
0.06950860281298162
0.09401713822507188
0.11896015480207221
0.13351809897642067
0.13497863659619455
0.13124554147394335
0.09432281007499853
0.057400078676053706
0.020477347277108884
-0.016445384121835938
0.00860083745390815
0.02090763742739137
0.03735023521260395
0.05521817605261223
0.07265869019596188
0.08693181062329357
0.0951865528609979
0.0952038922701422
0.08209373089734574
0.059791276331212846
0.036972009995622224
0.02233408908162669
0.02191634265458813
0.030722529112038422
0.04390773149589683
0.05564129035035982
0.06447256597729928
0.07156924537139629
0.07586827186012148
0.07628550186210471
0.07249138874171766
0.06346742864975541
0.05236651967123519
0.04198129545961682
0.03327815056819846
0.029918584323130736
0.03219485850361354
0.04000932230570592
0.049678675662722334
0.06139746655777115
0.06902353074962667
0.06971916265716824
0.06264358119044797
0.04633020402264679
0.029079543578289985
0.023279570380835436
0.03175008540056932
0.0500419166887828
0.07932655087425808
0.10790676797092871
0.12624060229743742
0.1369923198845645
0.13381885102668423
0.10876787811960847
0.09281960259148625
0.09268159596029049
0.10336852127659327
0.12746679417273016
0.14224286155091004
0.1416081904176742
0.1329627047861396
0.11951287933867497
0.10531762928320892
0.09599686472508209
0.08711979663504334
0.07987554276294989
0.07013775141028152
0.05579375406450653
0.04090302130291591
0.028613066020104414
0.017702480469138776
0.006791894918173138
-0.004118690632792504
-0.015029276183758138
0.012007339277934946
0.0236900637791449
0.038593246616102424
0.0548916812353911
0.06947955252668665
0.07972110432419958
0.08456935085570515
0.08263556262065669
0.07443662821804607
0.061107309420080524
0.04445621057898767
0.02749627578003063
0.015240394287842301
0.012018563089697816
0.01834287386378186
0.0323504790496013
0.048886654590261265
0.06378695709586614
0.07395599502858043
0.0779986254886681
0.0771155191952644
0.07275700864552676
0.06702065862177638
0.059873804690387826
0.050478064692176874
0.039229403629680824
0.028759895542732228
0.02301256541282845
0.024364784797862346
0.03445732958173625
0.04774112359719068
0.05880701387340669
0.06188365784964901
0.052044025499530085
0.03589793781687877
0.02279121190811404
0.025177887073084854
0.044046512716661775
0.07901656506985176
0.11900086755574506
0.1330047501204085
0.13250778151278927
0.12010374902763093
0.0919220705700272
0.07780026186738458
0.07564384887529196
0.08552133813392684
0.10896238597757156
0.13148942632951877
0.13835759477631557
0.1248154520590831
0.09934966239883773
0.07646725586616229
0.06852618380620977
0.0729822723906448
0.08535035300138255
0.09547947195106746
0.0966102125787708
0.08938550619535858
0.0799098539786174
0.055127362121530084
0.03034487026444277
0.005562378407355448
-0.01922011344973186
0.013374022869345702
0.02511842103597984
0.03976023807912802
0.05547145577221143
0.0693164465993005
0.07884667558369833
0.08308719626752487
0.08085970217686231
0.07364260229652457
0.0619296727179984
0.04655770960205666
0.029762292889795185
0.015895436740573685
0.010665839206309332
0.015553125548549786
0.02927136125279678
0.046590399791017256
0.06268641723203545
0.07391559288019833
0.07868851995255606
0.07836134567321382
0.07494333026173054
0.0703854442399816
0.06392694188143673
0.05445021872195436
0.041796688265798965
0.029069501775422387
0.021134559838630898
0.021497093427565096
0.031588666986090544
0.046495202194417405
0.06129911519291275
0.06712459310038763
0.05880262316610272
0.042786427459505776
0.026852509199754855
0.028686087552866283
0.05046588201698966
0.0893699944616243
0.13429585630213248
0.1471860157674646
0.14101183879043938
0.12327493734124018
0.09073314630655645
0.07518967869701709
0.07345409776661525
0.0847736181966374
0.10975481567536963
0.13490984391984287
0.14308447231162005
0.12742461977589872
0.0985743903491323
0.07300416505097221
0.06478455526960482
0.0715409473785683
0.08751076827308928
0.10186418307137962
0.10669697640557528
0.10175264469541075
0.09369177067711347
0.06555011331889538
0.03740845596067728
0.009266798602459186
-0.018874858755758908
0.010024744486514
0.021747552223928893
0.037177486811968204
0.05434286224766347
0.07017299399865695
0.08181717664082135
0.08785867403407477
0.08655401382357514
0.07652221695302944
0.06002848111495156
0.041027858656591115
0.024280699211639764
0.01566780413945866
0.016540098630431304
0.02550945105907788
0.03945379920194111
0.053900600061196034
0.06625688117967143
0.07434272960936295
0.0770197923551452
0.07507587323225232
0.068971077567635
0.061126299982421695
0.05272784384939067
0.04352781579320561
0.03507217006785583
0.029062872709232968
0.0278232514049569
0.0315649931202851
0.04189823323523615
0.05254337409885219
0.057926470409050676
0.05631795492927446
0.04373275721620515
0.02734967219663764
0.018232044422884165
0.022175583154303857
0.03813382944834329
0.06832092537828123
0.10177099783003536
0.1178462741074704
0.12494079872740031
0.11926116228100195
0.09583195314013894
0.0828905414012262
0.08076170470323811
0.08939159775551672
0.11143542451693027
0.12997044743078448
0.13420473512514347
0.12356670535837794
0.10349186562031966
0.08478077271544233
0.07688791227140854
0.07677415364822733
0.08219183019186883
0.08467406180653535
0.07945518914273342
0.06867417808217713
0.05734918471116887
0.03834147728343471
0.019333769855700553
0.00032606242796639345
-0.018681644999767766
0.009275236986548583
0.021114020179962726
0.0368581117700951
0.05436477980535551
0.0707943457445502
0.08326175628604011
0.08999984445513479
0.08909129749430604
0.07804683278996094
0.05971502130166048
0.039439381836348514
0.023127394844281588
0.01690907884838586
0.020243587101064567
0.03064029366869943
0.04417216935880718
0.05707982739544393
0.06784447890822534
0.07472068832794852
0.07664521557390895
0.0741013837220523
0.06703578070502628
0.05807981956508355
0.04901100643666144
0.039951975360601945
0.033128567123122246
0.02973078463639542
0.03124671337863135
0.036647521167874585
0.04727756356849948
0.0567131726166612
0.05977553347613499
0.05591522644282205
0.04192352813147689
0.025381233416413344
0.017854132213951362
0.023051511203152613
0.038787964219761564
0.06767287639036491
0.09879438563191058
0.11589231107252167
0.12550604428566825
0.12186908213810026
0.09921715762409847
0.0860044171849871
0.08428502678578763
0.0930127654303973
0.11512526411170597
0.13200093058775622
0.13467999375382006
0.12507057498096197
0.10747298764814263
0.09057549331698182
0.08241481653771573
0.07957695749570566
0.08098629718093373
0.07937135553482302
0.0709520248209
0.05858537907595468
0.046672163665588115
0.030554226311496038
0.01443628895740396
-0.0016816483966881207
-0.017799585750780195
0.014755068213096148
0.02659979178039858
0.041020649314768
0.05614219952530178
0.06928370340729063
0.07820106122272541
0.08191683631175822
0.07945156386485751
0.07310821855416963
0.06279152578597308
0.04856925014318121
0.0320718090064665
0.01695585286508556
0.010042804005979122
0.01364449576385938
0.02693369199146613
0.04477131831664839
0.061842252567238465
0.07398505466622017
0.07940741533607916
0.07956930086779211
0.07699220979123815
0.07351092812002212
0.06767451482115111
0.0581332998324306
0.044276677588939155
0.029610039663130378
0.019846690990704657
0.019483076952803113
0.02964181647629674
0.046102787624314
0.06459702615641338
0.07297537677016075
0.06600993775683044
0.05011647082483426
0.031198027686273968
0.032613189286412575
0.05779392641155079
0.10109499448590253
0.15134931286427972
0.1632929822360434
0.1511009164900621
0.12747778039234467
0.08996536972622624
0.07277362149119092
0.07170374350127871
0.08477541872090447
0.1115839776498393
0.13934092129926975
0.14861706941015038
0.13075801817271854
0.09861972745443977
0.07041749758043016
0.0618270314315859
0.07056884539776744
0.08968748910229797
0.10786347787630617
0.11614648351417219
0.11342646791970609
0.10683871334432536
0.07557757481741405
0.044316436290502734
0.01305529776359142
-0.018205840763319894
0.018666016825063542
0.030916425867890368
0.044848413025593545
0.05831019948578666
0.06960500521128436
0.07711169917374847
0.0796166761834628
0.07666248305972509
0.07242284635529979
0.06532018706902647
0.05390803706776108
0.03867262968707874
0.02116606659741361
0.01057156765297577
0.011063540950449065
0.02271751156073905
0.04122466115558943
0.06033675209801892
0.0745802162941546
0.08156850995731088
0.0828935145617601
0.0823626731550247
0.0815824105967029
0.07727997428883693
0.0675839945865284
0.050941173007187
0.03183755229792372
0.018072785896451407
0.0165095388450258
0.027112592343736367
0.047703675226244996
0.07626551834738984
0.0910014273256375
0.08720833908852395
0.07166095788442951
0.04390520075886252
0.04408324639877675
0.08067418667762608
0.13856728969924742
0.20485130993372155
0.21480138681370184
0.18443113309454773
0.1415241886132348
0.08790231766628628
0.06584104002969506
0.06758819118806068
0.08664903153307915
0.1195578807404547
0.15445124326832096
0.16617149892995112
0.14201643568590835
0.10109650477667938
0.06580327060236421
0.05595605474619938
0.06930623687122756
0.09578198355432058
0.12324463080039973
0.14016803646658513
0.14321158890691527
0.14053928408829955
0.10147412920693306
0.06240897432556658
0.023343819444200095
-0.01572133543716639
0.009479349959346085
0.02127470786719103
0.03691972792008901
0.054331762964410155
0.07058277017901746
0.08279140898801109
0.08931085969308744
0.08827586488128297
0.07754478466591137
0.05978901047375781
0.03990608434334994
0.023433807028230565
0.016444108193497464
0.01900120682013248
0.02895955919131409
0.04264992675671274
0.05606475249513813
0.06733644121120946
0.07459123071325997
0.07674816091339347
0.07439099998919457
0.06762251286498032
0.0590062347579619
0.05014316427660872
0.041037853764103606
0.033703441829985845
0.02948591471521602
0.03012745257197086
0.034986938387238924
0.045510641292086006
0.05529985425923177
0.05901111684072209
0.05581446792747443
0.04224467794834404
0.02576313881126749
0.017789176657739696
0.022567509309804352
0.03826862513227066
0.06744958120650583
0.09920497452716077
0.11600342192035941
0.12496757806930557
0.12082325391663498
0.09806991502959914
0.08501519601169302
0.08314162932506726
0.09177928333623739
0.11380589137427148
0.13115180555929465
0.13431876088643563
0.12443307482450823
0.10610454093210817
0.08868281775937417
0.08062801120954483
0.07865011949907873
0.08131499667882477
0.08095920685323582
0.07350823309838923
0.06160548231184733
0.04984342987916257
0.032854725259892054
0.015866020640621536
-0.0011226839786489806
-0.018111388597919498
0.010661525678337972
0.022345141751683128
0.03757588199004144
0.054459493637650076
0.06985691893351094
0.08097456297163812
0.08656899958796396
0.08502094393220466
0.07566115662289552
0.06035100224193452
0.04220579015533414
0.025298054421493903
0.01524924621633628
0.014566893549219353
0.022573945072674774
0.03663867637268066
0.05195180401817423
0.06529016172576628
0.07415598269593886
0.07733383095061323
0.07578259745076545
0.07031681772788845
0.06323083078738513
0.0552858127829813
0.04600574861299405
0.03650028991583036
0.028816795526662314
0.025856126303446362
0.028634755530044347
0.03883984263502518
0.05038924417523548
0.05764784945950713
0.0576797684110359
0.04608093920337531
0.029782425304980067
0.01937651659314447
0.022649838545100255
0.039296999252833316
0.07087323038698998
0.10634575079553239
0.12167838758531706
0.12644002585548927
0.11875750081951436
0.09409031200606402
0.08095602231464065
0.07870391300150482
0.08757706070412065
0.10990756652319703
0.12976246923540588
0.13499121979045145
0.12344725220570557
0.1015357465697623
0.08142766894734561
0.07359434003627197
0.07520510399434444
0.08321123907354545
0.0884607814023359
0.08548417570733632
0.0759005376913093
0.06513233857018258
0.044086835342642544
0.02304133211510251
0.001995828887562473
-0.019049674339977563
0.012265373152966866
0.02395600851043842
0.03880559716052574
0.0549927711399057
0.06943569518693864
0.07953240495227086
0.08425703051679423
0.08226195934721484
0.07426010329596248
0.06125942844275836
0.04486397479303226
0.027922168176770033
0.015324649048394038
0.01168969189310099
0.017726372951658426
0.031692930781473075
0.048404059102394856
0.0635532720770046
0.07393810063580693
0.07812739760702345
0.07735650275445582
0.07318645211795137
0.06768397587507068
0.0606743615022027
0.05126135515981589
0.039725749231322986
0.028796070990299894
0.022597714446226356
0.023735922549443383
0.03382167026867163
0.0474201857548511
0.05919975584173896
0.0628164702190328
0.05328000277477343
0.03715978213738647
0.02352816093320114
0.025792374951116775
0.04516892058801582
0.08084742350837165
0.12173708597884836
0.13551492747337787
0.1339696087406257
0.12059769907626411
0.09164389810210458
0.07727732955602865
0.07517910975207377
0.08530186734675997
0.10900812840629946
0.13203639427671968
0.139172721753232
0.1252366265283253
0.09911898652096879
0.07572136629632736
0.06773729627232838
0.07266199539530195
0.08575885015909608
0.09672899757974668
0.09858653642839066
0.09179914311152214
0.08258461828336676
0.05714169597886037
0.031698773674353975
0.00625585136984759
-0.01918707093465881
0.008810473269564625
0.020827538034416705
0.03688793403429544
0.05462180529205823
0.07156087683360489
0.0848499368347572
0.09228013916688445
0.09178391494621727
0.07977370416897667
0.05962420287061421
0.03814934474143113
0.02248250644689118
0.01881807576983264
0.0246356876501
0.03636036332725802
0.04922017580209532
0.06038431007837718
0.0695044196364594
0.0751920354834905
0.07640519343828507
0.07328078277194934
0.0653001245933923
0.055321106710983926
0.04562815556832038
0.03672577529167816
0.031504619389103206
0.030699881726901492
0.035039925029730204
0.042277524411855304
0.053327101069772516
0.061798794824009594
0.0633028764601016
0.05764491437676681
0.042457138863841844
0.02563752802127451
0.019207282168798735
0.025847044516883133
0.04227196955650755
0.07085672317767387
0.10046614253291378
0.11834059529425645
0.12919218552055606
0.12640640259724403
0.10328952675010297
0.08916309036385192
0.08806438885460469
0.09740960804961372
0.12014830538312299
0.13582428213345143
0.13697064121633404
0.12798985193265675
0.11246409277808549
0.09698403478751025
0.08837311272260799
0.08278773480575985
0.08023436847210856
0.07478419857223104
0.06349832966084708
0.049841989187138454
0.03762504052186396
0.02405737962626105
0.01048971873065814
-0.0030779421649447733
-0.01664560306054768
0.01532730261379778
0.027221720320135624
0.041560212323431114
0.05643815283510462
0.0692980663381034
0.07798363411492099
0.08150071320943299
0.07894939438100132
0.07294305644317642
0.06315483838045159
0.04937878060575673
0.03303296701760237
0.01747907230996675
0.009941731132149249
0.01304632541874894
0.02612900917432758
0.04412483616457392
0.0615506518935261
0.07403883066854232
0.07971166209733262
0.08006102570810644
0.07780950914704952
0.07475052369415999
0.06915645675867424
0.059591313800078066
0.04528041594610801
0.02988206177184307
0.01944121089301439
0.018834501739204666
0.029036471263268863
0.04612316460285119
0.06612481336372866
0.0755083281127671
0.06906398942482778
0.053221187263240224
0.033031725435717245
0.0342871743007933
0.06098688937453251
0.10622626586428191
0.15876853646708042
0.17036349164946862
0.15560579682325448
0.12940144247581617
0.08969633563218148
0.0717897830594843
0.07105451519033966
0.08492055678267273
0.11254721474775962
0.14136928864389542
0.1510556095957129
0.13227507878621486
0.09880491546336362
0.0695328399542376
0.06077253093138166
0.07026753662299513
0.09058705376224592
0.11024886743959465
0.1198943855549314
0.11807189257235938
0.11209358200059705
0.07960289650603096
0.04711221101146487
0.014621525516898784
-0.017869159977667304
0.01354918661169918
0.025304523963669424
0.03991629187998187
0.05555255408968362
0.06930612141127879
0.0787536930679675
0.08292349874524751
0.08066308732379678
0.07356234289455811
0.06203757860011085
0.04681810766189046
0.030054290206349074
0.016011324474518192
0.01055203494017425
0.015268432520362437
0.028938618168219844
0.04633608561201155
0.06256663165779305
0.07391903680834797
0.07877846024963542
0.07851669024878707
0.0752104192805982
0.07079438761882371
0.06441821355609285
0.05493259709558225
0.04211649141777743
0.029127377242721377
0.02094274782941588
0.02120039941689182
0.03129723165734418
0.04640494609298607
0.06168128000566681
0.06784153855506171
0.05970024973260473
0.04369982595646515
0.027394507646425932
0.029170090784548252
0.051358393442292205
0.09079764001060493
0.13638201848767786
0.1491430891712725
0.14222029830336116
0.12376399508713454
0.09061983278030523
0.0748760208761075
0.07321271966646214
0.08473993177520936
0.10993980023811015
0.13542748103916788
0.14375206701737955
0.12781593775298983
0.09854233531179948
0.07263408879654429
0.06437132694815889
0.07139511058830711
0.08778719986321323
0.10264660896225923
0.10793105188844775