# vtk DataFile Version 3.0
vtk output
ASCII
DATASET POLYDATA
POINTS 5568 float
0.0 0.0 0.0
0.1351647462618073 -0.01869138570393397 0.9906468207532129
0.26982233069615724 -0.03976372213773086 1.9813149244042423
0.39263512820041946 -0.0620529001864207 2.973494449143133
0.4884817055946423 -0.08002840826066754 3.9687282481628836
0.5405162962387234 -0.08634340603191018 4.967353564374951
0.5330530129476355 -0.07545744338558291 5.967266458191098
0.4483260680702752 -0.044193867884277635 6.9631800757597215
0.27488411656765194 0.006137865770388816 7.946737194612653
0.012464895457170166 0.07278268148661701 8.909386986037301
-0.3305102646902625 0.15617278564544904 9.845022668367886
-0.7389506205063082 0.25715761387981 10.752204315121908
-1.1912823011993807 0.3719490854158451 11.636635753224361
-1.6675464918507714 0.4925093174727427 12.507633830805226
-2.153836749339501 0.611643482015367 13.373271651322721
-2.642253444515492 0.7254963797198005 14.238422880621776
-3.1258300750646226 0.8271103103387895 15.107806715007317
-3.591589264733314 0.9086121049136897 15.98895700566166
-4.023216884111292 0.9644580953798514 16.889278516866938
-4.406117466996156 0.9887480039994591 17.812748680957625
-4.7295013277157665 0.9770172242813028 18.7589438338903
-4.984839071380426 0.9283600418104374 19.724570633049392
-5.168900543213095 0.8455493595221596 20.703990749999083
-5.283223265197869 0.7376137328554426 21.69155351546468
-5.333317766368435 0.615767171274138 22.682837509274368
-5.327806491706946 0.4919483049016544 23.67512704070249
-5.272912301312699 0.3768834293507647 24.666967099520146
-5.177001451645328 0.2783808380718468 25.657471187561896
-5.053237884118195 0.197337873265895 26.64646796066503
-4.912837551794732 0.13269896281982865 27.634450530318873
-4.761741641841867 0.08929741690998677 28.622016392329176
-4.6023542176144225 0.07800735945011718 29.609167942801896
-4.440353196283144 0.1100811963129103 30.595437144428168
-4.287082818806489 0.2049822532104327 31.579053929964026
-4.150874705486826 0.3686227520568511 32.556125645347905
-4.033377402529077 0.5906171342817441 33.52406824594891
-3.9312308419115682 0.8501422857391829 34.48438734703719
-3.836526431978831 1.1244850547595844 35.44134456647049
-3.743858983385566 1.3981598378961417 36.3986923909556
-3.651106954232741 1.6552814228826433 37.3606100338035
-3.549025144389741 1.8596273351261425 38.33417156357373
-3.4260760053094885 1.9850344023697135 39.31862906732125
-3.2779681314484184 1.9866507357975203 40.3075989582515
-3.098122383022674 1.8343510677914534 41.27943244084943
-2.876989866416455 1.5776246939644485 42.22027885715819
-2.6089879681400774 1.2356884657654084 43.12097558656564
-2.2795957439949954 0.8251166256885035 43.971229387973565
-1.8957122482444713 0.4005760095713818 44.79122861172762
-1.4535148203980905 -0.013064451667286625 45.587069678544545
-0.9345903564455089 -0.3879061220581054 46.35532167030906
-0.32612167853567764 -0.6663643979870576 47.09844134880596
0.33858856645159197 -0.7986170466581759 47.833743686030886
1.009934885731841 -0.7823235458100726 48.57470835551181
1.6642167591224863 -0.6549230050282551 49.32015072911351
2.3014462648849316 -0.4426432931480851 50.06101230924155
2.9310180192941995 -0.16838387671822855 50.787938150403896
3.5643614524376273 0.1627627597736492 51.48737935653506
4.208821775008763 0.5584982332153922 52.14164560791239
4.864555290395767 1.0216716247031992 52.73787036940413
5.524918572152288 1.5519964130753474 53.26954315876408
6.1812414465137095 2.140359116746484 53.74184561854886
6.826304512916792 2.77694297169291 54.164521186785535
7.449391064973739 3.4547087123477014 54.55490144940193
8.036497108675528 4.172165023766767 54.929818686474036
0.0 0.0 0.0
0.1332212847087853 -0.04570438331714478 0.9900319179936274
0.266099382688419 -0.09294767449401004 1.980037717227194
0.38753750422135563 -0.1393719971554472 2.9715504831076838
0.47974465903645297 -0.17942994411438276 3.9664842504944082
0.524775873834531 -0.20297725061269362 4.965192272916619
0.5074641109431342 -0.20300217425704642 5.965042412809796
0.4149220380253667 -0.17781242600039973 6.9604325078593945
0.23836503478935483 -0.1283019615634623 7.943476931331476
-0.023428215831389654 -0.05710943146464933 8.905971563829524
-0.3638435356448531 0.034415869286842656 9.841781656401007
-0.7695714839341321 0.14612717456895005 10.748922999439202
-1.2219349783198423 0.27121529530292127 11.631940683859165
-1.7030798289381763 0.39977599690446536 12.499103747375583
-2.1979312671402464 0.5247891703808268 13.359041978044921
-2.695765458986608 0.643823747208929 14.218106519827455
-3.1896745492946823 0.7529276128534101 15.080747903608966
-3.6673464285606054 0.8465929237620822 15.954278890632864
-4.111242636567927 0.9217289131824198 16.847201473845175
-4.503280025036959 0.9728837593833913 17.765727394956027
-4.8307267693544045 0.9939678985740847 18.71036176269335
-5.084446224075189 0.9830163728610006 19.67757761367013
-5.26249001721309 0.944550409663799 20.660848063444952
-5.368175103691093 0.8869835259913018 21.6535800093399
-5.404416560013345 0.8178966164604622 22.650532142481268
-5.37642108946238 0.7456147695791191 23.647523410366826
-5.293375126059956 0.6768017101637189 24.641690464144236
-5.171753542894226 0.6163343871328103 25.632423472251737
-5.027008099206545 0.5652876476833463 26.62057476983892
-4.869286694786819 0.524173147914421 27.607202134397912
-4.703368696991609 0.49928399629582765 28.59302754903244
-4.533749408646772 0.5034857878822349 29.57852825525687
-4.370509501884883 0.5473822869469043 30.564137625245934
-4.224649121373214 0.6481976454453824 31.548292599265686
-4.100297304511309 0.8056992617919919 32.52795063475121
-3.9978788375902843 1.0147057938679847 33.50048686913176
-3.9097419694288207 1.2614664494679944 34.4655470078374
-3.825017755469479 1.5177562242083598 35.4284267297822
-3.7411787826255196 1.7709169648444973 36.39221128352491
-3.6548272167027123 2.001463065564412 37.361433601935666
-3.5567325964987893 2.180317233854373 38.34040685589736
-3.440841364587559 2.2831097311923543 39.328335459014575
-3.304156538634284 2.254643927342756 40.31854097120147
-3.1424585843506443 2.061492096316212 41.28629411211685
-2.9422849621977902 1.7598505605387005 42.21846518272996
-2.6918937635068465 1.3846050814629338 43.110930912072725
-2.3787676913593065 0.9645224416956328 43.962683598424576
-2.0109482141944373 0.5428939755924047 44.791500990127716
-1.582808769497993 0.13857001750308348 45.59972048556816
-1.0706802489013296 -0.21953331877913354 46.380416571721426
-0.4676803950899833 -0.48239467528372554 47.13360651028942
0.19130163952929086 -0.6156149855193281 47.87387337229917
0.8626376366941493 -0.6144713847655121 48.615025631344494
1.5191145688213485 -0.4978517976189873 49.360302700278346
2.1590912544376533 -0.293115134552813 50.10091916017112
2.7947611997100426 -0.025845397340866903 50.82513639846917
3.439477820466727 0.2981309283948303 51.51750899995112
4.098664147376178 0.6914926975975544 52.158398931956086
4.767693296225132 1.1607877803357722 52.73473401097538
5.437414372037872 1.701144478954762 53.24413397060417
6.09873312037646 2.300146968348914 53.695635388980115
6.7461599054721315 2.944133559476568 54.103213391807145
7.373895941742033 3.6216883918449208 54.486445590222736
7.9744978288731 4.328085439902365 54.860986086925465
0.0 0.0 0.0
0.1297717641098135 -0.10617656476801363 0.985842698575128
0.2594128069694253 -0.21286004177224083 1.971647869864344
0.37715583463708036 -0.31415025431461807 2.959512674520717
0.4589059942559611 -0.40313968325459065 3.9521847215429076
0.48432089592743854 -0.4626142236028016 4.9500909605370325
0.44026136233284785 -0.48338643827777883 5.948903892269959
0.323890963472503 -0.46833332734064814 6.941995697754325
0.13147217564404745 -0.4177463212241571 7.922003843079045
-0.1393224743511171 -0.33423624930549534 8.881011833359697
-0.48482250310726266 -0.22310693570720325 9.812827268834274
-0.8953134092298717 -0.08656640571984853 10.714411374540122
-1.3581388151991618 0.06212303554293727 11.588301581400414
-1.861821961101117 0.20798349950199363 12.439787349683101
-2.3888952864249537 0.3438805049718555 13.278670961178998
-2.9210671728504476 0.4721256785967435 14.115537891306037
-3.450953092455163 0.594482513096234 14.954733766686706
-3.9675519099059002 0.7093168684026806 15.80322580121022
-4.449566535568378 0.8187306323994317 16.6725304249731
-4.870134414748522 0.9198334431676951 17.574140584996083
-5.212222598505371 1.003359855600685 18.5100887742459
-5.46545014845689 1.0645671075378358 19.475557303124937
-5.630637451864376 1.1111175992154634 20.460720338625933
-5.716900670750737 1.1504730101825824 21.456215094360473
-5.723440383238011 1.1838094664970007 22.455637884195177
-5.646700668752404 1.2121366614642048 23.45228656163671
-5.4993681518745 1.2332573685995336 24.44114805102768
-5.312725835746688 1.2492308783773303 25.423446118223083
-5.105839058465201 1.263590335253588 26.40170562744561
-4.889256175831299 1.2796117317153715 27.37783838983268
-4.668332520480105 1.3038004339800873 28.35282948988899
-4.451711518307138 1.35288369006448 29.327850605244823
-4.26311905476134 1.4428866365251745 30.305773072683895
-4.110058909937411 1.5820735620514377 31.28413884877637
-3.986821620667103 1.7598176195433763 32.26046851674699
-3.900573220554384 1.9818290800461447 33.23169049182963
-3.824233919408832 2.244449906037997 34.19356502255386
-3.7400677725009 2.505993903425801 35.15507986754851
-3.6519489807894803 2.751842329256414 36.12037444956165
-3.5517557972700655 2.9515323585960624 37.09509759905518
-3.4311447759617137 3.0922159812463184 38.07777816763123
-3.2965980947725457 3.145736466558259 39.067239004770805
-3.151596462524613 3.0383988980705103 40.05083097964482
-2.997126299512406 2.731730013054949 40.99002912897344
-2.8086663307371094 2.2949561950443558 41.869637832926315
-2.554315337604772 1.7928671821771596 42.69620434292454
-2.2227747729542715 1.2848389856535651 43.4911812014105
-1.8221126210476033 0.8080565818855903 44.27358031918016
[...]
CELL_DATA 87
SCALARS quad_param_group int 1
LOOKUP_TABLE default
3
1
3
1
2
0
3
3
3
2
0
0
0
0
0
2
0
3
1
3
0
0
2
0
2
0
0
1
3
1
0
3
1
3
1
2
1
2
1
0
1
3
3
1
3
2
2
3
3
3
2
0
1
3
3
1
0
2
3
3
2
2
0
0
3
1
1
1
3
2
3
3
0
0
1
3
2
3
2
0
0
0
0
0
2
3
1
SCALARS single_component_feature float 1
LOOKUP_TABLE default
-0.08516843838173846
0.1893843875676925
0.7606454435275087
0.00486338788208282
-0.2770791718612653
-0.1241695673155583
0.47141367637108056
0.16387962933887734
0.18801548988403124
-0.14241703556984733
0.023854973420477404
0.03678911100253629
0.2568673977468928
-0.5266675750326888
-0.006557359489056669
1.0184008239027253
0.9881882288872743
0.0914042404620723
-0.21901098008123193
-1.1012733091197873
0.36451087146054917
0.4508431960192367
0.05535909458070645
-0.14833167771913414
-0.29583425437883726
0.6383658104664289
0.7671809258526705
1.4513443476200993
0.5363528800053469
-0.21950361227895632
0.4721552495336956
-0.2454274734080024
-0.03266586382827352
0.1949048546237365
-0.023078104666302696
-0.03488191154186285
-0.055409997560169566
-0.689271363036698
-0.0502395244618427
-0.6114387743405908
-1.1283013223780443
0.05026271445146491
0.3408108255158011
0.6961574771874229
-0.323362190266162
0.24163613483802648
0.0269507351985922
-0.2035508813475589
-0.09169456464936393
-0.38745744126855314
0.01007982644722416
-0.19292556983353445
-0.2284192698976128
0.5398097906617767
0.1624509974190499
-0.1330392920336374
-0.6262024497547083
-0.22087398770487898
-0.10854340959550635
-0.5906534672272145
-0.2074454845296475
-0.26161387447049256
-0.2203284654786571
-0.5285722030419442
0.022094999239920254
-0.7914586079276085
-0.24722291734259222
1.1776135739085563
-0.15759511719715658
-0.2555189962291018
0.21062990228997547
0.20145896886778736
-0.29418401899431074
0.8169124442700219
-0.10122384314827601
-0.06134791173844642
-0.3141283872695389
-0.08036961960989072
0.015608202885725952
-0.8217369788754638
-0.38280712500971104
0.27589788302762913
-0.306555557384366
-0.5198054141258168
0.2524742557415632
0.39226459128904473
0.11752701900633578
POINT_DATA 5568
SCALARS single_curvature float 1
LOOKUP_TABLE default
0.01047802731951466
0.02183795946825722
0.036695848046366886
0.0536455884089244
0.0695859346794302
0.08134166076078489
0.08744782485902604
0.0858416369643264
0.07586471942823202
0.05976370403384684
0.04104690941997643
0.024126725530083867
0.014758561554509884
0.015080425015361061
0.023910609728261662
0.03808504386800482
0.05288208812076616
0.06544479705516777
0.07374787870263945
0.07674416709661475
0.07491730462235814
0.06891619492189673
0.06144126409477505
0.0538972262687104
0.0456965905340375
0.03764965564581869
0.031067833351844334
0.028300040939121487
0.030932362019716397
0.040936843752082466
0.052736162093322804
0.05990433827115355
0.059358568819233154
0.04775805613970753
0.030559108107553905
0.0193774989736418
0.022769300886943122
0.03909979190517729
0.06999765810840412
0.104830527760205
0.12000295940878646
0.12560750087189385
0.12036346402714668
0.0972042670960684
0.08424449774907315
0.08055449844391971
0.0877002775462974
0.1106021720342789
0.13138466361684475
0.13681421700881577
0.12526041672403934
0.1024590595860759
0.08135713346987584
0.07321002466331884
0.07395151163567303
0.08120899034279767
0.08612243320248587
0.08377121736520875
0.07560894941783651
0.06630039623453401
0.045603161957088335
0.024905927679642656
0.004208693402196977
-0.016488540875248703
0.010812662286660472
0.023335910813485662
0.039576665387063184
0.05649669368316597
0.0709717347542659
0.08094357233050584
0.0856101409535524
0.08428779303769551
0.07582187227980569
0.06159220685158562
0.04426437446767129
0.02745144703515473
0.016731389366022587
0.014699816653866904
0.021503816739346288
0.03545245056660024
0.051562704169744324
0.06614070571145722
0.07582121208241233
0.07900214982772152
0.07767269741877496
0.07291429904255023
0.06623999985720799
0.057331705596763115
0.046018395995238555
0.034069773713242144
0.02482392519770758
0.022254020802754453
0.02602575633152812
0.03678832546848575
0.04741259933497886
0.05416641380902073
0.0543774957533973
0.04211859787609003
0.027788204404636627
0.01953877397021182
0.022746313381374998
0.03978247163080024
0.07199007933505201
0.1077186612932057
0.12409198682293425
0.1287332001337941
0.11752951602004598
0.09077839784313484
0.07731080177503387
0.07785317649738367
0.08953595392777254
0.10986695244720043
0.12678012225578938
0.13088274617953696
0.11993338951860316
0.10099588616110551
0.08389397900008808
0.07674418811307925
0.07931479220258723
0.08744561637357484
0.09169624312893533
0.08595104215006016
0.07250326876954491
0.058320926515915056
0.0376775597920827
0.01703419306825034
-0.0036091736555820195
-0.024252540379414378
0.013019646873646767
0.028957583608955548
0.048663355339024925
0.06551057962054316
0.07708757162513843
0.08297467889266978
0.08412099669260563
0.08291917226574125
0.07684289704985947
0.06669277195231751
0.05281423570971299
0.036202384856435246
0.022793261354997648
0.015597171357994748
0.018682436331533266
0.03378704006266483
0.0539055738339981
0.07339371125439212
0.08595972897551632
0.08843665904054757
0.08660546066778571
0.08344244556323642
0.07848434346733135
0.06861777039946902
0.05385425386381439
0.035556745313263374
0.02006381233689075
0.016336246515196322
0.023574030093640164
0.03620889044082653
0.046055502735754754
0.0541916329072778
0.05248534181155285
0.03932800582515687
0.03130000722557913
0.028984991326648845
0.03400238770467508
0.054096307994555635
0.08994499534454024
0.128165913113409
0.14870677398011678
0.15317114642438326
0.13426128396289896
0.10307719185845497
0.08643627535129746
0.0910129074386883
0.1043003401952058
0.11430525155713106
0.12275179296774595
0.12382346507510097
0.11449709021471081
0.10270328308362257
0.09346230396229833
0.08818996694653293
0.09479758776233976
0.10456531244178646
0.10648416142831836
0.0933189503377281
0.06904475181008908
0.0463634135220535
0.025335488691097002
0.004307563860140508
-0.01672036097081598
-0.03774828580177248
0.01053926196392318
0.022247608145521854
0.03753882216940888
0.05447761395609425
0.0699315704368564
0.0811149390109576
0.08676679663280397
0.08526840059987532
0.07581090486235888
0.06031530300202401
0.04203423230273754
0.025150881349127574
0.015336507011359461
0.014897623291336027
0.023048354780760328
0.0370939158215958
0.05227669134599344
0.06547140833023626
0.07421754937282422
0.0773063237498962
0.07569255947367318
0.07013059231241942
0.06291611313914462
0.054860080499073954
0.04553598155418308
0.036153082404950916
0.028731703377227927
0.026090677657132733
0.029059905713191295
0.039298157926493056
0.050650731172091956
0.05752967872787009
0.05726376770477247
0.045468061626660096
0.029204341609328485
0.019107649507777928
0.022493404791795762
0.038989183669346596
0.07029782560270972
0.10537709795728074
0.1208698135045081
0.1260867470940573
0.11870644318408972
0.09424695228227835
0.08116282815233611
0.07900334441178415
0.08790048069981342
0.11011659740187524
0.12964450170793682
0.13466763065019313
0.12331701266163107
0.1018295188617481
0.08206504387264268
0.07424539879546316
0.07557159373364467
0.08311489867791641
0.08783483022116266
0.08437314756657686
0.07446335094821326
0.06349287780851992
0.04283574344404584
0.022178609079571754
0.0015214747150976704
-0.019135659649376413
0.010496856201907687
0.021218886792143638
0.03521938440345363
0.05219978226540172
0.06919875121184708
0.08213464618273787
0.08915195276273534
0.08727048028158595
0.07611187134620014
0.05874969539516883
0.03916808264189601
0.022162090741030448
0.013752049608262665
0.015656852417158643
0.025979904730736688
0.04060348273017212
0.05472485006635907
0.06604129781372792
0.07344240864980948
0.07614785917046567
0.07371035910706104
0.06667544581879237
0.058655342430531505
0.05241210505589069
0.04692928947612539
0.04189525588248256
0.03696995353621574
0.03371935952065597
0.03575718634222421
0.04533431011953997
0.058287011476640824
0.0666959793096385
0.06571905599817722
0.054505614486843386
0.035354010204376445
0.021277209468784787
0.02410341818453137
0.04008223004934981
0.07001734042318859
0.10441989800652764
0.11921885291442867
0.12604618424157954
0.12608332507688746
0.10622954388241598
0.09346497854723693
0.08603707761683703
0.08855713236414219
0.11235627371932155
0.13571130824823124
0.14186214835770916
0.12984183234832905
0.10409614860837185
0.08008626012122662
0.07127119405643288
0.07083007079001227
0.07748346001752485
0.08274159547561553
0.08277337972325513
0.07841606608428525
0.07289461086655483
0.05205616766375062
0.03121772446094641
0.010379281258142192
-0.01045916194466201
0.010465666509236048
0.02168450887684117
0.03636082574240317
0.05331588433007365
0.06946886685730506
0.0814687792801081
0.08776640017546139
0.08610921465886417
0.07590025892836885
0.059539647004460065
0.04064007315261028
0.023703314012605687
0.014529166283995072
0.015177063501141163
0.024305860576008427
0.03855248857226369
0.053196072462800816
0.06549418898040375
0.07360887112480487
0.07655607965348228
0.07462216275770502
0.06842156711808738
0.06083460858254063
0.05353187738752624
0.04584837732244992
0.038396187204205665
0.03216637831651747
0.029324191927741994
0.0318218459646486
0.041730878465471404
0.053742494682384546
0.06109169244939886
0.060432815024430014
0.048913878974186815
0.031314947418150406
0.019613048247607828
0.022965665861234098
0.039231783563344405
0.06994708847442019
0.10468501354397781
0.11974500650174244
0.1255478645756575
0.12129217722811031
0.09874095710790731
0.08582637046076837
0.0814297853323181
0.08773500870388398
0.11088381854823527
0.13220261960217386
0.13779632694846167
0.12615155258586436
0.10276672211119887
0.08107865620771673
0.07279135830346795
0.07328501620629636
0.08041916435499831
0.08540997625696564
0.08354071772315397
0.07614200138637638
0.06757503827941068
0.04685439050629433
0.026133742733177978
0.005413094960061628
-0.015307552813054723
0.011636545909091061
0.02567418654451756
0.04352503067235056
0.060416521388901294
0.07343708390378821
0.08145553834625423
0.08447385151399277
0.08329606533405401
0.07614490606576511
0.0639055677892628
0.04818914271235294
0.03147591730107107
0.019402220036030184
0.014859089794993495
0.01973600099656187
0.03397873771286852
0.05185773961312793
0.06875522948673628
0.07988684236866327
0.0829238319197574
0.08161537728462687
0.0778199294090368
0.07198454566450559
0.06228712058111515
0.048763570352584405
0.03337446938528762
0.021129712701037067
0.018220610326679734
0.023511701663380718
0.03515421910036409
0.04513131900309683
0.05241443572288019
0.052465679302070724
0.0391796649500241
0.027787464407359536
0.02208327914711191
0.0254847325570884
0.04424914266705706
0.07820131008014382
0.11523384896176773
0.13342143849828345
0.13760051692720765
0.12179490417779135
0.09232580521660842
0.07775590253673471
0.08121996246340318
0.09508285988252425
0.11126067756787951
0.12409529911699027
0.1266895533153084
0.116415222281409
0.10108738311127757
0.08789052566237157
0.08171267331104298
0.08626504799524864
0.09526514622928074
0.0985582056475489
0.08923113756510533
0.0704146702664124
0.051759011525623816
0.03097628481291833
0.010193558100212843
-0.010589168612492643
-0.03137189532519813
0.01076271107416517
0.023165147068976863
0.039269756567544514
0.05619221635892495
0.07080120994855826
0.08094362020621745
0.08575073673104469
0.08440775132975305
0.07581076482948883
0.06140422892014618
0.043939828277532934
0.027117499562146305
0.01652181691612831
0.014712944980571343
0.02169925176772743
0.035647763833677605
0.05161889978919234
0.0659989627293505
0.07554882090606291
0.07872524917459588
0.07736895463346045
0.07250741601521017
0.06575801224961494
0.056951706988343606
0.04588792444099131
0.03427954540046746
0.025293340058837717
0.022728186572887856
0.02638004790218312
0.03706724063751695
0.04777739164461211
0.054517980133997106
0.054681513437182784
0.04249451477782139
0.02789817006670487
0.019414090752772863
0.022644797080080634
0.03958287176760074
0.07165587624207148
0.10728283346806228
0.12351855896826588
0.1282255801393979
0.1175098883022318
0.09104936710295021
0.07764759600818584
0.07785168214684413
0.0892129394523183
0.10984229610791856
0.12711928915623355
0.13135423017452688
0.12034937836708337
0.10107009157629741
0.08360640824988815
0.07636503174023467
0.07876049204281073
0.0868103083611838
0.09113225553229033
0.08570440799271647
0.07274349298003344
0.05899087013296569
0.03835115948020468
0.017711448827443667
-0.0029282618253173437
-0.023567972478078354
0.01080988038934529
0.023326577453540533
0.039559984996217476
0.05648014325514349
0.07096236322926248
0.08094338132587366
0.08561752911474246
0.08429410430184991
0.07582119868341006
0.061582025621819005
0.044246824279006114
0.027433394540268174
0.016720005125584705
0.014700405285166184
0.021514157872609543
0.03546267435075379
0.05156537258658308
0.06613269733225745
0.07580618305449542
0.07898694845076164
0.07765615831368837
0.07289229000042317
0.06621395646086375
0.05731100720358643
0.046010881675839436
0.03408040086217812
0.024848543857110376
0.022279009799366176
0.026044238304441553
0.03680274155202653
0.04743150587379396
0.054184405275408874
0.05439314013608104
0.042138184045388015
0.02779353299768664
0.01953161711819465
0.022740311920301386
0.039770978283629695
0.07197125774012109
0.10769429330917393
0.1240601135842467
0.12870475951797739
0.1175269544732066
0.09079123610660074
0.07732729236759422
0.07785180273001736
0.08951783939601221
0.10986516132108831
0.12679787554656471
0.1309076320922252
0.11995528793376412
0.1009995199167636
0.0838782427017572
0.07672354838919031
0.07928472975263477
0.0874112104134023
0.0916657220568282
0.08593757455819935
0.07251592103032843
0.05835653302282034
0.037713406274170976
0.017070279525521613
-0.0035728472231277494
-0.024215973971777112
0.01046276989545097
0.021617624757132206
0.03621026894204274
0.053167956118768275
0.0694208445358493
0.08153423366552073
0.0879203258348318
0.08623840105485209
0.07591944297977016
0.05943794038181596
0.040454085818919974
0.023509431352296634
0.014426193190825859
0.015225885445937563
0.024495255617564493
0.03877903131029577
0.05335364630388692
0.06552991614015172
0.07355727003460394
0.07647970569721975
0.07449268032781203
0.0681968628865381
0.06055767859832779
0.053371891659098405
0.04593658868919867
0.038765861475445695
0.03269818728677355
0.029817088134705245
0.032254110726282
0.04211984301953397
0.05423467974590958
0.061680769294379656
0.06097230242080096
0.049491060998404904
0.03170593345600244
0.019749208897001384
0.02307227880005552
0.039308387234595545
0.06993656110389679
0.10463202018753806
0.11964534112588134
0.1255484721907763
0.1217691860767529
0.09951263047216294
0.08661780385252534
0.0818814655511203
0.08777617792711373
0.11102968390312389
0.13259750750718366
0.1382652223861594
0.12657720194601732
0.1029165362418155
0.08095306563587348
0.07260073857035025
0.07297967004152867
0.0800562237222765
0.08508193775738956
0.08343849783279829
0.07639858427907859
0.06818332141041726
0.047450611129401764
0.026717900848386267
0.00598519056737077
-0.014747519713644727
0.010558112053177757
0.022344037937800428
0.03772917758688908
0.05466585533428189
0.0700179750937569
0.08107904894187218
0.0866328669804386
0.08515540933731416
0.07580454837324892
0.060437720436081144
0.04225102473640918
0.025375211443918588
0.015467038535798288
0.014866268258201558
0.022875487287751614
0.03690064800301938
0.05217039752640806
0.06550212846102026
0.0743430080677474
0.07744745673258897
0.07587250049157172
0.07039929624103188
0.06324004757021984
0.05508405495463577
0.04553564498220374
0.03587775551390015
0.028274743988279723
0.02565257794194306
0.02869746877891016
0.038987147040112656
0.050253192270036495
0.05709247637283199
0.056885459477562406
0.0450468643411982
0.02898213569895472
0.01909586054369827
0.022468247915184272
0.03900450637137825
0.07039983784559438
0.10553666938571139
0.12110689788441072
0.12625256745834693
0.11844583393672321
0.09372877010768287
0.08061402578138532
0.07875963015354487
0.08799297789485826
0.11004446235152975
0.1293054602522534
0.1342386003076245
0.12292984383723016
0.10171350789670877
0.0822280434452929
0.07447776862349115
0.075929373846105
0.08353313467940714
0.08820946851409157
0.08451360798315632
0.07423743918549869
0.06292482539500324
0.042273444986220585
0.021622064577437927
0.0009706841686552697
-0.019680696240127388
0.010572149889970036
0.02241173120240588
0.037861339534735514
0.05479660979908271
0.07007952153448468
0.0810569938330345
0.08654360115106738
0.08508003969660406
0.07580120975620724
0.06052229004495015
0.04240035934203032
0.025529636983156277
0.015557653029482147
0.01484635487800339
0.022759567832688374
0.03677219580439854
0.05210229566196587
0.06552806217502931
0.0744336887244979
0.07754802642532571
0.07599826218841677
0.07058472698805045
0.06346314547313264
0.05524068136027676
0.04554205474980925
0.03569828038655729
0.02797070825638565
0.025359838255496255
0.028457170730749694
0.03878225126909816
0.04999089918119657
0.05680712446555205
0.05663960772313147
0.04477135284906514
0.02884233599876503
0.01909610714948894
0.02245780259510924
0.039023159777696936
0.07047790623297412
0.10565513213393228
0.12128000521005942
0.12637895687861112
0.11828637964381712
0.09339698586989563
0.08026038276309193
0.078610237409542
0.08806600251457337
0.11000146318965379
0.1290803263299397
0.1339514344448956
0.12267103592093473
0.10163818140244718
0.08234208197008816
0.07463905248461554
0.07617645244323165
0.08382140893281421
0.08846747208040294
0.08461208455094747
0.0740867771603622
0.062542753496601
0.041894728252432144
0.021246703008263285
0.0005986777640944255
-0.020049347480074434
0.010964116267041281
0.023819821137623938
0.04042836164119583
0.05734200446225548
0.07146461575653938
0.08098028509650122
0.0852681994980436
0.08399456478602732
0.07586591684355402
0.062106942437442865
0.045147852616699236
0.028359397041744994
0.017311675792537156
0.01468711774445685
0.021014960870748507
0.034985003550907286
0.05148014552287816
0.06659179368420855
0.07661931654829456
0.0797987601481974
0.07852067439897154
0.07402258563082446
0.06754762624148646
0.05839398269870699
0.04646013373420915
0.033634238567954486
0.02369112836740561
0.02108701235080442
0.025189831966123108
0.036155511826102354
0.04657497128320172
0.05339975174275415
0.053694505436296606
0.04122846219543826
0.027598905672857554
0.019953965107941306
0.02312145924634377
0.040462390999615926
0.07304618123575733
0.1090603742938895
0.12582006094480083
0.13030569984270213
0.11786939806617144
0.09038611526136123
0.0767206167314514
0.07810185924549048
0.09053720314684513
0.11001945254743843
0.12596666915920887
0.1297140169753514
0.11891385714001389
0.10086620531512425
0.08471296518278741
0.07780298084364655
0.08084101402311111
0.0891851114461844
0.09323587539917852
0.08664670991451963
0.07191247254505438
0.05661368553867968
0.035952555148967884
0.015291424759256086
-0.005369705630455711
-0.026030836020167508
0.010803586884255343
0.020901317263206386
0.033923569487071425
0.050966943260434626
0.06939578572075952
0.083789953899163
0.0918774090032516
0.08955016199328782
0.07670999139618975
0.05777109935994523
0.03719202551149576
0.020054954942524263
0.01290017034658587
0.0167796756624484
0.029124727233931592
0.04467524559079379
0.05821427515800447
0.06812881387416263
0.07447262323854736
0.07662999135435128
0.07309431722811524
0.06452849521921075
0.05583404387983715
0.05170603079714029
0.05038026117339999
0.04954628932204644
0.0464493394901427
0.042120344100543536
0.04366597598946898
0.05289616775454989
0.06774167055483024
0.07901781325762676
0.07804684442818581
0.06719789582290442
0.045479156257756836
0.02637686049937554
0.026665928191100516
0.041627578583605
0.06981191070569878
0.10352806577364433
0.11864966202516165
0.12845808669791178
0.1371821200555571
0.12311474151655581
0.11064368033480468
0.09735008396773552
0.09200916979358638
0.11561641841587039
0.1419039558883475
0.14859579963361494
0.13593139284954806
0.10619961640229116
0.07845011799403181
0.06891620253160222
0.06710287547924212