# vtk DataFile Version 3.0
vtk output
ASCII
DATASET POLYDATA
POINTS 5568 float
0.0 0.0 0.0
0.13175625897081406 -0.0292763926907798 0.990849726776483
0.26305514467228475 -0.06067149386001155 1.9816953001309416
0.382231165101671 -0.0925103212974222 2.974057817168957
0.4727247728560392 -0.11924259959514766 3.9695960094311182
0.5166798570769341 -0.13292923757831224 4.968535760623277
0.49958200854798207 -0.1275100641132566 5.968374895751842
0.4064014208848997 -0.10001445144592727 6.963644391600485
0.22659933972416335 -0.051533721649955795 7.94615181164815
-0.04015985428894753 0.01497677010540046 8.907617300834286
-0.38581051574177616 0.09973687065290207 9.842144638900113
-0.7956348712955186 0.2038016375314611 10.748353512112834
-1.2494550456658828 0.3227628245760519 11.631470426972578
-1.7279999425941779 0.44787625991351565 12.50057422395079
-2.216906682791666 0.5717508046810157 13.364070197622995
-2.7078268574633864 0.6907701420871205 14.227106569639668
-3.194035184006508 0.7986330134578298 15.094266914777638
-3.6627609973603366 0.8882318656214917 15.973054805901967
-4.097316987589333 0.9549849405964855 16.871222450797664
-4.481887394696509 0.9931778931462985 17.793527660775872
-4.804952179314429 0.9977526497384558 18.739893455034043
-5.058239575959357 0.9672375280976996 19.706803131297594
-5.239150654168443 0.904257257992012 20.688283985598197
-5.349241530516599 0.8166310512157938 21.678335321050508
-5.393023330254481 0.7139793798194946 22.672088705130914
-5.378213943403419 0.607115426463699 23.666252060688876
-5.312342180184526 0.5057183520937859 24.658914915901892
-5.20696839499784 0.41663471860423285 25.649349402195522
-5.0770019906629615 0.3410665011031931 26.637983904045413
-4.9332187917102015 0.2791354490213931 27.62565335101993
-4.780754208621347 0.23723521154995444 28.613073687555175
-4.6224634281208115 0.22767160696262892 29.600419911671025
-4.4650417588288915 0.2605708244670681 30.58740322435921
-4.3193215086686045 0.35393527209654757 31.572313722126427
-4.191349680365962 0.5143868658905192 32.55102639559595
-4.081051572248505 0.7323435559941942 33.52073212858135
-3.9846635760744507 0.985068530886137 34.483457136701226
-3.8947054821060916 1.2493999501605497 35.44368442339639
-3.806599583668222 1.5122522115440442 36.404489314800486
-3.717789750191263 1.7551416091649825 37.370469415010184
-3.6178393183539983 1.939568865560137 38.348220149233434
-3.4955030840686345 2.0442899877116387 39.33516864452395
-3.3478803779874955 2.032448982167287 40.32414150928667
-3.171328238784537 1.8750676988176342 41.29576925374134
-2.9567475993811883 1.6157429899034697 42.23741984952506
-2.696112825436456 1.2709649587375833 43.1391945574406
-2.3738284785925012 0.8580795033921002 43.991050414110916
-1.9960933666715235 0.4315083438531021 44.812849191836705
-1.558714882490626 0.016540707652881216 45.610659897757614
-1.0413831394820665 -0.3571660477320507 46.3805372442586
-0.434179327751925 -0.6335230384266181 47.125473714512694
0.22795416410155078 -0.7714441562613178 47.86205840361582
0.8991512159008325 -0.7687421540942944 48.60333245337086
1.55447147066918 -0.6527443370841947 49.34972368465593
2.1923425140074126 -0.4492954216989605 50.09250835796251
2.8230510948578456 -0.1833869678876985 50.82154839817521
3.458888750244043 0.13955309897857796 51.52256208506398
4.106854573342045 0.5293310417587463 52.17694228603203
4.766175134249244 0.9898964140127352 52.77122835842946
5.429941192828393 1.5198234859657438 53.29904643114923
6.089155022891116 2.1093438215009734 53.76584713835142
6.736516173989216 2.7474442914739363 54.18268203404662
7.3618004696036605 3.4256310800355867 54.568793714106135
7.9519632880139035 4.141428314010672 54.94207935219002
0.0 0.0 0.0
0.1609000630603521 -0.006869009635492103 0.9869468001943176
0.3213923704215336 -0.015621173966034683 1.9739450873749058
0.4737623756477397 -0.025983665696906535 2.962214281609196
0.6073220076912154 -0.03296914558523014 3.9532304407908425
0.7105459398394531 -0.02675938062642234 4.947869198657744
0.7601440457806109 -0.0014953244050207788 5.946318874580518
0.7290118720871988 0.043769099710108395 6.9448086940932905
0.6058303902794314 0.10711306521922037 7.935169166130227
0.38735520007776847 0.18797037635265385 8.907656022855097
0.07840912104288233 0.2828888364832359 9.853987257769917
-0.30935211300755455 0.3873846570373153 10.769804842693036
-0.7508771667421543 0.49414276957126957 11.660679880132545
-1.2261023925416037 0.5953466648936138 12.534704339936415
-1.7217517336526855 0.6840774525536295 13.398682683401912
-2.2244520222333937 0.759484678343624 14.25984827152044
-2.7241427137688996 0.8195901926681088 15.123964316933645
-3.2078897156525366 0.8577172428610433 15.99834133299261
-3.6592374913693244 0.8674701895355728 16.89063616396871
-4.064207896017946 0.8423459926899021 17.804620707651804
-4.412641214530335 0.7783437796358137 18.73976665309274
-4.691919707455895 0.6768304026012336 19.69459572558282
-4.897225454065432 0.5476433416910789 20.664729867700544
-5.0341822071027424 0.4078626808284137 21.64539505758253
-5.107507310690053 0.27133111050778747 22.633313353541105
-5.122989474774854 0.15010620528561042 23.62581767340532
-5.085502312324968 0.052443224159119096 24.620330948715882
-5.00097394598163 -0.015256041548151347 25.614449535558528
-4.873425591521159 -0.05551467238195727 26.605464500086214
-4.7119462098334015 -0.07610689251445113 27.592125723485488
-4.527033200032452 -0.07905185921938178 28.57487620350443
-4.327547868739937 -0.059039450495884715 29.554572639190607
-4.123978468583462 -0.0013690866490496862 30.531933180881186
-3.930259092256974 0.1203999165897278 31.505403834309377
-3.760947436755566 0.2890907788345206 32.47642234922373
-3.629249927907535 0.5017953955074969 33.44462300622063
-3.522636136606264 0.7818666839956616 34.39866366199425
-3.414631407170984 1.095454022347636 35.342060693813266
-3.3067834205357967 1.4086486869727453 36.28560608955695
-3.1980611610707252 1.7157227230716972 37.23106101003212
-3.0863322719570827 2.0054600728305885 38.18162343485867
-2.975714152702216 2.209561849469813 39.1543032878757
-2.863390419422212 2.1743466480869817 40.147350753273805
-2.719610114458993 1.8464050928570415 41.0810431867111
-2.511463685993662 1.3705581588479179 41.935586784025624
-2.238127645594544 0.8480853281346485 42.743243611016766
-1.8960271960371147 0.31930570505675016 43.520005732023066
-1.4972691166336625 -0.1845976148705143 44.28621290914734
-1.0450257410977846 -0.6621928423340341 45.039458372451286
-0.5228161202237728 -1.0996286921315557 45.77154237663287
0.09327725447311253 -1.449309778231778 46.47734127977623
0.7856716337425356 -1.6265843416394818 47.17674370522579
1.4885760559626746 -1.6129215449642165 47.8878967838315
2.1741788271713944 -1.482862629714704 48.604160365674836
2.849722939963816 -1.2730766434212681 49.31100546300974
3.5251788839754044 -0.9985163827909095 49.99538542398318
4.2102932287644315 -0.6652117447785809 50.64309396402552
4.9097372368278585 -0.2691818974231215 51.23802121973648
5.617547291224975 0.19298890619972564 51.772252513440776
6.322074184071964 0.7175928067820728 52.250198749694555
7.01605175871645 1.2912259150466585 52.68533112379842
7.697332074623078 1.9021780549267557 53.0885613482783
8.36549954109922 2.5416831801548767 53.46880525888019
9.01928990153078 3.206574701647102 53.83002185491991
0.0 0.0 0.0
0.144692142939445 -0.018809758310210943 0.9892979211359451
0.28895017444215376 -0.03962949360510217 1.9786189807365249
0.42302697073459294 -0.06146332258945859 2.9693493661632755
0.5331872835576038 -0.07904890868610759 3.9631076127405676
0.6045985821349786 -0.08345511732464408 4.960544834705402
0.6182800311879962 -0.06877394970953354 5.960343455063155
0.5536460727197732 -0.03296534998636541 6.95760981647248
0.3998254554078342 0.022518277417740193 7.944149620423571
0.15525609063521828 0.09581059919561377 8.91100744936386
-0.17321012166548044 0.18554116936073628 9.851251232727874
-0.5718957591851062 0.29036006320920604 10.762329035074059
-1.018364077558978 0.40450186119391357 11.64981857903569
-1.492922219490871 0.5198665671723607 12.522449975755208
-1.9816824154816257 0.6298854179399545 13.387903223071813
-2.4743799197922325 0.7317820493444324 14.252117459100427
-2.9631215763713787 0.8208336924957109 15.11998922265558
-3.435108547657371 0.890022003091103 15.998875607015488
-3.873770958938055 0.9339413825157572 16.896453668824247
-4.264147920234993 0.9464834728930683 17.817023342481562
-4.595356378746423 0.9229599482506159 18.76028767489262
-4.857126157189354 0.8630901727081957 19.723559284082075
-5.045820842223631 0.7727659322021551 20.7014324084785
-5.165010635820735 0.6642022936768471 21.688350707778106
-5.21963612727968 0.5488964710727795 22.68017761957092
-5.216799879654077 0.4378631446812636 23.67399025590125
-5.162674342731586 0.3399476653189196 24.66771204048388
-5.066039831844764 0.2616358867990745 25.659946406271885
-4.937079550532524 0.20255649220836 26.649834718647913
-4.786394999143458 0.15969643314531004 27.63748707717787
-4.621189696539916 0.1353626666222629 28.623446039710526
-4.446019986858335 0.1383453808461269 29.607979775153822
-4.269268978262655 0.1813637818824662 30.591294830531645
-4.103283080555446 0.2864701625335186 31.571805580349704
-3.9583080111320093 0.4486351647662803 32.54786128639138
-3.8391892748554253 0.6609794541555171 33.51776882292857
-3.738654912396805 0.9206471246379014 34.478219520711285
-3.6423891463312144 1.1994479034359933 35.43373144006414
-3.5471383265577288 1.4772904234692315 36.38962411991584
-3.4510156482278944 1.7424275422941224 37.34903161359719
-3.348349309420344 1.9734556090262017 38.316546809993554
-3.2342033672282824 2.129472900198165 39.29768355313207
-3.1030984185278663 2.1217683427324365 40.28902210893453
-2.940506277718129 1.910716007597025 41.252879311833794
-2.728633326073605 1.5799446017161947 42.172498868722975
-2.4628303257219244 1.1827522322620747 43.05089911158011
-2.1348880426488406 0.7486386321059401 43.88994573789613
[...]
CELL_DATA 87
SCALARS quad_param_group int 1
LOOKUP_TABLE default
3
1
3
1
2
0
3
3
3
2
0
0
0
0
0
2
0
3
1
3
0
0
2
0
2
0
0
1
3
1
0
3
1
3
1
2
1
2
1
0
1
3
3
1
3
2
2
3
3
3
2
0
1
3
3
1
0
2
3
3
2
2
0
0
3
1
1
1
3
2
3
3
0
0
1
3
2
3
2
0
0
0
0
0
2
3
1
SCALARS single_component_feature float 1
LOOKUP_TABLE default
0.05662144428658661
-0.5207525229075426
-0.20365076376561148
0.3832265367245524
0.8376446478918322
0.27465802725820393
0.7706203674526684
-0.06701521497523172
-0.4250515119104506
-0.3218041356928517
-0.913312060916857
0.13926101413016773
-0.23732816858589229
-0.42474109244565755
0.19901610313260265
0.03377934454006412
-0.2055065023695445
0.29639321997376167
-0.33600739966122317
0.2819684143037976
-0.5865329307094131
0.30358039940616605
0.15014769173443637
0.16087401374274968
0.31969411437117856
0.12882971980037122
-0.01028110776033983
1.2267891067363283
-0.06070252565211284
-0.22254571756969552
-0.6339661548622981
0.6728163559507365
-0.14264032887072653
0.05748083567728052
0.04085642907482745
0.38157888769357495
-0.07375331117864936
0.14860529000889994
0.14433036221468742
0.22509808294798062
0.09458556702687082
-0.07530049102459843
-0.5865553880747911
-0.6281793232601173
-0.3335899036413923
0.43603093332823367
-0.042023908132586496
-0.5162513387723563
-0.13904613953873263
-0.3238688170427015
-0.3110917573959957
-0.09162721564886486
-0.649312917678355
0.23613087516884165
-0.5873112182897217
-0.28844195069116463
0.43645853418993474
0.0968865940528218
0.24014084809352043
0.08936457934989209
-0.02036945242812671
-0.20927292703241684
0.05965495334321147
0.09080899278671706
-0.08968376087112456
-0.21149827117883452
-0.13340820617663562
-0.6054090850135402
0.29613845312306497
0.5009655583707874
0.5467830152704107
0.490642488298989
0.0961061344175842
0.10381877351405211
0.32963980077431654
0.002445863489881156
0.1298096765750259
-0.5277721033658934
-0.3988814929957857
-0.4469342427116606
0.5169477219759395
0.48421954687586455
0.33593108388499693
-0.23714165949614074
-0.3454929493980477
0.2771745178384879
0.05950104889077856
POINT_DATA 5568
SCALARS single_curvature float 1
LOOKUP_TABLE default
0.010923469862614712
0.023029269613162765
0.03845902723674925
0.05518809316447218
0.07028865543819404
0.08091064131743049
0.0862019561438452
0.08456742197099543
0.07510574916761778
0.05965268687327774
0.04134662415430719
0.024508355329815504
0.014746716703721395
0.014434447381261924
0.022827655081580762
0.03709415800470371
0.0523792230665901
0.06555030244012468
0.07429584889334813
0.07753361657993856
0.07604096806508134
0.07057651025576572
0.06330264106219384
0.05483413761537926
0.04487535901421998
0.03507059422074001
0.02769593210331763
0.025553751127506297
0.02913781990806512
0.039664333674581914
0.05158877180529689
0.058554844396418455
0.05746405834425476
0.045473191270011655
0.02869933662294075
0.01866294250765802
0.024298639540155615
0.04171067970021857
0.07077597407884088
0.10261871183284925
0.11547396012471627
0.12079187384890047
0.11717659009924644
0.09629965889918747
0.08454938616069167
0.08189393662848056
0.08936433219034008
0.1102154925858507
0.12878381861590768
0.13375302015680224
0.12260121242159679
0.10175928603017176
0.08269296644750548
0.0747417185666219
0.07580713789188358
0.08369137773309249
0.08905451591317275
0.0861569500085626
0.07663408250517711
0.0659277596846919
0.04466029612922936
0.023392832573766814
0.0021253690183042767
-0.019142094537158275
0.007402710570746507
0.015720150915527812
0.02948469405542831
0.04813642212361229
0.06676134479106166
0.08295235661704375
0.09240335988892948
0.09286952224080698
0.08424518295418673
0.06925270039268865
0.0520268846717455
0.034648593229718014
0.02380449360454587
0.021541928219913152
0.026709098020118942
0.03834305082209144
0.05228568814236647
0.06524257904107844
0.07363949609119588
0.07562830473535434
0.0737229507511266
0.06848731882165161
0.06291147320448126
0.05938320464961365
0.05614680618070935
0.05102886300467446
0.043946853417176496
0.03686018513714218
0.0335742074094749
0.03993600161772675
0.04575954614710032
0.053385905498581424
0.062174742404407346
0.0547637566200046
0.041674298507845056
0.028822948930111152
0.015105726533417449
0.028393872336670758
0.08767624288665309
0.15915208398366978
0.19802277472392882
0.199076692226113
0.15967899107721678
0.10215257294310037
0.07288574118328471
0.07054148294388563
0.08428192566175417
0.11523379632946056
0.14710682334481406
0.15547382815065977
0.1432415593741656
0.11391576277930196
0.08400704777463322
0.07545356735026505
0.07774610328682466
0.08160380366989578
0.08061693201008975
0.07255130272911901
0.05982149485393065
0.0475514484263728
0.031101087009593627
0.014650725592814454
-0.0017996358239647167
-0.018249997240743894
0.009215124614650141
0.019484250773932652
0.03416458983860491
0.051821371015810094
0.06860603138611378
0.08187027048470684
0.08897499407325679
0.08807514010479829
0.07869484938443981
0.06311184901769926
0.04499975984688027
0.027935594130883683
0.017903791123312928
0.017010133409802366
0.024259554189026474
0.037462904888180444
0.05216763904396199
0.06527257825637173
0.07389076720908759
0.07647668385742303
0.07453756653426026
0.06876923540610365
0.061919769103112164
0.055552963052551946
0.0487252418214929
0.04113313774390322
0.03381252357912135
0.029388617382101797
0.029987244476114696
0.03893771656809482
0.04825509910987099
0.05514938527007595
0.05804485130648824
0.047367122557905976
0.03251814238576303
0.02163898162061623
0.017631210464429746
0.03182845038971501
0.07243841850634773
0.12029655777979392
0.14506013569026094
0.14941923114767625
0.12928804353596693
0.09213365546885952
0.07361478267785297
0.07216643229143782
0.08455606016949051
0.11121411621471365
0.13507396651804998
0.14091564086012215
0.1289527328253549
0.1045263950228859
0.08131485922136847
0.07349407419633278
0.0753749332559594
0.08157056789280148
0.08407892585575469
0.07888165099649802
0.06797339056455415
0.0564782490756012
0.03770513424530539
0.018932019415009577
0.0001589045847137649
-0.018614210245582047
0.013351162089843615
0.0280456126384904
0.044400849086852594
0.05982655972905885
0.072598664668706
0.07961793058796923
0.08278658683808822
0.08070578481065985
0.07181538245652955
0.057305823649249264
0.039440057847392004
0.022852962315111726
0.0129372206542996
0.012676841096244767
0.021808304886829343
0.03716061500067822
0.053155202232707637
0.06636663334302768
0.07520363006979726
0.07943994260363059
0.07905891710042455
0.07486101162451404
0.067835137401151
0.057051140504988586
0.042987289770631605
0.03023505195105038
0.023005556805926926
0.023869374174605034
0.030954726706553568
0.04278160644140439
0.057724173452518776
0.06588802288957503
0.06076953145846787
0.04827600058504182
0.02835804323216174
0.0181347786466275
0.038587454155683085
0.06434098916205229
0.08360453357693214
0.09925888837983517
0.09620227044331729
0.10050163394120352
0.11918410112336023
0.11927260861796095
0.11399597501477185
0.10705470166031195
0.10368903687724787
0.11444744000109704
0.12847623739450534
0.13464087553132145
0.1251408858595462
0.10774144788641696
0.09161679804929136
0.0817118569694417
0.08063592838769747
0.09051999568871222
0.09983795495007883
0.10004567043269438
0.09218953460782534
0.08259851726520569
0.05684787198397363
0.03109722670274158
0.005346581421509525
-0.02040406385972253
0.017253792425349922
0.03603016398410177
0.05361688761522634
0.06698014165254827
0.07613445272855068
0.07766051148434507
0.07817611235132031
0.07630112565355933
0.0694022195725517
0.05762420631194092
0.0416291672858584
0.02535130133042929
0.01434970429000614
0.012946865693831614
0.021866559693128375
0.03833721321882623
0.055331314431523934
0.0685415801223131
0.07736711253501183
0.08329530401667311
0.08543574730493891
0.08462212521341103
0.07942624286628808
0.06607177175165693
0.046015732384801444
0.028872887478271696
0.022259486137259452
0.027691588731708596
0.03931209258632167
0.0517632896236403
0.07073762463728574
0.0829693505155854
0.07438383380088998
0.06314010999094431
0.03712847326840167
0.02372834935492375
0.0706309847951152
0.11979351594989564
0.13396341803408962
0.13190395532429247
0.10176610762869163
0.09701115132387568
0.14942509174328933
0.1831412576970964
0.18402161942099451
0.16402862159917692
0.13543537075433112
0.12364757798370807
0.13580833751065752
0.1509546379305636
0.14780605571816527
0.135692932334604
0.12037513051039789
0.1033034437161353
0.09600932818570532
0.10859117846849818
0.12484137403748649
0.13043619138353826
0.12516345939636825
0.11769585572415742
0.08237051912071484
0.04704518251727227
0.011719845913829699
-0.023605490689612874
0.012509055607348798
0.026309168252386085
0.04235944525385507
0.058235375562065275
0.07180751294735105
0.0800584129616835
0.08391323782878078
0.08192352165293143
0.07276142998441906
0.057842568358673394
0.039746329754532704
0.023079265954040924
0.013274502080587901
0.01307928518503627
0.02204949722476433
0.03706902388705989
0.052828043942511456
0.06603008537951474
0.07484522219313194
0.07872855403366498
0.0779122720765882
0.07318608437746561
0.06598123405508584
0.055925598737367375
0.04324583438706317
0.03149255466900055
0.024187280060859098
0.024031491361406476
0.02998066447299303
0.041456749013930524
0.055419712120887754
0.0630332063487732
0.05912399976291592
0.04667495357278249
0.02790151505590668
0.017911202567372036
0.03306953226754597
0.05542804976137308
0.07739129433033413
0.09801939320653584
0.10046189183015564
0.10541227490360892
0.11640262851896203
0.10928869092565956
0.10205040305780579
0.09691997727206457
0.097781703157731
0.11234140416102409
0.12761230692291975
0.13301877062125947
0.12285998892969588
0.10442503797038444
0.08760315992476916
0.0786262556429867
0.07844423360972906
0.08767051178889856
0.09559898104813058
0.09472238646585492
0.08630884108854701
0.07632130982319134
0.05226583973150546
0.028210369639819585
0.004154899548133709
-0.019900570543552168
0.01663997765287903
0.03478189762366053
0.052192606185338095
0.06587773104823076
0.07559211540328298
0.07796057230045307
0.07884471473518875
0.07688203696908734
0.06960473747214106
0.05732147060906345
0.040958654756453765
0.0246365444823303
0.013856512864156652
0.01270939282509528
0.021749444296740146
0.038082174673986675
0.05492737061715131
0.06814259579047507
0.07698149273311701
0.08263906590792543
0.08433622050259391
0.08290157271072834
0.07732201261663689
0.0642954738059367
0.0451431795457832
0.028670076057003214
0.02193601684882287
0.02665756548176019
0.03762535038841892
0.05006846831987176
0.06844114363677141
0.07989663817760546
0.07169133810240241
0.06011294880916977
0.03515022872497708
0.02246913185491091
0.06501218724664189
0.10956979035605534
0.12380943058856769
0.12413278274919207
0.09850435791774198
0.09607065352138605
0.14376640896637463
0.17240332401394495
0.17264217166484416
0.15518131074888264
0.13101311506073646
0.12315951078928722
0.1352435567032295
0.14842367740372062
0.14374344241100737
0.1305266982285832
0.11515918609914325
0.09938296109583139
0.09322920920059682
0.10541652381153166
0.1205335153953777
0.12525203653841635
0.11956715699248274
0.11173810060906471
0.078051470771932
0.044364840934799296
0.01067821109766659
-0.023008418739466116
0.010086987197471317
0.021294534065642474
0.03636906524615766
0.053551226544451026
0.0694710836699788
0.08137441458951196
0.08751405967524539
0.08618568995157828
0.07670250673753949
0.06111854792189829
0.04284421260229448
0.025901786989324462
0.016055964271465308
0.015528045608484836
0.02344065070243994
0.03722575718061978
0.05223833646474286
0.06538278651443506
0.07407385764983491
0.07698508037193248
0.07522978263731366
0.06954095339208559
0.06239964978755319
0.05490231214538533
0.046448364606036845
0.037711643962108354
0.030344979156649347
0.027107725569812842
0.0292964562576928
0.03913533378665595
0.04984807990626786
0.056693570564760556
0.05741136291282682
0.04592363056597371
0.030122740932724767
0.019784242333758875
0.02062439418047449
0.03618429169324299
0.07030645187381805
0.10936827828694226
0.1279153737870888
0.13296348198722155
0.12141894230009409
0.09285712439874123
0.0781117282256553
0.07625417305804154
0.08645561074425
0.1102737164832774
0.13117664272798546
0.13639906519278253
0.12481226451006516
0.10235926615699925
0.08151455024277596
0.07374496838980214
0.07526957914457344
0.08236894016243726
0.08636238091405807
0.08236882081834733
0.0722007997287819
0.06111342465313534
0.041123576577087866
0.021133728501040394
0.0011438804249929227
-0.01884596765105455
0.007918838231107459
0.016791458310896797
0.030832031738839336
0.04919921791225805
0.06729343197147623
0.08263595746460363
0.09136366470808774
0.09136243120956632
0.08243364600024211
0.0671767780528336
0.049609415581694655
0.032331183024546566
0.02178855132900638
0.02001580651848224
0.025891695408229744
0.038033030820155654
0.05221466466196086
0.06522609656773845
0.07369755297226695
0.07584197914087445
0.07385574216233597
0.0683500964466238
0.062301242622647156
0.057886426490986166
0.053596608554696404
0.04776291003477419
0.04059147315399123
0.03429497783342205
0.03220934864409301
0.03943012435574868
0.046347308443349756
0.053671146683385094
0.06054283402715101
0.051903319883056846
0.03834395189208275
0.02618305096264866
0.01519954593108387
0.028476189815167523
0.08161386474105714
0.14555321838388566
0.1802551085359256
0.18257552697023588
0.14886158808872643
0.09747615224364457
0.07171647396755042
0.06990679827889977
0.08384188714270822
0.1139299783162025
0.14327509232339133
0.15074750049482907
0.13848800658046723
0.11062549802053213
0.08285587749579351
0.07457609170163777
0.07679198828560932
0.08139878037193564
0.08148504663206814
0.0743010395589167
0.062130191529022
0.05004052871514967
0.03293785761316588
0.01583518651118209
-0.0012674845908016985
-0.018370155692785488
0.00850549943232896
0.018010037507264442
0.03234891027326747
0.05039386043373381
0.0678915706478625
0.08228474315387185
0.09024667901510795
0.0897947415360318
0.08061146288869492
0.06515266963974518
0.04728820539284669
0.030112595123703005
0.01984055279639042
0.018521945291287548
0.025084595319519277
0.03774019405634313
0.05217030403080771
0.06523050160179367
0.0737748264557244
0.07611141063244391
0.0741073824582283
0.06841753226385872
0.0619445451981228
0.056601645484750086
0.05114465570777566
0.04450736082800849
0.03725565730017006
0.03182473214178491
0.031007284765762543
0.0390794856616932
0.047138198462383415
0.05421194275888648
0.05915500775773683
0.04943857113876609
0.03531499376441199
0.02380990297841555
0.015954749276487032
0.0294815411329315
0.07647161085249986
0.132645131505411
0.16274322358455642
0.1661624937802188
0.13872454597158118
0.09400798539647766
0.07179484144053906
0.07030923916485515
0.0838515460009794
0.11255174405078351
0.13925187990265442
0.1458776874923031
0.1337000692154735
0.10745413748114009
0.08190072584171311
0.07387753567865535
0.0759681929718325
0.08133857614278413
0.08256209101981275
0.07631304481352007
0.0647392727210311
0.05290926914566263
0.035063371634192105
0.01721747412272158
-0.0006284233887489457
-0.01847432090021947
0.005558604989317052
0.01191222983435489
0.024556708220936294
0.04423449790799297
0.0648158602614955
0.084162689102857
0.09670772988128602
0.09958985167373381
0.09289461325901852
0.0797394827122819
0.06454081108249926
0.046683328135825916
0.03409398679487972
0.029141584142794025
0.030693312342043144
0.039926958769372335
0.05277277378063986
0.06538782281595759
0.0734077776674096
0.07500148983701474
0.07411306984064599
0.07103332572047032
0.06820690874726859
0.06854969974819373
0.06929383693201774
0.06675093514612217
0.06015340725924952
0.04995160009146114
0.04151755577077641
0.04367110044284119
0.04465433722066378
0.05413351030656932
0.07240750887034361
0.07315310897591669
0.06184300904618296
0.04548211575701494
0.020957824959006572
0.03612195552804278
0.12358711804714717
0.22652846514135436
0.28032696277978275
0.2732300642617602
0.21297928909342395
0.1335689057245343
0.08962545626735038
0.08314687937868175
0.09014137087848954
0.11874611325734338
0.1603348380926563
0.17284985901566852
0.16180084266203015
0.12787925117182272
0.08959634827655184
0.0800654373698436
0.08233485219359327
0.08263978494373597
0.07704227571892926
0.06528886019469118
0.050499508855630024
0.03963034618049109
0.025760953694635057
0.011891561208779024
-0.0019778312770770134
-0.015847223762933044
0.011507838453145392
0.024239501063449072
0.039905506605506826
0.05631929885924242
0.07085300460482567
0.08059275700680303
0.0853305584574808
0.08353395164356771
0.07414680072841463
0.058850789689823095
0.04058441101073595
0.023812816485397095
0.014063379303513724
0.013834750966624934
0.022486877649316624
0.03705267073465171
0.05251792644648152
0.06570286750403294
0.07447877645170753
0.077951025313546
0.07668323560810857
0.07144762724594973
0.06415445352618133
0.05506521796279249
0.04408473000012021
0.033550760371627346
0.026189580923257714
0.02479147127761268
0.02928583850171975
0.04021132633443694
0.052921682876403024
0.0600645251945562
0.05784842120550628
0.045624182553111944
0.028136905103958262
0.01819455243274385
0.02727206329055929
0.046289064940364076
0.07239454065269171
0.09977467441968291
0.10875781358540206
0.1140684250995772
0.11587595942019208
0.1001494786051304
0.09021157797222687
0.08678624173770748
0.09203039728210857
0.11067459487684744
0.1278693013128865
0.13285715343599627
0.12204350177864906
0.10217639530522683
0.08409552779209199
0.07587330301103046
0.076540499073546
0.084937937068941
0.09124484954052454
0.08909486885560762
0.0799942693663481
0.06955128050750878
0.04731542530205066
0.025079570096592535
0.0028437148911344134
-0.019392140314323708
0.009008682862869767
0.019055408250688237
0.0336384427129255
0.05140797190520133
0.06839917334657378
0.08198976805079303
0.08933671028227663
0.08855717782289282
0.07922280674512387
0.06366355720173322
0.04561193798404585
0.02851661847414077
0.018423869987415815
0.017419383739652093
0.02448380878585514
0.03753536096682097
0.05216273647807735
0.0652560159880718
0.07385418113202777
0.07636592498139944
0.07439923894131523
0.06863914556875873
0.06188520532526867
0.05580597069760921
0.04937251402787305
0.04205609843689802
0.03475249128123471
0.030039762240089987
0.030238634491668356
0.03894920768619389
0.047912898799827144
0.05484604630075873
0.0583088448262507
0.0478782980556186
0.033245054135766304
0.022201762828564602
0.017066361370788097
0.031027478817641462
0.07338339406243412
0.12354556274001362
0.14983402948645247
0.15395857728008674
0.13173341492947235
0.09243563375855036
0.07290508078979781
0.07148281880557138
0.08427353456915218
0.11155645082413135
0.13620149130971332
0.14224471641453698
0.13020892938935905
0.10527164910692063
0.08141783927911062
0.07355194669161529
0.0755008046285463
0.08146591528051048
0.08360904535463458
0.07811358193199913
0.06701794720191047
0.055424980956645525
0.0369262748526033
0.01842756874856108
-7.113735548114342e-05
-0.018569843459523366
0.007920555538677229
0.016795024430582242
0.030836494130149127
0.0492027352189339
0.06729519310529898
0.08263491688612197
0.09136029892205659
0.09135762713711935
0.08242796164472033
0.06717035661602272
0.049601989170383436
0.03232407309453708
0.02178233992197612
0.020011076221740233
0.025889151124154013
0.03803208376633605
0.052214478416975234
0.06522607194843213
0.07369775914854822
0.07584272583424037
0.07385632846515248
0.06834996382722858
0.06229970105533867
0.057882049664970854
0.05358876877051343
0.04775270119633907
0.04058099688541552
0.03428708369479346
0.03220530958171507
0.039428762465514924
0.04634943802303784
0.053672402413651676
0.06053808134248354
0.051894960801087464
0.03833398924122241
0.026175202674373416
0.015200806142212425
0.028477775450176677
0.0815961955260837
0.14551157962026803
0.1801997613487701
0.18252388996866709
0.14882862421264573
0.09746323289822896
0.07171462047067705
0.06990631841367052
0.08384114065736463
0.11392571575720277
0.14326271423205428
0.1507323785481778
0.13847296421663238
0.11061528851124794
0.08285250606977469
0.07457356753746529
0.07678915750668618
0.08139831199590306