# vtk DataFile Version 3.0
vtk output
ASCII
DATASET POLYDATA
POINTS 5568 float
0.0 0.0 0.0
-0.033076532503200244 0.15798385627173656 0.9868875539569216
-0.06727535050772465 0.31373709028403746 1.9740913682434158
-0.12158343543748396 0.4677972674163052 2.9606592035863466
-0.21801801743916477 0.6213803607306176 3.9440780384894456
-0.37536829128466226 0.7759597702828882 4.9194477619600985
-0.610721827069077 0.9316013581013496 5.878814432912932
-0.9427883904756292 1.0882086608755257 6.808978907715727
-1.3774942487005721 1.2439652450075374 7.695979867875548
-1.9004121278721489 1.399218097782223 8.534104824757291
-2.4877495305056603 1.5566030793415664 9.327996973003692
-3.117480206535207 1.7164286261259531 10.088191073390194
-3.7684697009240455 1.8770296478822222 10.830094025268812
-4.425753234171137 2.0355348340411625 11.566880604193088
-5.083227969938805 2.1884061463963325 12.30468636026039
-5.729471560280588 2.320976151528792 13.056214414082296
-6.343334119771762 2.4191622894265734 13.839497402777738
-6.902956438144058 2.4772892952610044 14.666204189959469
-7.393320038808986 2.4965720718465385 15.537508794371773
-7.806538178707195 2.4781843984247605 16.447955202638177
-8.139271476901495 2.4262064860828327 17.389542611698705
-8.38952967436169 2.347310138778595 18.354501782330303
-8.560347826469572 2.2496677465569523 19.334954291201427
-8.661163551148077 2.145165949556921 20.32435591040432
-8.70377336971582 2.043702059114226 21.318282206614384
-8.699325452087294 1.954275288046224 22.314265674672523
-8.652394818040271 1.887751394850141 23.310946208856862
-8.56517745663944 1.8579966846912523 24.306691050216152
-8.441982856700463 1.8746600956662187 25.298933672401148
-8.291256693592326 1.9399481265962837 26.28535097596591
-8.124601335857552 2.053791797208223 27.26477203475518
-7.953023389146809 2.212544457031864 28.237067566577394
-7.787920308230748 2.4084066746979693 29.203700363643033
-7.638156389776712 2.639023960399311 30.165150537216807
-7.509595895620554 2.88991751779499 31.124590281129716
-7.412359138274083 3.1560499350060898 32.08360985837
-7.344698026454612 3.432598130827603 33.042225041504096
-7.2931445598473275 3.707684244629884 34.0022614314779
-7.251506934308049 3.9605637026768563 34.96886284252452
-7.210594100023499 4.150386072218966 35.94982849330554
-7.145643987168373 4.239013464734761 36.943773495876584
-7.032942676478344 4.218499909559239 37.93719063314713
-6.86654987809648 4.0771779785084465 38.91307051738019
-6.63335603824783 3.8190922118790356 39.850627113069194
-6.320003867245188 3.4876344626992406 40.74054069170287
-5.919544014185405 3.1120001172389036 41.57632220896556
-5.44821338904049 2.726686909962926 42.36965768283471
-4.934589274115934 2.360683276288638 43.14569351235883
-4.370314900623272 2.040212397869252 43.9065435945068
-3.7467591035505863 1.7985008084305918 44.65001765287608
-3.0721081002020436 1.671605783041665 45.377165283149566
-2.3833295901838913 1.6787745279004016 46.1021016756933
-1.7115283958538348 1.8034888367299085 46.83225884813625
-1.0590924780561723 2.008852224117121 47.561747197795356
-0.41566758090339256 2.272828638758731 48.280301895947765
0.22655952159878817 2.5854463957949223 48.980169373972934
0.8737784623687895 2.950539590957782 49.64935888491459
1.5248681982895398 3.3803762129172865 50.27491674331067
2.1735570293924753 3.877560130255285 50.85112065924907
2.8126737115527276 4.437155291613776 51.378740903334375
3.435511330980807 5.048812180036585 51.8665412217743
4.038390319851806 5.701387349890742 52.32554293469888
4.618012230272725 6.385463438291933 52.76835028133817
5.16700043906605 7.098741211233746 53.204064367905346
0.0 0.0 0.0
-0.05531715282410691 0.18191708310818447 0.9817566844574291
-0.11195088522240876 0.3616422677520642 1.9638419548689963
-0.19035026042753925 0.5396665515579522 2.9447399578962457
-0.3138999205061065 0.7164907953618797 3.9211971603878037
-0.5016296007044051 0.8924160212276092 4.887534514564251
-0.7703957360266674 1.0663420731040674 5.834906929711854
-1.138492949983304 1.2374614618034971 6.748812064771558
-1.6105849745579626 1.4039004577973475 7.614506688149547
-2.1701318804596017 1.5668312949470642 8.427132556801041
-2.791789385272189 1.7296964540532227 9.193302829429465
-3.4532220338844635 1.8930986233478042 9.925290932078392
-4.133794445523276 2.0560100448596503 10.639630530068816
-4.8195279027653 2.2162999607537572 11.349614169656068
-5.504581366673761 2.3695980203354687 12.061794944821685
-6.1752244562897305 2.499133488770685 12.792177316437824
-6.807998839817995 2.5901989803426795 13.561140030615292
-7.379902176277281 2.6378190198629006 14.380077699539386
-7.876701568949443 2.644439025968344 15.247917857033688
-8.292140900998993 2.612466599931986 16.15697666996032
-8.624344900051925 2.5473090094975306 17.097930968224595
-8.872371064140784 2.4566162888489487 18.062429725273418
-9.040028155819693 2.3490896530694285 19.042393562467275
-9.137664471384834 2.2369005787533003 20.031272099744204
-9.177907304020614 2.129834108287545 21.02470920662287
-9.172244037911584 2.036683094416803 22.020345091890086
-9.124783240055963 1.968847475477538 23.01691209990813
-9.036563484039306 1.942007554035416 24.01265147005744
-8.910680507456865 1.9679131694460086 25.004358269114974
-8.755331292146984 2.049235496748803 25.988864897017834
-8.583159435032194 2.184225188289179 26.964638761596856
-8.406414342281277 2.3660826782044664 27.93194896290261
-8.2369227429155 2.584267414672857 28.893025452323016
-8.08301475612544 2.834184275439105 29.848982509050447
-7.950580710726432 3.100517079344033 30.803722296208914
-7.851962700212064 3.378389357098671 31.759264804555684
-7.785754638648197 3.663835401899154 32.715369949449126
-7.7379317188010335 3.9455461951870725 33.67367678824471
-7.7018997765525485 4.200089004950401 34.64006680119786
-7.667034447338804 4.3826880079452755 35.62263588931538
-7.605553842928191 4.454872026081892 36.61813054164002
-7.491133847332992 4.4117420969864565 37.61062632189514
-7.317945554721062 4.247107621500333 38.581657374325275
-7.071917178653141 3.969545729104786 39.51032816317307
-6.738826355961432 3.6226095030343424 40.38707542372115
-6.311828521413982 3.237300963851526 41.20512809862943
-5.812034713337098 2.8495344718213995 41.979623609957066
-5.270924316435741 2.4854870929007506 42.737692897203466
-4.680192978884355 2.1728435256230894 43.48152788338968
-4.033604008359009 1.9454099877206827 44.20967394636892
-3.342061282603937 1.835657133289685 44.92362280266011
-2.6423355085062763 1.8591750493662316 45.63764713605978
-1.9628057360995754 1.9969990948851186 46.35823288452398
-1.3028824405696655 2.211626253686655 47.078258180414146
-0.6510620950728155 2.4815999112259433 47.786950258422095
0.00018589913372309835 2.7985878720913027 48.47643896950327
0.6562869503386339 3.167427729915892 49.13483745817692
1.3149820247831152 3.600656279524448 49.750007209307974
1.9693922280511271 4.1006656372110575 50.31722668013434
2.612541042227409 4.662064786380837 50.8379863157966
3.2380956419570976 5.274549973864834 51.321249533794536
3.8428362257476 5.927026447058795 51.777936820945264
4.424356331927701 6.609976941208723 52.21999223449503
4.976099487274436 7.321201008880365 52.65558357519481
0.0 0.0 0.0
-0.09007547951495605 0.21903792868840025 0.9715496867304555
-0.1818391563487376 0.4359951945192092 1.94340820133902
-0.29827630016457296 0.6513321344667331 2.9129815063727587
-0.46524602349554345 0.8643012809189187 3.8756679839708426
-0.7021776672597655 1.0731166656200728 4.824488057164539
-1.0252622922491377 1.2746006143636288 5.749161266192562
-1.4515955373664788 1.466674462417332 6.633099952415515
-1.9834303436804344 1.6474522175936823 7.460427663801031
-2.600926831732128 1.819684250975118 8.227913307915056
-3.276715184867479 1.9883152972070621 8.945460290358248
-3.9883599479243332 2.1545408133272996 9.62805153627656
-4.7162733351305155 2.3184017490484385 10.293853079133452
-5.448069491496334 2.4787369525323375 10.956247982534732
-6.177516302025559 2.6292785200400206 11.62351448631045
-6.887050368002886 2.749969095375137 12.317773223556845
-7.549303109190886 2.8252520776051786 13.063262176778508
-8.139246363710816 2.851522504166614 13.87027941397652
-8.64411690739341 2.8334374050293443 14.733285012632077
-9.060610976141497 2.775526460097435 15.640577144833586
-9.389431882617277 2.6853209770500572 16.58065149417657
-9.631398724012822 2.571940434507838 17.54428882234412
-9.79154850809619 2.444843814424858 18.523164961506545
-9.88162201616161 2.316579034511482 19.510806044784555
-9.915476791139884 2.1967062380827547 20.50301790063366
-9.905058961738826 2.093734030224956 21.49764757706578
-9.8537177038825 2.0201369687809034 22.493613212912987
-9.76072682161325 1.9949169996737846 23.48896071452889
-9.627254145059329 2.033588283811655 24.4792584356192
-9.461062441473219 2.1395861787792314 25.459638343574067
-9.276568507113927 2.307945347319353 26.427944688979853
-9.088098775065276 2.526283169352663 27.38544547517862
-8.908079232990886 2.7796690542398776 28.33591302213183
-8.743920518650828 3.0603300902026183 29.28157749719608
-8.602088907331064 3.3521200848078094 30.227485734330497
-8.499200213130312 3.649578254262565 31.17666040425711
-8.434126966585415 3.9498881643485864 32.128279776952006
-8.39172862696969 4.242230609693367 33.0836531466079
-8.364566119463053 4.498209503436378 34.04995382659527
-8.339451050739024 4.666177689192075 35.035426262484236
-8.283202016780034 4.707167993009741 36.03300124270959
-8.16487444066808 4.621847951713855 37.022303560145836
-7.979022585223453 4.413480275287632 37.98253374049247
-7.709931110690154 4.098045140876704 38.8925284955942
-7.341952210111973 3.720397200387351 39.74221876961963
-6.868847582684669 3.3152965758942297 40.52456491778051
-6.319800924735577 2.920319241798495 41.26113852099037
-5.730861220674366 2.556665952740855 41.98287691565831
-5.0941830710891605 2.2545457005903007 42.69235861879183
-4.407717513484282 2.0483908278820486 43.3896858064741
-3.6863501595123265 1.9643560534810565 44.07712111056814
[...]
CELL_DATA 87
SCALARS quad_param_group int 1
LOOKUP_TABLE default
3
1
3
1
2
0
3
3
3
2
0
0
0
0
0
2
0
3
1
3
0
0
2
0
2
0
0
1
3
1
0
3
1
3
1
2
1
2
1
0
1
3
3
1
3
2
2
3
3
3
2
0
1
3
3
1
0
2
3
3
2
2
0
0
3
1
1
1
3
2
3
3
0
0
1
3
2
3
2
0
0
0
0
0
2
3
1
SCALARS single_component_feature float 1
LOOKUP_TABLE default
-1.586653750896776
-1.8218555253229614
-2.208289184979482
-1.368523421719742
2.572427808321032
2.2887449123698995
-2.3697251753680586
0.28951271912683985
3.136753292782891
0.6466524729725699
-1.891728584616732
2.952686395967159
1.7532865450196549
-0.7155549965365846
0.6198828350423561
4.452791791609482
3.111973180473367
0.9836639764875139
2.5511176896472367
0.6486739451769707
-1.0260570340264665
2.046036753881022
-1.7039969794590237
0.03901211730958054
0.27649057653431386
4.271978742142391
3.350007060103562
-2.5248262588361845
-4.795020429483864
-0.49489501953718434
0.8615946969023522
-2.2673079315092886
-1.3206609550933441
-2.8623895779113777
-4.007531571045482
3.9957634239981976
4.459809599894346
-0.4464725130445939
-1.1385078403801638
1.3802104368209305
-1.1257168625384668
1.129265978862995
-0.9793785547447426
-2.8809556880542733
-2.0495505259309175
2.882260707894808
1.428982362868104
2.2517761313226337
-0.815691619396841
-0.9888792096717447
1.0637176921829596
0.6492592967011315
0.5822791092337376
-0.05778405025224276
-0.4807316323273736
-1.7885048457184718
-0.5101003423523307
-0.2215241141936004
-5.085132860451317
-4.844251744098211
5.479163880250322
4.0891359201200785
4.008958190954462
4.889496339132603
-0.5062300962391841
-0.724798872598031
0.3364027893847674
-3.9553579407007438
-1.028770435191584
2.202381398424402
-1.5621672512118085
-1.985453491900901
1.2043968771375235
3.5271176714045858
-0.6948815601056355
-1.0430329748600506
-1.0252269615258711
-1.4835483918872436
-0.8332692967777693
-0.05165266459605483
-2.416279902788777
-2.467238604161504
-2.042396994597277
-1.0076435562268131
0.11337564430813002
-1.0537327863296873
-2.2671603815701347
POINT_DATA 5568
SCALARS single_curvature float 1
LOOKUP_TABLE default
0.01623449441742999
0.03158147411550175
0.050811900718203254
0.07091442970595628
0.08803992385803688
0.09777910537208365
0.09741784244025976
0.08583818123062108
0.06517645834776102
0.042158246232220545
0.024082486200627425
0.01727613861025871
0.024482444119056177
0.04240188561295849
0.06365408886750369
0.08039031745961281
0.08923025104138253
0.09161597254981586
0.08963918689170908
0.08383613988427417
0.07537237104706404
0.0651339879452047
0.05647776556002714
0.05240764376869526
0.0525002833060179
0.05438401898226277
0.055208352100654556
0.053013113438883645
0.04784615685676857
0.043399390587749054
0.037869107851473904
0.03514940139392038
0.033468473889421264
0.02794901805905726
0.02689604329270408
0.034341913679886565
0.05263633603310734
0.07819602326335652
0.10493702682403225
0.12341469970492581
0.12680361865718465
0.12497646086729004
0.11266272897312216
0.09041052398334175
0.07832065650266376
0.07545707287028126
0.0862289031597715
0.10726076527931247
0.11933657252110137
0.11512084638598856
0.09876047897818145
0.07831924764348394
0.06396537886843663
0.06277931380960677
0.06855010922157251
0.07539003774229616
0.07701451993521376
0.07098308925422828
0.060754344964855586
0.051607546528951595
0.034765147786889876
0.017922749044828157
0.0010803503027664377
-0.01576204843929528
0.01745153341626313
0.03367678580494514
0.05378755744482525
0.07441370201723724
0.09158428947783201
0.10081746891189533
0.09941310666555132
0.08645588838309082
0.0644588086557203
0.04078107695224025
0.023263706618402664
0.018462407024503157
0.02852606462094794
0.049146815688391784
0.07183120216740645
0.08814992690642812
0.09526264295749935
0.09553825317765174
0.0918332440618303
0.08483397343742846
0.07558667607485516
0.06489922006392952
0.056275201062472885
0.053058779582782316
0.0548350135509882
0.058607425182485046
0.06060845262996606
0.058127223783531974
0.051311551397756505
0.04447018102347094
0.037023020494658575
0.03400252904696017
0.03293491186176819
0.028732270744763484
0.0296417909776788
0.03912190833338234
0.0592824055986662
0.08608248994294622
0.11223405919390103
0.1287035570581441
0.13078799694669846
0.1284121872239136
0.11571539349634873
0.09341981620622007
0.08106423394786744
0.07757403730338915
0.08793396894612489
0.10844519529030733
0.11912082126344316
0.11326491996136549
0.09608884138774186
0.07562851757911786
0.06183414880956994
0.061418997513622155
0.0676938561734267
0.07440403410841959
0.07567349800832003
0.0694008767101797
0.05913070176319136
0.05011014878765677
0.03370647977053376
0.017302810753410745
0.0008991417362877313
-0.015504527280835283
0.019638777479649896
0.03747327128240724
0.05916793354764204
0.08065872229916383
0.09777260587855142
0.10601127909906545
0.10282230727455187
0.08768593605458172
0.06368834005486364
0.03914345282425527
0.022759987455273776
0.02145382184531134
0.03634850946568597
0.06139772687230268
0.08619167580502024
0.10143872362896436
0.10533875998242732
0.10190931532535343
0.09531411363576717
0.08642973681509658
0.07602573939869908
0.0647340027679616
0.056291285856702705
0.054601138788530165
0.05927303703035803
0.0662502160377157
0.07015466433040678
0.06703551811635407
0.05731717685946865
0.046460279959700534
0.036197652311198175
0.03325371142543199
0.03357057940593008
0.03167575345080021
0.03566068239375327
0.048269656091943544
0.07144031933595689
0.10030125122170865
0.12549064931162163
0.13881316903573832
0.13885637546044013
0.1356515491094082
0.1224229101685087
0.09985203261129191
0.08686296195590089
0.08216275847421724
0.09158571714042216
0.11111031486812854
0.11937840110387136
0.11071745072959376
0.09215416091430753
0.07155365872702518
0.05855090043881962
0.0592964161140051
0.06631416191771705
0.07279154652320922
0.07353369477870554
0.06694949341322694
0.05663076154152793
0.047763019355468124
0.03202677798976905
0.016290536624069978
0.0005542952583709043
-0.015181946107328169
0.015185291542625032
0.029789709305568558
0.048265530224773555
0.0678890171592373
0.08492249514454127
0.09506438849742699
0.09563966372188704
0.08536955091314215
0.06602423161555084
0.043713224468690005
0.025221723173133495
0.01665215643286278
0.021271788590648155
0.036680293669105475
0.05649591444872997
0.07344807916750547
0.08372513775070525
0.08796276062488041
0.08756328527916661
0.08290018491759713
0.07521633841884419
0.06545010597862073
0.05681938200449075
0.05201392311977688
0.05060511628070266
0.050783732120126115
0.05050535764884706
0.04850028352196324
0.04477310689155585
0.04250745947423108
0.038893363167218475
0.036696779162860904
0.03461235977345495
0.02793820864272301
0.024996994141310867
0.030449096046441967
0.0469708362451528
0.07138308926198939
0.09868511562047996
0.11910969842564108
0.12378493485207796
0.12253475251426059
0.11063269505348122
0.08833380256157541
0.07639893204162676
0.07401480544588132
0.08503651365287053
0.10648833796147698
0.11980912835509057
0.11706254051550471
0.10144020750663725
0.08097147541072665
0.06604310163798957
0.06409678050670141
0.0693651354644283
0.0763177866151163
0.07829454110077277
0.07252105108233663
0.062337343658088615
0.05304821274611092
0.03577468025276098
0.018501147759411044
0.001227615266061105
-0.016045917227288833
0.013289977898890337
0.02845494388691656
0.045210168516727045
0.05923394995178468
0.06803919408335131
0.07473272296118438
0.08515061532904031
0.09990086292697858
0.11355331142281778
0.12166945627210789
0.12066473124351035
0.10753284103124768
0.08536032209356287
0.05892122348525395
0.033652884872125435
0.01965736129663161
0.020738763798474582
0.03524016128251728
0.05691698299725237
0.07891286220217948
0.09662208648974142
0.10589122072213279
0.10665529887791583
0.09728604033898956
0.07812606938273146
0.05417301744774605
0.030906721289898877
0.017254898394753564
0.020060774257645873
0.046303027296216076
0.09887589893127248
0.154414227928113
0.18365530793410426
0.17466363228706028
0.12909852633065388
0.07015225428778774
0.031320313589990864
0.02564866479413912
0.06264022786416217
0.13655549290147362
0.18985632480519252
0.23098747040459336
0.25265806747120545
0.22167634701449163
0.19673536657800958
0.17674455093439087
0.15522894690994005
0.16429600069312014
0.18522459150999168
0.19669834309820597
0.19329618992240483
0.16791776163325467
0.13358477956248857
0.10795176919945759
0.09597085367999837
0.10328145721478102
0.11565543213973162
0.11999634161026439
0.11092586008799464
0.09328877443813
0.0623797947830166
0.0314708151279032
0.000561835472789804
-0.030347144182323593
0.012178223554904664
0.026422287386201188
0.042566773610248146
0.056772511578348124
0.06648119102296973
0.07401964004431136
0.0842778127823733
0.09746783857891587
0.10855280933667154
0.11355015720736485
0.10950088229175044
0.09432541360211183
0.07198976889621883
0.04766848476185854
0.026658595852799546
0.017342101270294463
0.021829806892220926
0.037451382943043406
0.05791365983523535
0.07728436919861373
0.09193079123983736
0.0987598311131306
0.09816302794630954
0.0887931094204548
0.07084525237369234
0.04880663127576491
0.027810061406370636
0.016162836693865597
0.01980680890872224
0.044736233534374996
0.09192063665863674
0.13995920658846264
0.1644242849992844
0.15466018704224385
0.1127878478058338
0.06068433817747942
0.027563549470172928
0.024655222573952827
0.06158598670902744
0.13122611668077414
0.17934873892178035
0.21435178811942127
0.23032489883868132
0.1990242877936358
0.17578912016779122
0.1593743848223886
0.143519521384819
0.15545725884317868
0.17716763757700452
0.18852043474100122
0.1841108426075814
0.1590223218596222
0.1264059818779764
0.10312148943898788
0.09307100541433003
0.10060014389747042
0.11207327067452427
0.11546039165737579
0.1063535474076973
0.08963561198101627
0.06002271017894659
0.0304098083768769
0.0007969065748072157
-0.02881599522726247
0.020620169239759817
0.03918522209636157
0.06158731292362134
0.08343666576182311
0.10047543163053604
0.10823798309465908
0.10427876057816361
0.08826514254954246
0.06350429944257026
0.0386721569403788
0.022831197697620827
0.023048153710217064
0.04000628611066166
0.0669031689066404
0.0924957171150033
0.10716314800147347
0.10959071383440808
0.10453083513578279
0.0967134002940514
0.08707346860775786
0.0762348623737173
0.06473901242704518
0.05641669747461924
0.05540466279240528
0.06132832605688687
0.06967806332873369
0.07436639805117029
0.07092444985447965
0.05993024585091248
0.047370758386207114
0.03605306242573884
0.03334356924705772
0.03437099025991892
0.03349077754217644
0.038714175471642326
0.052569276501274693
0.07699020584850456
0.10671912468724726
0.13149315762274527
0.14353287631907108
0.1427262930640527
0.13916775049382926
0.12574211339647623
0.1029872904454992
0.08967460037484053
0.08443103469681594
0.09338877623283078
0.11245974305179461
0.1196915530335378
0.10982436250173844
0.09066434336492697
0.06996727898080403
0.05725162906781985
0.05844422745426505
0.0657405564782764
0.07211332968453223
0.072656064808605
0.06597343189128783
0.05564263944093106
0.04682063504080853
0.0313451155255194
0.015869596010230268
0.00039407649494113683
-0.015081443020347994
0.010036633188241504
0.021526342033421873
0.03647274022179323
0.05294118964593521
0.06789442990843556
0.07901263621698985
0.08557143390643161
0.08599965904181907
0.07891762349292458
0.06537554214218812
0.04783546350429508
0.02993006259866269
0.017598547647690872
0.013896751292819969
0.01903064737578083
0.03145414343944439
0.046637474017246154
0.06100379200797653
0.0714389946954388
0.07628708937502687
0.0762103222036357
0.07177503514952284
0.06510434299093186
0.0566996628046897
0.04614128754415324
0.035107750658551914
0.026202298317124458
0.02299275722721482
0.02676584963227793
0.039300457776078095
0.05447014887086413
0.06466655508548577
0.06590050552824268
0.05361786185734337
0.0342175673009928
0.019952772673502532
0.019879444166159936
0.03439132364678573
0.06657325007423189
0.10533920710415508
0.12384639104165099
0.13130940658689053
0.1256373426287926
0.10044966096270899
0.08667149388775855
0.08376807855197521
0.09112233202742183
0.11304125818961513
0.13356414439821637
0.1399003505612527
0.12937925514787033
0.1074210509149617
0.08624870276433712
0.07687477568509454
0.07711349703693944
0.08473489473358249
0.09018084873935198
0.08745418299991194
0.07772765865766734
0.0663247542104317
0.04476619120997297
0.023207628209514247
0.0016490652090555141
-0.019909497791403205
0.016071102860445715
0.033376331125621106
0.05158379505983704
0.06535601116389754
0.07233087829560521
0.077192874460772
0.08766721019390186
0.10521074895996738
0.12374348032572995
0.138154485385508
0.14379769886238333
0.13593014314195292
0.11561460877963568
0.08624518491372277
0.05268757343984664
0.02836888165164225
0.020987773788858438
0.03166622984155953
0.05512351381850766
0.08269220911472057
0.10753453626457993
0.12285552173821528
0.1272415397360478
0.11825847744555837
0.09643413975996395
0.0679916025534334
0.03939394687376623
0.02089880238624438
0.021339202819842185
0.04985994994189823
0.11372838377312562
0.18536729423625714
0.22417871971861686
0.2161157267798732
0.16225657611036948
0.08852755108170066
0.038517646076351095
0.027933627647749593
0.06418023225069877
0.14490603633971544
0.20831413070559507
0.26344068769412915
0.29947907937399254
0.2721017019683938
0.24453283873671
0.2161881633820329
0.18148107332551733
0.18357073165021573
0.20213663703632576
0.21346218739177839
0.21221988598585204
0.18651204730446583
0.1488844599986334
0.11843982905411841
0.10227646220357983
0.10891641578005247
0.12300142357807539
0.1291611484141085
0.12003505045825345
0.10048857027964397
0.0669762734849301
0.033463976690216224
-4.832010449765112e-05
-0.033560616899211526
0.009689497386739783
0.021146177494377583
0.03587225330490739
0.051811340631578946
0.06602448881899589
0.07686765859509394
0.08440421777744099
0.08722273673704958
0.08322812208951845
0.07240491366658403
0.056204734270301426
0.037463647608970384
0.02229733901374726
0.014577811687440314
0.015669922778798487
0.02558107511522955
0.04028067496912523
0.055783453989152375
0.06822002326345233
0.07531411411731746
0.07728923768252875
0.07440005694060019
0.06852672799810088
0.0597821937754746
0.04778531814178314
0.03474919214294173
0.023931263992988252
0.019815909081699435
0.024303500982364747
0.03950212168052862
0.059639056277717116
0.07463443129689613
0.0783669164290413
0.06578190287928669
0.04265068292981982
0.0228694335983984
0.01809224312050818
0.029991730314010142
0.06313351329025205
0.10679014886198158
0.12946129624610908
0.1401807470506912
0.13685884670167395
0.1105406594052665
0.09566748695872103
0.09157538345759939
0.09658142802801684
0.11778007841770426
0.1392262737411957
0.1469669403280479
0.1374686648292278
0.11495275018997644
0.09198601288341571
0.08054993757986799
0.07935637566543755
0.08707476539354286
0.09347131314609837
0.0916639977396809
0.08205174036839054
0.06990901301916466
0.04713547512920921
0.024361937239253756
0.0015883993492983028
-0.02118513854065715
0.01782989795310653
0.03433110366894206
0.05471606100442319
0.07549854889601464
0.09267123653838011
0.10173967123099938
0.10001901030145524
0.08665980816756777
0.06428306364716495
0.04042911517779196
0.023097903842064952
0.018911172472713827
0.02983631862872143
0.05125854755836503
0.0743461095917967
0.0905055621660127
0.09707109350860468
0.09669817351099985
0.09247487521431845
0.08512714020724518
0.07565862184545061
0.06484967946046584
0.05624685480659023
0.053295493683048284
0.05558392441317339
0.059926810411147446
0.06227480381180543
0.059693189701964355
0.05236973931881241
0.04480929273524182
0.03682243883905396
0.0337639854762479
0.03291273044781612
0.02911448388418233
0.030593098661023364
0.04065695631622642
0.061365434860670344
0.08853583814015409
0.11451407759785562
0.13040257058234822
0.13211163825960653
0.12958253014167806
0.11678181380591782
0.0944548431340537
0.08200177426833488
0.07830687155703293
0.08851922049263082
0.1088634308182315
0.11911277105491817
0.11275926564638293
0.09533673529574997
0.07486097991411703
0.06122121481412315
0.06102556036547644
0.06744262269320887
0.07411253825091275
0.07528148464631072
0.06894467337809834
0.05866381445827001
0.049675712150164544
0.03339747839945491
0.01711924464874527
0.0008410108980356351
-0.015437222852674001
0.015082567957338141
0.03164808082625848
0.04935148494618523
0.0631893709625101
0.07076307240558224
0.07624086866517119
0.08673393726171548
0.10341497236930593
0.1203964932376837
0.13275302214187412
0.13615785024680507
0.12641385056370602
0.10527192892605619
0.0766556349949958
0.04571328461103166
0.02488624953935555
0.02050597078734006
0.03268401678868702
0.055719585307209066
0.08144397676442763
0.10381035156662798
0.11695851454036543
0.11999334554181662
0.11079579409087607
0.08986486649397747
0.06299402602074484
0.0362713793575346
0.019493841545538237
0.02081474663384237
0.04864422722140532
0.10874836738860987
0.1749926388148162
0.21072973266868897
0.20249115693617203
0.15149854632662946
0.08275934355033934
0.0363172641768412
0.027208037105425843
0.0638211697759507
0.14264480448052302
0.20284564679248043
0.25316424474017596
0.2840674411864219
0.2550044466705501
0.22811247163049805
0.20264439940319032
0.1725053756214957
0.17705432939896934
0.19650869516199373
0.2079336279003335
0.2059608997178208
0.18031947638721066
0.14374279880352533
0.11488282043487465
0.10013314281363121
0.10702886376829279
0.12057095851880029
0.12615336673281524
0.11706779506946108
0.09815675424729539
0.06549609483515245
0.03283543542300951
0.00017477601086657302
-0.032485883401276366
0.010619941808107066
0.02345176458783847
0.03871285298199648
0.05335885864163527
0.06470095295326019
0.07364726985340207
0.0833541564782941
0.09336424528030655
0.0994944883199197
0.09883043269539538
0.08974018058985327
0.07190191879683316
0.05056301034309665
0.031111761682118523
0.017871705702677865
0.01628804020860745
0.02573758555696282
0.042330399604661235
0.06033958272402156
0.07521132661127256
0.08492832831153571
0.08794064976779893
0.08526241487819423
0.07600126929857984
0.06009215361962353
0.04120890520433146
0.023955384953159978
0.015450936607254575
0.020103621820374062
0.042274631212242196
0.07985791228049653
0.11510710032531046
0.13125855348897533
0.11999340695030437
0.08455276923756076
0.0443223696746358
0.021566098545076046
0.0239102313703549
0.06004420363595825
0.12095481672664914
0.15972645579933226
0.1848676224737489
0.19247086059002397
0.16219270529447105
0.1422064006013289
0.13128389559293707
0.12432527084379977
0.14055736227697224
0.1630098845376053
0.1737092430221334
0.16749724885310197
0.14312035793907826
0.11377537218357633
0.0947329635797781
0.08800853769599296
0.09577062327904082
0.10551901599400233
0.10709877965550002
0.09785488620149668
0.08279655029638451
0.05558093966018563
0.02836532902398675
0.0011497183877878653
-0.026065892248411007
0.012527120526654875
0.02534919498689801
0.04195296398109327
0.060211548316958685
0.07670368779268882
0.08767057432022438
0.09085748729336394
0.08466907301328072
0.06969749061008342
0.05009783330911416
0.031041669291651586
0.01785115788503009
0.015157328602442881
0.023019271207112276
0.03786470314153224
0.05439183584673767
0.06793972792082639
0.07705653999438354
0.08119819814086553
0.08010919576364918
0.0750642510943877
0.06703214353325358
0.05880490982156868
0.05215346104506777
0.04663952857465846
0.04201444735396498
0.038380618921746816
0.03647812314685609
0.0364803363148762
0.040464559499071
0.043376399957582426
0.044220774332354384
0.041984214339680706
0.03234189659007323
0.023337492363030673
0.022077578237750358
0.032881495301758
0.053754184581342616
0.08285852311858764
0.10970735060581839
0.11886622666058592
0.11997714582736516
0.10976392535560064
0.08683317950968132
0.07480607625473247
0.07314511561126236
0.08400053294325707
0.10627890118275143
0.12295785868542436
0.1242618319319954
0.11074644643588635
0.08994240849309615
0.07295739965444349
0.06845712251009244
0.07201622318880316
0.07926919617332467
0.08243767209563162
0.07763139799842209
0.06760917588474655
0.05772460681975526
0.038997080762395886