# vtk DataFile Version 3.0
vtk output
ASCII
DATASET POLYDATA
POINTS 5568 float
0.0 0.0 0.0
0.02342971703995066 -0.055684846013702535 0.9981734550086262
0.044124389130732786 -0.10705768403431289 1.9966385580847241
0.03741913720545051 -0.1425236161485554 2.9959869494157387
-0.025335264296765265 -0.15361503096886464 3.9939543164219864
-0.16188445955975772 -0.13999953574435153 4.984494035748184
-0.3852211494846749 -0.1044790363040241 5.9585879824765735
-0.7106661119818953 -0.04615845050214931 6.902348696671071
-1.135423711194785 0.029973330758697195 7.8044489869897
-1.6408923239921411 0.11641788583473683 8.662952813640706
-2.210529955195579 0.21199322905984963 9.479272801687268
-2.8292333584282816 0.3132751133375635 10.258341526990387
-3.4789418424576195 0.41445331588595175 11.011761633643625
-4.141993350914926 0.5104753095276842 11.754151338495165
-4.809228521717508 0.59785973316906 12.49385478539055
-5.472428980699311 0.6647348134940352 13.239302888773913
-6.115548968776571 0.6933782266707922 14.004532420232998
-6.714830908781325 0.6660901170629399 14.804605239080239
-7.238514274907594 0.5732746240230996 15.65144702849219
-7.659838228271804 0.417019274658007 16.544794884658167
-7.966668211001782 0.20490465070643643 17.472621780153123
-8.163697392547434 -0.05349277535412765 18.418354444189173
-8.266596903651058 -0.3484536502841276 19.368306955041778
-8.291497829216992 -0.6679814963485935 20.315556605078854
-8.245866676377277 -0.9994839032185603 21.2579068330355
-8.138832779965277 -1.3291593789615235 22.19591420278934
-7.9776301614734235 -1.6410328552300033 23.132262776020262
-7.769809842735282 -1.9206931574696453 24.069599871451146
-7.529095568562458 -2.156610487288105 25.011087870153613
-7.270365114049119 -2.337954823261556 25.95986222884891
-7.013090441736307 -2.450067960209162 26.919674912402375
-6.769619995794058 -2.4801251806705182 27.889117383852238
-6.546035691170975 -2.4331449263347826 28.862669084805383
-6.352227643202077 -2.320950902041189 29.837272050866584
-6.195527192035798 -2.154180130246765 30.810736214705898
-6.079273845208356 -1.9285026536993506 31.77797705127692
-5.98708549695082 -1.643751263870917 32.73213529519473
-5.897344570629834 -1.3421949628706145 33.68135095218216
-5.808727262700563 -1.053744022315324 34.63473598858043
-5.720307897775787 -0.8391034326765626 35.60741858490146
-5.629217842900055 -0.7800424372016379 36.601508319641866
-5.519333396766672 -0.8806952338498486 37.5903432012196
-5.381152630514322 -1.170700385678285 38.53734007964681
-5.194294043631196 -1.6770809119710663 39.379161100469815
-4.930481779905519 -2.31873113974881 40.099361124560836
-4.5798075633616415 -2.986110620663065 40.75634835602425
-4.150558059331417 -3.646416195599434 41.37257997724938
-3.669130336451606 -4.291556586288027 41.96589374242336
-3.128812520332794 -4.911297403742223 42.53508437548561
-2.517274402213782 -5.478212757449168 43.087015631910525
-1.8248786689210537 -5.938432396127146 43.64270082398706
-1.0801214615167265 -6.25471113763471 44.23032694635545
-0.32637914315934513 -6.457802116485508 44.85532820381552
0.41975798221581606 -6.597958423287121 45.50620115593492
1.1625006222086376 -6.682476608960024 46.17042253998323
1.9113354283020927 -6.7185296059941475 46.83219789052738
2.6772372433219904 -6.70154617389843 47.47493109550708
3.465499732178383 -6.623377913766379 48.08528506802619
4.27765247394823 -6.4737673718872335 48.64922177528539
5.113427999080948 -6.254191678305805 49.15247696540007
5.975473869576881 -5.984219032591773 49.5814194880381
6.860107828798927 -5.682386083792464 49.93683421650365
7.75855289524324 -5.358935163507749 50.233778596394636
8.663611028476884 -5.014672642143579 50.483484607238616
0.0 0.0 0.0
0.029813972905726092 -0.053982330007223654 0.9980967062697721
0.05722156789354344 -0.10443667354044028 1.996446936878057
0.05846591283845568 -0.14039203400763947 2.9957995591587676
0.005694788320143335 -0.1534702829134575 3.9943205493350535
-0.11882777049371734 -0.14267622210963035 4.986478611640557
-0.3283822175704086 -0.11015989926802375 5.96373478197628
-0.6385846266327232 -0.0548631958026095 6.912795759994971
-1.0477263170171678 0.01848478009901488 7.822313847566898
-1.5384120065129834 0.10264176309026374 8.689576873607917
-2.094419734760297 0.1964390683998749 9.515444581928032
-2.700474210681978 0.29662645149097605 10.304532954979273
-3.338182049459173 0.3974211501142681 11.068188074186601
-3.989693939629524 0.493558460859303 11.820710415681768
-4.645631667226768 0.5815527536479088 12.570378810341165
-5.298115696298517 0.6502972252916752 13.32505674789116
-5.9316602800418785 0.6827393323474705 14.098082471977513
-6.523170559713994 0.6618534713547367 14.904109375903683
-7.04189088359698 0.5782508784274122 15.75495591438554
-7.461661237720656 0.4332019676032032 16.650921127587257
-7.770161364788397 0.23329862747682495 17.58090302322045
-7.971078866568513 -0.012493808508645225 18.529174205894883
-8.078969369938399 -0.2946933221260919 19.48244388116871
-8.109249009466412 -0.601335683321265 20.433786934830586
-8.069226981504931 -0.9199412696307485 21.38082902346775
-7.967915926318722 -1.2368594565240396 22.3238554986599
-7.812529884405574 -1.5364671358061257 23.26517925619169
-7.610888578772574 -1.8048699206328431 24.2071456722384
-7.376816517470117 -2.031462195155108 25.152590652786948
-7.1248538666717725 -2.2065481968865233 26.10435728101068
-6.873311193858871 -2.3163089072374823 27.065959522177682
-6.633855627116459 -2.3477922035200423 28.036356262491278
-6.412835988446174 -2.3045460981560355 29.010666322838034
-6.220431281969123 -2.1963777926656283 29.98600218632959
-6.063818044966763 -2.033312175164342 30.96010787791781
-5.946065468754385 -1.811694904809245 31.928105871859792
-5.851632879865136 -1.532596977466128 32.883713967842894
-5.759870613854909 -1.2370298392851748 33.834618670409974
-5.669289665997097 -0.9534747734578586 34.789286998432246
-5.578841486147198 -0.7391204603626815 35.761846176693055
-5.485017840382224 -0.6728475944039976 36.75522678387894
-5.372167038901397 -0.7615873692895859 37.744868107267564
-5.2312415162565165 -1.0371506304955327 38.69576499239277
-5.042648241658918 -1.5274605268242756 39.54666380091153
-4.779060404303021 -2.1523154279995733 40.28156366107974
-4.431589912085619 -2.805442186033516 40.95438584782618
-4.007482830233663 -3.4546127664477284 41.58582130822391
-3.531211980009117 -4.089803949382841 42.19384946410806
-2.9959488749043017 -4.700124908271456 42.777803002889044
-2.389004382447829 -5.257857637879524 43.34397663827018
-1.7008344727831086 -5.708665680041263 43.91247842767312
-0.9604961444737523 -6.014645824583641 44.51103946113749
-0.21151539278277565 -6.204735572310536 45.14577855825185
0.5293431298607227 -6.328543816374222 45.80593018335654
1.2661177081223003 -6.394341753902126 46.47885949037515
2.0083482353885516 -6.41030330064619 47.14881402123497
2.7670143631193835 -6.37235713352455 47.79918760236714
3.5475187300701676 -6.27215000633019 48.41625442600151
4.351153091273858 -6.099777331940132 48.985867869150766
5.177220728068195 -5.856658598833459 49.494302271068676
6.027751775000641 -5.5614592190898025 49.92956571359855
6.898845819129054 -5.231754562600658 50.29355747967765
7.781546473179659 -4.877166976373415 50.60195203058958
8.668105147118888 -4.497927828527283 50.86688860111931
0.0 0.0 0.0
0.021088045662447236 -0.0563018851968378 0.9981910598945578
0.039315632322681635 -0.1079828804542205 1.9966883457264974
0.029680225883995742 -0.14322355399550807 2.996020749819909
-0.03676178999024464 -0.15352767615033266 3.9937578312161985
-0.17775810477964946 -0.13881312009141447 4.983658594452492
-0.40618957789278476 -0.1021262721740385 5.956527104211776
-0.737258026237732 -0.04263432854543318 6.898256572346739
-1.1677592908973464 0.03457722815642907 7.797537972486955
-1.678650415804066 0.12191730649985377 8.652735007799
-2.253279849980601 0.21820100624239458 9.46546525981491
-2.8766140006754752 0.31994209791231876 10.240773770566152
-3.530719591043194 0.42132059425204105 10.990352503675354
-4.198005955425661 0.5173603301246626 11.72893579420036
-4.8693893618239725 0.6045733554641965 12.464896533522863
-5.536519645698774 0.6708040482390653 13.206887557506096
-6.183147129204969 0.6980848152394382 13.969205507790829
-6.785269609145549 0.6684668860494332 14.767059690847296
-7.310753075587697 0.5722819081092645 15.612409072177046
-7.732618526885159 0.41192923130742215 16.50477478198669
-8.038807869747062 0.19535924089006462 17.431783695411163
-8.2343893821826 -0.06762942629256768 18.376550774074964
-8.33544311052102 -0.3672350602329393 19.32524704164436
-8.358358201635806 -0.6914539560256349 20.27095154422969
-8.310658423966744 -1.027653571285985 21.211533571438963
-8.201516609251328 -1.3619781753939137 22.147650617202316
-8.03817450779675 -1.6783255993931143 23.082125691894774
-7.82808248730636 -1.9620940888979352 24.017720041648133
-7.584924809480887 -2.2014065463657806 24.957722111547568
-7.323706332027101 -2.385002675304921 25.90538099979549
-7.064336721053263 -2.497906041930891 26.86453700103189
-6.8194194322460735 -2.5273443338717536 27.83363395624893
-6.594930866419327 -2.478892298900323 28.80690539018716
-6.400648393915634 -2.365118783107832 29.78123075061974
-6.243966503393562 -2.196878476218516 30.75444500468727
-6.128327982700573 -1.969593988687976 31.721383210706612
-6.037037739971536 -1.6826378476709403 32.67496711614707
-5.9481136656103075 -1.3787488781075317 33.623515482429305
-5.8602900306998675 -1.0883803367020872 34.576391717474124
-5.772686025170073 -0.8735574033107758 35.549107835107776
-5.682673854150859 -0.817103103898869 36.54344717413964
-5.573953869516542 -0.9220719782654221 37.53196196935281
-5.436852522163025 -1.2172796785965072 38.47750712121975
-5.250700719215148 -1.7294093426261026 39.31600024193106
-4.9868818080660064 -2.3770463707674487 40.03081900350655
-4.635082372837483 -3.049495701836273 40.68200949369969
-4.203961977083111 -3.713738183463368 41.29267890505617
[...]
CELL_DATA 87
SCALARS quad_param_group int 1
LOOKUP_TABLE default
3
1
3
1
2
0
3
3
3
2
0
0
0
0
0
2
0
3
1
3
0
0
2
0
2
0
0
1
3
1
0
3
1
3
1
2
1
2
1
0
1
3
3
1
3
2
2
3
3
3
2
0
1
3
3
1
0
2
3
3
2
2
0
0
3
1
1
1
3
2
3
3
0
0
1
3
2
3
2
0
0
0
0
0
2
3
1
SCALARS single_component_feature float 1
LOOKUP_TABLE default
2.5181753436228247
2.36714046207279
2.573814001675402
3.33295447932161
0.3323439363518821
1.5208837997562077
2.587570336293143
1.6164446779637596
1.7701001462268704
0.3436594042262478
-3.5880682142181626
0.1366166064007795
-0.4748140592158224
-0.02728034356320541
-0.861687924680645
1.0739574783804
-0.8049424860070606
2.038556547482499
-1.9459611005170356
1.5367784187369178
3.6184872912326638
1.341940293110459
-1.568248598034892
1.295688174110152
0.13615624806311463
-0.7938104864758436
-0.9273382173761942
-0.3758411657035241
-2.0726872507870544
0.02765690291137287
-0.09691503120564898
-0.13493274355359297
-2.8952075539969524
-0.18431631337118715
-1.6302045375893277
-3.6767375920385668
-3.489554193953719
-1.1518563467039873
-0.4945204713442969
2.060170947641124
-3.064491561907608
0.3300199294535098
-0.18133177486555158
-0.7358585543027045
0.33609918877599804
-1.6341827956808948
-2.5838068624125774
2.687812243968928
0.6268661405778291
1.3058007269904488
0.7050592402158227
1.240383425073467
0.5408520295427831
1.4296941851828457
-0.6309296698995963
-0.44555209744921465
5.132331947811371
3.354326231919833
-3.552780311218756
-4.882063696368181
1.8559380200780522
0.9566735236328325
-3.9580297474539154
-3.1619511546716774
-0.1900734855328615
0.759524421592281
-0.2774916220486813
0.1612671997311755
-1.2928284741608784
-0.9951713576140099
0.34106626794160094
2.298552127384128
-1.4046998787309062
-1.2889091674256437
0.6396379062020519
0.15308676584484748
1.512573641893765
0.2893566627673462
-0.7486159453282546
2.343782811318775
-0.6856142727517995
-3.0182221745013966
1.6699480290616768
0.47754103732328157
-0.17137876629372564
-0.7392613113305497
-0.5391198875787694
POINT_DATA 5568
SCALARS single_curvature float 1
LOOKUP_TABLE default
0.02447317577747762
0.043978400152355296
0.06536312453752764
0.08452399147770076
0.09639841051492322
0.09988882741971218
0.09651238622229029
0.08487624752473916
0.06778532026174278
0.04931201771698152
0.032513138592139536
0.022480224282922786
0.02429301127149946
0.039532589174383286
0.06453894577323817
0.09116175887323891
0.11199460476329605
0.12215116090272082
0.11985333778631538
0.10823874429049023
0.09338490788294043
0.07881360035088815
0.06789261655655159
0.0616435845596536
0.05745960520961333
0.0565504850580743
0.05980388001668477
0.06653692219327934
0.0726914958509163
0.07610895982233586
0.07508811188162418
0.07210177120767818
0.06848852932991771
0.055048831155496435
0.04203657779074159
0.043173417987557604
0.06597983801837068
0.10139963405027418
0.14600628650093941
0.18668374243989777
0.1963084062066923
0.1842413297208528
0.15844351750934774
0.11313931969530885
0.08142837551580406
0.07644631737617122
0.08759918384697173
0.11161658954907784
0.12415045685940108
0.11877690264981176
0.09992297282688287
0.07335277346733651
0.058301133096256307
0.05936480368194089
0.06710934580618355
0.07869156457769731
0.08728145207723202
0.08988245592416216
0.08378407107990095
0.0729893640187643
0.04971547012982316
0.026441576240882017
0.0031676823519408703
-0.020106211537000263
0.023206977542427218
0.04214393625463349
0.06324751058822663
0.08236939555870547
0.09458984356732354
0.09868762839674837
0.09594950006601465
0.08493600403629861
0.06820814536419115
0.04976251400834904
0.032747955097579856
0.022201567651705584
0.023265031158987357
0.037528830370846575
0.06151246937092723
0.08748558201375833
0.10816304823626258
0.11870826640840294
0.11723525308913912
0.10653560387527955
0.09243348854244655
0.07834720703324848
0.06762561001937313
0.06126580590997297
0.05668508120848817
0.05505391453206626
0.05735813953416518
0.0632988465113453
0.06927313377656819
0.07326322200997097
0.07313485424687692
0.07086332449028947
0.06743294705069863
0.05408823844251944
0.04090132213997148
0.04113477967527724
0.06255936764004137
0.09693819634924113
0.14112323060178408
0.18212556073643096
0.1924432701305088
0.1809135300639796
0.1554440707364387
0.11099719162887034
0.08038972597672102
0.07606923886989625
0.08771296051637159
0.11185097316887802
0.12494715741788345
0.12022752996317436
0.10183766000301403
0.07550915532822479
0.0601175727275398
0.06072926208922259
0.06815050562892895
0.07955409495546155
0.08783278683639402
0.08978811095145649
0.08300267443349167
0.07157757101996608
0.0484162387932652
0.025254906566564317
0.0020935743398634438
-0.021067757886837443
0.02495254715699335
0.044669962366814704
0.06615512238506366
0.08532668238976482
0.09706878035376555
0.10033061542952793
0.09671629640696816
0.08485111679831121
0.06763032285145264
0.04915197640485958
0.03243657866081902
0.022595891168508252
0.024685847913757965
0.04028506677773464
0.06566706480073252
0.09252438840091658
0.11340787412970113
0.12341503543378839
0.12080949706318923
0.10885839177749897
0.0937303156652954
0.07898284463395651
0.06798927702299697
0.061780691110943455
0.05774456386871373
0.05710661561321523
0.06071786100150495
0.06774895709756311
0.07396981340225843
0.07717276254228576
0.0758203395513084
0.07256924228941006
0.06889125436065548
0.055417288699796945
0.042468694399372064
0.04394434754304888
0.06726178700876485
0.10305801126050167
0.1478064735184414
0.1883433291507545
0.19770287208333195
0.1854533485674464
0.1595576261624465
0.11395118025219382
0.08183780557291895
0.07660043643182632
0.0875556875978262
0.11152133304959978
0.12384430366013938
0.11823071476328917
0.09920672081128896
0.07255033096960703
0.05762470392692139
0.05885005823200124
0.06670962380501899
0.07835407113499557
0.08706119364919171
0.08991198065968502
0.08409191237243875
0.07357605375233302
0.05026193399253875
0.026947814232744477
0.0036336944729502135
-0.019680425286844064
0.03216210030924794
0.054916581652464776
0.07759289551831115
0.09669799681901016
0.10636411657500094
0.10625348120378623
0.09926293646087926
0.08431349268452919
0.06554554123110533
0.047273035435874626
0.031904311609126115
0.024839229323223466
0.030757249040733868
0.051255109234548
0.08167923410679717
0.11146195528125877
0.1326843364540733
0.1403383339814385
0.13335541265542658
0.11686744696047625
0.09815964093460401
0.08115268941261711
0.06921693668968959
0.06353271888060688
0.061579281791680526
0.06487890874049436
0.07376816448024136
0.08516458774996538
0.09228372139075598
0.09240161254107962
0.08641347979540266
0.07952065377589093
0.07513483699761149
0.06124167320607836
0.04912260004740532
0.055514909077870905
0.08581826140409575
0.12632449392537437
0.17230842145071684
0.20987652091464015
0.21515694258011897
0.20120154608819343
0.17510224313598852
0.1260571123910433
0.08870200259920327
0.07946414223767435
0.08694044981524542
0.10985830103314939
0.11916030606323644
0.11037898437379488
0.08911465028876801
0.06143156144769438
0.04823360704020083
0.05137241850799728
0.060559177068133664
0.07285235357410733
0.083275820083463
0.09011003392744864
0.08933096266410197
0.08483085369185353
0.06102002463102698
0.03720919557020043
0.013398366509373871
-0.010412462551452673
0.011465910799483172
0.023971900492277255
0.04020518701079829
0.05760097013276361
0.07282993378081033
0.08329053807994176
0.08796424986141588
0.08517900055355042
0.07454402829619902
0.05835669721667631
0.040012020959330444
0.023827143398446413
0.0154388910069481
0.01697620926666902
0.027269076174968994
0.04309620143685572
0.05931975747121183
0.07250909061475451
0.08017151389569142
0.08147206579610229
0.0780984560845973
0.07126874781670936
0.06352114906331836
0.05569557738567584
0.046859575784336666
0.038139092070080656
0.031465587931145726
0.029547292125920617
0.0329588282422754
0.042694476468871985
0.05282347581733305
0.058772636371125356
0.058120148020467326
0.04614227378613397
0.030320298725916392
0.02115338504153791
0.026423602210933025
0.045356412217005475
0.07899070575546352
0.11598756527150822
0.131339995985213
0.1333403827031658
0.12210695805031428
0.09434374440408128
0.07903834379207388
0.07758625853111378
0.08800915709252388
0.11082694126142857
0.12969627681896456
0.13343795951937054
0.12117052585014106
0.09893874451569493
0.07965036039748721
0.07307592953114385
0.07526069717479163
0.08337089369527628
0.08846079625333436
0.08544678899113972
0.07566489919708727
0.06447842176055496
0.043422639483662005
0.02236685720676905
0.0013110749298760882
-0.01974470734701686
0.01709332622950339
0.0330683449116183
0.052379271247081464
0.07103414967856939
0.08485561519957849
0.0920006296263089
0.0926214702979707
0.08509142715333531
0.07065664097453886
0.052739572006256626
0.03481867444790048
0.021633152466854478
0.018601387265158864
0.027441375089889697
0.045655889478775295
0.0676692048869291
0.08699996246971752
0.09924374542471374
0.10206397923804107
0.09648580126426715
0.08675818246481763
0.07555504335429472
0.06601088146105938
0.05901820059674054
0.052379121687872655
0.04714299933935074
0.044793456087676375
0.04679112932786823
0.05173975329719059
0.058622765919511544
0.06322750699266604
0.06477923329862068
0.06250541360560237
0.04973022107681717
0.0355153219385113
0.031170932617031695
0.045147763261073164
0.07327565037076629
0.11410469982125529
0.15532087665003325
0.1687279559840649
0.16140038732250533
0.13959074098060165
0.10097582596406655
0.07677397092595993
0.07515041102791198
0.08815042743246301
0.11237770157117798
0.128285864798021
0.12721202386843553
0.11144141121486793
0.08666930395230735
0.06947971880889832
0.06727459419639135
0.072643388002466
0.08281915539571984
0.08955112992477769
0.0887202984972556
0.0796847167789195
0.06736587782972803
0.044949982722883544
0.02253408761603906
0.00011819250919457847
-0.022297702597649904
0.02507213342031064
0.04484224471118687
0.06635197315945084
0.08552586734266153
0.09723484318932235
0.10043976248964033
0.09676640761740637
0.08484463405853641
0.06759205949018861
0.04911289345721577
0.03241846794884834
0.022625558674284663
0.02478413296799617
0.04047227922723988
0.06594705114569474
0.09286194884491782
0.11375740699089518
0.12372712146492928
0.12104519152675229
0.10901094000762712
0.09381528936254227
0.0790244751478259
0.06801303420676855
0.06181441532758466
0.05781497523463616
0.05724448833459144
0.06094487460968152
0.06805016392136522
0.07428739811021011
0.07743702568350393
0.07600240443899993
0.07268574627486588
0.06899198087572979
0.0555096064842432
0.04257669417814027
0.04413660649661425
0.06758052245429903
0.10346921204488574
0.1482516210015723
0.18875200046230864
0.1980452005904925
0.185751838449514
0.15983378570041928
0.11415372409017185
0.08194120212549137
0.07663978434037468
0.08754482438245172
0.1114970805103571
0.12376761610013043
0.11809477284198026
0.09902881663917387
0.07235135251692093
0.05745693434123152
0.05872184995522892
0.06660950544866164
0.07826903643104352
0.0870053552514372
0.08991888204732255
0.08416972650596838
0.07372671118177378
0.05040274246643373
0.027078773751093688
0.003754805035753636
-0.0195691636795864
0.01769821647335765
0.03398803746936343
0.053519040129390016
0.07224638083790479
0.08591435947013441
0.09274527885366955
0.09300624837188275
0.08508523373422106
0.07037146283611455
0.052363564360430416
0.03451912130583562
0.021610719246732128
0.019031225362191536
0.02847769180749859
0.04734361640720199
0.0698282325271091
0.08935041967806849
0.10144445824846984
0.10381096205831965
0.09765832806266224
0.08742568713030947
0.07588448233196689
0.06620253054407277
0.05928125837700326
0.05285772486565579
0.04798695854759235
0.046102099965336124
0.04849992730429612
0.053566242157464604
0.06015333235831516
0.06425090448591303
0.06539203813573741
0.06298098195150292
0.050139531973424745
0.03604496501353126
0.03217346223311021
0.04695513580255417
0.07581618806947386
0.11710703865721667
0.15843860612268282
0.17156823526608128
0.16366218589627285
0.14127734310854265
0.1019161149470566
0.0769789487620789
0.07514757811633146
0.08812297310698455
0.11239173434599106
0.12801432031796772
0.12653541168154042
0.11047056436809102
0.08550672032471791
0.06850796705668813
0.06663962971626014
0.07225582947521647
0.08258617991164185
0.0894762657787482
0.08889619447331444
0.08000624909983488
0.06764212990172154
0.04513110313067121
0.022620076359620878
0.00010904958857053948
-0.022401977182479785
0.0187171387800308
0.03552388022806314
0.05539959767779635
0.07423339097348014
0.08764051546734306
0.09395054121605738
0.09362223542606539
0.08507066253377013
0.06991830556236736
0.05178069479103511
0.03407301132406227
0.02162153219855176
0.019775156062568203
0.03020082129869498
0.050115434005010416
0.07334615771758389
0.09315567618438374
0.1049861078130343
0.10660535897234182
0.09952570678395212
0.08848586938274465
0.07640713991589972
0.06650609597956533
0.059700074178495356
0.053633144971617065
0.04937357269417453
0.04826981685278301
0.05133608611393646
0.056590417190296324
0.0626838821352265
0.06594977329267758
0.06641740584499302
0.06378756703267004
0.05084017061113034
0.03693676401752682
0.03385014249532112
0.04994921981988895
0.07997778450178081
0.12196806695482544
0.16341031227367905
0.17605475943363993
0.16727459474335274
0.14405314906527739
0.10353822913501984
0.07742225785743724
0.07520153293930887
0.0880657981329733
0.1123737235024543
0.12751941829033572
0.12538415320634588
0.10884431546148632
0.08358004276033436
0.0668955650165982
0.06556075284960572
0.07156824219308172
0.08214000943363776
0.08929297274185087
0.08914709993047004
0.08053826045368635
0.06815117731884326
0.045493239995228606
0.022835302671613947
0.00017736534799928094
-0.02248057197561537
0.011502614662518442
0.024037615909895244
0.04030299984458783
0.0577135666486448
0.07293299394105282
0.08336672004259135
0.08800535030509003
0.08517612275036532
0.07450258120459319
0.05829405030495339
0.03994915403244939
0.023789122796222827
0.015449363730218109
0.017053510980926976
0.02741916665315148
0.04330674630650446
0.05956528620875781
0.07275346883328575
0.08037743951371282
0.08161591671709298
0.07818224599550051
0.07131012247407052
0.06354490250793016
0.05572654337126912
0.04690669640010044
0.03820943117826055
0.03156381276899576
0.029673192313631625
0.03310017237984135
0.042816642662394745
0.0529007591944866
0.058815433676203184
0.058149417764590684
0.046164623362162836
0.030359106555320894
0.02122846230208763
0.02656751431556123
0.04558538470574609
0.07929790148919497
0.11635607484974521
0.13170178801802582
0.1335963270566283
0.12223472340050713
0.09435807197971607
0.07897376325999089
0.07754199856661016
0.08801352187258914
0.11084994506784654
0.12969440133788906
0.1333916182611444
0.12109266139694423
0.09883707064464523
0.07956720085499108
0.07303542765656112
0.07525061680976643
0.08338078058353468
0.0884836299664955
0.08548415681299949
0.07570418427701621
0.0645069399465122
0.043437509632114214
0.022368079317716227
0.0012986490033182335
-0.019770781311079746
0.0189903284494434
0.025869512183027618
0.02747909943947372
0.03621834731436846
0.05119852984272627
0.06694730702176173
0.08069974733881856
0.09212986092235023
0.09705832906450475
0.0926372654126856
0.07857689195303662
0.05757698879702392
0.035177491292336195
0.017823471176186927
0.008509183707397549
0.005565402189910319
0.007748679827979415
0.014525759481258779
0.026128202488756806
0.04217364282692504
0.05559025456490224
0.06167610644734605
0.05940547317702708
0.04994992450886091
0.04154263470181782
0.03704134108955033
0.036825251139816266
0.03738755925103129
0.03482754984034067
0.041728374299241706
0.057913220282390564
0.06565633169615198
0.06509187085255375
0.05279476303708251
0.029572623964039788
0.01622133937015474
0.016874517461002044
0.01714608350747368
0.02364630691352185
0.03485637783798188
0.04868209267303432
0.10283436445917857
0.15674957657081706
0.1636824627624706
0.15841856168189838
0.12407083585576012
0.0939105056531441
0.1132563696288398
0.14738397589087193
0.17095159121996734
0.16841958423481215
0.14765265593231433
0.1153208278870979
0.08908673581089924
0.07966236285115044
0.08130011485423075
0.08413939246797582
0.07955063549863428
0.0710211586966381
0.0633802923788861
0.04467783597753019
0.02597537957617428
0.007272923174818376
-0.01142953322653753
0.01088309550399551
0.022899626050577958
0.03856947237328212
0.05570165086325031
0.07108520434227023
0.08199803592568294
0.08726881724377078
0.08524060418987833
0.07527894042225346
0.05947123594136093
0.04114218411838575
0.024538005552871188
0.015318814219587721
0.015709991292249387
0.02475494948347808
0.039535877361051415
0.05514145578883922
0.06832806041442772
0.07663088738891703
0.07899150858525988
0.0766519536804597
0.0705557913416831
0.06311360169054067
0.05516589013458887
0.046066188612811275
0.036976045660758246
0.029861806635979694
0.02749485416163965
0.030636472443697098
0.040677783813665616
0.05155766767134019
0.05807803824653872
0.05765057538015287
0.045788915251476714
0.0296786996327926
0.019913303708164395
0.024042227892856538
0.041521095531337274
0.0737836491993774
0.10967145539053536
0.1251120043085961
0.12898878319399504
0.12004440482866308
0.09425877903195427
0.08028793606846618
0.07841692183596205
0.0879320913366886
0.11042176095264844
0.12971919907859775
0.1342290239686959
0.12249994851870724
0.10067195104466595
0.08106259415347136
0.07374691029418029
0.075406499958599
0.08317263876780705
0.08804621017874398
0.08479503126698552
0.07498823926402336
0.06398356751160604
0.04316281075872564
0.02234205400584524
0.0015212972529648414
-0.01929945949991556
0.009700243655431161
0.02033721187746867
0.0341453100065838
0.05035696971019268
0.06610263941603402
0.07828189519269849
0.08530495395883529
0.08559875357863811
0.07781154874604991
0.06334058603927567
0.045199655049445855
0.027408585691358317
0.015690006825908986
0.012627702466691041
0.017925918512918054
0.02945831629351705
0.04300179965205254
0.05591733568975892
0.06591609168426955
0.07140502112489551
0.07221614372321654
0.06839436207398555
0.061906658064494406
0.05361008230280657
0.043882204755935836
0.03403194673780838
0.026049708081829423
0.0226503201377817
0.024915643338849408
0.03558940763643219
0.04849910919295765
0.05648560582869444
0.0566358016557012
0.04508450928706968
0.02806117823030316
0.01675216525369524
0.017938144757202117
0.031142938535984616
0.0589418918771415
0.09092208070111137
0.10636944727846828
0.11661823712165227
0.11560599383599725
0.09606806442864393
0.08581859384218318
0.08182911274273873
0.08775382540043299
0.10922197790768723
0.12989260074181316
0.13681994264419212
0.12668182600447303
0.10596446865523844
0.08529211740131913
0.07560218327740778
0.07563147685826364
0.08234631129457415
0.08663235373422577
0.0827913223370786
0.07298703238179481
0.06250719395027653
0.04238587516698774
0.022264556383698952
0.0021432376004101653
-0.017978081182878622
0.010470988505184353
0.022095593325921477
0.037281596145098746
0.05418155839205004
0.06967981063769402
0.08095333297061663
0.08671022685592956
0.08531068052496014
0.07592154751627798
0.06045014944798203
0.04215109798418833
0.025210789510783795
0.015307279304116283
0.014753429490137134
0.022770554944335376
0.03667614983083478
0.05174693297736639
0.06489902525410554
0.07370190339267313
0.07692935727474387
0.0754474851318025
0.06996451885792723
0.06277857292159258
0.05473245766045368
0.045435090667545065
0.03608225616622316
0.028659665134477524
0.025960936019279644
0.028872499481283117
0.03913148729792555
0.05060268593232487
0.057563906054050554
0.05731089384166818
0.04554093111030966
0.029185310973831504
0.01895969417812079
0.022206178222369
0.038496060954885954
0.06958604919685661
0.10448235777435921
0.11995978599712097
0.1254715289878257
0.11854330632638316
0.09442959025446708
0.08152762925733477
0.07920826779303035
0.0878695898742871
0.11008029158728486
0.12973632688745426
0.13488945493459806
0.12360066695488892
0.10209615322462966
0.08221429708219169
0.07427221937510115
0.0754935528376199
0.08297400916610252
0.08767726858731231
0.08424687430600013
0.07442993569337493
0.06357154005967769