# vtk DataFile Version 3.0
vtk output
ASCII
DATASET POLYDATA
POINTS 5568 float
0.0 0.0 0.0
0.03214567064193087 -0.2137772777180241 0.9763533844825096
0.0643798057261097 -0.42711181859398073 1.952800686800776
0.08547653706211382 -0.6333272218520317 2.9310798572761856
0.0840506262914672 -0.8265526651788605 3.912233206569569
0.05159774296941143 -1.0014541860820068 4.896284154615376
-0.024716311130409726 -1.154790642124837 5.881507020973579
-0.1568141454992633 -1.2831101077069338 6.86440288367104
-0.3534059460081269 -1.3821923462916528 7.8398691178225475
-0.6235781889096219 -1.450370951684414 8.80026415994442
-0.9735155735669656 -1.488300605886786 9.73626905744831
-1.393404571181035 -1.5007050840192522 10.643759750846822
-1.866500865189681 -1.4981168858039762 11.52476667353545
-2.375132089276779 -1.4918005117745188 12.385727985850224
-2.90327854461263 -1.4895503701578523 13.23487830150634
-3.437207288694001 -1.4931626751463098 14.080400062016594
-3.9704527212015766 -1.502350632287937 14.926310748882159
-4.495481011539782 -1.5218141933943112 15.777172937567025
-5.000172825485804 -1.5587772887639213 16.63968085203307
-5.46978248027476 -1.6251304461203375 17.5200580613234
-5.891136336572784 -1.7320512515320488 18.42062947390149
-6.251731801630097 -1.8803888424278474 19.34148063978408
-6.542135735307758 -2.0613449242802204 20.281119108422512
-6.757668633310299 -2.262768223458669 21.236615955317728
-6.899993462221813 -2.4724837577770455 22.20396441256613
-6.978940035127173 -2.679023534447097 23.179212462694704
-7.007009290746146 -2.8735326510622357 24.15971147872817
-6.99735320028585 -3.052548873246476 25.143510214299578
-6.963168668775317 -3.2150985896007906 26.1296182243667
-6.911857646705448 -3.354091080934051 27.11858145238234
-6.8420155797584234 -3.4503209599384395 28.111487236468307
-6.742117053674856 -3.4617733141311624 29.106418956773663
-6.603889059009082 -3.3579759322282574 30.091365211652974
-6.432746076742762 -3.1357569683024686 31.051223957350867
-6.249262555272497 -2.8428399389323404 31.98959137539875
-6.064316649877042 -2.5264779868385205 32.920026825790046
-5.883084908222485 -2.210108390751326 33.85119025639097
-5.717745185512227 -1.9087349404767697 34.79025192612502
-5.592264284570694 -1.6674809197581353 35.752567384270634
-5.52874235781042 -1.561290377791062 36.74488211943151
-5.507164201756617 -1.6286852373945264 37.742375134986176
-5.489060290097582 -1.8360838263486943 38.720464125662616
-5.460207589647571 -2.1625232731511037 39.66524177635514
-5.400809677460415 -2.6031740600635325 40.560953098166614
-5.283748244030246 -3.11269289283348 41.41341258685568
-5.088963673350678 -3.661941341983035 42.22605341288646
-4.7848114571064935 -4.221995368721307 42.996657667019534
-4.378232747215809 -4.744175524519156 43.74633869089206
-3.874002002907224 -5.209132007589959 44.47405211343176
-3.279023111560954 -5.596667042458378 45.178194652696284
-2.612579698925338 -5.872857709157205 45.87070594746558
-1.9133453982232769 -6.008512057833447 46.572609993904216
-1.2208180578041297 -6.002870772066619 47.2939795653909
-0.5480496646596701 -5.892504701600971 48.02555459208043
0.11585848849338153 -5.69445327125603 48.7466659531858
0.7826461038309861 -5.410743120744625 49.43579789013923
1.4582959106162974 -5.0393313221497795 50.07262644984389
2.143656151100863 -4.582835004445399 50.639982116674915
2.8325466189119783 -4.049581701491617 51.130971768549436
3.5102208314949737 -3.443997961250158 51.548135998985344
4.165160780568189 -2.7789192226060586 51.90691717813435
4.793000350431245 -2.0689903700990633 52.226007289062714
5.38839673084173 -1.3247792543960837 52.52874969682585
5.94150768717656 -0.5510884397334475 52.83773318067092
0.0 0.0 0.0
0.16651189562926857 0.033486375522780346 0.9854706749915468
0.33219005014441616 0.0626530505162029 1.9712191490894186
0.4852562666684699 0.08877191487511116 2.9590898583847256
0.6084179374981236 0.11705028018956357 3.951073495796952
0.681417567804687 0.15623295889865108 4.947635471623988
0.6880232627255874 0.21321944966326314 5.945988567810375
0.6103305630988993 0.29039698737852837 6.939974217654942
0.43684833766935904 0.3848046410203988 7.920275759219501
0.17017416788323295 0.4927248252412494 8.878001252775258
-0.17673673240505647 0.614597825398777 9.80794737975992
-0.5875149023036519 0.7525828126109968 10.709180667227047
-1.0402056905055967 0.903769441360326 11.58793754689543
-1.5151701730238576 1.0603614146446239 12.453898108496876
-1.998914462843912 1.2154605720637328 13.31525501096784
-2.484210727501037 1.3649948680023942 14.17672296153128
-2.9632093128715264 1.5006446185455111 15.043994257257514
-3.421436331463438 1.6146441754727816 15.925488500263532
-3.8407918332282036 1.703304045440483 16.828970868988527
-4.2054857069820395 1.7629396505685395 17.75818665288774
-4.504800146414709 1.7905083698762239 18.71194282301868
-4.731600098243041 1.784772285914681 19.685867296061357
-4.8856186692765595 1.7473694567709852 20.673227062382043
-4.970957160687183 1.685986545469944 21.667686453249246
-4.992824622894488 1.6100868910693389 22.664562100739182
-4.957760462249292 1.5303982602902684 23.66076500515314
-4.871157566468153 1.45651946728142 24.65426481007807
-4.743540190424689 1.3959823867536154 25.644239086114045
-4.589365095263102 1.3493637864787935 26.631182218285463
-4.420485558929257 1.3143314827207566 27.616196147070774
-4.244053761902389 1.293313264452281 28.600284585931167
-4.065111766234845 1.2922406533469428 29.584143626491315
-3.892363248721697 1.3197536687687745 30.568725255245074
-3.7405523678458885 1.3992964095248255 31.553928995006917
-3.617243128185159 1.5459065923842152 32.53540761713592
-3.522875601706025 1.762479725379315 33.5071024498951
-3.4492322930413786 2.0409798766404723 34.46471110108641
-3.381247613093001 2.3520077176449936 35.41267722147911
-3.3120338227811006 2.6683604685354 36.35879052771401
-3.2371320067427227 2.978769020369163 37.30643827287178
-3.1454423374501665 3.254149201370859 38.26339112461344
-3.028044316693497 3.453868299421197 39.23618606014527
-2.8816918751465956 3.507998087012825 40.22393649874226
-2.705952936108874 3.3799679618297063 41.200012373022275
-2.494540402609434 3.1279696612242964 42.144364848092536
-2.241846600024828 2.7762416184503698 43.045715626680845
-1.9351494687178759 2.3454643948554046 43.89446049604967
-1.579878820698612 1.89426244646226 44.713117669976704
-1.1728341692748578 1.4478880678100576 45.51002705367737
-0.6884578300012931 1.0343798235027202 46.28099429931223
-0.10425150302878775 0.7145190792393176 47.026911232894356
0.5494027001464419 0.5408130442273265 47.7634995820228
1.220537723454594 0.5186013645992157 48.504501890910745
1.8783471907198657 0.6167779923714648 49.2512602551327
2.5175554551343726 0.8044804998687144 49.9970353977752
3.1482273718031992 1.0509289466232066 50.73291317065434
3.7838518854858902 1.3480418651490358 51.44544765490806
4.43279976531384 1.708216535660508 52.11562737407954
5.095283762582116 2.138570195851948 52.72874292642125
5.765948033403187 2.6378504654903003 53.2773125648391
6.436775766032336 3.196659414235548 53.76488072616412
7.100476831786247 3.8049790784771766 54.200137066053706
7.746563702405077 4.455306028992211 54.59969508818289
8.361837660530549 5.146617565061798 54.978543760543936
0.0 0.0 0.0
0.0494538314352552 -0.18288729716950228 0.9818892784272613
0.09892281304590841 -0.3656701848191487 1.9637972353360857
0.13741209915801222 -0.5428201580392387 2.9472281997879386
0.15274059526515837 -0.7083399491973575 3.933315536661335
0.13504864464021965 -0.85627405251809 4.922154500273599
0.07097229729568981 -0.9828968128396515 5.912033734463069
-0.052064260067142126 -1.084837254018181 6.89918628194731
-0.24301117172695222 -1.1587857046276606 7.877997246117635
-0.5096794806129533 -1.2039566998390847 8.840726488546414
-0.8560924578309991 -1.2210276432097382 9.778653261864761
-1.2717472890605288 -1.2138026877243633 10.68814700087223
-1.739254953761169 -1.19181750592486 11.571862585903633
-2.240570070381087 -1.1658575233801116 12.436737856190993
-2.7598891470864855 -1.14360100186358 13.291028406191305
-3.28430373537985 -1.1271178406846498 14.142331903765848
-3.8075489549428956 -1.1170279627029047 14.99445433309554
-4.321230430004988 -1.118477645320235 15.852434076794855
-4.812451935683088 -1.1383781828498987 16.723241403914564
-5.2662680815048315 -1.187648855788927 17.612973558318142
-5.669769582317379 -1.276404738629416 18.523637564471468
-6.010963825061137 -1.405595326905235 19.454710215030737
-6.281347791875785 -1.567335718140019 20.403779525636022
-6.4773674436540025 -1.749990332291558 21.367217945072312
-6.601339891870585 -1.9417799727483978 22.340792578008394
-6.662884011746209 -2.1314085343692923 23.320717743480902
-6.673660015048195 -2.3099196999744627 24.304596618905677
-6.646340859674694 -2.473222066981186 25.29079436818301
-6.594130562073423 -2.6202852598850352 26.278542565912225
-6.52499628258281 -2.7455039074269845 27.26826007192446
-6.438873478353504 -2.8324586860572176 28.260742680872873
-6.3276809551048325 -2.845854538765335 29.254451276943076
-6.187314468068862 -2.760290862331257 30.240846789195775
-6.024307456737519 -2.5697398605822044 31.20889587368956
-5.854839676508882 -2.3109554683922884 32.15984871680182
-5.686617123524627 -2.024541514104638 33.103070970280164
-5.5231083338801135 -1.7355899332524158 34.046348161582905
-5.370569984221766 -1.454465988207295 34.99381920568176
-5.246391678973814 -1.215693244584174 35.956922172870854
-5.1669596626361365 -1.0831029178324296 36.944905148449074
-5.115418600928627 -1.0957269956457714 37.943496231734635
-5.06070629057304 -1.2315624796050613 38.932715764696404
-4.992014569187269 -1.4824839705470945 39.898282879296154
-4.892331983059094 -1.8524553282751288 40.821962789483486
-4.7379656922241065 -2.2958085875624867 41.70491745181509
-4.512637290812571 -2.784474353331551 42.547789257538035
-4.190521358257466 -3.2928133125444328 43.34643362679166
-3.7789844317736963 -3.774649658721063 44.12004276171927
[...]
CELL_DATA 87
SCALARS quad_param_group int 1
LOOKUP_TABLE default
3
1
3
1
2
0
3
3
3
2
0
0
0
0
0
2
0
3
1
3
0
0
2
0
2
0
0
1
3
1
0
3
1
3
1
2
1
2
1
0
1
3
3
1
3
2
2
3
3
3
2
0
1
3
3
1
0
2
3
3
2
2
0
0
3
1
1
1
3
2
3
3
0
0
1
3
2
3
2
0
0
0
0
0
2
3
1
SCALARS single_component_feature float 1
LOOKUP_TABLE default
1.297719681787405
-0.40974168818158785
1.0747598401141623
-0.42498589553218624
0.5903855270154656
-0.8564359202743448
1.93733725120963
2.7178521933353514
0.008225247275122638
-1.7007362223390834
-0.2678327748435324
0.45811477162083425
-1.8454983447398239
3.6400366415712915
-0.46435072371532127
0.5643859694179052
0.9343723012615359
1.0613167257068679
0.23855985393608714
0.32160078039450746
-0.31521703188959305
0.6071630495186227
2.3879620772681567
-0.12967631790699752
1.0581740780350775
1.7682902687144084
2.1439022803829286
-3.0466357710449823
0.5103610788130077
0.522435663268704
-1.8769000596369405
1.71249948152182
-1.364502004585866
0.3244434249426831
0.7748084178343065
1.0613205982342515
1.2736134230523652
-2.056040394574817
-1.940871112040853
0.6501569886932111
-1.0125265015605616
-1.799160979688119
-0.1244371445093293
-0.20713177427010843
0.9795442925388115
-1.4032607919955615
-0.6991916505481963
-1.142070685273842
-0.0810380507263796
-0.2334376399980509
-1.381876966101634
-2.0033420868510263
0.05637760459842672
-1.9734932089472579
-0.8853677999917305
2.8962322931633353
-1.3241343220379298
-1.0897250966794387
1.0570383897201554
0.22993281423024947
1.324720386191915
0.46461798988877445
-0.1333265752545557
-0.06895840160323374
-0.18903191587107238
0.5466186932110387
1.2046336361946668
-1.5698789078259523
-0.854859038599228
-1.1414540994718039
2.0560246926538426
1.9244616154246272
-2.407995941507691
-1.0963708248946331
-1.1898214358356944
-0.8501458042609726
0.6909974585367118
0.1881281810488511
0.4626052972111392
-0.9241066522134271
-1.8126910742423397
-1.1384611668935976
-2.590848295798987
0.511669925078917
-0.311697564047851
1.61843886751258
2.487426906676384
POINT_DATA 5568
SCALARS single_curvature float 1
LOOKUP_TABLE default
0.009990120006728272
0.01902422438456478
0.03112001610764022
0.04305539718198344
0.0542783554344643
0.06548940682470758
0.07538090602649011
0.07998304660207706
0.07752635711247453
0.06753180468640234
0.05122241121615463
0.03358605658681963
0.019687072458402746
0.01296320370651934
0.014481795560756825
0.0245073638457719
0.03962422395478559
0.05513002704764478
0.06766743572753257
0.07513995237804164
0.0772301865036433
0.07417113102185205
0.06744022669159148
0.05791486458574086
0.04671035693148861
0.03806260162952459
0.036622998543631435
0.04884352692003811
0.07176131498515453
0.09557640593176867
0.10253354526233721
0.0864071380156318
0.05709726309006797
0.031657477818325834
0.0318748169176704
0.06339229133935945
0.10660998688069073
0.13562539907579113
0.14741131232076776
0.14167907105332178
0.12242809421741664
0.11128264630963082
0.10970717743364362
0.10557521314970925
0.109414099340698
0.11571736877394125
0.11943059969428046
0.12760860925850442
0.13432135490411753
0.1307694508953608
0.1199771214998558
0.1069337217918214
0.0970228407064142
0.09781495296063583
0.10264337785798387
0.10571871196964205
0.10175115733658802
0.0907531391872312
0.07629548341653783
0.06338061909964889
0.04186120378847457
0.020341788477300254
-0.0011776268338740542
-0.022697042145048377
0.011953187158919906
0.024828704598050977
0.04088951849918654
0.05923386197172941
0.07613208638513219
0.08735674410978209
0.09163379033505464
0.08793809357503225
0.07581429071096236
0.058275626153533114
0.03933557203090627
0.022844473107954334
0.014590016168301344
0.016327341507354615
0.02664884056976887
0.04193311587549656
0.057014451006204836
0.06922482501268018
0.0764624774097
0.0779670459029569
0.07506738338357428
0.06880044271101228
0.061701385454514195
0.05428163621189464
0.04555677348655337
0.03601790619838162
0.027033867875752005
0.021247160348188927
0.02102759298604439
0.03033312976136678
0.04455618407691721
0.0585644890902155
0.06790510848678968
0.06250927576639179
0.045771749265129565
0.028816341045404585
0.022112492957125904
0.033854818918583274
0.0695069892835355
0.11306456193335175
0.13585844239323103
0.14433695863483528
0.13460427147228776
0.10418615501123853
0.08530574493283577
0.07831890515184688
0.08570441452360147
0.11068501497092954
0.13426915947850415
0.14240601546568893
0.1307606206352608
0.10576760593390011
0.08194601499983083
0.07101797553896406
0.07102174652102536
0.07960329683989774
0.086846698620597
0.0856714073557097
0.07734854650141705
0.06755062373443127
0.04633126506367253
0.025111906392913788
0.003892547722155054
-0.017326810948603694
0.00964751820466547
0.01902196509160999
0.03174677111492137
0.04460527139406625
0.056530645070568264
0.06773959979561364
0.07693815953912482
0.08058842192670168
0.0770746897321468
0.06622655383962975
0.04957834708629614
0.032014002503238506
0.0187274445509234
0.013026895124757422
0.015665853696349943
0.02638824922206705
0.04154731108712003
0.05673082600119146
0.06872147136734716
0.07552222025356202
0.07701859088736598
0.07348461455795449
0.0665646005017616
0.05724104077972916
0.04638997963439959
0.03764152714315419
0.03510589871665484
0.04423865556574348
0.06256910920307679
0.08273486790238979
0.08984324513699765
0.07769180691552066
0.053313825081079416
0.029685484496593296
0.025363632079029662
0.04757349140860265
0.08303955096774274
0.11009755770163239
0.1260759391692719
0.12902773385984243
0.11725961538820842
0.10980115692355379
0.107317187506402
0.09909975420703983
0.0997953838224099
0.10510795180474015
0.11071855486383918
0.12217648730238799
0.13140773223344054
0.12942957848987455
0.11870900182501867
0.10437270334161332
0.09284993218325474
0.0921031242057303
0.0962928686271135
0.10028640880017452
0.09797915432454506
0.08842090167849509
0.07479652468836669
0.062078636488434605
0.04100631416368601
0.019933991838937418
-0.001138330485811176
-0.02221065281055977
0.012016562840445714
0.024939476336887367
0.04102850503278425
0.0594238448741974
0.07637552169218559
0.08760071743905763
0.09182526239278403
0.08804576688361919
0.07582008925532488
0.05820436180839959
0.0392406541314793
0.02276555886647282
0.014570122457068698
0.016387721548989955
0.02678854533217323
0.04211820057807704
0.057195851312934774
0.06936930451237032
0.07654954296564241
0.07799389371781039
0.07504594083750293
0.0687544803227037
0.061662596478369136
0.054266596638615425
0.04556122544640716
0.036014114273158225
0.026973168768832642
0.021083966488587822
0.020773268624116978
0.03007146377550117
0.044410726645446034
0.05868175797600287
0.06839008747718216
0.06326335518278757
0.046581266684452866
0.02943262320401349
0.022368088503475634
0.03391832764918254
0.06969924200741
0.11353766308661498
0.13657882235909022
0.1451628127107216
0.13532553617814064
0.10467739600572351
0.08556989270066678
0.07838280950324919
0.08568167867786691
0.11074432534621895
0.1344752719073428
0.14273242127305094
0.13108058491566632
0.10595607412637455
0.08197771941722722
0.07092836699850184
0.07088053284583075
0.07949879525997915
0.08683592930599592
0.08574479463843429
0.07748050795774343
0.06772886843036824
0.04648254786923288
0.02523622730809752
0.00398990674696216
-0.0172564138141732
0.009525152657771848
0.01980119448311518
0.03376656147213895
0.04854084073525409
0.06203705451205318
0.0732457989964034
0.08088971478320761
0.08232881469140688
0.07629933614061088
0.06345295709465536
0.04606083832197733
0.02873625515245058
0.01692104889619397
0.013545207473899557
0.018664791279602272
0.030899324533830545
0.04609989700216624
0.06046351438126812
0.0711037175744477
0.07631751747671502
0.07645294068100723
0.07194353417163324
0.06476129576595561
0.05595907905713236
0.04585100858469603
0.036862588753035004
0.03204836727409171
0.03523733319061031
0.04530568392111803
0.059515615484479596
0.06788419189299717
0.06436323663823283
0.05076636919934254
0.03187543115637581
0.0202171292944447
0.025185172957661865
0.04498719463012367
0.06740084296392768
0.09113558925137445
0.11053847429395612
0.11275800871385139
0.11190189472768515
0.10740745348323881
0.0915058496170971
0.08599805049335461
0.08864004960779133
0.09687215812697392
0.11395909850683156
0.1279910237319415
0.12913789078456042
0.11828374926538293
0.10100483059543952
0.08600418335154261
0.08211652078784851
0.08502443678628602
0.09077846410660789
0.09179614918446194
0.08513848348034789
0.07326039887916005
0.06120481331570289
0.04067204893773911
0.02013928455977533
-0.0003934798181884497
-0.02092624419615223
0.014099683265716161
0.028458981275911944
0.045321572439774534
0.0651322016850968
0.08362042580247578
0.09486873022440379
0.09759767590988447
0.09138168403444602
0.07616460564259972
0.05630051734627419
0.036664967411007325
0.020680161710751054
0.014206777973356836
0.018317302256031055
0.03095817404122743
0.04755738761841196
0.06251216145590582
0.07359852639994256
0.07909379480335604
0.07879405237838748
0.07445385362627009
0.06748887876844221
0.060664462588652
0.05396895726508358
0.045798204501535066
0.03602881427855401
0.02547097455406087
0.017105912628750487
0.014990506150472465
0.02483686164471699
0.04272847372235222
0.06435167263960791
0.08482377556269316
0.0884706615511171
0.07521374637517451
0.05462272958230095
0.037720262271059415
0.04321008720754218
0.08201385707756012
0.13252468079328295
0.16181308278168174
0.17289457346351514
0.15963496728196103
0.12235634387378025
0.09654127129269682
0.08300432905569355
0.08675596597271433
0.11332188884027847
0.14092161981692236
0.15258312293099607
0.14087869249992938
0.11206964467423533
0.08354733716284812
0.06893345150173741
0.06731879839983797
0.07689002828660205
0.08688986860866728
0.08825509795208694
0.0818050323602612
0.07362673666500336
0.05150160259639864
0.029376468527793922
0.007251334459189213
-0.014873799609415511
0.011907324975940521
0.020217725486491964
0.030339391704548104
0.039519519445716314
0.048834829108110205
0.060083724793284984
0.07188524860184144
0.07898282952733959
0.07918969834893773
0.07137904745686427
0.05599508378292521
0.038264883728322985
0.02283939574750925
0.013371703887055513
0.011793096389835174
0.01985344748527123
0.03478968424172186
0.05103900951554821
0.06487796843264018
0.07404240543188059
0.07768903080423384
0.07605633565008059
0.07008796759150404
0.060120055707483834
0.04787572730663733
0.039478731880834075
0.041329802184811484
0.06365391784998535
0.10263394614916617
0.14023320790251786
0.14833620048221416
0.12094528832423154
0.07768497983493294
0.04878646132293358
0.0659999486898503
0.12728340124068827
0.19186463218377436
0.2237978711684605
0.22092661143480222
0.18729104781365538
0.14401684199919815
0.1199034349636961
0.12044297513169816
0.13061438480421797
0.14558603041708015
0.15522782637689292
0.15198584210226498
0.1480434670578484
0.14582987245328763
0.1369137363099
0.12554294720909773
0.11662243998143826
0.11210706813570105
0.1181811992371346
0.12535859661801357
0.12549427706616137
0.11623312207300389
0.10066387757661695
0.08370919988603609
0.07075596457824838
0.0471765719794095
0.023597179380570613
1.7786781731726764e-05
-0.02356160581710716
0.015883972852409833
0.02377742006734124
0.0312365836265836
0.036942941065045545
0.04422487412493329
0.05565718438389277
0.06966561789888527
0.0793594528682608
0.0820727378815372
0.07633685508373542
0.061908079324272246
0.044225297401553655
0.02737933242902712
0.014982481748216443
0.00993113721964933
0.01573629501838195
0.030390055858770873
0.04723388526736131
0.062142588210218966
0.07285636927816909
0.07804223922999048
0.07820916163554872
0.0735517687479849
0.06331395180915635
0.049788586533924165
0.04163533366173424
0.04778435935766527
0.08499484155098308
0.14930109754182855
0.20867963329156108
0.22011803696628665
0.17954380652974944
0.12037361219421308
0.09176889810436002
0.13618243076165254
0.2312928438232332
0.30804679626119197
0.33006561520462957
0.30202414985237963
0.23377825464992028
0.16474207809162356
0.12500430939455257
0.12438206544764634
0.1517624274948886
0.1826077333039634
0.19955958083629913
0.19133781490911664
0.17262203736574772
0.15764897273916703
0.14092605581993334
0.1288594697925713
0.12734483428183296
0.13287956123995442
0.14859422668704206
0.16092488099228183
0.1577483266016849
0.1413958215789754
0.11959185966844235
0.09971040461248101
0.0886810151002557
0.060916619626768954
0.033152224153282214
0.005387828679795481
-0.022376566793691266
0.010512122931766475
0.022178736999076736
0.037429305842285036
0.054339693964712665
0.0697916522124374
0.08100611432190495
0.08671080147640742
0.08524972218843205
0.0758157416134467
0.06032635447645065
0.042033991564588896
0.02514151452630081
0.015321386179703102
0.014881521609238167
0.023025734926955307
0.037051891932920425
0.05221389444314891
0.06539189342998068
0.07414242274443851
0.0772578844145643
0.07565900052809955
0.07008826991519147
0.06285835958403582
0.05481670845393083
0.04553955058180766
0.036232064509445765
0.02889075579915341
0.02631512623930958
0.029343325878854208
0.03960170292503172
0.050925520050653275
0.05767187142426378
0.0572019423646675
0.045303460278098014
0.02903189584762901
0.019047650921347168
0.022647976001743172
0.03922220369255501
0.07040498573513483
0.1052812917409397
0.12059389018501616
0.1257566681906075
0.11853046941818463
0.09425593117283905
0.08129003540581886
0.07913446118593201
0.08795560075164628
0.11014988443882526
0.12966669153098417
0.13465407156688922
0.12329990694812488
0.10180834210144539
0.08204684282007906
0.07426799412561794
0.07558632000810499
0.08309170390515111
0.08777215354323442
0.08432602050827182
0.07448121775272055
0.06357963473143474
0.04292836592784405
0.022277097124253353
0.001625828320662659
-0.019025440482928035
0.01953197628632472
0.037215313212108816
0.05558641167540284
0.07811476266012228
0.09978516685275252
0.11115405418376656
0.11091924213481048
0.0995831901197708
0.07791582183214589
0.05326919042390375
0.03228680017359227
0.017448342723315132
0.014602887668711767
0.02329289012206653
0.04028137111224723
0.0592922958035266
0.07393223012180122
0.08269974692700054
0.08460019872266517
0.08067802642589966
0.07345570137961369
0.06524450058792747
0.05925817579371092
0.05407252021431271
0.04687130569982902
0.03676439459720273
0.023795747841017432
0.012943695958092053
0.011490824758940038
0.026323955604452623
0.05224583609864724
0.08737147465333066
0.13053660568764924
0.1580114920110499
0.16351270448046923
0.14759820630513518
0.11337453701787167
0.10238151540531454
0.13935441310436458
0.19375599972462737
0.23089762602159122
0.24508470464904109
0.2251868440007701
0.1770156373156114
0.13796007904597601
0.10886396772419744
0.0997435390669056
0.1236263116938354
0.15562376453899432
0.17245562378641746
0.16064392810015934
0.1252878982989017
0.08824262221325299
0.06652639114751652
0.0613704681489764
0.07217262787471876
0.08726216021365957
0.09389019445049977
0.0921898951454202
0.08934202708194303
0.06527746191575073
0.04121289674955844
0.01714833158336615
-0.006916233582826142
0.011398875258301347
0.02384429776757528
0.039638423482317116
0.057503964284952074
0.07390706058344657
0.08512736667260992
0.08989180526749992
0.08696853079491235
0.07578043537467988
0.05895135122319038
0.04023134576838757
0.023595790671152677
0.014798215478294787
0.015791016216123898
0.025373668784910458
0.04023376876382791
0.05534700012470279
0.0678957689649976
0.0756605421773331
0.0777208655269049
0.07526786720426189
0.06923195185716842
0.06207401978242098
0.054436679465823146
0.045528232953055026
0.03606697520826217
0.027623086274957832
0.022839830771268027
0.023559917268179822
0.03302455648301742
0.04619960919345518
0.057754443673156394
0.06370873381286817
0.055924430714819215
0.03884915127266018
0.023905830911009826
0.020606446746628055
0.03407709551126594
0.06848693605687653
0.10930340834914855
0.1297099654728774
0.13715287252763408
0.12834504319019416
0.10004814004342316
0.0832439195204861
0.07803971494725272
0.08611130685131987
0.11025319227232896
0.13245832678207017
0.13949023336681451
0.1279213761377796
0.10414549271163515
0.08175826387379577
0.07193871716016091
0.07241004165901874
0.08064097386878369
0.08701321751127934
0.08506063334406411
0.07620528105332998
0.06599944173827844
0.045012289455546375
0.024025137172814306
0.0030379848900822376
-0.01794916739264983
0.00964102799083582
0.020203104332918016
0.0344791757959277
0.04975438304029226
0.06368881572144151
0.074898239005825
0.08210753584075926
0.0829102714668077
0.07614314042583134
0.06271870150549981
0.04512244478245399
0.027882646847240452
0.016500282600334214
0.013779661104913483
0.019583921077807508
0.032228753527667506
0.04742865797676285
0.0615409810240024
0.07177591077530059
0.07652955516082134
0.07627944085161484
0.0715185175533653
0.06430053196912026
0.05565923804021378
0.04574638955878062
0.03668756764665835
0.03127721878520826
0.03302423286066311
0.04122496390835617
0.054247494958340706
0.06316157946042386
0.06198651478198545
0.051345102306974116
0.033895764822189894
0.02081840748022461
0.02184072971108101
0.037725571626917795
0.05885641993182529
0.08441944767838394
0.10772985194618538
0.11324672850911774
0.1139157762793799
0.10884649272119414
0.09101134891885027
0.08385221572364596
0.08557944952166957
0.09418875245903084
0.1125606609341158
0.12783222857601678
0.12981604075123826
0.11886495973389911
0.10070337252592346
0.08469842703654033
0.07995724394727373
0.08251819056286695
0.08870150510707579
0.09057424929204233
0.08466468548417343
0.07325028666825464
0.06142281096113333
0.04093446809973545
0.020446125238337574
-4.221762306030191e-05
-0.020530560484458178
0.020603314328683082
0.03892207030661324
0.057571559253712316
0.08057579297658736
0.10282260944058992
0.11422668296393657
0.11347994949221665
0.10121935094839203
0.07836689194849474
0.052847695213017486
0.03162714461465408
0.017007120084949395
0.014814194678995609
0.02429900068786336
0.04202808750683909
0.06144514780037965
0.07602588213831296
0.08437658217307416
0.08562607794190095
0.08105584130249434
0.07331557425928804
0.06489433309660483
0.05908740209785374
0.05417676745234539
0.04713420910529345
0.0369864238865535
0.023681527209401688
0.012714321300983825
0.011916369989760648
0.02807651368126883
0.055452060867718346
0.09268161544192285
0.13974801756223026
0.17182788526519266
0.18165717894877306
0.16741431812320143
0.13039546542949643
0.11579967016279442
0.15083473626811222
0.20467261129104436
0.2426376609359631
0.2575639492444871
0.23753554822469272
0.18855956420598372
0.14761451846070733
0.11562008850059487
0.10359129865446004
0.126211117392471
0.15842044863075633
0.17581322856135012
0.16390075095242587
0.12752292575540247
0.08913729382356583
0.06623707598541947
0.06041488995280711
0.07131613744915447
0.08722491012572889
0.094792502718086
0.09405925207609545
0.09245703023404071
0.06807307449306577
0.04368911875209082
0.019305163011115872
-0.005078792729859075
0.022334724205517863
0.03029267942707879
0.034449598673270354
0.036079214316396185
0.0414968808217918
0.05349548530211036
0.07005193430162436
0.0822846820549232
0.08695799100992399
0.08277313245679802
0.06908923900162588
0.05155665023123077
0.03356902917231673
0.01829373330336899
0.009635026245960274
0.013078008901249927
0.027423215064008046
0.0446622793418951
0.060200317310183916
0.07201707972583406
0.0784490746466247
0.08070430810521921
0.07799265674795078
0.06777022652997929
0.05277082336308601
0.04489090585295911
0.05660926860251748
0.11509758168956472
0.21413368027668012
0.29514725719452034
0.30695621858603167
0.25096894192559105
0.17294672814682238
0.15261955480883482
0.2345021628323666
0.3518990003878044
0.4195958008474606
0.41554006121421144
0.3518407705592871
0.2535296020619857
0.17110927434413964
0.12263790031016215
0.1158751149035577
0.1512519572503606
0.19425557807706745
0.2190772138230988
0.2118761744760463
0.1842223444934742
0.15657434534492803
0.13056452926761924
0.11752319205808624
0.12704768146772416
0.14944938995145662
0.1818522149709703
0.20533385039034088
0.2016970391799158
0.1787595880822762
0.15014425946507126
0.12829920451050322
0.12593055616291776
0.09121090053745186