# vtk DataFile Version 3.0
vtk output
ASCII
DATASET POLYDATA
POINTS 5568 float
0.0 0.0 0.0
-0.021731018449956 0.00017002807307356024 0.9997638390778003
-0.042125240118095486 -0.004980111023000189 1.9995425904972544
-0.06640555046487726 -0.012368472313262237 2.99922047794246
-0.1027156650347877 -0.017483487662905667 3.9985479578998024
-0.16104722083617873 -0.01412043168549923 4.9968395583113665
-0.2502387446621867 0.0033984317811530645 5.992699970969904
-0.38332887157839723 0.04060062232795215 6.983105451132421
-0.5703238840408492 0.09608604196939359 7.963898106856036
-0.8131159471881053 0.16354866928092834 8.931627825315132
-1.1068832138352398 0.23927773536424177 9.88450027302092
-1.4435037135685962 0.32253152821248166 10.822453067747631
-1.8169105709099198 0.4134097677371764 11.745658605248012
-2.2178410850077346 0.5092242968927285 12.656742739051232
-2.6301542776550386 0.6044629113159099 13.562793199837904
-3.04383644737992 0.6968898335913082 14.46851077529419
-3.45270816185647 0.7829540712965535 15.377035330872753
-3.846197327769028 0.8583922080121739 16.293264212669392
-4.212906786848965 0.9193880044721608 17.221598034866727
-4.541274212353392 0.9591407966165234 18.165311206007367
-4.82308173191818 0.9715264273930246 19.124702220175735
-5.052855570528691 0.9540884969839954 20.097790038244195
-5.230444012390731 0.9075278742512092 21.080792812262533
-5.360595893832254 0.8382161381155081 22.06986124821178
-5.4495736862410125 0.7550785074372756 23.062419098829704
-5.502528481603202 0.6668554979858237 24.057111257364934
-5.519079641786232 0.5818351082764519 25.05335299129815
-5.499055077407408 0.5091313164975434 26.050505525007217
-5.447953785788232 0.4576026721232333 27.04786877718959
-5.3761514991912795 0.43170192578608274 28.044951312879903
-5.292124539228755 0.43516337783638054 29.041408782293004
-5.2003565896219355 0.4769843465720891 30.036310611620383
-5.112233670206152 0.562565183989652 31.02873706800924
-5.03556484674478 0.7060773282809143 32.01541135872019
-4.976929462476948 0.9104727628358366 32.992542055221364
-4.946121916426912 1.1707071281522303 33.95759592429539
-4.937945823265514 1.4744934999778816 34.910301016017705
-4.933324048389813 1.7913498183678276 35.858763304510695
-4.9278552412095005 2.107012415771897 36.80761904525749
-4.918396059873088 2.409147666949577 37.7608371807775
-4.90034720036211 2.664511881435061 38.72751362955991
-4.867360574755671 2.8442343523548477 39.71067776437036
-4.8228135413875775 2.884359974224967 40.70887889454786
-4.75356863525562 2.7141928929635535 41.691858196176206
-4.643446049072261 2.3944054156908083 42.632926198709406
-4.488362044238458 1.9687397716724726 43.524418044408044
-4.258384042200222 1.473737929553057 44.36232215281001
-3.955288059041527 0.9712507396042469 45.172037812119136
-3.5677001330565865 0.49188219624027063 45.959426787952424
-3.078511568077617 0.0714380082195503 46.723574177304386
-2.4816149019671503 -0.22481010905357288 47.46919567846857
-1.8288701881550662 -0.3530020636859917 48.21584898580599
-1.1763928975319469 -0.33326186541167946 48.97340011265698
-0.5420495303932016 -0.2109772676820485 49.73671850607167
0.0803734855611412 -0.010002866167473328 50.493156791159194
0.7014151154631076 0.2504855440993538 51.23238144040012
1.3310421922093991 0.5711309351419726 51.94002278842258
1.9759387842923612 0.9602586898980224 52.59781301030057
2.6331053014926447 1.4219285570666316 53.19362598634202
3.2909415137888707 1.9587327208016423 53.72191833683416
3.939672090800315 2.5604144639560533 54.18788799078715
4.570817288294697 3.2148442181329044 54.60427415353491
5.174938333532121 3.9108090298803204 54.99243744843878
5.742661177726436 4.643087818071859 55.36854720442053
0.0 0.0 0.0
0.1770403134128665 -0.034439904681855246 0.9836008440379557
0.35334469360278775 -0.07046559471076605 1.9672770688110202
0.5145990474432419 -0.10634476081587893 2.9535375409009745
0.6421580141045967 -0.1363030951118813 3.944915979354472
0.7166416189860871 -0.15163110016718698 4.942020409624884
0.7206485460752194 -0.14643305087072406 5.941998871802352
0.6373905960919755 -0.11903717898361735 6.938150255864098
0.4564733819091853 -0.0705290917468622 7.920451598164397
0.17783425028106412 -0.0022847695755415683 8.878419732716328
-0.18997990910424525 0.08700977053439332 9.804021822851302
-0.6308083555603107 0.19856739052096464 10.694653721122448
-1.1195761989647233 0.3260375281779074 11.557704912686146
-1.633584842496507 0.4587645148985198 12.405159136447336
-2.1586494412828183 0.5890244455193225 13.246193926201027
-2.6864202260440364 0.712853368643483 14.086506009031233
-3.209719732118937 0.8232262698344153 14.931476688773708
-3.714864499909665 0.9120236111926489 15.789930994920145
-4.1834314485949315 0.9742961347901888 16.671161468408535
-4.598581775320399 1.0047952168874945 17.580402917205806
-4.948093929459821 0.9990881542444561 18.51731736556532
-5.22250918548723 0.9565234446498214 19.477986149671754
-5.418141538159976 0.881291548431812 20.45577352143474
-5.5359912292055515 0.7829486739310466 21.443923373104713
-5.580016327825561 0.6718128353348951 22.43675297382733
-5.558454079164165 0.559246928329274 23.430163254634138
-5.481000176094362 0.45496405088103575 24.42169034673519
-5.362240827182535 0.3648982502918041 25.41052014432943
-5.218456627636166 0.2879026178267444 26.39712937626582
-5.060444865628157 0.2225860992830879 27.382403975285026
-4.893034257216224 0.17464971960376763 28.36712514987933
-4.719097358160528 0.15594165581144842 29.35170422923052
-4.544590459622376 0.1785088933815664 30.336101538324286
-4.381670018951853 0.2626153971735869 31.319149363219697
-4.237541220930998 0.41253936104020567 32.29728518949311
-4.110869697336571 0.6180048039045168 33.26771719478706
-3.997415572685565 0.8589354883605381 34.23160544914398
-3.890900120764279 1.1128420260805036 35.19295134350514
-3.787140443185178 1.3652839183585144 36.15498409779773
-3.6836487638301882 1.5976928868628375 37.12208054782898
-3.569629435237834 1.7759431172326863 38.09943741616339
-3.434597857937994 1.8761315386507538 39.0852004471935
-3.27269764894071 1.8542879824021836 40.07176579291423
-3.080532987223371 1.6890653990778526 41.03912004071939
-2.8490247202128427 1.4291879985904445 41.97659945863836
-2.5695220527844693 1.0942103924413167 42.876415141030606
-2.231712465026038 0.7007142406899965 43.73142710642956
-1.8440304104081024 0.29626772161878334 44.559754117783406
-1.4031039604559166 -0.09817113825576515 45.36598104089713
-0.887930336854368 -0.456250476295194 46.14468209086078
-0.2859541332636988 -0.7253983083620039 46.896469357848126
0.37339470958972776 -0.8601921198765609 47.63612450168559
1.0442115993094212 -0.851462135834112 48.377696135343065
1.6994164553812496 -0.7272083331962215 49.1228589290398
2.3364710640426134 -0.5148981314552615 49.86386217047672
2.9655628066666417 -0.2395536779289558 50.59079339918723
3.5993583977641284 0.09182226641219973 51.28971623628543
4.244653302018698 0.48883555223361824 51.94238379134265
4.900610257676962 0.9554719891458492 52.5356551525842
5.5608185301970146 1.4890136533408211 53.064293336471955
6.216580204074162 2.079327728867392 53.534937490062596
6.86153400430167 2.7156240542241754 53.95821232029651
7.486497827092519 3.390055024081952 54.351357442483405
8.078916154738916 4.1005868997618595 54.73107441433407
0.0 0.0 0.0
0.2577946151588374 -0.04877195247491883 0.9649679958666458
0.5142673382919517 -0.09851130788697679 1.9302388069926621
0.7477450583748092 -0.14619909589401509 2.901430873012513
0.9336248128712109 -0.18567942873908794 3.8832098808278155
1.0479435502442371 -0.20726769511220078 4.876419412115369
1.0697263034103837 -0.2055670284137737 5.876180693320679
0.9815886208299397 -0.1814322131259899 6.8719965696755265
0.7741957541600025 -0.13576976403557642 7.849188024610275
0.4489371138122983 -0.06699648459427379 8.792308935689046
0.015911103690817857 0.029438414060032524 9.688516938822138
-0.5055386024944037 0.15642762025856013 10.53229649855822
-1.0816892233992212 0.304229758930331 11.336165262620515
-1.683203699539484 0.4576865579474344 12.120149539139586
-2.295637557665763 0.6077374485630685 12.896299975360565
-2.9113814076686193 0.7493203320075081 13.67142177114444
-3.5228849198531322 0.8730352877485014 14.452931889000894
-4.114555164380812 0.9685315013046517 15.253435977021057
-4.66438932241811 1.0307216558351429 16.08639142801162
-5.153135454304712 1.0558665711192132 16.958455044843124
-5.5669271073427975 1.0408985129015318 17.868703596124146
-5.895026573835546 0.9864396361518363 18.81177568818834
-6.131801226004066 0.8983770502087602 19.779341058097526
-6.2757587907946775 0.7877236043662563 20.762718927719746
-6.329066621673492 0.6652672734108277 21.75376015903958
-6.300974906150296 0.543396105831857 22.74590847155737
-6.20644962099568 0.4322504778682334 23.735207020960438
-6.067949893759305 0.33607241065239957 24.72088831069971
-5.906455590354216 0.2500626932774366 25.704006776849535
-5.732553598063245 0.17161955303080512 26.685640502240773
-5.550040285577211 0.10673642997064342 27.666700679348853
-5.361558254832582 0.06757037186801437 28.647996019182422
-5.170938545658335 0.06841695160751472 29.629659612159706
-4.992246342369115 0.1321977243136091 30.611495193872173
-4.833113286723349 0.2638831608444946 31.58993048371331
-4.68817180730664 0.450913201650493 32.56153314498005
-4.553845631822293 0.6700766758953794 33.52793050121436
-4.428327669462671 0.9022558596789623 34.49247084134673
-4.3084566623181875 1.1327779743994142 35.45812631628123
-4.191220939097262 1.3391743226508424 36.4295460672794
-4.062387927386626 1.4873173851978256 37.41008453573067
-3.909998711597773 1.5565139880033971 38.39597974165847
-3.7246171707339153 1.5105148129854205 39.37756914675849
-3.508164131608632 1.345544212123195 40.33982315828797
-3.254648699245046 1.104373878059766 41.27660851018094
-2.952633427201206 0.7981456914899087 42.1793881473031
-2.5980957970166765 0.436994735980589 43.0418689042582
-2.2008155654127592 0.06299563778578215 43.87989819499106
[...]
CELL_DATA 87
SCALARS quad_param_group int 1
LOOKUP_TABLE default
3
1
3
1
2
0
3
3
3
2
0
0
0
0
0
2
0
3
1
3
0
0
2
0
2
0
0
1
3
1
0
3
1
3
1
2
1
2
1
0
1
3
3
1
3
2
2
3
3
3
2
0
1
3
3
1
0
2
3
3
2
2
0
0
3
1
1
1
3
2
3
3
0
0
1
3
2
3
2
0
0
0
0
0
2
3
1
SCALARS single_component_feature float 1
LOOKUP_TABLE default
0.7718924942559338
-0.2140370014790336
-0.6330154384202051
-0.4668371538382778
-0.4341013756010812
-0.36075685579399974
0.6825794586131975
-0.756311262355693
-0.4851861846211283
-0.8147775078844389
1.6836194291914661
1.5020103255468613
1.9080269420603948
-0.45524851230738583
0.9460805627621196
-0.15666843883986836
0.5443546779112511
-1.6355463538992125
1.0281754419221492
-1.0817934777882177
-1.3942467145710529
-2.002518335432159
-1.929051703849915
1.6799614338048252
-0.5692693324755267
1.8000838966608579
2.135828001528267
1.711451479813772
-0.9879410447627015
-0.049736098524136185
0.1007358953544889
-0.3639532424156705
0.6608991954210744
0.2168439995703424
-0.734387742244309
1.6866044376848823
0.5898442399499605
-1.7514824185137552
-0.5882833492657591
1.7002262324895945
0.5289681638464794
0.6808441097115132
-0.09926686560176234
0.7510198982696323
1.417606288140716
0.07543105215244572
1.2459086883981152
-1.0960904882108893
-0.001870277199003345
0.1283539798652802
-1.362579899343138
-0.21675731216318184
0.7750188073987074
-1.3349718799963533
-0.8729676933086129
-1.2036838521810769
3.618073072803459
0.8017189994867902
0.7336906356006425
0.7547291123338074
0.4771243535343699
0.09077160365600512
-0.5858322366688272
-0.9333862405915258
-0.7237891962050889
1.1955290230959992
-0.6117203710262237
0.4498447558718035
-1.2744463298884083
-1.4385792512103106
-0.5755672370503031
0.19730071697161067
-3.0537172880772636
-2.184733439505691
-0.42718027654271673
0.07710320490254441
0.3265162499378458
0.3031123764398015
0.6247267376738126
0.5527278793597038
-0.24768967509839324
0.5737465992390822
1.0226742294615765
-0.4855152859008012
-0.5199552646393798
-0.99931172573495
-0.6369970516657524
POINT_DATA 5568
SCALARS single_curvature float 1
LOOKUP_TABLE default
0.005554628010676247
0.011458719984009196
0.01859414213101617
0.02956712905664165
0.04091678091555009
0.04962404579807974
0.054531358488696675
0.05392816982560214
0.049601734228452474
0.04260529100659048
0.03230550683572059
0.021603701323225047
0.0136324928129226
0.011069542040196933
0.01613908187241762
0.026957891718066423
0.03888448517592287
0.049181767714339956
0.0561148805092693
0.05773449750570314
0.05458157873588889
0.04833495515508216
0.04235236585018869
0.03877255699793372
0.037283742555461026
0.03641099053337864
0.03522164920923822
0.035361182046694035
0.036951941625274556
0.043532554532354585
0.05160681606970785
0.057678301863362105
0.059328655913367744
0.048083072222649126
0.03244321596199998
0.02026371636389241
0.019966676397779826
0.03610144244669856
0.07075219885426214
0.11937931080035923
0.14657331433680387
0.15786225820462071
0.15165302531451777
0.11915660426259622
0.10190997413990037
0.10054955986493565
0.11285405581338569
0.13690700272016096
0.15101293361693927
0.14725816171013684
0.12639506812802953
0.09814245797834449
0.07842780714856531
0.07391356114094497
0.07795665371556253
0.08762734007444939
0.09305405344656839
0.09019245469148385
0.08049276405596147
0.06853511850362608
0.04602780515309909
0.023520491802572097
0.0010131784520451131
-0.021494134898481884
0.01290117140511848
0.026728182069948644
0.044620333369195894
0.0632561801930245
0.0797100616457
0.09141256718393716
0.09727193483008637
0.09574987386989406
0.08503442649615285
0.06705031060703709
0.046108465210839056
0.02691626449870717
0.01627077819076955
0.016551232587835443
0.025937601094311296
0.04119970723654232
0.0573894106568038
0.07123854519303875
0.08026713275363723
0.08364454670432608
0.08244667293741212
0.077153350940133
0.06959555925004537
0.06014118537639311
0.04850049241108434
0.03674316214398079
0.027566386768869394
0.02411585640601992
0.027352213660080105
0.038377574023471236
0.05055769583674227
0.05772596097209352
0.057011259594726936
0.04512444083304172
0.028800228828739588
0.01929607256827844
0.02371744956991507
0.040269342705657456
0.07055317584190887
0.1019958139481195
0.11447817671026453
0.11828474540199986
0.11067554888792316
0.08844928140655615
0.07649817249662313
0.07411347662082476
0.08231877890821832
0.10427768009904477
0.1252800580282837
0.1325028874217093
0.12340854937607526
0.10338034246528148
0.08334891826292729
0.07455910081529395
0.07508744863886407
0.08203954317016494
0.08661281071800217
0.08309023549242874
0.07327455098946664
0.06267099329243819
0.04242493022607845
0.0221788671597187
0.0019328040933589558
-0.01831325897300079
0.018730227806548167
0.03736307552275168
0.06077324235026664
0.08272050084316977
0.10080217744087944
0.11316220721679945
0.11932519775382792
0.11809524841887176
0.10536144867850465
0.08259327051692426
0.05605722500596435
0.031620794547635125
0.018791028953211643
0.020453078157579078
0.03260865411131731
0.05063417494659251
0.06898056657044804
0.08399385560140946
0.0933444988974856
0.09714323394445375
0.09678295186522043
0.09221565414394119
0.08405363268328926
0.07159641191190479
0.05507129462371237
0.03842474356991759
0.025627328742088364
0.020584904446520228
0.024281183120021373
0.036623008076261815
0.050254505196113686
0.0580114329619069
0.056558977037974516
0.04454066163530343
0.028384234166535603
0.020245106552068827
0.026699238129048515
0.04334457078480217
0.07167341379394193
0.09631926337152183
0.10333064066123009
0.10466829171161046
0.0963159530142823
0.07811667684745063
0.06824001257059863
0.06559126231645036
0.07295199929201875
0.094553182929232
0.11822344075882084
0.12946735048949584
0.12443427999754628
0.10701649889038202
0.08637060265848774
0.0756481353446752
0.074660370305564
0.08049493423151116
0.08479433227847732
0.08105992982843697
0.07128178552310442
0.0612236532054642
0.041677930215870476
0.022132207226276755
0.0025864842366830343
-0.016959238752910687
0.01623463251947523
0.0328668360897798
0.054032982889418074
0.07467099963378618
0.0921552452270711
0.10430632372912929
0.11036381826877377
0.10897197878849042
0.0969732392467865
0.07608993867995117
0.051830871757498266
0.0295811096215564
0.01769852167868549
0.01880805522412146
0.029802761989548555
0.04667434219015099
0.06414624552246448
0.07872998761061524
0.08799722194338466
0.0916510949779896
0.09095567944689265
0.08607219338919127
0.07813965239077161
0.06690338309755532
0.05234898551784415
0.03765549058655362
0.02630821387804539
0.021898781502359226
0.025427715520897388
0.03728569091068852
0.05035977198187142
0.057877096568722794
0.05670078961179707
0.04472351892292208
0.028471786651095676
0.019775846633541535
0.025421974397029957
0.04203576244659805
0.07113526252974753
0.09842622126497161
0.10754471467735482
0.10980949422442778
0.10176663444424644
0.08200929161423196
0.07133473612854188
0.06879234877316022
0.07643986116522189
0.09814697433633295
0.12076777782174611
0.1304493206008525
0.12386033402904661
0.10546656685564672
0.08510311543288421
0.07515977635626042
0.07477671998598844
0.08105371687509325
0.08545664417175931
0.0818028327910574
0.07200407259420681
0.061728504474088605
0.0419211794862836
0.022113854498478594
0.0023065295106735884
-0.017500795477131417
0.015770982809339158
0.03202343900612044
0.052755770023055745
0.07313502975259314
0.09049376292198973
0.10259519159500659
0.1086289291403969
0.10721163113474319
0.09536795153725558
0.07485862022596505
0.051040025747406265
0.02920540838219748
0.017497040484278532
0.01849808270939633
0.02927333386666458
0.04592610089844593
0.06322835614179266
0.0777222853272582
0.08696626900753421
0.0905883709548778
0.08982764288443185
0.08488659596218862
0.07700120977615876
0.06600120668403828
0.05183019854315262
0.03751949873387288
0.026455763108443824
0.022170864012294178
0.02566455842075095
0.03742138641321179
0.050382954212213185
0.057853964557082284
0.05673452459436498
0.04476708377909599
0.028501012624854966
0.019697778915085812
0.02518500585906051
0.041791732543899854
0.07104398705446123
0.09886410874952352
0.10840754699184707
0.11086303453182132
0.10287867926556953
0.08280799021522846
0.0719720906403261
0.06945004247528651
0.07716116122753658
0.098894744640211
0.12130783140752176
0.1306769741044457
0.1237733235075084
0.10517817681975195
0.08486421004793383
0.0750722686893458
0.07480776113059417
0.08117198952247665
0.08559607278319896
0.08195863551542408
0.07215669216107641
0.06183854840451247
0.04197724506958555
0.022115941734658626
0.0022546383997317024
-0.01760666493519522
0.014766356741038851
0.030185582502399017
0.049956317560866194
0.06975512878195007
0.08682385589054648
0.09880462962871704
0.10478266175156128
0.10331719174455421
0.09183310667967293
0.07216376487732289
0.04932091396925919
0.028396260251650048
0.01706312257227431
0.017822057467123165
0.028117413802478432
0.04429086709852174
0.06121670146064357
0.0755034989889556
0.08468712686810946
0.08823382294450927
0.08732719106787178
0.08226226469348244
0.07448425897979913
0.06400790533565212
0.0506895544184621
0.03723386447752561
0.026802772757920982
0.02279656801446718
0.02620849849247734
0.037731579930391085
0.050437643506100194
0.05780603737202867
0.05681708211667569
0.04487371698626836
0.0285808372202165
0.019540056798589858
0.024671593951744564
0.041261478584310125
0.07085682222831445
0.0998718822671795
0.11037902202917603
0.11327144804427211
0.10541549943486561
0.08463558857464012
0.07343366321322782
0.07095697866370436
0.0788196237063492
0.10061915522206202
0.12256513003716814
0.13122820113642011
0.1236092799198217
0.10455192213760259
0.08434169996123296
0.07488667391908913
0.07488716402067995
0.08144699855784739
0.08591943250361259
0.08231932334120039
0.07251131007546108
0.06209795541279884
0.04211270110964132
0.0221274468064838
0.0021421925033262776
-0.017843061799831243
0.005854372172754382
0.012270127701032653
0.020228413918311244
0.03186649741015086
0.043732608186165596
0.052787966454779206
0.05780154898221193
0.057047249920831336
0.052092152231527515
0.04415009743882949
0.033046387638947426
0.021788152625824234
0.013692492536351165
0.011355559210796956
0.016697510666054266
0.02780707927677694
0.04007024881392847
0.05072077010832371
0.057905983484913714
0.05972170036376316
0.05674051884340818
0.050537033281767244
0.044403185678549235
0.04036157453412532
0.038037596417227634
0.03622102607155053
0.0343429810467512
0.03417248491036394
0.03594823623737511
0.04301174448721252
0.051499647926103474
0.057648128437369744
0.05904402126353787
0.04772418070004055
0.03195752698507944
0.019985967032819487
0.020111178772143582
0.03629541687904723
0.0705834405539497
0.11762331761017276
0.14339773145578022
0.15391952195543396
0.14760268144251865
0.11605248072936175
0.09928673410614078
0.09778321984760709
0.10955760158458307
0.1333361915439283
0.1481132151236782
0.1454621016041499
0.1258150659495082
0.09843632146077987
0.07875128055627825
0.07385791765367791
0.07758237927176641
0.08699781851675689
0.09233225622402011
0.08939789135707091
0.0796750416323415
0.06785144424913482
0.04558954773577289
0.023327651222410956
0.00106575470904903
-0.02119614180431291
0.020730554681324877
0.0409240786615661
0.06604143027961609
0.08895356307032033
0.1074321059653397
0.11989579263198402
0.12611343207292264
0.12503028068016026
0.111806276187961
0.08766030063971289
0.05940009470590298
0.03326628611766236
0.01966937795833201
0.021739943648813095
0.034801891248290404
0.05372469619053504
0.07273061513432656
0.08803257320699624
0.09740896571994333
0.10130002796747982
0.10119509812075231
0.09689194102920591
0.08857430975151137
0.07519206305424007
0.057181939349062724
0.03907773320463849
0.025193303676509533
0.019681068592776504
0.023489543517285685
0.03615927918767747
0.05019058783684605
0.05812966177767054
0.05648515402806754
0.044446114011520994
0.028384777647183213
0.02067208429235803
0.02772714683728043
0.04439125043257986
0.07215470900212233
0.09488375434297863
0.100386569571661
0.10108046196423151
0.09248353338901744
0.07540263889677461
0.06609290811073702
0.0633591153418391
0.07054342956339865
0.09209710150556258
0.11654367956119782
0.1289247836264375
0.1250042053958943
0.1082612486301152
0.08737075942934876
0.0760576779665649
0.07461769248016518
0.08012401228080264
0.0843505599858263
0.08055886571622924
0.07080077746543006
0.060906080135486186
0.04154154432293043
0.022177008510374678
0.002812472697818924
-0.01655206311473683
0.01649859419235863
0.033345749656122574
0.0547562789680637
0.07553923286504265
0.09309274237795825
0.10527047963268224
0.11134093820826409
0.1099643801725446
0.09788020370698573
0.07678759836614005
0.052280373226993235
0.02979555933102519
0.017813510099754147
0.01898394285728233
0.030103042149159893
0.047098550973002105
0.06466596062453568
0.07929931617644698
0.08857859148787194
0.09224978140178089
0.09159104706307188
0.08674046620372781
0.07878173269043279
0.0674123759251258
0.05264234769427268
0.03773398712769939
0.02622746821441917
0.021748200813104048
0.02529655390038363
0.037210374269727765
0.050347119188134455
0.05789053724999359
0.05668271876118362
0.04470018725423934
0.028457131161595706
0.019821674526538623
0.025556908451292736
0.042174532138196545
0.07118852863294914
0.09818402735584011
0.10706573997349847
0.10922478696190038
0.10114879778224786
0.08156619909796295
0.07098150869901877
0.06842766662913684
0.07604058362342403
0.09773366242508554
0.1204707174073451
0.13032666031112233
0.1239128404263828
0.10563062960726113
0.08523857025003292
0.07521008296136053
0.07476049999984373
0.08098861766283465
0.08537979888915163
0.08171688418528686
0.07192003536868671
0.06166836038713403
0.04189093339154461
0.022113506395955183
0.0023360794003657592
-0.017441347595223665
0.021721827164183555
0.04267733254221938
0.06861583577993143
0.09198288641807019
0.11063450424870136
0.12313020819478308
0.1293639362231254
0.12835493196534647
0.11491407884645564
0.09012293267786432
0.0610382712710352
0.03408138817441235
0.02010315832291337
0.022365850472630816
0.035868826196019936
0.05522719346350722
0.07454765406148264
0.08997709372172463
0.09935553754104087
0.10328688618621154
0.10330611486260677
0.09913834831724838
0.09075278341267506
0.07692777289225411
0.05820802114905315
0.03941080671855731
0.02500782267806524
0.019272992604095682
0.023131265705054093
0.03594753538006565
0.05016469934554587
0.05819129941185605
0.05645932092191752
0.04441340023790896
0.02840448077387375
0.02089805654029489
0.02823848773810092
0.04491010623630629
0.07240768754583737
0.09424171677216872
0.09904570439569806
0.09944742135356172
0.09072957072065478
0.07416710845987785
0.06511809361518865
0.062341291556456346
0.06945196633747654
0.09099250270637425
0.11580752573583282
0.12872242144802906
0.12531781284851462
0.10888038613394092
0.08786304201963688
0.07626578725421519
0.07461016644002659
0.07996071292407021
0.08415383069566355
0.08033564707814829
0.07058847412298828
0.0607721289868916
0.04148982380836268
0.022207518629833757
0.0029252134513048367
-0.016357091727224084
0.005838405154739805
0.00864226249582609
0.009302741275241642
0.014122255956383003
0.02035572783314314
0.02490862700141217
0.02825373582989469
0.02922150519436723
0.031007501949144534
0.03266250155441151
0.0288451139401363
0.021935108546949262
0.014424174927141951
0.009894710530217251
0.013115034322796867
0.021874826536811314
0.030886894676665624
0.03753912495493313
0.04161798000201616
0.04113498016321329
0.03649399292872149
0.030371566860972848
0.026101760153230975
0.026540774141650007
0.032644564100544
0.04095652109643815
0.04639837733306213
0.04946763326757019
0.048727328515532665
0.049492073067938916
0.05292934881545723
0.058523350621289646
0.06321238539264888
0.0528272334526812
0.039025021592592524
0.0251946202129147
0.020732931419538886
0.03627760701907344
0.07425314015630151
0.13882179816384752
0.1811507560591961
0.2010125313602187
0.1953724933102986
0.1531397110348049
0.13088850958855625
0.1317041299180245
0.15169133777708818
0.1799032149488942
0.18690517836445128
0.17064609624499974
0.1355755427157838
0.09689331601366284
0.07630690122593638
0.07565666988612084
0.08298893175844652
0.0953969193266282
0.10196450687776176
0.10003453026614031
0.09070994445487884
0.07711957035304144
0.05162727446865453
0.026134978584267624
0.0006426826998807145
-0.024849613184506195
0.005384182755745814
0.008539717243987914
0.010212520500348899
0.016158438180259097
0.023307304014929288
0.02873297529425112
0.03246250873723276
0.03316035644357982
0.033829600679860954
0.033931837709605464
0.029063017452786413
0.02163234225125242
0.014110079618253966
0.009927422584039688
0.013414649384633583
0.02248129784252015
0.032002852013338044
0.03936315436009062
0.044015609314831734
0.04393695840048152
0.039537624387761254
0.03330787403570072
0.028673321494854517
0.02840805290876416
0.033130079399670026
0.03966839723760312
0.04384156902847308
0.046362283827234334
0.046152764491364386
0.04820305447356819
0.05261971717463452
0.058265255265013235
0.06229040991737058
0.05172392774037236
0.03747295389932011
0.02389671116825454
0.02023396206246262
0.035903712635838844
0.07327964883906168
0.13473317592899642
0.17396967638282534
0.19203835608414288
0.18639048527397561
0.14612891561122116
0.1249249900396021
0.12521596511221844
0.1433370527783369
0.1705002505363662
0.17891712330095658
0.16530736797167908
0.1333136362582559
0.09692068235554929
0.07658379686265601
0.07516092586216401
0.08183202093315228
0.09367725407832697
0.09998973061343462
0.0978469955549939
0.0884292867564662
0.07520931377882814
0.05037577016791927
0.025542226557010397
0.0007086829461015187
-0.024124860664807346
0.006564700565019238
0.009057295818891425
0.008642954474375233
0.012160681448864882
0.017411091349303312
0.020912482266941985
0.023738891359511217
0.0249641047835736
0.02800871850886391
0.031443912211857605
0.028774125835729164
0.022391002928167238
0.014877063322064782
0.0099456124547085
0.01287100357802014
0.021291310811181692
0.0297139592968123
0.03552491795601821
0.03892969285223622
0.03799158423115218
0.033108821191237495
0.027172986913437235
0.023364181008339452
0.0246084241571354
0.032334809508223795
0.04281331956532055
0.0497959145241024
0.053519202686648996
0.05207425151280817
0.05116268492748897
0.053354216475383645
0.05890986623964492
0.0644518241166377
0.05429449148686672
0.041103339684727125
0.027017439095067253
0.02160145728143694
0.03699107413589433
0.07566687421321885
0.1440356967796377
0.1902280600444675
0.21233807639247543
0.20660980326879722
0.16188796413233064
0.13825839413297178
0.1397621069656806
0.1622683527459499
0.19193777216017446
0.19723387300693204
0.17762676257162813
0.13861331409092167
0.09697329258577123
0.0760334309305651
0.07634159781219022
0.08449376534439962
0.09760415783758654
0.10450219514520127
0.10285059189200299
0.0936515493494727
0.07956967455873466
0.05323006920392687
0.026890463849119084
0.0005508584943112876
-0.025788746860496495
0.01606942944917658
0.03256665087563951
0.053578903660797504
0.07412534441405329
0.09156544057016809
0.10369924645676423
0.10974841937508105
0.1083472990960129
0.09640306580701462
0.0756520744431961
0.05154927288477172
0.029447095016124535
0.01762665551455331
0.018697757735349693
0.029614411781881386
0.04640819380896983
0.06381993039136037
0.07837206760785473
0.08763133063594782
0.09127408619968248
0.09055553217136388
0.08565150350214563
0.0777355951752293
0.06658313892632181
0.052164656935107696
0.037606753490515434
0.026359933731710476
0.021994595553525145
0.025511142048428446
0.03733353350050561
0.0503678899990006
0.057868783882438414
0.056712512676559065
0.04473865682554492
0.028481681383452858
0.019747669135508072
0.02533753488524171
0.04194885520561825
0.07110240127623763
0.09858038810919174
0.10784894651872756
0.11018093363836913
0.10215887182463086
0.0822908343040003
0.07155930997210416
0.06902413513995671
0.07669388632933703
0.09841016042258514
0.12095747942452144
0.13052861761588755
0.12382855602927355
0.10536384515483752
0.08501813845538486
0.0751284693046934
0.07478739991003265
0.08109527286068362
0.08550565999231131