# vtk DataFile Version 3.0
vtk output
ASCII
DATASET POLYDATA
POINTS 5568 float
0.0 0.0 0.0
0.10105986044108418 -0.02695483914964522 0.9945151287205466
0.20297304113356418 -0.05637203858668522 1.9888733800457032
0.29782168567891815 -0.0868576649686745 2.983898184365679
0.37056263071133283 -0.11461772244618113 3.9808626441758754
0.40512669375857213 -0.13172825099066152 4.980118645087852
0.38726773685526483 -0.13295132208925906 5.979958413128418
0.30050999510967397 -0.11596352780037114 6.9760430024542455
0.13238548849065251 -0.0828072890512801 7.961251007956699
-0.12066984862777817 -0.0362940629033532 8.927584033444905
-0.4507623765197574 0.0225519998380476 9.86969658719298
-0.8423274431283281 0.09433089472367893 10.787043080542588
-1.2776704592122554 0.17667475457009055 11.683533987965829
-1.7422450929629736 0.26360794371293783 12.564790494495478
-2.2228778893169014 0.3488860368340258 13.437556076941666
-2.7080980970462787 0.42989121094791366 14.308187750944995
-3.1929884445045507 0.5047636060647397 15.179551897207203
-3.670711489278471 0.5689637407886765 16.055713432081546
-4.129968833010727 0.6178023483891956 16.942673116980266
-4.5563160638357605 0.6458394169152246 17.846798087079144
-4.934623286183419 0.6487770557641368 18.772473524690835
-5.2506893622888855 0.6273938353058132 19.720969699389563
-5.4975855688300745 0.5877785764275331 20.689201538599356
-5.671494432480281 0.5389356716229057 21.672751271858502
-5.768804971224826 0.48728101802799173 22.66666397215528
-5.789339547931971 0.43739400708799087 23.66520772047026
-5.737160870239914 0.3927853077126159 24.662848662660558
-5.62483198013399 0.3574059863210998 25.6558897111905
-5.469647180188242 0.3326562546076326 26.643465089906428
-5.285807314779675 0.3176303091036098 27.626306442744347
-5.08504465948501 0.31456463098153575 28.605941557395045
-4.873731128440632 0.3326641759858682 29.5831922918886
-4.660207489414675 0.3823745895939315 30.55886463973701
-4.453723458265432 0.48104817936245214 31.532326435372852
-4.261511049961308 0.6341307042453546 32.50166648441107
-4.091817995840558 0.8356410582629917 33.466341478700265
-3.9512880529433247 1.0800321090007794 34.42578108048277
-3.8315437605727976 1.3465519519195936 35.3821431864736
-3.7224491776614625 1.6138566083829744 36.3395598108396
-3.6189623180315675 1.8685703483872622 37.30102295653837
-3.5119987485407793 2.086922812292371 38.27101316077157
-3.3901057818358686 2.2450629049996147 39.25087734306747
-3.2419426455462275 2.296853366938877 40.23848325288015
-3.050902142449247 2.208495545115724 41.21608052246468
-2.802261607504929 2.0191554171569055 42.16599009728069
-2.491304839857773 1.7428073722319908 43.07535121736479
-2.1054140466406364 1.4002433230826261 43.931936395815036
-1.6645804223751972 1.0430553762976686 44.75539403673444
-1.1698969891534625 0.6901426549241493 45.54958602359196
-0.6039457812222077 0.3692940189782034 46.30903015126218
0.03892143191129742 0.13312523767734638 47.03769060237561
0.7258421407354052 0.02040166721186471 47.75562746342267
1.4179124928894724 0.033686228893545535 48.4773352630828
2.0950357202145318 0.1474838762707298 49.20435261532985
2.7586310980923145 0.3351755964593854 49.928516265779024
3.4180924095027083 0.578830692170714 50.639672347864234
4.0834714378176145 0.8772108706012173 51.32395300504993
4.762889838189049 1.2362698603653182 51.96384930845096
5.4587823684017 1.6615379690720777 52.54253801761264
6.166519784825153 2.154937311317251 53.048171124189224
6.873792653412515 2.7138334698325974 53.48106854085626
7.568740150820913 3.32944518174889 53.852646521901015
8.239654819903873 3.9925929944707423 54.184472508363086
8.87393066303641 4.700738468672139 54.49467267307386
0.0 0.0 0.0
0.1170824697370928 -0.02694089792400547 0.9927567090175272
0.2343573540933937 -0.05607934634957962 1.985428634843259
0.3425143590580737 -0.08609511653513954 2.9791092252832847
0.42603280459739545 -0.11240500308240635 3.9752680776379505
0.4683134422305225 -0.12694956606970767 4.974267979223954
0.4545119712928273 -0.12413631748424715 5.974168776819571
0.3682700103377938 -0.1014446215372195 6.970184545322097
0.19798934070222673 -0.06050923692185255 7.954729510183964
-0.05852648817904205 -0.004069455851120448 8.919620271175095
-0.39342875803667865 0.06727938607929423 9.859167934893861
-0.7916365061261315 0.1540737470050168 10.772347724570036
-1.2340500425096512 0.2528542649299413 11.663702127769522
-1.7038102881789396 0.35645398905859976 12.540396150076733
-2.187143110396352 0.45819197066409817 13.409901047168285
-2.6738989767054298 0.5551894719825271 14.278037102951986
-3.158674361694606 0.6439106314629405 15.148164324666745
-3.632079186186846 0.7185717899195725 16.025839426037056
-4.080313731163616 0.7743294420513603 16.918014788237905
-4.488151740267267 0.805494179469488 17.830537071512143
-4.841985149740144 0.8073998847797196 18.765843591658385
-5.130188907927583 0.7798882166703144 19.723017401310777
-5.347965328950295 0.7277638753690049 20.697623210594944
-5.494402312066312 0.6597962209270178 21.68450547709158
-5.569691631476333 0.5839366386685393 22.678777493273444
-5.577145275722235 0.5077826111413106 23.675845699204633
-5.522335204392562 0.4379346273934263 24.671896458577464
-5.417219640663418 0.3798055542605858 25.664656111826236
-5.277686984326344 0.33447123991106625 26.653835285564735
-5.1165504280084555 0.30103945587915826 27.640201001734177
-4.942066883921413 0.2827643119822769 28.6246914851612
-4.75864072918044 0.2900281954012661 29.607698139133905
-4.574095908222437 0.33364184498950544 30.589554064729494
-4.398638756731918 0.43175702378801095 31.569139793331217
-4.239401194464511 0.5891341388470341 32.54375553423572
-4.10128237273297 0.798067565155712 33.511882599477886
-3.9853521596864407 1.0466799884314364 34.473522890177044
-3.882454323344307 1.3124205325339549 35.43206031693523
-3.7850142665924578 1.5776561432519955 36.39130768135549
-3.690247268103784 1.8281643832379342 37.354772697688
-3.589270081219206 2.035503320507992 38.327816464853996
-3.4713045860435927 2.1749374618402983 39.31099613418148
-3.3281759924115075 2.1989387179947144 40.300409164916324
-3.1482030242492867 2.0746090896233143 41.2761918631847
-2.918733105443178 1.8473137462807387 42.222595785016125
-2.6337419973186313 1.535649588838837 43.12904243058109
-2.2798373685875455 1.1601679813467736 43.985643315589904
-1.871038900022267 0.7723274371574516 44.81175682133934
-1.4058890334174325 0.3928073086182307 45.61150682829844
-0.8655692118175523 0.049548217453547275 46.379769600219
-0.24186640701484596 -0.2035901775801116 47.11930713425025
0.4317050370341642 -0.3248696652847804 47.84841123904175
1.1120077512414475 -0.31147374880189466 48.581220058901195
1.7766365345472037 -0.19177715842402596 49.318743825740896
2.4261553630558232 0.007545953586165843 50.05249827269939
3.070420661475356 0.2657889256594731 50.77238214710354
3.7204079641657 0.5798034772105459 51.46441637151409
4.383632839401142 0.9571696320036054 52.11073483023675
5.060770008084295 1.4027386783888123 52.696357131460964
5.7457765889873365 1.9167881068640713 53.21261207739735
6.427869547923902 2.4930913145996882 53.66274962095798
7.097622925793515 3.121712238787 54.058054751845674
7.744536908229392 3.7937281841657873 54.418466833337966
8.356410737041353 4.50649533342222 54.761356624022746
0.0 0.0 0.0
0.15310026408541835 -0.02697641296664084 0.9878423873677564
0.30496293284462195 -0.05613986763291051 1.9758136535234383
0.44203989855924175 -0.08544259216312501 2.96594054226325
0.5481158183438001 -0.10839192376968516 3.960033710643695
0.6053899762410814 -0.11672243232073877 4.958357442438366
0.597459373999407 -0.10391404792241263 5.95824396141799
0.5081546617262337 -0.0668994528744805 6.953560287074936
0.3279804220076503 -0.006321911845215775 7.93532787915805
0.05821754405755378 0.0750488197431365 8.894810444773944
-0.29325148301014636 0.17761008641264417 9.825375170943612
-0.7124843175756714 0.30199084081894106 10.724693389571188
-1.177080482550548 0.442043881585144 11.599070624672136
-1.6650176903311287 0.5875296064675322 12.459739658109923
-2.1616946811739695 0.7308944346063642 13.31575279633855
-2.6597196538185965 0.8675335991809519 14.172082677474714
-3.1493840317888258 0.9882037507787624 15.035603094986884
-3.613692019861956 1.08441724086345 15.916035407284204
-4.032823641828654 1.151804375711951 16.821456666988478
-4.391356199630695 1.18465527960563 17.754395691313913
-4.68101322619505 1.1777621248368968 18.711501375854148
-4.896309280850043 1.1286834888072015 19.686816143678083
-5.036087231841926 1.038956366560051 20.672925249177954
-5.1051455556853895 0.9176254856029932 21.663132179690013
-5.113120124977014 0.7775853979592657 22.653245900480382
-5.072696667438683 0.6332039864570347 23.641941987300427
-4.992724013865068 0.49630060250760544 24.629292906752873
-4.882548551337188 0.3747386469080552 25.61574313783784
-4.753569075841827 0.2695854620737264 26.60179947629936
-4.614431017586772 0.18172748332665603 27.588167346982246
-4.46924276740305 0.11996892467195236 28.57564203143825
-4.320105333466184 0.09625263164168665 29.564174055827763
-4.1730001940245565 0.12071192069030735 30.552992452263172
-4.040074915489496 0.2129433110696562 31.53981778683615
-3.9281979750376514 0.3759773278935914 32.52007462030042
-3.833393416435264 0.5998824942897026 33.49006357494338
-3.7453314296906735 0.8597202881022697 34.45169209334183
-3.6568688165380814 1.1296463452533796 35.41050088019408
-3.567043038713154 1.3970884243878816 36.369878836969384
-3.4717165258656433 1.6404501203549542 37.335118672908806
-3.361229173686132 1.8194570951744347 38.31274285835756
-3.227719881138685 1.908911923665689 39.29974493660414
-3.072763020917719 1.8615063996425385 40.28652813861082
-2.8968458932132974 1.6489165915631765 41.24770384454653
-2.690711246833617 1.3286420836038202 42.17232957808054
-2.4454174583225288 0.9317411514610675 43.056807168176576
-2.146965180785314 0.47853622667103646 43.89676641372299
-1.7960276648258588 0.017756598415535885 44.71195043839284
[...]
CELL_DATA 87
SCALARS quad_param_group int 1
LOOKUP_TABLE default
3
1
3
1
2
0
3
3
3
2
0
0
0
0
0
2
0
3
1
3
0
0
2
0
2
0
0
1
3
1
0
3
1
3
1
2
1
2
1
0
1
3
3
1
3
2
2
3
3
3
2
0
1
3
3
1
0
2
3
3
2
2
0
0
3
1
1
1
3
2
3
3
0
0
1
3
2
3
2
0
0
0
0
0
2
3
1
SCALARS single_component_feature float 1
LOOKUP_TABLE default
-0.5348346948313393
-0.2819100190130268
0.3078427473331763
-0.7791215094385593
0.507835648422832
-0.3543970500521648
0.3215776367815533
0.31149175099326165
-0.9442581192732671
0.5221023366748145
-0.020971630435598687
0.1601977256502175
0.6588767074961068
1.4211616001173504
0.5569928630750214
0.9043796209288032
0.35631086143229185
-0.42861198613827445
-0.7417199119994862
-1.648681563654572
0.9905256347954922
1.3130351258098054
-0.6633385797258495
1.1510239846157249
0.5647078567486998
-0.17030967841288558
-1.100626710187318
-1.5731697865242196
0.6356697657396064
-0.8387043780297496
0.2894326787553757
-0.5219366860672561
-1.6978347303787844
-0.515540277133735
-0.48159998682575955
-0.3910140389408844
-0.5063650050803343
-0.3031322764772405
-0.11082249233787672
0.8701301300926773
0.3291215301344287
-0.2148099726907653
-0.09916930570794374
-0.4990247926600402
-0.18951078472136162
2.0131734960242476
2.354472446760565
-0.9800965230326742
-1.0120176971411927
0.048281402221707514
-0.41944045162595156
-0.3932692907589253
-0.5434679765311061
-0.8933793318349168
-0.5346814123592661
-1.1435520245109103
0.32510516103637827
0.5450512451260621
0.2632463119070708
-0.3781253644360366
-1.971930993860293
-1.6308358430524117
-0.1982598764601783
-0.29706554501196325
-0.9034217996551843
-0.32298136259769605
0.834263922274775
0.45201400866965247
-1.535779950563339
2.408432428101907
-0.3635106858185544
0.15225513690364978
-0.14183982048198018
0.890805124172596
-0.5382058582988903
0.5119017474497773
1.0371437925318638
-0.15257217436181983
1.065207523189623
0.5331115775112457
0.8054813079348724
-0.13140775050575604
-0.367154478066944
2.895995997994823
0.8603376730935106
-0.20164329194690014
0.497358961149618
POINT_DATA 5568
SCALARS single_curvature float 1
LOOKUP_TABLE default
0.008035968027099273
0.01795740574849269
0.030986764376379913
0.046997643731390336
0.06226075412681123
0.07426545343487989
0.08094071418002725
0.0799887240829201
0.07154249239852953
0.05793487452973519
0.042128931243551326
0.02693157747041451
0.016079447007626212
0.011191544133482436
0.013214721952074862
0.022191134276573442
0.03520992407521976
0.049396272086358085
0.06131465499847679
0.06941823160840478
0.07414012820656588
0.07570864980003267
0.07538745601536283
0.07188313698018724
0.06371865134269253
0.052194013055842974
0.03924790913238227
0.029951151838608237
0.026764436910398794
0.031479526056532085
0.040320520080579764
0.04776208576178799
0.052844298659373505
0.04810919000098024
0.036717955398919616
0.026921178234023558
0.02327318518685534
0.0313355070552074
0.05601789930488348
0.08887661395537383
0.10912306444928081
0.12181952331193782
0.1226164560746727
0.10268881685993832
0.08834998185338196
0.08119900295751786
0.0825322603269488
0.09876155460083279
0.11470495663298667
0.11869435170895969
0.10804916694679138
0.08981893668148495
0.07375438339965955
0.0674852160482259
0.0715752700004602
0.08223363821840583
0.09129903067224353
0.09326545096712542
0.08703266199593666
0.07745528257601848
0.05311996483924837
0.02878464710247826
0.004449329365708146
-0.019885988371061966
0.009114630792475637
0.019854126287384536
0.033963889456057446
0.050421748537564336
0.06577928500956243
0.07740357314045321
0.08360257515523292
0.08238257286242164
0.07344815178824204
0.05893528601383383
0.041935213691965706
0.025892403588475846
0.01540193361391951
0.012451725845977988
0.01724600008567318
0.0286055410962238
0.04277129275057906
0.05661809290145372
0.06705424278864654
0.0726723906684247
0.07427416058818836
0.07246794340342308
0.0689860330343234
0.06343279903399078
0.05470552698931502
0.04397406454070416
0.033420408194788004
0.027265531695452
0.027138840303262853
0.03474543626069877
0.04506172412297215
0.05228727506112435
0.05466315934711983
0.04630062859019471
0.032301016254339586
0.022179078496306105
0.021862259912280583
0.03408746677373606
0.062163916521705456
0.0963053377688981
0.11438058595754527
0.12368961407595533
0.12075414344730685
0.09876600404008945
0.08512750255035845
0.08032492973630559
0.0852067163906876
0.10429374710722489
0.12202592914466394
0.12652668619387683
0.11549710569732806
0.09565249609274813
0.07778401570029218
0.07076736130079632
0.07354952605502994
0.08272937421501259
0.0897260328967464
0.08911929235338964
0.08115324884503079
0.07092058251047055
0.04831067082422967
0.02570075913798879
0.0030908474517479106
-0.01951906423449297
0.01233622146589483
0.025107309298234026
0.041590329136237496
0.0590460489905083
0.07468843701702056
0.08547432673528374
0.09058772066779036
0.08878796864977924
0.0786911981873831
0.062044562575372796
0.04234663375865182
0.024661950718587948
0.01599994806316894
0.018865215350487574
0.03110160177030957
0.048090037329803666
0.06394820641568519
0.07595335125272615
0.08272419744400956
0.08336505832353101
0.07859974734563781
0.06897025115637864
0.05749281932079737
0.0466156980139906
0.03690915777784179
0.02978229457684571
0.02642187148730138
0.027513930058839613
0.033320377327893926
0.045592935989568366
0.05738484860836608
0.06380148024522396
0.06113484041371569
0.04649155555288327
0.028713327374254114
0.01906119977507892
0.02649013977407714
0.04705045863029296
0.08073614369271498
0.1160083543900157
0.12837885246052566
0.12887362974047345
0.11681641295609703
0.08976944410988699
0.07700161514379825
0.07738825663452019
0.09025084785399942
0.1157813051689724
0.137201783585983
0.14284584875427508
0.13133894073626917
0.10813480374148142
0.08627082196414931
0.07756051617483135
0.07721441872875592
0.08296431446466443
0.0853219417762782
0.07902323598470128
0.06732905674459162
0.055836326418765146
0.03729865523948879
0.018760984060212434
0.00022331288093607737
-0.01831435829834028
0.007177560716817006
0.01633893727684894
0.028282854919261954
0.043842022934456645
0.05902283134137147
0.07140476248452034
0.07854795821089969
0.0778678524748075
0.06988916464865945
0.0571513916098317
0.04251961920825067
0.028219624409284754
0.017253720499083604
0.010808002734784775
0.010408888376553562
0.017134342693467038
0.028844401064530626
0.04313105293832048
0.05643446257573607
0.0671042868723812
0.07499176044252653
0.07974453361792447
0.08223156691734868
0.0804965554657719
0.0729144893041337
0.0610388434371501
0.046215338406203885
0.03394811287340139
0.027611181597789563
0.02912046089334468
0.03610942383105451
0.043689876462380144
0.05162749288021828
0.05082253382436034
0.04234802983844995
0.033067927731775616
0.026189073153032483
0.02997724660199957
0.0510287275835119
0.08234131631534321
0.10455770386829306
0.12025725259753706
0.12443580307782975
0.10636130794607106
0.09120735673881064
0.08181282893527628
0.07980676221372424
0.09334427518716638
0.10748408059388925
0.11094430385249807
0.10069950744111492
0.08403961175245717
0.06971502065604901
0.06417074173846078
0.06948512706359103
0.0815480420216203
0.09260955422919745
0.09707654390617419
0.09255425947044844
0.08366727843078213
0.0577158686166382
0.031764458802494275
0.005813048988350347
-0.02013836082579358
0.013641247372315117
0.027141881167698816
0.044392176760794745
0.062183711958617736
0.07795115344905032
0.0884689338286457
0.09321696007637437
0.09122968947103192
0.08072757876951546
0.06334939774115524
0.042765670563080636
0.024629701829385068
0.016907363409877987
0.022157940525657494
0.03720270162916493
0.05607106289146314
0.0721380516051331
0.08314942730623233
0.08860503181884485
0.08785465561853502
0.08129696183103065
0.06913722228926752
0.05487062718061444
0.0421095888608388
0.03221410389238058
0.02684286580731706
0.026344769874763068
0.029764229410310393
0.03710523002673099
0.05022725168256765
0.061874493982894664
0.06793664644057888
0.06408080873815063
0.04827987300046933
0.030165279603989573
0.02119532475209625
0.031200842753638082
0.05384408367249842
0.08837880889957576
0.12321333402634996
0.13338693022931913
0.13069134281972794
0.1155986630124226
0.0868944820049912
0.07416032849125531
0.07610437096610542
0.09135557330776692
0.11879124500223442
0.14123565850118278
0.14728655946099722
0.13587193192946034
0.11180578278802472
0.08874372016462966
0.07948867328774356
0.07807975988857856
0.08270289668868788
0.08359948536470192
0.07553952861279359
0.0627267757363158
0.05089260839503015
0.033712798526755974
0.016532988658481795
-0.0006468212097923837
-0.017826631078066563
0.008786216758609917
0.019288027545737482
0.03309242473578386
0.04942395518107346
0.06475317250581196
0.07648531348558099
0.08281998662857973
0.08167543115769363
0.07288140895577248
0.05862851968981769
0.04196844011181499
0.026159264676795004
0.015539563538605253
0.01200004330834812
0.01597322204821416
0.026645504846128664
0.04050573352558012
0.05447560717332298
0.06534182064181503
0.07165299583019258
0.07412962869823937
0.07329518535510902
0.07074181974657603
0.06579525227274748
0.05722304952741709
0.046218160532604115
0.0349328576965333
0.027873918535829434
0.026895723423830304
0.0337228364425005
0.04366538802686699
0.05096091372276593
0.05408343916661038
0.04670968107804963
0.03341030999517657
0.02335638909519532
0.022086009744271787
0.033148901197781314
0.06029678423873227
0.09410926064405511
0.11282163231523666
0.12312904192775671
0.12128273857749773
0.09989709903301998
0.08607514073399299
0.0806007783880286
0.08446226900108575
0.1027272538477789
0.11995658195374062
0.1243137193731981
0.11338842413106562
0.09400198321325923
0.07664860055243594
0.0698453890128956
0.07300572177981653
0.08261068375972831
0.09019845313552446
0.09032495684265716
0.08284993608510391
0.07279832886285631
0.04969003951142469
0.026581750159993076
0.0034734608085614516
-0.01963482854287016
0.012422507449645594
0.02524302520036068
0.04177925889531488
0.05925797584944722
0.07490842314836192
0.08567564294896979
0.09076396585433633
0.08895125638532583
0.07882686914234148
0.062130120935401836
0.04237086497106099
0.024653467253159655
0.01605076247653811
0.019073165858894462
0.03149812038401315
0.04861667460139762
0.06449561043488065
0.07643881850639686
0.08312058316153495
0.08366082688225081
0.07876585042466074
0.06895962750422646
0.05729077506047748
0.04628468908347173
0.036562615456397676
0.02954813593809539
0.026378443490094716
0.027633350450438424
0.03355358193542142
0.045896744528696826
0.05768911292181078
0.0640823783722913
0.06132395525041121
0.0465800583103417
0.02876456000216317
0.019149793651239772
0.026757879999599755
0.04747965157627678
0.08124125769335866
0.11649921902860605
0.1287237591902576
0.129001413382803
0.11673253645235876
0.08956897055405552
0.07680739742084276
0.07730514945748958
0.09033905395516684
0.1160071935191572
0.13750259282432642
0.14317403771330267
0.13166812805657765
0.108398664177704
0.08644878075126239
0.07770035088129738
0.07728104287389524
0.08295269714661857
0.0852077050480256
0.07878464735242868
0.06701084580849771
0.055493266689583126
0.0370494824237237
0.018605698157864267
0.0001619138920048377
-0.018281870373854592
0.012359096916175302
0.025143307395758194
0.04164047267593063
0.05910230181502778
0.07474682366790611
0.08552774951078032
0.09063448266139347
0.08883128666667092
0.07872718211071399
0.06206723475244484
0.04235300593118586
0.024659606755366815
0.01601328294954743
0.018920200989564488
0.031206621554708075
0.04822963811646146
0.06409341442904935
0.07608219355422166
0.08282939057574344
0.08344344806403962
0.07864359633886167
0.06896711019053806
0.057438829897588084
0.046527455808369776
0.03681675268495703
0.02971962638687205
0.02640978637808861
0.02754514908082472
0.03338194442511498
0.045673436301206356
0.057465620535714045
0.06387606050840793
0.06118490144363124
0.04651461746290212
0.02872628722735882
0.019083952377864363
0.02656050689022989
0.047163941746894124
0.08087003664991146
0.11613867700740046
0.12847046600032402
0.12890759640677976
0.116794113630432
0.08971613824285149
0.07695003128831403
0.07736624861043881
0.09027444908555465
0.11584157282013925
0.13728201718760055
0.14293334877543995
0.1314266338837862
0.10820506028600936
0.0863182098966875
0.07759776675525726
0.07723221751456355
0.08296131559363223
0.08529164897782524
0.07895986034796476
0.06724448931138761
0.055745137372449946
0.03723241736562212
0.018719697358794293
0.00020697735196646694
-0.01830574265486136
0.006703332998998521
0.015367761939057218
0.02655277266920665
0.04179245369465018
0.056920158860737376
0.06956150857911975
0.07702547260596333
0.07653648057390554
0.06887197101910279
0.05672012048023375
0.04289374781791906
0.029245658187434576
0.018332396178540177
0.0110060334348583
0.009113563165980743
0.014353918543646052
0.025079047588893802
0.03931760938317562
0.053534723674836006
0.06602145078490393
0.07611088503971078
0.08294837267280035
0.08717099063054161
0.08649161947690048
0.07930698626347224
0.06740714535972178
0.05155278925753958
0.03733584184106332
0.028797889941553034
0.02795277857562476
0.033482798286726935
0.04112479493114191
0.051100081570704024
0.053143237372971906
0.046820185259577644
0.037981687130779804
0.02891085339196328
0.02970022968244821
0.04815410854183486
0.07829091121265436
0.10178050436240528
0.11935659307001759
0.1256673158557076
0.10875048023902674
0.09298729052973716
0.08211825381923671
0.07794671174252381
0.0897311361875457
0.10262130100398595
0.10569733065143778
0.09571864167976739
0.08010183561789039
0.06693553049817398
0.061878792819739445
0.06799297343834115
0.08098431120759197
0.09337938129308633
0.09952552165884693
0.09616530661032709
0.08777147358113864
0.060765715643285166
0.03375995770543169
0.006754199767578226
-0.020251558170275255
0.013738294322929463
0.02729178250498142
0.044596227675160624
0.062411838943679576
0.07818885788949918
0.08868781276970553
0.09340971691497468
0.09140913021450592
0.08087782215491324
0.06344730673649088
0.04280099047777362
0.02463489280081681
0.016985863132540215
0.022414566142931018
0.03766466479393335
0.05666569194573426
0.07273969692927139
0.08367251041853403
0.08903276392288872
0.08818927053156127
0.08151176566046449
0.06917541709059545
0.05471012847630753
0.041814513065708415
0.03190865324776657
0.026672186894278013
0.0263848329290827
0.02996642398082736
0.037406702783110375
0.05057462386039188
0.062199240648035115
0.0682351268832582
0.0643075441022198
0.04845181826666389
0.030330895217420425
0.02142116722682174
0.031606701581232514
0.0543731962034283
0.08894580988416885
0.12372924808999404
0.13374008445748037
0.13081536551531595
0.11551106675953525
0.08669287558869482
0.0739567288577456
0.07600667911794362
0.09141891356015916
0.11898150751372066
0.14149309327013723
0.14757370000522058
0.13617236470353494
0.11205258200108244
0.08890979817653223
0.0796168679724502
0.07813253676228697
0.08267645231026222
0.08347172673792838
0.07529043879406738
0.06240140874392577
0.05054457673841782
0.03346075188819828
0.016376927037978745
-0.0007068978122407935
-0.01779072266246033
0.01042143843896364
0.022038165920587695
0.03722091090348655
0.05412484530013365
0.06959503384718414
0.08083955480643215
0.08655497904063182
0.0850717537319434
0.07562802177964147
0.06017532217971074
0.04196635004771219
0.025140104058891704
0.015286791716620568
0.014685073036190828
0.022609074643898414
0.03645949726464262
0.05155743858803377
0.06478018107270408
0.0736319769561758
0.07689567156175303
0.07550096833750425
0.07019588717806148
0.06325208583474443
0.055411699498492575
0.04618179100428919
0.03674468040813362
0.029115702660580597
0.026210030442140715
0.028945370284053376
0.038999443472069587
0.05031791185303497
0.05723651651791384
0.05713865605307862
0.045584138394589246
0.029416056374132808
0.019252259850387733
0.022365251565319995
0.03854918638057717
0.06962283666364426
0.10464067970430883
0.12031485546822597
0.12586326982713733
0.11891951065259447
0.09470800172531102
0.08159852485089648
0.07917318318554159
0.0876947941525912
0.10971951724349605
0.12918261920539498
0.13418838070012856
0.12284653150388304
0.10141157436955213
0.08171914038606191
0.07394219618107031
0.07534776605865227
0.08299803260742118
0.08789505510994215
0.08469734312000944
0.07501530201182008
0.06417822174333411
0.04337416591912195
0.022570110094909793
0.001766054270697634
-0.019038001553514525
0.011440311566264192
0.02368622201011519
0.03959188822369917
0.05680043780140841
0.07236077146223073
0.08334981315536749
0.0887329174246746
0.08707360680405378
0.07727188181974344
0.06116271958555354
0.04212849243721529
0.024811433705918977
0.015560458948296843
0.016798916804361
0.027050137019085783
0.042633477320691796
0.05821132252585782
0.07082523763565164
0.07854254882167758
0.08031107004381671
0.07699777944949877
0.06929056924865892
0.05986366046389411
0.0503645622753129
0.040847869755918295
0.03259214360766756
0.027241562127187046
0.02655949998083053
0.03106743469251536
0.04246808572969187
0.05415735116145493
0.0608138592774911
0.05921673619170964
0.04581306362321333
0.028573651814755466
0.01860394946190041
0.024098263209456922
0.042798305787220915
0.07550891529488302
0.11080113609456069
0.12469819555050446
0.12749958016840157
0.11773350832461861
0.09195431081436437
0.07907926497538538
0.07823673917157963
0.08920078476388899
0.1132000937665232
0.133777897758825
0.13913213735561833
0.1276582597493961
0.10520468737599678
0.08429159744091982
0.07599611151045675
0.07643742602579509
0.08303484547612776
0.08651434859825732
0.08158045098936512
0.07076584666585976
0.05955307772039175
0.04000157210086802
0.020450066481344294
0.0008985608618205659
-0.018652944757703162
0.014694948603236033
0.02876072661106018
0.04658078356552741
0.06462851609572987
0.0805020687287104
0.09082247116343674
0.09529312928960533
0.09316485233907967
0.08235149313880595
0.0644183029059641
0.04317613527764917
0.024735223671238545
0.017831661868826468
0.025021694839595838
0.04227239205175238
0.06253274637724607
0.07861840834832085
0.08874471931657454
0.09318001502453761
0.09148582353029082
0.08371617221243796
0.06971694826507471
0.053353571238728664
0.03917001340087794
0.029185979594336355
0.02530270679080485
0.027074918452769978
0.0321813877403344
0.04050329033589574
0.05401204149172494
0.06533833514947442
0.0711183212983853
0.06660488844632823
0.050429293054491765
0.03237823655841497
0.02412554664892273
0.035994250740388326
0.05974279022565676
0.09450335079916342
0.1286526345271033
0.13706161583331675
0.1319412600423809
0.11465482693111949
0.08478220822121366
0.07200148586061979
0.07502957093000055
0.09191586828513566
0.12062657161933006
0.1437388128645926
0.1501087363022389
0.1388827708787627
0.11430678507874925
0.0904263531716794
0.08077819603922529
0.0785752510146111
0.08236917422167563
0.08221498834558319
0.07290240429016838
0.059307653362772134
0.047245208520323274
0.031073918477033963
0.014902628433744652
-0.001268661609544662
-0.01743995165283397
0.020863918840443058
0.03797899125374547
0.05859423996698841
0.07801961103996632
0.09460708487758189
0.10398029573218656
0.10697743703434856
0.10408643927390777
0.09160510813965317
0.07084930619436015
0.04643598148551782
0.026936264876774998
0.02561764033805627
0.0443739786073264
0.0736668203835958
0.10028207083035677
0.11440808796995953
0.1181563445539067
0.11702390679651006
0.11197316184359479
0.10007977146419747
0.0780927512700268
0.051737803987169366
0.030686870670204737
0.020924239688012682
0.026248277402784136
0.040380673376200986
0.05287682453629419
0.06385875277723321
0.07617159704355998
0.08339811139502826
0.08788794112997772
0.08469752640032645
0.0736208441382535
0.06100003232496826
0.05872899651407622
0.07650825646414394
0.0977900395573572
0.12634906877174593
0.15195239620072318
0.1505164227723938
0.13453107407920958
0.10872976244258524
0.07486792257185025
0.06137168457968537
0.06854230667821658
0.09113613799818558
0.1237584760983591
0.14871045972603592
0.15679844461270126
0.148054928860813
0.12289003047201759
0.0962292910935193
0.08493497384654203
0.07901465918992848
0.0790862243002705
0.07450592048926397