# vtk DataFile Version 4.2
vtk output
ASCII
DATASET POLYDATA
POINTS 1277 float
0 0 0 -0.00397266 -0.000568678 0.000858503 -0.0155616 -0.00221294 0.00335464 
-0.0342731 -0.00484014 0.00736935 -0.0596137 -0.00835762 0.0127836 -0.0910898 -0.0126727 0.0194783 
-0.128208 -0.0176928 0.0273343 -0.170474 -0.0233252 0.0362327 -0.217394 -0.0294772 0.0460544 
-0.268476 -0.0360563 0.0566803 -0.323225 -0.0429697 0.0679914 -0.381148 -0.0501248 0.0798686 
-0.441751 -0.057429 0.0921928 -0.504541 -0.0647895 0.104845 -0.569024 -0.0721138 0.117706 
-0.634706 -0.0793092 0.130657 -0.701094 -0.086283 0.143579 -0.767694 -0.0929426 0.156353 
-0.834012 -0.0991954 0.168859 -0.899556 -0.104949 0.180979 -0.963831 -0.11011 0.192593 
-1.02634 -0.114586 0.203583 -1.08678 -0.118327 0.213877 -1.14521 -0.121379 0.223511 
-1.20179 -0.123802 0.232536 -1.25664 -0.125656 0.241004 -1.30991 -0.127 0.248965 
-1.36174 -0.127893 0.256471 -1.41226 -0.128396 0.263574 -1.46161 -0.128568 0.270323 
-1.50993 -0.128468 0.276772 -1.55735 -0.128158 0.28297 -1.60403 -0.127695 0.288969 
-1.65009 -0.12714 0.29482 -1.69566 -0.126553 0.300575 -1.7409 -0.125993 0.306285 
-1.78594 -0.12552 0.312 -1.83092 -0.125193 0.317773 -1.87597 -0.125073 0.323654 
-1.92123 -0.125219 0.329695 -1.96685 -0.12569 0.335947 -2.01295 -0.126546 0.34246 
-2.05959 -0.127827 0.349262 -2.10674 -0.12955 0.356353 -2.15435 -0.131732 0.363731 
-2.20236 -0.134388 0.371394 -2.25074 -0.137534 0.37934 -2.29944 -0.141187 0.387567 
-2.3484 -0.145363 0.396074 -2.39759 -0.150077 0.404858 -2.44696 -0.155345 0.413917 
-2.49646 -0.161184 0.423249 -2.54605 -0.167609 0.432853 -2.59567 -0.174637 0.442727 
-2.64529 -0.182283 0.452868 -2.69485 -0.190564 0.463275 -2.74432 -0.199495 0.473946 
-2.79363 -0.209093 0.484879 -2.84276 -0.219374 0.496072 -2.89164 -0.230353 0.507523 
-2.94024 -0.242047 0.519231 -2.9885 -0.254471 0.531192 -3.0364 -0.267641 0.543403 
-3.0839 -0.281564 0.555854 -3.131 -0.296251 0.568531 -3.17768 -0.311711 0.581424 
-3.22393 -0.327953 0.594521 -3.26972 -0.344985 0.607811 -3.31505 -0.362817 0.621281 
-3.35989 -0.381458 0.63492 -3.40423 -0.400917 0.648717 -3.44806 -0.421204 0.662659 
-3.49135 -0.442326 0.676736 -3.5341 -0.464294 0.690935 -3.57629 -0.487116 0.705245 
-3.6179 -0.510801 0.719654 -3.65892 -0.535359 0.73415 -3.69932 -0.560798 0.748722 
-3.7391 -0.587128 0.763359 -3.77824 -0.614358 0.778048 -3.81673 -0.642497 0.792777 
-3.85454 -0.671553 0.807537 -3.89167 -0.701532 0.82231 -3.92811 -0.732414 0.837069 
-3.96387 -0.764176 0.851782 -3.99896 -0.796793 0.866415 -4.03338 -0.830242 0.880937 
-4.06713 -0.864498 0.895314 -4.10023 -0.899538 0.909515 -4.13267 -0.935336 0.923506 
-4.16445 -0.971868 0.937256 -4.1956 -1.00911 0.950731 -4.2261 -1.04704 0.9639 
-4.25596 -1.08563 0.976729 -4.2852 -1.12486 0.989186 -4.3138 -1.16471 1.00124 
-4.34179 -1.20514 1.01286 -4.36916 -1.24614 1.024 -4.39591 -1.28768 1.03465 
-4.42206 -1.32974 1.04476 -4.44761 -1.37229 1.05431 -4.47256 -1.41531 1.06325 
-4.49691 -1.45877 1.07156 -4.52069 -1.50265 1.07922 -4.54391 -1.54693 1.08621 
-4.56658 -1.59156 1.09249 -4.58873 -1.63654 1.09805 -4.61038 -1.68182 1.10288 
-4.63153 -1.72739 1.10694 -4.65222 -1.77321 1.11022 -4.67245 -1.81926 1.1127 
-4.69225 -1.86551 1.11435 -4.71164 -1.91194 1.11516 -4.73062 -1.95851 1.11509 
-4.74923 -2.0052 1.11414 -4.76747 -2.05199 1.11228 -4.78537 -2.09884 1.10949 
-4.80295 -2.14573 1.10575 -4.82021 -2.19263 1.10104 -4.83719 -2.23951 1.09533 
-4.85389 -2.28635 1.0886 -4.87034 -2.33312 1.08084 -4.88656 -2.37979 1.07203 
-4.90255 -2.42635 1.06215 -4.91832 -2.47276 1.05124 -4.93389 -2.51901 1.0393 
-4.94926 -2.56508 1.02635 -4.96444 -2.61094 1.01241 -4.97944 -2.65659 0.997498 
-4.99426 -2.70199 0.98163 -5.00892 -2.74713 0.964822 -5.02342 -2.79198 0.947091 
-5.03777 -2.83653 0.928455 -5.05197 -2.88076 0.90893 -5.06605 -2.92464 0.888533 
-5.08 -2.96816 0.867281 -5.09383 -3.0113 0.845191 -5.10755 -3.05403 0.82228 
-5.12117 -3.09634 0.798564 -5.1347 -3.1382 0.774061 -5.14814 -3.17959 0.748788 
-5.16151 -3.2205 0.722762 -5.17481 -3.2609 0.695999 -5.18805 -3.30079 0.668518 
-5.20122 -3.34016 0.640342 -5.21434 -3.37904 0.611491 -5.22741 -3.41742 0.581989 
-5.24042 -3.45531 0.551856 -5.25339 -3.49272 0.521115 -5.2663 -3.52966 0.489788 
-5.27918 -3.56614 0.457896 -5.29201 -3.60216 0.425462 -5.3048 -3.63773 0.392508 
-5.31756 -3.67286 0.359055 -5.33028 -3.70756 0.325126 -5.34297 -3.74183 0.290742 
-5.35564 -3.77568 0.255926 -5.36827 -3.80912 0.220699 -5.38089 -3.84216 0.185083 
-5.39348 -3.8748 0.1491 -5.40605 -3.90705 0.112773 -5.41861 -3.93892 0.076122 
-5.43115 -3.97042 0.0391706 -5.44368 -4.00155 0.00193702 -5.4562 -4.03233 -0.0355691 
-5.46871 -4.06276 -0.0733403 -5.48119 -4.09285 -0.111369 -5.49366 -4.12261 -0.149647 
-5.50611 -4.15205 -0.188168 -5.51853 -4.18118 -0.226924 -5.53093 -4.21 -0.265907 
-5.5433 -4.23853 -0.30511 -5.55564 -4.26677 -0.344525 -5.56796 -4.29474 -0.384145 
-5.58024 -4.32244 -0.423961 -5.59248 -4.34987 -0.463967 -5.60469 -4.37706 -0.504155 
-5.61686 -4.40401 -0.544518 -5.62899 -4.43072 -0.585047 -5.64107 -4.45721 -0.625736 
-5.65311 -4.48348 -0.666576 -5.66511 -4.50955 -0.707561 -5.67706 -4.53542 -0.748682 
-5.68895 -4.5611 -0.789933 -5.70079 -4.5866 -0.831309 -5.71258 -4.61193 -0.872807 
-5.7243 -4.63708 -0.914424 -5.73595 -4.66207 -0.956158 -5.74754 -4.6869 -0.998005 
-5.75905 -4.71157 -1.03996 -5.77048 -4.7361 -1.08203 -5.78183 -4.76049 -1.1242 
-5.79309 -4.78475 -1.16647 -5.80426 -4.80887 -1.20883 -5.81533 -4.83287 -1.2513 
-5.82631 -4.85676 -1.29386 -5.83719 -4.88053 -1.3365 -5.84795 -4.9042 -1.37923 
-5.85861 -4.92777 -1.42205 -5.86915 -4.95124 -1.46495 -5.87957 -4.97463 -1.50792 
-5.88987 -4.99793 -1.55097 -5.90004 -5.02116 -1.59409 -5.91008 -5.04432 -1.63728 
-5.91998 -5.06741 -1.68054 -5.92974 -5.09044 -1.72386 -5.93935 -5.11342 -1.76724 
-5.9488 -5.13634 -1.81069 -5.95809 -5.15921 -1.8542 -5.96721 -5.18203 -1.89776 
-5.97615 -5.20482 -1.94138 -5.9849 -5.22757 -1.98506 -5.99347 -5.25029 -2.02879 
-6.00184 -5.27297 -2.07258 -6.01001 -5.29563 -2.11642 -6.01797 -5.31828 -2.1603 
-6.02571 -5.3409 -2.20424 -6.03323 -5.36351 -2.24822 -6.04051 -5.38612 -2.29225 
-6.04756 -5.40872 -2.33632 -6.05437 -5.43131 -2.38043 -6.06093 -5.45392 -2.42458 
-6.06723 -5.47653 -2.46877 -6.07326 -5.49915 -2.513 -6.07903 -5.52178 -2.55727 
-6.08452 -5.54443 -2.60157 -6.08972 -5.5671 -2.64589 -6.09463 -5.58979 -2.69025 
-6.09923 -5.61251 -2.73462 -6.10352 -5.63524 -2.77902 -6.1075 -5.65799 -2.82343 
-6.11114 -5.68078 -2.86786 -6.11445 -5.70359 -2.91229 -6.11742 -5.72642 -2.95674 
-6.12003 -5.74929 -3.00118 -6.12228 -5.77219 -3.04563 -6.12417 -5.79511 -3.09008 
-6.12567 -5.81808 -3.13452 -6.1268 -5.84108 -3.17895 -6.12753 -5.86411 -3.22337 
-6.12785 -5.88719 -3.26777 -6.12777 -5.9103 -3.31216 -6.12727 -5.93346 -3.35652 
-6.12635 -5.95665 -3.40086 -6.12499 -5.9799 -3.44517 -6.1232 -6.00318 -3.48945 
-6.12098 -6.0265 -3.53369 -6.11832 -6.04987 -3.57789 -6.11524 -6.07327 -3.62205 
-6.11172 -6.09671 -3.66616 -6.10778 -6.12019 -3.71022 -6.10341 -6.1437 -3.75423 
-6.09861 -6.16724 -3.79817 -6.09338 -6.19081 -3.84205 -6.08773 -6.21441 -3.88586 
-6.08166 -6.23804 -3.9296 -6.07516 -6.26169 -3.97326 -6.06824 -6.28537 -4.01685 
-6.0609 -6.30907 -4.06035 -6.05314 -6.33279 -4.10376 -6.04496 -6.35654 -4.14708 
-6.03636 -6.3803 -4.1903 -6.02734 -6.40408 -4.23342 -6.01791 -6.42787 -4.27644 
-6.00806 -6.45168 -4.31935 -5.99781 -6.47551 -4.36215 -5.98715 -6.49935 -4.40484 
-5.97611 -6.5232 -4.44742 -5.96469 -6.54708 -4.48989 -5.9529 -6.57098 -4.53224 
-5.94076 -6.5949 -4.57448 -5.92826 -6.61885 -4.61661 -5.91543 -6.64283 -4.65863 
-5.90227 -6.66683 -4.70053 -5.8888 -6.69086 -4.74231 -5.87501 -6.71492 -4.78398 
-5.86093 -6.73902 -4.82553 -5.84657 -6.76315 -4.86696 -5.83192 -6.78732 -4.90828 
-5.81701 -6.81153 -4.94948 -5.80185 -6.83578 -4.99056 -5.78644 -6.86007 -5.03151 
-5.77079 -6.88441 -5.07235 -5.75491 -6.90878 -5.11307 -5.73882 -6.93321 -5.15367 
-5.72252 -6.95769 -5.19414 -5.70603 -6.98222 -5.23449 -5.68935 -7.00682 -5.27472 
-5.67249 -7.03148 -5.31483 -5.65546 -7.05622 -5.35482 -5.63826 -7.08104 -5.39469 
-5.62092 -7.10594 -5.43443 -5.60343 -7.13094 -5.47406 -5.5858 -7.15603 -5.51356 
-5.56806 -7.18123 -5.55295 -5.55019 -7.20654 -5.59221 -5.53222 -7.23196 -5.63135 
-5.51415 -7.25751 -5.67037 -5.49599 -7.28318 -5.70928 -5.47775 -7.30899 -5.74806 
-5.45944 -7.33493 -5.78672 -5.44106 -7.36102 -5.82527 -5.42263 -7.38727 -5.86369 
-5.40416 -7.41366 -5.90199 -5.38565 -7.44023 -5.94018 -5.36712 -7.46696 -5.97824 
-5.34856 -7.49387 -6.01618 -5.33 -7.52096 -6.05399 -5.31143 -7.54824 -6.09166 
-5.29286 -7.57572 -6.12919 -5.2743 -7.6034 -6.16657 -5.25577 -7.6313 -6.2038 
-5.23726 -7.65942 -6.24087 -5.21878 -7.68776 -6.27778 -5.20034 -7.71634 -6.31451 
-5.18196 -7.74516 -6.35107 -5.16363 -7.77422 -6.38745 -5.14536 -7.80354 -6.42364 
-5.12717 -7.83313 -6.45964 -5.10905 -7.86298 -6.49545 -5.09102 -7.89311 -6.53104 
-5.07309 -7.92353 -6.56643 -5.05525 -7.95423 -6.60161 -5.03753 -7.98524 -6.63656 
-5.01992 -8.01655 -6.67129 -5.00244 -8.04817 -6.70579 -4.98509 -8.08012 -6.74004 
-4.96789 -8.11242 -6.77404 -4.95084 -8.14508 -6.80776 -4.93396 -8.17811 -6.84119 
-4.91726 -8.21155 -6.87431 -4.90074 -8.2454 -6.90712 -4.88442 -8.27967 -6.93959 
-4.8683 -8.31439 -6.97171 -4.8524 -8.34958 -7.00347 -4.83673 -8.38525 -7.03485 
-4.8213 -8.42141 -7.06584 -4.80612 -8.45809 -7.09642 -4.7912 -8.4953 -7.12657 
-4.77655 -8.53306 -7.15629 -4.76217 -8.57138 -7.18556 -4.74809 -8.61029 -7.21435 
-4.73431 -8.6498 -7.24266 -4.72084 -8.68992 -7.27048 -4.70769 -8.73067 -7.29778 
-4.69487 -8.77208 -7.32455 -4.68241 -8.81413 -7.35074 -4.6703 -8.8568 -7.37629 
-4.65858 -8.90007 -7.4011 -4.64726 -8.94393 -7.4251 -4.63637 -8.98835 -7.44823 
-4.62591 -9.03331 -7.4704 -4.6159 -9.07879 -7.49154 -4.60637 -9.12476 -7.51157 
-4.59733 -9.17122 -7.53041 -4.58881 -9.21813 -7.548 -4.58081 -9.26547 -7.56425 
-4.57336 -9.31323 -7.57909 -4.56648 -9.36139 -7.59245 -4.56018 -9.40991 -7.60424 
[...]
CELL_DATA 1
FIELD FieldData 2
Length 1 1 double
63.820129197 
Tortuosity 1 1 double
0.81661089736 
POINT_DATA 1277
SCALARS MaximumInscribedSphereRadius float
LOOKUP_TABLE default
0.93 0.930121 0.930243 0.930364 0.930485 0.930607 0.930728 0.930849 0.930971 
0.931092 0.931213 0.931335 0.931456 0.931577 0.931699 0.93182 0.931941 0.932063 
0.932184 0.932305 0.932427 0.93407 0.94222 0.95037 0.95852 0.96667 0.97482 
0.98297 0.99112 0.99927 1.00742 1.01557 1.02372 1.03187 1.04002 1.04817 
1.05632 1.06447 1.07262 1.08077 1.08892 1.09254 1.09004 1.08755 1.08505 
1.08256 1.08006 1.07757 1.07507 1.07258 1.07008 1.06759 1.06509 1.0626 
1.0601 1.05761 1.05511 1.05262 1.05012 1.04763 1.04513 1.04008 1.02326 
1.00645 0.989631 0.972814 0.955998 0.939181 0.922364 0.905548 0.888731 0.871915 
0.855098 0.838282 0.821465 0.804649 0.787832 0.771015 0.754199 0.737382 0.720566 
0.703749 0.718698 0.734717 0.750736 0.766754 0.782773 0.798792 0.814811 0.83083 
0.846849 0.862868 0.878887 0.894906 0.910925 0.926944 0.942962 0.958981 0.975 
0.991019 1.00704 1.02306 1.02356 1.01907 1.01459 1.0101 1.00562 1.00113 
0.996647 0.992162 0.987678 0.983193 0.978708 0.974223 0.969739 0.965254 0.960769 
0.956285 0.9518 0.947315 0.942831 0.938346 0.929651 0.917388 0.905124 0.892861 
0.880597 0.868334 0.85607 0.843807 0.831543 0.81928 0.807016 0.794753 0.782489 
0.770226 0.757962 0.745699 0.733435 0.721172 0.708908 0.696645 0.693386 0.708178 
0.72297 0.737762 0.752554 0.767347 0.782139 0.796931 0.811723 0.826515 0.841307 
0.856099 0.870891 0.885683 0.900475 0.915267 0.930059 0.944851 0.959644 0.974436 
0.989107 1.00232 1.01554 1.02875 1.04197 1.05518 1.0684 1.08161 1.09483 
1.10804 1.12126 1.13448 1.14769 1.16091 1.17412 1.18734 1.20055 1.21377 
1.22698 1.2402 1.25341 1.25469 1.25293 1.25117 1.24941 1.24765 1.24588 
1.24412 1.24236 1.2406 1.23884 1.23708 1.23532 1.23356 1.2318 1.23004 
1.22828 1.22652 1.22476 1.223 1.22124 1.21563 1.20635 1.19707 1.18779 
1.17851 1.16923 1.15995 1.15067 1.14139 1.13211 1.12282 1.11354 1.10426 
1.09498 1.0857 1.07642 1.06714 1.05786 1.04858 1.0393 1.03236 1.03342 
1.03449 1.03555 1.03661 1.03768 1.03874 1.0398 1.04087 1.04193 1.04299 
1.04406 1.04512 1.04618 1.04725 1.04831 1.04937 1.05044 1.0515 1.05256 
1.05362 1.0589 1.06441 1.06992 1.07543 1.08094 1.08645 1.09196 1.09747 
1.10298 1.10849 1.114 1.11951 1.12502 1.13053 1.13603 1.14154 1.14705 
1.15256 1.15807 1.16358 1.16012 1.15233 1.14455 1.13677 1.12899 1.12121 
1.11343 1.10565 1.09787 1.09009 1.08231 1.07453 1.06675 1.05897 1.05119 
1.04341 1.03563 1.02785 1.02007 1.01229 1.00962 1.01474 1.01986 1.02499 
1.03011 1.03523 1.04035 1.04548 1.0506 1.05572 1.06084 1.06597 1.07109 
1.07621 1.08133 1.08645 1.09158 1.0967 1.10182 1.10694 1.1122 1.11854 
1.12487 1.13121 1.13754 1.14388 1.15021 1.15655 1.16289 1.16922 1.17556 
1.18189 1.18823 1.19456 1.2009 1.20724 1.21357 1.21991 1.22624 1.23258 
1.23891 1.24253 1.24559 1.24865 1.25171 1.25477 1.25783 1.26089 1.26394 
1.267 1.27006 1.27312 1.27618 1.27924 1.2823 1.28535 1.28841 1.29147 
1.29453 1.29759 1.30065 1.31468 1.33685 1.35902 1.3812 1.40337 1.42554 
1.44772 1.46989 1.49206 1.51424 1.53641 1.55858 1.58076 1.60293 1.6251 
1.64727 1.66945 1.69162 1.71379 1.73597 1.75119 1.75678 1.76236 1.76795 
1.77354 1.77912 1.78471 1.7903 1.79588 1.80147 1.80706 1.81265 1.81823 
1.82382 1.82941 1.83499 1.84058 1.84617 1.85175 1.85734 1.86 1.86 
1.86 1.86 1.86 1.86 1.86 1.86 1.86 1.86 1.86 
1.86 1.86 1.86 1.86 1.86 1.86 1.86 1.86 1.86 
1.86 1.86 1.86 1.86 1.86 1.86 1.86 1.86 1.86 
1.86 1.86 1.86 1.86 1.86 1.86 1.86 1.86 1.86 
1.86 1.86 1.86 1.86 1.86 1.86 1.86 1.86 1.86 
1.86 1.86 1.86 1.86 1.86 1.86 1.86 1.86 1.86 
1.86 1.86 1.86 1.86 1.86 1.86 1.86 1.86 1.86 
1.86 1.86 1.86 1.86 1.86 1.86 1.86 1.86 1.86 
1.86 1.86 1.86 1.86 1.86 1.86 1.86 1.86 1.86 
1.86 1.86 1.86 1.86 1.86 1.86 1.86 1.86 1.86 
1.86 1.86 1.86 1.86 1.86 1.86 1.86 1.86 1.86 
1.86009 1.86032 1.86055 1.86077 1.861 1.86123 1.86146 1.86168 1.86191 
1.86214 1.86237 1.86259 1.86282 1.86305 1.86328 1.8635 1.86373 1.86396 
1.86419 1.86441 1.86558 1.8726 1.87962 1.88663 1.89365 1.90067 1.90769 
1.91471 1.92173 1.92874 1.93576 1.94278 1.9498 1.95682 1.96383 1.97085 
1.97787 1.98489 1.99191 1.99892 2.00594 2.01399 2.0221 2.03022 2.03834 
2.04646 2.05457 2.06269 2.07081 2.07893 2.08704 2.09516 2.10328 2.1114 
2.11951 2.12763 2.13575 2.14387 2.15198 2.1601 2.16822 2.16774 2.16485 
2.16196 2.15907 2.15618 2.15329 2.1504 2.14751 2.14462 2.14173 2.13884 
2.13595 2.13305 2.13016 2.12727 2.12438 2.12149 2.1186 2.11571 2.11282 
2.10693 2.099 2.09107 2.08314 2.0752 2.06727 2.05934 2.05141 2.04348 
2.03555 2.02762 2.01969 2.01176 2.00383 1.9959 1.98797 1.98004 1.97211 
1.96417 1.95624 1.95607 1.96968 1.98329 1.9969 2.01051 2.02412 2.03773 
2.05134 2.06495 2.07856 2.09216 2.10577 2.11938 2.13299 2.1466 2.16021 
2.17382 2.18743 2.20104 2.21465 2.22678 2.22484 2.22291 2.22098 2.21904 
2.21711 2.21517 2.21324 2.21131 2.20937 2.20744 2.20551 2.20357 2.20164 
2.19971 2.19777 2.19584 2.1939 2.19197 2.19004 2.1881 2.16633 2.13995 
2.11357 2.08719 2.06081 2.03443 2.00805 1.98167 1.9553 1.92892 1.90254 
1.87616 1.84978 1.8234 1.79702 1.77064 1.74426 1.71789 1.69151 1.66513 
1.65666 1.66409 1.67152 1.67896 1.68639 1.69383 1.70126 1.70869 1.71613 
1.72356 1.73099 1.73843 1.74586 1.75329 1.76073 1.76816 1.77559 1.78303 
1.79046 1.7979 1.80628 1.81745 1.82863 1.8398 1.85097 1.86215 1.87332 
1.88449 1.89567 1.90684 1.91801 1.92919 1.94036 1.95153 1.96271 1.97388 
1.98505 1.99623 2.0074 2.01857 2.02975 2.02958 2.02905 2.02852 2.02799 
2.02745 2.02692 2.02639 2.02585 2.02532 2.02479 2.02426 2.02372 2.02319 
2.02266 2.02212 2.02159 2.02106 2.02053 2.01999 2.01946 2.00523 1.98457 
1.9639 1.94324 1.92257 1.9019 1.88124 1.86057 1.83991 1.81924 1.79858 
1.77791 1.75724 1.73658 1.71591 1.69525 1.67458 1.65391 1.63325 1.61258 
1.5991 1.59664 1.59417 1.5917 1.58923 1.58676 1.58429 1.58182 1.57935 
1.57688 1.57442 1.57195 1.56948 1.56701 1.56454 1.56207 1.5596 1.55713 
1.55466 1.55219 1.55 1.55 1.55 1.55 1.55 1.55 1.55 
1.55 1.55 1.55 1.55 1.55 1.55 1.55 1.55 1.55 
1.55 1.55 1.55 1.55 1.55 1.55113 1.55247 1.5538 1.55514 
1.55647 1.55781 1.55914 1.56047 1.56181 1.56314 1.56448 1.56581 1.56715 
1.56848 1.56982 1.57115 1.57248 1.57382 1.57515 1.57649 1.57997 1.5847 
1.58943 1.59416 1.59889 1.60363 1.60836 1.61309 1.61782 1.62255 1.62729 
1.63202 1.63675 1.64148 1.64621 1.65095 1.65568 1.66041 1.66514 1.66987 
1.67549 1.68259 1.68969 1.69678 1.70388 1.71097 1.71807 1.72516 1.73226 
1.73935 1.74645 1.75354 1.76064 1.76774 1.77483 1.78193 1.78902 1.79612 
1.80321 1.81031 1.81701 1.8198 1.82259 1.82539 1.82818 1.83097 1.83376 
1.83656 1.83935 1.84214 1.84494 1.84773 1.85052 1.85332 1.85611 1.8589 
1.86169 1.86449 1.86728 1.87007 1.87287 1.88036 1.889 1.89764 1.90628 
1.91492 1.92355 1.93219 1.94083 1.94947 1.95811 1.96674 1.97538 1.98402 
1.99266 2.0013 2.00993 2.01857 2.02721 2.03585 2.04449 2.0591 2.07926 
2.09941 2.11957 2.13972 2.15988 2.18004 2.20019 2.22035 2.2405 2.26066 
2.28082 2.30097 2.32113 2.34128 2.36144 2.3816 2.40175 2.42191 2.44206 
2.45503 2.44449 2.43395 2.42341 2.41287 2.40233 2.39179 2.38125 2.37071 
2.36017 2.34963 2.33909 2.32855 2.31801 2.30747 2.29693 2.28639 2.27585 
2.26531 2.25476 2.24422 2.24024 2.2366 2.23297 2.22934 2.22571 2.22208 
2.21844 2.21481 2.21118 2.20755 2.20392 2.20029 2.19665 2.19302 2.18939 
2.18576 2.18213 2.17849 2.17486 2.17123 2.17275 2.1769 2.18106 2.18522 
2.18937 2.19353 2.19768 2.20184 2.206 2.21015 2.21431 2.21847 2.22262 
2.22678 2.23093 2.23509 2.23925 2.2434 2.24756 2.25171 2.25735 2.26544 
2.27353 2.28163 2.28972 2.29781 2.3059 2.31399 2.32208 2.33018 2.33827 
2.34636 2.35445 2.36254 2.37064 2.37873 2.38682 2.39491 2.403 2.4111 
2.41667 2.3975 2.37833 2.35916 2.34 2.32083 2.30166 2.28249 2.26332 
2.24415 2.22499 2.20582 2.18665 2.16748 2.14831 2.12914 2.10998 2.09081 
2.07164 2.05247 2.0333 2.03427 2.03999 2.04571 2.05144 2.05716 2.06288 
2.0686 2.07433 2.08005 2.08577 2.09149 2.09722 2.10294 2.10866 2.11438 
2.12011 2.12583 2.13155 2.13727 2.143 2.14977 2.15748 2.16519 2.17291 
2.18062 2.18834 2.19605 2.20377 2.21148 2.2192 2.22691 2.23462 2.24234 
2.25005 2.25777 2.26548 2.2732 2.28091 2.28863 2.29634 2.29799 2.28086 
2.26373 2.24659 2.22946 2.21233 2.1952 2.17807 2.16094 2.14381 2.12668 
2.10955 2.09242 2.07529 2.05816 2.04103 2.0239 2.00677 1.98964 1.97251 
1.95538 1.95788 1.96097 1.96407 1.96717 1.97027 1.97337 1.97647 1.97956 
1.98266 1.98576 1.98886 1.99196 1.99506 1.99816 2.00125 2.00435 2.00745 
2.01055 2.01365 2.01675 2.02636 2.03871 2.05105 2.0634 2.07574 2.08809 
2.10043 2.11278 2.12512 2.13746 2.14981 2.16215 2.1745 2.18684 2.19919 
2.21153 2.22388 2.23622 2.24857 2.26091 2.27223 2.2822 2.29217 2.30215 
2.31212 2.32209 2.33206 2.34203 2.35201 2.36198 2.37195 2.38192 2.3919 
2.40187 2.41184 2.42181 2.43178 2.44176 2.45173 2.4617 2.47018 2.47036 
2.47055 2.47073 2.47092 2.4711 2.47129 2.47147 2.47166 2.47184 2.47203 
2.47221 2.4724 2.47258 2.47277 2.47295 2.47314 2.47332 2.47351 2.47369 
2.47388 2.46656 2.45813 2.44971 2.44129 2.43286 2.42444 2.41601 2.40759 
2.39917 2.39074 2.38232 2.3739 2.36547 2.35705 2.34862 2.3402 2.33178 
2.32335 2.31493 2.3065 2.29611 2.28434 2.27257 2.26079 2.24902 2.23725 
2.22548 2.21371 2.20194 2.19017 2.1784 2.16662 2.15485 2.14308 2.13131 
2.11954 2.10777 2.096 2.08422 2.07245 2.06135 2.05177 2.04219 2.03261 
2.02303 2.01345 2.00387 1.99429 1.98471 1.97513 1.96555 1.95597 1.94639 
1.93681 1.92722 1.91764 1.90806 1.89848 1.8889 1.87932 1.8701 1.87174 
1.87337 1.87501 1.87665 1.87828 1.87992 1.88155 1.88319 1.88482 1.88646 
1.8881 1.88973 1.89137 1.893 1.89464 1.89628 1.89791 1.89955 1.90118 
1.90282 1.91127 1.92139 1.93151 1.94163 1.95174 1.96186 1.97198 1.9821 
1.99222 2.00234 2.01245 2.02257 2.03269 2.04281 2.05293 2.06304 2.07316 
2.08328 2.0934 2.10352 2.10556 2.10169 2.09783 2.09397 2.0901 2.08624 
2.08238 2.07851 2.07465 2.07079 2.06692 2.06306 2.0592 2.05533 2.05147 
2.04761 2.04374 2.03988 2.03602 2.03215 2.02464 2.01641 2.00818 1.99994 
1.99171 1.98348 1.97525 1.96702 1.95878 1.95055 1.94232 1.93409 1.92586 
1.91762 1.90939 1.90116 1.89293 1.8847 1.87646 1.86823 1.86 
TEXTURE_COORDINATES TCoords 2 float
0 0 0.000783699 0 0.0015674 0 0.0023511 0 0.0031348 
0 0.0039185 0 0.00470219 0 0.00548589 0 0.00626959 0 
0.00705329 0 0.00783699 0 0.00862069 0 0.00940439 0 0.0101881 
0 0.0109718 0 0.0117555 0 0.0125392 0 0.0133229 0 
0.0141066 0 0.0148903 0 0.015674 0 0.0164577 0 0.0172414 
0 0.0180251 0 0.0188088 0 0.0195925 0 0.0203762 0 
0.0211599 0 0.0219436 0 0.0227273 0 0.023511 0 0.0242947 
0 0.0250784 0 0.0258621 0 0.0266458 0 0.0274295 0 
0.0282132 0 0.0289969 0 0.0297806 0 0.0305643 0 0.031348 
0 0.0321317 0 0.0329154 0 0.0336991 0 0.0344828 0 
0.0352665 0 0.0360502 0 0.0368339 0 0.0376176 0 0.0384013 
0 0.039185 0 0.0399687 0 0.0407524 0 0.0415361 0 
0.0423197 0 0.0431034 0 0.0438871 0 0.0446708 0 0.0454545 
0 0.0462382 0 0.0470219 0 0.0478056 0 0.0485893 0 
0.049373 0 0.0501567 0 0.0509404 0 0.0517241 0 0.0525078 
0 0.0532915 0 0.0540752 0 0.0548589 0 0.0556426 0 
0.0564263 0 0.05721 0 0.0579937 0 0.0587774 0 0.0595611 
0 0.0603448 0 0.0611285 0 0.0619122 0 0.0626959 0 
0.0634796 0 0.0642633 0 0.065047 0 0.0658307 0 0.0666144 
0 0.0673981 0 0.0681818 0 0.0689655 0 0.0697492 0 
0.0705329 0 0.0713166 0 0.0721003 0 0.072884 0 0.0736677 
0 0.0744514 0 0.0752351 0 0.0760188 0 0.0768025 0 
0.0775862 0 0.0783699 0 0.0791536 0 0.0799373 0 0.080721 
0 0.0815047 0 0.0822884 0 0.0830721 0 0.0838558 0 
0.0846395 0 0.0854232 0 0.0862069 0 0.0869906 0 0.0877743 
0 0.088558 0 0.0893417 0 0.0901254 0 0.0909091 0 
0.0916928 0 0.0924765 0 0.0932602 0 0.0940439 0 0.0948276 
0 0.0956113 0 0.096395 0 0.0971787 0 0.0979624 0 
0.0987461 0 0.0995298 0 0.100313 0 0.101097 0 0.101881 
0 0.102665 0 0.103448 0 0.104232 0 0.105016 0 
0.105799 0 0.106583 0 0.107367 0 0.10815 0 0.108934 
0 0.109718 0 0.110502 0 0.111285 0 0.112069 0 
0.112853 0 0.113636 0 0.11442 0 0.115204 0 0.115987 
0 0.116771 0 0.117555 0 0.118339 0 0.119122 0 
0.119906 0 0.12069 0 0.121473 0 0.122257 0 0.123041 
0 0.123824 0 0.124608 0 0.125392 0 0.126176 0 
0.126959 0 0.127743 0 0.128527 0 0.12931 0 0.130094 
0 0.130878 0 0.131661 0 0.132445 0 0.133229 0 
0.134013 0 0.134796 0 0.13558 0 0.136364 0 0.137147 
0 0.137931 0 0.138715 0 0.139498 0 0.140282 0 
0.141066 0 0.14185 0 0.142633 0 0.143417 0 0.144201 
0 0.144984 0 0.145768 0 0.146552 0 0.147335 0 
0.148119 0 0.148903 0 0.149687 0 0.15047 0 0.151254 
0 0.152038 0 0.152821 0 0.153605 0 0.154389 0 
0.155172 0 0.155956 0 0.15674 0 0.157524 0 0.158307 
0 0.159091 0 0.159875 0 0.160658 0 0.161442 0 
0.162226 0 0.163009 0 0.163793 0 0.164577 0 0.16536 
0 0.166144 0 0.166928 0 0.167712 0 0.168495 0 
0.169279 0 0.170063 0 0.170846 0 0.17163 0 0.172414 
0 0.173197 0 0.173981 0 0.174765 0 0.175549 0 
0.176332 0 0.177116 0 0.1779 0 0.178683 0 0.179467 
0 0.180251 0 0.181034 0 0.181818 0 0.182602 0 
0.183386 0 0.184169 0 0.184953 0 0.185737 0 0.18652 
0 0.187304 0 0.188088 0 0.188871 0 0.189655 0 
0.190439 0 0.191223 0 0.192006 0 0.19279 0 0.193574 
0 0.194357 0 0.195141 0 0.195925 0 0.196708 0 
0.197492 0 0.198276 0 0.19906 0 0.199843 0 0.200627 
0 0.201411 0 0.202194 0 0.202978 0 0.203762 0 
0.204545 0 0.205329 0 0.206113 0 0.206897 0 0.20768 
0 0.208464 0 0.209248 0 0.210031 0 0.210815 0 
0.211599 0 0.212382 0 0.213166 0 0.21395 0 0.214734 
0 0.215517 0 0.216301 0 0.217085 0 0.217868 0 
0.218652 0 0.219436 0 0.220219 0 0.221003 0 0.221787 
0 0.222571 0 0.223354 0 0.224138 0 0.224922 0 
0.225705 0 0.226489 0 0.227273 0 0.228056 0 0.22884 
0 0.229624 0 0.230408 0 0.231191 0 0.231975 0 
0.232759 0 0.233542 0 0.234326 0 0.23511 0 0.235893 
0 0.236677 0 0.237461 0 0.238245 0 0.239028 0 
0.239812 0 0.240596 0 0.241379 0 0.242163 0 0.242947 
0 0.24373 0 0.244514 0 0.245298 0 0.246082 0 
0.246865 0 0.247649 0 0.248433 0 0.249216 0 0.25 
0 0.250784 0 0.251567 0 0.252351 0 0.253135 0 
0.253918 0 0.254702 0 0.255486 0 0.25627 0 0.257053 
0 0.257837 0 0.258621 0 0.259404 0 0.260188 0 
0.260972 0 0.261755 0 0.262539 0 0.263323 0 0.264107 
0 0.26489 0 0.265674 0 0.266458 0 0.267241 0 
0.268025 0 0.268809 0 0.269592 0 0.270376 0 0.27116 
0 0.271944 0 0.272727 0 0.273511 0 0.274295 0 
0.275078 0 0.275862 0 0.276646 0 0.277429 0 0.278213 
0 0.278997 0 0.279781 0 0.280564 0 0.281348 0 
0.282132 0 0.282915 0 0.283699 0 0.284483 0 0.285266 
0 0.28605 0 0.286834 0 0.287618 0 0.288401 0 
0.289185 0 0.289969 0 0.290752 0 0.291536 0 0.29232 
0 0.293103 0 0.293887 0 0.294671 0 0.295455 0 
0.296238 0 0.297022 0 0.297806 0 0.298589 0 0.299373 
0 0.300157 0 0.30094 0 0.301724 0 0.302508 0 
0.303292 0 0.304075 0 0.304859 0 0.305643 0 0.306426 
0 0.30721 0 0.307994 0 0.308777 0 0.309561 0 
0.310345 0 0.311129 0 0.311912 0 0.312696 0 0.31348 
0 0.314263 0 0.315047 0 0.315831 0 0.316614 0 
0.317398 0 0.318182 0 0.318966 0 0.319749 0 0.320533 
0 0.321317 0 0.3221 0 0.322884 0 0.323668 0 
0.324451 0 0.325235 0 0.326019 0 0.326803 0 0.327586 
0 0.32837 0 0.329154 0 0.329937 0 0.330721 0 
0.331505 0 0.332288 0 0.333072 0 0.333856 0 0.334639 
0 0.335423 0 0.336207 0 0.336991 0 0.337774 0 
0.338558 0 0.339342 0 0.340125 0 0.340909 0 0.341693 
0 0.342476 0 0.34326 0 0.344044 0 0.344828 0 
0.345611 0 0.346395 0 0.347179 0 0.347962 0 0.348746 
0 0.34953 0 0.350313 0 0.351097 0 0.351881 0 
0.352665 0 0.353448 0 0.354232 0 0.355016 0 0.355799 
0 0.356583 0 0.357367 0 0.35815 0 0.358934 0 
0.359718 0 0.360502 0 0.361285 0 0.362069 0 0.362853 
0 0.363636 0 0.36442 0 0.365204 0 0.365987 0 
0.366771 0 0.367555 0 0.368339 0 0.369122 0 0.369906 
0 0.37069 0 0.371473 0 0.372257 0 0.373041 0 
0.373824 0 0.374608 0 0.375392 0 0.376176 0 0.376959 
0 0.377743 0 0.378527 0 0.37931 0 0.380094 0 
0.380878 0 0.381661 0 0.382445 0 0.383229 0 0.384013 
0 0.384796 0 0.38558 0 0.386364 0 0.387147 0 
0.387931 0 0.388715 0 0.389498 0 0.390282 0 0.391066 
0 0.39185 0 0.392633 0 0.393417 0 0.394201 0 
0.394984 0 0.395768 0 0.396552 0 0.397335 0 0.398119 
0 0.398903 0 0.399687 0 0.40047 0 0.401254 0 
0.402038 0 0.402821 0 0.403605 0 0.404389 0 0.405172 
0 0.405956 0 0.40674 0 0.407524 0 0.408307 0 
0.409091 0 0.409875 0 0.410658 0 0.411442 0 0.412226 
0 0.413009 0 0.413793 0 0.414577 0 0.415361 0 
0.416144 0 0.416928 0 0.417712 0 0.418495 0 0.419279 
0 0.420063 0 0.420846 0 0.42163 0 0.422414 0 
0.423197 0 0.423981 0 0.424765 0 0.425549 0 0.426332 
0 0.427116 0 0.4279 0 0.428683 0 0.429467 0 
0.430251 0 0.431034 0 0.431818 0 0.432602 0 0.433386 
0 0.434169 0 0.434953 0 0.435737 0 0.43652 0 
0.437304 0 0.438088 0 0.438871 0 0.439655 0 0.440439 
0 0.441223 0 0.442006 0 0.44279 0 0.443574 0 
0.444357 0 0.445141 0 0.445925 0 0.446708 0 0.447492 
0 0.448276 0 0.44906 0 0.449843 0 0.450627 0 
0.451411 0 0.452194 0 0.452978 0 0.453762 0 0.454545 
0 0.455329 0 0.456113 0 0.456897 0 0.45768 0 
0.458464 0 0.459248 0 0.460031 0 0.460815 0 0.461599 
0 0.462382 0 0.463166 0 0.46395 0 0.464734 0 
0.465517 0 0.466301 0 0.467085 0 0.467868 0 0.468652 
0 0.469436 0 0.470219 0 0.471003 0 0.471787 0 
0.472571 0 0.473354 0 0.474138 0 0.474922 0 0.475705 
0 0.476489 0 0.477273 0 0.478056 0 0.47884 0 
0.479624 0 0.480408 0 0.481191 0 0.481975 0 0.482759 
0 0.483542 0 0.484326 0 0.48511 0 0.485893 0 
0.486677 0 0.487461 0 0.488245 0 0.489028 0 0.489812 
0 0.490596 0 0.491379 0 0.492163 0 0.492947 0 
0.49373 0 0.494514 0 0.495298 0 0.496082 0 0.496865 
0 0.497649 0 0.498433 0 0.499216 0 0.5 0 
0.500784 0 0.501567 0 0.502351 0 0.503135 0 0.503918 
0 0.504702 0 0.505486 0 0.50627 0 0.507053 0 
0.507837 0 0.508621 0 0.509404 0 0.510188 0 0.510972 
0 0.511755 0 0.512539 0 0.513323 0 0.514107 0 
0.51489 0 0.515674 0 0.516458 0 0.517241 0 0.518025 
0 0.518809 0 0.519592 0 0.520376 0 0.52116 0 
0.521944 0 0.522727 0 0.523511 0 0.524295 0 0.525078 
0 0.525862 0 0.526646 0 0.527429 0 0.528213 0 
0.528997 0 0.529781 0 0.530564 0 0.531348 0 0.532132 
0 0.532915 0 0.533699 0 0.534483 0 0.535266 0 
0.53605 0 0.536834 0 0.537618 0 0.538401 0 0.539185 
0 0.539969 0 0.540752 0 0.541536 0 0.54232 0 
0.543103 0 0.543887 0 0.544671 0 0.545455 0 0.546238 
0 0.547022 0 0.547806 0 0.548589 0 0.549373 0 
0.550157 0 0.55094 0 0.551724 0 0.552508 0 0.553292 
0 0.554075 0 0.554859 0 0.555643 0 0.556426 0 
0.55721 0 0.557994 0 0.558777 0 0.559561 0 0.560345 
0 0.561128 0 0.561912 0 0.562696 0 0.56348 0 
0.564263 0 0.565047 0 0.565831 0 0.566614 0 0.567398 
0 0.568182 0 0.568965 0 0.569749 0 0.570533 0 
0.571317 0 0.5721 0 0.572884 0 0.573668 0 0.574451 
0 0.575235 0 0.576019 0 0.576802 0 0.577586 0 
0.57837 0 0.579154 0 0.579937 0 0.580721 0 0.581505 
0 0.582288 0 0.583072 0 0.583856 0 0.584639 0 
0.585423 0 0.586207 0 0.586991 0 0.587774 0 0.588558 
0 0.589342 0 0.590125 0 0.590909 0 0.591693 0 
0.592476 0 0.59326 0 0.594044 0 0.594828 0 0.595611 
0 0.596395 0 0.597179 0 0.597962 0 0.598746 0 
0.59953 0 0.600313 0 0.601097 0 0.601881 0 0.602665 
0 0.603448 0 0.604232 0 0.605016 0 0.605799 0 
0.606583 0 0.607367 0 0.60815 0 0.608934 0 0.609718 
0 0.610502 0 0.611285 0 0.612069 0 0.612853 0 
0.613636 0 0.61442 0 0.615204 0 0.615987 0 0.616771 
0 0.617555 0 0.618339 0 0.619122 0 0.619906 0 
0.62069 0 0.621473 0 0.622257 0 0.623041 0 0.623824 
0 0.624608 0 0.625392 0 0.626176 0 0.626959 0 
0.627743 0 0.628527 0 0.62931 0 0.630094 0 0.630878 
0 0.631661 0 0.632445 0 0.633229 0 0.634013 0 
0.634796 0 0.63558 0 0.636364 0 0.637147 0 0.637931 
0 0.638715 0 0.639498 0 0.640282 0 0.641066 0 
0.64185 0 0.642633 0 0.643417 0 0.644201 0 0.644984 
0 0.645768 0 0.646552 0 0.647335 0 0.648119 0 
0.648903 0 0.649687 0 0.65047 0 0.651254 0 0.652038 
0 0.652821 0 0.653605 0 0.654389 0 0.655172 0 
0.655956 0 0.65674 0 0.657524 0 0.658307 0 0.659091 
0 0.659875 0 0.660658 0 0.661442 0 0.662226 0 
0.663009 0 0.663793 0 0.664577 0 0.665361 0 0.666144 
0 0.666928 0 0.667712 0 0.668495 0 0.669279 0 
0.670063 0 0.670846 0 0.67163 0 0.672414 0 0.673198 
0 0.673981 0 0.674765 0 0.675549 0 0.676332 0 
0.677116 0 0.6779 0 0.678683 0 0.679467 0 0.680251 