# vtk DataFile Version 4.2
vtk output
ASCII
DATASET POLYDATA
POINTS 1280 float
0 0 0 -0.00134508 0.00297624 0.00286782 -0.00526689 0.0116438 0.0112133 
-0.0115953 0.0256112 0.0246493 -0.0201602 0.0444865 0.042789 -0.0307915 0.0678783 0.0652452 
-0.043319 0.0953948 0.0916311 -0.0575726 0.126644 0.121559 -0.0733822 0.161235 0.154643 
-0.0905777 0.198776 0.190496 -0.108989 0.238875 0.22873 -0.128446 0.28114 0.268958 
-0.148778 0.32518 0.310795 -0.169816 0.370604 0.353851 -0.191389 0.417018 0.397741 
-0.213327 0.464033 0.442078 -0.23546 0.511255 0.486474 -0.257618 0.558294 0.530542 
-0.279631 0.604758 0.573896 -0.301328 0.650255 0.616148 -0.32255 0.694417 0.656934 
-0.343258 0.737147 0.696157 -0.363496 0.778532 0.7339 -0.383308 0.81866 0.770248 
-0.402737 0.857621 0.805285 -0.421829 0.895504 0.839097 -0.440627 0.932398 0.871768 
-0.459175 0.968392 0.903385 -0.477518 1.00358 0.934031 -0.495701 1.03804 0.963792 
-0.513767 1.07187 0.992753 -0.53176 1.10515 1.021 -0.549725 1.13798 1.04862 
-0.567707 1.17045 1.07569 -0.585748 1.20264 1.1023 -0.603895 1.23464 1.12854 
-0.62219 1.26654 1.15449 -0.640678 1.29844 1.18023 -0.659404 1.33041 1.20585 
-0.678411 1.36255 1.23144 -0.697744 1.39495 1.25709 -0.717447 1.4277 1.28286 
-0.737557 1.46088 1.30885 -0.758071 1.49447 1.33505 -0.77897 1.52845 1.36144 
-0.800236 1.56279 1.388 -0.821852 1.59747 1.41471 -0.843799 1.63244 1.44155 
-0.866059 1.66768 1.46849 -0.888613 1.70316 1.49553 -0.911445 1.73885 1.52263 
-0.934534 1.77472 1.54977 -0.957864 1.81073 1.57694 -0.981416 1.84687 1.60411 
-1.00517 1.88309 1.63126 -1.02911 1.91937 1.65838 -1.05322 1.95568 1.68543 
-1.07748 1.99198 1.71241 -1.10187 2.02825 1.73928 -1.12638 2.06446 1.76602 
-1.15098 2.10058 1.79263 -1.17565 2.13657 1.81907 -1.2004 2.17242 1.84533 
-1.22522 2.20814 1.87142 -1.25012 2.24373 1.89733 -1.27511 2.27919 1.92308 
-1.3002 2.31453 1.94865 -1.3254 2.34976 1.97407 -1.3507 2.38488 1.99932 
-1.37613 2.4199 2.02441 -1.40168 2.45482 2.04935 -1.42737 2.48965 2.07414 
-1.4532 2.52439 2.09877 -1.47918 2.55906 2.12326 -1.50532 2.59365 2.1476 
-1.53162 2.62817 2.1718 -1.55809 2.66263 2.19586 -1.58474 2.69703 2.21978 
-1.61158 2.73138 2.24357 -1.63862 2.76568 2.26723 -1.66585 2.79995 2.29076 
-1.6933 2.83417 2.31417 -1.72096 2.86837 2.33745 -1.74883 2.90254 2.36061 
-1.77692 2.93667 2.38365 -1.80522 2.97077 2.40657 -1.83373 3.00482 2.42937 
-1.86244 3.03884 2.45204 -1.89135 3.0728 2.4746 -1.92046 3.10671 2.49705 
-1.94976 3.14057 2.51937 -1.97925 3.17437 2.54157 -2.00893 3.20811 2.56366 
-2.0388 3.24179 2.58563 -2.06885 3.2754 2.60749 -2.09908 3.30894 2.62923 
-2.12948 3.3424 2.65086 -2.16006 3.37579 2.67237 -2.19081 3.40909 2.69376 
-2.22172 3.44231 2.71505 -2.2528 3.47544 2.73622 -2.28403 3.50849 2.75728 
-2.31543 3.54143 2.77822 -2.34698 3.57428 2.79906 -2.37869 3.60704 2.81978 
-2.41056 3.63969 2.84039 -2.44258 3.67224 2.86088 -2.47477 3.7047 2.88126 
-2.50712 3.73705 2.90153 -2.53964 3.76929 2.92167 -2.57231 3.80144 2.9417 
-2.60516 3.83348 2.96161 -2.63817 3.86541 2.98141 -2.67134 3.89723 3.00108 
-2.70469 3.92895 3.02063 -2.7382 3.96055 3.04006 -2.77189 3.99205 3.05937 
-2.80575 4.02343 3.07856 -2.83978 4.05471 3.09762 -2.87398 4.08586 3.11656 
-2.90836 4.1169 3.13538 -2.94292 4.14783 3.15407 -2.97765 4.17864 3.17263 
-3.01256 4.20933 3.19107 -3.04765 4.2399 3.20938 -3.08291 4.27035 3.22756 
-3.11835 4.30067 3.24561 -3.15396 4.33087 3.26354 -3.18975 4.36095 3.28134 
-3.22571 4.3909 3.29902 -3.26185 4.42071 3.31657 -3.29815 4.4504 3.33399 
-3.33463 4.47996 3.35128 -3.37127 4.50938 3.36845 -3.40809 4.53866 3.38549 
-3.44507 4.56781 3.40241 -3.48222 4.59682 3.41919 -3.51954 4.62569 3.43585 
-3.55702 4.65441 3.45239 -3.59467 4.683 3.46879 -3.63248 4.71143 3.48507 
-3.67045 4.73973 3.50123 -3.70859 4.76787 3.51725 -3.74689 4.79586 3.53315 
-3.78536 4.82371 3.54893 -3.82398 4.8514 3.56457 -3.86276 4.87893 3.58009 
-3.9017 4.90631 3.59548 -3.94081 4.93354 3.61074 -3.98007 4.96061 3.62587 
-4.01949 4.98751 3.64087 -4.05906 5.01426 3.65574 -4.0988 5.04084 3.67048 
-4.13869 5.06726 3.68509 -4.17874 5.09351 3.69957 -4.21894 5.1196 3.71392 
-4.2593 5.14552 3.72813 -4.29981 5.17126 3.74222 -4.34048 5.19684 3.75617 
-4.3813 5.22225 3.76998 -4.42227 5.24748 3.78367 -4.4634 5.27253 3.79721 
-4.50467 5.29741 3.81063 -4.5461 5.32211 3.82391 -4.58768 5.34663 3.83705 
-4.62941 5.37097 3.85006 -4.67129 5.39512 3.86294 -4.71332 5.41909 3.87568 
-4.75549 5.44288 3.88828 -4.79781 5.46647 3.90075 -4.84027 5.48988 3.91308 
-4.88288 5.51309 3.92527 -4.92564 5.53611 3.93733 -4.96853 5.55894 3.94926 
-5.01157 5.58156 3.96104 -5.05475 5.60399 3.97269 -5.09807 5.62622 3.9842 
-5.14152 5.64825 3.99558 -5.18512 5.67008 4.00682 -5.22885 5.6917 4.01792 
-5.27272 5.71311 4.02888 -5.31673 5.73432 4.03971 -5.36087 5.75531 4.05039 
-5.40514 5.7761 4.06094 -5.44954 5.79667 4.07136 -5.49408 5.81702 4.08163 
-5.53875 5.83716 4.09176 -5.58355 5.85708 4.10176 -5.62848 5.87678 4.11162 
-5.67353 5.89625 4.12134 -5.71871 5.91549 4.13093 -5.76402 5.93451 4.14037 
-5.80944 5.9533 4.14968 -5.855 5.97186 4.15885 -5.90067 5.99018 4.16789 
-5.94647 6.00826 4.17678 -5.99238 6.02611 4.18554 -6.03842 6.04371 4.19416 
-6.08457 6.06108 4.20264 -6.13084 6.0782 4.21098 -6.17723 6.09507 4.21919 
-6.22373 6.11169 4.22726 -6.27034 6.12806 4.23519 -6.31707 6.14418 4.24298 
-6.3639 6.16005 4.25064 -6.41085 6.17565 4.25816 -6.4579 6.191 4.26554 
-6.50507 6.20608 4.27278 -6.55233 6.22089 4.27989 -6.59971 6.23543 4.28687 
-6.64718 6.2497 4.29371 -6.69476 6.26369 4.30042 -6.74243 6.27741 4.30699 
-6.7902 6.29084 4.31343 -6.83807 6.30398 4.31974 -6.88604 6.31684 4.32591 
-6.9341 6.32941 4.33196 -6.98225 6.34168 4.33787 -7.03049 6.35365 4.34365 
-7.07882 6.36533 4.34931 -7.12724 6.3767 4.35483 -7.17575 6.38776 4.36022 
-7.22434 6.39852 4.36549 -7.27302 6.40896 4.37063 -7.32177 6.41908 4.37564 
-7.37061 6.42889 4.38052 -7.41953 6.43838 4.38528 -7.46852 6.44753 4.38992 
-7.51758 6.45636 4.39443 -7.56671 6.46485 4.39882 -7.61591 6.47301 4.40309 
-7.66518 6.48082 4.40725 -7.71451 6.48828 4.41129 -7.7639 6.4954 4.41521 
-7.81334 6.50216 4.41902 -7.86285 6.50856 4.42272 -7.9124 6.5146 4.4263 
-7.96201 6.52028 4.42978 -8.01167 6.52559 4.43315 -8.06137 6.53052 4.43641 
-8.11112 6.53508 4.43956 -8.1609 6.53925 4.44261 -8.21073 6.54304 4.44556 
-8.26059 6.54644 4.4484 -8.31049 6.54945 4.45115 -8.36042 6.55206 4.4538 
-8.41037 6.55427 4.45635 -8.46035 6.55608 4.45881 -8.51034 6.55748 4.46118 
-8.56035 6.55847 4.46346 -8.61037 6.55905 4.46566 -8.6604 6.55921 4.46778 
-8.71043 6.55895 4.46983 -8.76046 6.55826 4.47179 -8.81048 6.55715 4.47368 
-8.86049 6.55561 4.47551 -8.91049 6.55363 4.47726 -8.96047 6.55121 4.47896 
-9.01043 6.54835 4.48059 -9.06037 6.54505 4.48216 -9.11027 6.54129 4.48368 
-9.16014 6.53709 4.48514 -9.20998 6.53243 4.48656 -9.25977 6.5273 4.48793 
-9.30951 6.52172 4.48925 -9.35921 6.51567 4.49053 -9.40885 6.50916 4.49178 
-9.45843 6.50218 4.49299 -9.50795 6.49473 4.49417 -9.55739 6.48681 4.49533 
-9.60676 6.47842 4.49647 -9.65604 6.46956 4.49759 -9.70525 6.46024 4.4987 
-9.75435 6.45044 4.49981 -9.80337 6.44017 4.5009 -9.85228 6.42943 4.502 
-9.90108 6.41821 4.5031 -9.94977 6.40652 4.50421 -9.99834 6.39436 4.50534 
-10.0468 6.38172 4.50648 -10.0951 6.3686 4.50763 -10.1433 6.35501 4.50882 
-10.1913 6.34094 4.51003 -10.2393 6.3264 4.51128 -10.287 6.31137 4.51256 
-10.3346 6.29587 4.51388 -10.3821 6.27988 4.51525 -10.4293 6.26343 4.51667 
-10.4765 6.24651 4.51814 -10.5234 6.22913 4.51967 -10.5702 6.21128 4.52125 
-10.6168 6.19298 4.5229 -10.6632 6.17422 4.52462 -10.7094 6.15501 4.52641 
-10.7555 6.13536 4.52827 -10.8013 6.11527 4.53022 -10.8469 6.09474 4.53224 
-10.8924 6.07377 4.53436 -10.9376 6.05237 4.53656 -10.9827 6.03055 4.53885 
-11.0275 6.00831 4.54125 -11.0721 5.98564 4.54375 -11.1164 5.96256 4.54635 
-11.1606 5.93907 4.54906 -11.2045 5.91517 4.55188 -11.2482 5.89087 4.55482 
-11.2916 5.86617 4.55788 -11.3348 5.84107 4.56106 -11.3778 5.81559 4.56436 
-11.4206 5.78973 4.56779 -11.4631 5.76349 4.57134 -11.5053 5.73689 4.57502 
-11.5473 5.70993 4.57882 -11.5891 5.6826 4.58276 -11.6306 5.65493 4.58682 
-11.6719 5.62692 4.59102 -11.713 5.59857 4.59535 -11.7538 5.56988 4.59982 
-11.7943 5.54088 4.60442 -11.8346 5.51155 4.60917 -11.8747 5.48191 4.61405 
-11.9145 5.45196 4.61907 -11.9541 5.42171 4.62424 -11.9934 5.39117 4.62955 
-12.0325 5.36034 4.635 -12.0713 5.32923 4.64061 -12.1098 5.29784 4.64636 
-12.1482 5.26618 4.65226 -12.1862 5.23425 4.6583 -12.2241 5.20207 4.66449 
-12.2616 5.16962 4.67082 -12.299 5.13693 4.6773 -12.3361 5.10399 4.68391 
-12.3729 5.07081 4.69067 -12.4095 5.0374 4.69757 -12.4459 5.00375 4.70461 
-12.482 4.96988 4.71178 -12.5179 4.9358 4.7191 -12.5536 4.90149 4.72655 
-12.5891 4.86698 4.73413 -12.6243 4.83227 4.74185 -12.6593 4.79735 4.7497 
-12.694 4.76225 4.75769 -12.7286 4.72695 4.7658 -12.7629 4.69147 4.77405 
-12.797 4.65581 4.78242 -12.8309 4.61998 4.79092 -12.8645 4.58398 4.79955 
-12.898 4.54781 4.80831 -12.9312 4.51148 4.81718 -12.9642 4.47499 4.82617 
-12.997 4.43833 4.83528 -13.0296 4.40153 4.8445 -13.062 4.36457 4.85383 
-13.0942 4.32746 4.86327 -13.1262 4.29021 4.87281 -13.158 4.25281 4.88246 
-13.1896 4.21527 4.89221 -13.221 4.17759 4.90206 -13.2522 4.13978 4.912 
-13.2833 4.10184 4.92204 -13.3141 4.06377 4.93216 -13.3448 4.02557 4.94238 
-13.3752 3.98726 4.95268 -13.4055 3.94882 4.96306 -13.4356 3.91026 4.97353 
-13.4656 3.87159 4.98407 -13.4953 3.83281 4.99469 -13.5249 3.79392 5.00538 
-13.5543 3.75491 5.01613 -13.5835 3.7158 5.02695 -13.6126 3.67657 5.03783 
-13.6415 3.63724 5.04877 -13.6702 3.59781 5.05977 -13.6988 3.55826 5.07081 
-13.7272 3.51862 5.0819 -13.7555 3.47886 5.09304 -13.7835 3.43901 5.10421 
-13.8114 3.39905 5.11543 -13.8392 3.35899 5.12667 -13.8668 3.31883 5.13795 
-13.8943 3.27857 5.14925 -13.9215 3.23821 5.16057 -13.9487 3.19775 5.17191 
-13.9757 3.1572 5.18327 -14.0025 3.11655 5.19465 -14.0292 3.07581 5.20603 
-14.0557 3.03497 5.21741 -14.0821 2.99403 5.2288 -14.1083 2.953 5.24018 
[...]
CELL_DATA 1
FIELD FieldData 2
Length 1 1 double
63.965139713 
Tortuosity 1 1 double
2.3313310405 
POINT_DATA 1280
SCALARS MaximumInscribedSphereRadius float
LOOKUP_TABLE default
0.93 0.943371 0.956742 0.970113 0.983484 0.996855 1.01023 1.0236 1.03697 
1.05034 1.06371 1.07708 1.09045 1.10382 1.11719 1.13056 1.14394 1.15731 
1.17068 1.18405 1.19631 1.20798 1.21966 1.23133 1.24301 1.25468 1.26636 
1.27804 1.28971 1.30139 1.31306 1.32474 1.33641 1.34809 1.35976 1.37144 
1.38312 1.39479 1.40647 1.41814 1.42982 1.44149 1.44364 1.4445 1.44535 
1.44621 1.44706 1.44791 1.44877 1.44962 1.45048 1.45133 1.45219 1.45304 
1.4539 1.45475 1.4556 1.45646 1.45731 1.45817 1.45902 1.45787 1.45274 
1.44761 1.44247 1.43734 1.43221 1.42708 1.42195 1.41681 1.41168 1.40655 
1.40142 1.39629 1.39115 1.38602 1.38089 1.37576 1.37062 1.36549 1.36036 
1.35523 1.34936 1.34326 1.33717 1.33107 1.32498 1.31888 1.31279 1.30669 
1.3006 1.2945 1.2884 1.28231 1.27621 1.27012 1.26402 1.25793 1.25183 
1.24574 1.23964 1.23354 1.22748 1.22145 1.21542 1.20939 1.20336 1.19733 
1.1913 1.18526 1.17923 1.1732 1.16717 1.16114 1.15511 1.14907 1.14304 
1.13701 1.13098 1.12495 1.11892 1.11289 1.1071 1.10208 1.09706 1.09204 
1.08702 1.082 1.07698 1.07196 1.06694 1.06192 1.0569 1.05188 1.04686 
1.04184 1.03682 1.0318 1.02678 1.02176 1.01674 1.01172 1.0067 1.0094 
1.01246 1.01553 1.01859 1.02166 1.02472 1.02779 1.03085 1.03392 1.03698 
1.04005 1.04311 1.04618 1.04924 1.05231 1.05537 1.05844 1.0615 1.06457 
1.06763 1.07644 1.08817 1.09991 1.11165 1.12339 1.13513 1.14687 1.15861 
1.17034 1.18208 1.19382 1.20556 1.2173 1.22904 1.24078 1.25251 1.26425 
1.27599 1.28773 1.29947 1.30912 1.3152 1.32128 1.32735 1.33343 1.33951 
1.34558 1.35166 1.35773 1.36381 1.36989 1.37596 1.38204 1.38812 1.39419 
1.40027 1.40634 1.41242 1.4185 1.42457 1.4297 1.42289 1.41609 1.40928 
1.40248 1.39567 1.38886 1.38206 1.37525 1.36845 1.36164 1.35484 1.34803 
1.34123 1.33442 1.32762 1.32081 1.31401 1.3072 1.30039 1.29359 1.28322 
1.27184 1.26046 1.24908 1.2377 1.22632 1.21494 1.20356 1.19217 1.18079 
1.16941 1.15803 1.14665 1.13527 1.12389 1.11251 1.10113 1.08975 1.07836 
1.06698 1.05797 1.05151 1.04506 1.0386 1.03214 1.02568 1.01923 1.01277 
1.00631 0.999852 0.993394 0.986936 0.980479 0.974021 0.967563 0.961105 0.954647 
0.94819 0.941732 0.935274 0.930065 0.930418 0.93077 0.931123 0.931476 0.931829 
0.932182 0.932535 0.932887 0.93324 0.933593 0.933946 0.934299 0.934652 0.935004 
0.935357 0.93571 0.936063 0.936416 0.936769 0.937121 0.938902 0.940868 0.942835 
0.944801 0.946767 0.948733 0.9507 0.952666 0.954632 0.956598 0.958565 0.960531 
0.962497 0.964463 0.96643 0.968396 0.970362 0.972329 0.974295 0.976261 0.980952 
0.987584 0.994216 1.00085 1.00748 1.01411 1.02074 1.02737 1.03401 1.04064 
1.04727 1.0539 1.06053 1.06717 1.0738 1.08043 1.08706 1.09369 1.10032 
1.10696 1.11285 1.1169 1.12096 1.12501 1.12906 1.13312 1.13717 1.14123 
1.14528 1.14933 1.15339 1.15744 1.16149 1.16555 1.1696 1.17365 1.17771 
1.18176 1.18582 1.18987 1.19392 1.19002 1.18604 1.18206 1.17808 1.1741 
1.17012 1.16614 1.16216 1.15818 1.1542 1.15022 1.14624 1.14226 1.13828 
1.1343 1.13032 1.12634 1.12236 1.11838 1.1144 1.10894 1.10284 1.09673 
1.09063 1.08452 1.07842 1.07231 1.06621 1.0601 1.054 1.04789 1.04179 
1.03568 1.02958 1.02347 1.01737 1.01126 1.00516 0.999054 0.992949 0.986821 
0.980659 0.974497 0.968335 0.962173 0.956011 0.94985 0.943688 0.937526 0.931364 
0.925202 0.91904 0.912878 0.906716 0.900555 0.894393 0.888231 0.882069 0.875907 
0.869745 0.863559 0.857177 0.850796 0.844415 0.838033 0.831652 0.825271 0.818889 
0.812508 0.806126 0.799745 0.793364 0.786982 0.780601 0.77422 0.767838 0.761457 
0.755076 0.748694 0.742313 0.735932 0.730336 0.724913 0.719491 0.714068 0.708646 
0.703223 0.697801 0.692378 0.686956 0.681533 0.676111 0.670688 0.665266 0.659843 
0.654421 0.648998 0.643576 0.638153 0.632731 0.627308 0.624613 0.62444 0.624268 
0.624095 0.623922 0.623749 0.623576 0.623404 0.623231 0.623058 0.622885 0.622712 
0.62254 0.622367 0.622194 0.622021 0.621848 0.621675 0.621503 0.62133 0.621479 
0.622771 0.624063 0.625355 0.626647 0.627939 0.629231 0.630524 0.631816 0.633108 
0.6344 0.635692 0.636984 0.638276 0.639568 0.64086 0.642152 0.643445 0.644737 
0.646029 0.647321 0.653686 0.66059 0.667495 0.674399 0.681303 0.688207 0.695112 
0.702016 0.70892 0.715825 0.722729 0.729633 0.736538 0.743442 0.750346 0.75725 
0.764155 0.771059 0.777963 0.784868 0.79078 0.796033 0.801286 0.806539 0.811792 
0.817045 0.822298 0.827551 0.832804 0.838057 0.843311 0.848564 0.853817 0.85907 
0.864323 0.869576 0.874829 0.880082 0.885335 0.890588 0.89481 0.896569 0.898329 
0.900088 0.901847 0.903606 0.905365 0.907124 0.908884 0.910643 0.912402 0.914161 
0.91592 0.917679 0.919439 0.921198 0.922957 0.924716 0.926475 0.928234 0.929994 
0.931001 0.932005 0.93301 0.934014 0.935019 0.936023 0.937028 0.938032 0.939036 
0.940041 0.941045 0.94205 0.943054 0.944059 0.945063 0.946068 0.947072 0.948077 
0.949081 0.950086 0.952761 0.956148 0.959536 0.962923 0.966311 0.969698 0.973086 
0.976473 0.979861 0.983248 0.986636 0.990023 0.993411 0.996798 1.00019 1.00357 
1.00696 1.01035 1.01374 1.01712 1.02167 1.02791 1.03414 1.04038 1.04661 
1.05285 1.05909 1.06532 1.07156 1.07779 1.08403 1.09026 1.0965 1.10274 
1.10897 1.11521 1.12144 1.12768 1.13391 1.14015 1.14652 1.15395 1.16138 
1.16881 1.17624 1.18367 1.1911 1.19853 1.20596 1.21339 1.22082 1.22825 
1.23568 1.24311 1.25054 1.25797 1.2654 1.27283 1.28026 1.28769 1.29512 
1.31042 1.32737 1.34432 1.36128 1.37823 1.39518 1.41214 1.42909 1.44605 
1.463 1.47995 1.49691 1.51386 1.53082 1.54777 1.56472 1.58168 1.59863 
1.61559 1.63254 1.64934 1.666 1.68266 1.69932 1.71598 1.73264 1.7493 
1.76596 1.78262 1.79928 1.81594 1.8326 1.84926 1.86592 1.88258 1.89925 
1.91591 1.93257 1.94923 1.96589 1.97961 1.98429 1.98897 1.99365 1.99833 
2.00301 2.00769 2.01237 2.01705 2.02173 2.02641 2.03109 2.03577 2.04045 
2.04513 2.04981 2.05449 2.05917 2.06385 2.06853 2.07321 2.0704 2.0672 
2.06401 2.06081 2.05761 2.05442 2.05122 2.04802 2.04483 2.04163 2.03843 
2.03524 2.03204 2.02884 2.02565 2.02245 2.01925 2.01606 2.01286 2.00967 
2.00472 1.99893 1.99314 1.98734 1.98155 1.97576 1.96996 1.96417 1.95838 
1.95259 1.94679 1.941 1.93521 1.92941 1.92362 1.91783 1.91204 1.90624 
1.90045 1.89466 1.88868 1.88234 1.876 1.86966 1.86332 1.85698 1.85064 
1.8443 1.83796 1.83162 1.82528 1.81894 1.8126 1.80626 1.79992 1.79358 
1.78724 1.7809 1.77456 1.76822 1.76175 1.75455 1.74736 1.74016 1.73296 
1.72576 1.71857 1.71137 1.70417 1.69697 1.68978 1.68258 1.67538 1.66818 
1.66099 1.65379 1.64659 1.63939 1.6322 1.625 1.6178 1.60948 1.60055 
1.59163 1.58271 1.57378 1.56486 1.55593 1.54701 1.53808 1.52916 1.52024 
1.51131 1.50239 1.49346 1.48454 1.47561 1.46669 1.45777 1.44884 1.43992 
1.43224 1.42645 1.42065 1.41485 1.40905 1.40326 1.39746 1.39166 1.38587 
1.38007 1.37427 1.36848 1.36268 1.35688 1.35108 1.34529 1.33949 1.33369 
1.3279 1.3221 1.31669 1.31878 1.32087 1.32296 1.32504 1.32713 1.32922 
1.33131 1.33339 1.33548 1.33757 1.33966 1.34175 1.34383 1.34592 1.34801 
1.3501 1.35218 1.35427 1.35636 1.35845 1.36383 1.3705 1.37717 1.38384 
1.39051 1.39718 1.40384 1.41051 1.41718 1.42385 1.43052 1.43719 1.44385 
1.45052 1.45719 1.46386 1.47053 1.4772 1.48386 1.49053 1.49789 1.50653 
1.51516 1.52379 1.53242 1.54106 1.54969 1.55832 1.56695 1.57559 1.58422 
1.59285 1.60148 1.61012 1.61875 1.62738 1.63601 1.64464 1.65328 1.66191 
1.67036 1.67704 1.68372 1.6904 1.69708 1.70376 1.71044 1.71712 1.72381 
1.73049 1.73717 1.74385 1.75053 1.75721 1.76389 1.77057 1.77726 1.78394 
1.79062 1.7973 1.80398 1.80753 1.81022 1.81291 1.8156 1.81829 1.82098 
1.82367 1.82636 1.82905 1.83174 1.83443 1.83712 1.83981 1.8425 1.8452 
1.84789 1.85058 1.85327 1.85596 1.85865 1.86 1.86 1.86 1.86 
1.86 1.86 1.86 1.86 1.86 1.86 1.86 1.86 1.86 
1.86 1.86 1.86 1.86 1.86 1.86 1.86 1.86 1.86 
1.86 1.86 1.86 1.86 1.86 1.86 1.86 1.86 1.86 
1.86 1.86 1.86 1.86 1.86 1.86 1.86 1.86 1.86 
1.86 1.86 1.86 1.86 1.86 1.86 1.86 1.86 1.86 
1.86 1.86 1.86 1.86 1.86 1.86 1.86 1.86 1.86 
1.86 1.86 1.86 1.85941 1.85844 1.85748 1.85652 1.85555 1.85459 
1.85363 1.85266 1.8517 1.85074 1.84977 1.84881 1.84785 1.84688 1.84592 
1.84496 1.84399 1.84303 1.84207 1.8411 1.83862 1.8329 1.82719 1.82148 
1.81577 1.81005 1.80434 1.79863 1.79292 1.78721 1.78149 1.77578 1.77007 
1.76436 1.75864 1.75293 1.74722 1.74151 1.7358 1.73008 1.72439 1.72043 
1.71647 1.71251 1.70855 1.70459 1.70063 1.69667 1.69271 1.68875 1.68479 
1.68083 1.67687 1.67291 1.66895 1.66499 1.66103 1.65708 1.65312 1.64916 
1.6452 1.64576 1.64856 1.65135 1.65415 1.65694 1.65974 1.66253 1.66533 
1.66812 1.67092 1.67371 1.67651 1.6793 1.68209 1.68489 1.68768 1.69048 
1.69327 1.69607 1.69886 1.70301 1.70924 1.71547 1.7217 1.72793 1.73415 
1.74038 1.74661 1.75284 1.75907 1.7653 1.77153 1.77776 1.78399 1.79022 
1.79645 1.80268 1.80891 1.81514 1.82137 1.82735 1.82896 1.83057 1.83219 
1.8338 1.83541 1.83702 1.83863 1.84024 1.84185 1.84346 1.84507 1.84668 
1.84829 1.8499 1.85151 1.85312 1.85473 1.85634 1.85795 1.85956 1.85993 
1.85984 1.85974 1.85965 1.85956 1.85946 1.85937 1.85928 1.85918 1.85909 
1.859 1.8589 1.85881 1.85872 1.85862 1.85853 1.85843 1.85834 1.85825 
1.85815 1.85603 1.85113 1.84623 1.84133 1.83643 1.83153 1.82663 1.82173 
1.81683 1.81193 1.80703 1.80213 1.79723 1.79233 1.78743 1.78253 1.77763 
1.77273 1.76783 1.76293 1.75792 1.75214 1.74635 1.74056 1.73478 1.72899 
1.72321 1.71742 1.71163 1.70585 1.70006 1.69428 1.68849 1.6827 1.67692 
1.67113 1.66534 1.65956 1.65377 1.64799 1.6422 1.64033 1.63932 1.6383 
1.63729 1.63627 1.63525 1.63424 1.63322 1.6322 1.63119 1.63017 1.62915 
1.62814 1.62712 1.6261 1.62509 1.62407 1.62305 1.62204 1.62102 1.62247 
1.62623 1.62999 1.63375 1.63751 1.64127 1.64503 1.64879 1.65255 1.65631 
1.66007 1.66383 1.66759 1.67135 1.67511 1.67887 1.68263 1.68639 1.69015 
1.69391 1.69781 1.70209 1.70637 1.71065 1.71494 1.71922 1.7235 1.72778 
1.73207 1.73635 1.74063 1.74491 1.7492 1.75348 1.75776 1.76204 1.76633 
1.77061 1.77489 1.77917 1.78346 1.78437 1.7843 1.78422 1.78415 1.78407 
1.78399 1.78392 1.78384 1.78377 1.78369 1.78362 1.78354 1.78347 1.78339 
1.78331 1.78324 1.78316 1.78309 1.78301 1.78269 1.77719 1.77169 1.76618 
1.76068 1.75518 1.74967 1.74417 1.73867 1.73317 1.72766 1.72216 1.71666 
1.71115 1.70565 1.70015 1.69464 1.68914 1.68364 1.67813 1.67263 1.66713 
1.66148 1.65561 1.64974 1.64388 1.63801 1.63214 1.62628 1.62041 1.61454 
1.60867 1.60281 1.59694 1.59107 1.5852 1.57934 1.57347 1.5676 1.56173 
1.55587 1.55 
TEXTURE_COORDINATES TCoords 2 float
0 0 0.000781861 0 0.00156372 0 0.00234558 0 0.00312744 
0 0.0039093 0 0.00469116 0 0.00547303 0 0.00625489 0 
0.00703675 0 0.00781861 0 0.00860047 0 0.00938233 0 0.0101642 
0 0.0109461 0 0.0117279 0 0.0125098 0 0.0132916 0 
0.0140735 0 0.0148554 0 0.0156372 0 0.0164191 0 0.0172009 
0 0.0179828 0 0.0187647 0 0.0195465 0 0.0203284 0 
0.0211102 0 0.0218921 0 0.022674 0 0.0234558 0 0.0242377 
0 0.0250195 0 0.0258014 0 0.0265833 0 0.0273651 0 
0.028147 0 0.0289288 0 0.0297107 0 0.0304926 0 0.0312744 
0 0.0320563 0 0.0328382 0 0.03362 0 0.0344019 0 
0.0351837 0 0.0359656 0 0.0367475 0 0.0375293 0 0.0383112 
0 0.039093 0 0.0398749 0 0.0406568 0 0.0414386 0 
0.0422205 0 0.0430023 0 0.0437842 0 0.0445661 0 0.0453479 
0 0.0461298 0 0.0469116 0 0.0476935 0 0.0484754 0 
0.0492572 0 0.0500391 0 0.050821 0 0.0516028 0 0.0523847 
0 0.0531665 0 0.0539484 0 0.0547303 0 0.0555121 0 
0.056294 0 0.0570758 0 0.0578577 0 0.0586396 0 0.0594214 
0 0.0602033 0 0.0609851 0 0.061767 0 0.0625489 0 
0.0633307 0 0.0641126 0 0.0648944 0 0.0656763 0 0.0664582 
0 0.06724 0 0.0680219 0 0.0688037 0 0.0695856 0 
0.0703675 0 0.0711493 0 0.0719312 0 0.0727131 0 0.0734949 
0 0.0742768 0 0.0750586 0 0.0758405 0 0.0766224 0 
0.0774042 0 0.0781861 0 0.0789679 0 0.0797498 0 0.0805317 
0 0.0813135 0 0.0820954 0 0.0828772 0 0.0836591 0 
0.084441 0 0.0852228 0 0.0860047 0 0.0867866 0 0.0875684 
0 0.0883503 0 0.0891321 0 0.089914 0 0.0906959 0 
0.0914777 0 0.0922596 0 0.0930414 0 0.0938233 0 0.0946052 
0 0.095387 0 0.0961689 0 0.0969507 0 0.0977326 0 
0.0985145 0 0.0992963 0 0.100078 0 0.10086 0 0.101642 
0 0.102424 0 0.103206 0 0.103987 0 0.104769 0 
0.105551 0 0.106333 0 0.107115 0 0.107897 0 0.108679 
0 0.109461 0 0.110242 0 0.111024 0 0.111806 0 
0.112588 0 0.11337 0 0.114152 0 0.114934 0 0.115715 
0 0.116497 0 0.117279 0 0.118061 0 0.118843 0 
0.119625 0 0.120407 0 0.121188 0 0.12197 0 0.122752 
0 0.123534 0 0.124316 0 0.125098 0 0.12588 0 
0.126661 0 0.127443 0 0.128225 0 0.129007 0 0.129789 
0 0.130571 0 0.131353 0 0.132134 0 0.132916 0 
0.133698 0 0.13448 0 0.135262 0 0.136044 0 0.136826 
0 0.137607 0 0.138389 0 0.139171 0 0.139953 0 
0.140735 0 0.141517 0 0.142299 0 0.143081 0 0.143862 
0 0.144644 0 0.145426 0 0.146208 0 0.14699 0 
0.147772 0 0.148554 0 0.149335 0 0.150117 0 0.150899 
0 0.151681 0 0.152463 0 0.153245 0 0.154027 0 
0.154808 0 0.15559 0 0.156372 0 0.157154 0 0.157936 
0 0.158718 0 0.1595 0 0.160281 0 0.161063 0 
0.161845 0 0.162627 0 0.163409 0 0.164191 0 0.164973 
0 0.165754 0 0.166536 0 0.167318 0 0.1681 0 
0.168882 0 0.169664 0 0.170446 0 0.171228 0 0.172009 
0 0.172791 0 0.173573 0 0.174355 0 0.175137 0 
0.175919 0 0.176701 0 0.177482 0 0.178264 0 0.179046 
0 0.179828 0 0.18061 0 0.181392 0 0.182174 0 
0.182955 0 0.183737 0 0.184519 0 0.185301 0 0.186083 
0 0.186865 0 0.187647 0 0.188428 0 0.18921 0 
0.189992 0 0.190774 0 0.191556 0 0.192338 0 0.19312 
0 0.193901 0 0.194683 0 0.195465 0 0.196247 0 
0.197029 0 0.197811 0 0.198593 0 0.199375 0 0.200156 
0 0.200938 0 0.20172 0 0.202502 0 0.203284 0 
0.204066 0 0.204848 0 0.205629 0 0.206411 0 0.207193 
0 0.207975 0 0.208757 0 0.209539 0 0.210321 0 
0.211102 0 0.211884 0 0.212666 0 0.213448 0 0.21423 
0 0.215012 0 0.215794 0 0.216575 0 0.217357 0 
0.218139 0 0.218921 0 0.219703 0 0.220485 0 0.221267 
0 0.222048 0 0.22283 0 0.223612 0 0.224394 0 
0.225176 0 0.225958 0 0.22674 0 0.227521 0 0.228303 
0 0.229085 0 0.229867 0 0.230649 0 0.231431 0 
0.232213 0 0.232995 0 0.233776 0 0.234558 0 0.23534 
0 0.236122 0 0.236904 0 0.237686 0 0.238468 0 
0.239249 0 0.240031 0 0.240813 0 0.241595 0 0.242377 
0 0.243159 0 0.243941 0 0.244722 0 0.245504 0 
0.246286 0 0.247068 0 0.24785 0 0.248632 0 0.249414 
0 0.250195 0 0.250977 0 0.251759 0 0.252541 0 
0.253323 0 0.254105 0 0.254887 0 0.255668 0 0.25645 
0 0.257232 0 0.258014 0 0.258796 0 0.259578 0 
0.26036 0 0.261142 0 0.261923 0 0.262705 0 0.263487 
0 0.264269 0 0.265051 0 0.265833 0 0.266615 0 
0.267396 0 0.268178 0 0.26896 0 0.269742 0 0.270524 
0 0.271306 0 0.272088 0 0.272869 0 0.273651 0 
0.274433 0 0.275215 0 0.275997 0 0.276779 0 0.277561 
0 0.278342 0 0.279124 0 0.279906 0 0.280688 0 
0.28147 0 0.282252 0 0.283034 0 0.283815 0 0.284597 
0 0.285379 0 0.286161 0 0.286943 0 0.287725 0 
0.288507 0 0.289289 0 0.29007 0 0.290852 0 0.291634 
0 0.292416 0 0.293198 0 0.29398 0 0.294762 0 
0.295543 0 0.296325 0 0.297107 0 0.297889 0 0.298671 
0 0.299453 0 0.300235 0 0.301016 0 0.301798 0 
0.30258 0 0.303362 0 0.304144 0 0.304926 0 0.305708 
0 0.306489 0 0.307271 0 0.308053 0 0.308835 0 
0.309617 0 0.310399 0 0.311181 0 0.311962 0 0.312744 
0 0.313526 0 0.314308 0 0.31509 0 0.315872 0 
0.316654 0 0.317436 0 0.318217 0 0.318999 0 0.319781 
0 0.320563 0 0.321345 0 0.322127 0 0.322909 0 
0.32369 0 0.324472 0 0.325254 0 0.326036 0 0.326818 
0 0.3276 0 0.328382 0 0.329163 0 0.329945 0 
0.330727 0 0.331509 0 0.332291 0 0.333073 0 0.333855 
0 0.334636 0 0.335418 0 0.3362 0 0.336982 0 
0.337764 0 0.338546 0 0.339328 0 0.340109 0 0.340891 
0 0.341673 0 0.342455 0 0.343237 0 0.344019 0 
0.344801 0 0.345582 0 0.346364 0 0.347146 0 0.347928 
0 0.34871 0 0.349492 0 0.350274 0 0.351056 0 
0.351837 0 0.352619 0 0.353401 0 0.354183 0 0.354965 
0 0.355747 0 0.356529 0 0.35731 0 0.358092 0 
0.358874 0 0.359656 0 0.360438 0 0.36122 0 0.362002 
0 0.362783 0 0.363565 0 0.364347 0 0.365129 0 
0.365911 0 0.366693 0 0.367475 0 0.368256 0 0.369038 
0 0.36982 0 0.370602 0 0.371384 0 0.372166 0 
0.372948 0 0.373729 0 0.374511 0 0.375293 0 0.376075 
0 0.376857 0 0.377639 0 0.378421 0 0.379203 0 
0.379984 0 0.380766 0 0.381548 0 0.38233 0 0.383112 
0 0.383894 0 0.384676 0 0.385457 0 0.386239 0 
0.387021 0 0.387803 0 0.388585 0 0.389367 0 0.390149 
0 0.39093 0 0.391712 0 0.392494 0 0.393276 0 
0.394058 0 0.39484 0 0.395622 0 0.396403 0 0.397185 
0 0.397967 0 0.398749 0 0.399531 0 0.400313 0 
0.401095 0 0.401876 0 0.402658 0 0.40344 0 0.404222 
0 0.405004 0 0.405786 0 0.406568 0 0.407349 0 
0.408131 0 0.408913 0 0.409695 0 0.410477 0 0.411259 
0 0.412041 0 0.412823 0 0.413604 0 0.414386 0 
0.415168 0 0.41595 0 0.416732 0 0.417514 0 0.418296 
0 0.419077 0 0.419859 0 0.420641 0 0.421423 0 
0.422205 0 0.422987 0 0.423769 0 0.42455 0 0.425332 
0 0.426114 0 0.426896 0 0.427678 0 0.42846 0 
0.429242 0 0.430023 0 0.430805 0 0.431587 0 0.432369 
0 0.433151 0 0.433933 0 0.434715 0 0.435496 0 
0.436278 0 0.43706 0 0.437842 0 0.438624 0 0.439406 
0 0.440188 0 0.440969 0 0.441751 0 0.442533 0 
0.443315 0 0.444097 0 0.444879 0 0.445661 0 0.446443 
0 0.447224 0 0.448006 0 0.448788 0 0.44957 0 
0.450352 0 0.451134 0 0.451916 0 0.452697 0 0.453479 
0 0.454261 0 0.455043 0 0.455825 0 0.456607 0 
0.457389 0 0.45817 0 0.458952 0 0.459734 0 0.460516 
0 0.461298 0 0.46208 0 0.462862 0 0.463643 0 
0.464425 0 0.465207 0 0.465989 0 0.466771 0 0.467553 
0 0.468335 0 0.469117 0 0.469898 0 0.47068 0 
0.471462 0 0.472244 0 0.473026 0 0.473808 0 0.47459 
0 0.475371 0 0.476153 0 0.476935 0 0.477717 0 
0.478499 0 0.479281 0 0.480063 0 0.480844 0 0.481626 
0 0.482408 0 0.48319 0 0.483972 0 0.484754 0 
0.485536 0 0.486317 0 0.487099 0 0.487881 0 0.488663 
0 0.489445 0 0.490227 0 0.491009 0 0.49179 0 
0.492572 0 0.493354 0 0.494136 0 0.494918 0 0.4957 
0 0.496482 0 0.497263 0 0.498045 0 0.498827 0 
0.499609 0 0.500391 0 0.501173 0 0.501955 0 0.502737 
0 0.503518 0 0.5043 0 0.505082 0 0.505864 0 
0.506646 0 0.507428 0 0.50821 0 0.508991 0 0.509773 
0 0.510555 0 0.511337 0 0.512119 0 0.512901 0 
0.513683 0 0.514464 0 0.515246 0 0.516028 0 0.51681 
0 0.517592 0 0.518374 0 0.519156 0 0.519937 0 
0.520719 0 0.521501 0 0.522283 0 0.523065 0 0.523847 
0 0.524629 0 0.52541 0 0.526192 0 0.526974 0 
0.527756 0 0.528538 0 0.52932 0 0.530102 0 0.530883 
0 0.531665 0 0.532447 0 0.533229 0 0.534011 0 
0.534793 0 0.535575 0 0.536357 0 0.537138 0 0.53792 
0 0.538702 0 0.539484 0 0.540266 0 0.541048 0 
0.54183 0 0.542611 0 0.543393 0 0.544175 0 0.544957 
0 0.545739 0 0.546521 0 0.547303 0 0.548084 0 
0.548866 0 0.549648 0 0.55043 0 0.551212 0 0.551994 
0 0.552776 0 0.553557 0 0.554339 0 0.555121 0 
0.555903 0 0.556685 0 0.557467 0 0.558249 0 0.55903 
0 0.559812 0 0.560594 0 0.561376 0 0.562158 0 
0.56294 0 0.563722 0 0.564503 0 0.565285 0 0.566067 
0 0.566849 0 0.567631 0 0.568413 0 0.569195 0 
0.569977 0 0.570758 0 0.57154 0 0.572322 0 0.573104 
0 0.573886 0 0.574668 0 0.57545 0 0.576231 0 
0.577013 0 0.577795 0 0.578577 0 0.579359 0 0.580141 
0 0.580923 0 0.581704 0 0.582486 0 0.583268 0 
0.58405 0 0.584832 0 0.585614 0 0.586396 0 0.587177 
0 0.587959 0 0.588741 0 0.589523 0 0.590305 0 
0.591087 0 0.591869 0 0.592651 0 0.593432 0 0.594214 
0 0.594996 0 0.595778 0 0.59656 0 0.597342 0 
0.598124 0 0.598905 0 0.599687 0 0.600469 0 0.601251 
0 0.602033 0 0.602815 0 0.603597 0 0.604378 0 
0.60516 0 0.605942 0 0.606724 0 0.607506 0 0.608288 
0 0.60907 0 0.609851 0 0.610633 0 0.611415 0 
0.612197 0 0.612979 0 0.613761 0 0.614543 0 0.615324 
0 0.616106 0 0.616888 0 0.61767 0 0.618452 0 
0.619234 0 0.620016 0 0.620798 0 0.621579 0 0.622361 
0 0.623143 0 0.623925 0 0.624707 0 0.625489 0 
0.626271 0 0.627052 0 0.627834 0 0.628616 0 0.629398 
0 0.63018 0 0.630962 0 0.631744 0 0.632525 0 
0.633307 0 0.634089 0 0.634871 0 0.635653 0 0.636435 
0 0.637217 0 0.637998 0 0.63878 0 0.639562 0 
0.640344 0 0.641126 0 0.641908 0 0.64269 0 0.643471 
0 0.644253 0 0.645035 0 0.645817 0 0.646599 0 
0.647381 0 0.648163 0 0.648944 0 0.649726 0 0.650508 
0 0.65129 0 0.652072 0 0.652854 0 0.653636 0 