# vtk DataFile Version 4.2
vtk output
ASCII
DATASET POLYDATA
POINTS 1266 float
0 0 0 -0.00331645 0.00207541 0.00116346 -0.0129979 0.00811861 0.00455181 
-0.0286424 0.0178551 0.010012 -0.0498481 0.0310102 0.0173908 -0.0762131 0.0473095 0.0265354 
-0.107335 0.0664784 0.0372925 -0.142813 0.0882424 0.0495091 -0.182245 0.112327 0.0630322 
-0.225228 0.138457 0.0777086 -0.271361 0.166359 0.0933853 -0.320242 0.195758 0.109909 
-0.371469 0.226379 0.127127 -0.42464 0.257948 0.144886 -0.479354 0.29019 0.163033 
-0.535207 0.322831 0.181415 -0.5918 0.355596 0.199879 -0.648728 0.38821 0.218272 
-0.705592 0.4204 0.23644 -0.761988 0.45189 0.254231 -0.817515 0.482406 0.271491 
-0.871771 0.511673 0.288068 -0.924464 0.539493 0.303852 -0.975638 0.5659 0.318866 
-1.02541 0.590977 0.333162 -1.07388 0.614804 0.346791 -1.12118 0.637462 0.359802 
-1.1674 0.659034 0.372248 -1.21267 0.679599 0.384177 -1.2571 0.69924 0.395642 
-1.30079 0.718038 0.406692 -1.34386 0.736073 0.417379 -1.38643 0.753428 0.427753 
-1.4286 0.770183 0.437864 -1.47049 0.786419 0.447764 -1.5122 0.802219 0.457503 
-1.55386 0.817663 0.467131 -1.59557 0.832832 0.4767 -1.63745 0.847808 0.48626 
-1.67961 0.862672 0.495861 -1.72215 0.877505 0.505555 -1.7652 0.892387 0.515391 
-1.80879 0.907349 0.52539 -1.85291 0.92237 0.535544 -1.89751 0.937425 0.545843 
-1.94257 0.95249 0.556275 -1.98805 0.96754 0.566829 -2.03394 0.982551 0.577496 
-2.0802 0.997498 0.588264 -2.12679 1.01236 0.599123 -2.17369 1.0271 0.610062 
-2.22087 1.04171 0.621071 -2.2683 1.05616 0.632138 -2.31594 1.07042 0.643254 
-2.36378 1.08447 0.654407 -2.41177 1.09829 0.665587 -2.45988 1.11184 0.676783 
-2.50809 1.12512 0.687984 -2.55637 1.13808 0.69918 -2.60469 1.15071 0.710361 
-2.65301 1.16298 0.721515 -2.70131 1.17487 0.732631 -2.74956 1.18637 0.743703 
-2.79778 1.19746 0.754733 -2.84595 1.20815 0.765725 -2.89409 1.21845 0.77668 
-2.94221 1.22835 0.787604 -2.9903 1.23786 0.7985 -3.03838 1.24698 0.80937 
-3.08646 1.25571 0.820219 -3.13453 1.26406 0.83105 -3.1826 1.27203 0.841867 
-3.23068 1.27961 0.852673 -3.27878 1.28681 0.86347 -3.3269 1.29364 0.874264 
-3.37504 1.30009 0.885058 -3.42322 1.30617 0.895854 -3.47143 1.31188 0.906656 
-3.51969 1.31722 0.917468 -3.56799 1.32219 0.928294 -3.61635 1.3268 0.939136 
-3.66478 1.33105 0.949998 -3.71326 1.33493 0.960884 -3.76181 1.33846 0.971792 
-3.81042 1.34161 0.982721 -3.85908 1.3444 0.993667 -3.90779 1.34681 1.00463 
-3.95653 1.34884 1.01561 -4.00532 1.35048 1.0266 -4.05413 1.35174 1.0376 
-4.10297 1.35261 1.04861 -4.15183 1.35309 1.05962 -4.20071 1.35316 1.07064 
-4.24959 1.35283 1.08166 -4.29848 1.3521 1.09268 -4.34736 1.35095 1.10369 
-4.39624 1.34939 1.11471 -4.44511 1.34741 1.12571 -4.49396 1.34501 1.13671 
-4.54278 1.34217 1.1477 -4.59158 1.33891 1.15868 -4.64034 1.33521 1.16964 
-4.68906 1.33108 1.18058 -4.73775 1.3265 1.19151 -4.78638 1.32149 1.20242 
-4.83497 1.31604 1.21331 -4.8835 1.31015 1.22419 -4.93197 1.30384 1.23505 
-4.98039 1.29709 1.24589 -5.02875 1.28991 1.25671 -5.07703 1.28231 1.26752 
-5.12525 1.27428 1.27831 -5.1734 1.26583 1.28909 -5.22148 1.25696 1.29985 
-5.26947 1.24767 1.31059 -5.31739 1.23796 1.32132 -5.36522 1.22783 1.33203 
-5.41296 1.21729 1.34272 -5.46061 1.20634 1.3534 -5.50817 1.19498 1.36406 
-5.55562 1.18321 1.37471 -5.60298 1.17103 1.38534 -5.65024 1.15845 1.39595 
-5.69739 1.14546 1.40655 -5.74443 1.13208 1.41714 -5.79136 1.11831 1.42772 
-5.83817 1.10414 1.43829 -5.88488 1.0896 1.44887 -5.93146 1.07468 1.45944 
-5.97792 1.05938 1.47002 -6.02426 1.04372 1.4806 -6.07048 1.0277 1.49119 
-6.11657 1.01131 1.5018 -6.16253 0.994573 1.51242 -6.20836 0.977487 1.52306 
-6.25406 0.960058 1.53372 -6.29962 0.942289 1.54441 -6.34504 0.924187 1.55512 
-6.39032 0.905756 1.56587 -6.43546 0.887001 1.57665 -6.48046 0.867927 1.58747 
-6.52531 0.848538 1.59832 -6.57 0.82884 1.60923 -6.61455 0.808838 1.62017 
-6.65895 0.788536 1.63117 -6.70319 0.767941 1.64223 -6.74728 0.747057 1.65334 
-6.79122 0.725891 1.66452 -6.835 0.704447 1.67578 -6.87863 0.682731 1.68711 
-6.92211 0.660749 1.69851 -6.96542 0.638506 1.71001 -7.00858 0.616008 1.72159 
-7.05159 0.593259 1.73327 -7.09443 0.570266 1.74505 -7.13712 0.547033 1.75694 
-7.17965 0.523567 1.76893 -7.22202 0.499872 1.78104 -7.26422 0.475954 1.79327 
-7.30627 0.451819 1.80562 -7.34816 0.427472 1.81811 -7.38988 0.402918 1.83072 
-7.43145 0.378163 1.84348 -7.47285 0.353213 1.85638 -7.51408 0.328071 1.86943 
-7.55516 0.302744 1.88262 -7.59607 0.277237 1.89597 -7.63683 0.251554 1.90947 
-7.67742 0.2257 1.92312 -7.71786 0.19968 1.93693 -7.75813 0.173499 1.9509 
-7.79825 0.147163 1.96503 -7.83821 0.120675 1.97932 -7.87802 0.0940417 1.99378 
-7.91766 0.0672674 2.0084 -7.95716 0.040357 2.02319 -7.9965 0.0133155 2.03815 
-8.03568 -0.013852 2.05328 -8.07472 -0.0411407 2.06859 -8.1136 -0.0685456 2.08407 
-8.15232 -0.0960616 2.09973 -8.1909 -0.123684 2.11557 -8.22933 -0.151408 2.13159 
-8.2676 -0.179228 2.14779 -8.30573 -0.20714 2.16418 -8.34372 -0.23514 2.18074 
-8.38156 -0.263227 2.19749 -8.41926 -0.291395 2.2144 -8.45683 -0.319642 2.23149 
-8.49427 -0.347964 2.24874 -8.53157 -0.376359 2.26616 -8.56875 -0.404822 2.28374 
-8.6058 -0.43335 2.30148 -8.64273 -0.46194 2.31937 -8.67955 -0.490589 2.33741 
-8.71624 -0.519294 2.3556 -8.75283 -0.54805 2.37394 -8.78931 -0.576855 2.39242 
-8.82568 -0.605705 2.41103 -8.86195 -0.634597 2.42979 -8.89812 -0.663528 2.44867 
-8.93419 -0.692494 2.46768 -8.97017 -0.721492 2.48682 -9.00605 -0.750518 2.50608 
-9.04185 -0.779571 2.52546 -9.07757 -0.808648 2.54495 -9.1132 -0.837751 2.56455 
-9.14877 -0.866877 2.58423 -9.18427 -0.896028 2.604 -9.2197 -0.925202 2.62385 
-9.25507 -0.954399 2.64377 -9.29039 -0.983619 2.66375 -9.32567 -1.01286 2.68378 
-9.36089 -1.04212 2.70385 -9.39608 -1.07141 2.72396 -9.43124 -1.10072 2.7441 
-9.46636 -1.13004 2.76425 -9.50147 -1.15939 2.78442 -9.53655 -1.18875 2.80459 
-9.57162 -1.21814 2.82475 -9.60667 -1.24754 2.8449 -9.64173 -1.27696 2.86502 
-9.67678 -1.3064 2.88512 -9.71184 -1.33586 2.90517 -9.74691 -1.36533 2.92518 
-9.78199 -1.39483 2.94513 -9.81709 -1.42434 2.96501 -9.85222 -1.45387 2.98482 
-9.88737 -1.48342 3.00455 -9.92256 -1.513 3.02418 -9.95778 -1.5426 3.04371 
-9.99305 -1.57223 3.06313 -10.0284 -1.60189 3.08242 -10.0637 -1.63157 3.10159 
-10.0991 -1.66129 3.12062 -10.1346 -1.69104 3.13949 -10.1702 -1.72082 3.15821 
-10.2058 -1.75063 3.17677 -10.2414 -1.78048 3.19514 -10.2772 -1.81037 3.21334 
-10.313 -1.84029 3.23133 -10.349 -1.87026 3.24913 -10.385 -1.90027 3.26671 
-10.4211 -1.93031 3.28407 -10.4573 -1.96041 3.3012 -10.4936 -1.99055 3.31806 
-10.53 -2.02075 3.33462 -10.5666 -2.05101 3.35083 -10.6032 -2.08135 3.36665 
-10.6399 -2.11176 3.38203 -10.6768 -2.14227 3.39692 -10.7138 -2.17287 3.41129 
-10.7509 -2.20357 3.42508 -10.7881 -2.23438 3.43826 -10.8254 -2.26532 3.45078 
-10.8629 -2.29637 3.46259 -10.9005 -2.32757 3.47365 -10.9382 -2.3589 3.48391 
-10.976 -2.39039 3.49333 -11.014 -2.42203 3.50187 -11.0521 -2.45384 3.50948 
-11.0904 -2.48582 3.51612 -11.1288 -2.51799 3.52174 -11.1673 -2.55034 3.52629 
-11.206 -2.58289 3.52974 -11.2448 -2.61563 3.53205 -11.2837 -2.64855 3.53319 
-11.3225 -2.68162 3.53315 -11.3614 -2.71482 3.53189 -11.4001 -2.74813 3.52941 
-11.4386 -2.78153 3.52568 -11.4769 -2.815 3.52069 -11.515 -2.84852 3.5144 
-11.5526 -2.88206 3.5068 -11.5899 -2.91561 3.49787 -11.6267 -2.94914 3.48758 
-11.6629 -2.98263 3.47593 -11.6986 -3.01606 3.46288 -11.7336 -3.04941 3.44841 
-11.7679 -3.08265 3.43251 -11.8015 -3.11578 3.41515 -11.8342 -3.14876 3.39632 
-11.866 -3.18157 3.37598 -11.8969 -3.2142 3.35413 -11.9268 -3.24661 3.33074 
-11.9556 -3.27881 3.30581 -11.9833 -3.31079 3.27941 -12.0101 -3.34255 3.25161 
-12.0357 -3.37411 3.22248 -12.0603 -3.40548 3.19209 -12.0839 -3.43665 3.16052 
-12.1064 -3.46764 3.12782 -12.1278 -3.49846 3.09408 -12.1482 -3.5291 3.05937 
-12.1676 -3.55958 3.02375 -12.1859 -3.5899 2.9873 -12.2032 -3.62008 2.95008 
-12.2194 -3.65011 2.91218 -12.2346 -3.68 2.87366 -12.2488 -3.70977 2.83458 
-12.2619 -3.73941 2.79503 -12.274 -3.76893 2.75507 -12.285 -3.79835 2.71478 
-12.295 -3.82767 2.67422 -12.304 -3.85689 2.63347 -12.312 -3.88602 2.59259 
-12.3189 -3.91509 2.55161 -12.3248 -3.9441 2.51057 -12.3297 -3.97309 2.46947 
-12.3336 -4.00207 2.42837 -12.3365 -4.03105 2.38727 -12.3383 -4.06007 2.34621 
-12.3392 -4.08913 2.30521 -12.3392 -4.11827 2.2643 -12.3381 -4.14749 2.22351 
-12.3361 -4.17682 2.18286 -12.3331 -4.20627 2.14238 -12.3291 -4.23588 2.1021 
-12.3242 -4.26565 2.06204 -12.3184 -4.2956 2.02223 -12.3116 -4.32577 1.9827 
-12.3039 -4.35615 1.94347 -12.2953 -4.38679 1.90457 -12.2857 -4.41769 1.86602 
-12.2752 -4.44887 1.82786 -12.2638 -4.48035 1.79011 -12.2515 -4.51214 1.75281 
-12.2384 -4.54422 1.71599 -12.2243 -4.57659 1.6797 -12.2094 -4.60924 1.64399 
-12.1936 -4.64217 1.60888 -12.1769 -4.67535 1.57442 -12.1594 -4.7088 1.54065 
-12.1411 -4.7425 1.50761 -12.1219 -4.77644 1.47534 -12.1019 -4.81062 1.44388 
-12.0812 -4.84503 1.41328 -12.0596 -4.87966 1.38356 -12.0372 -4.9145 1.35478 
-12.014 -4.94955 1.32698 -11.9901 -4.9848 1.30019 -11.9654 -5.02024 1.27445 
-11.94 -5.05586 1.24981 -11.9138 -5.09167 1.2263 -11.8868 -5.12764 1.20397 
-11.8592 -5.16377 1.18286 -11.8308 -5.20006 1.16296 -11.8018 -5.23647 1.14428 
-11.7721 -5.273 1.12678 -11.7418 -5.30963 1.11046 -11.711 -5.34634 1.09529 
-11.6796 -5.38311 1.08126 -11.6477 -5.41992 1.06836 -11.6153 -5.45676 1.05656 
-11.5825 -5.49362 1.04585 -11.5493 -5.53046 1.03622 -11.5157 -5.56728 1.02764 
-11.4818 -5.60406 1.02011 -11.4476 -5.64078 1.0136 -11.4131 -5.67742 1.00809 
-11.3784 -5.71397 1.00358 -11.3434 -5.75041 1.00004 -11.3083 -5.78672 0.99746 
-11.273 -5.82288 0.99582 -11.2377 -5.85888 0.995105 -11.2022 -5.8947 0.995297 
-11.1667 -5.93033 0.996372 -11.1312 -5.96578 0.998296 -11.0956 -6.00106 1.00103 
-11.0599 -6.03617 1.00455 -11.0243 -6.07112 1.00881 -10.9886 -6.10591 1.01377 
-10.9529 -6.14056 1.01941 -10.9171 -6.17507 1.02569 -10.8814 -6.20945 1.03257 
-10.8456 -6.24371 1.04001 -10.8099 -6.27784 1.04799 -10.7741 -6.31187 1.05646 
[...]
CELL_DATA 1
FIELD FieldData 2
Length 1 1 double
63.112619872 
Tortuosity 1 1 double
1.1991945911 
POINT_DATA 1266
SCALARS MaximumInscribedSphereRadius float
LOOKUP_TABLE default
1.55 1.54114 1.53229 1.52343 1.51458 1.50572 1.49687 1.48801 1.47916 
1.4703 1.46145 1.45259 1.44374 1.43488 1.42603 1.41717 1.40832 1.39946 
1.39061 1.38175 1.3729 1.36402 1.35488 1.34574 1.3366 1.32746 1.31832 
1.30918 1.30004 1.2909 1.28176 1.27262 1.26348 1.25434 1.2452 1.23606 
1.22692 1.21778 1.20864 1.1995 1.19036 1.18151 1.17302 1.16452 1.15602 
1.14753 1.13903 1.13053 1.12203 1.11354 1.10504 1.09654 1.08804 1.07955 
1.07105 1.06255 1.05405 1.04556 1.03706 1.02856 1.02006 1.01295 1.01391 
1.01487 1.01583 1.01679 1.01774 1.0187 1.01966 1.02062 1.02158 1.02254 
1.0235 1.02446 1.02542 1.02637 1.02733 1.02829 1.02925 1.03021 1.03117 
1.03213 1.03997 1.04902 1.05807 1.06712 1.07617 1.08523 1.09428 1.10333 
1.11238 1.12143 1.13048 1.13953 1.14858 1.15763 1.16668 1.17574 1.18479 
1.19384 1.20289 1.21194 1.22106 1.23024 1.23941 1.24859 1.25777 1.26694 
1.27612 1.28529 1.29447 1.30364 1.31282 1.322 1.33117 1.34035 1.34952 
1.3587 1.36788 1.37705 1.38623 1.3954 1.40374 1.41008 1.41642 1.42276 
1.4291 1.43543 1.44177 1.44811 1.45445 1.46078 1.46712 1.47346 1.4798 
1.48613 1.49247 1.49881 1.50515 1.51149 1.51782 1.52416 1.53036 1.52569 
1.52101 1.51634 1.51166 1.50698 1.50231 1.49763 1.49296 1.48828 1.48361 
1.47893 1.47426 1.46958 1.46491 1.46023 1.45556 1.45088 1.4462 1.44153 
1.43685 1.43394 1.43168 1.42942 1.42717 1.42491 1.42265 1.42039 1.41814 
1.41588 1.41362 1.41137 1.40911 1.40685 1.40459 1.40234 1.40008 1.39782 
1.39557 1.39331 1.39105 1.38986 1.39002 1.39017 1.39033 1.39049 1.39064 
1.3908 1.39096 1.39111 1.39127 1.39143 1.39158 1.39174 1.3919 1.39205 
1.39221 1.39237 1.39252 1.39268 1.39284 1.39339 1.39613 1.39887 1.40161 
1.40435 1.4071 1.40984 1.41258 1.41532 1.41806 1.4208 1.42354 1.42629 
1.42903 1.43177 1.43451 1.43725 1.43999 1.44274 1.44548 1.44822 1.45049 
1.45269 1.45489 1.45709 1.45929 1.46149 1.46369 1.46589 1.46809 1.47029 
1.47248 1.47468 1.47688 1.47908 1.48128 1.48348 1.48568 1.48788 1.49008 
1.49228 1.48494 1.47044 1.45594 1.44144 1.42694 1.41244 1.39795 1.38345 
1.36895 1.35445 1.33995 1.32545 1.31096 1.29646 1.28196 1.26746 1.25296 
1.23846 1.22397 1.20947 1.19617 1.18569 1.17522 1.16474 1.15426 1.14378 
1.13331 1.12283 1.11235 1.10187 1.0914 1.08092 1.07044 1.05996 1.04949 
1.03901 1.02853 1.01805 1.00758 0.997097 0.98981 0.996202 1.00259 1.00899 
1.01538 1.02177 1.02816 1.03456 1.04095 1.04734 1.05373 1.06013 1.06652 
1.07291 1.0793 1.0857 1.09209 1.09848 1.10487 1.11126 1.11763 1.12206 
1.12649 1.13093 1.13536 1.13979 1.14422 1.14866 1.15309 1.15752 1.16195 
1.16638 1.17082 1.17525 1.17968 1.18411 1.18854 1.19298 1.19741 1.20184 
1.20627 1.20851 1.21013 1.21176 1.21338 1.215 1.21662 1.21825 1.21987 
1.22149 1.22312 1.22474 1.22636 1.22799 1.22961 1.23123 1.23286 1.23448 
1.2361 1.23772 1.23935 1.24 1.24 1.24 1.24 1.24 1.24 
1.24 1.24 1.24 1.24 1.24 1.24 1.24 1.24 1.24 
1.24 1.24 1.24 1.24 1.24 1.24 1.24 1.24 1.24 
1.24 1.24 1.24 1.24 1.24 1.24 1.24 1.24 1.24 
1.24 1.24 1.24 1.24 1.24 1.24 1.24 1.24084 1.24693 
1.25302 1.25911 1.2652 1.27129 1.27738 1.28346 1.28955 1.29564 1.30173 
1.30782 1.31391 1.32 1.32609 1.33218 1.33826 1.34435 1.35044 1.35653 
1.36262 1.3905 1.42242 1.45433 1.48625 1.51816 1.55008 1.582 1.61391 
1.64583 1.67774 1.70966 1.74157 1.77349 1.8054 1.83732 1.86923 1.90115 
1.93306 1.96498 1.99689 2.01799 2.03068 2.04336 2.05605 2.06874 2.08142 
2.09411 2.1068 2.11949 2.13217 2.14486 2.15755 2.17023 2.18292 2.19561 
2.2083 2.22098 2.23367 2.24636 2.25904 2.25245 2.23341 2.21437 2.19533 
2.17629 2.15725 2.13822 2.11918 2.10014 2.0811 2.06206 2.04302 2.02399 
2.00495 1.98591 1.96687 1.94783 1.92879 1.90975 1.89072 1.88385 1.89267 
1.90148 1.9103 1.91912 1.92793 1.93675 1.94556 1.95438 1.96319 1.97201 
1.98082 1.98964 1.99846 2.00727 2.01609 2.0249 2.03372 2.04253 2.05135 
2.05978 2.0652 2.07062 2.07605 2.08147 2.08689 2.09232 2.09774 2.10316 
2.10859 2.11401 2.11943 2.12486 2.13028 2.1357 2.14113 2.14655 2.15197 
2.15739 2.16282 2.16824 2.12971 2.08907 2.04844 2.0078 1.96716 1.92652 
1.88588 1.84524 1.83619 1.82737 1.81855 1.80973 1.80091 1.79209 1.78326 
1.77444 1.76562 1.7568 1.74798 1.73916 1.73034 1.72152 1.7127 1.70387 
1.69505 1.68623 1.67741 1.66859 1.66022 1.65755 1.65488 1.65221 1.64954 
1.64687 1.6442 1.64153 1.63886 1.63619 1.63352 1.63085 1.62818 1.62551 
1.62284 1.62017 1.6175 1.61483 1.61216 1.60949 1.60682 1.60926 1.61521 
1.62117 1.62712 1.63308 1.63903 1.64498 1.65094 1.65689 1.66284 1.6688 
1.67475 1.68071 1.68666 1.69261 1.69857 1.70452 1.71048 1.71643 1.72238 
1.72932 1.7382 1.74708 1.75596 1.76484 1.77371 1.78259 1.79147 1.80035 
1.80923 1.8181 1.82698 1.83586 1.84474 1.85362 1.86249 1.87137 1.88025 
1.88913 1.898 1.90713 1.91892 1.93071 1.9425 1.95429 1.96609 1.97788 
1.98967 2.00146 2.01326 2.02505 2.03684 2.04863 2.06042 2.07222 2.08401 
2.0958 2.10759 2.11938 2.13118 2.14297 2.16102 2.17981 2.1986 2.21739 
2.23618 2.25498 2.27377 2.29256 2.31135 2.33014 2.34893 2.36773 2.38652 
2.40531 2.4241 2.44289 2.46169 2.48048 2.49927 2.51806 2.53065 2.54019 
2.54972 2.55926 2.56879 2.57833 2.58786 2.5974 2.60693 2.61647 2.626 
2.63554 2.64508 2.65461 2.66415 2.67368 2.68322 2.69275 2.70229 2.71182 
2.71426 2.70648 2.6987 2.69092 2.68314 2.67536 2.66758 2.6598 2.65202 
2.64424 2.63646 2.62868 2.6209 2.61312 2.60534 2.59756 2.58978 2.582 
2.57422 2.56644 2.55991 2.56097 2.56203 2.56309 2.56416 2.56522 2.56628 
2.56734 2.5684 2.56946 2.57053 2.57159 2.57265 2.57371 2.57477 2.57583 
2.5769 2.57796 2.57902 2.58008 2.58114 2.5877 2.59508 2.60246 2.60984 
2.61721 2.62459 2.63197 2.63935 2.64673 2.6541 2.66148 2.66886 2.67624 
2.68361 2.69099 2.69837 2.70575 2.71312 2.7205 2.72788 2.72814 2.72358 
2.71902 2.71445 2.70989 2.70533 2.70077 2.69621 2.69165 2.68708 2.68252 
2.67796 2.6734 2.66884 2.66427 2.65971 2.65515 2.65059 2.64603 2.64147 
2.63554 2.62664 2.61773 2.60883 2.59992 2.59101 2.58211 2.5732 2.5643 
2.55539 2.54648 2.53758 2.52867 2.51977 2.51086 2.50195 2.49305 2.48414 
2.47524 2.46633 2.45743 2.44866 2.4399 2.43114 2.42237 2.41361 2.40485 
2.39609 2.38732 2.37856 2.3698 2.36103 2.35227 2.34351 2.33474 2.32598 
2.31722 2.30845 2.29969 2.29093 2.28216 2.27371 2.26538 2.25705 2.24871 
2.24038 2.23205 2.22371 2.21538 2.20705 2.19871 2.19038 2.18204 2.17371 
2.16538 2.15704 2.14871 2.14038 2.13204 2.12371 2.11537 2.1073 2.09955 
2.09179 2.08404 2.07629 2.06854 2.06079 2.05304 2.04529 2.03754 2.02979 
2.02204 2.01429 2.00654 1.99879 1.99104 1.98329 1.97553 1.96778 1.96003 
1.95361 1.95501 1.9564 1.9578 1.9592 1.96059 1.96199 1.96338 1.96478 
1.96618 1.96757 1.96897 1.97036 1.97176 1.97316 1.97455 1.97595 1.97734 
1.97874 1.98014 1.98153 1.98981 1.99923 2.00865 2.01806 2.02748 2.0369 
2.04631 2.05573 2.06515 2.07456 2.08398 2.0934 2.10281 2.11223 2.12165 
2.13107 2.14048 2.1499 2.15932 2.16873 2.18128 2.196 2.21072 2.22544 
2.24017 2.25489 2.26961 2.28433 2.29905 2.31377 2.32849 2.34321 2.35793 
2.37265 2.38738 2.4021 2.41682 2.43154 2.44626 2.46098 2.47091 2.47239 
2.47387 2.47535 2.47683 2.47831 2.47979 2.48127 2.48275 2.48423 2.48571 
2.48719 2.48867 2.49015 2.49163 2.49311 2.49459 2.49607 2.49755 2.49903 
2.49862 2.48533 2.47205 2.45876 2.44547 2.43218 2.4189 2.40561 2.39232 
2.37903 2.36575 2.35246 2.33917 2.32588 2.3126 2.29931 2.28602 2.27273 
2.25945 2.24616 2.23287 2.22834 2.22534 2.22233 2.21933 2.21633 2.21333 
2.21033 2.20733 2.20433 2.20133 2.19833 2.19533 2.19233 2.18932 2.18632 
2.18332 2.18032 2.17732 2.17432 2.17132 2.16697 2.16157 2.15617 2.15077 
2.14537 2.13996 2.13456 2.12916 2.12376 2.11836 2.11296 2.10756 2.10215 
2.09675 2.09135 2.08595 2.08055 2.07515 2.06974 2.06434 2.05555 2.03757 
2.01959 2.00161 1.98363 1.96565 1.94767 1.92969 1.91171 1.89373 1.87576 
1.85778 1.8398 1.82182 1.80384 1.78586 1.76788 1.7499 1.73192 1.71395 
1.69597 1.69416 1.69265 1.69114 1.68963 1.68812 1.6866 1.68509 1.68358 
1.68207 1.68055 1.67904 1.67753 1.67602 1.67451 1.67299 1.67148 1.66997 
1.66846 1.66694 1.66543 1.67077 1.67912 1.68748 1.69583 1.70419 1.71254 
1.7209 1.72925 1.73761 1.74596 1.75432 1.76268 1.77103 1.77939 1.78774 
1.7961 1.80445 1.81281 1.82116 1.82952 1.83499 1.83625 1.83751 1.83876 
1.84002 1.84128 1.84254 1.84379 1.84505 1.84631 1.84757 1.84883 1.85008 
1.85134 1.8526 1.85386 1.85511 1.85637 1.85763 1.85889 1.85971 1.85716 
1.85461 1.85206 1.84951 1.84696 1.84441 1.84186 1.83931 1.83676 1.83421 
1.83166 1.82911 1.82656 1.82401 1.82146 1.81891 1.81636 1.81381 1.81126 
1.80871 1.80241 1.7953 1.78819 1.78108 1.77398 1.76687 1.75976 1.75265 
1.74555 1.73844 1.73133 1.72422 1.71712 1.71001 1.7029 1.69579 1.68869 
1.68158 1.67447 1.66736 1.66683 1.67208 1.67732 1.68256 1.68781 1.69305 
1.6983 1.70354 1.70878 1.71403 1.71927 1.72452 1.72976 1.73501 1.74025 
1.74549 1.75074 1.75598 1.76123 1.76647 1.77475 1.79248 1.81021 1.82793 
1.84566 1.86339 1.88112 1.89884 1.91657 1.9343 1.95203 1.96975 1.98748 
2.00521 2.02293 2.04066 2.05839 2.07612 2.09384 2.11157 2.1293 2.12116 
2.11185 2.10254 2.09323 2.08392 2.07461 2.0653 2.05598 2.04667 2.03736 
2.02805 2.01874 2.00943 2.00012 1.99081 1.98149 1.97218 1.96287 1.95356 
1.94425 1.93254 1.91966 1.90677 1.89389 1.881 1.86812 1.85523 1.84235 
1.82946 1.81658 1.80369 1.7908 1.77792 1.76503 1.75215 1.73926 1.72638 
1.71349 1.70061 1.68772 1.67806 1.67362 1.66917 1.66472 1.66028 1.65583 
1.65139 1.64694 1.6425 1.63805 1.63361 1.62916 1.62472 1.62027 1.61582 
1.61138 1.60693 1.60249 1.59804 1.5936 1.58976 1.59133 1.59291 1.59449 
1.59606 1.59764 1.59921 1.60079 1.60236 1.60394 1.60552 1.60709 1.60867 
1.61024 1.61182 1.61339 1.61497 1.61655 1.61812 1.6197 1.62127 1.62681 
1.63324 1.63966 1.64608 1.6525 1.65893 1.66535 1.67177 1.67819 1.68462 
1.69104 1.69746 1.70389 1.71031 1.71673 1.72315 1.72958 1.736 1.74242 
1.74884 1.74651 1.73642 1.72634 1.71625 1.70617 1.69608 1.68599 1.67591 
1.66582 1.65574 1.64565 1.63556 1.62548 1.61539 1.60531 1.59522 1.58513 
1.57505 1.56496 1.55488 1.54042 1.5254 1.51037 1.49535 1.48033 1.46531 
1.45029 1.43527 1.42025 1.40523 1.39021 1.37519 1.36017 1.34515 1.33012 
1.3151 1.30008 1.28506 1.27004 1.25502 1.24 
TEXTURE_COORDINATES TCoords 2 float
0 0 0.000790514 0 0.00158103 0 0.00237154 0 0.00316206 
0 0.00395257 0 0.00474308 0 0.0055336 0 0.00632411 0 
0.00711462 0 0.00790514 0 0.00869565 0 0.00948617 0 0.0102767 
0 0.0110672 0 0.0118577 0 0.0126482 0 0.0134387 0 
0.0142292 0 0.0150198 0 0.0158103 0 0.0166008 0 0.0173913 
0 0.0181818 0 0.0189723 0 0.0197628 0 0.0205534 0 
0.0213439 0 0.0221344 0 0.0229249 0 0.0237154 0 0.0245059 
0 0.0252964 0 0.026087 0 0.0268775 0 0.027668 0 
0.0284585 0 0.029249 0 0.0300395 0 0.03083 0 0.0316206 
0 0.0324111 0 0.0332016 0 0.0339921 0 0.0347826 0 
0.0355731 0 0.0363636 0 0.0371541 0 0.0379447 0 0.0387352 
0 0.0395257 0 0.0403162 0 0.0411067 0 0.0418972 0 
0.0426877 0 0.0434783 0 0.0442688 0 0.0450593 0 0.0458498 
0 0.0466403 0 0.0474308 0 0.0482213 0 0.0490119 0 
0.0498024 0 0.0505929 0 0.0513834 0 0.0521739 0 0.0529644 
0 0.0537549 0 0.0545455 0 0.055336 0 0.0561265 0 
0.056917 0 0.0577075 0 0.058498 0 0.0592885 0 0.0600791 
0 0.0608696 0 0.0616601 0 0.0624506 0 0.0632411 0 
0.0640316 0 0.0648221 0 0.0656127 0 0.0664032 0 0.0671937 
0 0.0679842 0 0.0687747 0 0.0695652 0 0.0703557 0 
0.0711462 0 0.0719368 0 0.0727273 0 0.0735178 0 0.0743083 
0 0.0750988 0 0.0758893 0 0.0766798 0 0.0774704 0 
0.0782609 0 0.0790514 0 0.0798419 0 0.0806324 0 0.0814229 
0 0.0822134 0 0.083004 0 0.0837945 0 0.084585 0 
0.0853755 0 0.086166 0 0.0869565 0 0.087747 0 0.0885376 
0 0.0893281 0 0.0901186 0 0.0909091 0 0.0916996 0 
0.0924901 0 0.0932806 0 0.0940711 0 0.0948617 0 0.0956522 
0 0.0964427 0 0.0972332 0 0.0980237 0 0.0988142 0 
0.0996047 0 0.100395 0 0.101186 0 0.101976 0 0.102767 
0 0.103557 0 0.104348 0 0.105138 0 0.105929 0 
0.106719 0 0.10751 0 0.1083 0 0.109091 0 0.109881 
0 0.110672 0 0.111462 0 0.112253 0 0.113043 0 
0.113834 0 0.114625 0 0.115415 0 0.116206 0 0.116996 
0 0.117787 0 0.118577 0 0.119368 0 0.120158 0 
0.120949 0 0.121739 0 0.12253 0 0.12332 0 0.124111 
0 0.124901 0 0.125692 0 0.126482 0 0.127273 0 
0.128063 0 0.128854 0 0.129644 0 0.130435 0 0.131225 
0 0.132016 0 0.132806 0 0.133597 0 0.134387 0 
0.135178 0 0.135968 0 0.136759 0 0.137549 0 0.13834 
0 0.13913 0 0.139921 0 0.140711 0 0.141502 0 
0.142292 0 0.143083 0 0.143874 0 0.144664 0 0.145455 
0 0.146245 0 0.147036 0 0.147826 0 0.148617 0 
0.149407 0 0.150198 0 0.150988 0 0.151779 0 0.152569 
0 0.15336 0 0.15415 0 0.154941 0 0.155731 0 
0.156522 0 0.157312 0 0.158103 0 0.158893 0 0.159684 
0 0.160474 0 0.161265 0 0.162055 0 0.162846 0 
0.163636 0 0.164427 0 0.165217 0 0.166008 0 0.166798 
0 0.167589 0 0.168379 0 0.16917 0 0.16996 0 
0.170751 0 0.171541 0 0.172332 0 0.173123 0 0.173913 
0 0.174704 0 0.175494 0 0.176285 0 0.177075 0 
0.177866 0 0.178656 0 0.179447 0 0.180237 0 0.181028 
0 0.181818 0 0.182609 0 0.183399 0 0.18419 0 
0.18498 0 0.185771 0 0.186561 0 0.187352 0 0.188142 
0 0.188933 0 0.189723 0 0.190514 0 0.191304 0 
0.192095 0 0.192885 0 0.193676 0 0.194466 0 0.195257 
0 0.196047 0 0.196838 0 0.197628 0 0.198419 0 
0.199209 0 0.2 0 0.200791 0 0.201581 0 0.202372 
0 0.203162 0 0.203953 0 0.204743 0 0.205534 0 
0.206324 0 0.207115 0 0.207905 0 0.208696 0 0.209486 
0 0.210277 0 0.211067 0 0.211858 0 0.212648 0 
0.213439 0 0.214229 0 0.21502 0 0.21581 0 0.216601 
0 0.217391 0 0.218182 0 0.218972 0 0.219763 0 
0.220553 0 0.221344 0 0.222134 0 0.222925 0 0.223715 
0 0.224506 0 0.225296 0 0.226087 0 0.226877 0 
0.227668 0 0.228458 0 0.229249 0 0.23004 0 0.23083 
0 0.231621 0 0.232411 0 0.233202 0 0.233992 0 
0.234783 0 0.235573 0 0.236364 0 0.237154 0 0.237945 
0 0.238735 0 0.239526 0 0.240316 0 0.241107 0 
0.241897 0 0.242688 0 0.243478 0 0.244269 0 0.245059 
0 0.24585 0 0.24664 0 0.247431 0 0.248221 0 
0.249012 0 0.249802 0 0.250593 0 0.251383 0 0.252174 
0 0.252964 0 0.253755 0 0.254545 0 0.255336 0 
0.256126 0 0.256917 0 0.257708 0 0.258498 0 0.259289 
0 0.260079 0 0.26087 0 0.26166 0 0.262451 0 
0.263241 0 0.264032 0 0.264822 0 0.265613 0 0.266403 
0 0.267194 0 0.267984 0 0.268775 0 0.269565 0 
0.270356 0 0.271146 0 0.271937 0 0.272727 0 0.273518 
0 0.274308 0 0.275099 0 0.275889 0 0.27668 0 
0.27747 0 0.278261 0 0.279051 0 0.279842 0 0.280632 
0 0.281423 0 0.282213 0 0.283004 0 0.283794 0 
0.284585 0 0.285376 0 0.286166 0 0.286957 0 0.287747 
0 0.288538 0 0.289328 0 0.290119 0 0.290909 0 
0.2917 0 0.29249 0 0.293281 0 0.294071 0 0.294862 
0 0.295652 0 0.296443 0 0.297233 0 0.298024 0 
0.298814 0 0.299605 0 0.300395 0 0.301186 0 0.301976 
0 0.302767 0 0.303557 0 0.304348 0 0.305138 0 
0.305929 0 0.306719 0 0.30751 0 0.3083 0 0.309091 
0 0.309881 0 0.310672 0 0.311462 0 0.312253 0 
0.313043 0 0.313834 0 0.314625 0 0.315415 0 0.316206 
0 0.316996 0 0.317787 0 0.318577 0 0.319368 0 
0.320158 0 0.320949 0 0.321739 0 0.32253 0 0.32332 
0 0.324111 0 0.324901 0 0.325692 0 0.326482 0 
0.327273 0 0.328063 0 0.328854 0 0.329644 0 0.330435 
0 0.331225 0 0.332016 0 0.332806 0 0.333597 0 
0.334387 0 0.335178 0 0.335968 0 0.336759 0 0.337549 
0 0.33834 0 0.33913 0 0.339921 0 0.340711 0 
0.341502 0 0.342292 0 0.343083 0 0.343874 0 0.344664 
0 0.345455 0 0.346245 0 0.347036 0 0.347826 0 
0.348617 0 0.349407 0 0.350198 0 0.350988 0 0.351779 
0 0.352569 0 0.35336 0 0.35415 0 0.354941 0 
0.355731 0 0.356522 0 0.357312 0 0.358103 0 0.358893 
0 0.359684 0 0.360474 0 0.361265 0 0.362055 0 
0.362846 0 0.363636 0 0.364427 0 0.365217 0 0.366008 
0 0.366798 0 0.367589 0 0.368379 0 0.36917 0 
0.36996 0 0.370751 0 0.371542 0 0.372332 0 0.373123 
0 0.373913 0 0.374704 0 0.375494 0 0.376285 0 
0.377075 0 0.377866 0 0.378656 0 0.379447 0 0.380237 
0 0.381028 0 0.381818 0 0.382609 0 0.383399 0 
0.38419 0 0.38498 0 0.385771 0 0.386561 0 0.387352 
0 0.388142 0 0.388933 0 0.389723 0 0.390514 0 
0.391304 0 0.392095 0 0.392885 0 0.393676 0 0.394466 
0 0.395257 0 0.396047 0 0.396838 0 0.397628 0 
0.398419 0 0.399209 0 0.4 0 0.400791 0 0.401581 
0 0.402372 0 0.403162 0 0.403953 0 0.404743 0 
0.405534 0 0.406324 0 0.407115 0 0.407905 0 0.408696 
0 0.409486 0 0.410277 0 0.411067 0 0.411858 0 
0.412648 0 0.413439 0 0.414229 0 0.41502 0 0.41581 
0 0.416601 0 0.417391 0 0.418182 0 0.418972 0 
0.419763 0 0.420553 0 0.421344 0 0.422134 0 0.422925 
0 0.423715 0 0.424506 0 0.425296 0 0.426087 0 
0.426877 0 0.427668 0 0.428459 0 0.429249 0 0.43004 
0 0.43083 0 0.431621 0 0.432411 0 0.433202 0 
0.433992 0 0.434783 0 0.435573 0 0.436364 0 0.437154 
0 0.437945 0 0.438735 0 0.439526 0 0.440316 0 
0.441107 0 0.441897 0 0.442688 0 0.443478 0 0.444269 
0 0.445059 0 0.44585 0 0.44664 0 0.447431 0 
0.448221 0 0.449012 0 0.449802 0 0.450593 0 0.451383 
0 0.452174 0 0.452964 0 0.453755 0 0.454545 0 
0.455336 0 0.456126 0 0.456917 0 0.457708 0 0.458498 
0 0.459289 0 0.460079 0 0.46087 0 0.46166 0 
0.462451 0 0.463241 0 0.464032 0 0.464822 0 0.465613 
0 0.466403 0 0.467194 0 0.467984 0 0.468775 0 
0.469565 0 0.470356 0 0.471146 0 0.471937 0 0.472727 
0 0.473518 0 0.474308 0 0.475099 0 0.475889 0 
0.47668 0 0.47747 0 0.478261 0 0.479051 0 0.479842 
0 0.480632 0 0.481423 0 0.482213 0 0.483004 0 
0.483794 0 0.484585 0 0.485375 0 0.486166 0 0.486957 
0 0.487747 0 0.488538 0 0.489328 0 0.490119 0 
0.490909 0 0.4917 0 0.49249 0 0.493281 0 0.494071 
0 0.494862 0 0.495652 0 0.496443 0 0.497233 0 
0.498024 0 0.498814 0 0.499605 0 0.500395 0 0.501186 
0 0.501976 0 0.502767 0 0.503557 0 0.504348 0 
0.505138 0 0.505929 0 0.506719 0 0.50751 0 0.5083 
0 0.509091 0 0.509881 0 0.510672 0 0.511462 0 
0.512253 0 0.513043 0 0.513834 0 0.514624 0 0.515415 
0 0.516206 0 0.516996 0 0.517787 0 0.518577 0 
0.519368 0 0.520158 0 0.520949 0 0.521739 0 0.52253 
0 0.52332 0 0.524111 0 0.524901 0 0.525692 0 
0.526482 0 0.527273 0 0.528063 0 0.528854 0 0.529644 
0 0.530435 0 0.531225 0 0.532016 0 0.532806 0 
0.533597 0 0.534387 0 0.535178 0 0.535968 0 0.536759 
0 0.537549 0 0.53834 0 0.53913 0 0.539921 0 
0.540711 0 0.541502 0 0.542292 0 0.543083 0 0.543873 
0 0.544664 0 0.545455 0 0.546245 0 0.547036 0 
0.547826 0 0.548617 0 0.549407 0 0.550198 0 0.550988 
0 0.551779 0 0.552569 0 0.55336 0 0.55415 0 
0.554941 0 0.555731 0 0.556522 0 0.557312 0 0.558103 
0 0.558893 0 0.559684 0 0.560474 0 0.561265 0 
0.562055 0 0.562846 0 0.563636 0 0.564427 0 0.565217 
0 0.566008 0 0.566798 0 0.567589 0 0.568379 0 
0.56917 0 0.56996 0 0.570751 0 0.571541 0 0.572332 
0 0.573123 0 0.573913 0 0.574704 0 0.575494 0 
0.576285 0 0.577075 0 0.577866 0 0.578656 0 0.579447 
0 0.580237 0 0.581028 0 0.581818 0 0.582609 0 
0.583399 0 0.58419 0 0.58498 0 0.585771 0 0.586561 
0 0.587352 0 0.588142 0 0.588933 0 0.589723 0 
0.590514 0 0.591304 0 0.592095 0 0.592885 0 0.593676 
0 0.594466 0 0.595257 0 0.596047 0 0.596838 0 
0.597628 0 0.598419 0 0.599209 0 0.6 0 0.600791 
0 0.601581 0 0.602372 0 0.603162 0 0.603953 0 
0.604743 0 0.605534 0 0.606324 0 0.607115 0 0.607905 
0 0.608696 0 0.609486 0 0.610277 0 0.611067 0 
0.611858 0 0.612648 0 0.613439 0 0.614229 0 0.61502 
0 0.61581 0 0.616601 0 0.617391 0 0.618182 0 
0.618972 0 0.619763 0 0.620553 0 0.621344 0 0.622134 
0 0.622925 0 0.623715 0 0.624506 0 0.625296 0 
0.626087 0 0.626877 0 0.627668 0 0.628458 0 0.629249 
0 0.63004 0 0.63083 0 0.631621 0 0.632411 0 
0.633202 0 0.633992 0 0.634783 0 0.635573 0 0.636364 
0 0.637154 0 0.637945 0 0.638735 0 0.639526 0 
0.640316 0 0.641107 0 0.641897 0 0.642688 0 0.643478 
0 0.644269 0 0.645059 0 0.64585 0 0.64664 0 
0.647431 0 0.648221 0 0.649012 0 0.649802 0 0.650593 
0 0.651383 0 0.652174 0 0.652964 0 0.653755 0 
0.654545 0 0.655336 0 0.656126 0 0.656917 0 0.657708 
0 0.658498 0 0.659289 0 0.660079 0 0.66087 0 
0.66166 0 0.662451 0 0.663241 0 0.664032 0 0.664822 
0 0.665613 0 0.666403 0 0.667194 0 0.667984 0 
0.668775 0 0.669565 0 0.670356 0 0.671146 0 0.671937 
0 0.672727 0 0.673518 0 0.674308 0 0.675099 0 
0.675889 0 0.67668 0 0.67747 0 0.678261 0 0.679051 
0 0.679842 0 0.680632 0 0.681423 0 0.682213 0 