# vtk DataFile Version 4.2
vtk output
ASCII
DATASET POLYDATA
POINTS 1276 float
0 0 0 -0.00383649 -5.64088e-05 0.00152051 -0.0150273 -0.000221775 0.00594444 
-0.0330946 -0.000490311 0.0130654 -0.0575604 -0.000856225 0.0226771 -0.0879468 -0.00131373 0.0345731 
-0.123776 -0.00185703 0.048547 -0.16457 -0.00248035 0.0643925 -0.20985 -0.00317789 0.0819032 
-0.25914 -0.00394386 0.100873 -0.31196 -0.00477247 0.121095 -0.367834 -0.00565793 0.142363 
-0.426282 -0.00659446 0.16447 -0.486828 -0.00757627 0.187211 -0.548993 -0.00859756 0.210379 
-0.612299 -0.00965254 0.233768 -0.676269 -0.0107354 0.257171 -0.740424 -0.0118404 0.280382 
-0.804287 -0.0129618 0.303194 -0.867379 -0.0140937 0.325401 -0.929223 -0.0152303 0.346797 
-0.989345 -0.016366 0.367177 -1.04751 -0.0175021 0.386446 -1.10382 -0.0186498 0.404664 
-1.1584 -0.0198212 0.421902 -1.21138 -0.0210282 0.438231 -1.26289 -0.0222828 0.453725 
-1.31306 -0.0235972 0.468454 -1.36202 -0.0249832 0.48249 -1.4099 -0.0264529 0.495905 
-1.45682 -0.0280182 0.508771 -1.50291 -0.0296913 0.521159 -1.54831 -0.0314842 0.533142 
-1.59314 -0.0334087 0.544791 -1.63753 -0.035477 0.556178 -1.6816 -0.0377011 0.567375 
-1.7255 -0.0400929 0.578453 -1.76934 -0.0426645 0.589484 -1.81325 -0.0454279 0.600541 
-1.85737 -0.048395 0.611694 -1.90182 -0.051578 0.623016 -1.94673 -0.0549888 0.634577 
-1.99215 -0.0586361 0.646412 -2.03806 -0.0625251 0.658513 -2.0844 -0.0666606 0.670868 
-2.13116 -0.0710474 0.683464 -2.17828 -0.0756903 0.69629 -2.22573 -0.0805942 0.709333 
-2.27346 -0.0857638 0.722583 -2.32145 -0.0912041 0.736027 -2.36966 -0.0969198 0.749653 
-2.41803 -0.102916 0.763449 -2.46655 -0.109197 0.777404 -2.51516 -0.115768 0.791505 
-2.56383 -0.122633 0.805741 -2.61252 -0.129799 0.8201 -2.6612 -0.137268 0.83457 
-2.70982 -0.145047 0.849139 -2.75835 -0.15314 0.863795 -2.80674 -0.161551 0.878526 
-2.85497 -0.170287 0.893321 -2.90298 -0.17935 0.908167 -2.95076 -0.188747 0.923058 
-2.99831 -0.198483 0.937997 -3.04562 -0.208561 0.952989 -3.0927 -0.218986 0.96804 
-3.13956 -0.229764 0.983156 -3.18619 -0.240899 0.998341 -3.23261 -0.252396 1.0136 
-3.27882 -0.264259 1.02894 -3.32481 -0.276494 1.04437 -3.3706 -0.289105 1.05988 
-3.41618 -0.302097 1.0755 -3.46156 -0.315474 1.09121 -3.50674 -0.329242 1.10703 
-3.55174 -0.343405 1.12296 -3.59654 -0.357968 1.13901 -3.64115 -0.372936 1.15519 
-3.68559 -0.388313 1.17149 -3.72984 -0.404104 1.18793 -3.77392 -0.420314 1.2045 
-3.81783 -0.436948 1.22122 -3.86157 -0.45401 1.23809 -3.90513 -0.471501 1.25509 
-3.94851 -0.489423 1.27224 -3.99171 -0.507775 1.28951 -4.03471 -0.526559 1.3069 
-4.07751 -0.545775 1.3244 -4.1201 -0.565425 1.342 -4.16248 -0.585508 1.3597 
-4.20464 -0.606026 1.37749 -4.24657 -0.626978 1.39536 -4.28827 -0.648367 1.4133 
-4.32973 -0.670192 1.4313 -4.37093 -0.692455 1.44937 -4.41189 -0.715156 1.46747 
-4.45259 -0.738295 1.48562 -4.49301 -0.761874 1.50381 -4.53317 -0.785894 1.52201 
-4.57304 -0.810354 1.54024 -4.61263 -0.835255 1.55847 -4.65192 -0.860599 1.57671 
-4.69091 -0.886386 1.59493 -4.7296 -0.912616 1.61314 -4.768 -0.939289 1.63132 
-4.80609 -0.966403 1.64944 -4.84388 -0.993959 1.6675 -4.88138 -1.02196 1.68548 
-4.91859 -1.05039 1.70336 -4.9555 -1.07927 1.72113 -4.99213 -1.10858 1.73877 
-5.02846 -1.13834 1.75627 -5.0645 -1.16853 1.77361 -5.10026 -1.19916 1.79078 
-5.13573 -1.23023 1.80776 -5.17092 -1.26173 1.82454 -5.20583 -1.29368 1.8411 
-5.24045 -1.32605 1.85743 -5.2748 -1.35886 1.8735 -5.30887 -1.39211 1.88931 
-5.34266 -1.42579 1.90484 -5.37618 -1.4599 1.92007 -5.40942 -1.49445 1.935 
-5.44239 -1.52942 1.94958 -5.4751 -1.56482 1.96381 -5.50753 -1.60063 1.97765 
-5.5397 -1.63684 1.99107 -5.57161 -1.67345 2.00404 -5.60325 -1.71044 2.01653 
-5.63464 -1.74782 2.02851 -5.66577 -1.78556 2.03996 -5.69664 -1.82367 2.05084 
-5.72726 -1.86213 2.06113 -5.75763 -1.90094 2.0708 -5.78775 -1.94008 2.07981 
-5.81762 -1.97955 2.08815 -5.84725 -2.01935 2.09577 -5.87664 -2.05945 2.10265 
-5.90578 -2.09986 2.10877 -5.93468 -2.14056 2.11408 -5.96335 -2.18155 2.11858 
-5.99179 -2.22282 2.12221 -6.01999 -2.26436 2.12496 -6.04795 -2.30615 2.1268 
-6.07569 -2.34818 2.12773 -6.10319 -2.3904 2.12774 -6.13046 -2.4328 2.12681 
-6.15748 -2.47534 2.12495 -6.18427 -2.518 2.12215 -6.21082 -2.56074 2.11841 
-6.23712 -2.60355 2.11371 -6.26318 -2.64638 2.10805 -6.28899 -2.68922 2.10142 
-6.31456 -2.73203 2.09382 -6.33987 -2.77478 2.08525 -6.36494 -2.81745 2.07569 
-6.38975 -2.86001 2.06513 -6.41431 -2.90243 2.05358 -6.43861 -2.94468 2.04103 
-6.46266 -2.98674 2.02746 -6.48644 -3.02857 2.01288 -6.50997 -3.07014 1.99727 
-6.53323 -3.11144 1.98064 -6.55623 -3.15242 1.96298 -6.57897 -3.19309 1.9443 
-6.60145 -3.23344 1.92465 -6.62366 -3.27346 1.90404 -6.64562 -3.31315 1.88249 
-6.66732 -3.3525 1.86005 -6.68877 -3.3915 1.83673 -6.70996 -3.43015 1.81255 
-6.7309 -3.46844 1.78755 -6.75159 -3.50637 1.76175 -6.77203 -3.54393 1.73518 
-6.79221 -3.58112 1.70786 -6.81216 -3.61792 1.67982 -6.83185 -3.65434 1.65109 
-6.8513 -3.69036 1.62168 -6.87051 -3.72599 1.59164 -6.88948 -3.76121 1.56098 
-6.9082 -3.79602 1.52973 -6.92669 -3.83041 1.49792 -6.94493 -3.86438 1.46557 
-6.96295 -3.89792 1.4327 -6.98072 -3.93105 1.39935 -6.99826 -3.96375 1.3655 
-7.01556 -3.99605 1.33119 -7.03262 -4.02795 1.29642 -7.04944 -4.05946 1.2612 
-7.06601 -4.09058 1.22555 -7.08235 -4.12133 1.18948 -7.09844 -4.15171 1.153 
-7.11429 -4.18174 1.11613 -7.12989 -4.21141 1.07887 -7.14525 -4.24074 1.04124 
-7.16036 -4.26973 1.00325 -7.17523 -4.29839 0.96492 -7.18984 -4.32674 0.926253 
-7.20421 -4.35477 0.887265 -7.21832 -4.3825 0.847969 -7.23219 -4.40993 0.808377 
-7.2458 -4.43707 0.768501 -7.25916 -4.46394 0.728355 -7.27226 -4.49053 0.68795 
-7.28511 -4.51685 0.647295 -7.2977 -4.54292 0.606396 -7.31002 -4.56873 0.565258 
-7.32207 -4.59429 0.523887 -7.33384 -4.6196 0.482288 -7.34534 -4.64467 0.440467 
-7.35654 -4.6695 0.39843 -7.36746 -4.69411 0.356181 -7.37808 -4.71848 0.313726 
-7.38841 -4.74264 0.271072 -7.39843 -4.76658 0.228222 -7.40813 -4.7903 0.185184 
-7.41753 -4.81382 0.141962 -7.42661 -4.83714 0.0985617 -7.43536 -4.86026 0.054989 
-7.44379 -4.88319 0.0112493 -7.45188 -4.90594 -0.032652 -7.45964 -4.9285 -0.0767093 
-7.46705 -4.95088 -0.120917 -7.47412 -4.9731 -0.16527 -7.48083 -4.99514 -0.209762 
-7.48719 -5.01703 -0.254387 -7.49318 -5.03875 -0.29914 -7.49881 -5.06033 -0.344015 
-7.50407 -5.08175 -0.389005 -7.50894 -5.10303 -0.434105 -7.51343 -5.12418 -0.479309 
-7.51753 -5.14519 -0.524611 -7.52124 -5.16607 -0.570004 -7.52455 -5.18683 -0.615484 
-7.52745 -5.20747 -0.661043 -7.52994 -5.228 -0.706677 -7.53202 -5.24841 -0.752379 
-7.53367 -5.26873 -0.798143 -7.5349 -5.28894 -0.843964 -7.5357 -5.30906 -0.889835 
-7.53605 -5.32908 -0.93575 -7.53597 -5.34903 -0.981705 -7.53544 -5.36889 -1.02769 
-7.53445 -5.38867 -1.07371 -7.53301 -5.40839 -1.11974 -7.53112 -5.42804 -1.16579 
-7.52876 -5.44763 -1.21184 -7.52596 -5.46717 -1.2579 -7.5227 -5.48666 -1.30394 
-7.519 -5.50611 -1.34998 -7.51485 -5.52552 -1.39599 -7.51026 -5.54491 -1.44197 
-7.50523 -5.56426 -1.48792 -7.49975 -5.5836 -1.53383 -7.49384 -5.60293 -1.57969 
-7.4875 -5.62225 -1.62549 -7.48072 -5.64156 -1.67123 -7.4735 -5.66089 -1.71689 
-7.46586 -5.68022 -1.76249 -7.45779 -5.69956 -1.80799 -7.4493 -5.71893 -1.85341 
-7.44038 -5.73833 -1.89873 -7.43104 -5.75776 -1.94394 -7.42128 -5.77723 -1.98904 
-7.4111 -5.79674 -2.03402 -7.40052 -5.81631 -2.07888 -7.38954 -5.83593 -2.12361 
-7.37816 -5.85562 -2.16822 -7.36641 -5.87539 -2.21269 -7.35428 -5.89525 -2.25702 
-7.3418 -5.91519 -2.30121 -7.32896 -5.93524 -2.34526 -7.31578 -5.95539 -2.38916 
-7.30227 -5.97566 -2.43291 -7.28844 -5.99605 -2.47651 -7.27429 -6.01658 -2.51995 
-7.25985 -6.03724 -2.56323 -7.24511 -6.05806 -2.60635 -7.23008 -6.07902 -2.64929 
-7.21479 -6.10016 -2.69207 -7.19922 -6.12146 -2.73467 -7.18341 -6.14295 -2.7771 
-7.16735 -6.16462 -2.81934 -7.15105 -6.18648 -2.8614 -7.13453 -6.20856 -2.90328 
-7.1178 -6.23084 -2.94496 -7.10085 -6.25334 -2.98644 -7.08371 -6.27607 -3.02771 
-7.06638 -6.29904 -3.06877 -7.04887 -6.32226 -3.10962 -7.03119 -6.34573 -3.15024 
-7.01335 -6.36946 -3.19063 -6.99535 -6.39347 -3.23079 -6.97721 -6.41775 -3.2707 
-6.95893 -6.44232 -3.31036 -6.94053 -6.46719 -3.34976 -6.92201 -6.49237 -3.38891 
-6.90338 -6.51786 -3.42778 -6.88466 -6.54367 -3.46638 -6.86584 -6.56981 -3.5047 
-6.84694 -6.59629 -3.54274 -6.82797 -6.62312 -3.58048 -6.80894 -6.65031 -3.61792 
-6.78985 -6.67786 -3.65505 -6.77071 -6.70579 -3.69187 -6.75154 -6.7341 -3.72837 
-6.73234 -6.7628 -3.76454 -6.71311 -6.79192 -3.80037 -6.69388 -6.82145 -3.83583 
-6.67463 -6.85143 -3.87092 -6.65539 -6.88186 -3.90563 -6.63615 -6.91275 -3.93995 
-6.61693 -6.94411 -3.97385 -6.59773 -6.97597 -4.00734 -6.57856 -7.00833 -4.04039 
-6.55943 -7.04121 -4.07299 -6.54035 -7.07462 -4.10513 -6.52132 -7.10857 -4.1368 
-6.50235 -7.14308 -4.16799 -6.48344 -7.17817 -4.19868 -6.46461 -7.21383 -4.22886 
-6.44587 -7.2501 -4.25851 -6.42721 -7.28697 -4.28763 -6.40865 -7.32447 -4.31621 
-6.3902 -7.36261 -4.34422 -6.37186 -7.4014 -4.37165 -6.35367 -7.44082 -4.39843 
-6.33565 -7.48088 -4.42451 -6.31783 -7.52156 -4.44981 -6.30024 -7.56286 -4.47427 
-6.28292 -7.60476 -4.49781 -6.26589 -7.64725 -4.52037 -6.24918 -7.69033 -4.54189 
-6.23283 -7.73398 -4.56229 -6.21685 -7.77821 -4.58151 -6.20129 -7.82298 -4.59948 
-6.18617 -7.86831 -4.61613 -6.17152 -7.91417 -4.63139 -6.15738 -7.96056 -4.6452 
-6.14376 -8.00747 -4.6575 -6.13071 -8.05489 -4.6682 -6.11825 -8.10281 -4.67725 
-6.10641 -8.15122 -4.68457 -6.09522 -8.20011 -4.69011 -6.08472 -8.24947 -4.69379 
-6.07492 -8.29929 -4.69555 -6.06584 -8.34948 -4.69539 -6.05748 -8.39993 -4.69334 
-6.04985 -8.45055 -4.68941 -6.04296 -8.50124 -4.68362 -6.0368 -8.5519 -4.676 
-6.03138 -8.60241 -4.66656 -6.02671 -8.65268 -4.65532 -6.02279 -8.70261 -4.6423 
-6.01962 -8.7521 -4.62752 -6.01721 -8.80103 -4.611 -6.01556 -8.84933 -4.59276 
-6.01469 -8.89686 -4.57283 -6.01458 -8.94355 -4.55121 -6.01525 -8.98929 -4.52793 
-6.01671 -9.03396 -4.50302 -6.01895 -9.07748 -4.47648 -6.02198 -9.11974 -4.44834 
[...]
CELL_DATA 1
FIELD FieldData 2
Length 1 1 double
63.80807094 
Tortuosity 1 1 double
0.97896436008 
POINT_DATA 1276
SCALARS MaximumInscribedSphereRadius float
LOOKUP_TABLE default
0.93 0.931911 0.933822 0.935733 0.937645 0.939556 0.941467 0.943378 0.945289 
0.9472 0.949112 0.951023 0.952934 0.954845 0.956756 0.958667 0.960579 0.96249 
0.964401 0.966312 0.968223 0.965699 0.95535 0.945001 0.934652 0.924303 0.913953 
0.903604 0.893255 0.882906 0.872557 0.862208 0.851859 0.84151 0.831161 0.820812 
0.810463 0.800114 0.789765 0.779416 0.769067 0.768912 0.783029 0.797146 0.811263 
0.82538 0.839497 0.853614 0.867731 0.881848 0.895965 0.910082 0.924199 0.938316 
0.952433 0.966549 0.980666 0.994783 1.0089 1.02302 1.03713 1.05435 1.0851 
1.11584 1.14659 1.17733 1.20808 1.23883 1.26957 1.30032 1.33106 1.36181 
1.39255 1.4233 1.45405 1.48479 1.51554 1.54628 1.57703 1.60777 1.63852 
1.66927 1.65634 1.63995 1.62357 1.60718 1.5908 1.57442 1.55803 1.54165 
1.52526 1.50888 1.4925 1.47611 1.45973 1.44334 1.42696 1.41058 1.39419 
1.37781 1.36142 1.34504 1.3293 1.31388 1.29846 1.28303 1.26761 1.25219 
1.23676 1.22134 1.20591 1.19049 1.17507 1.15964 1.14422 1.1288 1.11337 
1.09795 1.08253 1.0671 1.05168 1.03626 1.02249 1.01099 0.999483 0.98798 
0.976477 0.964974 0.953471 0.941967 0.930464 0.918961 0.907458 0.895954 0.884451 
0.872948 0.861445 0.849942 0.838438 0.826935 0.815432 0.803929 0.796332 0.805068 
0.813804 0.82254 0.831276 0.840012 0.848748 0.857484 0.866219 0.874955 0.883691 
0.892427 0.901163 0.909899 0.918635 0.927371 0.936106 0.944842 0.953578 0.962314 
0.971082 0.981939 0.992795 1.00365 1.01451 1.02536 1.03622 1.04708 1.05793 
1.06879 1.07965 1.0905 1.10136 1.11222 1.12307 1.13393 1.14478 1.15564 
1.1665 1.17735 1.18821 1.18874 1.1868 1.18486 1.18292 1.18098 1.17905 
1.17711 1.17517 1.17323 1.17129 1.16936 1.16742 1.16548 1.16354 1.1616 
1.15967 1.15773 1.15579 1.15385 1.15191 1.15316 1.15691 1.16066 1.16441 
1.16816 1.17191 1.17566 1.17941 1.18316 1.18691 1.19066 1.19441 1.19816 
1.20191 1.20566 1.20941 1.21316 1.21692 1.22067 1.22442 1.22724 1.22788 
1.22852 1.22916 1.2298 1.23044 1.23108 1.23171 1.23235 1.23299 1.23363 
1.23427 1.23491 1.23555 1.23619 1.23683 1.23747 1.23811 1.23875 1.23938 
1.24 1.24 1.24 1.24 1.24 1.24 1.24 1.24 1.24 
1.24 1.24 1.24 1.24 1.24 1.24 1.24 1.24 1.24 
1.24 1.24 1.24 1.24 1.24 1.24 1.24 1.24 1.24 
1.24 1.24 1.24 1.24 1.24 1.24 1.24 1.24 1.24 
1.24 1.24 1.24 1.24 1.24 1.24146 1.24429 1.24712 1.24995 
1.25278 1.25561 1.25844 1.26127 1.26411 1.26694 1.26977 1.2726 1.27543 
1.27826 1.28109 1.28392 1.28675 1.28958 1.29241 1.29525 1.30108 1.31578 
1.33048 1.34518 1.35988 1.37458 1.38928 1.40398 1.41868 1.43338 1.44808 
1.46277 1.47747 1.49217 1.50687 1.52157 1.53627 1.55097 1.56567 1.58037 
1.59519 1.61687 1.63854 1.66022 1.6819 1.70358 1.72526 1.74694 1.76862 
1.7903 1.81198 1.83366 1.85533 1.87701 1.89869 1.92037 1.94205 1.96373 
1.98541 2.00709 2.02877 2.0229 2.0134 2.0039 1.9944 1.9849 1.97541 
1.96591 1.95641 1.94691 1.93741 1.92792 1.91842 1.90892 1.89942 1.88992 
1.88042 1.87093 1.86143 1.85193 1.84228 1.82932 1.81635 1.80339 1.79042 
1.77746 1.7645 1.75153 1.73857 1.72561 1.71264 1.69968 1.68672 1.67375 
1.66079 1.64783 1.63486 1.6219 1.60893 1.59597 1.58301 1.58244 1.58198 
1.58153 1.58108 1.58062 1.58017 1.57971 1.57926 1.5788 1.57835 1.57789 
1.57744 1.57698 1.57653 1.57607 1.57562 1.57516 1.57471 1.57425 1.5738 
1.58124 1.59059 1.59994 1.60929 1.61864 1.62799 1.63734 1.64669 1.65604 
1.66539 1.67474 1.68409 1.69343 1.70278 1.71213 1.72148 1.73083 1.74018 
1.74953 1.75888 1.76562 1.77042 1.77521 1.78001 1.7848 1.78959 1.79439 
1.79918 1.80398 1.80877 1.81356 1.81836 1.82315 1.82795 1.83274 1.83754 
1.84233 1.84712 1.85192 1.85671 1.86 1.86 1.86 1.86 1.86 
1.86 1.86 1.86 1.86 1.86 1.86 1.86 1.86 1.86 
1.86 1.86 1.86 1.86 1.86 1.86 1.86002 1.86047 1.86092 
1.86137 1.86182 1.86227 1.86272 1.86317 1.86362 1.86408 1.86453 1.86498 
1.86543 1.86588 1.86633 1.86678 1.86723 1.86768 1.86813 1.86858 1.86903 
1.88795 1.91206 1.93616 1.96026 1.98436 2.00847 2.03257 2.05667 2.08077 
2.10488 2.12898 2.15308 2.17718 2.20128 2.22539 2.24949 2.27359 2.29769 
2.3218 2.3459 2.34765 2.33119 2.31473 2.29827 2.28181 2.26535 2.2489 
2.23244 2.21598 2.19952 2.18306 2.1666 2.15014 2.13368 2.11722 2.10076 
2.08431 2.06785 2.05139 2.03493 2.02662 2.03096 2.0353 2.03964 2.04398 
2.04832 2.05266 2.057 2.06134 2.06568 2.07002 2.07436 2.0787 2.08304 
2.08738 2.09171 2.09605 2.10039 2.10473 2.10907 2.11307 2.11592 2.11877 
2.12162 2.12448 2.12733 2.13018 2.13303 2.13588 2.13873 2.14158 2.14443 
2.14728 2.15013 2.15298 2.15583 2.15868 2.16154 2.16439 2.16724 2.17 
2.17 2.17 2.17 2.17 2.17 2.17 2.17 2.17 2.17 
2.17 2.17 2.17 2.17 2.17 2.17 2.17 2.17 2.17 
2.17 2.17 2.17533 2.18188 2.18844 2.19499 2.20154 2.20809 2.21465 
2.2212 2.22775 2.23431 2.24086 2.24741 2.25397 2.26052 2.26707 2.27362 
2.28018 2.28673 2.29328 2.29984 2.30512 2.30948 2.31384 2.31819 2.32255 
2.32691 2.33127 2.33563 2.33999 2.34434 2.3487 2.35306 2.35742 2.36178 
2.36613 2.37049 2.37485 2.37921 2.38357 2.38792 2.38842 2.38077 2.37312 
2.36547 2.35781 2.35016 2.34251 2.33486 2.32721 2.31956 2.31191 2.30426 
2.29661 2.28895 2.2813 2.27365 2.266 2.25835 2.2507 2.24305 2.23618 
2.24416 2.25215 2.26013 2.26811 2.2761 2.28408 2.29206 2.30005 2.30803 
2.31601 2.324 2.33198 2.33996 2.34795 2.35593 2.36391 2.3719 2.37988 
2.38786 2.39585 2.39497 2.39157 2.38817 2.38476 2.38136 2.37796 2.37455 
2.37115 2.36775 2.36435 2.36094 2.35754 2.35414 2.35073 2.34733 2.34393 
2.34053 2.33712 2.33372 2.33032 2.32287 2.31149 2.30011 2.28874 2.27736 
2.26598 2.25461 2.24323 2.23185 2.22048 2.2091 2.19772 2.18634 2.17497 
2.16359 2.15221 2.14084 2.12946 2.11808 2.10671 2.09541 2.08436 2.07331 
2.06226 2.05121 2.04017 2.02912 2.01807 2.00702 1.99597 1.98493 1.97388 
1.96283 1.95178 1.94073 1.92968 1.91864 1.90759 1.89654 1.88549 1.87444 
1.89693 1.92007 1.94321 1.96636 1.9895 2.01265 2.03579 2.05893 2.08208 
2.10522 2.12836 2.15151 2.17465 2.19779 2.22094 2.24408 2.26723 2.29037 
2.31351 2.33666 2.32787 2.30731 2.28674 2.26618 2.24562 2.22506 2.2045 
2.18393 2.16337 2.14281 2.12225 2.10169 2.08113 2.06056 2.04 2.01944 
1.99888 1.97832 1.95775 1.93719 1.91802 1.90019 1.88236 1.86453 1.8467 
1.82886 1.81103 1.7932 1.77537 1.75753 1.7397 1.72187 1.70404 1.68621 
1.66837 1.65054 1.63271 1.61488 1.59704 1.57921 1.56635 1.56555 1.56476 
1.56397 1.56317 1.56238 1.56159 1.56079 1.56 1.55921 1.55841 1.55762 
1.55682 1.55603 1.55524 1.55444 1.55365 1.55286 1.55206 1.55127 1.55069 
1.55469 1.55869 1.5627 1.5667 1.5707 1.5747 1.5787 1.5827 1.5867 
1.59071 1.59471 1.59871 1.60271 1.60671 1.61071 1.61471 1.61872 1.62272 
1.62672 1.63072 1.64869 1.67053 1.69237 1.71421 1.73605 1.75789 1.77973 
1.80157 1.82341 1.84525 1.86709 1.88893 1.91077 1.93261 1.95445 1.97629 
1.99813 2.01997 2.04181 2.06365 2.07148 2.06621 2.06093 2.05565 2.05037 
2.04509 2.03981 2.03454 2.02926 2.02398 2.0187 2.01342 2.00815 2.00287 
1.99759 1.99231 1.98703 1.98175 1.97648 1.9712 1.96427 1.95236 1.94044 
1.92853 1.91661 1.9047 1.89278 1.88087 1.86895 1.85703 1.84512 1.8332 
1.82129 1.80937 1.79746 1.78554 1.77363 1.76171 1.7498 1.73788 1.72597 
1.72071 1.7156 1.71048 1.70536 1.70024 1.69512 1.69 1.68488 1.67977 
1.67465 1.66953 1.66441 1.65929 1.65417 1.64906 1.64394 1.63882 1.6337 
1.62858 1.62346 1.62997 1.64123 1.65248 1.66374 1.67499 1.68625 1.6975 
1.70876 1.72002 1.73127 1.74253 1.75378 1.76504 1.77629 1.78755 1.7988 
1.81006 1.82132 1.83257 1.84383 1.85965 1.88138 1.90311 1.92484 1.94657 
1.9683 1.99003 2.01176 2.03349 2.05522 2.07695 2.09868 2.12041 2.14214 
2.16387 2.1856 2.20733 2.22906 2.25079 2.27252 2.29234 2.30218 2.31203 
2.32187 2.33172 2.34157 2.35141 2.36126 2.3711 2.38095 2.39079 2.40064 
2.41049 2.42033 2.43018 2.44002 2.44987 2.45971 2.46956 2.47941 2.48925 
2.48985 2.48936 2.48888 2.48839 2.48791 2.48743 2.48694 2.48646 2.48597 
2.48549 2.48501 2.48452 2.48404 2.48355 2.48307 2.48258 2.4821 2.48162 
2.48113 2.48065 2.47905 2.47687 2.47468 2.47249 2.47031 2.46812 2.46594 
2.46375 2.46156 2.45938 2.45719 2.45501 2.45282 2.45063 2.44845 2.44626 
2.44408 2.44189 2.4397 2.43752 2.43122 2.41956 2.40791 2.39625 2.38459 
2.37294 2.36128 2.34962 2.33796 2.32631 2.31465 2.30299 2.29133 2.27968 
2.26802 2.25636 2.24471 2.23305 2.22139 2.20973 2.19617 2.17509 2.15402 
2.13294 2.11186 2.09078 2.0697 2.04862 2.02754 2.00646 1.98539 1.96431 
1.94323 1.92215 1.90107 1.87999 1.85891 1.83783 1.81675 1.79568 1.7746 
1.77055 1.76739 1.76424 1.76109 1.75793 1.75478 1.75163 1.74847 1.74532 
1.74217 1.73901 1.73586 1.73271 1.72956 1.7264 1.72325 1.7201 1.71694 
1.71379 1.71064 1.7161 1.72554 1.73498 1.74442 1.75387 1.76331 1.77275 
1.78219 1.79164 1.80108 1.81052 1.81996 1.8294 1.83885 1.84829 1.85773 
1.86717 1.87662 1.88606 1.8955 1.90283 1.90717 1.91151 1.91585 1.92019 
1.92453 1.92887 1.93321 1.93755 1.94189 1.94623 1.95057 1.95491 1.95925 
1.96359 1.96793 1.97227 1.97661 1.98095 1.98529 1.99128 2.00722 2.02316 
2.03911 2.05505 2.07099 2.08693 2.10287 2.11882 2.13476 2.1507 2.16664 
2.18258 2.19853 2.21447 2.23041 2.24635 2.26229 2.27824 2.29418 2.31012 
2.31374 2.31551 2.31728 2.31904 2.32081 2.32257 2.32434 2.32611 2.32787 
2.32964 2.3314 2.33317 2.33494 2.3367 2.33847 2.34023 2.342 2.34377 
2.34553 2.3473 2.34311 2.3349 2.32669 2.31848 2.31028 2.30207 2.29386 
2.28565 2.27744 2.26923 2.26103 2.25282 2.24461 2.2364 2.22819 2.21999 
2.21178 2.20357 2.19536 2.18715 2.18192 2.18282 2.18372 2.18462 2.18552 
2.18642 2.18732 2.18822 2.18912 2.19001 2.19091 2.19181 2.19271 2.19361 
2.19451 2.19541 2.19631 2.19721 2.19811 2.199 2.20045 2.2105 2.22056 
2.23062 2.24068 2.25073 2.26079 2.27085 2.2809 2.29096 2.30102 2.31108 
2.32113 2.33119 2.34125 2.3513 2.36136 2.37142 2.38147 2.39153 2.40159 
2.41304 2.42485 2.43665 2.44846 2.46027 2.47207 2.48388 2.49569 2.50749 
2.5193 2.53111 2.54291 2.55472 2.56652 2.57833 2.59014 2.60194 2.61375 
2.62556 2.63736 2.64175 2.64057 2.6394 2.63822 2.63704 2.63587 2.63469 
2.63351 2.63234 2.63116 2.62999 2.62881 2.62763 2.62646 2.62528 2.6241 
2.62293 2.62175 2.62058 2.6194 2.60517 2.58341 2.56165 2.53989 2.51813 
2.49637 2.47462 2.45286 2.4311 2.40934 2.38758 2.36582 2.34407 2.32231 
2.30055 2.27879 2.25703 2.23528 2.21352 2.19176 2.17 
TEXTURE_COORDINATES TCoords 2 float
0 0 0.000784314 0 0.00156863 0 0.00235294 0 0.00313725 
0 0.00392157 0 0.00470588 0 0.0054902 0 0.00627451 0 
0.00705882 0 0.00784314 0 0.00862745 0 0.00941176 0 0.0101961 
0 0.0109804 0 0.0117647 0 0.012549 0 0.0133333 0 
0.0141176 0 0.014902 0 0.0156863 0 0.0164706 0 0.0172549 
0 0.0180392 0 0.0188235 0 0.0196078 0 0.0203922 0 
0.0211765 0 0.0219608 0 0.0227451 0 0.0235294 0 0.0243137 
0 0.025098 0 0.0258824 0 0.0266667 0 0.027451 0 
0.0282353 0 0.0290196 0 0.0298039 0 0.0305882 0 0.0313726 
0 0.0321569 0 0.0329412 0 0.0337255 0 0.0345098 0 
0.0352941 0 0.0360784 0 0.0368627 0 0.0376471 0 0.0384314 
0 0.0392157 0 0.04 0 0.0407843 0 0.0415686 0 
0.0423529 0 0.0431373 0 0.0439216 0 0.0447059 0 0.0454902 
0 0.0462745 0 0.0470588 0 0.0478431 0 0.0486275 0 
0.0494118 0 0.0501961 0 0.0509804 0 0.0517647 0 0.052549 
0 0.0533333 0 0.0541176 0 0.054902 0 0.0556863 0 
0.0564706 0 0.0572549 0 0.0580392 0 0.0588235 0 0.0596078 
0 0.0603922 0 0.0611765 0 0.0619608 0 0.0627451 0 
0.0635294 0 0.0643137 0 0.065098 0 0.0658824 0 0.0666667 
0 0.067451 0 0.0682353 0 0.0690196 0 0.0698039 0 
0.0705882 0 0.0713725 0 0.0721569 0 0.0729412 0 0.0737255 
0 0.0745098 0 0.0752941 0 0.0760784 0 0.0768627 0 
0.0776471 0 0.0784314 0 0.0792157 0 0.08 0 0.0807843 
0 0.0815686 0 0.0823529 0 0.0831373 0 0.0839216 0 
0.0847059 0 0.0854902 0 0.0862745 0 0.0870588 0 0.0878431 
0 0.0886275 0 0.0894118 0 0.0901961 0 0.0909804 0 
0.0917647 0 0.092549 0 0.0933333 0 0.0941176 0 0.094902 
0 0.0956863 0 0.0964706 0 0.0972549 0 0.0980392 0 
0.0988235 0 0.0996078 0 0.100392 0 0.101176 0 0.101961 
0 0.102745 0 0.103529 0 0.104314 0 0.105098 0 
0.105882 0 0.106667 0 0.107451 0 0.108235 0 0.10902 
0 0.109804 0 0.110588 0 0.111373 0 0.112157 0 
0.112941 0 0.113725 0 0.11451 0 0.115294 0 0.116078 
0 0.116863 0 0.117647 0 0.118431 0 0.119216 0 
0.12 0 0.120784 0 0.121569 0 0.122353 0 0.123137 
0 0.123922 0 0.124706 0 0.12549 0 0.126275 0 
0.127059 0 0.127843 0 0.128627 0 0.129412 0 0.130196 
0 0.13098 0 0.131765 0 0.132549 0 0.133333 0 
0.134118 0 0.134902 0 0.135686 0 0.136471 0 0.137255 
0 0.138039 0 0.138824 0 0.139608 0 0.140392 0 
0.141176 0 0.141961 0 0.142745 0 0.143529 0 0.144314 
0 0.145098 0 0.145882 0 0.146667 0 0.147451 0 
0.148235 0 0.14902 0 0.149804 0 0.150588 0 0.151373 
0 0.152157 0 0.152941 0 0.153725 0 0.15451 0 
0.155294 0 0.156078 0 0.156863 0 0.157647 0 0.158431 
0 0.159216 0 0.16 0 0.160784 0 0.161569 0 
0.162353 0 0.163137 0 0.163922 0 0.164706 0 0.16549 
0 0.166275 0 0.167059 0 0.167843 0 0.168627 0 
0.169412 0 0.170196 0 0.17098 0 0.171765 0 0.172549 
0 0.173333 0 0.174118 0 0.174902 0 0.175686 0 
0.176471 0 0.177255 0 0.178039 0 0.178824 0 0.179608 
0 0.180392 0 0.181176 0 0.181961 0 0.182745 0 
0.183529 0 0.184314 0 0.185098 0 0.185882 0 0.186667 
0 0.187451 0 0.188235 0 0.18902 0 0.189804 0 
0.190588 0 0.191373 0 0.192157 0 0.192941 0 0.193725 
0 0.19451 0 0.195294 0 0.196078 0 0.196863 0 
0.197647 0 0.198431 0 0.199216 0 0.2 0 0.200784 
0 0.201569 0 0.202353 0 0.203137 0 0.203922 0 
0.204706 0 0.20549 0 0.206275 0 0.207059 0 0.207843 
0 0.208627 0 0.209412 0 0.210196 0 0.21098 0 
0.211765 0 0.212549 0 0.213333 0 0.214118 0 0.214902 
0 0.215686 0 0.216471 0 0.217255 0 0.218039 0 
0.218824 0 0.219608 0 0.220392 0 0.221176 0 0.221961 
0 0.222745 0 0.223529 0 0.224314 0 0.225098 0 
0.225882 0 0.226667 0 0.227451 0 0.228235 0 0.22902 
0 0.229804 0 0.230588 0 0.231373 0 0.232157 0 
0.232941 0 0.233725 0 0.23451 0 0.235294 0 0.236078 
0 0.236863 0 0.237647 0 0.238431 0 0.239216 0 
0.24 0 0.240784 0 0.241569 0 0.242353 0 0.243137 
0 0.243922 0 0.244706 0 0.24549 0 0.246275 0 
0.247059 0 0.247843 0 0.248627 0 0.249412 0 0.250196 
0 0.25098 0 0.251765 0 0.252549 0 0.253333 0 
0.254118 0 0.254902 0 0.255686 0 0.256471 0 0.257255 
0 0.258039 0 0.258824 0 0.259608 0 0.260392 0 
0.261176 0 0.261961 0 0.262745 0 0.263529 0 0.264314 
0 0.265098 0 0.265882 0 0.266667 0 0.267451 0 
0.268235 0 0.26902 0 0.269804 0 0.270588 0 0.271373 
0 0.272157 0 0.272941 0 0.273725 0 0.27451 0 
0.275294 0 0.276078 0 0.276863 0 0.277647 0 0.278431 
0 0.279216 0 0.28 0 0.280784 0 0.281569 0 
0.282353 0 0.283137 0 0.283922 0 0.284706 0 0.28549 
0 0.286275 0 0.287059 0 0.287843 0 0.288627 0 
0.289412 0 0.290196 0 0.29098 0 0.291765 0 0.292549 
0 0.293333 0 0.294118 0 0.294902 0 0.295686 0 
0.296471 0 0.297255 0 0.298039 0 0.298824 0 0.299608 
0 0.300392 0 0.301176 0 0.301961 0 0.302745 0 
0.303529 0 0.304314 0 0.305098 0 0.305882 0 0.306667 
0 0.307451 0 0.308235 0 0.30902 0 0.309804 0 
0.310588 0 0.311373 0 0.312157 0 0.312941 0 0.313726 
0 0.31451 0 0.315294 0 0.316078 0 0.316863 0 
0.317647 0 0.318431 0 0.319216 0 0.32 0 0.320784 
0 0.321569 0 0.322353 0 0.323137 0 0.323922 0 
0.324706 0 0.32549 0 0.326275 0 0.327059 0 0.327843 
0 0.328627 0 0.329412 0 0.330196 0 0.33098 0 
0.331765 0 0.332549 0 0.333333 0 0.334118 0 0.334902 
0 0.335686 0 0.336471 0 0.337255 0 0.338039 0 
0.338824 0 0.339608 0 0.340392 0 0.341176 0 0.341961 
0 0.342745 0 0.343529 0 0.344314 0 0.345098 0 
0.345882 0 0.346667 0 0.347451 0 0.348235 0 0.34902 
0 0.349804 0 0.350588 0 0.351373 0 0.352157 0 
0.352941 0 0.353725 0 0.35451 0 0.355294 0 0.356078 
0 0.356863 0 0.357647 0 0.358431 0 0.359216 0 
0.36 0 0.360784 0 0.361569 0 0.362353 0 0.363137 
0 0.363922 0 0.364706 0 0.36549 0 0.366275 0 
0.367059 0 0.367843 0 0.368627 0 0.369412 0 0.370196 
0 0.37098 0 0.371765 0 0.372549 0 0.373333 0 
0.374118 0 0.374902 0 0.375686 0 0.376471 0 0.377255 
0 0.378039 0 0.378824 0 0.379608 0 0.380392 0 
0.381176 0 0.381961 0 0.382745 0 0.383529 0 0.384314 
0 0.385098 0 0.385882 0 0.386667 0 0.387451 0 
0.388235 0 0.38902 0 0.389804 0 0.390588 0 0.391373 
0 0.392157 0 0.392941 0 0.393725 0 0.39451 0 
0.395294 0 0.396078 0 0.396863 0 0.397647 0 0.398431 
0 0.399216 0 0.4 0 0.400784 0 0.401569 0 
0.402353 0 0.403137 0 0.403922 0 0.404706 0 0.40549 
0 0.406274 0 0.407059 0 0.407843 0 0.408627 0 
0.409412 0 0.410196 0 0.41098 0 0.411765 0 0.412549 
0 0.413333 0 0.414118 0 0.414902 0 0.415686 0 
0.416471 0 0.417255 0 0.418039 0 0.418824 0 0.419608 
0 0.420392 0 0.421176 0 0.421961 0 0.422745 0 
0.423529 0 0.424314 0 0.425098 0 0.425882 0 0.426667 
0 0.427451 0 0.428235 0 0.42902 0 0.429804 0 
0.430588 0 0.431373 0 0.432157 0 0.432941 0 0.433725 
0 0.43451 0 0.435294 0 0.436078 0 0.436863 0 
0.437647 0 0.438431 0 0.439216 0 0.44 0 0.440784 
0 0.441569 0 0.442353 0 0.443137 0 0.443922 0 
0.444706 0 0.44549 0 0.446275 0 0.447059 0 0.447843 
0 0.448627 0 0.449412 0 0.450196 0 0.45098 0 
0.451765 0 0.452549 0 0.453333 0 0.454118 0 0.454902 
0 0.455686 0 0.456471 0 0.457255 0 0.458039 0 
0.458824 0 0.459608 0 0.460392 0 0.461176 0 0.461961 
0 0.462745 0 0.463529 0 0.464314 0 0.465098 0 
0.465882 0 0.466667 0 0.467451 0 0.468235 0 0.46902 
0 0.469804 0 0.470588 0 0.471373 0 0.472157 0 
0.472941 0 0.473725 0 0.47451 0 0.475294 0 0.476078 
0 0.476863 0 0.477647 0 0.478431 0 0.479216 0 
0.48 0 0.480784 0 0.481569 0 0.482353 0 0.483137 
0 0.483922 0 0.484706 0 0.48549 0 0.486275 0 
0.487059 0 0.487843 0 0.488627 0 0.489412 0 0.490196 
0 0.49098 0 0.491765 0 0.492549 0 0.493333 0 
0.494118 0 0.494902 0 0.495686 0 0.496471 0 0.497255 
0 0.498039 0 0.498824 0 0.499608 0 0.500392 0 
0.501176 0 0.501961 0 0.502745 0 0.503529 0 0.504314 
0 0.505098 0 0.505882 0 0.506667 0 0.507451 0 
0.508235 0 0.50902 0 0.509804 0 0.510588 0 0.511373 
0 0.512157 0 0.512941 0 0.513726 0 0.51451 0 
0.515294 0 0.516078 0 0.516863 0 0.517647 0 0.518431 
0 0.519216 0 0.52 0 0.520784 0 0.521569 0 
0.522353 0 0.523137 0 0.523922 0 0.524706 0 0.52549 
0 0.526275 0 0.527059 0 0.527843 0 0.528627 0 
0.529412 0 0.530196 0 0.53098 0 0.531765 0 0.532549 
0 0.533333 0 0.534118 0 0.534902 0 0.535686 0 
0.536471 0 0.537255 0 0.538039 0 0.538824 0 0.539608 
0 0.540392 0 0.541176 0 0.541961 0 0.542745 0 
0.543529 0 0.544314 0 0.545098 0 0.545882 0 0.546667 
0 0.547451 0 0.548235 0 0.54902 0 0.549804 0 
0.550588 0 0.551373 0 0.552157 0 0.552941 0 0.553725 
0 0.55451 0 0.555294 0 0.556078 0 0.556863 0 
0.557647 0 0.558431 0 0.559216 0 0.56 0 0.560784 
0 0.561569 0 0.562353 0 0.563137 0 0.563922 0 
0.564706 0 0.56549 0 0.566275 0 0.567059 0 0.567843 
0 0.568627 0 0.569412 0 0.570196 0 0.57098 0 
0.571765 0 0.572549 0 0.573333 0 0.574118 0 0.574902 
0 0.575686 0 0.576471 0 0.577255 0 0.578039 0 
0.578824 0 0.579608 0 0.580392 0 0.581176 0 0.581961 
0 0.582745 0 0.583529 0 0.584314 0 0.585098 0 
0.585882 0 0.586667 0 0.587451 0 0.588235 0 0.58902 
0 0.589804 0 0.590588 0 0.591373 0 0.592157 0 
0.592941 0 0.593726 0 0.59451 0 0.595294 0 0.596078 
0 0.596863 0 0.597647 0 0.598431 0 0.599216 0 
0.6 0 0.600784 0 0.601569 0 0.602353 0 0.603137 
0 0.603922 0 0.604706 0 0.60549 0 0.606274 0 
0.607059 0 0.607843 0 0.608627 0 0.609412 0 0.610196 
0 0.61098 0 0.611765 0 0.612549 0 0.613333 0 
0.614118 0 0.614902 0 0.615686 0 0.616471 0 0.617255 
0 0.618039 0 0.618824 0 0.619608 0 0.620392 0 
0.621176 0 0.621961 0 0.622745 0 0.623529 0 0.624314 
0 0.625098 0 0.625882 0 0.626667 0 0.627451 0 
0.628235 0 0.62902 0 0.629804 0 0.630588 0 0.631373 
0 0.632157 0 0.632941 0 0.633725 0 0.63451 0 
0.635294 0 0.636078 0 0.636863 0 0.637647 0 0.638431 
0 0.639216 0 0.64 0 0.640784 0 0.641569 0 
0.642353 0 0.643137 0 0.643922 0 0.644706 0 0.64549 
0 0.646275 0 0.647059 0 0.647843 0 0.648627 0 
0.649412 0 0.650196 0 0.65098 0 0.651765 0 0.652549 
0 0.653333 0 0.654118 0 0.654902 0 0.655686 0 
0.656471 0 0.657255 0 0.658039 0 0.658824 0 0.659608 
0 0.660392 0 0.661176 0 0.661961 0 0.662745 0 
0.663529 0 0.664314 0 0.665098 0 0.665882 0 0.666667 
0 0.667451 0 0.668235 0 0.66902 0 0.669804 0 
0.670588 0 0.671373 0 0.672157 0 0.672941 0 0.673725 
0 0.67451 0 0.675294 0 0.676078 0 0.676863 0 