# vtk DataFile Version 4.2
vtk output
ASCII
DATASET POLYDATA
POINTS 1278 float
0 0 0 -0.00274385 0.0018683 0.00236185 -0.010754 0.00730775 0.00925173 
-0.0236984 0.0160701 0.0203762 -0.0412449 0.0279073 0.0354417 -0.0630614 0.042571 0.0541548 
-0.0888158 0.059813 0.076222 -0.118176 0.0793852 0.10135 -0.15081 0.101039 0.129245 
-0.186386 0.124527 0.159613 -0.224571 0.149601 0.192162 -0.265034 0.176012 0.226598 
-0.307442 0.203512 0.262626 -0.351463 0.231853 0.299955 -0.396766 0.260786 0.33829 
-0.443018 0.290065 0.377337 -0.489886 0.319439 0.416804 -0.53704 0.348662 0.456396 
-0.584146 0.377485 0.495821 -0.630873 0.40566 0.534785 -0.676889 0.432938 0.572994 
-0.721862 0.459072 0.610155 -0.765538 0.483873 0.646044 -0.807952 0.507367 0.680687 
-0.849202 0.529629 0.714168 -0.889384 0.550734 0.746567 -0.928596 0.570756 0.777968 
-0.966936 0.589769 0.808453 -1.0045 0.607848 0.838104 -1.04139 0.625068 0.867003 
-1.0777 0.641502 0.895233 -1.11352 0.657225 0.922876 -1.14896 0.672313 0.950015 
-1.18411 0.686838 0.976731 -1.21908 0.700876 1.00311 -1.25394 0.714502 1.02923 
-1.28882 0.727789 1.05517 -1.3238 0.740812 1.08102 -1.35897 0.753646 1.10686 
-1.39445 0.766364 1.13277 -1.43031 0.779043 1.15883 -1.46667 0.791752 1.18513 
-1.50355 0.804516 1.21169 -1.54093 0.817313 1.23848 -1.57879 0.83012 1.26548 
-1.61711 0.842914 1.29266 -1.65586 0.855671 1.32 -1.69502 0.868368 1.34747 
-1.73456 0.880984 1.37505 -1.77447 0.893493 1.4027 -1.81471 0.905874 1.43041 
-1.85528 0.918104 1.45815 -1.89613 0.930158 1.4859 -1.93726 0.942015 1.51361 
-1.97864 0.953651 1.54128 -2.02024 0.965043 1.56888 -2.06204 0.976168 1.59637 
-2.10402 0.987004 1.62374 -2.14616 0.997525 1.65096 -2.18842 1.00771 1.678 
-2.2308 1.01754 1.70483 -2.27326 1.02698 1.73144 -2.3158 1.03603 1.7578 
-2.3584 1.04467 1.78391 -2.40109 1.05292 1.80977 -2.44385 1.06077 1.83538 
-2.48671 1.06823 1.86075 -2.52965 1.0753 1.88587 -2.5727 1.08198 1.91075 
-2.61584 1.08827 1.93539 -2.6591 1.09417 1.95979 -2.70247 1.09969 1.98395 
-2.74596 1.10483 2.00787 -2.78957 1.10958 2.03156 -2.83331 1.11396 2.05501 
-2.87718 1.11797 2.07823 -2.92119 1.1216 2.10122 -2.96534 1.12485 2.12397 
-3.00965 1.12774 2.1465 -3.05411 1.13026 2.1688 -3.09872 1.13241 2.19087 
-3.1435 1.1342 2.21271 -3.18845 1.13563 2.23433 -3.23357 1.13668 2.25573 
-3.27884 1.13737 2.27688 -3.32426 1.13768 2.2978 -3.36983 1.13761 2.31848 
-3.41553 1.13715 2.33891 -3.46137 1.1363 2.35908 -3.50733 1.13505 2.379 
-3.55341 1.13339 2.39865 -3.59961 1.13133 2.41803 -3.6459 1.12886 2.43714 
-3.6923 1.12597 2.45597 -3.73879 1.12265 2.47451 -3.78537 1.11891 2.49277 
-3.83203 1.11473 2.51073 -3.87876 1.11011 2.52839 -3.92555 1.10505 2.54575 
-3.97241 1.09954 2.5628 -4.01932 1.09358 2.57953 -4.06627 1.08715 2.59595 
-4.11327 1.08026 2.61204 -4.1603 1.07291 2.6278 -4.20736 1.06509 2.64325 
-4.25444 1.05681 2.65837 -4.30153 1.04806 2.67319 -4.34862 1.03884 2.68769 
-4.39571 1.02917 2.70188 -4.4428 1.01903 2.71577 -4.48986 1.00843 2.72935 
-4.53691 0.997372 2.74264 -4.58392 0.985853 2.75564 -4.63089 0.973874 2.76834 
-4.67782 0.961437 2.78076 -4.7247 0.948541 2.79289 -4.77152 0.935189 2.80474 
-4.81827 0.92138 2.81631 -4.86494 0.907115 2.82761 -4.91154 0.892395 2.83864 
-4.95805 0.877221 2.8494 -5.00446 0.861593 2.8599 -5.05077 0.845512 2.87013 
-5.09697 0.828981 2.88011 -5.14306 0.812006 2.88984 -5.18904 0.794593 2.89934 
-5.23489 0.77675 2.9086 -5.28063 0.758482 2.91765 -5.32624 0.739796 2.92648 
-5.37172 0.720698 2.93511 -5.41706 0.701195 2.94355 -5.46228 0.681294 2.9518 
-5.50735 0.661001 2.95987 -5.55228 0.640321 2.96778 -5.59707 0.619263 2.97552 
-5.6417 0.597831 2.98312 -5.68618 0.576034 2.99058 -5.73051 0.553876 2.9979 
-5.77468 0.531365 3.0051 -5.81868 0.508507 3.01218 -5.86252 0.485309 3.01916 
-5.90619 0.461776 3.02604 -5.94969 0.437916 3.03284 -5.99301 0.413735 3.03955 
-6.03616 0.389241 3.04619 -6.07913 0.364441 3.05276 -6.12194 0.339344 3.05927 
-6.16458 0.313957 3.06573 -6.20705 0.288288 3.07213 -6.24936 0.262344 3.0785 
-6.29152 0.236134 3.08483 -6.33351 0.209666 3.09113 -6.37535 0.182947 3.09741 
-6.41704 0.155984 3.10367 -6.45857 0.128787 3.10992 -6.49996 0.101361 3.11617 
-6.5412 0.0737166 3.12241 -6.5823 0.0458599 3.12867 -6.62326 0.0177991 3.13494 
-6.66407 -0.010458 3.14124 -6.70475 -0.0389035 3.14756 -6.7453 -0.0675298 3.15391 
-6.78571 -0.096329 3.16031 -6.82599 -0.125293 3.16675 -6.86615 -0.154417 3.17324 
-6.90618 -0.183693 3.17978 -6.9461 -0.213116 3.18638 -6.98589 -0.24268 3.19303 
-7.02558 -0.27238 3.19975 -7.06516 -0.302209 3.20653 -7.10463 -0.332162 3.21337 
-7.144 -0.362232 3.22028 -7.18327 -0.392415 3.22726 -7.22245 -0.422703 3.23431 
-7.26154 -0.453091 3.24144 -7.30054 -0.483573 3.24864 -7.33946 -0.514144 3.25593 
-7.37829 -0.544797 3.26329 -7.41705 -0.575527 3.27074 -7.45574 -0.606327 3.27828 
-7.49436 -0.637193 3.28591 -7.53292 -0.668117 3.29364 -7.57141 -0.699094 3.30145 
-7.60985 -0.730118 3.30937 -7.64823 -0.761185 3.31738 -7.68656 -0.79229 3.32548 
-7.72484 -0.82343 3.33367 -7.76308 -0.8546 3.34195 -7.80128 -0.885798 3.35029 
-7.83945 -0.917018 3.35872 -7.87758 -0.948257 3.36721 -7.91569 -0.979511 3.37576 
-7.95377 -1.01078 3.38437 -7.99184 -1.04205 3.39303 -8.02989 -1.07333 3.40175 
-8.06792 -1.1046 3.4105 -8.10595 -1.13587 3.4193 -8.14398 -1.16714 3.42813 
-8.182 -1.19839 3.43699 -8.22003 -1.22962 3.44587 -8.25807 -1.26084 3.45478 
-8.29611 -1.29203 3.4637 -8.33417 -1.32319 3.47263 -8.37226 -1.35433 3.48156 
-8.41036 -1.38543 3.49049 -8.44849 -1.41649 3.49941 -8.48665 -1.44752 3.5083 
-8.52485 -1.47851 3.51715 -8.56309 -1.50947 3.52595 -8.60138 -1.54039 3.53468 
-8.63971 -1.57127 3.54334 -8.6781 -1.60211 3.55189 -8.71655 -1.63292 3.56035 
-8.75506 -1.66369 3.56868 -8.79364 -1.69442 3.57688 -8.83229 -1.72511 3.58494 
-8.87102 -1.75577 3.59284 -8.90983 -1.78638 3.60057 -8.94872 -1.81695 3.60811 
-8.98771 -1.84748 3.61546 -9.02679 -1.87797 3.62259 -9.06596 -1.90842 3.6295 
-9.10525 -1.93883 3.63618 -9.14463 -1.9692 3.6426 -9.18413 -1.99952 3.64876 
-9.22374 -2.0298 3.65463 -9.26344 -2.06004 3.66016 -9.30324 -2.09023 3.66533 
-9.34312 -2.12037 3.67011 -9.38308 -2.15047 3.67446 -9.42311 -2.18052 3.67834 
-9.4632 -2.21053 3.68173 -9.50335 -2.24048 3.68458 -9.54354 -2.27038 3.68687 
-9.58378 -2.30024 3.68857 -9.62406 -2.33004 3.68963 -9.66436 -2.35979 3.69002 
-9.70468 -2.38948 3.68972 -9.74502 -2.41912 3.68869 -9.78536 -2.44871 3.68688 
-9.8257 -2.47824 3.68428 -9.86604 -2.50771 3.68085 -9.90636 -2.53713 3.67654 
-9.94665 -2.56648 3.67134 -9.98692 -2.59578 3.6652 -10.0271 -2.62502 3.65813 
-10.0673 -2.65419 3.65011 -10.1073 -2.68331 3.64116 -10.1472 -2.71236 3.63129 
-10.187 -2.74134 3.62049 -10.2265 -2.77026 3.60878 -10.2659 -2.79911 3.59616 
-10.305 -2.82789 3.58263 -10.3438 -2.85661 3.56821 -10.3824 -2.88525 3.55288 
-10.4206 -2.91382 3.53667 -10.4585 -2.94232 3.51958 -10.496 -2.97075 3.5016 
-10.533 -2.99909 3.48275 -10.5697 -3.02737 3.46303 -10.6059 -3.05556 3.44245 
-10.6416 -3.08368 3.42102 -10.6768 -3.11172 3.39872 -10.7114 -3.13968 3.37559 
-10.7455 -3.16755 3.35161 -10.779 -3.19535 3.3268 -10.812 -3.22309 3.30121 
-10.8443 -3.25077 3.27487 -10.8761 -3.27842 3.24781 -10.9074 -3.30603 3.22007 
-10.9381 -3.33364 3.19168 -10.9682 -3.36124 3.16267 -10.9978 -3.38885 3.13309 
-11.0269 -3.41649 3.10297 -11.0555 -3.44417 3.07234 -11.0835 -3.47189 3.04124 
-11.111 -3.49967 3.0097 -11.1381 -3.52753 2.97776 -11.1646 -3.55548 2.94546 
-11.1906 -3.58352 2.91282 -11.2161 -3.61168 2.87989 -11.2412 -3.63996 2.84669 
-11.2658 -3.66837 2.81327 -11.2899 -3.69694 2.77966 -11.3135 -3.72566 2.74589 
-11.3367 -3.75457 2.712 -11.3595 -3.78364 2.67799 -11.3818 -3.81291 2.64389 
-11.4036 -3.84237 2.6097 -11.425 -3.87202 2.57543 -11.4461 -3.90188 2.54111 
-11.4666 -3.93195 2.50674 -11.4868 -3.96224 2.47234 -11.5066 -3.99275 2.43792 
-11.526 -4.02349 2.40349 -11.545 -4.05447 2.36906 -11.5636 -4.08568 2.33466 
-11.5818 -4.11715 2.30028 -11.5997 -4.14887 2.26595 -11.6172 -4.18085 2.23168 
-11.6344 -4.2131 2.19748 -11.6512 -4.24562 2.16337 -11.6676 -4.27841 2.12935 
-11.6837 -4.3115 2.09544 -11.6995 -4.34488 2.06166 -11.715 -4.37855 2.02801 
-11.7302 -4.41252 1.9945 -11.745 -4.44678 1.96115 -11.7595 -4.48134 1.92794 
-11.7737 -4.51618 1.8949 -11.7876 -4.55132 1.86202 -11.8012 -4.58674 1.82932 
-11.8145 -4.62244 1.79679 -11.8274 -4.65843 1.76444 -11.8401 -4.69469 1.73228 
-11.8524 -4.73123 1.70031 -11.8645 -4.76805 1.66855 -11.8762 -4.80514 1.63699 
-11.8877 -4.84251 1.60564 -11.8988 -4.88014 1.5745 -11.9096 -4.91804 1.54359 
-11.9202 -4.9562 1.51291 -11.9304 -4.99463 1.48246 -11.9404 -5.03331 1.45225 
-11.9501 -5.07226 1.42228 -11.9594 -5.11146 1.39257 -11.9685 -5.15091 1.3631 
-11.9773 -5.19061 1.33389 -11.9858 -5.23055 1.30491 -11.994 -5.27072 1.27618 
-12.0019 -5.31112 1.24768 -12.0096 -5.35173 1.21942 -12.0169 -5.39256 1.19139 
-12.024 -5.4336 1.16359 -12.0307 -5.47484 1.13601 -12.0372 -5.51627 1.10866 
-12.0434 -5.5579 1.08152 -12.0494 -5.5997 1.0546 -12.055 -5.64168 1.02789 
-12.0604 -5.68383 1.00139 -12.0655 -5.72614 0.975092 -12.0702 -5.76861 0.948998 
-12.0748 -5.81123 0.923103 -12.079 -5.854 0.897404 -12.083 -5.8969 0.871898 
-12.0866 -5.93993 0.846581 -12.09 -5.98309 0.821449 -12.0932 -6.02637 0.796498 
-12.096 -6.06977 0.771722 -12.0986 -6.11327 0.747115 -12.1009 -6.15689 0.722674 
-12.1029 -6.2006 0.698392 -12.1046 -6.24441 0.674264 -12.1061 -6.28832 0.650285 
-12.1073 -6.33231 0.626451 -12.1082 -6.37638 0.602755 -12.1088 -6.42052 0.579193 
-12.1092 -6.46474 0.555759 -12.1093 -6.50903 0.532449 -12.1091 -6.55338 0.509257 
-12.1087 -6.59778 0.486177 -12.108 -6.64224 0.463206 -12.107 -6.68675 0.440337 
-12.1057 -6.7313 0.417565 -12.1042 -6.77588 0.394885 -12.1024 -6.8205 0.372293 
-12.1004 -6.86515 0.349782 -12.098 -6.90982 0.32735 -12.0955 -6.95451 0.304994 
-12.0926 -6.99923 0.28271 -12.0895 -7.04395 0.260494 -12.0861 -7.08869 0.238343 
-12.0824 -7.13344 0.216254 -12.0785 -7.1782 0.194224 -12.0743 -7.22296 0.172249 
-12.0699 -7.26772 0.150326 -12.0652 -7.31247 0.128452 -12.0602 -7.35722 0.106623 
[...]
CELL_DATA 1
FIELD FieldData 2
Length 1 1 double
63.874789818 
Tortuosity 1 1 double
0.98671113359 
POINT_DATA 1278
SCALARS MaximumInscribedSphereRadius float
LOOKUP_TABLE default
1.116 1.12038 1.12476 1.12914 1.13352 1.1379 1.14228 1.14666 1.15104 
1.15542 1.1598 1.16418 1.16855 1.17293 1.17731 1.18169 1.18607 1.19045 
1.19483 1.19921 1.20359 1.20791 1.21072 1.21352 1.21633 1.21913 1.22194 
1.22475 1.22755 1.23036 1.23316 1.23597 1.23877 1.24158 1.24438 1.24719 
1.24999 1.2528 1.25561 1.25841 1.26122 1.26212 1.2614 1.26067 1.25995 
1.25922 1.2585 1.25778 1.25705 1.25633 1.2556 1.25488 1.25415 1.25343 
1.25271 1.25198 1.25126 1.25053 1.24981 1.24909 1.24836 1.24685 1.24109 
1.23532 1.22955 1.22378 1.21801 1.21225 1.20648 1.20071 1.19494 1.18917 
1.18341 1.17764 1.17187 1.1661 1.16033 1.15457 1.1488 1.14303 1.13726 
1.13149 1.12336 1.11489 1.10641 1.09794 1.08947 1.08099 1.07252 1.06405 
1.05558 1.0471 1.03863 1.03016 1.02168 1.01321 1.00474 0.996263 0.98779 
0.979317 0.970843 0.96237 0.958257 0.956952 0.955647 0.954341 0.953036 0.951731 
0.950426 0.949121 0.947815 0.94651 0.945205 0.9439 0.942595 0.941289 0.939984 
0.938679 0.937374 0.936069 0.934763 0.933458 0.934357 0.939516 0.944675 0.949835 
0.954994 0.960153 0.965312 0.970471 0.97563 0.980789 0.985948 0.991107 0.996266 
1.00143 1.00658 1.01174 1.0169 1.02206 1.02722 1.03238 1.03798 1.04973 
1.06147 1.07322 1.08496 1.0967 1.10845 1.12019 1.13193 1.14368 1.15542 
1.16716 1.17891 1.19065 1.2024 1.21414 1.22588 1.23763 1.24937 1.26111 
1.27286 1.26477 1.25128 1.2378 1.22431 1.21083 1.19734 1.18385 1.17037 
1.15688 1.1434 1.12991 1.11642 1.10294 1.08945 1.07597 1.06248 1.04899 
1.03551 1.02202 1.00854 0.999836 0.995898 0.991961 0.988023 0.984085 0.980147 
0.976209 0.972271 0.968333 0.964395 0.960458 0.95652 0.952582 0.948644 0.944706 
0.940768 0.93683 0.932892 0.928955 0.925017 0.928623 0.959792 0.990962 1.02213 
1.0533 1.08447 1.11564 1.14681 1.17798 1.20915 1.24032 1.27149 1.30266 
1.33382 1.36499 1.39616 1.42733 1.4585 1.48967 1.52084 1.55201 1.55975 
1.56573 1.57171 1.5777 1.58368 1.58967 1.59565 1.60163 1.60762 1.6136 
1.61958 1.62557 1.63155 1.63753 1.64352 1.6495 1.65548 1.66147 1.66745 
1.67344 1.66191 1.64143 1.62095 1.60047 1.58 1.55952 1.53904 1.51856 
1.49808 1.4776 1.45713 1.43665 1.41617 1.39569 1.37521 1.35473 1.33426 
1.31378 1.2933 1.27282 1.25235 1.23189 1.21142 1.19096 1.1705 1.15004 
1.12957 1.10911 1.08865 1.06819 1.04772 1.02726 1.0068 0.986335 0.965872 
0.945409 0.924946 0.904484 0.884021 0.863558 0.850822 0.870341 0.88986 0.909379 
0.928898 0.948417 0.967935 0.987454 1.00697 1.02649 1.04601 1.06553 1.08505 
1.10457 1.12409 1.14361 1.16312 1.18264 1.20216 1.22168 1.2412 1.25285 
1.2638 1.27475 1.2857 1.29665 1.3076 1.31856 1.32951 1.34046 1.35141 
1.36236 1.37331 1.38427 1.39522 1.40617 1.41712 1.42807 1.43902 1.44998 
1.46093 1.4664 1.46887 1.47134 1.47381 1.47628 1.47875 1.48122 1.48369 
1.48616 1.48863 1.4911 1.49357 1.49604 1.49851 1.50098 1.50345 1.50592 
1.50839 1.51086 1.51333 1.51182 1.50354 1.49527 1.48699 1.47871 1.47043 
1.46215 1.45388 1.4456 1.43732 1.42904 1.42076 1.41249 1.40421 1.39593 
1.38765 1.37937 1.3711 1.36282 1.35454 1.34624 1.33772 1.3292 1.32067 
1.31215 1.30363 1.29511 1.28659 1.27807 1.26954 1.26102 1.2525 1.24398 
1.23546 1.22693 1.21841 1.20989 1.20137 1.19285 1.18433 1.1758 1.16738 
1.15899 1.1506 1.1422 1.13381 1.12541 1.11702 1.10863 1.10023 1.09184 
1.08344 1.07505 1.06665 1.05826 1.04987 1.04147 1.03308 1.02468 1.01629 
1.0079 1.00453 1.00568 1.00683 1.00798 1.00913 1.01028 1.01143 1.01258 
1.01374 1.01489 1.01604 1.01719 1.01834 1.01949 1.02064 1.0218 1.02295 
1.0241 1.02525 1.0264 1.02945 1.03838 1.0473 1.05623 1.06516 1.07408 
1.08301 1.09193 1.10086 1.10979 1.11871 1.12764 1.13657 1.14549 1.15442 
1.16334 1.17227 1.1812 1.19012 1.19905 1.20797 1.22214 1.23651 1.25088 
1.26525 1.27962 1.29399 1.30836 1.32273 1.3371 1.35147 1.36584 1.38021 
1.39458 1.40895 1.42332 1.43769 1.45206 1.46643 1.4808 1.49517 1.50487 
1.51251 1.52015 1.52779 1.53542 1.54306 1.5507 1.55834 1.56597 1.57361 
1.58125 1.58889 1.59652 1.60416 1.6118 1.61944 1.62708 1.63471 1.64235 
1.64999 1.64868 1.63649 1.6243 1.6121 1.59991 1.58772 1.57553 1.56334 
1.55115 1.53895 1.52676 1.51457 1.50238 1.49019 1.478 1.46581 1.45361 
1.44142 1.42923 1.41704 1.41208 1.42091 1.42974 1.43857 1.4474 1.45623 
1.46506 1.47389 1.48272 1.49155 1.50038 1.50921 1.51804 1.52687 1.5357 
1.54453 1.55336 1.56219 1.57102 1.57985 1.58895 1.59978 1.6106 1.62143 
1.63225 1.64308 1.6539 1.66473 1.67555 1.68638 1.6972 1.70803 1.71885 
1.72968 1.7405 1.75133 1.76215 1.77298 1.7838 1.79463 1.80545 1.81558 
1.82562 1.83566 1.8457 1.85574 1.86578 1.87582 1.88586 1.8959 1.90594 
1.91598 1.92602 1.93606 1.9461 1.95614 1.96618 1.97622 1.98626 1.9963 
2.00634 2.01688 2.02772 2.03857 2.04942 2.06027 2.07111 2.08196 2.09281 
2.10366 2.1145 2.12535 2.1362 2.14704 2.15789 2.16874 2.17959 2.19043 
2.20128 2.21213 2.22298 2.2316 2.23595 2.24031 2.24467 2.24903 2.25339 
2.25775 2.26211 2.26646 2.27082 2.27518 2.27954 2.2839 2.28826 2.29262 
2.29697 2.30133 2.30569 2.31005 2.31441 2.31814 2.313 2.30786 2.30272 
2.29758 2.29244 2.28731 2.28217 2.27703 2.27189 2.26675 2.26161 2.25647 
2.25133 2.24619 2.24105 2.23591 2.23077 2.22563 2.22049 2.21535 2.21483 
2.21554 2.21625 2.21696 2.21766 2.21837 2.21908 2.21979 2.2205 2.22121 
2.22192 2.22262 2.22333 2.22404 2.22475 2.22546 2.22617 2.22687 2.22758 
2.22829 2.22874 2.22896 2.22917 2.22939 2.2296 2.22982 2.23003 2.23025 
2.23046 2.23068 2.23089 2.23111 2.23132 2.23154 2.23175 2.23197 2.23218 
2.23239 2.23261 2.23282 2.23218 2.22932 2.22645 2.22358 2.22071 2.21784 
2.21497 2.2121 2.20924 2.20637 2.2035 2.20063 2.19776 2.19489 2.19203 
2.18916 2.18629 2.18342 2.18055 2.17768 2.17492 2.17468 2.17443 2.17419 
2.17395 2.1737 2.17346 2.17322 2.17297 2.17273 2.17249 2.17224 2.172 
2.17176 2.17151 2.17127 2.17103 2.17078 2.17054 2.1703 2.17005 2.17265 
2.17603 2.17942 2.18281 2.18619 2.18958 2.19297 2.19635 2.19974 2.20313 
2.20651 2.2099 2.21329 2.21667 2.22006 2.22345 2.22683 2.23022 2.23361 
2.23699 2.24286 2.25114 2.25942 2.2677 2.27599 2.28427 2.29255 2.30083 
2.30912 2.3174 2.32568 2.33396 2.34225 2.35053 2.35881 2.3671 2.37538 
2.38366 2.39194 2.40023 2.40748 2.41109 2.41471 2.41832 2.42194 2.42555 
2.42916 2.43278 2.43639 2.44001 2.44362 2.44724 2.45085 2.45447 2.45808 
2.46169 2.46531 2.46892 2.47254 2.47615 2.47977 2.48 2.48 2.48 
2.48 2.48 2.48 2.48 2.48 2.48 2.48 2.48 2.48 
2.48 2.48 2.48 2.48 2.48 2.48 2.48 2.48 2.4724 
2.4607 2.44901 2.43731 2.42562 2.41392 2.40223 2.39054 2.37884 2.36715 
2.35545 2.34376 2.33206 2.32037 2.30867 2.29698 2.28528 2.27359 2.26189 
2.2502 2.23733 2.22241 2.20749 2.19257 2.17765 2.16273 2.14781 2.13289 
2.11797 2.10305 2.08813 2.07321 2.05829 2.04337 2.02845 2.01353 1.99861 
1.98369 1.96877 1.95385 1.93978 1.93583 1.93188 1.92793 1.92398 1.92003 
1.91608 1.91213 1.90819 1.90424 1.90029 1.89634 1.89239 1.88844 1.88449 
1.88055 1.8766 1.87265 1.8687 1.86475 1.8608 1.85641 1.85191 1.8474 
1.8429 1.8384 1.83389 1.82939 1.82489 1.82038 1.81588 1.81138 1.80687 
1.80237 1.79787 1.79336 1.78886 1.78436 1.77985 1.77535 1.77084 1.76508 
1.75826 1.75143 1.7446 1.73777 1.73095 1.72412 1.71729 1.71046 1.70363 
1.69681 1.68998 1.68315 1.67632 1.6695 1.66267 1.65584 1.64901 1.64219 
1.63536 1.63338 1.64122 1.64907 1.65691 1.66475 1.67259 1.68043 1.68827 
1.69611 1.70395 1.71179 1.71963 1.72748 1.73532 1.74316 1.751 1.75884 
1.76668 1.77452 1.78236 1.78856 1.77306 1.75757 1.74207 1.72658 1.71108 
1.69559 1.68009 1.6646 1.6491 1.63361 1.61811 1.60262 1.58712 1.57163 
1.55613 1.54064 1.52514 1.50965 1.49415 1.47866 1.47365 1.47139 1.46912 
1.46686 1.46459 1.46233 1.46006 1.4578 1.45553 1.45327 1.45101 1.44874 
1.44648 1.44421 1.44195 1.43968 1.43742 1.43515 1.43289 1.43062 1.43842 
1.45573 1.47305 1.49037 1.50768 1.525 1.54232 1.55964 1.57695 1.59427 
1.61159 1.62891 1.64622 1.66354 1.68086 1.69818 1.71549 1.73281 1.75013 
1.76744 1.77779 1.76488 1.75197 1.73905 1.72614 1.71323 1.70031 1.6874 
1.67449 1.66158 1.64866 1.63575 1.62284 1.60992 1.59701 1.5841 1.57118 
1.55827 1.54536 1.53244 1.51953 1.50412 1.48857 1.47302 1.45747 1.44192 
1.42637 1.41082 1.39527 1.37971 1.36416 1.34861 1.33306 1.31751 1.30196 
1.28641 1.27086 1.25531 1.23976 1.2242 1.20865 1.19703 1.18742 1.17782 
1.16821 1.15861 1.149 1.1394 1.12979 1.12019 1.11058 1.10098 1.09137 
1.08177 1.07216 1.06255 1.05295 1.04334 1.03374 1.02413 1.01453 1.00904 
1.01045 1.01187 1.01329 1.0147 1.01612 1.01753 1.01895 1.02036 1.02178 
1.0232 1.02461 1.02603 1.02744 1.02886 1.03027 1.03169 1.03311 1.03452 
1.03594 1.03792 1.04582 1.05373 1.06163 1.06954 1.07744 1.08534 1.09325 
1.10115 1.10906 1.11696 1.12486 1.13277 1.14067 1.14857 1.15648 1.16438 
1.17229 1.18019 1.18809 1.196 1.19924 1.20133 1.20342 1.20552 1.20761 
1.2097 1.21179 1.21388 1.21598 1.21807 1.22016 1.22225 1.22435 1.22644 
1.22853 1.23062 1.23271 1.23481 1.2369 1.23899 1.24015 1.24043 1.24072 
1.24101 1.24129 1.24158 1.24187 1.24215 1.24244 1.24273 1.24301 1.2433 
1.24359 1.24387 1.24416 1.24444 1.24473 1.24502 1.2453 1.24559 1.24607 
1.24718 1.24829 1.2494 1.2505 1.25161 1.25272 1.25383 1.25494 1.25605 
1.25716 1.25827 1.25938 1.26049 1.2616 1.2627 1.26381 1.26492 1.26603 
1.26714 1.26825 1.2735 1.27897 1.28445 1.28993 1.29541 1.30089 1.30637 
1.31185 1.31732 1.3228 1.32828 1.33376 1.33924 1.34472 1.3502 1.35567 
1.36115 1.36663 1.37211 1.37759 1.38419 1.39136 1.39853 1.4057 1.41287 
1.42004 1.42721 1.43438 1.44155 1.44872 1.45589 1.46306 1.47023 1.4774 
1.48457 1.49174 1.49891 1.50608 1.51325 1.52042 1.52536 1.5266 1.52783 
1.52907 1.53031 1.53155 1.53279 1.53403 1.53527 1.5365 1.53774 1.53898 
1.54022 1.54146 1.5427 1.54394 1.54517 1.54641 1.54765 1.54889 1.55039 
1.55416 1.55792 1.56168 1.56545 1.56921 1.57298 1.57674 1.5805 1.58427 
1.58803 1.59179 1.59556 1.59932 1.60309 1.60685 1.61061 1.61438 1.61814 
1.62191 1.62567 1.63144 1.63762 1.64381 1.64999 1.65617 1.66236 1.66854 
1.67472 1.6809 1.68709 1.69327 1.69945 1.70564 1.71182 1.718 1.72419 
1.73037 1.73655 1.74273 1.74892 1.75069 1.7473 1.74392 1.74053 1.73715 
1.73376 1.73038 1.72699 1.7236 1.72022 1.71683 1.71345 1.71006 1.70668 
1.70329 1.6999 1.69652 1.69313 1.68975 1.68636 1.67998 1.67348 1.66698 
1.66049 1.65399 1.64749 1.64099 1.63449 1.62799 1.62149 1.61499 1.60849 
1.60199 1.59549 1.58899 1.5825 1.576 1.5695 1.563 1.5565 1.55 

TEXTURE_COORDINATES TCoords 2 float
0 0 0.000783085 0 0.00156617 0 0.00234926 0 0.00313234 
0 0.00391543 0 0.00469851 0 0.0054816 0 0.00626468 0 
0.00704777 0 0.00783085 0 0.00861394 0 0.00939702 0 0.0101801 
0 0.0109632 0 0.0117463 0 0.0125294 0 0.0133125 0 
0.0140955 0 0.0148786 0 0.0156617 0 0.0164448 0 0.0172279 
0 0.018011 0 0.018794 0 0.0195771 0 0.0203602 0 
0.0211433 0 0.0219264 0 0.0227095 0 0.0234926 0 0.0242756 
0 0.0250587 0 0.0258418 0 0.0266249 0 0.027408 0 
0.0281911 0 0.0289742 0 0.0297572 0 0.0305403 0 0.0313234 
0 0.0321065 0 0.0328896 0 0.0336727 0 0.0344558 0 
0.0352388 0 0.0360219 0 0.036805 0 0.0375881 0 0.0383712 
0 0.0391543 0 0.0399374 0 0.0407204 0 0.0415035 0 
0.0422866 0 0.0430697 0 0.0438528 0 0.0446359 0 0.045419 
0 0.046202 0 0.0469851 0 0.0477682 0 0.0485513 0 
0.0493344 0 0.0501175 0 0.0509005 0 0.0516836 0 0.0524667 
0 0.0532498 0 0.0540329 0 0.054816 0 0.0555991 0 
0.0563821 0 0.0571652 0 0.0579483 0 0.0587314 0 0.0595145 
0 0.0602976 0 0.0610807 0 0.0618637 0 0.0626468 0 
0.0634299 0 0.064213 0 0.0649961 0 0.0657792 0 0.0665623 
0 0.0673453 0 0.0681284 0 0.0689115 0 0.0696946 0 
0.0704777 0 0.0712608 0 0.0720439 0 0.0728269 0 0.07361 
0 0.0743931 0 0.0751762 0 0.0759593 0 0.0767424 0 
0.0775255 0 0.0783085 0 0.0790916 0 0.0798747 0 0.0806578 
0 0.0814409 0 0.082224 0 0.083007 0 0.0837901 0 
0.0845732 0 0.0853563 0 0.0861394 0 0.0869225 0 0.0877056 
0 0.0884886 0 0.0892717 0 0.0900548 0 0.0908379 0 
0.091621 0 0.0924041 0 0.0931872 0 0.0939702 0 0.0947533 
0 0.0955364 0 0.0963195 0 0.0971026 0 0.0978857 0 
0.0986688 0 0.0994518 0 0.100235 0 0.101018 0 0.101801 
0 0.102584 0 0.103367 0 0.10415 0 0.104933 0 
0.105717 0 0.1065 0 0.107283 0 0.108066 0 0.108849 
0 0.109632 0 0.110415 0 0.111198 0 0.111981 0 
0.112764 0 0.113547 0 0.11433 0 0.115114 0 0.115897 
0 0.11668 0 0.117463 0 0.118246 0 0.119029 0 
0.119812 0 0.120595 0 0.121378 0 0.122161 0 0.122944 
0 0.123727 0 0.124511 0 0.125294 0 0.126077 0 
0.12686 0 0.127643 0 0.128426 0 0.129209 0 0.129992 
0 0.130775 0 0.131558 0 0.132341 0 0.133125 0 
0.133908 0 0.134691 0 0.135474 0 0.136257 0 0.13704 
0 0.137823 0 0.138606 0 0.139389 0 0.140172 0 
0.140955 0 0.141738 0 0.142522 0 0.143305 0 0.144088 
0 0.144871 0 0.145654 0 0.146437 0 0.14722 0 
0.148003 0 0.148786 0 0.149569 0 0.150352 0 0.151135 
0 0.151919 0 0.152702 0 0.153485 0 0.154268 0 
0.155051 0 0.155834 0 0.156617 0 0.1574 0 0.158183 
0 0.158966 0 0.159749 0 0.160533 0 0.161316 0 
0.162099 0 0.162882 0 0.163665 0 0.164448 0 0.165231 
0 0.166014 0 0.166797 0 0.16758 0 0.168363 0 
0.169146 0 0.16993 0 0.170713 0 0.171496 0 0.172279 
0 0.173062 0 0.173845 0 0.174628 0 0.175411 0 
0.176194 0 0.176977 0 0.17776 0 0.178543 0 0.179327 
0 0.18011 0 0.180893 0 0.181676 0 0.182459 0 
0.183242 0 0.184025 0 0.184808 0 0.185591 0 0.186374 
0 0.187157 0 0.18794 0 0.188724 0 0.189507 0 
0.19029 0 0.191073 0 0.191856 0 0.192639 0 0.193422 
0 0.194205 0 0.194988 0 0.195771 0 0.196554 0 
0.197338 0 0.198121 0 0.198904 0 0.199687 0 0.20047 
0 0.201253 0 0.202036 0 0.202819 0 0.203602 0 
0.204385 0 0.205168 0 0.205951 0 0.206735 0 0.207518 
0 0.208301 0 0.209084 0 0.209867 0 0.21065 0 
0.211433 0 0.212216 0 0.212999 0 0.213782 0 0.214565 
0 0.215348 0 0.216132 0 0.216915 0 0.217698 0 
0.218481 0 0.219264 0 0.220047 0 0.22083 0 0.221613 
0 0.222396 0 0.223179 0 0.223962 0 0.224745 0 
0.225529 0 0.226312 0 0.227095 0 0.227878 0 0.228661 
0 0.229444 0 0.230227 0 0.23101 0 0.231793 0 
0.232576 0 0.233359 0 0.234143 0 0.234926 0 0.235709 
0 0.236492 0 0.237275 0 0.238058 0 0.238841 0 
0.239624 0 0.240407 0 0.24119 0 0.241973 0 0.242756 
0 0.24354 0 0.244323 0 0.245106 0 0.245889 0 
0.246672 0 0.247455 0 0.248238 0 0.249021 0 0.249804 
0 0.250587 0 0.25137 0 0.252153 0 0.252937 0 
0.25372 0 0.254503 0 0.255286 0 0.256069 0 0.256852 
0 0.257635 0 0.258418 0 0.259201 0 0.259984 0 
0.260767 0 0.261551 0 0.262334 0 0.263117 0 0.2639 
0 0.264683 0 0.265466 0 0.266249 0 0.267032 0 
0.267815 0 0.268598 0 0.269381 0 0.270164 0 0.270948 
0 0.271731 0 0.272514 0 0.273297 0 0.27408 0 
0.274863 0 0.275646 0 0.276429 0 0.277212 0 0.277995 
0 0.278778 0 0.279561 0 0.280345 0 0.281128 0 
0.281911 0 0.282694 0 0.283477 0 0.28426 0 0.285043 
0 0.285826 0 0.286609 0 0.287392 0 0.288175 0 
0.288958 0 0.289742 0 0.290525 0 0.291308 0 0.292091 
0 0.292874 0 0.293657 0 0.29444 0 0.295223 0 
0.296006 0 0.296789 0 0.297572 0 0.298356 0 0.299139 
0 0.299922 0 0.300705 0 0.301488 0 0.302271 0 
0.303054 0 0.303837 0 0.30462 0 0.305403 0 0.306186 
0 0.306969 0 0.307753 0 0.308536 0 0.309319 0 
0.310102 0 0.310885 0 0.311668 0 0.312451 0 0.313234 
0 0.314017 0 0.3148 0 0.315583 0 0.316366 0 
0.31715 0 0.317933 0 0.318716 0 0.319499 0 0.320282 
0 0.321065 0 0.321848 0 0.322631 0 0.323414 0 
0.324197 0 0.32498 0 0.325763 0 0.326547 0 0.32733 
0 0.328113 0 0.328896 0 0.329679 0 0.330462 0 
0.331245 0 0.332028 0 0.332811 0 0.333594 0 0.334377 
0 0.335161 0 0.335944 0 0.336727 0 0.33751 0 
0.338293 0 0.339076 0 0.339859 0 0.340642 0 0.341425 
0 0.342208 0 0.342991 0 0.343774 0 0.344558 0 
0.345341 0 0.346124 0 0.346907 0 0.34769 0 0.348473 
0 0.349256 0 0.350039 0 0.350822 0 0.351605 0 
0.352388 0 0.353171 0 0.353955 0 0.354738 0 0.355521 
0 0.356304 0 0.357087 0 0.35787 0 0.358653 0 
0.359436 0 0.360219 0 0.361002 0 0.361785 0 0.362569 
0 0.363352 0 0.364135 0 0.364918 0 0.365701 0 
0.366484 0 0.367267 0 0.36805 0 0.368833 0 0.369616 
0 0.370399 0 0.371182 0 0.371966 0 0.372749 0 
0.373532 0 0.374315 0 0.375098 0 0.375881 0 0.376664 
0 0.377447 0 0.37823 0 0.379013 0 0.379796 0 
0.380579 0 0.381363 0 0.382146 0 0.382929 0 0.383712 
0 0.384495 0 0.385278 0 0.386061 0 0.386844 0 
0.387627 0 0.38841 0 0.389193 0 0.389977 0 0.39076 
0 0.391543 0 0.392326 0 0.393109 0 0.393892 0 
0.394675 0 0.395458 0 0.396241 0 0.397024 0 0.397807 
0 0.39859 0 0.399374 0 0.400157 0 0.40094 0 
0.401723 0 0.402506 0 0.403289 0 0.404072 0 0.404855 
0 0.405638 0 0.406421 0 0.407204 0 0.407987 0 
0.408771 0 0.409554 0 0.410337 0 0.41112 0 0.411903 
0 0.412686 0 0.413469 0 0.414252 0 0.415035 0 
0.415818 0 0.416601 0 0.417385 0 0.418168 0 0.418951 
0 0.419734 0 0.420517 0 0.4213 0 0.422083 0 
0.422866 0 0.423649 0 0.424432 0 0.425215 0 0.425998 
0 0.426782 0 0.427565 0 0.428348 0 0.429131 0 
0.429914 0 0.430697 0 0.43148 0 0.432263 0 0.433046 
0 0.433829 0 0.434612 0 0.435395 0 0.436179 0 
0.436962 0 0.437745 0 0.438528 0 0.439311 0 0.440094 
0 0.440877 0 0.44166 0 0.442443 0 0.443226 0 
0.444009 0 0.444792 0 0.445576 0 0.446359 0 0.447142 
0 0.447925 0 0.448708 0 0.449491 0 0.450274 0 
0.451057 0 0.45184 0 0.452623 0 0.453406 0 0.45419 
0 0.454973 0 0.455756 0 0.456539 0 0.457322 0 
0.458105 0 0.458888 0 0.459671 0 0.460454 0 0.461237 
0 0.46202 0 0.462803 0 0.463587 0 0.46437 0 
0.465153 0 0.465936 0 0.466719 0 0.467502 0 0.468285 
0 0.469068 0 0.469851 0 0.470634 0 0.471417 0 
0.4722 0 0.472984 0 0.473767 0 0.47455 0 0.475333 
0 0.476116 0 0.476899 0 0.477682 0 0.478465 0 
0.479248 0 0.480031 0 0.480814 0 0.481597 0 0.482381 
0 0.483164 0 0.483947 0 0.48473 0 0.485513 0 
0.486296 0 0.487079 0 0.487862 0 0.488645 0 0.489428 
0 0.490211 0 0.490995 0 0.491778 0 0.492561 0 
0.493344 0 0.494127 0 0.49491 0 0.495693 0 0.496476 
0 0.497259 0 0.498042 0 0.498825 0 0.499608 0 
0.500392 0 0.501175 0 0.501958 0 0.502741 0 0.503524 
0 0.504307 0 0.50509 0 0.505873 0 0.506656 0 
0.507439 0 0.508222 0 0.509005 0 0.509789 0 0.510572 
0 0.511355 0 0.512138 0 0.512921 0 0.513704 0 
0.514487 0 0.51527 0 0.516053 0 0.516836 0 0.517619 
0 0.518403 0 0.519186 0 0.519969 0 0.520752 0 
0.521535 0 0.522318 0 0.523101 0 0.523884 0 0.524667 
0 0.52545 0 0.526233 0 0.527016 0 0.5278 0 
0.528583 0 0.529366 0 0.530149 0 0.530932 0 0.531715 
0 0.532498 0 0.533281 0 0.534064 0 0.534847 0 
0.53563 0 0.536413 0 0.537197 0 0.53798 0 0.538763 
0 0.539546 0 0.540329 0 0.541112 0 0.541895 0 
0.542678 0 0.543461 0 0.544244 0 0.545027 0 0.545811 
0 0.546594 0 0.547377 0 0.54816 0 0.548943 0 
0.549726 0 0.550509 0 0.551292 0 0.552075 0 0.552858 
0 0.553641 0 0.554424 0 0.555207 0 0.555991 0 
0.556774 0 0.557557 0 0.55834 0 0.559123 0 0.559906 
0 0.560689 0 0.561472 0 0.562255 0 0.563038 0 
0.563821 0 0.564605 0 0.565388 0 0.566171 0 0.566954 
0 0.567737 0 0.56852 0 0.569303 0 0.570086 0 
0.570869 0 0.571652 0 0.572435 0 0.573218 0 0.574002 
0 0.574785 0 0.575568 0 0.576351 0 0.577134 0 
0.577917 0 0.5787 0 0.579483 0 0.580266 0 0.581049 
0 0.581832 0 0.582615 0 0.583399 0 0.584182 0 
0.584965 0 0.585748 0 0.586531 0 0.587314 0 0.588097 
0 0.58888 0 0.589663 0 0.590446 0 0.591229 0 
0.592013 0 0.592796 0 0.593579 0 0.594362 0 0.595145 
0 0.595928 0 0.596711 0 0.597494 0 0.598277 0 
0.59906 0 0.599843 0 0.600626 0 0.60141 0 0.602193 
0 0.602976 0 0.603759 0 0.604542 0 0.605325 0 
0.606108 0 0.606891 0 0.607674 0 0.608457 0 0.60924 
0 0.610023 0 0.610807 0 0.61159 0 0.612373 0 
0.613156 0 0.613939 0 0.614722 0 0.615505 0 0.616288 
0 0.617071 0 0.617854 0 0.618637 0 0.619421 0 
0.620204 0 0.620987 0 0.62177 0 0.622553 0 0.623336 
0 0.624119 0 0.624902 0 0.625685 0 0.626468 0 
0.627251 0 0.628034 0 0.628818 0 0.629601 0 0.630384 
0 0.631167 0 0.63195 0 0.632733 0 0.633516 0 
0.634299 0 0.635082 0 0.635865 0 0.636648 0 0.637432 
0 0.638215 0 0.638998 0 0.639781 0 0.640564 0 
0.641347 0 0.64213 0 0.642913 0 0.643696 0 0.644479 
0 0.645262 0 0.646045 0 0.646829 0 0.647612 0 
0.648395 0 0.649178 0 0.649961 0 0.650744 0 0.651527 
0 0.65231 0 0.653093 0 0.653876 0 0.654659 0 
0.655442 0 0.656226 0 0.657009 0 0.657792 0 0.658575 
0 0.659358 0 0.660141 0 0.660924 0 0.661707 0 