# vtk DataFile Version 4.2
vtk output
ASCII
DATASET POLYDATA
POINTS 1278 float
0 0 0 -0.00315197 -0.000179382 0.00260088 -0.0123574 -0.000695496 0.010171 
-0.0272407 -0.0015153 0.0223615 -0.0474262 -0.00260574 0.0388236 -0.0725382 -0.00393377 0.0592086 
-0.102201 -0.00546635 0.0831677 -0.136039 -0.00717043 0.110352 -0.173677 -0.00901297 0.140413 
-0.214738 -0.0109609 0.173001 -0.258848 -0.0129812 0.207768 -0.30563 -0.0150408 0.244366 
-0.35471 -0.0171067 0.282444 -0.40571 -0.0191459 0.321655 -0.458256 -0.0211251 0.36165 
-0.511972 -0.0230116 0.40208 -0.566483 -0.0247721 0.442595 -0.621412 -0.0263736 0.482848 
-0.676384 -0.0277832 0.52249 -0.731023 -0.0289676 0.561171 -0.784954 -0.029894 0.598543 
-0.837801 -0.0305293 0.634257 -0.889282 -0.0308498 0.668055 -0.93943 -0.0308642 0.699984 
-0.988346 -0.0305877 0.730154 -1.03613 -0.0300358 0.758678 -1.08289 -0.0292238 0.785667 
-1.12871 -0.0281671 0.811233 -1.17371 -0.0268809 0.835487 -1.21797 -0.0253807 0.858542 
-1.26161 -0.0236818 0.880508 -1.30473 -0.0217996 0.901497 -1.34741 -0.0197493 0.921621 
-1.38978 -0.0175464 0.940991 -1.43191 -0.0152062 0.95972 -1.47392 -0.0127441 0.977918 
-1.51591 -0.0101753 0.995697 -1.55798 -0.00751535 1.01317 -1.60022 -0.00477948 1.03044 
-1.64275 -0.00198307 1.04764 -1.68565 0.000858532 1.06486 -1.72903 0.00373043 1.08221 
-1.77291 0.00662634 1.09974 -1.81728 0.00954764 1.11742 -1.86211 0.012496 1.13522 
-1.90736 0.0154731 1.15312 -1.953 0.0184806 1.17109 -1.99902 0.02152 1.18911 
-2.04538 0.0245932 1.20715 -2.09205 0.0277018 1.22518 -2.13901 0.0308474 1.24318 
-2.18622 0.0340316 1.26112 -2.23366 0.0372562 1.27898 -2.28131 0.0405227 1.29672 
-2.32912 0.043833 1.31433 -2.37708 0.0471885 1.33178 -2.42515 0.050591 1.34904 
-2.47332 0.0540421 1.36609 -2.52154 0.0575436 1.3829 -2.56979 0.0610969 1.39943 
-2.61805 0.0647039 1.41568 -2.66628 0.0683662 1.43161 -2.71446 0.072084 1.44721 
-2.7626 0.0758542 1.46247 -2.81071 0.0796733 1.47743 -2.85879 0.0835377 1.49207 
-2.90684 0.0874437 1.50643 -2.95487 0.0913878 1.5205 -3.00288 0.0953664 1.53431 
-3.05089 0.0993758 1.54785 -3.09889 0.103413 1.56114 -3.1469 0.107473 1.5742 
-3.19491 0.111553 1.58703 -3.24293 0.11565 1.59965 -3.29098 0.11976 1.61206 
-3.33905 0.123879 1.62428 -3.38715 0.128004 1.63632 -3.43528 0.132131 1.64819 
-3.48345 0.136257 1.65991 -3.53168 0.140377 1.67147 -3.57995 0.144489 1.6829 
-3.62828 0.148588 1.6942 -3.67667 0.152672 1.70539 -3.72513 0.156737 1.71647 
-3.77364 0.160781 1.72743 -3.82221 0.164801 1.73829 -3.87084 0.168794 1.74904 
-3.91951 0.172759 1.75967 -3.96824 0.176693 1.7702 -4.01701 0.180592 1.78062 
-4.06583 0.184455 1.79093 -4.11468 0.188278 1.80114 -4.16358 0.19206 1.81124 
-4.21251 0.195797 1.82124 -4.26148 0.199487 1.83113 -4.31048 0.203128 1.84092 
-4.35951 0.206716 1.85061 -4.40856 0.21025 1.86019 -4.45764 0.213726 1.86967 
-4.50674 0.217143 1.87906 -4.55586 0.220497 1.88834 -4.60499 0.223786 1.89752 
-4.65414 0.227007 1.9066 -4.7033 0.230157 1.91559 -4.75248 0.233232 1.92448 
-4.80167 0.236226 1.93329 -4.85087 0.239137 1.94201 -4.90008 0.241959 1.95065 
-4.94931 0.244689 1.95921 -4.99855 0.247322 1.96769 -5.0478 0.249854 1.9761 
-5.09706 0.25228 1.98445 -5.14634 0.254596 1.99273 -5.19563 0.256799 2.00095 
-5.24493 0.258883 2.00911 -5.29424 0.260845 2.01722 -5.34357 0.26268 2.02528 
-5.3929 0.264383 2.03329 -5.44225 0.265952 2.04126 -5.49161 0.267381 2.04919 
-5.54098 0.268666 2.05708 -5.59037 0.269803 2.06494 -5.63976 0.270787 2.07277 
-5.68917 0.271614 2.08058 -5.73858 0.272277 2.08837 -5.78801 0.272772 2.09614 
-5.83744 0.27309 2.10389 -5.88687 0.273227 2.11163 -5.93631 0.273176 2.11937 
-5.98574 0.272932 2.12711 -6.03518 0.272488 2.13484 -6.08462 0.271837 2.14258 
-6.13405 0.270975 2.15033 -6.18347 0.269895 2.15808 -6.23289 0.26859 2.16586 
-6.2823 0.267056 2.17365 -6.3317 0.265285 2.18147 -6.38109 0.263271 2.18931 
-6.43046 0.261009 2.19718 -6.47982 0.258493 2.20509 -6.52916 0.255716 2.21303 
-6.57849 0.252672 2.22101 -6.62779 0.249356 2.22904 -6.67707 0.24576 2.23712 
-6.72632 0.24188 2.24525 -6.77555 0.237708 2.25343 -6.82474 0.233239 2.26168 
-6.87389 0.228466 2.26999 -6.923 0.223384 2.27837 -6.97206 0.217985 2.28681 
-7.02107 0.212264 2.29533 -7.07003 0.206215 2.30394 -7.11893 0.199831 2.31262 
-7.16776 0.193106 2.32139 -7.21653 0.186034 2.33025 -7.26522 0.178609 2.3392 
-7.31384 0.170824 2.34825 -7.36238 0.162673 2.35741 -7.41084 0.154151 2.36666 
-7.4592 0.145251 2.37603 -7.50748 0.135966 2.38551 -7.55566 0.126291 2.39511 
-7.60374 0.116219 2.40482 -7.65171 0.105745 2.41466 -7.69957 0.094867 2.42463 
-7.74732 0.0835849 2.43472 -7.79495 0.0718993 2.44494 -7.84246 0.0598103 2.4553 
-7.88983 0.0473182 2.46578 -7.93707 0.0344233 2.4764 -7.98416 0.0211257 2.48715 
-8.03111 0.00742588 2.49804 -8.07791 -0.00667608 2.50907 -8.12455 -0.0211799 2.52023 
-8.17103 -0.0360853 2.53154 -8.21735 -0.051392 2.54299 -8.26349 -0.0670998 2.55458 
-8.30945 -0.0832084 2.56631 -8.35523 -0.0997177 2.5782 -8.40082 -0.116627 2.59023 
-8.44622 -0.133937 2.60241 -8.49142 -0.151646 2.61474 -8.53642 -0.169755 2.62722 
-8.5812 -0.188264 2.63985 -8.62578 -0.207168 2.65264 -8.67014 -0.226461 2.66558 
-8.71429 -0.246136 2.67867 -8.75823 -0.266188 2.69191 -8.80196 -0.286608 2.7053 
-8.84547 -0.30739 2.71883 -8.88876 -0.328528 2.7325 -8.93184 -0.350015 2.74632 
-8.97471 -0.371845 2.76028 -9.01736 -0.394009 2.77437 -9.0598 -0.416503 2.7886 
-9.10202 -0.439318 2.80297 -9.14402 -0.462449 2.81747 -9.1858 -0.485888 2.8321 
-9.22737 -0.50963 2.84687 -9.26872 -0.533666 2.86176 -9.30985 -0.557991 2.87678 
-9.35076 -0.582598 2.89192 -9.39146 -0.60748 2.90719 -9.43193 -0.632631 2.92258 
-9.47219 -0.658043 2.93809 -9.51223 -0.68371 2.95372 -9.55205 -0.709625 2.96946 
-9.59167 -0.735782 2.98532 -9.63109 -0.762174 3.00129 -9.67031 -0.788795 3.01737 
-9.70932 -0.815637 3.03356 -9.74815 -0.842694 3.04986 -9.78679 -0.869959 3.06626 
-9.82524 -0.897425 3.08276 -9.86351 -0.925087 3.09936 -9.9016 -0.952937 3.11606 
-9.93951 -0.980968 3.13286 -9.97726 -1.00917 3.14975 -10.0148 -1.03755 3.16673 
-10.0522 -1.06608 3.1838 -10.0895 -1.09478 3.20096 -10.1266 -1.12361 3.2182 
-10.1635 -1.15259 3.23553 -10.2003 -1.18171 3.25294 -10.237 -1.21095 3.27043 
-10.2735 -1.24032 3.28799 -10.3099 -1.26981 3.30564 -10.3461 -1.29941 3.32335 
-10.3822 -1.32912 3.34114 -10.4182 -1.35895 3.359 -10.4541 -1.38887 3.37693 
-10.4898 -1.4189 3.39492 -10.5255 -1.44902 3.41298 -10.561 -1.47923 3.4311 
-10.5964 -1.50953 3.44928 -10.6317 -1.53991 3.46752 -10.6669 -1.57037 3.48581 
-10.7021 -1.60091 3.50416 -10.7371 -1.63151 3.52257 -10.7721 -1.66219 3.54102 
-10.8069 -1.69292 3.55952 -10.8417 -1.72372 3.57807 -10.8765 -1.75457 3.59667 
-10.9111 -1.78547 3.61531 -10.9457 -1.81642 3.63399 -10.9802 -1.84741 3.65271 
-11.0147 -1.87844 3.67147 -11.0491 -1.90951 3.69027 -11.0835 -1.94061 3.70909 
-11.1178 -1.97175 3.72795 -11.1521 -2.00292 3.74684 -11.1863 -2.03412 3.76576 
-11.2205 -2.06534 3.78471 -11.2547 -2.09659 3.80368 -11.2888 -2.12786 3.82267 
-11.3229 -2.15915 3.84168 -11.3569 -2.19045 3.86072 -11.391 -2.22177 3.87976 
-11.425 -2.25309 3.89883 -11.459 -2.28443 3.9179 -11.493 -2.31577 3.93699 
-11.527 -2.34712 3.95609 -11.561 -2.37846 3.9752 -11.5949 -2.40981 3.99431 
-11.6289 -2.44115 4.01342 -11.6629 -2.47249 4.03254 -11.6969 -2.50382 4.05165 
-11.7309 -2.53514 4.07075 -11.7649 -2.56645 4.08984 -11.7989 -2.59776 4.10891 
-11.833 -2.62905 4.12796 -11.8671 -2.66034 4.14698 -11.9012 -2.69162 4.16597 
-11.9353 -2.72288 4.18492 -11.9695 -2.75413 4.20384 -12.0037 -2.78537 4.2227 
-12.0379 -2.8166 4.24152 -12.0722 -2.84781 4.26028 -12.1066 -2.879 4.27898 
-12.141 -2.91018 4.29761 -12.1755 -2.94134 4.31618 -12.21 -2.97249 4.33467 
-12.2446 -3.00362 4.35309 -12.2792 -3.03472 4.37142 -12.314 -3.06581 4.38966 
-12.3488 -3.09688 4.40781 -12.3837 -3.12793 4.42587 -12.4186 -3.15896 4.44382 
-12.4537 -3.18996 4.46167 -12.4888 -3.22094 4.47941 -12.524 -3.25189 4.49704 
-12.5592 -3.28282 4.51454 -12.5946 -3.31372 4.53193 -12.63 -3.34459 4.54919 
-12.6655 -3.37544 4.56633 -12.7011 -3.40626 4.58333 -12.7368 -3.43704 4.60019 
-12.7725 -3.4678 4.6169 -12.8083 -3.49852 4.63348 -12.8443 -3.52921 4.6499 
-12.8803 -3.55986 4.66617 -12.9163 -3.59048 4.68227 -12.9525 -3.62107 4.69822 
-12.9887 -3.65162 4.714 -13.0251 -3.68213 4.72961 -13.0615 -3.7126 4.74504 
-13.098 -3.74304 4.76026 -13.1347 -3.77345 4.77523 -13.1714 -3.80383 4.78993 
-13.2083 -3.8342 4.8043 -13.2453 -3.86454 4.81832 -13.2825 -3.89488 4.83194 
-13.3199 -3.92521 4.84512 -13.3574 -3.95554 4.85784 -13.3952 -3.98587 4.87005 
-13.4331 -4.01621 4.88171 -13.4713 -4.04657 4.89279 -13.5097 -4.07694 4.90324 
-13.5483 -4.10733 4.91304 -13.5873 -4.13775 4.92214 -13.6264 -4.16821 4.93051 
-13.6659 -4.19869 4.9381 -13.7057 -4.22922 4.94489 -13.7458 -4.2598 4.95083 
-13.7862 -4.29043 4.95588 -13.8269 -4.32111 4.96001 -13.8679 -4.35184 4.96318 
-13.9092 -4.38258 4.96533 -13.9506 -4.41332 4.96641 -13.9921 -4.44403 4.96638 
-14.0337 -4.47469 4.9652 -14.0752 -4.50527 4.9628 -14.1165 -4.53575 4.95914 
-14.1577 -4.56611 4.95418 -14.1986 -4.59631 4.94786 -14.2392 -4.62634 4.94013 
-14.2794 -4.65617 4.93095 -14.3191 -4.68578 4.92027 -14.3583 -4.71514 4.90804 
-14.3968 -4.74423 4.89421 -14.4347 -4.77302 4.87874 -14.4718 -4.80149 4.86156 
-14.5081 -4.82962 4.84264 -14.5436 -4.85738 4.82192 -14.578 -4.88475 4.79937 
-14.6114 -4.9117 4.77492 -14.6438 -4.93823 4.74859 -14.6751 -4.96434 4.72047 
-14.7053 -4.99004 4.69064 -14.7345 -5.01536 4.6592 -14.7626 -5.0403 4.62624 
-14.7897 -5.06487 4.59184 -14.8157 -5.08908 4.55609 -14.8407 -5.11295 4.51909 
-14.8646 -5.13648 4.48093 -14.8875 -5.1597 4.44168 -14.9094 -5.1826 4.40145 
-14.9303 -5.20521 4.36032 -14.9501 -5.22753 4.31839 -14.9689 -5.24958 4.27573 
-14.9867 -5.27137 4.23245 -15.0036 -5.2929 4.18863 -15.0194 -5.3142 4.14436 
-15.0342 -5.33527 4.09973 -15.048 -5.35612 4.05483 -15.0608 -5.37678 4.00975 
-15.0727 -5.39724 3.96456 -15.0836 -5.41752 3.91925 -15.0935 -5.43764 3.87385 
[...]
CELL_DATA 1
FIELD FieldData 2
Length 1 1 double
63.887002646 
Tortuosity 1 1 double
0.70049558632 
POINT_DATA 1278
SCALARS MaximumInscribedSphereRadius float
LOOKUP_TABLE default
1.24 1.24 1.24 1.24 1.24 1.24 1.24 1.24 1.24 
1.24 1.24 1.24 1.24 1.24 1.24 1.24 1.24 1.24 
1.24 1.24 1.24 1.24026 1.24492 1.24958 1.25424 1.2589 1.26355 
1.26821 1.27287 1.27753 1.28219 1.28685 1.29151 1.29617 1.30083 1.30549 
1.31015 1.31481 1.31947 1.32413 1.32878 1.33563 1.3443 1.35297 1.36164 
1.37031 1.37898 1.38765 1.39632 1.40499 1.41366 1.42233 1.431 1.43967 
1.44835 1.45702 1.46569 1.47436 1.48303 1.4917 1.50037 1.50669 1.50128 
1.49588 1.49047 1.48506 1.47966 1.47425 1.46885 1.46344 1.45804 1.45263 
1.44723 1.44182 1.43642 1.43101 1.42561 1.4202 1.41479 1.40939 1.40398 
1.39858 1.38992 1.38082 1.37172 1.36263 1.35353 1.34443 1.33534 1.32624 
1.31714 1.30804 1.29895 1.28985 1.28075 1.27166 1.26256 1.25346 1.24437 
1.23527 1.22617 1.21707 1.20808 1.19916 1.19023 1.1813 1.17238 1.16345 
1.15453 1.1456 1.13668 1.12775 1.11882 1.1099 1.10097 1.09205 1.08312 
1.0742 1.06527 1.05635 1.04742 1.03849 1.03238 1.03215 1.03191 1.03167 
1.03144 1.0312 1.03097 1.03073 1.03049 1.03026 1.03002 1.02979 1.02955 
1.02931 1.02908 1.02884 1.0286 1.02837 1.02813 1.0279 1.02816 1.039 
1.04984 1.06068 1.07152 1.08236 1.0932 1.10404 1.11488 1.12572 1.13657 
1.14741 1.15825 1.16909 1.17993 1.19077 1.20161 1.21245 1.22329 1.23413 
1.24497 1.26192 1.28068 1.29943 1.31819 1.33695 1.3557 1.37446 1.39321 
1.41197 1.43073 1.44948 1.46824 1.487 1.50575 1.52451 1.54327 1.56202 
1.58078 1.59953 1.61829 1.63106 1.63794 1.64482 1.65169 1.65857 1.66544 
1.67232 1.6792 1.68607 1.69295 1.69983 1.7067 1.71358 1.72045 1.72733 
1.73421 1.74108 1.74796 1.75483 1.76171 1.76482 1.75557 1.74633 1.73708 
1.72784 1.71859 1.70934 1.7001 1.69085 1.68161 1.67236 1.66312 1.65387 
1.64462 1.63538 1.62613 1.61689 1.60764 1.59839 1.58915 1.5799 1.58911 
1.59914 1.60917 1.6192 1.62922 1.63925 1.64928 1.65931 1.66933 1.67936 
1.68939 1.69942 1.70945 1.71947 1.7295 1.73953 1.74956 1.75959 1.76961 
1.77964 1.78815 1.79592 1.8037 1.81148 1.81925 1.82703 1.83481 1.84259 
1.85036 1.85814 1.86592 1.8737 1.88147 1.88925 1.89703 1.90481 1.91258 
1.92036 1.92814 1.93591 1.93973 1.93746 1.9352 1.93294 1.93068 1.92842 
1.92616 1.92389 1.92163 1.91937 1.91711 1.91485 1.91259 1.91032 1.90806 
1.9058 1.90354 1.90128 1.89901 1.89675 1.89276 1.87532 1.85788 1.84044 
1.823 1.80557 1.78813 1.77069 1.75325 1.73581 1.71837 1.70094 1.6835 
1.66606 1.64862 1.63118 1.61375 1.59631 1.57887 1.56143 1.54399 1.52396 
1.50341 1.48286 1.46232 1.44177 1.42122 1.40068 1.38013 1.35958 1.33903 
1.31849 1.29794 1.27739 1.25684 1.2363 1.21575 1.1952 1.17465 1.15411 
1.13356 1.12717 1.13163 1.1361 1.14057 1.14503 1.1495 1.15396 1.15843 
1.1629 1.16736 1.17183 1.17629 1.18076 1.18523 1.18969 1.19416 1.19863 
1.20309 1.20756 1.21202 1.21345 1.21054 1.20763 1.20472 1.20181 1.1989 
1.19599 1.19308 1.19017 1.18726 1.18435 1.18144 1.17853 1.17562 1.17271 
1.1698 1.16689 1.16398 1.16107 1.15816 1.1579 1.16466 1.17143 1.17819 
1.18496 1.19173 1.19849 1.20526 1.21202 1.21879 1.22555 1.23232 1.23908 
1.24585 1.25261 1.25938 1.26614 1.27291 1.27967 1.28644 1.29362 1.31574 
1.33786 1.35999 1.38211 1.40424 1.42636 1.44848 1.47061 1.49273 1.51485 
1.53698 1.5591 1.58122 1.60335 1.62547 1.6476 1.66972 1.69184 1.71397 
1.73609 1.75334 1.76899 1.78465 1.8003 1.81595 1.8316 1.84725 1.8629 
1.87855 1.8942 1.90985 1.9255 1.94115 1.9568 1.97245 1.98811 2.00376 
2.01941 2.03506 2.05071 2.05172 2.03666 2.02159 2.00653 1.99147 1.9764 
1.96134 1.94627 1.93121 1.91615 1.90108 1.88602 1.87095 1.85589 1.84083 
1.82576 1.8107 1.79563 1.78057 1.76551 1.75223 1.74602 1.7398 1.73359 
1.72738 1.72117 1.71496 1.70875 1.70253 1.69632 1.69011 1.6839 1.67769 
1.67147 1.66526 1.65905 1.65284 1.64663 1.64042 1.6342 1.62799 1.63544 
1.64394 1.65244 1.66094 1.66944 1.67794 1.68644 1.69494 1.70344 1.71194 
1.72044 1.72894 1.73744 1.74594 1.75444 1.76294 1.77144 1.77994 1.78844 
1.79694 1.8022 1.80578 1.80937 1.81296 1.81655 1.82014 1.82373 1.82731 
1.8309 1.83449 1.83808 1.84167 1.84526 1.84884 1.85243 1.85602 1.85961 
1.8632 1.86679 1.87037 1.87276 1.87337 1.87398 1.87458 1.87519 1.8758 
1.8764 1.87701 1.87762 1.87822 1.87883 1.87944 1.88004 1.88065 1.88126 
1.88187 1.88247 1.88308 1.88369 1.88429 1.88478 1.88464 1.8845 1.88437 
1.88423 1.8841 1.88396 1.88382 1.88369 1.88355 1.88341 1.88328 1.88314 
1.883 1.88287 1.88273 1.88259 1.88246 1.88232 1.88218 1.88205 1.8814 
1.88073 1.88005 1.87937 1.87869 1.87802 1.87734 1.87666 1.87599 1.87531 
1.87463 1.87396 1.87328 1.8726 1.87192 1.87125 1.87057 1.86989 1.86922 
1.86854 1.87158 1.8763 1.88101 1.88573 1.89044 1.89516 1.89987 1.90459 
1.9093 1.91402 1.91873 1.92344 1.92816 1.93287 1.93759 1.9423 1.94702 
1.95173 1.95645 1.96116 1.96733 1.97551 1.98369 1.99188 2.00006 2.00824 
2.01643 2.02461 2.03279 2.04097 2.04916 2.05734 2.06552 2.0737 2.08189 
2.09007 2.09825 2.10644 2.11462 2.1228 2.13012 2.1321 2.13408 2.13606 
2.13804 2.14002 2.142 2.14398 2.14596 2.14794 2.14992 2.1519 2.15388 
2.15586 2.15784 2.15982 2.1618 2.16378 2.16576 2.16774 2.16972 2.18034 
2.19241 2.20447 2.21654 2.2286 2.24067 2.25273 2.2648 2.27686 2.28893 
2.30099 2.31306 2.32512 2.33719 2.34925 2.36132 2.37338 2.38545 2.39751 
2.40958 2.42614 2.446 2.46586 2.48573 2.50559 2.52545 2.54531 2.56517 
2.58503 2.60489 2.62475 2.64461 2.66447 2.68433 2.70419 2.72405 2.74391 
2.76377 2.78364 2.8035 2.80721 2.77429 2.74137 2.70845 2.67553 2.64261 
2.60969 2.57677 2.54385 2.51093 2.47802 2.4451 2.41218 2.37926 2.34634 
2.31342 2.2805 2.24758 2.21466 2.18174 2.14944 2.13344 2.11745 2.10145 
2.08546 2.06946 2.05347 2.03747 2.02148 2.00548 1.98948 1.97349 1.95749 
1.9415 1.9255 1.90951 1.89351 1.87752 1.86152 1.84553 1.82953 1.84742 
1.87573 1.90404 1.93234 1.96065 1.98896 2.01727 2.04557 2.07388 2.10219 
2.1305 2.1588 2.18711 2.21542 2.24373 2.27203 2.30034 2.32865 2.35696 
2.38526 2.40259 2.40829 2.414 2.41971 2.42542 2.43113 2.43684 2.44255 
2.44826 2.45397 2.45968 2.46539 2.4711 2.4768 2.48251 2.48822 2.49393 
2.49964 2.50535 2.51106 2.51445 2.50882 2.50319 2.49756 2.49193 2.48631 
2.48068 2.47505 2.46942 2.46379 2.45816 2.45254 2.44691 2.44128 2.43565 
2.43002 2.42439 2.41876 2.41314 2.40751 2.40188 2.38461 2.36637 2.34814 
2.3299 2.31167 2.29343 2.2752 2.25697 2.23873 2.2205 2.20226 2.18403 
2.16579 2.14756 2.12932 2.11109 2.09285 2.07462 2.05638 2.03815 2.03589 
2.04247 2.04906 2.05564 2.06223 2.06882 2.0754 2.08199 2.08857 2.09516 
2.10174 2.10833 2.11492 2.1215 2.12809 2.13467 2.14126 2.14784 2.15443 
2.16101 2.17275 2.1936 2.21444 2.23529 2.25613 2.27698 2.29782 2.31867 
2.33951 2.36035 2.3812 2.40204 2.42289 2.44373 2.46458 2.48542 2.50627 
2.52711 2.54796 2.5688 2.58702 2.57592 2.56483 2.55373 2.54264 2.53155 
2.52045 2.50936 2.49826 2.48717 2.47607 2.46498 2.45389 2.44279 2.4317 
2.4206 2.40951 2.39842 2.38732 2.37623 2.36513 2.35326 2.34119 2.32913 
2.31706 2.305 2.29293 2.28087 2.26881 2.25674 2.24468 2.23261 2.22055 
2.20848 2.19642 2.18436 2.17229 2.16023 2.14816 2.1361 2.12403 2.121 
2.12594 2.13088 2.13582 2.14076 2.1457 2.15064 2.15557 2.16051 2.16545 
2.17039 2.17533 2.18027 2.1852 2.19014 2.19508 2.20002 2.20496 2.2099 
2.21484 2.21859 2.21895 2.21931 2.21966 2.22002 2.22038 2.22073 2.22109 
2.22145 2.22181 2.22216 2.22252 2.22288 2.22323 2.22359 2.22395 2.22431 
2.22466 2.22502 2.22538 2.22573 2.22424 2.22271 2.22119 2.21966 2.21814 
2.21661 2.21508 2.21356 2.21203 2.21051 2.20898 2.20745 2.20593 2.2044 
2.20288 2.20135 2.19982 2.1983 2.19677 2.19525 2.19486 2.19494 2.19502 
2.1951 2.19518 2.19526 2.19534 2.19542 2.1955 2.19558 2.19566 2.19574 
2.19582 2.19589 2.19598 2.19605 2.19613 2.19621 2.19629 2.19637 2.19873 
2.20408 2.20944 2.2148 2.22016 2.22552 2.23087 2.23623 2.24159 2.24695 
2.25231 2.25766 2.26302 2.26838 2.27374 2.2791 2.28445 2.28981 2.29517 
2.30053 2.30638 2.31497 2.32356 2.33215 2.34074 2.34933 2.35792 2.36651 
2.3751 2.38369 2.39228 2.40087 2.40946 2.41805 2.42664 2.43523 2.44382 
2.45241 2.461 2.46959 2.47818 2.47957 2.47996 2.48036 2.48075 2.48114 
2.48153 2.48192 2.48231 2.48271 2.4831 2.48349 2.48388 2.48427 2.48466 
2.48506 2.48545 2.48584 2.48623 2.48662 2.48701 2.48712 2.48704 2.48696 
2.48688 2.4868 2.48673 2.48665 2.48657 2.48649 2.48641 2.48633 2.48625 
2.48617 2.48609 2.48601 2.48593 2.48585 2.48577 2.48569 2.48561 2.48604 
2.48755 2.48906 2.49057 2.49208 2.49358 2.49509 2.4966 2.49811 2.49962 
2.50113 2.50263 2.50414 2.50565 2.50716 2.50867 2.51018 2.51168 2.51319 
2.5147 2.51656 2.52718 2.53779 2.54841 2.55902 2.56964 2.58025 2.59087 
2.60149 2.6121 2.62272 2.63333 2.64395 2.65456 2.66518 2.67579 2.68641 
2.69702 2.70764 2.71826 2.72887 2.73763 2.7458 2.75398 2.76215 2.77033 
2.7785 2.78668 2.79485 2.80302 2.8112 2.81937 2.82755 2.83572 2.8439 
2.85207 2.86025 2.86842 2.87659 2.88477 2.89294 2.89602 2.89369 2.89137 
2.88904 2.88672 2.88439 2.88206 2.87974 2.87741 2.87508 2.87276 2.87043 
2.86811 2.86578 2.86345 2.86113 2.8588 2.85647 2.85415 2.85182 2.84798 
2.83855 2.82911 2.81967 2.81023 2.8008 2.79136 2.78192 2.77248 2.76305 
2.75361 2.74417 2.73473 2.7253 2.71586 2.70642 2.69698 2.68754 2.67811 
2.66867 2.65923 2.64539 2.63125 2.61711 2.60298 2.58884 2.57471 2.56057 
2.54643 2.5323 2.51816 2.50402 2.48989 2.47575 2.46162 2.44748 2.43334 
2.41921 2.40507 2.39094 2.3768 2.36127 2.34504 2.3288 2.31256 2.29632 
2.28008 2.26384 2.24761 2.23137 2.21513 2.19889 2.18265 2.16641 2.15018 
2.13394 2.1177 2.10146 2.08522 2.06898 2.05275 2.04632 2.05576 2.0652 
2.07464 2.08409 2.09353 2.10297 2.11241 2.12186 2.1313 2.14074 2.15018 
2.15963 2.16907 2.17851 2.18795 2.1974 2.20684 2.21628 2.22572 2.23674 
2.26107 2.28539 2.30972 2.33405 2.35837 2.3827 2.40703 2.43135 2.45568 
2.48001 2.50433 2.52866 2.55299 2.57731 2.60164 2.62597 2.65029 2.67462 
2.69895 2.72327 2.70509 2.67774 2.65039 2.62304 2.5957 2.56835 2.541 
2.51365 2.4863 2.45895 2.4316 2.40425 2.3769 2.34955 2.3222 2.29485 
2.26751 2.24016 2.21281 2.18546 2.16579 2.15518 2.14456 2.13395 2.12333 
2.11272 2.1021 2.09148 2.08087 2.07025 2.05964 2.04902 2.0384 2.02779 
2.01717 2.00656 1.99594 1.98532 1.97471 1.96409 1.97251 1.98239 1.99226 
2.00214 2.01201 2.02189 2.03176 2.04163 2.05151 2.06138 2.07126 2.08113 
2.09101 2.10088 2.11075 2.12063 2.1305 2.14038 2.15025 2.16013 2.17 

TEXTURE_COORDINATES TCoords 2 float
0 0 0.000783085 0 0.00156617 0 0.00234926 0 0.00313234 
0 0.00391543 0 0.00469851 0 0.0054816 0 0.00626468 0 
0.00704777 0 0.00783085 0 0.00861394 0 0.00939702 0 0.0101801 
0 0.0109632 0 0.0117463 0 0.0125294 0 0.0133125 0 
0.0140955 0 0.0148786 0 0.0156617 0 0.0164448 0 0.0172279 
0 0.018011 0 0.018794 0 0.0195771 0 0.0203602 0 
0.0211433 0 0.0219264 0 0.0227095 0 0.0234926 0 0.0242756 
0 0.0250587 0 0.0258418 0 0.0266249 0 0.027408 0 
0.0281911 0 0.0289742 0 0.0297572 0 0.0305403 0 0.0313234 
0 0.0321065 0 0.0328896 0 0.0336727 0 0.0344558 0 
0.0352388 0 0.0360219 0 0.036805 0 0.0375881 0 0.0383712 
0 0.0391543 0 0.0399374 0 0.0407204 0 0.0415035 0 
0.0422866 0 0.0430697 0 0.0438528 0 0.0446359 0 0.045419 
0 0.046202 0 0.0469851 0 0.0477682 0 0.0485513 0 
0.0493344 0 0.0501175 0 0.0509005 0 0.0516836 0 0.0524667 
0 0.0532498 0 0.0540329 0 0.054816 0 0.0555991 0 
0.0563821 0 0.0571652 0 0.0579483 0 0.0587314 0 0.0595145 
0 0.0602976 0 0.0610807 0 0.0618637 0 0.0626468 0 
0.0634299 0 0.064213 0 0.0649961 0 0.0657792 0 0.0665623 
0 0.0673453 0 0.0681284 0 0.0689115 0 0.0696946 0 
0.0704777 0 0.0712608 0 0.0720439 0 0.0728269 0 0.07361 
0 0.0743931 0 0.0751762 0 0.0759593 0 0.0767424 0 
0.0775255 0 0.0783085 0 0.0790916 0 0.0798747 0 0.0806578 
0 0.0814409 0 0.082224 0 0.083007 0 0.0837901 0 
0.0845732 0 0.0853563 0 0.0861394 0 0.0869225 0 0.0877056 
0 0.0884886 0 0.0892717 0 0.0900548 0 0.0908379 0 
0.091621 0 0.0924041 0 0.0931872 0 0.0939702 0 0.0947533 
0 0.0955364 0 0.0963195 0 0.0971026 0 0.0978857 0 
0.0986688 0 0.0994518 0 0.100235 0 0.101018 0 0.101801 
0 0.102584 0 0.103367 0 0.10415 0 0.104933 0 
0.105717 0 0.1065 0 0.107283 0 0.108066 0 0.108849 
0 0.109632 0 0.110415 0 0.111198 0 0.111981 0 
0.112764 0 0.113547 0 0.11433 0 0.115114 0 0.115897 
0 0.11668 0 0.117463 0 0.118246 0 0.119029 0 
0.119812 0 0.120595 0 0.121378 0 0.122161 0 0.122944 
0 0.123727 0 0.124511 0 0.125294 0 0.126077 0 
0.12686 0 0.127643 0 0.128426 0 0.129209 0 0.129992 
0 0.130775 0 0.131558 0 0.132341 0 0.133125 0 
0.133908 0 0.134691 0 0.135474 0 0.136257 0 0.13704 
0 0.137823 0 0.138606 0 0.139389 0 0.140172 0 
0.140955 0 0.141738 0 0.142522 0 0.143305 0 0.144088 
0 0.144871 0 0.145654 0 0.146437 0 0.14722 0 
0.148003 0 0.148786 0 0.149569 0 0.150352 0 0.151135 
0 0.151919 0 0.152702 0 0.153485 0 0.154268 0 
0.155051 0 0.155834 0 0.156617 0 0.1574 0 0.158183 
0 0.158966 0 0.159749 0 0.160533 0 0.161316 0 
0.162099 0 0.162882 0 0.163665 0 0.164448 0 0.165231 
0 0.166014 0 0.166797 0 0.16758 0 0.168363 0 
0.169146 0 0.16993 0 0.170713 0 0.171496 0 0.172279 
0 0.173062 0 0.173845 0 0.174628 0 0.175411 0 
0.176194 0 0.176977 0 0.17776 0 0.178543 0 0.179327 
0 0.18011 0 0.180893 0 0.181676 0 0.182459 0 
0.183242 0 0.184025 0 0.184808 0 0.185591 0 0.186374 
0 0.187157 0 0.18794 0 0.188724 0 0.189507 0 
0.19029 0 0.191073 0 0.191856 0 0.192639 0 0.193422 
0 0.194205 0 0.194988 0 0.195771 0 0.196554 0 
0.197338 0 0.198121 0 0.198904 0 0.199687 0 0.20047 
0 0.201253 0 0.202036 0 0.202819 0 0.203602 0 
0.204385 0 0.205168 0 0.205951 0 0.206735 0 0.207518 
0 0.208301 0 0.209084 0 0.209867 0 0.21065 0 
0.211433 0 0.212216 0 0.212999 0 0.213782 0 0.214565 
0 0.215348 0 0.216132 0 0.216915 0 0.217698 0 
0.218481 0 0.219264 0 0.220047 0 0.22083 0 0.221613 
0 0.222396 0 0.223179 0 0.223962 0 0.224745 0 
0.225529 0 0.226312 0 0.227095 0 0.227878 0 0.228661 
0 0.229444 0 0.230227 0 0.23101 0 0.231793 0 
0.232576 0 0.233359 0 0.234143 0 0.234926 0 0.235709 
0 0.236492 0 0.237275 0 0.238058 0 0.238841 0 
0.239624 0 0.240407 0 0.24119 0 0.241973 0 0.242756 
0 0.24354 0 0.244323 0 0.245106 0 0.245889 0 
0.246672 0 0.247455 0 0.248238 0 0.249021 0 0.249804 
0 0.250587 0 0.25137 0 0.252153 0 0.252937 0 
0.25372 0 0.254503 0 0.255286 0 0.256069 0 0.256852 
0 0.257635 0 0.258418 0 0.259201 0 0.259984 0 
0.260767 0 0.261551 0 0.262334 0 0.263117 0 0.2639 
0 0.264683 0 0.265466 0 0.266249 0 0.267032 0 
0.267815 0 0.268598 0 0.269381 0 0.270164 0 0.270948 
0 0.271731 0 0.272514 0 0.273297 0 0.27408 0 
0.274863 0 0.275646 0 0.276429 0 0.277212 0 0.277995 
0 0.278778 0 0.279561 0 0.280345 0 0.281128 0 
0.281911 0 0.282694 0 0.283477 0 0.28426 0 0.285043 
0 0.285826 0 0.286609 0 0.287392 0 0.288175 0 
0.288958 0 0.289742 0 0.290525 0 0.291308 0 0.292091 
0 0.292874 0 0.293657 0 0.29444 0 0.295223 0 
0.296006 0 0.296789 0 0.297572 0 0.298356 0 0.299139 
0 0.299922 0 0.300705 0 0.301488 0 0.302271 0 
0.303054 0 0.303837 0 0.30462 0 0.305403 0 0.306186 
0 0.306969 0 0.307753 0 0.308536 0 0.309319 0 
0.310102 0 0.310885 0 0.311668 0 0.312451 0 0.313234 
0 0.314017 0 0.3148 0 0.315583 0 0.316366 0 
0.31715 0 0.317933 0 0.318716 0 0.319499 0 0.320282 
0 0.321065 0 0.321848 0 0.322631 0 0.323414 0 
0.324197 0 0.32498 0 0.325763 0 0.326547 0 0.32733 
0 0.328113 0 0.328896 0 0.329679 0 0.330462 0 
0.331245 0 0.332028 0 0.332811 0 0.333594 0 0.334377 
0 0.335161 0 0.335944 0 0.336727 0 0.33751 0 
0.338293 0 0.339076 0 0.339859 0 0.340642 0 0.341425 
0 0.342208 0 0.342991 0 0.343774 0 0.344558 0 
0.345341 0 0.346124 0 0.346907 0 0.34769 0 0.348473 
0 0.349256 0 0.350039 0 0.350822 0 0.351605 0 
0.352388 0 0.353171 0 0.353955 0 0.354738 0 0.355521 
0 0.356304 0 0.357087 0 0.35787 0 0.358653 0 
0.359436 0 0.360219 0 0.361002 0 0.361785 0 0.362569 
0 0.363352 0 0.364135 0 0.364918 0 0.365701 0 
0.366484 0 0.367267 0 0.36805 0 0.368833 0 0.369616 
0 0.370399 0 0.371182 0 0.371966 0 0.372749 0 
0.373532 0 0.374315 0 0.375098 0 0.375881 0 0.376664 
0 0.377447 0 0.37823 0 0.379013 0 0.379796 0 
0.380579 0 0.381363 0 0.382146 0 0.382929 0 0.383712 
0 0.384495 0 0.385278 0 0.386061 0 0.386844 0 
0.387627 0 0.38841 0 0.389193 0 0.389977 0 0.39076 
0 0.391543 0 0.392326 0 0.393109 0 0.393892 0 
0.394675 0 0.395458 0 0.396241 0 0.397024 0 0.397807 
0 0.39859 0 0.399374 0 0.400157 0 0.40094 0 
0.401723 0 0.402506 0 0.403289 0 0.404072 0 0.404855 
0 0.405638 0 0.406421 0 0.407204 0 0.407987 0 
0.408771 0 0.409554 0 0.410337 0 0.41112 0 0.411903 
0 0.412686 0 0.413469 0 0.414252 0 0.415035 0 
0.415818 0 0.416601 0 0.417385 0 0.418168 0 0.418951 
0 0.419734 0 0.420517 0 0.4213 0 0.422083 0 
0.422866 0 0.423649 0 0.424432 0 0.425215 0 0.425998 
0 0.426782 0 0.427565 0 0.428348 0 0.429131 0 
0.429914 0 0.430697 0 0.43148 0 0.432263 0 0.433046 
0 0.433829 0 0.434612 0 0.435395 0 0.436179 0 
0.436962 0 0.437745 0 0.438528 0 0.439311 0 0.440094 
0 0.440877 0 0.44166 0 0.442443 0 0.443226 0 
0.444009 0 0.444792 0 0.445576 0 0.446359 0 0.447142 
0 0.447925 0 0.448708 0 0.449491 0 0.450274 0 
0.451057 0 0.45184 0 0.452623 0 0.453406 0 0.45419 
0 0.454973 0 0.455756 0 0.456539 0 0.457322 0 
0.458105 0 0.458888 0 0.459671 0 0.460454 0 0.461237 
0 0.46202 0 0.462803 0 0.463587 0 0.46437 0 
0.465153 0 0.465936 0 0.466719 0 0.467502 0 0.468285 
0 0.469068 0 0.469851 0 0.470634 0 0.471417 0 
0.4722 0 0.472984 0 0.473767 0 0.47455 0 0.475333 
0 0.476116 0 0.476899 0 0.477682 0 0.478465 0 
0.479248 0 0.480031 0 0.480814 0 0.481597 0 0.482381 
0 0.483164 0 0.483947 0 0.48473 0 0.485513 0 
0.486296 0 0.487079 0 0.487862 0 0.488645 0 0.489428 
0 0.490211 0 0.490995 0 0.491778 0 0.492561 0 
0.493344 0 0.494127 0 0.49491 0 0.495693 0 0.496476 
0 0.497259 0 0.498042 0 0.498825 0 0.499608 0 
0.500392 0 0.501175 0 0.501958 0 0.502741 0 0.503524 
0 0.504307 0 0.50509 0 0.505873 0 0.506656 0 
0.507439 0 0.508222 0 0.509005 0 0.509789 0 0.510572 
0 0.511355 0 0.512138 0 0.512921 0 0.513704 0 
0.514487 0 0.51527 0 0.516053 0 0.516836 0 0.517619 
0 0.518403 0 0.519186 0 0.519969 0 0.520752 0 
0.521535 0 0.522318 0 0.523101 0 0.523884 0 0.524667 
0 0.52545 0 0.526233 0 0.527016 0 0.5278 0 
0.528583 0 0.529366 0 0.530149 0 0.530932 0 0.531715 
0 0.532498 0 0.533281 0 0.534064 0 0.534847 0 
0.53563 0 0.536413 0 0.537197 0 0.53798 0 0.538763 
0 0.539546 0 0.540329 0 0.541112 0 0.541895 0 
0.542678 0 0.543461 0 0.544244 0 0.545027 0 0.545811 
0 0.546594 0 0.547377 0 0.54816 0 0.548943 0 
0.549726 0 0.550509 0 0.551292 0 0.552075 0 0.552858 
0 0.553641 0 0.554424 0 0.555207 0 0.555991 0 
0.556774 0 0.557557 0 0.55834 0 0.559123 0 0.559906 
0 0.560689 0 0.561472 0 0.562255 0 0.563038 0 
0.563821 0 0.564605 0 0.565388 0 0.566171 0 0.566954 
0 0.567737 0 0.56852 0 0.569303 0 0.570086 0 
0.570869 0 0.571652 0 0.572435 0 0.573218 0 0.574002 
0 0.574785 0 0.575568 0 0.576351 0 0.577134 0 
0.577917 0 0.5787 0 0.579483 0 0.580266 0 0.581049 
0 0.581832 0 0.582615 0 0.583399 0 0.584182 0 
0.584965 0 0.585748 0 0.586531 0 0.587314 0 0.588097 
0 0.58888 0 0.589663 0 0.590446 0 0.591229 0 
0.592013 0 0.592796 0 0.593579 0 0.594362 0 0.595145 
0 0.595928 0 0.596711 0 0.597494 0 0.598277 0 
0.59906 0 0.599843 0 0.600626 0 0.60141 0 0.602193 
0 0.602976 0 0.603759 0 0.604542 0 0.605325 0 
0.606108 0 0.606891 0 0.607674 0 0.608457 0 0.60924 
0 0.610023 0 0.610807 0 0.61159 0 0.612373 0 
0.613156 0 0.613939 0 0.614722 0 0.615505 0 0.616288 
0 0.617071 0 0.617854 0 0.618637 0 0.619421 0 
0.620204 0 0.620987 0 0.62177 0 0.622553 0 0.623336 
0 0.624119 0 0.624902 0 0.625685 0 0.626468 0 
0.627251 0 0.628034 0 0.628818 0 0.629601 0 0.630384 
0 0.631167 0 0.63195 0 0.632733 0 0.633516 0 
0.634299 0 0.635082 0 0.635865 0 0.636648 0 0.637432 
0 0.638215 0 0.638998 0 0.639781 0 0.640564 0 
0.641347 0 0.64213 0 0.642913 0 0.643696 0 0.644479 
0 0.645262 0 0.646045 0 0.646829 0 0.647612 0 
0.648395 0 0.649178 0 0.649961 0 0.650744 0 0.651527 
0 0.65231 0 0.653093 0 0.653876 0 0.654659 0 
0.655442 0 0.656226 0 0.657009 0 0.657792 0 0.658575 
0 0.659358 0 0.660141 0 0.660924 0 0.661707 0 
0.66249 0 0.663273 0 0.664056 0 0.664839 0 0.665623 