# vtk DataFile Version 4.2
vtk output
ASCII
DATASET POLYDATA
POINTS 1278 float
0 0 0 -0.00409539 0.000204999 0.000666184 -0.0160315 0.000761971 0.00261644 
-0.0352834 0.00158388 0.00577831 -0.061326 0.00258367 0.0100794 -0.0936343 0.00367433 0.0154471 
-0.131683 0.0047688 0.0218092 -0.174948 0.00578004 0.0290931 -0.222903 0.00662102 0.0372263 
-0.275024 0.0072047 0.0461365 -0.330785 0.00744404 0.0557512 -0.389662 0.007252 0.0659979 
-0.45113 0.00654153 0.0768043 -0.514663 0.00522561 0.0880977 -0.579736 0.00321719 0.0998059 
-0.645825 0.000429225 0.111856 -0.712404 -0.00322531 0.124176 -0.778949 -0.00783347 0.136694 
-0.844934 -0.0134823 0.149336 -0.909834 -0.0202588 0.162031 -0.973125 -0.02825 0.174706 
-1.03428 -0.037543 0.187289 -1.09294 -0.0481895 0.199727 -1.14917 -0.0601424 0.212025 
-1.20312 -0.0733375 0.224199 -1.25496 -0.0877103 0.236262 -1.30484 -0.103197 0.248231 
-1.35291 -0.119732 0.26012 -1.39931 -0.137252 0.271943 -1.44422 -0.155693 0.283716 
-1.48778 -0.17499 0.295454 -1.53014 -0.195079 0.30717 -1.57145 -0.215895 0.318881 
-1.61188 -0.237374 0.330602 -1.65158 -0.259452 0.342346 -1.69069 -0.282065 0.354129 
-1.72938 -0.305148 0.365965 -1.76779 -0.328637 0.37787 -1.80608 -0.352467 0.389859 
-1.8444 -0.376575 0.401946 -1.88292 -0.400895 0.414146 -1.92176 -0.425365 0.426474 
-1.961 -0.449958 0.438934 -2.0006 -0.474679 0.451523 -2.04052 -0.499532 0.464234 
-2.08072 -0.524526 0.477065 -2.12118 -0.549665 0.49001 -2.16184 -0.574956 0.503064 
-2.20268 -0.600405 0.516223 -2.24366 -0.626019 0.529483 -2.28474 -0.651803 0.542838 
-2.32588 -0.677763 0.556284 -2.36705 -0.703907 0.569817 -2.40822 -0.730239 0.583432 
-2.44934 -0.756767 0.597123 -2.49037 -0.783496 0.610887 -2.53129 -0.810433 0.624719 
-2.57206 -0.837583 0.638615 -2.61263 -0.864953 0.652569 -2.65298 -0.89255 0.666576 
-2.69306 -0.920378 0.680634 -2.73284 -0.948445 0.694736 -2.77229 -0.976753 0.708879 
-2.81143 -1.00529 0.723064 -2.85027 -1.03406 0.737291 -2.88883 -1.06303 0.75156 
-2.92711 -1.09222 0.765873 -2.96513 -1.12159 0.780229 -3.00291 -1.15115 0.794629 
-3.04047 -1.18089 0.809074 -3.07781 -1.2108 0.823564 -3.11495 -1.24086 0.8381 
-3.1519 -1.27107 0.852682 -3.18869 -1.30142 0.867311 -3.22532 -1.3319 0.881987 
-3.26181 -1.3625 0.896711 -3.29817 -1.39321 0.911484 -3.33442 -1.42402 0.926305 
-3.37057 -1.45492 0.941176 -3.40664 -1.48591 0.956097 -3.44264 -1.51696 0.971068 
-3.47859 -1.54808 0.986091 -3.51449 -1.57926 1.00116 -3.55036 -1.61049 1.01629 
-3.58619 -1.64177 1.03146 -3.62198 -1.67309 1.04667 -3.65774 -1.70447 1.06193 
-3.69346 -1.73589 1.07723 -3.72915 -1.76736 1.09256 -3.76481 -1.79887 1.10793 
-3.80043 -1.83042 1.12333 -3.83602 -1.86201 1.13876 -3.87158 -1.89365 1.15422 
-3.90711 -1.92532 1.1697 -3.94261 -1.95702 1.1852 -3.97808 -1.98877 1.20073 
-4.01352 -2.02054 1.21627 -4.04893 -2.05235 1.23183 -4.08432 -2.08419 1.24739 
-4.11968 -2.11606 1.26297 -4.15501 -2.14796 1.27856 -4.19032 -2.17989 1.29415 
-4.22561 -2.21184 1.30975 -4.26087 -2.24382 1.32534 -4.29611 -2.27581 1.34093 
-4.33133 -2.30783 1.3565 -4.36654 -2.33987 1.37207 -4.40173 -2.37192 1.38761 
-4.43692 -2.40398 1.40313 -4.4721 -2.43606 1.41862 -4.50727 -2.46815 1.43407 
-4.54243 -2.50024 1.44949 -4.5776 -2.53234 1.46487 -4.61277 -2.56445 1.4802 
-4.64794 -2.59655 1.49548 -4.68312 -2.62866 1.5107 -4.71831 -2.66076 1.52586 
-4.75351 -2.69286 1.54096 -4.78872 -2.72495 1.55599 -4.82395 -2.75703 1.57094 
-4.8592 -2.78911 1.58581 -4.89447 -2.82117 1.6006 -4.92976 -2.85321 1.6153 
-4.96508 -2.88524 1.62991 -5.00045 -2.91727 1.64439 -5.03586 -2.94928 1.65872 
-5.07133 -2.9813 1.67288 -5.10688 -3.01332 1.68685 -5.14251 -3.04535 1.7006 
-5.17823 -3.07739 1.7141 -5.21406 -3.10945 1.72734 -5.25001 -3.14154 1.74029 
-5.28608 -3.17365 1.75293 -5.32229 -3.2058 1.76522 -5.35865 -3.23798 1.77715 
-5.39517 -3.27021 1.7887 -5.43187 -3.30248 1.79983 -5.46874 -3.3348 1.81053 
-5.5058 -3.36718 1.82077 -5.54307 -3.39962 1.83053 -5.58056 -3.43212 1.83978 
-5.61827 -3.4647 1.8485 -5.65622 -3.49735 1.85667 -5.6944 -3.53008 1.86425 
-5.7328 -3.56286 1.87119 -5.77137 -3.59569 1.87744 -5.81008 -3.62855 1.88294 
-5.8489 -3.66141 1.88763 -5.8878 -3.69426 1.89145 -5.92672 -3.72709 1.89436 
-5.96565 -3.75987 1.89629 -6.00455 -3.79258 1.89718 -6.04337 -3.82521 1.89698 
-6.08209 -3.85774 1.89563 -6.12067 -3.89015 1.89307 -6.15908 -3.92243 1.88925 
-6.19728 -3.95455 1.88411 -6.23524 -3.9865 1.8776 -6.27291 -4.01826 1.86965 
-6.31028 -4.04981 1.86021 -6.34729 -4.08113 1.84922 -6.38392 -4.11222 1.83663 
-6.42013 -4.14304 1.82238 -6.45589 -4.17358 1.80641 -6.49117 -4.20384 1.78878 
-6.52597 -4.23382 1.76952 -6.56025 -4.26352 1.74871 -6.59402 -4.29293 1.72641 
-6.62725 -4.32207 1.70269 -6.65992 -4.35092 1.6776 -6.69203 -4.3795 1.65121 
-6.72354 -4.4078 1.62358 -6.75446 -4.43582 1.59478 -6.78475 -4.46357 1.56487 
-6.81442 -4.49104 1.53392 -6.84343 -4.51823 1.50197 -6.87177 -4.54515 1.46911 
-6.89943 -4.57179 1.43538 -6.92639 -4.59816 1.40087 -6.95264 -4.62426 1.36562 
-6.97816 -4.65009 1.3297 -7.00292 -4.67564 1.29317 -7.02693 -4.70092 1.2561 
-7.05016 -4.72593 1.21855 -7.07261 -4.75069 1.18056 -7.09433 -4.7752 1.14214 
-7.11532 -4.79948 1.10332 -7.13562 -4.82357 1.06411 -7.15524 -4.84746 1.02454 
-7.17422 -4.87118 0.984631 -7.19257 -4.89474 0.944397 -7.21033 -4.91817 0.903861 
-7.22751 -4.94148 0.863044 -7.24413 -4.96469 0.821965 -7.26023 -4.98781 0.780646 
-7.27583 -5.01086 0.739107 -7.29095 -5.03387 0.697367 -7.30561 -5.05684 0.655449 
-7.31985 -5.0798 0.613371 -7.33368 -5.10276 0.571154 -7.34712 -5.12574 0.52882 
-7.36021 -5.14876 0.486387 -7.37296 -5.17183 0.443877 -7.38541 -5.19497 0.401309 
-7.39756 -5.2182 0.358698 -7.40942 -5.24151 0.316047 -7.42098 -5.26491 0.273361 
-7.43226 -5.28839 0.230642 -7.44326 -5.31197 0.187896 -7.45396 -5.33564 0.145125 
-7.46439 -5.35941 0.102334 -7.47453 -5.38327 0.0595263 -7.48439 -5.40723 0.0167057 
-7.49398 -5.43129 -0.0261239 -7.50328 -5.45546 -0.0689588 -7.51232 -5.47973 -0.111795 
-7.52108 -5.5041 -0.154629 -7.52957 -5.52858 -0.197456 -7.53779 -5.55318 -0.240274 
-7.54575 -5.57788 -0.283078 -7.55344 -5.6027 -0.325864 -7.56087 -5.62763 -0.368628 
-7.56803 -5.65269 -0.411368 -7.57494 -5.67786 -0.454078 -7.58158 -5.70315 -0.496756 
-7.58798 -5.72856 -0.539398 -7.59411 -5.7541 -0.582001 -7.6 -5.77977 -0.624563 
-7.60563 -5.80556 -0.667081 -7.61101 -5.83148 -0.709552 -7.61614 -5.85754 -0.751974 
-7.62103 -5.88372 -0.794342 -7.62567 -5.91003 -0.836656 -7.63007 -5.93648 -0.87891 
-7.63423 -5.96307 -0.921104 -7.63815 -5.98979 -0.963234 -7.64183 -6.01665 -1.0053 
-7.64527 -6.04365 -1.04729 -7.64848 -6.0708 -1.08921 -7.65146 -6.09808 -1.13106 
-7.6542 -6.12551 -1.17282 -7.65672 -6.15308 -1.21451 -7.659 -6.18081 -1.25611 
-7.66106 -6.20868 -1.29763 -7.6629 -6.2367 -1.33905 -7.66451 -6.26487 -1.38039 
-7.66589 -6.29319 -1.42163 -7.66705 -6.32166 -1.46277 -7.66797 -6.35027 -1.50382 
-7.66867 -6.37904 -1.54477 -7.66914 -6.40795 -1.58562 -7.66938 -6.43702 -1.62637 
-7.66939 -6.46622 -1.66701 -7.66917 -6.49558 -1.70754 -7.66871 -6.52508 -1.74797 
-7.66802 -6.55473 -1.78828 -7.6671 -6.58452 -1.82849 -7.66594 -6.61446 -1.86857 
-7.66454 -6.64454 -1.90855 -7.66291 -6.67477 -1.9484 -7.66104 -6.70514 -1.98814 
-7.65893 -6.73565 -2.02776 -7.65658 -6.76631 -2.06725 -7.65399 -6.79711 -2.10661 
-7.65116 -6.82806 -2.14585 -7.64809 -6.85914 -2.18496 -7.64477 -6.89037 -2.22394 
-7.64121 -6.92173 -2.26278 -7.6374 -6.95324 -2.30149 -7.63335 -6.98488 -2.34006 
-7.62904 -7.01666 -2.3785 -7.62448 -7.04858 -2.41679 -7.61967 -7.08063 -2.45493 
-7.61461 -7.11281 -2.49293 -7.60929 -7.14513 -2.53078 -7.60371 -7.17758 -2.56848 
-7.59788 -7.21016 -2.60603 -7.59178 -7.24287 -2.64342 -7.58543 -7.27571 -2.68065 
-7.57881 -7.30868 -2.71773 -7.57192 -7.34178 -2.75464 -7.56477 -7.375 -2.79139 
-7.55735 -7.40835 -2.82798 -7.54967 -7.44183 -2.8644 -7.54171 -7.47542 -2.90064 
-7.53348 -7.50914 -2.93672 -7.52497 -7.54298 -2.97262 -7.51619 -7.57694 -3.00834 
-7.50713 -7.61102 -3.04388 -7.49779 -7.64521 -3.07923 -7.48816 -7.67952 -3.1144 
-7.47825 -7.71394 -3.14937 -7.46805 -7.74848 -3.18415 -7.45756 -7.78312 -3.21874 
-7.44677 -7.81787 -3.25312 -7.43569 -7.85273 -3.2873 -7.42431 -7.8877 -3.32128 
-7.41262 -7.92277 -3.35504 -7.40064 -7.95794 -3.3886 -7.38835 -7.99321 -3.42193 
-7.37575 -8.02859 -3.45505 -7.36284 -8.06406 -3.48795 -7.34962 -8.09963 -3.52062 
-7.33608 -8.13529 -3.55307 -7.32223 -8.17104 -3.58528 -7.30806 -8.20689 -3.61726 
-7.29356 -8.24283 -3.64899 -7.27873 -8.27885 -3.68049 -7.26358 -8.31496 -3.71173 
-7.24809 -8.35115 -3.74271 -7.23226 -8.38742 -3.77343 -7.21609 -8.42376 -3.80388 
-7.19958 -8.46018 -3.83405 -7.18272 -8.49667 -3.86394 -7.1655 -8.53322 -3.89354 
-7.14793 -8.56984 -3.92285 -7.13 -8.60653 -3.95186 -7.11171 -8.64327 -3.98057 
-7.09305 -8.68007 -4.00896 -7.07402 -8.71693 -4.03704 -7.05462 -8.75384 -4.06479 
-7.03483 -8.7908 -4.09221 -7.01467 -8.8278 -4.1193 -6.99412 -8.86485 -4.14605 
-6.97319 -8.90194 -4.17245 -6.95186 -8.93907 -4.1985 -6.93014 -8.97623 -4.22418 
-6.90802 -9.01342 -4.24949 -6.88549 -9.05064 -4.27442 -6.86256 -9.08788 -4.29894 
-6.83922 -9.12512 -4.32307 -6.81546 -9.16238 -4.34677 -6.79129 -9.19963 -4.37004 
-6.7667 -9.23689 -4.39287 -6.74168 -9.27413 -4.41524 -6.71623 -9.31136 -4.43715 
-6.69035 -9.34857 -4.45859 -6.66403 -9.38576 -4.47954 -6.63728 -9.42292 -4.49999 
-6.61008 -9.46004 -4.51993 -6.58243 -9.49712 -4.53935 -6.55433 -9.53415 -4.55824 
-6.52578 -9.57114 -4.57659 -6.49677 -9.60807 -4.59438 -6.4673 -9.64493 -4.6116 
-6.43737 -9.68173 -4.62825 -6.40696 -9.71845 -4.64431 -6.3761 -9.75508 -4.65974 
-6.34478 -9.7916 -4.67454 -6.313 -9.828 -4.68867 -6.28078 -9.86428 -4.70212 
-6.24811 -9.9004 -4.71486 -6.21499 -9.93636 -4.72686 -6.18144 -9.97215 -4.73811 
-6.14745 -10.0077 -4.74859 -6.11303 -10.0431 -4.75826 -6.07819 -10.0783 -4.7671 
-6.04292 -10.1133 -4.7751 -6.00723 -10.1479 -4.78222 -5.97112 -10.1824 -4.78845 
-5.93461 -10.2165 -4.79377 -5.89768 -10.2504 -4.79814 -5.86035 -10.284 -4.80155 
[...]
CELL_DATA 1
FIELD FieldData 2
Length 1 1 double
63.878778002 
Tortuosity 1 1 double
0.66522623629 
POINT_DATA 1278
SCALARS MaximumInscribedSphereRadius float
LOOKUP_TABLE default
0.9796 0.978011 0.976422 0.974833 0.973244 0.971655 0.970066 0.968478 0.966889 
0.9653 0.963711 0.962122 0.960533 0.958944 0.957355 0.955766 0.954177 0.952588 
0.950999 0.94941 0.947821 0.947199 0.95372 0.960241 0.966762 0.973283 0.979805 
0.986326 0.992847 0.999368 1.00589 1.01241 1.01893 1.02545 1.03197 1.03849 
1.04501 1.05154 1.05806 1.06458 1.0711 1.08104 1.09409 1.10714 1.12019 
1.13325 1.1463 1.15935 1.1724 1.18546 1.19851 1.21156 1.22461 1.23767 
1.25072 1.26377 1.27682 1.28988 1.30293 1.31598 1.32903 1.34095 1.34717 
1.35339 1.35961 1.36583 1.37205 1.37827 1.38449 1.39071 1.39693 1.40315 
1.40937 1.41559 1.42181 1.42803 1.43426 1.44048 1.4467 1.45292 1.45914 
1.46536 1.46673 1.46743 1.46813 1.46883 1.46953 1.47023 1.47093 1.47163 
1.47233 1.47303 1.47373 1.47443 1.47513 1.47583 1.47653 1.47723 1.47793 
1.47863 1.47933 1.48003 1.4734 1.46184 1.45027 1.43871 1.42714 1.41558 
1.40402 1.39245 1.38089 1.36932 1.35776 1.34619 1.33463 1.32307 1.3115 
1.29994 1.28837 1.27681 1.26524 1.25368 1.24235 1.23152 1.22069 1.20986 
1.19903 1.1882 1.17737 1.16654 1.15572 1.14489 1.13406 1.12323 1.1124 
1.10157 1.09074 1.07991 1.06908 1.05826 1.04743 1.0366 1.02612 1.0261 
1.02608 1.02606 1.02604 1.02602 1.026 1.02598 1.02596 1.02594 1.02592 
1.0259 1.02588 1.02586 1.02584 1.02582 1.0258 1.02578 1.02576 1.02574 
1.02572 1.02492 1.02392 1.02292 1.02193 1.02093 1.01993 1.01893 1.01793 
1.01693 1.01593 1.01494 1.01394 1.01294 1.01194 1.01094 1.00994 1.00894 
1.00795 1.00695 1.00595 1.00466 1.00322 1.00178 1.00034 0.998901 0.997462 
0.996023 0.994583 0.993144 0.991704 0.990265 0.988825 0.987386 0.985946 0.984507 
0.983068 0.981628 0.980189 0.978749 0.97731 0.981166 0.992945 1.00472 1.0165 
1.02828 1.04006 1.05184 1.06362 1.0754 1.08718 1.09896 1.11074 1.12252 
1.1343 1.14608 1.15786 1.16964 1.18142 1.1932 1.20498 1.21549 1.2167 
1.21792 1.21913 1.22035 1.22157 1.22278 1.224 1.22521 1.22643 1.22765 
1.22886 1.23008 1.23129 1.23251 1.23373 1.23494 1.23616 1.23737 1.23859 
1.23981 1.24 1.24 1.24 1.24 1.24 1.24 1.24 1.24 
1.24 1.24 1.24 1.24 1.24 1.24 1.24 1.24 1.24 
1.24 1.24 1.24 1.24 1.24 1.24 1.24 1.24 1.24 
1.24 1.24 1.24 1.24 1.24 1.24 1.24 1.24 1.24 
1.24 1.24 1.24 1.24 1.24 1.24138 1.24626 1.25114 1.25602 
1.2609 1.26578 1.27066 1.27554 1.28042 1.28529 1.29017 1.29505 1.29993 
1.30481 1.30969 1.31457 1.31945 1.32433 1.32921 1.33409 1.33899 1.34802 
1.35706 1.36609 1.37512 1.38415 1.39318 1.40221 1.41124 1.42027 1.4293 
1.43833 1.44737 1.4564 1.46543 1.47446 1.48349 1.49252 1.50155 1.51058 
1.51961 1.52749 1.53496 1.54242 1.54989 1.55736 1.56482 1.57229 1.57975 
1.58722 1.59468 1.60215 1.60962 1.61708 1.62455 1.63201 1.63948 1.64694 
1.65441 1.66188 1.66934 1.67139 1.66748 1.66357 1.65966 1.65575 1.65184 
1.64793 1.64402 1.64011 1.6362 1.63229 1.62838 1.62447 1.62056 1.61665 
1.61274 1.60883 1.60492 1.60102 1.59711 1.59333 1.58996 1.58659 1.58322 
1.57985 1.57648 1.57311 1.56974 1.56637 1.56299 1.55962 1.55625 1.55288 
1.54951 1.54614 1.54277 1.5394 1.53603 1.53266 1.52929 1.52754 1.54827 
1.569 1.58972 1.61045 1.63117 1.6519 1.67262 1.69335 1.71408 1.7348 
1.75553 1.77625 1.79698 1.8177 1.83843 1.85916 1.87988 1.90061 1.92133 
1.94206 1.93533 1.92482 1.91432 1.90382 1.89332 1.88281 1.87231 1.86181 
1.85131 1.84081 1.8303 1.8198 1.8093 1.7988 1.7883 1.77779 1.76729 
1.75679 1.74629 1.73578 1.72804 1.72187 1.71571 1.70954 1.70338 1.69721 
1.69104 1.68488 1.67871 1.67255 1.66638 1.66022 1.65405 1.64788 1.64172 
1.63555 1.62939 1.62322 1.61705 1.61089 1.607 1.60702 1.60704 1.60707 
1.60709 1.60711 1.60714 1.60716 1.60718 1.60721 1.60723 1.60725 1.60728 
1.6073 1.60732 1.60735 1.60737 1.60739 1.60742 1.60744 1.60822 1.6166 
1.62497 1.63334 1.64171 1.65008 1.65845 1.66682 1.6752 1.68357 1.69194 
1.70031 1.70868 1.71705 1.72543 1.7338 1.74217 1.75054 1.75891 1.76728 
1.77566 1.77405 1.77013 1.7662 1.76228 1.75836 1.75444 1.75052 1.7466 
1.74268 1.73876 1.73484 1.73092 1.727 1.72308 1.71916 1.71523 1.71131 
1.70739 1.70347 1.69955 1.69384 1.68655 1.67926 1.67198 1.66469 1.6574 
1.65012 1.64283 1.63555 1.62826 1.62097 1.61369 1.6064 1.59911 1.59183 
1.58454 1.57725 1.56997 1.56268 1.5554 1.5505 1.55243 1.55436 1.55629 
1.55821 1.56014 1.56207 1.564 1.56593 1.56786 1.56979 1.57171 1.57364 
1.57557 1.5775 1.57943 1.58136 1.58329 1.58522 1.58714 1.58907 1.59817 
1.6073 1.61642 1.62555 1.63467 1.6438 1.65293 1.66205 1.67118 1.6803 
1.68943 1.69856 1.70768 1.71681 1.72593 1.73506 1.74419 1.75331 1.76244 
1.77157 1.77208 1.76957 1.76707 1.76456 1.76205 1.75954 1.75703 1.75452 
1.75201 1.7495 1.74699 1.74449 1.74198 1.73947 1.73696 1.73445 1.73194 
1.72943 1.72692 1.72441 1.72335 1.72388 1.7244 1.72493 1.72545 1.72598 
1.7265 1.72703 1.72755 1.72808 1.7286 1.72913 1.72965 1.73018 1.7307 
1.73123 1.73175 1.73228 1.73281 1.73333 1.73877 1.76373 1.7887 1.81366 
1.83863 1.86359 1.88855 1.91352 1.93848 1.96345 1.98841 2.01337 2.03834 
2.0633 2.08827 2.11323 2.13819 2.16316 2.18812 2.21308 2.23805 2.23631 
2.23226 2.2282 2.22415 2.2201 2.21605 2.21199 2.20794 2.20389 2.19983 
2.19578 2.19173 2.18768 2.18362 2.17957 2.17552 2.17146 2.16741 2.16336 
2.15931 2.14418 2.12279 2.1014 2.08001 2.05862 2.03723 2.01584 1.99445 
1.97306 1.95167 1.93028 1.90889 1.88749 1.8661 1.84471 1.82332 1.80193 
1.78054 1.75915 1.73776 1.72677 1.73464 1.74252 1.75039 1.75827 1.76614 
1.77402 1.78189 1.78976 1.79764 1.80551 1.81339 1.82126 1.82914 1.83701 
1.84489 1.85276 1.86064 1.86851 1.87639 1.88438 1.89393 1.90348 1.91303 
1.92258 1.93213 1.94168 1.95123 1.96078 1.97033 1.97988 1.98943 1.99898 
2.00853 2.01808 2.02763 2.03718 2.04673 2.05628 2.06583 2.07538 2.06219 
2.04292 2.02365 2.00439 1.98512 1.96586 1.94659 1.92733 1.90806 1.88879 
1.86953 1.85026 1.831 1.81173 1.79246 1.7732 1.75393 1.73467 1.7154 
1.69613 1.67994 1.66669 1.65344 1.64019 1.62694 1.61369 1.60044 1.5872 
1.57395 1.5607 1.54745 1.5342 1.52095 1.5077 1.49445 1.4812 1.46795 
1.4547 1.44145 1.4282 1.41706 1.41271 1.40837 1.40402 1.39968 1.39533 
1.39099 1.38664 1.38229 1.37795 1.3736 1.36926 1.36491 1.36056 1.35622 
1.35187 1.34753 1.34318 1.33884 1.33449 1.33014 1.3476 1.36586 1.38411 
1.40237 1.42063 1.43888 1.45714 1.4754 1.49365 1.51191 1.53016 1.54842 
1.56668 1.58493 1.60319 1.62145 1.6397 1.65796 1.67622 1.69447 1.70967 
1.7235 1.73733 1.75116 1.76499 1.77882 1.79266 1.80649 1.82032 1.83415 
1.84798 1.86181 1.87564 1.88948 1.90331 1.91714 1.93097 1.9448 1.95863 
1.97246 1.98141 1.98352 1.98562 1.98772 1.98982 1.99193 1.99403 1.99613 
1.99823 2.00034 2.00244 2.00454 2.00664 2.00874 2.01085 2.01295 2.01505 
2.01715 2.01926 2.02136 2.01944 1.99243 1.96542 1.9384 1.91139 1.88438 
1.85737 1.83035 1.80334 1.77633 1.74932 1.7223 1.69529 1.66828 1.64127 
1.61425 1.58724 1.56023 1.53322 1.5062 1.47919 1.46547 1.45392 1.44237 
1.43082 1.41927 1.40772 1.39618 1.38463 1.37308 1.36153 1.34998 1.33843 
1.32688 1.31534 1.30379 1.29224 1.28069 1.26914 1.25759 1.24604 1.2487 
1.26166 1.27461 1.28757 1.30053 1.31349 1.32644 1.3394 1.35236 1.36531 
1.37827 1.39123 1.40418 1.41714 1.4301 1.44305 1.45601 1.46897 1.48192 
1.49488 1.50712 1.51768 1.52825 1.53881 1.54937 1.55993 1.57049 1.58105 
1.59161 1.60218 1.61274 1.6233 1.63386 1.64442 1.65498 1.66555 1.67611 
1.68667 1.69723 1.70779 1.7183 1.7255 1.73269 1.73989 1.74709 1.75429 
1.76149 1.76868 1.77588 1.78308 1.79028 1.79748 1.80468 1.81187 1.81907 
1.82627 1.83347 1.84067 1.84786 1.85506 1.86226 1.86469 1.86539 1.86609 
1.86679 1.86749 1.86819 1.86889 1.86959 1.87028 1.87098 1.87168 1.87238 
1.87308 1.87378 1.87448 1.87518 1.87588 1.87658 1.87728 1.87797 1.87826 
1.87805 1.87784 1.87762 1.87741 1.8772 1.87698 1.87677 1.87656 1.87634 
1.87613 1.87592 1.8757 1.87549 1.87528 1.87506 1.87485 1.87463 1.87442 
1.87421 1.87391 1.87322 1.87253 1.87184 1.87115 1.87046 1.86976 1.86907 
1.86838 1.86769 1.867 1.8663 1.86561 1.86492 1.86423 1.86354 1.86284 
1.86215 1.86146 1.86077 1.86008 1.86 1.86 1.86 1.86 1.86 
1.86 1.86 1.86 1.86 1.86 1.86 1.86 1.86 1.86 
1.86 1.86 1.86 1.86 1.86 1.86 1.86 1.86 1.86 
1.86 1.86 1.86 1.86 1.86 1.86 1.86 1.86 1.86 
1.86 1.86 1.86 1.86 1.86 1.86 1.86 1.86 1.86 
1.86 1.86 1.86 1.86 1.86 1.86 1.86 1.86 1.86 
1.86 1.86 1.86 1.86 1.86 1.86 1.86 1.86 1.86 
1.86 1.86 1.86 1.86 1.86 1.86 1.86 1.86 1.86 
1.86 1.86 1.86 1.86 1.86 1.86 1.86 1.86 1.86 
1.86 1.86 1.86 1.86 1.86 1.86 1.86 1.86 1.86 
1.86 1.86 1.86 1.86 1.86 1.86 1.86 1.86 1.86 
1.86 1.86 1.86 1.86 1.86 1.86 1.86 1.86 1.86 
1.86 1.86 1.86 1.86 1.86 1.86 1.86 1.86 1.86 
1.86 1.86 1.86 1.86 1.86 1.86 1.86 1.86 1.86 
1.86 1.86 1.86 1.86 1.86 1.86 1.86 1.86 1.86 
1.86 1.86 1.86 1.86 1.86 1.86 1.86 1.86 1.86 
1.86 1.86 1.8657 1.87168 1.87766 1.88364 1.88962 1.8956 1.90158 
1.90756 1.91353 1.91951 1.92549 1.93147 1.93745 1.94343 1.94941 1.95538 
1.96136 1.96734 1.97332 1.9793 1.9923 2.00861 2.02493 2.04125 2.05757 
2.07388 2.0902 2.10652 2.12284 2.13915 2.15547 2.17179 2.18811 2.20442 
2.22074 2.23706 2.25338 2.26969 2.28601 2.30233 2.30957 2.30335 2.29714 
2.29093 2.28472 2.2785 2.27229 2.26608 2.25987 2.25365 2.24744 2.24123 
2.23501 2.2288 2.22259 2.21638 2.21016 2.20395 2.19774 2.19153 2.18384 
2.16616 2.14848 2.13079 2.11311 2.09542 2.07774 2.06006 2.04237 2.02469 
2.00701 1.98932 1.97164 1.95395 1.93627 1.91859 1.9009 1.88322 1.86553 
1.84785 1.83017 1.81967 1.81053 1.80138 1.79223 1.78308 1.77394 1.76479 
1.75564 1.7465 1.73735 1.7282 1.71905 1.70991 1.70076 1.69161 1.68246 
1.67332 1.66417 1.65502 1.64587 1.6416 1.64307 1.64455 1.64603 1.64751 
1.64898 1.65046 1.65194 1.65342 1.65489 1.65637 1.65785 1.65933 1.6608 
1.66228 1.66376 1.66523 1.66671 1.66819 1.66967 1.67842 1.6875 1.69658 
1.70565 1.71473 1.72381 1.73289 1.74197 1.75105 1.76013 1.76921 1.77829 
1.78737 1.79645 1.80553 1.8146 1.82368 1.83276 1.84184 1.85092 1.86 

TEXTURE_COORDINATES TCoords 2 float
0 0 0.000783085 0 0.00156617 0 0.00234926 0 0.00313234 
0 0.00391543 0 0.00469851 0 0.0054816 0 0.00626468 0 
0.00704777 0 0.00783085 0 0.00861394 0 0.00939702 0 0.0101801 
0 0.0109632 0 0.0117463 0 0.0125294 0 0.0133125 0 
0.0140955 0 0.0148786 0 0.0156617 0 0.0164448 0 0.0172279 
0 0.018011 0 0.018794 0 0.0195771 0 0.0203602 0 
0.0211433 0 0.0219264 0 0.0227095 0 0.0234926 0 0.0242756 
0 0.0250587 0 0.0258418 0 0.0266249 0 0.027408 0 
0.0281911 0 0.0289742 0 0.0297572 0 0.0305403 0 0.0313234 
0 0.0321065 0 0.0328896 0 0.0336727 0 0.0344558 0 
0.0352388 0 0.0360219 0 0.036805 0 0.0375881 0 0.0383712 
0 0.0391543 0 0.0399374 0 0.0407204 0 0.0415035 0 
0.0422866 0 0.0430697 0 0.0438528 0 0.0446359 0 0.045419 
0 0.046202 0 0.0469851 0 0.0477682 0 0.0485513 0 
0.0493344 0 0.0501175 0 0.0509005 0 0.0516836 0 0.0524667 
0 0.0532498 0 0.0540329 0 0.054816 0 0.0555991 0 
0.0563821 0 0.0571652 0 0.0579483 0 0.0587314 0 0.0595145 
0 0.0602976 0 0.0610807 0 0.0618637 0 0.0626468 0 
0.0634299 0 0.064213 0 0.0649961 0 0.0657792 0 0.0665623 
0 0.0673453 0 0.0681284 0 0.0689115 0 0.0696946 0 
0.0704777 0 0.0712608 0 0.0720439 0 0.0728269 0 0.07361 
0 0.0743931 0 0.0751762 0 0.0759593 0 0.0767424 0 
0.0775255 0 0.0783085 0 0.0790916 0 0.0798747 0 0.0806578 
0 0.0814409 0 0.082224 0 0.083007 0 0.0837901 0 
0.0845732 0 0.0853563 0 0.0861394 0 0.0869225 0 0.0877056 
0 0.0884886 0 0.0892717 0 0.0900548 0 0.0908379 0 
0.091621 0 0.0924041 0 0.0931872 0 0.0939702 0 0.0947533 
0 0.0955364 0 0.0963195 0 0.0971026 0 0.0978857 0 
0.0986688 0 0.0994518 0 0.100235 0 0.101018 0 0.101801 
0 0.102584 0 0.103367 0 0.10415 0 0.104933 0 
0.105717 0 0.1065 0 0.107283 0 0.108066 0 0.108849 
0 0.109632 0 0.110415 0 0.111198 0 0.111981 0 
0.112764 0 0.113547 0 0.11433 0 0.115114 0 0.115897 
0 0.11668 0 0.117463 0 0.118246 0 0.119029 0 
0.119812 0 0.120595 0 0.121378 0 0.122161 0 0.122944 
0 0.123727 0 0.124511 0 0.125294 0 0.126077 0 
0.12686 0 0.127643 0 0.128426 0 0.129209 0 0.129992 
0 0.130775 0 0.131558 0 0.132341 0 0.133125 0 
0.133908 0 0.134691 0 0.135474 0 0.136257 0 0.13704 
0 0.137823 0 0.138606 0 0.139389 0 0.140172 0 
0.140955 0 0.141738 0 0.142522 0 0.143305 0 0.144088 
0 0.144871 0 0.145654 0 0.146437 0 0.14722 0 
0.148003 0 0.148786 0 0.149569 0 0.150352 0 0.151135 
0 0.151919 0 0.152702 0 0.153485 0 0.154268 0 
0.155051 0 0.155834 0 0.156617 0 0.1574 0 0.158183 
0 0.158966 0 0.159749 0 0.160533 0 0.161316 0 
0.162099 0 0.162882 0 0.163665 0 0.164448 0 0.165231 
0 0.166014 0 0.166797 0 0.16758 0 0.168363 0 
0.169146 0 0.16993 0 0.170713 0 0.171496 0 0.172279 
0 0.173062 0 0.173845 0 0.174628 0 0.175411 0 
0.176194 0 0.176977 0 0.17776 0 0.178543 0 0.179327 
0 0.18011 0 0.180893 0 0.181676 0 0.182459 0 
0.183242 0 0.184025 0 0.184808 0 0.185591 0 0.186374 
0 0.187157 0 0.18794 0 0.188724 0 0.189507 0 
0.19029 0 0.191073 0 0.191856 0 0.192639 0 0.193422 
0 0.194205 0 0.194988 0 0.195771 0 0.196554 0 
0.197338 0 0.198121 0 0.198904 0 0.199687 0 0.20047 
0 0.201253 0 0.202036 0 0.202819 0 0.203602 0 
0.204385 0 0.205168 0 0.205951 0 0.206735 0 0.207518 
0 0.208301 0 0.209084 0 0.209867 0 0.21065 0 
0.211433 0 0.212216 0 0.212999 0 0.213782 0 0.214565 
0 0.215348 0 0.216132 0 0.216915 0 0.217698 0 
0.218481 0 0.219264 0 0.220047 0 0.22083 0 0.221613 
0 0.222396 0 0.223179 0 0.223962 0 0.224745 0 
0.225529 0 0.226312 0 0.227095 0 0.227878 0 0.228661 
0 0.229444 0 0.230227 0 0.23101 0 0.231793 0 
0.232576 0 0.233359 0 0.234143 0 0.234926 0 0.235709 
0 0.236492 0 0.237275 0 0.238058 0 0.238841 0 
0.239624 0 0.240407 0 0.24119 0 0.241973 0 0.242756 
0 0.24354 0 0.244323 0 0.245106 0 0.245889 0 
0.246672 0 0.247455 0 0.248238 0 0.249021 0 0.249804 
0 0.250587 0 0.25137 0 0.252153 0 0.252937 0 
0.25372 0 0.254503 0 0.255286 0 0.256069 0 0.256852 
0 0.257635 0 0.258418 0 0.259201 0 0.259984 0 
0.260767 0 0.261551 0 0.262334 0 0.263117 0 0.2639 
0 0.264683 0 0.265466 0 0.266249 0 0.267032 0 
0.267815 0 0.268598 0 0.269381 0 0.270164 0 0.270948 
0 0.271731 0 0.272514 0 0.273297 0 0.27408 0 
0.274863 0 0.275646 0 0.276429 0 0.277212 0 0.277995 
0 0.278778 0 0.279561 0 0.280345 0 0.281128 0 
0.281911 0 0.282694 0 0.283477 0 0.28426 0 0.285043 
0 0.285826 0 0.286609 0 0.287392 0 0.288175 0 
0.288958 0 0.289742 0 0.290525 0 0.291308 0 0.292091 
0 0.292874 0 0.293657 0 0.29444 0 0.295223 0 
0.296006 0 0.296789 0 0.297572 0 0.298356 0 0.299139 
0 0.299922 0 0.300705 0 0.301488 0 0.302271 0 
0.303054 0 0.303837 0 0.30462 0 0.305403 0 0.306186 
0 0.306969 0 0.307753 0 0.308536 0 0.309319 0 
0.310102 0 0.310885 0 0.311668 0 0.312451 0 0.313234 
0 0.314017 0 0.3148 0 0.315583 0 0.316366 0 
0.31715 0 0.317933 0 0.318716 0 0.319499 0 0.320282 
0 0.321065 0 0.321848 0 0.322631 0 0.323414 0 
0.324197 0 0.32498 0 0.325763 0 0.326547 0 0.32733 
0 0.328113 0 0.328896 0 0.329679 0 0.330462 0 
0.331245 0 0.332028 0 0.332811 0 0.333594 0 0.334377 
0 0.335161 0 0.335944 0 0.336727 0 0.33751 0 
0.338293 0 0.339076 0 0.339859 0 0.340642 0 0.341425 
0 0.342208 0 0.342991 0 0.343774 0 0.344558 0 
0.345341 0 0.346124 0 0.346907 0 0.34769 0 0.348473 
0 0.349256 0 0.350039 0 0.350822 0 0.351605 0 
0.352388 0 0.353171 0 0.353955 0 0.354738 0 0.355521 
0 0.356304 0 0.357087 0 0.35787 0 0.358653 0 
0.359436 0 0.360219 0 0.361002 0 0.361785 0 0.362569 
0 0.363352 0 0.364135 0 0.364918 0 0.365701 0 
0.366484 0 0.367267 0 0.36805 0 0.368833 0 0.369616 
0 0.370399 0 0.371182 0 0.371966 0 0.372749 0 
0.373532 0 0.374315 0 0.375098 0 0.375881 0 0.376664 
0 0.377447 0 0.37823 0 0.379013 0 0.379796 0 
0.380579 0 0.381363 0 0.382146 0 0.382929 0 0.383712 
0 0.384495 0 0.385278 0 0.386061 0 0.386844 0 
0.387627 0 0.38841 0 0.389193 0 0.389977 0 0.39076 
0 0.391543 0 0.392326 0 0.393109 0 0.393892 0 
0.394675 0 0.395458 0 0.396241 0 0.397024 0 0.397807 
0 0.39859 0 0.399374 0 0.400157 0 0.40094 0 
0.401723 0 0.402506 0 0.403289 0 0.404072 0 0.404855 
0 0.405638 0 0.406421 0 0.407204 0 0.407987 0 
0.408771 0 0.409554 0 0.410337 0 0.41112 0 0.411903 
0 0.412686 0 0.413469 0 0.414252 0 0.415035 0 
0.415818 0 0.416601 0 0.417385 0 0.418168 0 0.418951 
0 0.419734 0 0.420517 0 0.4213 0 0.422083 0 
0.422866 0 0.423649 0 0.424432 0 0.425215 0 0.425998 
0 0.426782 0 0.427565 0 0.428348 0 0.429131 0 
0.429914 0 0.430697 0 0.43148 0 0.432263 0 0.433046 
0 0.433829 0 0.434612 0 0.435395 0 0.436179 0 
0.436962 0 0.437745 0 0.438528 0 0.439311 0 0.440094 
0 0.440877 0 0.44166 0 0.442443 0 0.443226 0 
0.444009 0 0.444792 0 0.445576 0 0.446359 0 0.447142 
0 0.447925 0 0.448708 0 0.449491 0 0.450274 0 
0.451057 0 0.45184 0 0.452623 0 0.453406 0 0.45419 
0 0.454973 0 0.455756 0 0.456539 0 0.457322 0 
0.458105 0 0.458888 0 0.459671 0 0.460454 0 0.461237 
0 0.46202 0 0.462803 0 0.463587 0 0.46437 0 
0.465153 0 0.465936 0 0.466719 0 0.467502 0 0.468285 
0 0.469068 0 0.469851 0 0.470634 0 0.471417 0 
0.4722 0 0.472984 0 0.473767 0 0.47455 0 0.475333 
0 0.476116 0 0.476899 0 0.477682 0 0.478465 0 
0.479248 0 0.480031 0 0.480814 0 0.481597 0 0.482381 
0 0.483164 0 0.483947 0 0.48473 0 0.485513 0 
0.486296 0 0.487079 0 0.487862 0 0.488645 0 0.489428 
0 0.490211 0 0.490995 0 0.491778 0 0.492561 0 
0.493344 0 0.494127 0 0.49491 0 0.495693 0 0.496476 
0 0.497259 0 0.498042 0 0.498825 0 0.499608 0 
0.500392 0 0.501175 0 0.501958 0 0.502741 0 0.503524 
0 0.504307 0 0.50509 0 0.505873 0 0.506656 0 
0.507439 0 0.508222 0 0.509005 0 0.509789 0 0.510572 
0 0.511355 0 0.512138 0 0.512921 0 0.513704 0 
0.514487 0 0.51527 0 0.516053 0 0.516836 0 0.517619 
0 0.518403 0 0.519186 0 0.519969 0 0.520752 0 
0.521535 0 0.522318 0 0.523101 0 0.523884 0 0.524667 
0 0.52545 0 0.526233 0 0.527016 0 0.5278 0 
0.528583 0 0.529366 0 0.530149 0 0.530932 0 0.531715 
0 0.532498 0 0.533281 0 0.534064 0 0.534847 0 
0.53563 0 0.536413 0 0.537197 0 0.53798 0 0.538763 
0 0.539546 0 0.540329 0 0.541112 0 0.541895 0 
0.542678 0 0.543461 0 0.544244 0 0.545027 0 0.545811 
0 0.546594 0 0.547377 0 0.54816 0 0.548943 0 
0.549726 0 0.550509 0 0.551292 0 0.552075 0 0.552858 
0 0.553641 0 0.554424 0 0.555207 0 0.555991 0 
0.556774 0 0.557557 0 0.55834 0 0.559123 0 0.559906 
0 0.560689 0 0.561472 0 0.562255 0 0.563038 0 
0.563821 0 0.564605 0 0.565388 0 0.566171 0 0.566954 
0 0.567737 0 0.56852 0 0.569303 0 0.570086 0 
0.570869 0 0.571652 0 0.572435 0 0.573218 0 0.574002 
0 0.574785 0 0.575568 0 0.576351 0 0.577134 0 
0.577917 0 0.5787 0 0.579483 0 0.580266 0 0.581049 
0 0.581832 0 0.582615 0 0.583399 0 0.584182 0 
0.584965 0 0.585748 0 0.586531 0 0.587314 0 0.588097 
0 0.58888 0 0.589663 0 0.590446 0 0.591229 0 
0.592013 0 0.592796 0 0.593579 0 0.594362 0 0.595145 
0 0.595928 0 0.596711 0 0.597494 0 0.598277 0 
0.59906 0 0.599843 0 0.600626 0 0.60141 0 0.602193 
0 0.602976 0 0.603759 0 0.604542 0 0.605325 0 
0.606108 0 0.606891 0 0.607674 0 0.608457 0 0.60924 
0 0.610023 0 0.610807 0 0.61159 0 0.612373 0 
0.613156 0 0.613939 0 0.614722 0 0.615505 0 0.616288 
0 0.617071 0 0.617854 0 0.618637 0 0.619421 0 
0.620204 0 0.620987 0 0.62177 0 0.622553 0 0.623336 
0 0.624119 0 0.624902 0 0.625685 0 0.626468 0 
0.627251 0 0.628034 0 0.628818 0 0.629601 0 0.630384 
0 0.631167 0 0.63195 0 0.632733 0 0.633516 0 
0.634299 0 0.635082 0 0.635865 0 0.636648 0 0.637432 
0 0.638215 0 0.638998 0 0.639781 0 0.640564 0 
0.641347 0 0.64213 0 0.642913 0 0.643696 0 0.644479 
0 0.645262 0 0.646045 0 0.646829 0 0.647612 0 
0.648395 0 0.649178 0 0.649961 0 0.650744 0 0.651527 
0 0.65231 0 0.653093 0 0.653876 0 0.654659 0 
0.655442 0 0.656226 0 0.657009 0 0.657792 0 0.658575 
0 0.659358 0 0.660141 0 0.660924 0 0.661707 0 
0.66249 0 0.663273 0 0.664056 0 0.664839 0 0.665623 
0 0.666406 0 0.667189 0 0.667972 0 0.668755 0 
0.669538 0 0.670321 0 0.671104 0 0.671887 0 0.67267 
0 0.673453 0 0.674236 0 0.67502 0 0.675803 0 
0.676586 0 0.677369 0 0.678152 0 0.678935 0 0.679718 
0 0.680501 0 0.681284 0 0.682067 0 0.68285 0 
0.683634 0 0.684417 0 0.6852 0 0.685983 0 0.686766 
0 0.687549 0 0.688332 0 0.689115 0 0.689898 0 
0.690681 0 0.691464 0 0.692247 0 0.693031 0 0.693814 
0 0.694597 0 0.69538 0 0.696163 0 0.696946 0 