# vtk DataFile Version 4.2
vtk output
ASCII
DATASET POLYDATA
POINTS 1278 float
0 0 0 -0.00289158 0.00269168 0.00103485 -0.011338 0.0105275 0.00405566 
-0.0249968 0.0231488 0.00893681 -0.0435255 0.0401966 0.0155527 -0.0665815 0.0613123 0.0237777 
-0.0938225 0.086137 0.0334862 -0.124906 0.114312 0.0445526 -0.159489 0.145478 0.0568513 
-0.19723 0.179278 0.0702566 -0.237786 0.215351 0.084643 -0.280814 0.253339 0.0998848 
-0.325972 0.292883 0.115857 -0.372918 0.333625 0.132432 -0.421309 0.375206 0.149487 
-0.470802 0.417267 0.166894 -0.521055 0.459449 0.184529 -0.571726 0.501394 0.202266 
-0.622472 0.542742 0.219979 -0.672951 0.583135 0.237542 -0.722819 0.622214 0.25483 
-0.771736 0.65962 0.271718 -0.819443 0.695084 0.288111 -0.865978 0.728635 0.304025 
-0.911439 0.760368 0.319498 -0.955925 0.790377 0.334567 -0.999532 0.818756 0.349272 
-1.04236 0.845601 0.36365 -1.08451 0.871005 0.37774 -1.12608 0.895062 0.391579 
-1.16716 0.917868 0.405206 -1.20785 0.939515 0.418658 -1.24826 0.9601 0.431975 
-1.28848 0.979716 0.445193 -1.32861 0.998457 0.458352 -1.36875 1.01642 0.471489 
-1.409 1.03369 0.484642 -1.44945 1.05038 0.49785 -1.4902 1.06656 0.51115 
-1.53135 1.08235 0.524582 -1.57301 1.09782 0.538182 -1.61526 1.11308 0.551988 
-1.65813 1.12814 0.566015 -1.7016 1.14298 0.580253 -1.74562 1.15753 0.594693 
-1.79017 1.17177 0.609327 -1.8352 1.18565 0.624144 -1.88068 1.19913 0.639137 
-1.92658 1.21215 0.654295 -1.97285 1.2247 0.66961 -2.01947 1.23671 0.685072 
-2.0664 1.24814 0.700672 -2.11361 1.25896 0.716401 -2.16105 1.26912 0.73225 
-2.20869 1.27858 0.748209 -2.2565 1.2873 0.76427 -2.30444 1.29523 0.780422 
-2.35247 1.30233 0.796658 -2.40057 1.30856 0.812967 -2.44869 1.31388 0.829341 
-2.4968 1.31823 0.84577 -2.54487 1.32159 0.862246 -2.59286 1.32393 0.878761 
-2.64076 1.32524 0.895315 -2.68857 1.32556 0.911909 -2.73628 1.32489 0.928543 
-2.78387 1.32324 0.945217 -2.83133 1.32063 0.961931 -2.87866 1.31707 0.978686 
-2.92584 1.31259 0.995482 -2.97287 1.30718 1.01232 -3.01974 1.30087 1.0292 
-3.06643 1.29367 1.04612 -3.11293 1.28559 1.06308 -3.15925 1.27665 1.08009 
-3.20536 1.26686 1.09714 -3.25125 1.25623 1.11423 -3.29692 1.24479 1.13137 
-3.34236 1.23254 1.14855 -3.38756 1.21949 1.16577 -3.4325 1.20567 1.18304 
-3.47718 1.19108 1.20036 -3.52159 1.17574 1.21772 -3.56573 1.15966 1.23512 
-3.60958 1.14287 1.25256 -3.65315 1.12537 1.27005 -3.69643 1.10718 1.28757 
-3.73943 1.08832 1.30514 -3.78213 1.06881 1.32274 -3.82453 1.04865 1.34037 
-3.86663 1.02786 1.35804 -3.90843 1.00647 1.37574 -3.94991 0.984482 1.39348 
-3.99109 0.961916 1.41124 -4.03195 0.938787 1.42903 -4.07249 0.91511 1.44685 
-4.11271 0.890902 1.46469 -4.1526 0.866178 1.48255 -4.19217 0.840954 1.50044 
-4.2314 0.815246 1.51835 -4.27029 0.789068 1.53628 -4.30885 0.762438 1.55423 
-4.34706 0.735369 1.57219 -4.38492 0.707876 1.59017 -4.42246 0.679969 1.60817 
-4.45966 0.651659 1.62618 -4.49654 0.622958 1.64421 -4.5331 0.593877 1.66226 
-4.56934 0.564427 1.68033 -4.60528 0.53462 1.69841 -4.64091 0.504465 1.71652 
-4.67624 0.473976 1.73464 -4.71128 0.443162 1.75278 -4.74603 0.412036 1.77094 
-4.7805 0.380607 1.78912 -4.8147 0.348889 1.80732 -4.84862 0.316891 1.82555 
-4.88227 0.284625 1.84379 -4.91567 0.252102 1.86205 -4.94881 0.219334 1.88033 
-4.9817 0.186331 1.89864 -5.01434 0.153105 1.91697 -5.04675 0.119667 1.93532 
-5.07892 0.0860253 1.95369 -5.11086 0.0521851 1.97208 -5.14258 0.0181513 1.99049 
-5.17408 -0.0160711 2.00892 -5.20536 -0.0504771 2.02737 -5.23644 -0.0850617 2.04583 
-5.26731 -0.11982 2.0643 -5.29799 -0.154747 2.08279 -5.32847 -0.189838 2.10129 
-5.35876 -0.225087 2.1198 -5.38887 -0.26049 2.13832 -5.4188 -0.296043 2.15685 
-5.44855 -0.331738 2.17538 -5.47814 -0.367573 2.19392 -5.50757 -0.403542 2.21247 
-5.53684 -0.43964 2.23101 -5.56595 -0.475861 2.24956 -5.59492 -0.512202 2.26811 
-5.62374 -0.548657 2.28666 -5.65242 -0.585221 2.3052 -5.68098 -0.621889 2.32374 
-5.7094 -0.658661 2.34228 -5.7377 -0.695534 2.36079 -5.76588 -0.732506 2.37929 
-5.79395 -0.769576 2.39777 -5.8219 -0.806741 2.41621 -5.84975 -0.844001 2.43462 
-5.8775 -0.881354 2.453 -5.90516 -0.918797 2.47132 -5.93272 -0.956329 2.4896 
-5.96019 -0.993948 2.50783 -5.98759 -1.03165 2.52599 -6.0149 -1.06944 2.54409 
-6.04214 -1.10731 2.56212 -6.06931 -1.14526 2.58008 -6.09642 -1.18329 2.59796 
-6.12347 -1.2214 2.61575 -6.15046 -1.25958 2.63345 -6.1774 -1.29784 2.65106 
-6.20429 -1.33616 2.66857 -6.23115 -1.37456 2.68597 -6.25797 -1.41303 2.70326 
-6.28475 -1.45157 2.72043 -6.31151 -1.49018 2.73747 -6.33825 -1.52887 2.75437 
-6.36497 -1.56763 2.77113 -6.39168 -1.60647 2.78774 -6.41839 -1.64538 2.80418 
-6.44509 -1.68437 2.82045 -6.4718 -1.72345 2.83655 -6.49852 -1.7626 2.85246 
-6.52525 -1.80183 2.86817 -6.55201 -1.84115 2.88368 -6.57878 -1.88055 2.89898 
-6.60559 -1.92003 2.91406 -6.63243 -1.9596 2.92891 -6.65931 -1.99926 2.94353 
-6.68624 -2.039 2.9579 -6.71321 -2.07883 2.97202 -6.74024 -2.11876 2.98589 
-6.76733 -2.15877 2.99948 -6.79449 -2.19887 3.01277 -6.82172 -2.23906 3.02573 
-6.84902 -2.27933 3.03831 -6.87641 -2.31967 3.05047 -6.90388 -2.36007 3.06217 
-6.93144 -2.40055 3.07336 -6.9591 -2.44108 3.08401 -6.98686 -2.48167 3.09408 
-7.01473 -2.52231 3.10352 -7.04271 -2.56299 3.1123 -7.07081 -2.60371 3.12036 
-7.09903 -2.64447 3.12768 -7.12738 -2.68525 3.1342 -7.15586 -2.72607 3.1399 
-7.18448 -2.7669 3.14472 -7.21325 -2.80775 3.14862 -7.24216 -2.84861 3.15157 
-7.27123 -2.88947 3.15352 -7.30046 -2.93034 3.15443 -7.32985 -2.9712 3.15426 
-7.35941 -3.01205 3.15298 -7.3891 -3.05284 3.15059 -7.4189 -3.09356 3.14708 
-7.44878 -3.13416 3.14245 -7.47873 -3.17463 3.13669 -7.50871 -3.21491 3.1298 
-7.5387 -3.25499 3.12177 -7.56869 -3.29484 3.1126 -7.59863 -3.33441 3.10229 
-7.62851 -3.37369 3.09082 -7.6583 -3.41263 3.07821 -7.68798 -3.45121 3.06443 
-7.71752 -3.48939 3.0495 -7.7469 -3.52715 3.03339 -7.77609 -3.56445 3.01611 
-7.80507 -3.60126 2.99766 -7.83381 -3.63755 2.97803 -7.86229 -3.67328 2.95721 
-7.89048 -3.70844 2.93521 -7.91836 -3.74297 2.91201 -7.94591 -3.77688 2.88763 
-7.97313 -3.81016 2.8621 -8.00001 -3.84283 2.83547 -8.02657 -3.87492 2.8078 
-8.0528 -3.90644 2.77911 -8.0787 -3.93741 2.74947 -8.10428 -3.96784 2.71892 
-8.12953 -3.99775 2.6875 -8.15446 -4.02717 2.65526 -8.17907 -4.0561 2.62225 
-8.20335 -4.08456 2.58851 -8.22731 -4.11258 2.55409 -8.25096 -4.14017 2.51903 
-8.27429 -4.16734 2.48339 -8.2973 -4.19412 2.4472 -8.31999 -4.22052 2.41052 
-8.34237 -4.24656 2.37339 -8.36444 -4.27225 2.33585 -8.38619 -4.29762 2.29796 
-8.40763 -4.32268 2.25976 -8.42877 -4.34745 2.22128 -8.4496 -4.37193 2.18256 
-8.47012 -4.39616 2.14359 -8.49035 -4.42014 2.10438 -8.51029 -4.44387 2.06494 
-8.52995 -4.46739 2.02528 -8.54932 -4.49069 1.98541 -8.56842 -4.5138 1.94533 
-8.58725 -4.53672 1.90505 -8.6058 -4.55948 1.86458 -8.6241 -4.58207 1.82393 
-8.64214 -4.60453 1.7831 -8.65993 -4.62686 1.7421 -8.67747 -4.64907 1.70095 
-8.69477 -4.67117 1.65965 -8.71183 -4.69319 1.6182 -8.72866 -4.71514 1.57661 
-8.74527 -4.73702 1.5349 -8.76165 -4.75885 1.49307 -8.77781 -4.78065 1.45112 
-8.79376 -4.80243 1.40907 -8.80949 -4.82419 1.36692 -8.82501 -4.84595 1.32468 
-8.84032 -4.8677 1.28234 -8.8554 -4.88946 1.23991 -8.87027 -4.91122 1.19741 
-8.8849 -4.93299 1.15482 -8.89932 -4.95478 1.11215 -8.9135 -4.97659 1.06942 
-8.92745 -4.99843 1.02661 -8.94117 -5.0203 0.98374 -8.95466 -5.0422 0.940809 
-8.96791 -5.06415 0.897822 -8.98091 -5.08614 0.854782 -8.99368 -5.10818 0.811693 
-9.0062 -5.13028 0.768558 -9.01847 -5.15244 0.725383 -9.03049 -5.17467 0.68217 
-9.04226 -5.19696 0.638923 -9.05378 -5.21934 0.595647 -9.06504 -5.24179 0.552344 
-9.07605 -5.26433 0.509019 -9.08678 -5.28696 0.465675 -9.09725 -5.30967 0.422312 
-9.10744 -5.33248 0.378933 -9.11736 -5.35538 0.335541 -9.12698 -5.37837 0.292138 
-9.13632 -5.40147 0.248727 -9.14536 -5.42466 0.205309 -9.1541 -5.44796 0.161887 
-9.16254 -5.47136 0.118463 -9.17066 -5.49487 0.0750392 -9.17847 -5.51849 0.0316184 
-9.18595 -5.54221 -0.0117974 -9.19311 -5.56606 -0.0552058 -9.19994 -5.59002 -0.0986047 
-9.20643 -5.61409 -0.141992 -9.21257 -5.63829 -0.185364 -9.21837 -5.66261 -0.22872 
-9.22382 -5.68705 -0.272058 -9.22891 -5.71162 -0.315374 -9.23364 -5.73632 -0.358667 
-9.238 -5.76114 -0.401931 -9.24198 -5.7861 -0.445165 -9.24558 -5.81118 -0.488362 
-9.2488 -5.83638 -0.531519 -9.25163 -5.86172 -0.574632 -9.25407 -5.88717 -0.617697 
-9.2561 -5.91275 -0.66071 -9.25772 -5.93845 -0.703666 -9.25894 -5.96427 -0.746561 
-9.25973 -5.99021 -0.789392 -9.2601 -6.01627 -0.832154 -9.26005 -6.04246 -0.874843 
-9.25956 -6.06876 -0.917454 -9.25863 -6.09517 -0.959985 -9.25725 -6.12171 -1.00243 
-9.25543 -6.14836 -1.04479 -9.25314 -6.17512 -1.08705 -9.2504 -6.202 -1.12921 
-9.24719 -6.229 -1.17127 -9.24351 -6.2561 -1.21323 -9.23935 -6.28332 -1.25508 
-9.23472 -6.31064 -1.29681 -9.22962 -6.33807 -1.33842 -9.22404 -6.36559 -1.37991 
-9.21799 -6.39322 -1.42127 -9.21146 -6.42093 -1.46249 -9.20446 -6.44874 -1.50358 
-9.19699 -6.47663 -1.54453 -9.18904 -6.50461 -1.58533 -9.18062 -6.53267 -1.62598 
-9.17172 -6.5608 -1.66647 -9.16235 -6.58901 -1.70681 -9.1525 -6.61729 -1.74698 
-9.14218 -6.64564 -1.78698 -9.13138 -6.67405 -1.82681 -9.12011 -6.70252 -1.86646 
-9.10837 -6.73105 -1.90592 -9.09615 -6.75964 -1.94521 -9.08345 -6.78827 -1.98429 
-9.07028 -6.81695 -2.02319 -9.05664 -6.84568 -2.06188 -9.04253 -6.87445 -2.10038 
-9.02796 -6.90326 -2.13867 -9.01293 -6.93211 -2.17675 -8.99745 -6.96099 -2.21463 
-8.98152 -6.98991 -2.2523 -8.96515 -7.01886 -2.28976 -8.94835 -7.04783 -2.327 
-8.93111 -7.07683 -2.36403 -8.91346 -7.10586 -2.40084 -8.89538 -7.1349 -2.43743 
-8.87688 -7.16397 -2.4738 -8.85798 -7.19305 -2.50994 -8.83867 -7.22215 -2.54586 
-8.81896 -7.25125 -2.58155 -8.79886 -7.28037 -2.61702 -8.77837 -7.30949 -2.65225 
-8.75749 -7.33862 -2.68724 -8.73624 -7.36775 -2.722 -8.71461 -7.39688 -2.75653 
-8.69262 -7.42601 -2.79081 -8.67026 -7.45514 -2.82485 -8.64755 -7.48426 -2.85865 
-8.62449 -7.51339 -2.89221 -8.60108 -7.54251 -2.92553 -8.57733 -7.57163 -2.95861 
[...]
CELL_DATA 1
FIELD FieldData 2
Length 1 1 double
63.872372026 
Tortuosity 1 1 double
0.80295786214 
POINT_DATA 1278
SCALARS MaximumInscribedSphereRadius float
LOOKUP_TABLE default
0.8742 0.875633 0.877066 0.878499 0.879932 0.881365 0.882798 0.884231 0.885664 
0.887097 0.88853 0.889963 0.891396 0.892829 0.894262 0.895695 0.897128 0.898561 
0.899994 0.901427 0.90286 0.904458 0.908937 0.913416 0.917894 0.922373 0.926852 
0.93133 0.935809 0.940288 0.944766 0.949245 0.953724 0.958202 0.962681 0.96716 
0.971638 0.976117 0.980596 0.985074 0.989553 0.996316 1.00523 1.01414 1.02305 
1.03196 1.04088 1.04979 1.0587 1.06761 1.07652 1.08543 1.09435 1.10326 
1.11217 1.12108 1.12999 1.13891 1.14782 1.15673 1.16564 1.17169 1.1666 
1.16151 1.15643 1.15134 1.14625 1.14117 1.13608 1.13099 1.1259 1.12082 
1.11573 1.11064 1.10556 1.10047 1.09538 1.09029 1.08521 1.08012 1.07503 
1.06995 1.08235 1.09542 1.10849 1.12156 1.13463 1.14769 1.16076 1.17383 
1.1869 1.19997 1.21304 1.2261 1.23917 1.25224 1.26531 1.27838 1.29145 
1.30452 1.31758 1.33065 1.3515 1.37559 1.39967 1.42376 1.44784 1.47193 
1.49601 1.5201 1.54419 1.56827 1.59236 1.61644 1.64053 1.66461 1.6887 
1.71278 1.73687 1.76095 1.78504 1.80912 1.82514 1.83053 1.83591 1.8413 
1.84669 1.85207 1.85746 1.86284 1.86823 1.87361 1.879 1.88439 1.88977 
1.89516 1.90054 1.90593 1.91131 1.9167 1.92209 1.92747 1.93071 1.92161 
1.91251 1.90341 1.89431 1.88521 1.87611 1.86701 1.8579 1.8488 1.8397 
1.8306 1.8215 1.8124 1.8033 1.79419 1.78509 1.77599 1.76689 1.75779 
1.74869 1.73905 1.72933 1.71961 1.70989 1.70017 1.69045 1.68073 1.67101 
1.66129 1.65157 1.64185 1.63213 1.62241 1.61269 1.60296 1.59324 1.58352 
1.5738 1.56408 1.55436 1.54827 1.5448 1.54134 1.53788 1.53442 1.53096 
1.5275 1.52404 1.52058 1.51711 1.51365 1.51019 1.50673 1.50327 1.49981 
1.49635 1.49289 1.48942 1.48596 1.4825 1.4765 1.4649 1.4533 1.4417 
1.43011 1.41851 1.40691 1.39531 1.38371 1.37211 1.36051 1.34891 1.33731 
1.32571 1.31411 1.30251 1.29092 1.27932 1.26772 1.25612 1.24622 1.24577 
1.24531 1.24486 1.24441 1.24395 1.2435 1.24305 1.24259 1.24214 1.24169 
1.24123 1.24078 1.24033 1.23987 1.23942 1.23897 1.23851 1.23806 1.23761 
1.23715 1.23217 1.22669 1.22122 1.21574 1.21026 1.20478 1.1993 1.19382 
1.18835 1.18287 1.17739 1.17191 1.16643 1.16096 1.15548 1.15 1.14452 
1.13904 1.13356 1.12809 1.14095 1.16493 1.18891 1.21289 1.23687 1.26085 
1.28483 1.30881 1.33279 1.35677 1.38075 1.40473 1.42871 1.45268 1.47666 
1.50064 1.52462 1.5486 1.57258 1.59656 1.61447 1.62058 1.62669 1.6328 
1.63891 1.64502 1.65112 1.65723 1.66334 1.66945 1.67556 1.68167 1.68777 
1.69388 1.69999 1.7061 1.71221 1.71832 1.72443 1.73053 1.73584 1.7285 
1.72116 1.71382 1.70648 1.69914 1.6918 1.68446 1.67712 1.66978 1.66244 
1.6551 1.64776 1.64042 1.63308 1.62574 1.6184 1.61106 1.60372 1.59637 
1.58903 1.59486 1.60428 1.61369 1.62311 1.63253 1.64195 1.65137 1.66078 
1.6702 1.67962 1.68904 1.69845 1.70787 1.71729 1.72671 1.73613 1.74554 
1.75496 1.76438 1.7738 1.77614 1.77184 1.76753 1.76323 1.75892 1.75462 
1.75031 1.74601 1.7417 1.7374 1.73309 1.72879 1.72448 1.72018 1.71587 
1.71157 1.70726 1.70296 1.69865 1.69435 1.68856 1.67817 1.66778 1.65739 
1.647 1.63661 1.62622 1.61583 1.60544 1.59505 1.58466 1.57427 1.56388 
1.55349 1.5431 1.53271 1.52232 1.51193 1.50154 1.49115 1.48076 1.47196 
1.46322 1.45449 1.44575 1.43701 1.42827 1.41953 1.4108 1.40206 1.39332 
1.38458 1.37584 1.3671 1.35837 1.34963 1.34089 1.33215 1.32341 1.31467 
1.30594 1.30736 1.31338 1.31941 1.32543 1.33146 1.33749 1.34351 1.34954 
1.35556 1.36159 1.36762 1.37364 1.37967 1.38569 1.39172 1.39775 1.40377 
1.4098 1.41582 1.42185 1.43219 1.44866 1.46513 1.4816 1.49807 1.51454 
1.53101 1.54748 1.56395 1.58042 1.59689 1.61336 1.62983 1.6463 1.66277 
1.67924 1.69571 1.71218 1.72865 1.74512 1.76102 1.77371 1.78641 1.7991 
1.8118 1.82449 1.83719 1.84988 1.86258 1.87527 1.88797 1.90066 1.91336 
1.92605 1.93875 1.95144 1.96414 1.97683 1.98953 2.00222 2.01492 2.01379 
2.01223 2.01068 2.00912 2.00756 2.00601 2.00445 2.00289 2.00134 1.99978 
1.99822 1.99667 1.99511 1.99355 1.99199 1.99044 1.98888 1.98732 1.98577 
1.98421 1.98624 1.98883 1.99141 1.994 1.99659 1.99918 2.00177 2.00435 
2.00694 2.00953 2.01212 2.01471 2.01729 2.01988 2.02247 2.02506 2.02765 
2.03023 2.03282 2.03541 2.04101 2.04847 2.05593 2.06339 2.07085 2.07832 
2.08578 2.09324 2.1007 2.10817 2.11563 2.12309 2.13055 2.13801 2.14548 
2.15294 2.1604 2.16786 2.17533 2.18279 2.19067 2.19937 2.20808 2.21678 
2.22549 2.23419 2.24289 2.2516 2.2603 2.26901 2.27771 2.28641 2.29512 
2.30382 2.31253 2.32123 2.32993 2.33864 2.34734 2.35605 2.36362 2.35098 
2.33835 2.32571 2.31308 2.30044 2.2878 2.27517 2.26253 2.2499 2.23726 
2.22462 2.21199 2.19935 2.18672 2.17408 2.16144 2.14881 2.13617 2.12354 
2.1109 2.09857 2.08634 2.07411 2.06187 2.04964 2.03741 2.02517 2.01294 
2.00071 1.98847 1.97624 1.96401 1.95177 1.93954 1.92731 1.91507 1.90284 
1.89061 1.87837 1.86614 1.86 1.86 1.86 1.86 1.86 1.86 
1.86 1.86 1.86 1.86 1.86 1.86 1.86 1.86 1.86 
1.86 1.86 1.86 1.86 1.86 1.86104 1.86545 1.86986 1.87427 
1.87869 1.8831 1.88751 1.89193 1.89634 1.90075 1.90517 1.90958 1.91399 
1.91841 1.92282 1.92723 1.93164 1.93606 1.94047 1.94488 1.9493 1.96817 
1.98743 2.00668 2.02593 2.04519 2.06444 2.08369 2.10295 2.1222 2.14145 
2.16071 2.17996 2.19921 2.21847 2.23772 2.25697 2.27623 2.29548 2.31474 
2.33399 2.33765 2.33486 2.33206 2.32927 2.32647 2.32367 2.32088 2.31808 
2.31529 2.31249 2.30969 2.3069 2.3041 2.30131 2.29851 2.29571 2.29292 
2.29012 2.28733 2.28453 2.27569 2.25889 2.2421 2.2253 2.2085 2.19171 
2.17491 2.15811 2.14131 2.12452 2.10772 2.09092 2.07412 2.05733 2.04053 
2.02373 2.00693 1.99014 1.97334 1.95654 1.94001 1.92498 1.90995 1.89492 
1.87989 1.86486 1.84983 1.83479 1.81976 1.80473 1.7897 1.77467 1.75964 
1.74461 1.72958 1.71455 1.69952 1.68449 1.66946 1.65443 1.6394 1.64415 
1.65186 1.65957 1.66728 1.67499 1.6827 1.69041 1.69812 1.70583 1.71354 
1.72125 1.72896 1.73667 1.74438 1.75209 1.7598 1.76751 1.77522 1.78293 
1.79064 1.78664 1.77463 1.76261 1.7506 1.73859 1.72658 1.71457 1.70255 
1.69054 1.67853 1.66652 1.65451 1.6425 1.63048 1.61847 1.60646 1.59445 
1.58244 1.57042 1.55841 1.54787 1.54051 1.53314 1.52578 1.51841 1.51105 
1.50368 1.49632 1.48895 1.48159 1.47422 1.46686 1.45949 1.45213 1.44476 
1.4374 1.43003 1.42267 1.4153 1.40794 1.40181 1.42222 1.44263 1.46303 
1.48344 1.50384 1.52425 1.54465 1.56506 1.58546 1.60587 1.62627 1.64668 
1.66708 1.68749 1.70789 1.7283 1.7487 1.76911 1.78951 1.80992 1.81624 
1.8184 1.82057 1.82273 1.82489 1.82706 1.82922 1.83138 1.83355 1.83571 
1.83787 1.84004 1.8422 1.84436 1.84653 1.84869 1.85085 1.85301 1.85518 
1.85734 1.85587 1.85072 1.84558 1.84043 1.83528 1.83013 1.82498 1.81983 
1.81468 1.80954 1.80439 1.79924 1.79409 1.78894 1.78379 1.77865 1.7735 
1.76835 1.7632 1.75805 1.75197 1.74253 1.7331 1.72367 1.71424 1.70481 
1.69538 1.68595 1.67651 1.66708 1.65765 1.64822 1.63879 1.62936 1.61993 
1.6105 1.60106 1.59163 1.5822 1.57277 1.56334 1.57335 1.58463 1.59591 
1.6072 1.61848 1.62976 1.64104 1.65232 1.66361 1.67489 1.68617 1.69745 
1.70873 1.72002 1.7313 1.74258 1.75386 1.76515 1.77643 1.78771 1.79459 
1.79919 1.80378 1.80838 1.81298 1.81758 1.82217 1.82677 1.83137 1.83597 
1.84057 1.84516 1.84976 1.85436 1.85896 1.86355 1.86815 1.87275 1.87735 
1.88194 1.88473 1.88453 1.88433 1.88414 1.88394 1.88374 1.88355 1.88335 
1.88315 1.88295 1.88276 1.88256 1.88236 1.88217 1.88197 1.88177 1.88158 
1.88138 1.88118 1.88099 1.88082 1.88088 1.88095 1.88101 1.88107 1.88114 
1.8812 1.88127 1.88133 1.8814 1.88146 1.88153 1.88159 1.88166 1.88172 
1.88179 1.88185 1.88191 1.88198 1.88204 1.88211 1.88834 1.89601 1.90367 
1.91133 1.919 1.92666 1.93432 1.94199 1.94965 1.95731 1.96498 1.97264 
1.9803 1.98797 1.99563 2.00329 2.01096 2.01862 2.02628 2.03395 2.03882 
2.04116 2.04351 2.04586 2.0482 2.05055 2.0529 2.05525 2.05759 2.05994 
2.06229 2.06464 2.06698 2.06933 2.07168 2.07403 2.07637 2.07872 2.08107 
2.08342 2.08332 2.07547 2.06762 2.05977 2.05192 2.04407 2.03622 2.02837 
2.02052 2.01267 2.00482 1.99697 1.98912 1.98127 1.97342 1.96557 1.95772 
1.94987 1.94202 1.93417 1.92632 1.93233 1.93903 1.94573 1.95243 1.95913 
1.96583 1.97253 1.97923 1.98592 1.99262 1.99932 2.00602 2.01272 2.01942 
2.02612 2.03282 2.03951 2.04621 2.05291 2.05961 2.0574 2.05077 2.04414 
2.03752 2.03089 2.02426 2.01763 2.01101 2.00438 1.99775 1.99112 1.9845 
1.97787 1.97124 1.96461 1.95799 1.95136 1.94473 1.9381 1.93148 1.92293 
1.91131 1.89969 1.88806 1.87644 1.86482 1.8532 1.84158 1.82996 1.81834 
1.80672 1.7951 1.78347 1.77185 1.76023 1.74861 1.73699 1.72537 1.71375 
1.70213 1.69345 1.71068 1.72791 1.74514 1.76237 1.7796 1.79683 1.81406 
1.83129 1.84852 1.86576 1.88299 1.90022 1.91745 1.93468 1.95191 1.96914 
1.98637 2.0036 2.02083 2.03807 2.04269 2.04452 2.04635 2.04818 2.05001 
2.05184 2.05367 2.0555 2.05733 2.05916 2.06099 2.06282 2.06466 2.06649 
2.06832 2.07015 2.07198 2.07381 2.07564 2.07747 2.07973 2.08236 2.085 
2.08764 2.09027 2.09291 2.09554 2.09818 2.10081 2.10345 2.10608 2.10872 
2.11135 2.11399 2.11662 2.11926 2.12189 2.12453 2.12716 2.1298 2.13545 
2.15011 2.16477 2.17942 2.19408 2.20874 2.2234 2.23805 2.25271 2.26737 
2.28203 2.29668 2.31134 2.326 2.34066 2.35532 2.36997 2.38463 2.39929 
2.41395 2.4286 2.43149 2.434 2.43651 2.43902 2.44153 2.44405 2.44656 
2.44907 2.45158 2.4541 2.45661 2.45912 2.46163 2.46415 2.46666 2.46917 
2.47168 2.47419 2.47671 2.47922 2.4857 2.49397 2.50224 2.5105 2.51877 
2.52704 2.53531 2.54358 2.55185 2.56011 2.56838 2.57665 2.58492 2.59319 
2.60145 2.60972 2.61799 2.62626 2.63453 2.6428 2.65055 2.65757 2.66459 
2.67161 2.67863 2.68565 2.69268 2.6997 2.70672 2.71374 2.72076 2.72778 
2.7348 2.74182 2.74884 2.75586 2.76288 2.7699 2.77692 2.78394 2.78984 
2.78869 2.78754 2.78639 2.78524 2.78409 2.78293 2.78178 2.78063 2.77948 
2.77833 2.77718 2.77603 2.77487 2.77372 2.77257 2.77142 2.77027 2.76912 
2.76797 2.76682 2.75897 2.74992 2.74086 2.73181 2.72276 2.7137 2.70465 
2.6956 2.68655 2.67749 2.66844 2.65939 2.65033 2.64128 2.63223 2.62317 
2.61412 2.60507 2.59601 2.58696 2.5826 2.58314 2.58368 2.58422 2.58476 
2.5853 2.58584 2.58639 2.58693 2.58747 2.58801 2.58855 2.58909 2.58963 
2.59017 2.59071 2.59125 2.59179 2.59233 2.59287 2.60188 2.61128 2.62069 
2.6301 2.6395 2.64891 2.65831 2.66772 2.67713 2.68653 2.69594 2.70535 
2.71475 2.72416 2.73356 2.74297 2.75238 2.76178 2.77119 2.78059 2.79 

TEXTURE_COORDINATES TCoords 2 float
0 0 0.000783085 0 0.00156617 0 0.00234926 0 0.00313234 
0 0.00391543 0 0.00469851 0 0.0054816 0 0.00626468 0 
0.00704777 0 0.00783085 0 0.00861394 0 0.00939702 0 0.0101801 
0 0.0109632 0 0.0117463 0 0.0125294 0 0.0133125 0 
0.0140955 0 0.0148786 0 0.0156617 0 0.0164448 0 0.0172279 
0 0.018011 0 0.018794 0 0.0195771 0 0.0203602 0 
0.0211433 0 0.0219264 0 0.0227095 0 0.0234926 0 0.0242756 
0 0.0250587 0 0.0258418 0 0.0266249 0 0.027408 0 
0.0281911 0 0.0289742 0 0.0297572 0 0.0305403 0 0.0313234 
0 0.0321065 0 0.0328896 0 0.0336727 0 0.0344558 0 
0.0352388 0 0.0360219 0 0.036805 0 0.0375881 0 0.0383712 
0 0.0391543 0 0.0399374 0 0.0407204 0 0.0415035 0 
0.0422866 0 0.0430697 0 0.0438528 0 0.0446359 0 0.045419 
0 0.046202 0 0.0469851 0 0.0477682 0 0.0485513 0 
0.0493344 0 0.0501175 0 0.0509005 0 0.0516836 0 0.0524667 
0 0.0532498 0 0.0540329 0 0.054816 0 0.0555991 0 
0.0563821 0 0.0571652 0 0.0579483 0 0.0587314 0 0.0595145 
0 0.0602976 0 0.0610807 0 0.0618637 0 0.0626468 0 
0.0634299 0 0.064213 0 0.0649961 0 0.0657792 0 0.0665623 
0 0.0673453 0 0.0681284 0 0.0689115 0 0.0696946 0 
0.0704777 0 0.0712608 0 0.0720439 0 0.0728269 0 0.07361 
0 0.0743931 0 0.0751762 0 0.0759593 0 0.0767424 0 
0.0775255 0 0.0783085 0 0.0790916 0 0.0798747 0 0.0806578 
0 0.0814409 0 0.082224 0 0.083007 0 0.0837901 0 
0.0845732 0 0.0853563 0 0.0861394 0 0.0869225 0 0.0877056 
0 0.0884886 0 0.0892717 0 0.0900548 0 0.0908379 0 
0.091621 0 0.0924041 0 0.0931872 0 0.0939702 0 0.0947533 
0 0.0955364 0 0.0963195 0 0.0971026 0 0.0978857 0 
0.0986688 0 0.0994518 0 0.100235 0 0.101018 0 0.101801 
0 0.102584 0 0.103367 0 0.10415 0 0.104933 0 
0.105717 0 0.1065 0 0.107283 0 0.108066 0 0.108849 
0 0.109632 0 0.110415 0 0.111198 0 0.111981 0 
0.112764 0 0.113547 0 0.11433 0 0.115114 0 0.115897 
0 0.11668 0 0.117463 0 0.118246 0 0.119029 0 
0.119812 0 0.120595 0 0.121378 0 0.122161 0 0.122944 
0 0.123727 0 0.124511 0 0.125294 0 0.126077 0 
0.12686 0 0.127643 0 0.128426 0 0.129209 0 0.129992 
0 0.130775 0 0.131558 0 0.132341 0 0.133125 0 
0.133908 0 0.134691 0 0.135474 0 0.136257 0 0.13704 
0 0.137823 0 0.138606 0 0.139389 0 0.140172 0 
0.140955 0 0.141738 0 0.142522 0 0.143305 0 0.144088 
0 0.144871 0 0.145654 0 0.146437 0 0.14722 0 
0.148003 0 0.148786 0 0.149569 0 0.150352 0 0.151135 
0 0.151919 0 0.152702 0 0.153485 0 0.154268 0 
0.155051 0 0.155834 0 0.156617 0 0.1574 0 0.158183 
0 0.158966 0 0.159749 0 0.160533 0 0.161316 0 
0.162099 0 0.162882 0 0.163665 0 0.164448 0 0.165231 
0 0.166014 0 0.166797 0 0.16758 0 0.168363 0 
0.169146 0 0.16993 0 0.170713 0 0.171496 0 0.172279 
0 0.173062 0 0.173845 0 0.174628 0 0.175411 0 
0.176194 0 0.176977 0 0.17776 0 0.178543 0 0.179327 
0 0.18011 0 0.180893 0 0.181676 0 0.182459 0 
0.183242 0 0.184025 0 0.184808 0 0.185591 0 0.186374 
0 0.187157 0 0.18794 0 0.188724 0 0.189507 0 
0.19029 0 0.191073 0 0.191856 0 0.192639 0 0.193422 
0 0.194205 0 0.194988 0 0.195771 0 0.196554 0 
0.197338 0 0.198121 0 0.198904 0 0.199687 0 0.20047 
0 0.201253 0 0.202036 0 0.202819 0 0.203602 0 
0.204385 0 0.205168 0 0.205951 0 0.206735 0 0.207518 
0 0.208301 0 0.209084 0 0.209867 0 0.21065 0 
0.211433 0 0.212216 0 0.212999 0 0.213782 0 0.214565 
0 0.215348 0 0.216132 0 0.216915 0 0.217698 0 
0.218481 0 0.219264 0 0.220047 0 0.22083 0 0.221613 
0 0.222396 0 0.223179 0 0.223962 0 0.224745 0 
0.225529 0 0.226312 0 0.227095 0 0.227878 0 0.228661 
0 0.229444 0 0.230227 0 0.23101 0 0.231793 0 
0.232576 0 0.233359 0 0.234143 0 0.234926 0 0.235709 
0 0.236492 0 0.237275 0 0.238058 0 0.238841 0 
0.239624 0 0.240407 0 0.24119 0 0.241973 0 0.242756 
0 0.24354 0 0.244323 0 0.245106 0 0.245889 0 
0.246672 0 0.247455 0 0.248238 0 0.249021 0 0.249804 
0 0.250587 0 0.25137 0 0.252153 0 0.252937 0 
0.25372 0 0.254503 0 0.255286 0 0.256069 0 0.256852 
0 0.257635 0 0.258418 0 0.259201 0 0.259984 0 
0.260767 0 0.261551 0 0.262334 0 0.263117 0 0.2639 
0 0.264683 0 0.265466 0 0.266249 0 0.267032 0 
0.267815 0 0.268598 0 0.269381 0 0.270164 0 0.270948 
0 0.271731 0 0.272514 0 0.273297 0 0.27408 0 
0.274863 0 0.275646 0 0.276429 0 0.277212 0 0.277995 
0 0.278778 0 0.279561 0 0.280345 0 0.281128 0 
0.281911 0 0.282694 0 0.283477 0 0.28426 0 0.285043 
0 0.285826 0 0.286609 0 0.287392 0 0.288175 0 
0.288958 0 0.289742 0 0.290525 0 0.291308 0 0.292091 
0 0.292874 0 0.293657 0 0.29444 0 0.295223 0 
0.296006 0 0.296789 0 0.297572 0 0.298356 0 0.299139 
0 0.299922 0 0.300705 0 0.301488 0 0.302271 0 
0.303054 0 0.303837 0 0.30462 0 0.305403 0 0.306186 
0 0.306969 0 0.307753 0 0.308536 0 0.309319 0 
0.310102 0 0.310885 0 0.311668 0 0.312451 0 0.313234 
0 0.314017 0 0.3148 0 0.315583 0 0.316366 0 
0.31715 0 0.317933 0 0.318716 0 0.319499 0 0.320282 
0 0.321065 0 0.321848 0 0.322631 0 0.323414 0 
0.324197 0 0.32498 0 0.325763 0 0.326547 0 0.32733 
0 0.328113 0 0.328896 0 0.329679 0 0.330462 0 
0.331245 0 0.332028 0 0.332811 0 0.333594 0 0.334377 
0 0.335161 0 0.335944 0 0.336727 0 0.33751 0 
0.338293 0 0.339076 0 0.339859 0 0.340642 0 0.341425 
0 0.342208 0 0.342991 0 0.343774 0 0.344558 0 
0.345341 0 0.346124 0 0.346907 0 0.34769 0 0.348473 
0 0.349256 0 0.350039 0 0.350822 0 0.351605 0 
0.352388 0 0.353171 0 0.353955 0 0.354738 0 0.355521 
0 0.356304 0 0.357087 0 0.35787 0 0.358653 0 
0.359436 0 0.360219 0 0.361002 0 0.361785 0 0.362569 
0 0.363352 0 0.364135 0 0.364918 0 0.365701 0 
0.366484 0 0.367267 0 0.36805 0 0.368833 0 0.369616 
0 0.370399 0 0.371182 0 0.371966 0 0.372749 0 
0.373532 0 0.374315 0 0.375098 0 0.375881 0 0.376664 
0 0.377447 0 0.37823 0 0.379013 0 0.379796 0 
0.380579 0 0.381363 0 0.382146 0 0.382929 0 0.383712 
0 0.384495 0 0.385278 0 0.386061 0 0.386844 0 
0.387627 0 0.38841 0 0.389193 0 0.389977 0 0.39076 
0 0.391543 0 0.392326 0 0.393109 0 0.393892 0 
0.394675 0 0.395458 0 0.396241 0 0.397024 0 0.397807 
0 0.39859 0 0.399374 0 0.400157 0 0.40094 0 
0.401723 0 0.402506 0 0.403289 0 0.404072 0 0.404855 
0 0.405638 0 0.406421 0 0.407204 0 0.407987 0 
0.408771 0 0.409554 0 0.410337 0 0.41112 0 0.411903 
0 0.412686 0 0.413469 0 0.414252 0 0.415035 0 
0.415818 0 0.416601 0 0.417385 0 0.418168 0 0.418951 
0 0.419734 0 0.420517 0 0.4213 0 0.422083 0 
0.422866 0 0.423649 0 0.424432 0 0.425215 0 0.425998 
0 0.426782 0 0.427565 0 0.428348 0 0.429131 0 
0.429914 0 0.430697 0 0.43148 0 0.432263 0 0.433046 
0 0.433829 0 0.434612 0 0.435395 0 0.436179 0 
0.436962 0 0.437745 0 0.438528 0 0.439311 0 0.440094 
0 0.440877 0 0.44166 0 0.442443 0 0.443226 0 
0.444009 0 0.444792 0 0.445576 0 0.446359 0 0.447142 
0 0.447925 0 0.448708 0 0.449491 0 0.450274 0 
0.451057 0 0.45184 0 0.452623 0 0.453406 0 0.45419 
0 0.454973 0 0.455756 0 0.456539 0 0.457322 0 
0.458105 0 0.458888 0 0.459671 0 0.460454 0 0.461237 
0 0.46202 0 0.462803 0 0.463587 0 0.46437 0 
0.465153 0 0.465936 0 0.466719 0 0.467502 0 0.468285 
0 0.469068 0 0.469851 0 0.470634 0 0.471417 0 
0.4722 0 0.472984 0 0.473767 0 0.47455 0 0.475333 
0 0.476116 0 0.476899 0 0.477682 0 0.478465 0 
0.479248 0 0.480031 0 0.480814 0 0.481597 0 0.482381 
0 0.483164 0 0.483947 0 0.48473 0 0.485513 0 
0.486296 0 0.487079 0 0.487862 0 0.488645 0 0.489428 
0 0.490211 0 0.490995 0 0.491778 0 0.492561 0 
0.493344 0 0.494127 0 0.49491 0 0.495693 0 0.496476 
0 0.497259 0 0.498042 0 0.498825 0 0.499608 0 
0.500392 0 0.501175 0 0.501958 0 0.502741 0 0.503524 
0 0.504307 0 0.50509 0 0.505873 0 0.506656 0 
0.507439 0 0.508222 0 0.509005 0 0.509789 0 0.510572 
0 0.511355 0 0.512138 0 0.512921 0 0.513704 0 
0.514487 0 0.51527 0 0.516053 0 0.516836 0 0.517619 
0 0.518403 0 0.519186 0 0.519969 0 0.520752 0 
0.521535 0 0.522318 0 0.523101 0 0.523884 0 0.524667 
0 0.52545 0 0.526233 0 0.527016 0 0.5278 0 
0.528583 0 0.529366 0 0.530149 0 0.530932 0 0.531715 
0 0.532498 0 0.533281 0 0.534064 0 0.534847 0 
0.53563 0 0.536413 0 0.537197 0 0.53798 0 0.538763 
0 0.539546 0 0.540329 0 0.541112 0 0.541895 0 
0.542678 0 0.543461 0 0.544244 0 0.545027 0 0.545811 
0 0.546594 0 0.547377 0 0.54816 0 0.548943 0 
0.549726 0 0.550509 0 0.551292 0 0.552075 0 0.552858 
0 0.553641 0 0.554424 0 0.555207 0 0.555991 0 
0.556774 0 0.557557 0 0.55834 0 0.559123 0 0.559906 
0 0.560689 0 0.561472 0 0.562255 0 0.563038 0 
0.563821 0 0.564605 0 0.565388 0 0.566171 0 0.566954 
0 0.567737 0 0.56852 0 0.569303 0 0.570086 0 
0.570869 0 0.571652 0 0.572435 0 0.573218 0 0.574002 
0 0.574785 0 0.575568 0 0.576351 0 0.577134 0 
0.577917 0 0.5787 0 0.579483 0 0.580266 0 0.581049 
0 0.581832 0 0.582615 0 0.583399 0 0.584182 0 
0.584965 0 0.585748 0 0.586531 0 0.587314 0 0.588097 
0 0.58888 0 0.589663 0 0.590446 0 0.591229 0 
0.592013 0 0.592796 0 0.593579 0 0.594362 0 0.595145 
0 0.595928 0 0.596711 0 0.597494 0 0.598277 0 
0.59906 0 0.599843 0 0.600626 0 0.60141 0 0.602193 
0 0.602976 0 0.603759 0 0.604542 0 0.605325 0 
0.606108 0 0.606891 0 0.607674 0 0.608457 0 0.60924 
0 0.610023 0 0.610807 0 0.61159 0 0.612373 0 
0.613156 0 0.613939 0 0.614722 0 0.615505 0 0.616288 
0 0.617071 0 0.617854 0 0.618637 0 0.619421 0 
0.620204 0 0.620987 0 0.62177 0 0.622553 0 0.623336 
0 0.624119 0 0.624902 0 0.625685 0 0.626468 0 
0.627251 0 0.628034 0 0.628818 0 0.629601 0 0.630384 
0 0.631167 0 0.63195 0 0.632733 0 0.633516 0 
0.634299 0 0.635082 0 0.635865 0 0.636648 0 0.637432 
0 0.638215 0 0.638998 0 0.639781 0 0.640564 0 
0.641347 0 0.64213 0 0.642913 0 0.643696 0 0.644479 
0 0.645262 0 0.646045 0 0.646829 0 0.647612 0 
0.648395 0 0.649178 0 0.649961 0 0.650744 0 0.651527 
0 0.65231 0 0.653093 0 0.653876 0 0.654659 0 
0.655442 0 0.656226 0 0.657009 0 0.657792 0 0.658575 
0 0.659358 0 0.660141 0 0.660924 0 0.661707 0 