# vtk DataFile Version 4.2
vtk output
ASCII
DATASET POLYDATA
POINTS 1281 float
0 0 0 -0.00281285 0.000263732 0.00371882 -0.0109891 0.00102971 0.0145199 
-0.0241352 0.0022601 0.0318704 -0.0418578 0.00391708 0.055237 -0.0637632 0.00596282 0.084087 
-0.0894581 0.00835948 0.117887 -0.118549 0.0110692 0.156105 -0.150642 0.0140543 0.198206 
-0.185345 0.0172767 0.243659 -0.222262 0.0206988 0.29193 -0.261002 0.0242827 0.342486 
-0.301171 0.0279905 0.394794 -0.342374 0.0317844 0.448322 -0.384219 0.0356266 0.502535 
-0.426312 0.0394793 0.556902 -0.46826 0.0433046 0.610889 -0.509668 0.0470647 0.663962 
-0.550146 0.0507219 0.715592 -0.589457 0.0542516 0.765448 -0.627651 0.0576536 0.813573 
-0.66481 0.0609303 0.860048 -0.701016 0.064084 0.904957 -0.736351 0.0671171 0.948382 
-0.770896 0.0700319 0.990406 -0.804734 0.0728308 1.03111 -0.837947 0.0755163 1.07058 
-0.870616 0.0780906 1.10889 -0.902822 0.080556 1.14614 -0.934649 0.0829151 1.18239 
-0.966178 0.0851702 1.21774 -0.997489 0.0873235 1.25226 -1.02867 0.0893776 1.28605 
-1.05979 0.0913347 1.31917 -1.09094 0.0931972 1.35172 -1.12221 0.0949675 1.38377 
-1.15367 0.0966479 1.41542 -1.1854 0.0982409 1.44673 -1.21749 0.0997488 1.4778 
-1.25001 0.101174 1.5087 -1.28306 0.102519 1.53953 -1.31671 0.103785 1.57035 
-1.35104 0.104977 1.60126 -1.3861 0.106093 1.63231 -1.42186 0.107131 1.66347 
-1.45829 0.108087 1.69474 -1.49533 0.108959 1.72609 -1.53295 0.109742 1.75749 
-1.5711 0.110433 1.78892 -1.60976 0.111028 1.82037 -1.64887 0.111524 1.8518 
-1.6884 0.111917 1.8832 -1.72831 0.112205 1.91454 -1.76855 0.112382 1.94581 
-1.80908 0.112446 1.97697 -1.84987 0.112394 2.00801 -1.89088 0.112221 2.03891 
-1.93206 0.111924 2.06963 -1.97337 0.1115 2.10017 -2.01477 0.110945 2.13049 
-2.05623 0.110256 2.16058 -2.09769 0.109429 2.19041 -2.13915 0.10846 2.21997 
-2.18061 0.107345 2.24926 -2.22207 0.106079 2.27828 -2.26354 0.104658 2.30703 
-2.30504 0.103078 2.33551 -2.34658 0.101334 2.36373 -2.38816 0.0994209 2.39168 
-2.42979 0.0973354 2.41937 -2.47148 0.0950727 2.4468 -2.51324 0.0926284 2.47396 
-2.55509 0.0899979 2.50086 -2.59702 0.0871768 2.52751 -2.63905 0.0841607 2.55389 
-2.68119 0.0809452 2.58002 -2.72345 0.0775259 2.6059 -2.76583 0.0738982 2.63152 
-2.80835 0.0700578 2.65688 -2.85102 0.0660001 2.68199 -2.89384 0.0617209 2.70686 
-2.93682 0.0572156 2.73147 -2.97998 0.0524799 2.75583 -3.0233 0.0475097 2.77995 
-3.06678 0.0423011 2.80381 -3.11042 0.0368502 2.82743 -3.15421 0.0311531 2.85079 
-3.19813 0.025206 2.87391 -3.24219 0.0190049 2.89677 -3.28637 0.012546 2.91938 
-3.33067 0.00582535 2.94173 -3.37508 -0.00116097 2.96383 -3.41959 -0.00841682 2.98567 
-3.4642 -0.0159461 3.00727 -3.50889 -0.0237527 3.0286 -3.55367 -0.0318406 3.04968 
-3.59852 -0.0402135 3.0705 -3.64344 -0.0488755 3.09106 -3.68842 -0.0578304 3.11136 
-3.73344 -0.067082 3.13141 -3.77852 -0.0766344 3.15119 -3.82363 -0.0864914 3.17072 
-3.86877 -0.0966568 3.18998 -3.91393 -0.107133 3.20898 -3.95911 -0.117919 3.22773 
-4.00431 -0.129016 3.24623 -4.04952 -0.140424 3.26449 -4.09474 -0.152142 3.2825 
-4.13996 -0.16417 3.30028 -4.18518 -0.176509 3.31783 -4.2304 -0.189157 3.33516 
-4.27561 -0.202116 3.35226 -4.3208 -0.215384 3.36915 -4.36598 -0.228963 3.38583 
-4.41114 -0.242851 3.4023 -4.45627 -0.257049 3.41858 -4.50137 -0.271557 3.43465 
-4.54644 -0.286374 3.45054 -4.59147 -0.3015 3.46624 -4.63645 -0.316936 3.48176 
-4.6814 -0.332682 3.4971 -4.72629 -0.348736 3.51227 -4.77113 -0.3651 3.52728 
-4.81591 -0.381773 3.54212 -4.86063 -0.398753 3.55681 -4.90528 -0.416041 3.57133 
-4.94987 -0.433634 3.5857 -4.99439 -0.451533 3.59991 -5.03883 -0.469736 3.61398 
-5.0832 -0.488242 3.62789 -5.12749 -0.50705 3.64165 -5.17169 -0.52616 3.65527 
-5.21581 -0.54557 3.66874 -5.25984 -0.56528 3.68207 -5.30378 -0.585288 3.69526 
-5.34762 -0.605594 3.70831 -5.39136 -0.626196 3.72122 -5.435 -0.647094 3.734 
-5.47854 -0.668287 3.74665 -5.52197 -0.689773 3.75916 -5.56529 -0.711552 3.77155 
-5.60849 -0.733623 3.78381 -5.65158 -0.755985 3.79594 -5.69454 -0.778637 3.80795 
-5.73739 -0.801575 3.81984 -5.78011 -0.824796 3.83161 -5.82271 -0.848295 3.84328 
-5.86519 -0.872069 3.85483 -5.90754 -0.896113 3.86627 -5.94977 -0.920424 3.87761 
-5.99187 -0.944998 3.88885 -6.03385 -0.96983 3.9 -6.07571 -0.994917 3.91105 
-6.11743 -1.02025 3.92202 -6.15903 -1.04584 3.9329 -6.2005 -1.07167 3.9437 
-6.24184 -1.09773 3.95441 -6.28306 -1.12403 3.96506 -6.32414 -1.15056 3.97563 
-6.36509 -1.17732 3.98613 -6.40591 -1.2043 3.99657 -6.4466 -1.2315 4.00694 
-6.48716 -1.25892 4.01726 -6.52759 -1.28655 4.02753 -6.56788 -1.31438 4.03774 
-6.60804 -1.34242 4.0479 -6.64808 -1.37066 4.05801 -6.68797 -1.3991 4.06808 
-6.72775 -1.42773 4.0781 -6.76739 -1.45656 4.08807 -6.8069 -1.48557 4.09801 
-6.84628 -1.51477 4.10791 -6.88554 -1.54416 4.11777 -6.92467 -1.57372 4.12759 
-6.96368 -1.60346 4.13738 -7.00256 -1.63337 4.14714 -7.04132 -1.66346 4.15686 
-7.07995 -1.69371 4.16656 -7.11846 -1.72413 4.17623 -7.15685 -1.75471 4.18588 
-7.19512 -1.78545 4.1955 -7.23326 -1.81634 4.20511 -7.27129 -1.84739 4.21469 
-7.30919 -1.87858 4.22425 -7.34698 -1.90993 4.2338 -7.38465 -1.94141 4.24334 
-7.42221 -1.97304 4.25286 -7.45964 -2.00481 4.26236 -7.49697 -2.03671 4.27185 
-7.53418 -2.06875 4.28134 -7.57128 -2.10092 4.29081 -7.60827 -2.13323 4.30027 
-7.64514 -2.16566 4.30973 -7.68191 -2.19821 4.31917 -7.71858 -2.23089 4.32861 
-7.75513 -2.2637 4.33805 -7.79158 -2.29661 4.34747 -7.82793 -2.32965 4.3569 
-7.86417 -2.3628 4.36632 -7.90031 -2.39606 4.37574 -7.93635 -2.42944 4.38516 
-7.97228 -2.46291 4.39458 -8.00812 -2.4965 4.404 -8.04387 -2.53018 4.41343 
-8.07951 -2.56397 4.42285 -8.11506 -2.59786 4.43228 -8.15051 -2.63184 4.44171 
-8.18588 -2.66592 4.45115 -8.22114 -2.70009 4.46059 -8.25632 -2.73436 4.47003 
-8.2914 -2.76872 4.47948 -8.3264 -2.80317 4.48893 -8.3613 -2.83771 4.49839 
-8.39612 -2.87233 4.50785 -8.43085 -2.90705 4.51731 -8.4655 -2.94184 4.52679 
-8.50005 -2.97672 4.53626 -8.53453 -3.01169 4.54575 -8.56892 -3.04673 4.55524 
-8.60323 -3.08185 4.56473 -8.63745 -3.11705 4.57424 -8.6716 -3.15232 4.58374 
-8.70567 -3.18767 4.59326 -8.73965 -3.2231 4.60278 -8.77356 -3.25859 4.61231 
-8.8074 -3.29416 4.62185 -8.84115 -3.3298 4.6314 -8.87483 -3.36551 4.64095 
-8.90844 -3.40128 4.65051 -8.94197 -3.43713 4.66007 -8.97542 -3.47304 4.66964 
-9.0088 -3.50902 4.67921 -9.04211 -3.54507 4.68879 -9.07535 -3.58118 4.69838 
-9.10851 -3.61736 4.70797 -9.1416 -3.65361 4.71756 -9.17461 -3.68991 4.72715 
-9.20756 -3.72629 4.73675 -9.24044 -3.76272 4.74635 -9.27324 -3.79922 4.75596 
-9.30598 -3.83578 4.76556 -9.33865 -3.8724 4.77517 -9.37125 -3.90908 4.78478 
-9.40378 -3.94582 4.79439 -9.43624 -3.98263 4.804 -9.46864 -4.01949 4.81361 
-9.50097 -4.05641 4.82322 -9.53323 -4.09338 4.83283 -9.56542 -4.13042 4.84244 
-9.59755 -4.16752 4.85204 -9.62961 -4.20467 4.86164 -9.6616 -4.24189 4.87124 
-9.69353 -4.27916 4.88083 -9.72538 -4.31649 4.89042 -9.75717 -4.35388 4.9 
-9.7889 -4.39133 4.90957 -9.82055 -4.42884 4.91913 -9.85214 -4.46641 4.92869 
-9.88367 -4.50403 4.93823 -9.91512 -4.54172 4.94777 -9.94651 -4.57946 4.95729 
-9.97783 -4.61727 4.9668 -10.0091 -4.65513 4.9763 -10.0403 -4.69305 4.98579 
-10.0714 -4.73103 4.99526 -10.1024 -4.76907 5.00472 -10.1334 -4.80716 5.01416 
-10.1643 -4.84532 5.02358 -10.1952 -4.88354 5.03299 -10.226 -4.92182 5.04237 
-10.2567 -4.96016 5.05174 -10.2873 -4.99856 5.06108 -10.3179 -5.03702 5.0704 
-10.3484 -5.07555 5.07969 -10.3788 -5.11415 5.08896 -10.4091 -5.1528 5.0982 
-10.4394 -5.19153 5.10742 -10.4696 -5.23031 5.1166 -10.4997 -5.26917 5.12576 
-10.5298 -5.30809 5.13488 -10.5597 -5.34708 5.14398 -10.5896 -5.38613 5.15303 
-10.6194 -5.42526 5.16206 -10.6491 -5.46445 5.17105 -10.6788 -5.50372 5.18 
-10.7084 -5.54305 5.18891 -10.7378 -5.58246 5.19778 -10.7672 -5.62194 5.20661 
-10.7966 -5.66149 5.2154 -10.8258 -5.70111 5.22414 -10.8549 -5.74082 5.23284 
-10.884 -5.78059 5.24149 -10.9129 -5.82045 5.25009 -10.9418 -5.86038 5.25864 
-10.9706 -5.90039 5.26714 -10.9992 -5.94049 5.27558 -11.0278 -5.98066 5.28397 
-11.0563 -6.02092 5.29229 -11.0846 -6.06126 5.30057 -11.1129 -6.10169 5.30878 
-11.1411 -6.1422 5.31692 -11.1691 -6.1828 5.32501 -11.1971 -6.22349 5.33303 
-11.2249 -6.26427 5.34098 -11.2527 -6.30513 5.34887 -11.2803 -6.34609 5.35668 
-11.3078 -6.38714 5.36442 -11.3352 -6.42828 5.37209 -11.3624 -6.46952 5.37968 
-11.3896 -6.51085 5.3872 -11.4166 -6.55228 5.39463 -11.4435 -6.59381 5.40198 
-11.4702 -6.63544 5.40925 -11.4969 -6.67717 5.41643 -11.5233 -6.719 5.42352 
-11.5497 -6.76094 5.43053 -11.5759 -6.80298 5.43744 -11.6019 -6.84513 5.44425 
-11.6278 -6.88738 5.45097 -11.6536 -6.92975 5.45759 -11.6792 -6.97222 5.4641 
-11.7046 -7.01481 5.47052 -11.7299 -7.05751 5.47682 -11.755 -7.10032 5.48303 
-11.7799 -7.14325 5.48912 -11.8047 -7.1863 5.4951 -11.8293 -7.22946 5.50096 
-11.8537 -7.27274 5.50671 -11.8779 -7.31614 5.51234 -11.902 -7.35967 5.51785 
-11.9259 -7.40331 5.52324 -11.9495 -7.44707 5.5285 -11.973 -7.49095 5.53364 
-11.9963 -7.53496 5.53864 -12.0193 -7.57909 5.54352 -12.0422 -7.62334 5.54825 
-12.0648 -7.66772 5.55285 -12.0872 -7.71222 5.55732 -12.1094 -7.75685 5.56164 
-12.1314 -7.8016 5.56581 -12.1531 -7.84648 5.56984 -12.1746 -7.89149 5.57372 
-12.1959 -7.93662 5.57745 -12.2169 -7.98188 5.58103 -12.2377 -8.02728 5.58445 
-12.2582 -8.0728 5.58771 -12.2785 -8.11845 5.59082 -12.2985 -8.16423 5.59376 
-12.3182 -8.21014 5.59653 -12.3377 -8.25618 5.59915 -12.3568 -8.30234 5.60159 
-12.3757 -8.34863 5.60386 -12.3944 -8.39504 5.60596 -12.4127 -8.44157 5.60788 
-12.4307 -8.48823 5.60963 -12.4485 -8.535 5.6112 -12.4659 -8.5819 5.61259 
-12.4831 -8.62891 5.6138 -12.4999 -8.67604 5.61483 -12.5164 -8.72328 5.61566 
-12.5325 -8.77064 5.61631 -12.5484 -8.81811 5.61677 -12.5639 -8.86569 5.61703 
-12.5791 -8.91338 5.61711 -12.5939 -8.96119 5.61698 -12.6084 -9.0091 5.61665 
-12.6226 -9.05712 5.61613 -12.6364 -9.10524 5.6154 -12.6498 -9.15347 5.61447 
-12.6629 -9.20179 5.61334 -12.6756 -9.25021 5.612 -12.6879 -9.29872 5.61046 
[...]
CELL_DATA 1
FIELD FieldData 2
Length 1 1 double
64.012212483 
Tortuosity 1 1 double
0.99652927491 
POINT_DATA 1281
SCALARS MaximumInscribedSphereRadius float
LOOKUP_TABLE default
1.24 1.23475 1.22951 1.22426 1.21902 1.21377 1.20853 1.20328 1.19804 
1.19279 1.18755 1.1823 1.17706 1.17181 1.16657 1.16132 1.15607 1.15083 
1.14588 1.14173 1.13759 1.13344 1.12929 1.12515 1.121 1.11685 1.11271 
1.10856 1.10441 1.10027 1.09612 1.09197 1.08783 1.08368 1.07953 1.07539 
1.07124 1.06709 1.06295 1.0588 1.05466 1.05051 1.04629 1.0418 1.03732 
1.03283 1.02834 1.02385 1.01936 1.01487 1.01039 1.0059 1.00141 0.996922 
0.992434 0.987945 0.983457 0.978969 0.974481 0.969992 0.965504 0.962027 0.960607 
0.959186 0.957766 0.956346 0.954925 0.953505 0.952085 0.950664 0.949244 0.947824 
0.946403 0.944983 0.943563 0.942142 0.940722 0.939302 0.937881 0.936461 0.935041 
0.93362 0.933242 0.933077 0.932911 0.932746 0.93258 0.932414 0.932249 0.932083 
0.931917 0.931752 0.931586 0.931421 0.931255 0.931089 0.930924 0.930758 0.930592 
0.930427 0.930261 0.930095 0.93 0.93 0.93 0.93 0.93 0.93 
0.93 0.93 0.93 0.93 0.93 0.93 0.93 0.93 0.93 
0.93 0.93 0.93 0.93 0.93 0.93 0.93 0.93 0.93 
0.93 0.93 0.93 0.93 0.93 0.93 0.93 0.93 0.93 
0.93 0.93 0.93 0.93 0.93 0.93 0.93 0.93 0.93 
0.93 0.93 0.93 0.93 0.93 0.93 0.93 0.93 0.93 
0.93 0.93 0.93 0.93 0.93 0.93 0.93 0.93 0.93 
0.93 0.931983 0.935515 0.939048 0.94258 0.946112 0.949645 0.953177 0.95671 
0.960242 0.963774 0.967306 0.970839 0.974371 0.977903 0.981436 0.984968 0.988501 
0.992033 0.995565 0.999098 1.00296 1.00775 1.01254 1.01733 1.02212 1.02691 
1.0317 1.03649 1.04128 1.04607 1.05086 1.05564 1.06043 1.06522 1.07001 
1.0748 1.07959 1.08438 1.08917 1.09396 1.09875 1.10375 1.10875 1.11376 
1.11876 1.12377 1.12877 1.13378 1.13879 1.14379 1.1488 1.1538 1.15881 
1.16381 1.16882 1.17383 1.17883 1.18384 1.18884 1.19385 1.19885 1.20145 
1.20289 1.20433 1.20577 1.20721 1.20866 1.2101 1.21154 1.21298 1.21442 
1.21587 1.21731 1.21875 1.22019 1.22163 1.22308 1.22452 1.22596 1.2274 
1.22884 1.22992 1.23043 1.23094 1.23144 1.23195 1.23246 1.23296 1.23347 
1.23397 1.23448 1.23499 1.23549 1.236 1.2365 1.23701 1.23752 1.23802 
1.23853 1.23903 1.23954 1.24 1.24 1.24 1.24 1.24 1.24 
1.24 1.24 1.24 1.24 1.24 1.24 1.24 1.24 1.24 
1.24 1.24 1.24 1.24 1.24 1.24 1.24 1.24 1.24 
1.24 1.24 1.24 1.24 1.24 1.24 1.24 1.24 1.24 
1.24 1.24 1.24 1.24 1.24 1.24 1.24 1.24 1.24 
1.24 1.24 1.24 1.24 1.24 1.24 1.24 1.24 1.24 
1.24 1.24 1.24 1.24 1.24 1.24 1.24 1.24 1.24 
1.24 1.24 1.24 1.24 1.24 1.24 1.24 1.24 1.24 
1.24 1.24 1.24 1.24 1.24 1.24 1.24 1.24 1.24 
1.24 1.24 1.24 1.24 1.24 1.24 1.24 1.24 1.24 
1.24 1.24 1.24 1.24 1.24 1.24 1.24 1.24 1.24 
1.24 1.24 1.24 1.24 1.24 1.24 1.24 1.24 1.24 
1.24 1.24 1.24 1.24 1.24 1.24 1.24 1.24 1.24 
1.24 1.24 1.24 1.24 1.24 1.24 1.24 1.24 1.24073 
1.24332 1.2459 1.24848 1.25106 1.25365 1.25623 1.25881 1.2614 1.26398 
1.26656 1.26914 1.27173 1.27431 1.27689 1.27948 1.28206 1.28464 1.28722 
1.28981 1.29239 1.2966 1.30085 1.3051 1.30936 1.31361 1.31786 1.32212 
1.32637 1.33062 1.33488 1.33913 1.34338 1.34764 1.35189 1.35614 1.3604 
1.36465 1.3689 1.37316 1.37741 1.38246 1.38792 1.39338 1.39883 1.40429 
1.40975 1.41521 1.42067 1.42613 1.43159 1.43704 1.4425 1.44796 1.45342 
1.45888 1.46434 1.4698 1.47526 1.48071 1.48617 1.49049 1.49273 1.49497 
1.49721 1.49945 1.50168 1.50392 1.50616 1.5084 1.51064 1.51288 1.51512 
1.51736 1.51959 1.52183 1.52407 1.52631 1.52855 1.53079 1.53303 1.53518 
1.53591 1.53665 1.53738 1.53811 1.53884 1.53957 1.54031 1.54104 1.54177 
1.5425 1.54324 1.54397 1.5447 1.54543 1.54616 1.5469 1.54763 1.54836 
1.54909 1.54983 1.55 1.55 1.55 1.55 1.55 1.55 1.55 
1.55 1.55 1.55 1.55 1.55 1.55 1.55 1.55 1.55 
1.55 1.55 1.55 1.55 1.55 1.55 1.55 1.55 1.55 
1.55 1.55 1.55 1.55 1.55 1.55 1.55 1.55 1.55 
1.55 1.55 1.55 1.55 1.55 1.55 1.55 1.55 1.55 
1.55 1.55 1.55 1.55 1.55 1.55 1.55 1.55 1.55 
1.55 1.55 1.55 1.55 1.55 1.55 1.55 1.55 1.55 
1.55 1.55 1.55 1.55 1.55 1.55 1.55 1.55 1.55 
1.55 1.55 1.55 1.55 1.55 1.55 1.55 1.55 1.55 
1.55 1.55 1.55 1.55 1.55 1.55 1.55 1.55 1.55 
1.55 1.55 1.55 1.55 1.55 1.55 1.55 1.55 1.55 
1.55 1.55 1.55 1.55 1.55 1.55 1.55 1.55 1.55 
1.55 1.55 1.55 1.55 1.55 1.55 1.55 1.55 1.55 
1.55 1.55 1.55 1.55 1.55 1.55 1.5501 1.55191 1.55371 
1.55551 1.55732 1.55912 1.56092 1.56273 1.56453 1.56633 1.56814 1.56994 
1.57174 1.57355 1.57535 1.57715 1.57896 1.58076 1.58256 1.58437 1.58617 
1.58936 1.59466 1.59995 1.60525 1.61055 1.61585 1.62115 1.62645 1.63174 
1.63704 1.64234 1.64764 1.65294 1.65824 1.66353 1.66883 1.67413 1.67943 
1.68473 1.69003 1.69611 1.70392 1.71172 1.71952 1.72732 1.73512 1.74292 
1.75072 1.75852 1.76632 1.77413 1.78193 1.78973 1.79753 1.80533 1.81313 
1.82093 1.82873 1.83653 1.84434 1.85214 1.8543 1.85453 1.85477 1.855 
1.85523 1.85546 1.85569 1.85593 1.85616 1.85639 1.85662 1.85685 1.85708 
1.85732 1.85755 1.85778 1.85801 1.85824 1.85847 1.85871 1.85941 1.86086 
1.86231 1.86377 1.86522 1.86668 1.86813 1.86958 1.87104 1.87249 1.87395 
1.8754 1.87685 1.87831 1.87976 1.88122 1.88267 1.88412 1.88558 1.88703 
1.88849 1.89166 1.89494 1.89822 1.90149 1.90477 1.90805 1.91133 1.91461 
1.91789 1.92116 1.92444 1.92772 1.931 1.93428 1.93755 1.94083 1.94411 
1.94739 1.95067 1.95395 1.95873 1.96418 1.96964 1.9751 1.98055 1.98601 
1.99146 1.99692 2.00237 2.00783 2.01328 2.01874 2.02419 2.02965 2.0351 
2.04056 2.04602 2.05147 2.05693 2.06238 2.06671 2.06908 2.07144 2.07381 
2.07617 2.07854 2.0809 2.08327 2.08563 2.088 2.09036 2.09273 2.09509 
2.09746 2.09982 2.10219 2.10455 2.10692 2.10928 2.11165 2.11377 2.11153 
2.10929 2.10705 2.10481 2.10257 2.10033 2.09809 2.09585 2.09361 2.09137 
2.08913 2.08689 2.08465 2.08241 2.08017 2.07793 2.07569 2.07345 2.07121 
2.06897 2.06496 2.06036 2.05576 2.05115 2.04655 2.04195 2.03735 2.03274 
2.02814 2.02354 2.01893 2.01433 2.00973 2.00513 2.00052 1.99592 1.99132 
1.98672 1.98211 1.97751 1.97312 1.969 1.96488 1.96076 1.95664 1.95253 
1.94841 1.94429 1.94017 1.93605 1.93193 1.92781 1.92369 1.91957 1.91546 
1.91134 1.90722 1.9031 1.89898 1.89486 1.89118 1.89039 1.8896 1.88881 
1.88802 1.88723 1.88644 1.88565 1.88486 1.88407 1.88328 1.88249 1.8817 
1.88091 1.88012 1.87933 1.87854 1.87775 1.87696 1.87617 1.87538 1.87461 
1.87384 1.87307 1.8723 1.87153 1.87076 1.87 1.86923 1.86846 1.86769 
1.86692 1.86616 1.86539 1.86462 1.86385 1.86308 1.86232 1.86155 1.86078 
1.86001 1.85866 1.85676 1.85486 1.85296 1.85106 1.84916 1.84726 1.84536 
1.84346 1.84156 1.83966 1.83776 1.83586 1.83396 1.83206 1.83016 1.82826 
1.82636 1.82447 1.82257 1.81985 1.81361 1.80736 1.80112 1.79487 1.78862 
1.78238 1.77613 1.76988 1.76364 1.75739 1.75114 1.7449 1.73865 1.7324 
1.72616 1.71991 1.71367 1.70742 1.70117 1.69493 1.68686 1.67842 1.66999 
1.66156 1.65312 1.64469 1.63625 1.62782 1.61939 1.61095 1.60252 1.59408 
1.58565 1.57722 1.56878 1.56035 1.55191 1.54348 1.53505 1.52661 1.51718 
1.50659 1.496 1.48541 1.47482 1.46423 1.45364 1.44304 1.43245 1.42186 
1.41127 1.40068 1.39009 1.3795 1.36891 1.35832 1.34773 1.33713 1.32654 
1.31595 1.30518 1.29311 1.28105 1.26898 1.25691 1.24485 1.23278 1.22072 
1.20865 1.19659 1.18452 1.17245 1.16039 1.14832 1.13626 1.12419 1.11213 
1.10006 1.088 1.07593 1.06386 1.05707 1.05211 1.04715 1.04219 1.03723 
1.03227 1.02731 1.02235 1.01739 1.01243 1.00747 1.00251 0.997548 0.992588 
0.987628 0.982667 0.977707 0.972747 0.967787 0.962827 0.95931 0.957838 0.956365 
0.954893 0.95342 0.951948 0.950475 0.949003 0.94753 0.946058 0.944586 0.943113 
0.94164 0.940168 0.938695 0.937223 0.935751 0.934278 0.932806 0.931333 0.930083 
0.930961 0.931839 0.932716 0.933594 0.934472 0.935349 0.936227 0.937105 0.937982 
0.93886 0.939738 0.940615 0.941493 0.942371 0.943249 0.944126 0.945004 0.945882 
0.946759 0.947637 0.949885 0.952521 0.955157 0.957793 0.960429 0.963065 0.965701 
0.968338 0.970974 0.97361 0.976246 0.978882 0.981518 0.984154 0.986791 0.989427 
0.992063 0.994699 0.997335 0.999971 1.00377 1.0089 1.01402 1.01914 1.02427 
1.02939 1.03451 1.03964 1.04476 1.04988 1.05501 1.06013 1.06525 1.07038 
1.0755 1.08062 1.08575 1.09087 1.09599 1.10112 1.10627 1.11159 1.11692 
1.12224 1.12756 1.13288 1.1382 1.14353 1.14885 1.15417 1.15949 1.16481 
1.17014 1.17546 1.18078 1.1861 1.19142 1.19675 1.20207 1.20739 1.21271 
1.21814 1.22358 1.22902 1.23447 1.23991 1.24535 1.2508 1.25624 1.26168 
1.26712 1.27257 1.27801 1.28345 1.2889 1.29434 1.29978 1.30522 1.31067 
1.31611 1.32155 1.32709 1.33271 1.33834 1.34396 1.34958 1.3552 1.36082 
1.36644 1.37206 1.37769 1.38331 1.38893 1.39455 1.40017 1.40579 1.41142 
1.41704 1.42266 1.42828 1.4339 1.43955 1.44529 1.45103 1.45677 1.4625 
1.46824 1.47398 1.47972 1.48546 1.4912 1.49694 1.50268 1.50842 1.51416 
1.51989 1.52563 1.53137 1.53711 1.54285 1.54859 1.55433 1.56006 1.5658 
1.57153 1.57726 1.583 1.58873 1.59446 1.6002 1.60593 1.61166 1.61739 
1.62313 1.62886 1.63459 1.64033 1.64606 1.65179 1.65753 1.66326 1.66899 
1.67465 1.68025 1.68585 1.69145 1.69705 1.70265 1.70825 1.71386 1.71946 
1.72506 1.73066 1.73626 1.74186 1.74746 1.75307 1.75867 1.76427 1.76987 
1.77547 1.78107 1.7866 1.79185 1.7971 1.80235 1.8076 1.81285 1.8181 
1.82335 1.8286 1.83385 1.83911 1.84436 1.84961 1.85486 1.86011 1.86536 
1.87061 1.87586 1.88111 1.88636 1.89161 1.89687 1.90212 1.90738 1.91264 
1.9179 1.92315 1.92841 1.93367 1.93893 1.94419 1.94944 1.9547 1.95996 
1.96522 1.97047 1.97573 1.98099 1.98625 1.9915 1.99565 1.9995 2.00334 
2.00718 2.01102 2.01487 2.01871 2.02255 2.02639 2.03024 2.03408 2.03792 
2.04176 2.0456 2.04945 2.05329 2.05713 2.06097 2.06482 2.06866 2.0725 
2.07634 2.08018 2.08403 2.08857 2.09336 2.09815 2.10294 2.10773 2.11252 
2.11731 2.1221 2.12689 2.13168 2.13647 2.14126 2.14605 2.15084 2.15563 
2.16042 2.16521 2.17 
TEXTURE_COORDINATES TCoords 2 float
0 0 0.00078125 0 0.0015625 0 0.00234375 0 0.003125 
0 0.00390625 0 0.0046875 0 0.00546875 0 0.00625 0 
0.00703125 0 0.0078125 0 0.00859375 0 0.009375 0 0.0101562 
0 0.0109375 0 0.0117188 0 0.0125 0 0.0132813 0 
0.0140625 0 0.0148437 0 0.015625 0 0.0164062 0 0.0171875 
0 0.0179687 0 0.01875 0 0.0195313 0 0.0203125 0 
0.0210938 0 0.021875 0 0.0226563 0 0.0234375 0 0.0242187 
0 0.025 0 0.0257812 0 0.0265625 0 0.0273438 0 
0.028125 0 0.0289063 0 0.0296875 0 0.0304688 0 0.03125 
0 0.0320312 0 0.0328125 0 0.0335938 0 0.034375 0 
0.0351563 0 0.0359375 0 0.0367187 0 0.0375 0 0.0382813 
0 0.0390625 0 0.0398437 0 0.040625 0 0.0414063 0 
0.0421875 0 0.0429688 0 0.04375 0 0.0445312 0 0.0453125 
0 0.0460938 0 0.046875 0 0.0476562 0 0.0484375 0 
0.0492188 0 0.05 0 0.0507813 0 0.0515625 0 0.0523437 
0 0.053125 0 0.0539063 0 0.0546875 0 0.0554687 0 
0.05625 0 0.0570313 0 0.0578125 0 0.0585938 0 0.059375 
0 0.0601562 0 0.0609375 0 0.0617188 0 0.0625 0 
0.0632813 0 0.0640625 0 0.0648438 0 0.065625 0 0.0664063 
0 0.0671875 0 0.0679687 0 0.06875 0 0.0695312 0 
0.0703125 0 0.0710938 0 0.071875 0 0.0726563 0 0.0734375 
0 0.0742188 0 0.075 0 0.0757812 0 0.0765625 0 
0.0773437 0 0.078125 0 0.0789063 0 0.0796875 0 0.0804688 
0 0.08125 0 0.0820313 0 0.0828125 0 0.0835937 0 
0.084375 0 0.0851562 0 0.0859375 0 0.0867188 0 0.0875 
0 0.0882813 0 0.0890625 0 0.0898438 0 0.090625 0 
0.0914062 0 0.0921875 0 0.0929687 0 0.09375 0 0.0945313 
0 0.0953125 0 0.0960938 0 0.096875 0 0.0976563 0 
0.0984375 0 0.0992187 0 0.1 0 0.100781 0 0.101563 
0 0.102344 0 0.103125 0 0.103906 0 0.104687 0 
0.105469 0 0.10625 0 0.107031 0 0.107813 0 0.108594 
0 0.109375 0 0.110156 0 0.110937 0 0.111719 0 
0.1125 0 0.113281 0 0.114063 0 0.114844 0 0.115625 
0 0.116406 0 0.117188 0 0.117969 0 0.11875 0 
0.119531 0 0.120312 0 0.121094 0 0.121875 0 0.122656 
0 0.123438 0 0.124219 0 0.125 0 0.125781 0 
0.126563 0 0.127344 0 0.128125 0 0.128906 0 0.129688 
0 0.130469 0 0.13125 0 0.132031 0 0.132813 0 
0.133594 0 0.134375 0 0.135156 0 0.135937 0 0.136719 
0 0.1375 0 0.138281 0 0.139062 0 0.139844 0 
0.140625 0 0.141406 0 0.142188 0 0.142969 0 0.14375 
0 0.144531 0 0.145313 0 0.146094 0 0.146875 0 
0.147656 0 0.148438 0 0.149219 0 0.15 0 0.150781 
0 0.151562 0 0.152344 0 0.153125 0 0.153906 0 
0.154687 0 0.155469 0 0.15625 0 0.157031 0 0.157813 
0 0.158594 0 0.159375 0 0.160156 0 0.160938 0 
0.161719 0 0.1625 0 0.163281 0 0.164063 0 0.164844 
0 0.165625 0 0.166406 0 0.167187 0 0.167969 0 
0.16875 0 0.169531 0 0.170312 0 0.171094 0 0.171875 
0 0.172656 0 0.173438 0 0.174219 0 0.175 0 
0.175781 0 0.176563 0 0.177344 0 0.178125 0 0.178906 
0 0.179688 0 0.180469 0 0.18125 0 0.182031 0 
0.182812 0 0.183594 0 0.184375 0 0.185156 0 0.185937 
0 0.186719 0 0.1875 0 0.188281 0 0.189063 0 
0.189844 0 0.190625 0 0.191406 0 0.192188 0 0.192969 
0 0.19375 0 0.194531 0 0.195313 0 0.196094 0 
0.196875 0 0.197656 0 0.198437 0 0.199219 0 0.2 
0 0.200781 0 0.201562 0 0.202344 0 0.203125 0 
0.203906 0 0.204688 0 0.205469 0 0.20625 0 0.207031 
0 0.207813 0 0.208594 0 0.209375 0 0.210156 0 
0.210938 0 0.211719 0 0.2125 0 0.213281 0 0.214062 
0 0.214844 0 0.215625 0 0.216406 0 0.217187 0 
0.217969 0 0.21875 0 0.219531 0 0.220313 0 0.221094 
0 0.221875 0 0.222656 0 0.223438 0 0.224219 0 
0.225 0 0.225781 0 0.226563 0 0.227344 0 0.228125 
0 0.228906 0 0.229687 0 0.230469 0 0.23125 0 
0.232031 0 0.232812 0 0.233594 0 0.234375 0 0.235156 
0 0.235938 0 0.236719 0 0.2375 0 0.238281 0 
0.239063 0 0.239844 0 0.240625 0 0.241406 0 0.242188 
0 0.242969 0 0.24375 0 0.244531 0 0.245312 0 
0.246094 0 0.246875 0 0.247656 0 0.248437 0 0.249219 
0 0.25 0 0.250781 0 0.251563 0 0.252344 0 
0.253125 0 0.253906 0 0.254687 0 0.255469 0 0.25625 
0 0.257031 0 0.257813 0 0.258594 0 0.259375 0 
0.260156 0 0.260938 0 0.261719 0 0.2625 0 0.263281 
0 0.264062 0 0.264844 0 0.265625 0 0.266406 0 
0.267188 0 0.267969 0 0.26875 0 0.269531 0 0.270312 
0 0.271094 0 0.271875 0 0.272656 0 0.273438 0 
0.274219 0 0.275 0 0.275781 0 0.276563 0 0.277344 
0 0.278125 0 0.278906 0 0.279687 0 0.280469 0 
0.28125 0 0.282031 0 0.282813 0 0.283594 0 0.284375 
0 0.285156 0 0.285937 0 0.286719 0 0.2875 0 
0.288281 0 0.289063 0 0.289844 0 0.290625 0 0.291406 
0 0.292188 0 0.292969 0 0.29375 0 0.294531 0 
0.295312 0 0.296094 0 0.296875 0 0.297656 0 0.298438 
0 0.299219 0 0.3 0 0.300781 0 0.301562 0 
0.302344 0 0.303125 0 0.303906 0 0.304688 0 0.305469 
0 0.30625 0 0.307031 0 0.307813 0 0.308594 0 
0.309375 0 0.310156 0 0.310937 0 0.311719 0 0.3125 
0 0.313281 0 0.314063 0 0.314844 0 0.315625 0 
0.316406 0 0.317187 0 0.317969 0 0.31875 0 0.319531 
0 0.320313 0 0.321094 0 0.321875 0 0.322656 0 
0.323438 0 0.324219 0 0.325 0 0.325781 0 0.326562 
0 0.327344 0 0.328125 0 0.328906 0 0.329688 0 
0.330469 0 0.33125 0 0.332031 0 0.332812 0 0.333594 
0 0.334375 0 0.335156 0 0.335938 0 0.336719 0 
0.3375 0 0.338281 0 0.339063 0 0.339844 0 0.340625 
0 0.341406 0 0.342187 0 0.342969 0 0.34375 0 
0.344531 0 0.345313 0 0.346094 0 0.346875 0 0.347656 
0 0.348437 0 0.349219 0 0.35 0 0.350781 0 
0.351563 0 0.352344 0 0.353125 0 0.353906 0 0.354688 
0 0.355469 0 0.35625 0 0.357031 0 0.357812 0 
0.358594 0 0.359375 0 0.360156 0 0.360938 0 0.361719 
0 0.3625 0 0.363281 0 0.364062 0 0.364844 0 
0.365625 0 0.366406 0 0.367188 0 0.367969 0 0.36875 
0 0.369531 0 0.370313 0 0.371094 0 0.371875 0 
0.372656 0 0.373437 0 0.374219 0 0.375 0 0.375781 
0 0.376563 0 0.377344 0 0.378125 0 0.378906 0 
0.379687 0 0.380469 0 0.38125 0 0.382031 0 0.382813 
0 0.383594 0 0.384375 0 0.385156 0 0.385938 0 
0.386719 0 0.3875 0 0.388281 0 0.389062 0 0.389844 
0 0.390625 0 0.391406 0 0.392188 0 0.392969 0 
0.39375 0 0.394531 0 0.395312 0 0.396094 0 0.396875 
0 0.397656 0 0.398438 0 0.399219 0 0.4 0 
0.400781 0 0.401563 0 0.402344 0 0.403125 0 0.403906 
0 0.404687 0 0.405469 0 0.40625 0 0.407031 0 
0.407813 0 0.408594 0 0.409375 0 0.410156 0 0.410937 
0 0.411719 0 0.4125 0 0.413281 0 0.414063 0 
0.414844 0 0.415625 0 0.416406 0 0.417188 0 0.417969 
0 0.41875 0 0.419531 0 0.420312 0 0.421094 0 
0.421875 0 0.422656 0 0.423438 0 0.424219 0 0.425 
0 0.425781 0 0.426562 0 0.427344 0 0.428125 0 
0.428906 0 0.429688 0 0.430469 0 0.43125 0 0.432031 
0 0.432813 0 0.433594 0 0.434375 0 0.435156 0 
0.435937 0 0.436719 0 0.4375 0 0.438281 0 0.439063 
0 0.439844 0 0.440625 0 0.441406 0 0.442187 0 
0.442969 0 0.44375 0 0.444531 0 0.445313 0 0.446094 
0 0.446875 0 0.447656 0 0.448438 0 0.449219 0 
0.45 0 0.450781 0 0.451562 0 0.452344 0 0.453125 
0 0.453906 0 0.454688 0 0.455469 0 0.45625 0 
0.457031 0 0.457812 0 0.458594 0 0.459375 0 0.460156 
0 0.460938 0 0.461719 0 0.4625 0 0.463281 0 
0.464063 0 0.464844 0 0.465625 0 0.466406 0 0.467187 
0 0.467969 0 0.46875 0 0.469531 0 0.470313 0 
0.471094 0 0.471875 0 0.472656 0 0.473437 0 0.474219 
0 0.475 0 0.475781 0 0.476563 0 0.477344 0 
0.478125 0 0.478906 0 0.479688 0 0.480469 0 0.48125 
0 0.482031 0 0.482812 0 0.483594 0 0.484375 0 
0.485156 0 0.485938 0 0.486719 0 0.4875 0 0.488281 
0 0.489062 0 0.489844 0 0.490625 0 0.491406 0 
0.492188 0 0.492969 0 0.49375 0 0.494531 0 0.495313 
0 0.496094 0 0.496875 0 0.497656 0 0.498437 0 
0.499219 0 0.5 0 0.500781 0 0.501562 0 0.502344 
0 0.503125 0 0.503906 0 0.504687 0 0.505469 0 
0.50625 0 0.507031 0 0.507813 0 0.508594 0 0.509375 
0 0.510156 0 0.510938 0 0.511719 0 0.5125 0 
0.513281 0 0.514063 0 0.514844 0 0.515625 0 0.516406 
0 0.517187 0 0.517969 0 0.51875 0 0.519531 0 
0.520312 0 0.521094 0 0.521875 0 0.522656 0 0.523438 
0 0.524219 0 0.525 0 0.525781 0 0.526563 0 
0.527344 0 0.528125 0 0.528906 0 0.529688 0 0.530469 
0 0.53125 0 0.532031 0 0.532812 0 0.533594 0 
0.534375 0 0.535156 0 0.535937 0 0.536719 0 0.5375 
0 0.538281 0 0.539063 0 0.539844 0 0.540625 0 
0.541406 0 0.542188 0 0.542969 0 0.54375 0 0.544531 
0 0.545313 0 0.546094 0 0.546875 0 0.547656 0 
0.548437 0 0.549219 0 0.55 0 0.550781 0 0.551562 
0 0.552344 0 0.553125 0 0.553906 0 0.554688 0 
0.555469 0 0.55625 0 0.557031 0 0.557813 0 0.558594 
0 0.559375 0 0.560156 0 0.560938 0 0.561719 0 
0.5625 0 0.563281 0 0.564062 0 0.564844 0 0.565625 
0 0.566406 0 0.567187 0 0.567969 0 0.56875 0 
0.569531 0 0.570313 0 0.571094 0 0.571875 0 0.572656 
0 0.573438 0 0.574219 0 0.575 0 0.575781 0 
0.576563 0 0.577344 0 0.578125 0 0.578906 0 0.579687 
0 0.580469 0 0.58125 0 0.582031 0 0.582812 0 
0.583594 0 0.584375 0 0.585156 0 0.585938 0 0.586719 
0 0.5875 0 0.588281 0 0.589063 0 0.589844 0 
0.590625 0 0.591406 0 0.592188 0 0.592969 0 0.59375 
0 0.594531 0 0.595312 0 0.596094 0 0.596875 0 
0.597656 0 0.598437 0 0.599219 0 0.6 0 0.600781 
0 0.601563 0 0.602344 0 0.603125 0 0.603906 0 
0.604688 0 0.605469 0 0.60625 0 0.607031 0 0.607813 
0 0.608594 0 0.609375 0 0.610156 0 0.610937 0 
0.611719 0 0.6125 0 0.613281 0 0.614062 0 0.614844 
0 0.615625 0 0.616406 0 0.617188 0 0.617969 0 
0.61875 0 0.619531 0 0.620313 0 0.621094 0 0.621875 
0 0.622656 0 0.623438 0 0.624219 0 0.625 0 
0.625781 0 0.626562 0 0.627344 0 0.628125 0 0.628906 
0 0.629687 0 0.630469 0 0.63125 0 0.632031 0 
0.632813 0 0.633594 0 0.634375 0 0.635156 0 0.635938 
0 0.636719 0 0.6375 0 0.638281 0 0.639063 0 
0.639844 0 0.640625 0 0.641406 0 0.642187 0 0.642969 
0 0.64375 0 0.644531 0 0.645312 0 0.646094 0 
0.646875 0 0.647656 0 0.648438 0 0.649219 0 0.65 
0 0.650781 0 0.651563 0 0.652344 0 0.653125 0 
0.653906 0 0.654688 0 0.655469 0 0.65625 0 0.657031 
0 0.657812 0 0.658594 0 0.659375 0 0.660156 0 
0.660937 0 0.661719 0 0.6625 0 0.663281 0 0.664063 
0 0.664844 0 0.665625 0 0.666406 0 0.667188 0 
0.667969 0 0.66875 0 0.669531 0 0.670313 0 0.671094 
0 0.671875 0 0.672656 0 0.673437 0 0.674219 0 
0.675 0 0.675781 0 0.676562 0 0.677344 0 0.678125 
0 0.678906 0 0.679688 0 0.680469 0 0.68125 0 
0.682031 0 0.682813 0 0.683594 0 0.684375 0 0.685156 
0 0.685938 0 0.686719 0 0.6875 0 0.688281 0 
0.689062 0 0.689844 0 0.690625 0 0.691406 0 0.692187 
0 0.692969 0 0.69375 0 0.694531 0 0.695313 0 
0.696094 0 0.696875 0 0.697656 0 0.698438 0 0.699219 
0 0.7 0 0.700781 0 0.701563 0 0.702344 0 
0.703125 0 0.703906 0 0.704687 0 0.705469 0 0.70625 
0 0.707031 0 0.707812 0 0.708594 0 0.709375 0 
0.710156 0 0.710938 0 0.711719 0 0.7125 0 0.713281 
0 0.714063 0 0.714844 0 0.715625 0 0.716406 0 
0.717188 0 0.717969 0 0.71875 0 0.719531 0 0.720312 