# vtk DataFile Version 4.2
vtk output
ASCII
DATASET POLYDATA
POINTS 1278 float
0 0 0 -0.00406361 0.000193627 0.000302762 -0.015917 0.000748033 0.00118634 
-0.0350543 0.00162351 0.00261368 -0.0609691 0.00278033 0.00454773 -0.0931557 0.0041788 0.00695142 
-0.131108 0.0057792 0.00978769 -0.174319 0.00754182 0.0130195 -0.222284 0.00942694 0.0166098 
-0.274496 0.0113949 0.0205215 -0.33045 0.0134059 0.0247175 -0.389639 0.0154202 0.0291609 
-0.451557 0.0173982 0.0338145 -0.515698 0.0193002 0.0386412 -0.581555 0.0210864 0.0436041 
-0.648624 0.0227171 0.0486661 -0.716398 0.0241527 0.05379 -0.78437 0.0253533 0.058939 
-0.852036 0.0262793 0.0640758 -0.918887 0.026891 0.0691634 -0.98442 0.0271486 0.0741649 
-1.04813 0.0270125 0.079043 -1.10963 0.0264532 0.083771 -1.169 0.025475 0.0883553 
-1.22637 0.0240893 0.0928093 -1.28189 0.0223072 0.0971464 -1.33572 0.0201401 0.10138 
-1.38799 0.0175992 0.105523 -1.43886 0.0146958 0.10959 -1.48847 0.0114411 0.113593 
-1.53697 0.00784652 0.117546 -1.5845 0.00392323 0.121463 -1.63122 -0.000317469 0.125356 
-1.67727 -0.00486431 0.129239 -1.7228 -0.00970603 0.133126 -1.76796 -0.0148313 0.13703 
-1.81289 -0.020229 0.140964 -1.85774 -0.0258877 0.144941 -1.90266 -0.0317962 0.148976 
-1.9478 -0.0379432 0.15308 -1.99329 -0.0443174 0.157269 -2.03929 -0.0509084 0.161554 
-2.08583 -0.0577165 0.165941 -2.13287 -0.0647497 0.170431 -2.18036 -0.072016 0.175025 
-2.22827 -0.0795237 0.179722 -2.27656 -0.0872808 0.184524 -2.32518 -0.0952957 0.18943 
-2.3741 -0.103576 0.194441 -2.42327 -0.112131 0.199558 -2.47266 -0.120967 0.204781 
-2.52222 -0.130094 0.21011 -2.57191 -0.13952 0.215547 -2.62169 -0.149251 0.221091 
-2.67152 -0.159298 0.226743 -2.72136 -0.169667 0.232503 -2.77117 -0.180367 0.238373 
-2.82091 -0.191407 0.244351 -2.87053 -0.202793 0.25044 -2.92001 -0.214535 0.256638 
-2.96929 -0.226641 0.262948 -3.01833 -0.239118 0.269368 -3.06711 -0.251973 0.275901 
-3.11563 -0.265203 0.28255 -3.16389 -0.278808 0.289318 -3.2119 -0.292783 0.296209 
-3.25967 -0.307128 0.303227 -3.3072 -0.321838 0.310375 -3.3545 -0.336913 0.317657 
-3.40157 -0.35235 0.325076 -3.44843 -0.368146 0.332637 -3.49507 -0.3843 0.340342 
-3.54151 -0.400807 0.348196 -3.58775 -0.417667 0.356201 -3.63379 -0.434877 0.364363 
-3.67965 -0.452434 0.372683 -3.72533 -0.470337 0.381167 -3.77083 -0.488582 0.389817 
-3.81617 -0.507168 0.398637 -3.86134 -0.526091 0.407631 -3.90636 -0.54535 0.416803 
-3.95122 -0.564942 0.426155 -3.99595 -0.584865 0.435692 -4.04053 -0.605115 0.445415 
-4.08495 -0.625689 0.455323 -4.12922 -0.646582 0.465418 -4.17333 -0.667791 0.475701 
-4.21727 -0.689312 0.486171 -4.26105 -0.711141 0.49683 -4.30464 -0.733275 0.507678 
-4.34806 -0.755709 0.518715 -4.39129 -0.778441 0.529943 -4.43433 -0.801465 0.541361 
-4.47718 -0.824779 0.55297 -4.51983 -0.848379 0.564771 -4.56227 -0.87226 0.576765 
-4.6045 -0.896419 0.588951 -4.64652 -0.920852 0.601331 -4.68832 -0.945556 0.613905 
-4.7299 -0.970527 0.626673 -4.77125 -0.99576 0.639637 -4.81236 -1.02125 0.652796 
-4.85324 -1.047 0.666152 -4.89388 -1.073 0.679703 -4.93428 -1.09924 0.693448 
-4.97445 -1.12572 0.707385 -5.01439 -1.15243 0.721512 -5.05411 -1.17937 0.735828 
-5.09359 -1.20653 0.750331 -5.13286 -1.2339 0.765019 -5.17191 -1.26148 0.77989 
-5.21073 -1.28926 0.794944 -5.24935 -1.31724 0.810178 -5.28775 -1.34541 0.82559 
-5.32595 -1.37377 0.841179 -5.36393 -1.4023 0.856943 -5.40172 -1.431 0.87288 
-5.4393 -1.45987 0.888989 -5.47669 -1.4889 0.905268 -5.51388 -1.51808 0.921715 
-5.55088 -1.54742 0.938329 -5.58769 -1.57689 0.955108 -5.62431 -1.6065 0.97205 
-5.66074 -1.63624 0.989153 -5.69699 -1.66611 1.00642 -5.73307 -1.6961 1.02384 
-5.76897 -1.72621 1.04141 -5.8047 -1.75643 1.05914 -5.84027 -1.78676 1.07702 
-5.87566 -1.8172 1.09504 -5.9109 -1.84773 1.11322 -5.94598 -1.87837 1.13153 
-5.98091 -1.90909 1.14999 -6.01568 -1.93991 1.16859 -6.05031 -1.97081 1.18733 
-6.08479 -2.00179 1.20621 -6.11913 -2.03284 1.22522 -6.15333 -2.06397 1.24436 
-6.1874 -2.09516 1.26363 -6.22134 -2.12642 1.28303 -6.25515 -2.15773 1.30255 
-6.28883 -2.1891 1.3222 -6.3224 -2.22052 1.34196 -6.35584 -2.25199 1.36185 
-6.38918 -2.28349 1.38186 -6.4224 -2.31504 1.40198 -6.45551 -2.34663 1.42221 
-6.48852 -2.37825 1.44255 -6.52143 -2.40991 1.46301 -6.55425 -2.4416 1.48357 
-6.58697 -2.47331 1.50423 -6.6196 -2.50505 1.525 -6.65214 -2.53681 1.54588 
-6.6846 -2.56858 1.56685 -6.71698 -2.60038 1.58792 -6.74928 -2.63219 1.60908 
-6.78152 -2.66401 1.63034 -6.81368 -2.69584 1.65169 -6.84578 -2.72767 1.67313 
-6.87781 -2.75951 1.69466 -6.90979 -2.79135 1.71627 -6.94171 -2.82319 1.73797 
-6.97358 -2.85502 1.75974 -7.0054 -2.88685 1.7816 -7.03718 -2.91866 1.80354 
-7.06891 -2.95047 1.82555 -7.1006 -2.98226 1.84764 -7.13226 -3.01404 1.86979 
-7.16388 -3.04581 1.89201 -7.19548 -3.07756 1.9143 -7.22704 -3.10929 1.93666 
-7.25859 -3.14101 1.95907 -7.29011 -3.1727 1.98154 -7.32161 -3.20438 2.00407 
-7.35309 -3.23603 2.02665 -7.38456 -3.26765 2.04929 -7.41603 -3.29925 2.07197 
-7.44748 -3.33083 2.0947 -7.47894 -3.36237 2.11748 -7.51039 -3.39388 2.14029 
-7.54184 -3.42537 2.16315 -7.5733 -3.45682 2.18605 -7.60477 -3.48824 2.20898 
-7.63624 -3.51962 2.23194 -7.66773 -3.55096 2.25493 -7.69924 -3.58227 2.27795 
-7.73077 -3.61354 2.301 -7.76231 -3.64478 2.32407 -7.79389 -3.67597 2.34715 
-7.82548 -3.70712 2.37026 -7.85711 -3.73824 2.39338 -7.88876 -3.76931 2.41651 
-7.92045 -3.80035 2.43966 -7.95218 -3.83134 2.46281 -7.98394 -3.86228 2.48596 
-8.01575 -3.89319 2.50912 -8.0476 -3.92405 2.53228 -8.07949 -3.95487 2.55543 
-8.11143 -3.98564 2.57858 -8.14343 -4.01637 2.60172 -8.17548 -4.04705 2.62485 
-8.20758 -4.07768 2.64797 -8.23974 -4.10827 2.67107 -8.27196 -4.1388 2.69415 
-8.30425 -4.16929 2.71721 -8.3366 -4.19974 2.74025 -8.36902 -4.23013 2.76325 
-8.40152 -4.26047 2.78621 -8.43409 -4.29076 2.80913 -8.46674 -4.32101 2.83201 
-8.49947 -4.3512 2.85482 -8.53229 -4.38135 2.87758 -8.5652 -4.41144 2.90028 
-8.5982 -4.44149 2.9229 -8.6313 -4.47148 2.94545 -8.6645 -4.50143 2.96792 
-8.6978 -4.53132 2.9903 -8.7312 -4.56116 3.01259 -8.76471 -4.59096 3.03478 
-8.79834 -4.6207 3.05687 -8.83207 -4.65039 3.07886 -8.86593 -4.68002 3.10072 
-8.89991 -4.70961 3.12247 -8.93401 -4.73915 3.1441 -8.96824 -4.76863 3.16559 
-9.0026 -4.79806 3.18696 -9.0371 -4.82743 3.20817 -9.07172 -4.85676 3.22925 
-9.10649 -4.88603 3.25017 -9.1414 -4.91524 3.27093 -9.17646 -4.9444 3.29153 
-9.21166 -4.97351 3.31196 -9.24701 -5.00256 3.33221 -9.28251 -5.03155 3.35229 
-9.31816 -5.06048 3.37217 -9.35398 -5.08936 3.39187 -9.38995 -5.11818 3.41137 
-9.42608 -5.14694 3.43066 -9.46239 -5.17565 3.44975 -9.49886 -5.20429 3.46862 
-9.5355 -5.23287 3.48726 -9.57231 -5.26139 3.50569 -9.6093 -5.28986 3.52388 
-9.64647 -5.31826 3.54183 -9.68382 -5.34659 3.55954 -9.72136 -5.37487 3.57698 
-9.7591 -5.40307 3.5941 -9.79706 -5.43119 3.61086 -9.83525 -5.45923 3.62722 
-9.87367 -5.48719 3.64315 -9.91235 -5.51505 3.65859 -9.9513 -5.54281 3.6735 
-9.99052 -5.57047 3.68785 -10.03 -5.59802 3.7016 -10.0698 -5.62546 3.71469 
-10.11 -5.65278 3.72709 -10.1504 -5.67997 3.73875 -10.1912 -5.70703 3.74964 
-10.2324 -5.73395 3.75972 -10.2739 -5.76073 3.76893 -10.3158 -5.78737 3.77724 
-10.3581 -5.81385 3.78461 -10.4007 -5.84018 3.791 -10.4438 -5.86634 3.79635 
-10.4873 -5.89233 3.80064 -10.5313 -5.91814 3.80383 -10.5755 -5.94373 3.80587 
-10.6201 -5.9691 3.80674 -10.6649 -5.99419 3.80641 -10.7098 -6.019 3.80484 
-10.7549 -6.04348 3.802 -10.8 -6.06762 3.79785 -10.8451 -6.09139 3.79238 
-10.8901 -6.11475 3.78553 -10.9349 -6.13769 3.77729 -10.9796 -6.16017 3.76762 
-11.024 -6.18217 3.75648 -11.068 -6.20366 3.74384 -11.1117 -6.22462 3.72967 
-11.155 -6.24501 3.71394 -11.1977 -6.26481 3.69662 -11.2398 -6.28399 3.67766 
-11.2814 -6.30253 3.65705 -11.3222 -6.32039 3.63475 -11.3623 -6.33755 3.61072 
-11.4016 -6.35401 3.58497 -11.4401 -6.36978 3.55758 -11.4778 -6.38489 3.5286 
-11.5147 -6.39937 3.49812 -11.5507 -6.41323 3.46621 -11.586 -6.42651 3.43293 
-11.6204 -6.43922 3.39836 -11.654 -6.45139 3.36257 -11.6867 -6.46305 3.32563 
-11.7186 -6.47421 3.28761 -11.7497 -6.48491 3.24859 -11.7799 -6.49517 3.20864 
-11.8092 -6.50501 3.16783 -11.8377 -6.51446 3.12622 -11.8653 -6.52354 3.0839 
-11.892 -6.53227 3.04093 -11.9178 -6.54068 2.99739 -11.9428 -6.54879 2.95334 
-11.9669 -6.55664 2.90886 -11.99 -6.56423 2.86403 -12.0123 -6.5716 2.81889 
-12.0337 -6.57876 2.77346 -12.0542 -6.58572 2.72776 -12.0739 -6.5925 2.6818 
-12.0928 -6.59911 2.63558 -12.1109 -6.60558 2.58912 -12.1283 -6.6119 2.54243 
-12.1449 -6.6181 2.49552 -12.1607 -6.6242 2.44839 -12.1759 -6.63019 2.40106 
-12.1905 -6.63611 2.35354 -12.2043 -6.64197 2.30585 -12.2176 -6.64777 2.25798 
-12.2302 -6.65354 2.20995 -12.2423 -6.65929 2.16178 -12.2538 -6.66503 2.11346 
-12.2648 -6.67077 2.06502 -12.2752 -6.67654 2.01646 -12.2852 -6.68235 1.9678 
-12.2947 -6.68821 1.91903 -12.3038 -6.69413 1.87019 -12.3124 -6.70012 1.82126 
-12.3206 -6.70619 1.77226 -12.3283 -6.71235 1.72319 -12.3357 -6.71858 1.67405 
-12.3426 -6.72491 1.62486 -12.349 -6.73133 1.57561 -12.3551 -6.73785 1.52632 
-12.3607 -6.74447 1.47698 -12.3659 -6.7512 1.42761 -12.3707 -6.75805 1.37821 
-12.3751 -6.76501 1.32878 -12.3791 -6.77209 1.27932 -12.3826 -6.7793 1.22986 
-12.3858 -6.78663 1.18038 -12.3885 -6.79411 1.1309 -12.3908 -6.80172 1.08142 
-12.3928 -6.80948 1.03194 -12.3943 -6.81738 0.982475 -12.3954 -6.82544 0.933026 
-12.3962 -6.83365 0.883599 -12.3965 -6.84203 0.834198 -12.3965 -6.85057 0.784828 
-12.3961 -6.85928 0.735492 -12.3953 -6.86817 0.686195 -12.3941 -6.87723 0.636941 
-12.3925 -6.88648 0.587734 -12.3905 -6.89591 0.538578 -12.3882 -6.90553 0.489477 
-12.3855 -6.91534 0.440436 -12.3824 -6.92535 0.391457 -12.3789 -6.93557 0.342547 
-12.3751 -6.94599 0.293708 -12.3709 -6.95662 0.244945 -12.3663 -6.96746 0.196262 
-12.3614 -6.97853 0.147663 -12.3561 -6.98981 0.0991518 -12.3505 -7.00132 0.0507331 
-12.3445 -7.01307 0.00241076 -12.3381 -7.02504 -0.045811 -12.3314 -7.03726 -0.0939282 
-12.3243 -7.04971 -0.141936 -12.3169 -7.06241 -0.18983 -12.3092 -7.07536 -0.237603 
[...]
CELL_DATA 1
FIELD FieldData 2
Length 1 1 double
63.891996297 
Tortuosity 1 1 double
0.65175169787 
POINT_DATA 1278
SCALARS MaximumInscribedSphereRadius float
LOOKUP_TABLE default
1.24 1.24 1.24 1.24 1.24 1.24 1.24 1.24 1.24 
1.24 1.24 1.24 1.24 1.24 1.24 1.24 1.24 1.24 
1.24 1.24 1.24 1.24009 1.24145 1.2428 1.24416 1.24552 1.24687 
1.24823 1.24959 1.25094 1.2523 1.25366 1.25501 1.25637 1.25773 1.25908 
1.26044 1.2618 1.26315 1.26451 1.26587 1.27031 1.27657 1.28284 1.28911 
1.29537 1.30164 1.30791 1.31417 1.32044 1.32671 1.33297 1.33924 1.34551 
1.35177 1.35804 1.36431 1.37057 1.37684 1.38311 1.38937 1.39599 1.4048 
1.41361 1.42242 1.43124 1.44005 1.44886 1.45767 1.46648 1.47529 1.4841 
1.49291 1.50172 1.51054 1.51935 1.52816 1.53697 1.54578 1.55459 1.5634 
1.57221 1.58098 1.58973 1.59849 1.60725 1.616 1.62476 1.63352 1.64227 
1.65103 1.65979 1.66854 1.6773 1.68606 1.69481 1.70357 1.71233 1.72109 
1.72984 1.7386 1.74736 1.75194 1.754 1.75606 1.75812 1.76018 1.76224 
1.7643 1.76636 1.76842 1.77049 1.77255 1.77461 1.77667 1.77873 1.78079 
1.78285 1.78491 1.78697 1.78904 1.7911 1.78978 1.78215 1.77452 1.76689 
1.75926 1.75162 1.74399 1.73636 1.72873 1.7211 1.71347 1.70584 1.6982 
1.69057 1.68294 1.67531 1.66768 1.66005 1.65242 1.64478 1.6384 1.64851 
1.65862 1.66872 1.67883 1.68894 1.69904 1.70915 1.71926 1.72937 1.73947 
1.74958 1.75969 1.76979 1.7799 1.79001 1.80012 1.81022 1.82033 1.83044 
1.84055 1.85623 1.87339 1.89055 1.90771 1.92487 1.94202 1.95918 1.97634 
1.9935 2.01066 2.02782 2.04498 2.06214 2.0793 2.09646 2.11362 2.13077 
2.14793 2.16509 2.18225 2.18642 2.17813 2.16983 2.16154 2.15325 2.14496 
2.13667 2.12838 2.12009 2.1118 2.1035 2.09521 2.08692 2.07863 2.07034 
2.06205 2.05376 2.04547 2.03717 2.02888 2.01704 1.9933 1.96956 1.94583 
1.92209 1.89835 1.87462 1.85088 1.82714 1.80341 1.77967 1.75593 1.7322 
1.70846 1.68473 1.66099 1.63725 1.61352 1.58978 1.56604 1.54231 1.53738 
1.53341 1.52943 1.52546 1.52149 1.51752 1.51354 1.50957 1.5056 1.50163 
1.49766 1.49368 1.48971 1.48574 1.48177 1.47779 1.47382 1.46985 1.46588 
1.4619 1.46405 1.46919 1.47433 1.47947 1.4846 1.48974 1.49488 1.50002 
1.50515 1.51029 1.51543 1.52057 1.5257 1.53084 1.53598 1.54112 1.54625 
1.55139 1.55653 1.56167 1.56698 1.57255 1.57812 1.58368 1.58925 1.59482 
1.60039 1.60596 1.61153 1.61709 1.62266 1.62823 1.6338 1.63937 1.64494 
1.6505 1.65607 1.66164 1.66721 1.67278 1.67881 1.68573 1.69265 1.69957 
1.70649 1.71341 1.72033 1.72725 1.73417 1.74109 1.74801 1.75494 1.76186 
1.76878 1.7757 1.78262 1.78954 1.79646 1.80338 1.8103 1.81663 1.81878 
1.82093 1.82308 1.82524 1.82739 1.82954 1.83169 1.83385 1.836 1.83815 
1.8403 1.84246 1.84461 1.84676 1.84891 1.85106 1.85322 1.85537 1.85752 
1.85967 1.8584 1.85651 1.85462 1.85273 1.85084 1.84895 1.84706 1.84517 
1.84328 1.84139 1.8395 1.83761 1.83572 1.83383 1.83194 1.83005 1.82816 
1.82627 1.82438 1.82249 1.81676 1.80823 1.7997 1.79117 1.78264 1.77411 
1.76558 1.75705 1.74853 1.74 1.73147 1.72294 1.71441 1.70588 1.69735 
1.68882 1.6803 1.67177 1.66324 1.65471 1.64958 1.6521 1.65463 1.65716 
1.65968 1.66221 1.66474 1.66726 1.66979 1.67232 1.67484 1.67737 1.6799 
1.68243 1.68495 1.68748 1.69001 1.69253 1.69506 1.69759 1.70063 1.71709 
1.73356 1.75002 1.76648 1.78295 1.79941 1.81587 1.83234 1.8488 1.86526 
1.88173 1.89819 1.91466 1.93112 1.94758 1.96405 1.98051 1.99697 2.01344 
2.0299 2.03537 2.03754 2.03972 2.0419 2.04408 2.04626 2.04844 2.05061 
2.05279 2.05497 2.05715 2.05933 2.06151 2.06368 2.06586 2.06804 2.07022 
2.0724 2.07457 2.07675 2.0747 2.06851 2.06233 2.05614 2.04995 2.04376 
2.03758 2.03139 2.0252 2.01901 2.01283 2.00664 2.00045 1.99426 1.98808 
1.98189 1.9757 1.96951 1.96333 1.95714 1.95317 1.95621 1.95925 1.96229 
1.96533 1.96837 1.97141 1.97445 1.97749 1.98054 1.98358 1.98662 1.98966 
1.9927 1.99574 1.99878 2.00182 2.00486 2.0079 2.01094 2.01398 2.02349 
2.03315 2.04281 2.05247 2.06213 2.07179 2.08145 2.09111 2.10077 2.11043 
2.12009 2.12975 2.13941 2.14907 2.15873 2.16839 2.17805 2.18771 2.19737 
2.20703 2.22109 2.23691 2.25273 2.26854 2.28436 2.30018 2.316 2.33182 
2.34764 2.36345 2.37927 2.39509 2.41091 2.42673 2.44254 2.45836 2.47418 
2.49 2.50582 2.52163 2.5337 2.5413 2.5489 2.5565 2.5641 2.57171 
2.57931 2.58691 2.59451 2.60211 2.60971 2.61732 2.62492 2.63252 2.64012 
2.64772 2.65533 2.66293 2.67053 2.67813 2.68043 2.6621 2.64376 2.62543 
2.60709 2.58876 2.57042 2.55209 2.53375 2.51542 2.49708 2.47875 2.46041 
2.44208 2.42375 2.40541 2.38708 2.36874 2.35041 2.33207 2.31374 2.30074 
2.28801 2.27528 2.26256 2.24983 2.2371 2.22437 2.21165 2.19892 2.18619 
2.17347 2.16074 2.14801 2.13529 2.12256 2.10983 2.09711 2.08438 2.07165 
2.05893 2.04898 2.04032 2.03166 2.023 2.01434 2.00568 1.99701 1.98835 
1.97969 1.97103 1.96237 1.95371 1.94505 1.93639 1.92773 1.91907 1.91041 
1.90175 1.89309 1.88443 1.87915 1.87879 1.87844 1.87808 1.87772 1.87736 
1.877 1.87664 1.87628 1.87592 1.87556 1.8752 1.87485 1.87449 1.87413 
1.87377 1.87341 1.87305 1.87269 1.87233 1.87253 1.87646 1.8804 1.88433 
1.88827 1.89221 1.89614 1.90008 1.90401 1.90795 1.91188 1.91582 1.91975 
1.92369 1.92762 1.93156 1.93549 1.93943 1.94337 1.9473 1.95124 1.96336 
1.97694 1.99051 2.00409 2.01767 2.03124 2.04482 2.0584 2.07197 2.08555 
2.09913 2.11271 2.12628 2.13986 2.15344 2.16701 2.18059 2.19417 2.20775 
2.22132 2.23223 2.24111 2.25 2.25889 2.26778 2.27666 2.28555 2.29444 
2.30333 2.31221 2.3211 2.32999 2.33888 2.34776 2.35665 2.36554 2.37443 
2.38331 2.3922 2.40109 2.40523 2.398 2.39076 2.38353 2.3763 2.36906 
2.36183 2.3546 2.34736 2.34013 2.3329 2.32566 2.31843 2.3112 2.30396 
2.29673 2.28949 2.28226 2.27503 2.26779 2.26063 2.25655 2.25247 2.24839 
2.24431 2.24023 2.23615 2.23207 2.22799 2.22391 2.21983 2.21574 2.21166 
2.20758 2.2035 2.19942 2.19534 2.19126 2.18718 2.1831 2.17902 2.17776 
2.17741 2.17706 2.17672 2.17637 2.17602 2.17567 2.17533 2.17498 2.17463 
2.17428 2.17394 2.17359 2.17324 2.1729 2.17255 2.1722 2.17185 2.17151 
2.17116 2.16774 2.16107 2.15439 2.14772 2.14105 2.13438 2.1277 2.12103 
2.11436 2.10769 2.10102 2.09434 2.08767 2.081 2.07433 2.06765 2.06098 
2.05431 2.04764 2.04096 2.03393 2.0255 2.01708 2.00866 2.00024 1.99181 
1.98339 1.97497 1.96655 1.95813 1.9497 1.94128 1.93286 1.92444 1.91602 
1.90759 1.89917 1.89075 1.88233 1.87391 1.86548 1.86468 1.86444 1.8642 
1.86396 1.86372 1.86347 1.86323 1.86299 1.86275 1.86251 1.86226 1.86202 
1.86178 1.86154 1.86129 1.86105 1.86081 1.86057 1.86033 1.86008 1.8613 
1.86331 1.86531 1.86731 1.86931 1.87131 1.87331 1.87531 1.87731 1.87931 
1.88131 1.88331 1.88531 1.88731 1.88931 1.89131 1.89331 1.89532 1.89732 
1.89932 1.90307 1.90977 1.91647 1.92317 1.92987 1.93657 1.94327 1.94997 
1.95667 1.96337 1.97006 1.97676 1.98346 1.99016 1.99686 2.00356 2.01026 
2.01696 2.02366 2.03036 2.03706 2.04376 2.05047 2.05717 2.06388 2.07058 
2.07729 2.08399 2.0907 2.0974 2.10411 2.11082 2.11752 2.12423 2.13093 
2.13764 2.14434 2.15105 2.15775 2.16446 2.17116 2.17294 2.1736 2.17427 
2.17493 2.17559 2.17625 2.17692 2.17758 2.17824 2.17891 2.17957 2.18023 
2.18089 2.18156 2.18222 2.18288 2.18354 2.18421 2.18487 2.18553 2.18593 
2.1861 2.18627 2.18645 2.18662 2.18679 2.18696 2.18713 2.1873 2.18747 
2.18764 2.18781 2.18799 2.18816 2.18833 2.1885 2.18867 2.18884 2.18901 
2.18918 2.18914 2.18849 2.18785 2.1872 2.18655 2.18591 2.18526 2.18461 
2.18396 2.18332 2.18267 2.18202 2.18138 2.18073 2.18008 2.17944 2.17879 
2.17814 2.17749 2.17685 2.1762 2.18094 2.18575 2.19057 2.19539 2.20021 
2.20502 2.20984 2.21466 2.21948 2.22429 2.22911 2.23393 2.23875 2.24356 
2.24838 2.2532 2.25802 2.26283 2.26765 2.27247 2.28064 2.29019 2.29973 
2.30928 2.31883 2.32837 2.33792 2.34746 2.35701 2.36656 2.3761 2.38565 
2.3952 2.40474 2.41429 2.42383 2.43338 2.44293 2.45247 2.46202 2.47346 
2.48736 2.50127 2.51518 2.52909 2.54299 2.5569 2.57081 2.58472 2.59863 
2.61253 2.62644 2.64035 2.65426 2.66816 2.68207 2.69598 2.70989 2.7238 
2.7377 2.75131 2.76331 2.7753 2.7873 2.79929 2.81129 2.82328 2.83528 
2.84727 2.85927 2.87126 2.88326 2.89525 2.90725 2.91924 2.93124 2.94323 
2.95523 2.96722 2.97922 2.99121 2.98417 2.97448 2.96479 2.95509 2.9454 
2.93571 2.92601 2.91632 2.90663 2.89693 2.88724 2.87755 2.86785 2.85816 
2.84847 2.83878 2.82908 2.81939 2.8097 2.8 2.78753 2.77319 2.75885 
2.74451 2.73018 2.71584 2.7015 2.68716 2.67283 2.65849 2.64415 2.62981 
2.61548 2.60114 2.5868 2.57247 2.55813 2.54379 2.52945 2.51512 2.5051 
2.50422 2.50333 2.50244 2.50155 2.50066 2.49978 2.49889 2.498 2.49711 
2.49622 2.49533 2.49445 2.49356 2.49267 2.49178 2.49089 2.49001 2.48912 
2.48823 2.48724 2.48402 2.4808 2.47758 2.47435 2.47113 2.46791 2.46469 
2.46147 2.45825 2.45503 2.45181 2.44859 2.44536 2.44214 2.43892 2.4357 
2.43248 2.42926 2.42604 2.42282 2.41646 2.40913 2.4018 2.39447 2.38715 
2.37982 2.37249 2.36517 2.35784 2.35051 2.34319 2.33586 2.32853 2.3212 
2.31388 2.30655 2.29922 2.2919 2.28457 2.27724 2.27142 2.26717 2.26293 
2.25869 2.25444 2.2502 2.24595 2.24171 2.23746 2.23322 2.22897 2.22473 
2.22048 2.21624 2.21199 2.20775 2.2035 2.19926 2.19501 2.19077 2.1875 
2.18792 2.18834 2.18876 2.18919 2.18961 2.19003 2.19045 2.19088 2.1913 
2.19172 2.19214 2.19256 2.19299 2.19341 2.19383 2.19425 2.19467 2.1951 
2.19552 2.19594 2.20172 2.20788 2.21405 2.22021 2.22637 2.23254 2.2387 
2.24487 2.25103 2.2572 2.26336 2.26953 2.27569 2.28186 2.28802 2.29418 
2.30035 2.30651 2.31268 2.31884 2.32554 2.33252 2.33949 2.34646 2.35344 
2.36041 2.36739 2.37436 2.38134 2.38831 2.39529 2.40226 2.40924 2.41621 
2.42319 2.43016 2.43714 2.44411 2.45109 2.45806 2.46269 2.46356 2.46443 
2.4653 2.46617 2.46704 2.46791 2.46878 2.46966 2.47053 2.4714 2.47227 
2.47314 2.47401 2.47488 2.47575 2.47662 2.47749 2.47836 2.47923 2.48 
2.48 2.48 2.48 2.48 2.48 2.48 2.48 2.48 2.48 
2.48 2.48 2.48 2.48 2.48 2.48 2.48 2.48 2.48 
2.48 2.48 2.48 2.48 2.48 2.48 2.48 2.48 2.48 
2.48 2.48 2.48 2.48 2.48 2.48 2.48 2.48 2.48 
2.48 2.48 2.48 2.48 2.48 2.48 2.48 2.48 2.48 
2.48 2.48 2.48 2.48 2.48 2.48 2.48 2.48 2.48 
2.48 2.48 2.48 2.48 2.48 2.48 2.48 2.48 2.48 
2.48 2.48 2.48 2.48 2.48 2.48 2.48 2.48 2.48 
2.48 2.48 2.48 2.48 2.48 2.48 2.48 2.48 2.48 

TEXTURE_COORDINATES TCoords 2 float
0 0 0.000783085 0 0.00156617 0 0.00234926 0 0.00313234 
0 0.00391543 0 0.00469851 0 0.0054816 0 0.00626468 0 
0.00704777 0 0.00783085 0 0.00861394 0 0.00939702 0 0.0101801 
0 0.0109632 0 0.0117463 0 0.0125294 0 0.0133125 0 
0.0140955 0 0.0148786 0 0.0156617 0 0.0164448 0 0.0172279 
0 0.018011 0 0.018794 0 0.0195771 0 0.0203602 0 
0.0211433 0 0.0219264 0 0.0227095 0 0.0234926 0 0.0242756 
0 0.0250587 0 0.0258418 0 0.0266249 0 0.027408 0 
0.0281911 0 0.0289742 0 0.0297572 0 0.0305403 0 0.0313234 
0 0.0321065 0 0.0328896 0 0.0336727 0 0.0344558 0 
0.0352388 0 0.0360219 0 0.036805 0 0.0375881 0 0.0383712 
0 0.0391543 0 0.0399374 0 0.0407204 0 0.0415035 0 
0.0422866 0 0.0430697 0 0.0438528 0 0.0446359 0 0.045419 
0 0.046202 0 0.0469851 0 0.0477682 0 0.0485513 0 
0.0493344 0 0.0501175 0 0.0509005 0 0.0516836 0 0.0524667 
0 0.0532498 0 0.0540329 0 0.054816 0 0.0555991 0 
0.0563821 0 0.0571652 0 0.0579483 0 0.0587314 0 0.0595145 
0 0.0602976 0 0.0610807 0 0.0618637 0 0.0626468 0 
0.0634299 0 0.064213 0 0.0649961 0 0.0657792 0 0.0665623 
0 0.0673453 0 0.0681284 0 0.0689115 0 0.0696946 0 
0.0704777 0 0.0712608 0 0.0720439 0 0.0728269 0 0.07361 
0 0.0743931 0 0.0751762 0 0.0759593 0 0.0767424 0 
0.0775255 0 0.0783085 0 0.0790916 0 0.0798747 0 0.0806578 
0 0.0814409 0 0.082224 0 0.083007 0 0.0837901 0 
0.0845732 0 0.0853563 0 0.0861394 0 0.0869225 0 0.0877056 
0 0.0884886 0 0.0892717 0 0.0900548 0 0.0908379 0 
0.091621 0 0.0924041 0 0.0931872 0 0.0939702 0 0.0947533 
0 0.0955364 0 0.0963195 0 0.0971026 0 0.0978857 0 
0.0986688 0 0.0994518 0 0.100235 0 0.101018 0 0.101801 
0 0.102584 0 0.103367 0 0.10415 0 0.104933 0 
0.105717 0 0.1065 0 0.107283 0 0.108066 0 0.108849 
0 0.109632 0 0.110415 0 0.111198 0 0.111981 0 
0.112764 0 0.113547 0 0.11433 0 0.115114 0 0.115897 
0 0.11668 0 0.117463 0 0.118246 0 0.119029 0 
0.119812 0 0.120595 0 0.121378 0 0.122161 0 0.122944 
0 0.123727 0 0.124511 0 0.125294 0 0.126077 0 
0.12686 0 0.127643 0 0.128426 0 0.129209 0 0.129992 
0 0.130775 0 0.131558 0 0.132341 0 0.133125 0 
0.133908 0 0.134691 0 0.135474 0 0.136257 0 0.13704 
0 0.137823 0 0.138606 0 0.139389 0 0.140172 0 
0.140955 0 0.141738 0 0.142522 0 0.143305 0 0.144088 
0 0.144871 0 0.145654 0 0.146437 0 0.14722 0 
0.148003 0 0.148786 0 0.149569 0 0.150352 0 0.151135 
0 0.151919 0 0.152702 0 0.153485 0 0.154268 0 
0.155051 0 0.155834 0 0.156617 0 0.1574 0 0.158183 
0 0.158966 0 0.159749 0 0.160533 0 0.161316 0 
0.162099 0 0.162882 0 0.163665 0 0.164448 0 0.165231 
0 0.166014 0 0.166797 0 0.16758 0 0.168363 0 
0.169146 0 0.16993 0 0.170713 0 0.171496 0 0.172279 
0 0.173062 0 0.173845 0 0.174628 0 0.175411 0 
0.176194 0 0.176977 0 0.17776 0 0.178543 0 0.179327 
0 0.18011 0 0.180893 0 0.181676 0 0.182459 0 
0.183242 0 0.184025 0 0.184808 0 0.185591 0 0.186374 
0 0.187157 0 0.18794 0 0.188724 0 0.189507 0 
0.19029 0 0.191073 0 0.191856 0 0.192639 0 0.193422 
0 0.194205 0 0.194988 0 0.195771 0 0.196554 0 
0.197338 0 0.198121 0 0.198904 0 0.199687 0 0.20047 
0 0.201253 0 0.202036 0 0.202819 0 0.203602 0 
0.204385 0 0.205168 0 0.205951 0 0.206735 0 0.207518 
0 0.208301 0 0.209084 0 0.209867 0 0.21065 0 
0.211433 0 0.212216 0 0.212999 0 0.213782 0 0.214565 
0 0.215348 0 0.216132 0 0.216915 0 0.217698 0 
0.218481 0 0.219264 0 0.220047 0 0.22083 0 0.221613 
0 0.222396 0 0.223179 0 0.223962 0 0.224745 0 
0.225529 0 0.226312 0 0.227095 0 0.227878 0 0.228661 
0 0.229444 0 0.230227 0 0.23101 0 0.231793 0 
0.232576 0 0.233359 0 0.234143 0 0.234926 0 0.235709 
0 0.236492 0 0.237275 0 0.238058 0 0.238841 0 
0.239624 0 0.240407 0 0.24119 0 0.241973 0 0.242756 
0 0.24354 0 0.244323 0 0.245106 0 0.245889 0 
0.246672 0 0.247455 0 0.248238 0 0.249021 0 0.249804 
0 0.250587 0 0.25137 0 0.252153 0 0.252937 0 
0.25372 0 0.254503 0 0.255286 0 0.256069 0 0.256852 
0 0.257635 0 0.258418 0 0.259201 0 0.259984 0 
0.260767 0 0.261551 0 0.262334 0 0.263117 0 0.2639 
0 0.264683 0 0.265466 0 0.266249 0 0.267032 0 
0.267815 0 0.268598 0 0.269381 0 0.270164 0 0.270948 
0 0.271731 0 0.272514 0 0.273297 0 0.27408 0 
0.274863 0 0.275646 0 0.276429 0 0.277212 0 0.277995 
0 0.278778 0 0.279561 0 0.280345 0 0.281128 0 
0.281911 0 0.282694 0 0.283477 0 0.28426 0 0.285043 
0 0.285826 0 0.286609 0 0.287392 0 0.288175 0 
0.288958 0 0.289742 0 0.290525 0 0.291308 0 0.292091 
0 0.292874 0 0.293657 0 0.29444 0 0.295223 0 
0.296006 0 0.296789 0 0.297572 0 0.298356 0 0.299139 
0 0.299922 0 0.300705 0 0.301488 0 0.302271 0 
0.303054 0 0.303837 0 0.30462 0 0.305403 0 0.306186 
0 0.306969 0 0.307753 0 0.308536 0 0.309319 0 
0.310102 0 0.310885 0 0.311668 0 0.312451 0 0.313234 
0 0.314017 0 0.3148 0 0.315583 0 0.316366 0 
0.31715 0 0.317933 0 0.318716 0 0.319499 0 0.320282 
0 0.321065 0 0.321848 0 0.322631 0 0.323414 0 
0.324197 0 0.32498 0 0.325763 0 0.326547 0 0.32733 
0 0.328113 0 0.328896 0 0.329679 0 0.330462 0 
0.331245 0 0.332028 0 0.332811 0 0.333594 0 0.334377 
0 0.335161 0 0.335944 0 0.336727 0 0.33751 0 
0.338293 0 0.339076 0 0.339859 0 0.340642 0 0.341425 
0 0.342208 0 0.342991 0 0.343774 0 0.344558 0 
0.345341 0 0.346124 0 0.346907 0 0.34769 0 0.348473 
0 0.349256 0 0.350039 0 0.350822 0 0.351605 0 
0.352388 0 0.353171 0 0.353955 0 0.354738 0 0.355521 
0 0.356304 0 0.357087 0 0.35787 0 0.358653 0 
0.359436 0 0.360219 0 0.361002 0 0.361785 0 0.362569 
0 0.363352 0 0.364135 0 0.364918 0 0.365701 0 
0.366484 0 0.367267 0 0.36805 0 0.368833 0 0.369616 
0 0.370399 0 0.371182 0 0.371966 0 0.372749 0 
0.373532 0 0.374315 0 0.375098 0 0.375881 0 0.376664 
0 0.377447 0 0.37823 0 0.379013 0 0.379796 0 
0.380579 0 0.381363 0 0.382146 0 0.382929 0 0.383712 
0 0.384495 0 0.385278 0 0.386061 0 0.386844 0 
0.387627 0 0.38841 0 0.389193 0 0.389977 0 0.39076 
0 0.391543 0 0.392326 0 0.393109 0 0.393892 0 
0.394675 0 0.395458 0 0.396241 0 0.397024 0 0.397807 
0 0.39859 0 0.399374 0 0.400157 0 0.40094 0 
0.401723 0 0.402506 0 0.403289 0 0.404072 0 0.404855 
0 0.405638 0 0.406421 0 0.407204 0 0.407987 0 
0.408771 0 0.409554 0 0.410337 0 0.41112 0 0.411903 
0 0.412686 0 0.413469 0 0.414252 0 0.415035 0 
0.415818 0 0.416601 0 0.417385 0 0.418168 0 0.418951 
0 0.419734 0 0.420517 0 0.4213 0 0.422083 0 
0.422866 0 0.423649 0 0.424432 0 0.425215 0 0.425998 
0 0.426782 0 0.427565 0 0.428348 0 0.429131 0 
0.429914 0 0.430697 0 0.43148 0 0.432263 0 0.433046 
0 0.433829 0 0.434612 0 0.435395 0 0.436179 0 
0.436962 0 0.437745 0 0.438528 0 0.439311 0 0.440094 
0 0.440877 0 0.44166 0 0.442443 0 0.443226 0 
0.444009 0 0.444792 0 0.445576 0 0.446359 0 0.447142 
0 0.447925 0 0.448708 0 0.449491 0 0.450274 0 
0.451057 0 0.45184 0 0.452623 0 0.453406 0 0.45419 
0 0.454973 0 0.455756 0 0.456539 0 0.457322 0 
0.458105 0 0.458888 0 0.459671 0 0.460454 0 0.461237 
0 0.46202 0 0.462803 0 0.463587 0 0.46437 0 
0.465153 0 0.465936 0 0.466719 0 0.467502 0 0.468285 
0 0.469068 0 0.469851 0 0.470634 0 0.471417 0 
0.4722 0 0.472984 0 0.473767 0 0.47455 0 0.475333 
0 0.476116 0 0.476899 0 0.477682 0 0.478465 0 
0.479248 0 0.480031 0 0.480814 0 0.481597 0 0.482381 
0 0.483164 0 0.483947 0 0.48473 0 0.485513 0 
0.486296 0 0.487079 0 0.487862 0 0.488645 0 0.489428 
0 0.490211 0 0.490995 0 0.491778 0 0.492561 0 
0.493344 0 0.494127 0 0.49491 0 0.495693 0 0.496476 
0 0.497259 0 0.498042 0 0.498825 0 0.499608 0 
0.500392 0 0.501175 0 0.501958 0 0.502741 0 0.503524 
0 0.504307 0 0.50509 0 0.505873 0 0.506656 0 
0.507439 0 0.508222 0 0.509005 0 0.509789 0 0.510572 
0 0.511355 0 0.512138 0 0.512921 0 0.513704 0 
0.514487 0 0.51527 0 0.516053 0 0.516836 0 0.517619 
0 0.518403 0 0.519186 0 0.519969 0 0.520752 0 
0.521535 0 0.522318 0 0.523101 0 0.523884 0 0.524667 
0 0.52545 0 0.526233 0 0.527016 0 0.5278 0 
0.528583 0 0.529366 0 0.530149 0 0.530932 0 0.531715 
0 0.532498 0 0.533281 0 0.534064 0 0.534847 0 
0.53563 0 0.536413 0 0.537197 0 0.53798 0 0.538763 
0 0.539546 0 0.540329 0 0.541112 0 0.541895 0 
0.542678 0 0.543461 0 0.544244 0 0.545027 0 0.545811 
0 0.546594 0 0.547377 0 0.54816 0 0.548943 0 
0.549726 0 0.550509 0 0.551292 0 0.552075 0 0.552858 
0 0.553641 0 0.554424 0 0.555207 0 0.555991 0 
0.556774 0 0.557557 0 0.55834 0 0.559123 0 0.559906 
0 0.560689 0 0.561472 0 0.562255 0 0.563038 0 
0.563821 0 0.564605 0 0.565388 0 0.566171 0 0.566954 
0 0.567737 0 0.56852 0 0.569303 0 0.570086 0 
0.570869 0 0.571652 0 0.572435 0 0.573218 0 0.574002 
0 0.574785 0 0.575568 0 0.576351 0 0.577134 0 
0.577917 0 0.5787 0 0.579483 0 0.580266 0 0.581049 
0 0.581832 0 0.582615 0 0.583399 0 0.584182 0 
0.584965 0 0.585748 0 0.586531 0 0.587314 0 0.588097 
0 0.58888 0 0.589663 0 0.590446 0 0.591229 0 
0.592013 0 0.592796 0 0.593579 0 0.594362 0 0.595145 
0 0.595928 0 0.596711 0 0.597494 0 0.598277 0 
0.59906 0 0.599843 0 0.600626 0 0.60141 0 0.602193 
0 0.602976 0 0.603759 0 0.604542 0 0.605325 0 
0.606108 0 0.606891 0 0.607674 0 0.608457 0 0.60924 
0 0.610023 0 0.610807 0 0.61159 0 0.612373 0 
0.613156 0 0.613939 0 0.614722 0 0.615505 0 0.616288 
0 0.617071 0 0.617854 0 0.618637 0 0.619421 0 
0.620204 0 0.620987 0 0.62177 0 0.622553 0 0.623336 
0 0.624119 0 0.624902 0 0.625685 0 0.626468 0 
0.627251 0 0.628034 0 0.628818 0 0.629601 0 0.630384 
0 0.631167 0 0.63195 0 0.632733 0 0.633516 0 
0.634299 0 0.635082 0 0.635865 0 0.636648 0 0.637432 
0 0.638215 0 0.638998 0 0.639781 0 0.640564 0 
0.641347 0 0.64213 0 0.642913 0 0.643696 0 0.644479 
0 0.645262 0 0.646045 0 0.646829 0 0.647612 0 
0.648395 0 0.649178 0 0.649961 0 0.650744 0 0.651527 
0 0.65231 0 0.653093 0 0.653876 0 0.654659 0 
0.655442 0 0.656226 0 0.657009 0 0.657792 0 0.658575 
0 0.659358 0 0.660141 0 0.660924 0 0.661707 0 
0.66249 0 0.663273 0 0.664056 0 0.664839 0 0.665623 
0 0.666406 0 0.667189 0 0.667972 0 0.668755 0 
0.669538 0 0.670321 0 0.671104 0 0.671887 0 0.67267 
0 0.673453 0 0.674236 0 0.67502 0 0.675803 0 
0.676586 0 0.677369 0 0.678152 0 0.678935 0 0.679718 
0 0.680501 0 0.681284 0 0.682067 0 0.68285 0 