# vtk DataFile Version 4.2
vtk output
ASCII
DATASET POLYDATA
POINTS 1278 float
0 0 0 -0.00397616 -0.000997681 0.000184465 -0.015574 -0.0038907 0.000741781 
-0.0342973 -0.00852903 0.00167783 -0.0596503 -0.0147626 0.0029985 -0.0911368 -0.0224415 0.00470967 
-0.128261 -0.0314156 0.00681721 -0.170526 -0.0415348 0.00932703 -0.217437 -0.0526492 0.012245 
-0.268497 -0.0646088 0.015577 -0.323211 -0.0772634 0.0193289 -0.381082 -0.0904631 0.0235066 
-0.441614 -0.104058 0.0281159 -0.504311 -0.117897 0.0331629 -0.568678 -0.131832 0.0386532 
-0.634217 -0.145712 0.0445929 -0.700434 -0.159386 0.0509878 -0.766832 -0.172706 0.0578438 
-0.832915 -0.18552 0.0651668 -0.898187 -0.197679 0.0729626 -0.962152 -0.209033 0.0812372 
-1.02431 -0.219431 0.0899963 -1.08431 -0.228768 0.0992414 -1.14221 -0.237071 0.10896 
-1.19815 -0.244393 0.119136 -1.25227 -0.250786 0.129755 -1.30472 -0.256305 0.140801 
-1.35563 -0.261001 0.152259 -1.40515 -0.264929 0.164114 -1.45341 -0.268141 0.17635 
-1.50057 -0.270691 0.188952 -1.54675 -0.272631 0.201904 -1.59211 -0.274014 0.215191 
-1.63679 -0.274894 0.228799 -1.68091 -0.275323 0.242711 -1.72464 -0.275355 0.256912 
-1.76811 -0.275043 0.271387 -1.81145 -0.27444 0.28612 -1.85482 -0.273599 0.301096 
-1.89836 -0.272573 0.316301 -1.94219 -0.271415 0.331718 -1.98647 -0.270175 0.347332 
-2.03123 -0.268871 0.363137 -2.07642 -0.267491 0.379131 -2.12203 -0.266026 0.395312 
-2.168 -0.264464 0.411679 -2.21431 -0.262796 0.428231 -2.26091 -0.261011 0.444966 
-2.30778 -0.259098 0.461882 -2.35486 -0.257047 0.478979 -2.40213 -0.254847 0.496255 
-2.44956 -0.252488 0.513709 -2.49709 -0.249959 0.531339 -2.54471 -0.24725 0.549143 
-2.59236 -0.24435 0.56712 -2.64001 -0.241249 0.58527 -2.68764 -0.237936 0.60359 
-2.73519 -0.234401 0.622078 -2.78263 -0.230632 0.640735 -2.82994 -0.226621 0.659558 
-2.87706 -0.222355 0.678545 -2.92397 -0.217825 0.697696 -2.97063 -0.213025 0.717007 
-3.01706 -0.207962 0.736472 -3.06327 -0.202646 0.756083 -3.10927 -0.197086 0.775834 
-3.15508 -0.191292 0.795716 -3.2007 -0.185275 0.815723 -3.24616 -0.179043 0.835847 
-3.29146 -0.172606 0.85608 -3.33661 -0.165974 0.876416 -3.38164 -0.159157 0.896847 
-3.42655 -0.152164 0.917365 -3.47135 -0.145005 0.937963 -3.51607 -0.137689 0.958634 
-3.56071 -0.130227 0.979371 -3.60528 -0.122628 1.00017 -3.6498 -0.114902 1.02101 
-3.69428 -0.107058 1.0419 -3.73873 -0.0991063 1.06282 -3.78317 -0.0910561 1.08378 
-3.82761 -0.0829174 1.10475 -3.87207 -0.0746989 1.12574 -3.91654 -0.0664047 1.14674 
-3.96102 -0.058037 1.16775 -4.00551 -0.049598 1.18876 -4.05002 -0.0410898 1.20977 
-4.09454 -0.0325147 1.23079 -4.13907 -0.0238749 1.2518 -4.18361 -0.0151725 1.2728 
-4.22817 -0.00640978 1.2938 -4.27273 0.00241111 1.31478 -4.3173 0.011288 1.33575 
-4.36188 0.0202186 1.3567 -4.40647 0.0292008 1.37763 -4.45107 0.0382323 1.39854 
-4.49568 0.0473111 1.41943 -4.54029 0.0564348 1.44028 -4.5849 0.0656013 1.46111 
-4.62953 0.0748084 1.4819 -4.67416 0.0840539 1.50265 -4.71879 0.0933356 1.52337 
-4.76343 0.102651 1.54404 -4.80807 0.111997 1.56467 -4.85272 0.12137 1.58525 
-4.89738 0.130765 1.60578 -4.94205 0.140179 1.62626 -4.98674 0.149606 1.64668 
-5.03145 0.159043 1.66704 -5.07618 0.168485 1.68734 -5.12094 0.177929 1.70757 
-5.16572 0.18737 1.72773 -5.21053 0.196805 1.74782 -5.25538 0.206228 1.76784 
-5.30026 0.215636 1.78777 -5.34517 0.225025 1.80763 -5.39013 0.23439 1.82741 
-5.43513 0.243727 1.84709 -5.48018 0.253032 1.86669 -5.52527 0.262301 1.8862 
-5.57042 0.27153 1.90561 -5.61562 0.280714 1.92492 -5.66088 0.28985 1.94413 
-5.70619 0.298932 1.96323 -5.75157 0.307958 1.98223 -5.79701 0.316922 2.00112 
-5.8425 0.32582 2.0199 -5.88807 0.334649 2.03856 -5.93369 0.343403 2.0571 
-5.97938 0.352078 2.07552 -6.02514 0.360671 2.09382 -6.07096 0.369176 2.112 
-6.11686 0.37759 2.13005 -6.16282 0.385909 2.14796 -6.20885 0.394127 2.16575 
-6.25496 0.402241 2.18339 -6.30113 0.410246 2.2009 -6.34738 0.418139 2.21827 
-6.39371 0.425914 2.23549 -6.44011 0.433568 2.25257 -6.48659 0.441096 2.26949 
-6.53314 0.448494 2.28627 -6.57978 0.455758 2.30289 -6.62649 0.462883 2.31935 
-6.67328 0.469864 2.33565 -6.72016 0.476695 2.3518 -6.76711 0.48337 2.36777 
-6.81414 0.489884 2.38359 -6.86125 0.496231 2.39923 -6.90844 0.502405 2.41471 
-6.9557 0.508402 2.43001 -7.00305 0.514214 2.44514 -7.05047 0.519837 2.46009 
-7.09797 0.525264 2.47486 -7.14555 0.530491 2.48945 -7.1932 0.535511 2.50386 
-7.24094 0.540319 2.51808 -7.28874 0.544909 2.53212 -7.33663 0.549276 2.54597 
-7.38459 0.553413 2.55962 -7.43263 0.557316 2.57308 -7.48074 0.560978 2.58635 
-7.52893 0.564394 2.59942 -7.57719 0.567558 2.61228 -7.62553 0.570465 2.62495 
-7.67394 0.573109 2.63742 -7.72241 0.575484 2.6497 -7.77094 0.577586 2.66178 
-7.81954 0.579408 2.67366 -7.86819 0.580945 2.68536 -7.9169 0.582192 2.69687 
-7.96566 0.583142 2.70819 -8.01446 0.583791 2.71933 -8.06331 0.584133 2.73028 
-8.1122 0.584162 2.74105 -8.16112 0.583873 2.75165 -8.21008 0.583261 2.76206 
-8.25908 0.582319 2.7723 -8.3081 0.581043 2.78236 -8.35714 0.579427 2.79226 
-8.40621 0.577465 2.80198 -8.45529 0.575151 2.81153 -8.50439 0.572481 2.82091 
-8.5535 0.569449 2.83013 -8.60262 0.56605 2.83919 -8.65174 0.562281 2.8481 
-8.70085 0.55814 2.85687 -8.74996 0.553624 2.86549 -8.79906 0.548729 2.87399 
-8.84814 0.543453 2.88238 -8.89719 0.537793 2.89065 -8.94622 0.531746 2.89882 
-8.99522 0.525309 2.90689 -9.04417 0.518479 2.91488 -9.09308 0.511253 2.9228 
-9.14194 0.503628 2.93064 -9.19075 0.495602 2.93842 -9.2395 0.487171 2.94615 
-9.28819 0.478333 2.95384 -9.3368 0.469084 2.96149 -9.38534 0.459422 2.96912 
-9.4338 0.449344 2.97672 -9.48218 0.438846 2.98432 -9.53046 0.427927 2.99191 
-9.57865 0.416584 2.99951 -9.62674 0.404818 3.00713 -9.67472 0.39263 3.01479 
-9.72258 0.380022 3.0225 -9.77033 0.366996 3.03026 -9.81794 0.353552 3.0381 
-9.86542 0.339693 3.04604 -9.91276 0.325419 3.05407 -9.95994 0.310732 3.06222 
-10.007 0.295633 3.07051 -10.0539 0.280124 3.07894 -10.1006 0.264207 3.08752 
-10.1471 0.247881 3.09628 -10.1934 0.23115 3.10523 -10.2396 0.214014 3.11437 
-10.2856 0.196475 3.12373 -10.3313 0.178534 3.13331 -10.3769 0.160192 3.14314 
-10.4222 0.141451 3.15322 -10.4674 0.122313 3.16357 -10.5123 0.102779 3.1742 
-10.5569 0.0828592 3.18512 -10.6014 0.0625631 3.19635 -10.6456 0.0419018 3.20788 
-10.6895 0.0208858 3.21972 -10.7332 -0.000474159 3.2319 -10.7766 -0.0221674 3.2444 
-10.8198 -0.0441832 3.25725 -10.8627 -0.0665109 3.27045 -10.9053 -0.0891399 3.284 
-10.9477 -0.112059 3.29793 -10.9897 -0.135259 3.31223 -11.0315 -0.158728 3.32691 
-11.073 -0.182455 3.34198 -11.1142 -0.20643 3.35746 -11.1551 -0.230643 3.37335 
-11.1957 -0.255082 3.38965 -11.236 -0.279737 3.40638 -11.2759 -0.304597 3.42355 
-11.3156 -0.329652 3.44115 -11.3549 -0.354891 3.45921 -11.3938 -0.380303 3.47772 
-11.4325 -0.405879 3.49667 -11.4708 -0.431608 3.51606 -11.5089 -0.45748 3.53589 
-11.5466 -0.483485 3.55613 -11.584 -0.509613 3.57679 -11.6211 -0.535853 3.59786 
-11.6579 -0.562196 3.61934 -11.6944 -0.588632 3.64121 -11.7306 -0.615149 3.66348 
-11.7665 -0.641739 3.68612 -11.8022 -0.668391 3.70915 -11.8376 -0.695094 3.73254 
-11.8727 -0.721839 3.7563 -11.9075 -0.748616 3.78041 -11.9421 -0.775414 3.80488 
-11.9764 -0.802223 3.82969 -12.0104 -0.829033 3.85483 -12.0442 -0.855834 3.88031 
-12.0777 -0.882615 3.90611 -12.111 -0.909371 3.93222 -12.1441 -0.936101 3.95864 
-12.1769 -0.962803 3.98535 -12.2095 -0.989477 4.01235 -12.2419 -1.01612 4.03962 
-12.2741 -1.04274 4.06715 -12.3061 -1.06932 4.09493 -12.338 -1.09588 4.12295 
-12.3696 -1.1224 4.1512 -12.4011 -1.14889 4.17966 -12.4324 -1.17535 4.20834 
-12.4636 -1.20178 4.23721 -12.4946 -1.22817 4.26627 -12.5255 -1.25453 4.2955 
-12.5563 -1.28085 4.32489 -12.587 -1.30714 4.35444 -12.6175 -1.33339 4.38413 
-12.648 -1.3596 4.41396 -12.6783 -1.38578 4.4439 -12.7086 -1.41192 4.47396 
-12.7388 -1.43802 4.50411 -12.7689 -1.46408 4.53436 -12.799 -1.49011 4.56468 
-12.8291 -1.51612 4.59508 -12.859 -1.54209 4.62553 -12.889 -1.56805 4.65604 
-12.9189 -1.59399 4.6866 -12.9488 -1.61992 4.71718 -12.9787 -1.64583 4.74779 
-13.0085 -1.67174 4.77842 -13.0384 -1.69765 4.80905 -13.0682 -1.72355 4.83968 
-13.0981 -1.74946 4.87029 -13.128 -1.77538 4.90088 -13.1579 -1.8013 4.93144 
-13.1879 -1.82724 4.96195 -13.2179 -1.8532 4.99241 -13.2479 -1.87918 5.02282 
-13.278 -1.90518 5.05315 -13.3082 -1.93121 5.0834 -13.3384 -1.95727 5.11357 
-13.3687 -1.98337 5.14363 -13.3991 -2.00951 5.17359 -13.4295 -2.0357 5.20342 
-13.4601 -2.06194 5.23311 -13.4907 -2.08824 5.26266 -13.5214 -2.1146 5.29205 
-13.5523 -2.14103 5.32128 -13.5832 -2.16753 5.35032 -13.6142 -2.19411 5.37918 
-13.6454 -2.22078 5.40783 -13.6767 -2.24754 5.43627 -13.7081 -2.27439 5.46448 
-13.7396 -2.30134 5.49245 -13.7713 -2.3284 5.52018 -13.8031 -2.35557 5.54764 
-13.835 -2.38285 5.57484 -13.8671 -2.41026 5.60175 -13.8993 -2.43779 5.62837 
-13.9317 -2.46546 5.65469 -13.9643 -2.49326 5.68068 -13.997 -2.52121 5.70635 
-14.0299 -2.5493 5.73166 -14.0629 -2.57756 5.7566 -14.0961 -2.60597 5.78116 
-14.1295 -2.63455 5.80531 -14.163 -2.6633 5.82903 -14.1966 -2.69224 5.8523 
-14.2304 -2.72136 5.87511 -14.2644 -2.75067 5.89743 -14.2985 -2.78018 5.91925 
-14.3328 -2.8099 5.94055 -14.3672 -2.83982 5.96131 -14.4018 -2.86997 5.9815 
-14.4365 -2.90033 6.00112 -14.4713 -2.93093 6.02014 -14.5063 -2.96176 6.03854 
-14.5414 -2.99282 6.0563 -14.5767 -3.02414 6.07341 -14.6121 -3.05571 6.08984 
-14.6476 -3.08754 6.10558 -14.6833 -3.11963 6.12061 -14.7191 -3.15199 6.1349 
-14.755 -3.1846 6.14845 -14.7909 -3.21746 6.16123 -14.8269 -3.25058 6.17323 
-14.863 -3.28394 6.18443 -14.899 -3.31756 6.19481 -14.9351 -3.35141 6.20435 
-14.9711 -3.38551 6.21303 -15.0071 -3.41984 6.22084 -15.043 -3.4544 6.22777 
-15.0788 -3.4892 6.23378 -15.1145 -3.52423 6.23887 -15.1501 -3.55948 6.24301 
-15.1856 -3.59495 6.24619 -15.2209 -3.63065 6.24839 -15.256 -3.66656 6.2496 
-15.2909 -3.70268 6.24979 -15.3256 -3.73902 6.24895 -15.36 -3.77556 6.24705 
-15.3942 -3.81231 6.24409 -15.4281 -3.84925 6.24008 -15.4617 -3.88637 6.23502 
[...]
CELL_DATA 1
FIELD FieldData 2
Length 1 1 double
63.871308548 
Tortuosity 1 1 double
1.0466442298 
POINT_DATA 1278
SCALARS MaximumInscribedSphereRadius float
LOOKUP_TABLE default
0.9796 0.969208 0.958817 0.948425 0.938034 0.927642 0.917251 0.906859 0.896468 
0.886076 0.875685 0.865293 0.854902 0.84451 0.834119 0.823727 0.813336 0.802944 
0.792552 0.782161 0.771769 0.76245 0.764158 0.765866 0.767573 0.769281 0.770988 
0.772696 0.774403 0.776111 0.777819 0.779526 0.781234 0.782941 0.784649 0.786357 
0.788064 0.789772 0.791479 0.793187 0.794895 0.806191 0.823611 0.84103 0.85845 
0.87587 0.893289 0.910709 0.928128 0.945548 0.962968 0.980387 0.997807 1.01523 
1.03265 1.05007 1.06749 1.08491 1.10232 1.11974 1.13716 1.15301 1.15733 
1.16165 1.16597 1.17029 1.17461 1.17894 1.18326 1.18758 1.1919 1.19622 
1.20054 1.20486 1.20918 1.2135 1.21782 1.22215 1.22647 1.23079 1.23511 
1.23943 1.23785 1.23537 1.23289 1.23041 1.22793 1.22545 1.22298 1.2205 
1.21802 1.21554 1.21306 1.21058 1.2081 1.20562 1.20315 1.20067 1.19819 
1.19571 1.19323 1.19075 1.18494 1.17672 1.1685 1.16027 1.15205 1.14383 
1.13561 1.12738 1.11916 1.11094 1.10271 1.09449 1.08627 1.07805 1.06982 
1.0616 1.05338 1.04516 1.03693 1.02871 1.02326 1.02449 1.02573 1.02696 
1.02819 1.02942 1.03066 1.03189 1.03312 1.03435 1.03559 1.03682 1.03805 
1.03928 1.04052 1.04175 1.04298 1.04421 1.04545 1.04668 1.04799 1.05761 
1.06724 1.07686 1.08649 1.09611 1.10574 1.11536 1.12498 1.13461 1.14423 
1.15386 1.16348 1.17311 1.18273 1.19236 1.20198 1.21161 1.22123 1.23086 
1.24048 1.2504 1.26041 1.27043 1.28045 1.29047 1.30049 1.31051 1.32053 
1.33055 1.34057 1.35059 1.36061 1.37063 1.38065 1.39067 1.40068 1.4107 
1.42072 1.43074 1.44076 1.44373 1.43795 1.43217 1.42639 1.4206 1.41482 
1.40904 1.40326 1.39748 1.3917 1.38592 1.38013 1.37435 1.36857 1.36279 
1.35701 1.35123 1.34545 1.33966 1.33388 1.32682 1.3134 1.29998 1.28656 
1.27314 1.25972 1.2463 1.23288 1.21946 1.20604 1.19263 1.17921 1.16579 
1.15237 1.13895 1.12553 1.11211 1.09869 1.08527 1.07185 1.05843 1.06375 
1.07137 1.079 1.08662 1.09425 1.10187 1.10949 1.11712 1.12474 1.13237 
1.13999 1.14762 1.15524 1.16286 1.17049 1.17811 1.18574 1.19336 1.20098 
1.20861 1.21798 1.22841 1.23884 1.24927 1.25971 1.27014 1.28057 1.291 
1.30143 1.31187 1.3223 1.33273 1.34316 1.3536 1.36403 1.37446 1.38489 
1.39533 1.40576 1.41619 1.42431 1.42808 1.43185 1.43562 1.4394 1.44317 
1.44694 1.45071 1.45448 1.45825 1.46202 1.46579 1.46957 1.47334 1.47711 
1.48088 1.48465 1.48842 1.49219 1.49597 1.49899 1.49086 1.48273 1.4746 
1.46648 1.45835 1.45022 1.44209 1.43396 1.42583 1.41771 1.40958 1.40145 
1.39332 1.38519 1.37706 1.36893 1.36081 1.35268 1.34455 1.33642 1.32606 
1.31505 1.30405 1.29305 1.28204 1.27104 1.26004 1.24903 1.23803 1.22703 
1.21602 1.20502 1.19402 1.18302 1.17201 1.16101 1.15001 1.139 1.128 
1.117 1.10875 1.10335 1.09794 1.09253 1.08713 1.08172 1.07632 1.07091 
1.0655 1.0601 1.05469 1.04928 1.04388 1.03847 1.03307 1.02766 1.02225 
1.01685 1.01144 1.00603 1.00301 1.0084 1.01378 1.01917 1.02456 1.02994 
1.03533 1.04072 1.04611 1.05149 1.05688 1.06227 1.06765 1.07304 1.07843 
1.08382 1.0892 1.09459 1.09998 1.10536 1.11075 1.11071 1.11053 1.11035 
1.11017 1.10999 1.10981 1.10963 1.10945 1.10927 1.10909 1.10891 1.10873 
1.10855 1.10837 1.10819 1.10801 1.10783 1.10765 1.10747 1.10729 1.10434 
1.10044 1.09655 1.09266 1.08876 1.08487 1.08097 1.07708 1.07319 1.06929 
1.0654 1.0615 1.05761 1.05372 1.04982 1.04593 1.04203 1.03814 1.03425 
1.03035 1.0279 1.0269 1.02591 1.02492 1.02392 1.02293 1.02194 1.02094 
1.01995 1.01896 1.01796 1.01697 1.01598 1.01498 1.01399 1.013 1.012 
1.01101 1.01002 1.00902 1.01004 1.0177 1.02536 1.03303 1.04069 1.04836 
1.05602 1.06368 1.07135 1.07901 1.08668 1.09434 1.102 1.10967 1.11733 
1.125 1.13266 1.14033 1.14799 1.15565 1.16332 1.16319 1.1627 1.16221 
1.16173 1.16124 1.16076 1.16027 1.15979 1.1593 1.15881 1.15833 1.15784 
1.15736 1.15687 1.15639 1.1559 1.15541 1.15493 1.15444 1.15396 1.15039 
1.14535 1.14031 1.13528 1.13024 1.1252 1.12016 1.11513 1.11009 1.10505 
1.10001 1.09498 1.08994 1.0849 1.07986 1.07483 1.06979 1.06475 1.05971 
1.05468 1.05391 1.0597 1.06548 1.07126 1.07704 1.08282 1.0886 1.09438 
1.10016 1.10594 1.11172 1.1175 1.12328 1.12906 1.13484 1.14062 1.1464 
1.15219 1.15797 1.16375 1.16984 1.1783 1.18676 1.19523 1.20369 1.21215 
1.22062 1.22908 1.23754 1.24601 1.25447 1.26293 1.2714 1.27986 1.28832 
1.29679 1.30525 1.31371 1.32218 1.33064 1.3391 1.33884 1.3367 1.33457 
1.33243 1.33029 1.32816 1.32602 1.32388 1.32175 1.31961 1.31747 1.31534 
1.3132 1.31106 1.30893 1.30679 1.30465 1.30252 1.30038 1.29824 1.29148 
1.28142 1.27135 1.26128 1.25121 1.24115 1.23108 1.22101 1.21094 1.20087 
1.19081 1.18074 1.17067 1.1606 1.15053 1.14047 1.1304 1.12033 1.11026 
1.1002 1.10848 1.12031 1.13213 1.14395 1.15578 1.1676 1.17942 1.19125 
1.20307 1.21489 1.22672 1.23854 1.25036 1.26219 1.27401 1.28583 1.29766 
1.30948 1.3213 1.33313 1.33547 1.32782 1.32018 1.31254 1.3049 1.29726 
1.28961 1.28197 1.27433 1.26669 1.25905 1.2514 1.24376 1.23612 1.22848 
1.22084 1.21319 1.20555 1.19791 1.19027 1.18248 1.17422 1.16595 1.15769 
1.14942 1.14116 1.13289 1.12463 1.11637 1.1081 1.09984 1.09157 1.08331 
1.07505 1.06678 1.05852 1.05025 1.04199 1.03372 1.02546 1.0172 1.02422 
1.03201 1.03981 1.0476 1.05539 1.06318 1.07098 1.07877 1.08656 1.09436 
1.10215 1.10994 1.11774 1.12553 1.13332 1.14112 1.14891 1.1567 1.16449 
1.17229 1.17702 1.18023 1.18344 1.18665 1.18986 1.19307 1.19628 1.19949 
1.2027 1.20591 1.20912 1.21233 1.21554 1.21875 1.22196 1.22517 1.22838 
1.23159 1.2348 1.23801 1.2424 1.24868 1.25496 1.26124 1.26753 1.27381 
1.28009 1.28638 1.29266 1.29894 1.30523 1.31151 1.31779 1.32408 1.33036 
1.33664 1.34293 1.34921 1.35549 1.36178 1.36944 1.38951 1.40959 1.42966 
1.44974 1.46981 1.48989 1.50996 1.53004 1.55011 1.57019 1.59026 1.61034 
1.63041 1.65049 1.67056 1.69063 1.71071 1.73078 1.75086 1.77093 1.77771 
1.78181 1.78591 1.79001 1.7941 1.7982 1.8023 1.8064 1.8105 1.8146 
1.81869 1.82279 1.82689 1.83099 1.83509 1.83919 1.84328 1.84738 1.85148 
1.85558 1.85371 1.84778 1.84184 1.83591 1.82997 1.82404 1.8181 1.81217 
1.80624 1.8003 1.79437 1.78843 1.7825 1.77656 1.77063 1.7647 1.75876 
1.75283 1.74689 1.74096 1.73443 1.72668 1.71893 1.71118 1.70343 1.69568 
1.68793 1.68018 1.67243 1.66468 1.65693 1.64918 1.64143 1.63368 1.62593 
1.61818 1.61043 1.60268 1.59493 1.58718 1.57973 1.57826 1.57679 1.57532 
1.57385 1.57238 1.57091 1.56945 1.56798 1.56651 1.56504 1.56357 1.5621 
1.56063 1.55916 1.55769 1.55622 1.55475 1.55328 1.55182 1.55035 1.55359 
1.55828 1.56297 1.56766 1.57235 1.57704 1.58173 1.58642 1.59111 1.5958 
1.60049 1.60518 1.60988 1.61457 1.61926 1.62395 1.62864 1.63333 1.63802 
1.64271 1.64846 1.65535 1.66224 1.66913 1.67602 1.68291 1.6898 1.69669 
1.70358 1.71047 1.71736 1.72425 1.73114 1.73803 1.74492 1.75181 1.7587 
1.76559 1.77248 1.77937 1.78276 1.77179 1.76083 1.74986 1.73889 1.72792 
1.71695 1.70598 1.69502 1.68405 1.67308 1.66211 1.65114 1.64018 1.62921 
1.61824 1.60727 1.5963 1.58533 1.57437 1.5634 1.5528 1.54224 1.53168 
1.52112 1.51055 1.49999 1.48943 1.47887 1.46831 1.45774 1.44718 1.43662 
1.42606 1.4155 1.40494 1.39437 1.38381 1.37325 1.36269 1.35213 1.35185 
1.35776 1.36366 1.36957 1.37548 1.38139 1.38729 1.3932 1.39911 1.40502 
1.41092 1.41683 1.42274 1.42865 1.43455 1.44046 1.44637 1.45228 1.45818 
1.46409 1.46713 1.46466 1.46219 1.45971 1.45724 1.45476 1.45229 1.44981 
1.44734 1.44486 1.44239 1.43991 1.43744 1.43496 1.43249 1.43001 1.42754 
1.42507 1.42259 1.42012 1.41737 1.41098 1.40458 1.39819 1.39179 1.38539 
1.379 1.3726 1.3662 1.35981 1.35341 1.34702 1.34062 1.33422 1.32783 
1.32143 1.31503 1.30864 1.30224 1.29585 1.28945 1.2961 1.30579 1.31549 
1.32518 1.33487 1.34456 1.35426 1.36395 1.37364 1.38334 1.39303 1.40272 
1.41241 1.42211 1.4318 1.44149 1.45119 1.46088 1.47057 1.48027 1.48642 
1.48964 1.49287 1.49609 1.49931 1.50253 1.50575 1.50898 1.5122 1.51542 
1.51864 1.52187 1.52509 1.52831 1.53153 1.53475 1.53798 1.5412 1.54442 
1.54764 1.54925 1.54647 1.54368 1.54089 1.53811 1.53532 1.53253 1.52975 
1.52696 1.52418 1.52139 1.5186 1.51582 1.51303 1.51024 1.50746 1.50467 
1.50189 1.4991 1.49631 1.49353 1.48523 1.47683 1.46844 1.46004 1.45165 
1.44325 1.43486 1.42646 1.41806 1.40967 1.40127 1.39288 1.38448 1.37609 
1.36769 1.3593 1.3509 1.34251 1.33411 1.32572 1.32079 1.31736 1.31392 
1.31049 1.30705 1.30362 1.30019 1.29675 1.29332 1.28988 1.28645 1.28302 
1.27958 1.27615 1.27271 1.26928 1.26585 1.26241 1.25898 1.25554 1.25383 
1.25454 1.25526 1.25598 1.25669 1.25741 1.25812 1.25884 1.25956 1.26027 
1.26099 1.26171 1.26242 1.26314 1.26386 1.26457 1.26529 1.266 1.26672 
1.26744 1.26797 1.26731 1.26664 1.26598 1.26532 1.26465 1.26399 1.26332 
1.26266 1.26199 1.26133 1.26066 1.26 1.25933 1.25867 1.258 1.25734 
1.25668 1.25601 1.25535 1.25468 1.25436 1.25409 1.25383 1.25357 1.2533 
1.25304 1.25277 1.25251 1.25225 1.25198 1.25172 1.25146 1.25119 1.25093 
1.25066 1.2504 1.25014 1.24987 1.24961 1.24935 1.24975 1.25068 1.2516 
1.25253 1.25345 1.25438 1.2553 1.25623 1.25715 1.25808 1.259 1.25993 
1.26085 1.26178 1.26271 1.26363 1.26456 1.26548 1.26641 1.26733 1.26785 
1.26731 1.26676 1.26622 1.26568 1.26514 1.26459 1.26405 1.26351 1.26296 
1.26242 1.26188 1.26134 1.26079 1.26025 1.25971 1.25917 1.25862 1.25808 
1.25754 1.25699 1.25248 1.24792 1.24337 1.23882 1.23427 1.22972 1.22516 
1.22061 1.21606 1.21151 1.20695 1.2024 1.19785 1.1933 1.18875 1.18419 
1.17964 1.17509 1.17054 1.16599 1.15808 1.14879 1.1395 1.1302 1.12091 
1.11162 1.10232 1.09303 1.08374 1.07444 1.06515 1.05586 1.04656 1.03727 
1.02797 1.01868 1.00939 1.00009 0.9908 0.981507 0.978435 0.983904 0.989373 
0.994843 1.00031 1.00578 1.01125 1.01672 1.02219 1.02766 1.03313 1.0386 
1.04407 1.04953 1.055 1.06047 1.06594 1.07141 1.07688 1.08235 1.08815 
1.0961 1.10404 1.11198 1.11993 1.12787 1.13581 1.14375 1.1517 1.15964 
1.16758 1.17552 1.18347 1.19141 1.19935 1.20729 1.21524 1.22318 1.23112 
1.23907 1.24701 1.24993 1.25223 1.25453 1.25682 1.25912 1.26142 1.26372 
1.26602 1.26832 1.27062 1.27292 1.27522 1.27752 1.27982 1.28211 1.28441 
1.28671 1.28901 1.29131 1.29361 1.29244 1.28546 1.27849 1.27151 1.26453 
1.25756 1.25058 1.2436 1.23663 1.22965 1.22267 1.2157 1.20872 1.20174 
1.19477 1.18779 1.18081 1.17384 1.16686 1.15988 1.14922 1.13826 1.12729 
1.11633 1.10537 1.09441 1.08345 1.07249 1.06153 1.05057 1.03961 1.02865 
1.01769 1.00673 0.995765 0.984804 0.973843 0.962882 0.951922 0.940961 0.93 

TEXTURE_COORDINATES TCoords 2 float
0 0 0.000783085 0 0.00156617 0 0.00234926 0 0.00313234 
0 0.00391543 0 0.00469851 0 0.0054816 0 0.00626468 0 
0.00704777 0 0.00783085 0 0.00861394 0 0.00939702 0 0.0101801 
0 0.0109632 0 0.0117463 0 0.0125294 0 0.0133125 0 
0.0140955 0 0.0148786 0 0.0156617 0 0.0164448 0 0.0172279 
0 0.018011 0 0.018794 0 0.0195771 0 0.0203602 0 
0.0211433 0 0.0219264 0 0.0227095 0 0.0234926 0 0.0242756 
0 0.0250587 0 0.0258418 0 0.0266249 0 0.027408 0 
0.0281911 0 0.0289742 0 0.0297572 0 0.0305403 0 0.0313234 
0 0.0321065 0 0.0328896 0 0.0336727 0 0.0344558 0 
0.0352388 0 0.0360219 0 0.036805 0 0.0375881 0 0.0383712 
0 0.0391543 0 0.0399374 0 0.0407204 0 0.0415035 0 
0.0422866 0 0.0430697 0 0.0438528 0 0.0446359 0 0.045419 
0 0.046202 0 0.0469851 0 0.0477682 0 0.0485513 0 
0.0493344 0 0.0501175 0 0.0509005 0 0.0516836 0 0.0524667 
0 0.0532498 0 0.0540329 0 0.054816 0 0.0555991 0 
0.0563821 0 0.0571652 0 0.0579483 0 0.0587314 0 0.0595145 
0 0.0602976 0 0.0610807 0 0.0618637 0 0.0626468 0 
0.0634299 0 0.064213 0 0.0649961 0 0.0657792 0 0.0665623 
0 0.0673453 0 0.0681284 0 0.0689115 0 0.0696946 0 
0.0704777 0 0.0712608 0 0.0720439 0 0.0728269 0 0.07361 
0 0.0743931 0 0.0751762 0 0.0759593 0 0.0767424 0 
0.0775255 0 0.0783085 0 0.0790916 0 0.0798747 0 0.0806578 
0 0.0814409 0 0.082224 0 0.083007 0 0.0837901 0 
0.0845732 0 0.0853563 0 0.0861394 0 0.0869225 0 0.0877056 
0 0.0884886 0 0.0892717 0 0.0900548 0 0.0908379 0 
0.091621 0 0.0924041 0 0.0931872 0 0.0939702 0 0.0947533 
0 0.0955364 0 0.0963195 0 0.0971026 0 0.0978857 0 
0.0986688 0 0.0994518 0 0.100235 0 0.101018 0 0.101801 
0 0.102584 0 0.103367 0 0.10415 0 0.104933 0 
0.105717 0 0.1065 0 0.107283 0 0.108066 0 0.108849 
0 0.109632 0 0.110415 0 0.111198 0 0.111981 0 
0.112764 0 0.113547 0 0.11433 0 0.115114 0 0.115897 
0 0.11668 0 0.117463 0 0.118246 0 0.119029 0 
0.119812 0 0.120595 0 0.121378 0 0.122161 0 0.122944 
0 0.123727 0 0.124511 0 0.125294 0 0.126077 0 
0.12686 0 0.127643 0 0.128426 0 0.129209 0 0.129992 
0 0.130775 0 0.131558 0 0.132341 0 0.133125 0 
0.133908 0 0.134691 0 0.135474 0 0.136257 0 0.13704 
0 0.137823 0 0.138606 0 0.139389 0 0.140172 0 
0.140955 0 0.141738 0 0.142522 0 0.143305 0 0.144088 
0 0.144871 0 0.145654 0 0.146437 0 0.14722 0 
0.148003 0 0.148786 0 0.149569 0 0.150352 0 0.151135 
0 0.151919 0 0.152702 0 0.153485 0 0.154268 0 
0.155051 0 0.155834 0 0.156617 0 0.1574 0 0.158183 
0 0.158966 0 0.159749 0 0.160533 0 0.161316 0 
0.162099 0 0.162882 0 0.163665 0 0.164448 0 0.165231 
0 0.166014 0 0.166797 0 0.16758 0 0.168363 0 
0.169146 0 0.16993 0 0.170713 0 0.171496 0 0.172279 
0 0.173062 0 0.173845 0 0.174628 0 0.175411 0 
0.176194 0 0.176977 0 0.17776 0 0.178543 0 0.179327 
0 0.18011 0 0.180893 0 0.181676 0 0.182459 0 
0.183242 0 0.184025 0 0.184808 0 0.185591 0 0.186374 
0 0.187157 0 0.18794 0 0.188724 0 0.189507 0 
0.19029 0 0.191073 0 0.191856 0 0.192639 0 0.193422 
0 0.194205 0 0.194988 0 0.195771 0 0.196554 0 
0.197338 0 0.198121 0 0.198904 0 0.199687 0 0.20047 
0 0.201253 0 0.202036 0 0.202819 0 0.203602 0 
0.204385 0 0.205168 0 0.205951 0 0.206735 0 0.207518 
0 0.208301 0 0.209084 0 0.209867 0 0.21065 0 
0.211433 0 0.212216 0 0.212999 0 0.213782 0 0.214565 
0 0.215348 0 0.216132 0 0.216915 0 0.217698 0 
0.218481 0 0.219264 0 0.220047 0 0.22083 0 0.221613 
0 0.222396 0 0.223179 0 0.223962 0 0.224745 0 
0.225529 0 0.226312 0 0.227095 0 0.227878 0 0.228661 
0 0.229444 0 0.230227 0 0.23101 0 0.231793 0 
0.232576 0 0.233359 0 0.234143 0 0.234926 0 0.235709 
0 0.236492 0 0.237275 0 0.238058 0 0.238841 0 
0.239624 0 0.240407 0 0.24119 0 0.241973 0 0.242756 
0 0.24354 0 0.244323 0 0.245106 0 0.245889 0 
0.246672 0 0.247455 0 0.248238 0 0.249021 0 0.249804 
0 0.250587 0 0.25137 0 0.252153 0 0.252937 0 
0.25372 0 0.254503 0 0.255286 0 0.256069 0 0.256852 
0 0.257635 0 0.258418 0 0.259201 0 0.259984 0 
0.260767 0 0.261551 0 0.262334 0 0.263117 0 0.2639 
0 0.264683 0 0.265466 0 0.266249 0 0.267032 0 
0.267815 0 0.268598 0 0.269381 0 0.270164 0 0.270948 
0 0.271731 0 0.272514 0 0.273297 0 0.27408 0 
0.274863 0 0.275646 0 0.276429 0 0.277212 0 0.277995 
0 0.278778 0 0.279561 0 0.280345 0 0.281128 0 
0.281911 0 0.282694 0 0.283477 0 0.28426 0 0.285043 
0 0.285826 0 0.286609 0 0.287392 0 0.288175 0 
0.288958 0 0.289742 0 0.290525 0 0.291308 0 0.292091 
0 0.292874 0 0.293657 0 0.29444 0 0.295223 0 
0.296006 0 0.296789 0 0.297572 0 0.298356 0 0.299139 
0 0.299922 0 0.300705 0 0.301488 0 0.302271 0 
0.303054 0 0.303837 0 0.30462 0 0.305403 0 0.306186 
0 0.306969 0 0.307753 0 0.308536 0 0.309319 0 
0.310102 0 0.310885 0 0.311668 0 0.312451 0 0.313234 
0 0.314017 0 0.3148 0 0.315583 0 0.316366 0 
0.31715 0 0.317933 0 0.318716 0 0.319499 0 0.320282 
0 0.321065 0 0.321848 0 0.322631 0 0.323414 0 
0.324197 0 0.32498 0 0.325763 0 0.326547 0 0.32733 
0 0.328113 0 0.328896 0 0.329679 0 0.330462 0 
0.331245 0 0.332028 0 0.332811 0 0.333594 0 0.334377 
0 0.335161 0 0.335944 0 0.336727 0 0.33751 0 
0.338293 0 0.339076 0 0.339859 0 0.340642 0 0.341425 
0 0.342208 0 0.342991 0 0.343774 0 0.344558 0 
0.345341 0 0.346124 0 0.346907 0 0.34769 0 0.348473 
0 0.349256 0 0.350039 0 0.350822 0 0.351605 0 
0.352388 0 0.353171 0 0.353955 0 0.354738 0 0.355521 
0 0.356304 0 0.357087 0 0.35787 0 0.358653 0 
0.359436 0 0.360219 0 0.361002 0 0.361785 0 0.362569 
0 0.363352 0 0.364135 0 0.364918 0 0.365701 0 
0.366484 0 0.367267 0 0.36805 0 0.368833 0 0.369616 
0 0.370399 0 0.371182 0 0.371966 0 0.372749 0 
0.373532 0 0.374315 0 0.375098 0 0.375881 0 0.376664 
0 0.377447 0 0.37823 0 0.379013 0 0.379796 0 
0.380579 0 0.381363 0 0.382146 0 0.382929 0 0.383712 
0 0.384495 0 0.385278 0 0.386061 0 0.386844 0 
0.387627 0 0.38841 0 0.389193 0 0.389977 0 0.39076 
0 0.391543 0 0.392326 0 0.393109 0 0.393892 0 
0.394675 0 0.395458 0 0.396241 0 0.397024 0 0.397807 
0 0.39859 0 0.399374 0 0.400157 0 0.40094 0 
0.401723 0 0.402506 0 0.403289 0 0.404072 0 0.404855 
0 0.405638 0 0.406421 0 0.407204 0 0.407987 0 
0.408771 0 0.409554 0 0.410337 0 0.41112 0 0.411903 
0 0.412686 0 0.413469 0 0.414252 0 0.415035 0 
0.415818 0 0.416601 0 0.417385 0 0.418168 0 0.418951 
0 0.419734 0 0.420517 0 0.4213 0 0.422083 0 
0.422866 0 0.423649 0 0.424432 0 0.425215 0 0.425998 
0 0.426782 0 0.427565 0 0.428348 0 0.429131 0 
0.429914 0 0.430697 0 0.43148 0 0.432263 0 0.433046 
0 0.433829 0 0.434612 0 0.435395 0 0.436179 0 
0.436962 0 0.437745 0 0.438528 0 0.439311 0 0.440094 
0 0.440877 0 0.44166 0 0.442443 0 0.443226 0 
0.444009 0 0.444792 0 0.445576 0 0.446359 0 0.447142 
0 0.447925 0 0.448708 0 0.449491 0 0.450274 0 
0.451057 0 0.45184 0 0.452623 0 0.453406 0 0.45419 
0 0.454973 0 0.455756 0 0.456539 0 0.457322 0 
0.458105 0 0.458888 0 0.459671 0 0.460454 0 0.461237 
0 0.46202 0 0.462803 0 0.463587 0 0.46437 0 
0.465153 0 0.465936 0 0.466719 0 0.467502 0 0.468285 
0 0.469068 0 0.469851 0 0.470634 0 0.471417 0 
0.4722 0 0.472984 0 0.473767 0 0.47455 0 0.475333 
0 0.476116 0 0.476899 0 0.477682 0 0.478465 0 
0.479248 0 0.480031 0 0.480814 0 0.481597 0 0.482381 
0 0.483164 0 0.483947 0 0.48473 0 0.485513 0 
0.486296 0 0.487079 0 0.487862 0 0.488645 0 0.489428 
0 0.490211 0 0.490995 0 0.491778 0 0.492561 0 
0.493344 0 0.494127 0 0.49491 0 0.495693 0 0.496476 
0 0.497259 0 0.498042 0 0.498825 0 0.499608 0 
0.500392 0 0.501175 0 0.501958 0 0.502741 0 0.503524 
0 0.504307 0 0.50509 0 0.505873 0 0.506656 0 
0.507439 0 0.508222 0 0.509005 0 0.509789 0 0.510572 
0 0.511355 0 0.512138 0 0.512921 0 0.513704 0 
0.514487 0 0.51527 0 0.516053 0 0.516836 0 0.517619 
0 0.518403 0 0.519186 0 0.519969 0 0.520752 0 
0.521535 0 0.522318 0 0.523101 0 0.523884 0 0.524667 
0 0.52545 0 0.526233 0 0.527016 0 0.5278 0 
0.528583 0 0.529366 0 0.530149 0 0.530932 0 0.531715 
0 0.532498 0 0.533281 0 0.534064 0 0.534847 0 
0.53563 0 0.536413 0 0.537197 0 0.53798 0 0.538763 
0 0.539546 0 0.540329 0 0.541112 0 0.541895 0 
0.542678 0 0.543461 0 0.544244 0 0.545027 0 0.545811 
0 0.546594 0 0.547377 0 0.54816 0 0.548943 0 
0.549726 0 0.550509 0 0.551292 0 0.552075 0 0.552858 
0 0.553641 0 0.554424 0 0.555207 0 0.555991 0 
0.556774 0 0.557557 0 0.55834 0 0.559123 0 0.559906 
0 0.560689 0 0.561472 0 0.562255 0 0.563038 0 
0.563821 0 0.564605 0 0.565388 0 0.566171 0 0.566954 
0 0.567737 0 0.56852 0 0.569303 0 0.570086 0 
0.570869 0 0.571652 0 0.572435 0 0.573218 0 0.574002 
0 0.574785 0 0.575568 0 0.576351 0 0.577134 0 
0.577917 0 0.5787 0 0.579483 0 0.580266 0 0.581049 
0 0.581832 0 0.582615 0 0.583399 0 0.584182 0 
0.584965 0 0.585748 0 0.586531 0 0.587314 0 0.588097 
0 0.58888 0 0.589663 0 0.590446 0 0.591229 0 
0.592013 0 0.592796 0 0.593579 0 0.594362 0 0.595145 
0 0.595928 0 0.596711 0 0.597494 0 0.598277 0 
0.59906 0 0.599843 0 0.600626 0 0.60141 0 0.602193 
0 0.602976 0 0.603759 0 0.604542 0 0.605325 0 
0.606108 0 0.606891 0 0.607674 0 0.608457 0 0.60924 
0 0.610023 0 0.610807 0 0.61159 0 0.612373 0 
0.613156 0 0.613939 0 0.614722 0 0.615505 0 0.616288 
0 0.617071 0 0.617854 0 0.618637 0 0.619421 0 
0.620204 0 0.620987 0 0.62177 0 0.622553 0 0.623336 
0 0.624119 0 0.624902 0 0.625685 0 0.626468 0 
0.627251 0 0.628034 0 0.628818 0 0.629601 0 0.630384 
0 0.631167 0 0.63195 0 0.632733 0 0.633516 0 
0.634299 0 0.635082 0 0.635865 0 0.636648 0 0.637432 
0 0.638215 0 0.638998 0 0.639781 0 0.640564 0 
0.641347 0 0.64213 0 0.642913 0 0.643696 0 0.644479 
0 0.645262 0 0.646045 0 0.646829 0 0.647612 0 
0.648395 0 0.649178 0 0.649961 0 0.650744 0 0.651527 
0 0.65231 0 0.653093 0 0.653876 0 0.654659 0 
0.655442 0 0.656226 0 0.657009 0 0.657792 0 0.658575 