# vtk DataFile Version 4.2
vtk output
ASCII
DATASET POLYDATA
POINTS 1278 float
0 0 0 -0.00349862 0.00177209 0.00131423 -0.0137073 0.00692599 0.00514258 
-0.0301954 0.0152181 0.0113135 -0.0525322 0.026405 0.0196555 -0.080287 0.0402429 0.0299971 
-0.113029 0.0564884 0.0421666 -0.150328 0.0748978 0.0559926 -0.191752 0.0952277 0.0713036 
-0.236872 0.117234 0.087928 -0.285256 0.140674 0.105694 -0.336474 0.165304 0.124431 
-0.390095 0.19088 0.143967 -0.445688 0.217158 0.16413 -0.502823 0.243896 0.184748 
-0.561069 0.270849 0.205651 -0.619995 0.297774 0.226667 -0.67917 0.324427 0.247624 
-0.738165 0.350565 0.26835 -0.796547 0.375944 0.288675 -0.853887 0.400321 0.308427 
-0.909759 0.423454 0.327435 -0.963959 0.445227 0.34562 -1.01659 0.465688 0.36302 
-1.06776 0.484899 0.379683 -1.1176 0.502919 0.395657 -1.16623 0.519812 0.410989 
-1.21377 0.535636 0.425727 -1.26033 0.550454 0.439919 -1.30605 0.564327 0.453613 
-1.35103 0.577316 0.466856 -1.39539 0.589481 0.479695 -1.43927 0.600885 0.492179 
-1.48277 0.611587 0.504356 -1.52603 0.621649 0.516272 -1.56915 0.631132 0.527977 
-1.61226 0.640097 0.539516 -1.65548 0.648605 0.550939 -1.69892 0.656717 0.562293 
-1.74272 0.664495 0.573625 -1.78698 0.671999 0.584983 -1.83183 0.679287 0.596413 
-1.87729 0.686367 0.607927 -1.92333 0.693205 0.619511 -1.96991 0.69977 0.631152 
-2.01698 0.706027 0.642834 -2.06452 0.711944 0.654543 -2.11247 0.717488 0.666265 
-2.16082 0.722625 0.677985 -2.2095 0.727322 0.689689 -2.2585 0.731546 0.701363 
-2.30776 0.735263 0.712993 -2.35726 0.738442 0.724563 -2.40694 0.741047 0.73606 
-2.45678 0.743047 0.747469 -2.50674 0.744408 0.758776 -2.55677 0.745097 0.769966 
-2.60684 0.745081 0.781026 -2.65691 0.744326 0.79194 -2.70693 0.742799 0.802694 
-2.75689 0.740468 0.813274 -2.80672 0.737299 0.823666 -2.85641 0.733268 0.833861 
-2.90595 0.728379 0.843862 -2.95532 0.722638 0.853677 -3.00452 0.716052 0.863314 
-3.05354 0.70863 0.872778 -3.10238 0.700377 0.882078 -3.15104 0.691301 0.891219 
-3.1995 0.68141 0.90021 -3.24775 0.67071 0.909057 -3.2958 0.659208 0.917767 
-3.34363 0.646912 0.926347 -3.39124 0.633829 0.934804 -3.43863 0.619965 0.943146 
-3.48578 0.605329 0.951378 -3.53268 0.589926 0.959509 -3.57934 0.573765 0.967545 
-3.62575 0.556853 0.975493 -3.6719 0.539196 0.98336 -3.71778 0.520801 0.991154 
-3.76338 0.501677 0.998881 -3.80871 0.48183 1.00655 -3.85375 0.461272 1.01416 
-3.89849 0.440015 1.02172 -3.94294 0.41807 1.02923 -3.98707 0.395451 1.0367 
-4.03088 0.372168 1.04413 -4.07437 0.348234 1.05152 -4.11753 0.323661 1.05889 
-4.16034 0.298462 1.06622 -4.20281 0.272647 1.07353 -4.24492 0.24623 1.08083 
-4.28667 0.219221 1.08811 -4.32805 0.191634 1.09537 -4.36904 0.163481 1.10263 
-4.40966 0.134772 1.10989 -4.44988 0.105522 1.11715 -4.48969 0.0757401 1.12441 
-4.5291 0.0454401 1.13169 -4.5681 0.0146337 1.13897 -4.60666 -0.016667 1.14628 
-4.6448 -0.0484501 1.1536 -4.68251 -0.0807026 1.16095 -4.71979 -0.113411 1.16833 
-4.75666 -0.146563 1.17573 -4.79311 -0.180144 1.18317 -4.82916 -0.214142 1.19065 
-4.86482 -0.248542 1.19817 -4.90008 -0.283332 1.20573 -4.93496 -0.318499 1.21333 
-4.96946 -0.354029 1.22099 -5.00358 -0.389909 1.22869 -5.03735 -0.426125 1.23645 
-5.07075 -0.462664 1.24427 -5.1038 -0.499514 1.25214 -5.1365 -0.53666 1.26009 
-5.16886 -0.57409 1.26809 -5.2009 -0.611789 1.27617 -5.2326 -0.649746 1.28432 
-5.26398 -0.687946 1.29254 -5.29505 -0.726376 1.30084 -5.32581 -0.765023 1.30922 
-5.35628 -0.803877 1.31769 -5.38644 -0.842931 1.32624 -5.41632 -0.88218 1.33487 
-5.44591 -0.921619 1.34358 -5.47523 -0.96124 1.35237 -5.50428 -1.00104 1.36124 
-5.53306 -1.04101 1.3702 -5.56158 -1.08114 1.37923 -5.58985 -1.12144 1.38834 
-5.61788 -1.16189 1.39753 -5.64566 -1.20248 1.40679 -5.67321 -1.24322 1.41614 
-5.70053 -1.2841 1.42556 -5.72762 -1.32511 1.43506 -5.75451 -1.36624 1.44463 
-5.78118 -1.40749 1.45428 -5.80764 -1.44885 1.464 -5.83391 -1.49032 1.4738 
-5.85998 -1.53189 1.48367 -5.88587 -1.57356 1.49362 -5.91158 -1.61532 1.50363 
-5.93712 -1.65716 1.51372 -5.96248 -1.69909 1.52388 -5.98768 -1.7411 1.53411 
-6.01272 -1.78318 1.54441 -6.0376 -1.82535 1.55478 -6.06233 -1.86758 1.56521 
-6.08692 -1.90988 1.57571 -6.11137 -1.95224 1.58627 -6.13568 -1.99467 1.5969 
-6.15986 -2.03716 1.60758 -6.18392 -2.0797 1.61833 -6.20786 -2.1223 1.62914 
-6.23168 -2.16494 1.64001 -6.2554 -2.20763 1.65093 -6.27901 -2.25037 1.66192 
-6.30251 -2.29314 1.67296 -6.32593 -2.33596 1.68405 -6.34926 -2.3788 1.69519 
-6.3725 -2.42168 1.70639 -6.39566 -2.46459 1.71764 -6.41874 -2.50752 1.72895 
-6.44176 -2.55048 1.74029 -6.4647 -2.59346 1.75168 -6.48758 -2.63646 1.76312 
-6.5104 -2.67949 1.77459 -6.53317 -2.72253 1.78611 -6.55588 -2.76559 1.79766 
-6.57854 -2.80867 1.80924 -6.60115 -2.85177 1.82085 -6.62372 -2.89488 1.83249 
-6.64626 -2.938 1.84416 -6.66876 -2.98113 1.85585 -6.69122 -3.02428 1.86757 
-6.71366 -3.06743 1.8793 -6.73608 -3.11059 1.89105 -6.75848 -3.15376 1.90282 
-6.78086 -3.19693 1.91459 -6.80322 -3.24011 1.92638 -6.82558 -3.28329 1.93818 
-6.84793 -3.32647 1.94998 -6.87028 -3.36965 1.96179 -6.89263 -3.41283 1.97359 
-6.91499 -3.45601 1.98538 -6.93735 -3.49919 1.99717 -6.95971 -3.54237 2.00894 
-6.98209 -3.58555 2.02069 -7.00448 -3.62873 2.03242 -7.02689 -3.67191 2.04412 
-7.04932 -3.71509 2.05579 -7.07176 -3.75827 2.06742 -7.09423 -3.80144 2.07901 
-7.11673 -3.84462 2.09056 -7.13926 -3.88779 2.10206 -7.16181 -3.93096 2.1135 
-7.18441 -3.97413 2.12489 -7.20703 -4.01729 2.13621 -7.2297 -4.06046 2.14747 
-7.25241 -4.10362 2.15866 -7.27517 -4.14678 2.16977 -7.29797 -4.18993 2.18081 
-7.32082 -4.23309 2.19176 -7.34372 -4.27624 2.20262 -7.36667 -4.31939 2.21338 
-7.38967 -4.36254 2.22403 -7.41273 -4.40569 2.23456 -7.43583 -4.44884 2.24498 
-7.45899 -4.492 2.25526 -7.48221 -4.53516 2.26541 -7.50548 -4.57832 2.27541 
-7.5288 -4.62149 2.28525 -7.55218 -4.66466 2.29494 -7.57561 -4.70784 2.30445 
-7.59911 -4.75103 2.31379 -7.62266 -4.79422 2.32295 -7.64626 -4.83742 2.33191 
-7.66993 -4.88064 2.34067 -7.69366 -4.92386 2.34923 -7.71744 -4.96709 2.35756 
-7.74129 -5.01034 2.36568 -7.7652 -5.0536 2.37357 -7.78917 -5.09688 2.38121 
-7.8132 -5.14017 2.38861 -7.83729 -5.18347 2.39574 -7.86143 -5.22679 2.4026 
-7.88561 -5.27014 2.40916 -7.90984 -5.3135 2.41543 -7.93411 -5.35688 2.42138 
-7.95842 -5.40028 2.427 -7.98277 -5.44371 2.43228 -8.00714 -5.48716 2.43721 
-8.03155 -5.53064 2.44177 -8.05598 -5.57414 2.44596 -8.08043 -5.61767 2.44976 
-8.10489 -5.66123 2.45315 -8.12937 -5.70482 2.45612 -8.15386 -5.74845 2.45867 
-8.17836 -5.7921 2.46077 -8.20286 -5.83579 2.46242 -8.22736 -5.87951 2.46361 
-8.25186 -5.92327 2.46431 -8.27635 -5.96707 2.46452 -8.30083 -6.0109 2.46422 
-8.32527 -6.05475 2.4634 -8.34967 -6.09863 2.46204 -8.37401 -6.14253 2.46012 
-8.39827 -6.18644 2.45764 -8.42245 -6.23036 2.45456 -8.44654 -6.27428 2.45088 
-8.4705 -6.31819 2.44658 -8.49434 -6.3621 2.44165 -8.51804 -6.40599 2.43607 
-8.54159 -6.44986 2.42982 -8.56497 -6.49371 2.42288 -8.58816 -6.53752 2.41525 
-8.61116 -6.5813 2.4069 -8.63396 -6.62504 2.39782 -8.65652 -6.66873 2.38799 
-8.67885 -6.71237 2.3774 -8.70094 -6.75595 2.36603 -8.72275 -6.79947 2.35386 
-8.74429 -6.84292 2.34089 -8.76554 -6.8863 2.3271 -8.78649 -6.92958 2.3125 
-8.80711 -6.97277 2.2971 -8.82741 -7.01585 2.2809 -8.84736 -7.0588 2.26393 
-8.86696 -7.10162 2.24618 -8.88618 -7.14429 2.22766 -8.90502 -7.1868 2.20838 
-8.92346 -7.22914 2.18835 -8.94149 -7.2713 2.16758 -8.9591 -7.31327 2.14607 
-8.97627 -7.35503 2.12383 -8.99299 -7.39657 2.10088 -9.00925 -7.43789 2.07721 
-9.02503 -7.47896 2.05285 -9.04032 -7.51979 2.02778 -9.05511 -7.56034 2.00203 
-9.06938 -7.60063 1.97561 -9.08312 -7.64062 1.94851 -9.09631 -7.68032 1.92075 
-9.10896 -7.71971 1.89234 -9.12106 -7.7588 1.8633 -9.13261 -7.79758 1.83365 
-9.14363 -7.83605 1.80341 -9.15411 -7.87423 1.7726 -9.16407 -7.91211 1.74124 
-9.1735 -7.9497 1.70935 -9.18242 -7.98699 1.67696 -9.19082 -8.02399 1.64407 
-9.19872 -8.0607 1.61072 -9.20612 -8.09713 1.57693 -9.21301 -8.13326 1.54271 
-9.21942 -8.16912 1.50808 -9.22534 -8.2047 1.47307 -9.23078 -8.23999 1.43769 
-9.23574 -8.27501 1.40197 -9.24022 -8.30976 1.36593 -9.24425 -8.34423 1.32958 
-9.24781 -8.37844 1.29296 -9.25091 -8.41237 1.25607 -9.25357 -8.44604 1.21894 
-9.25578 -8.47945 1.18158 -9.25755 -8.51261 1.14399 -9.25889 -8.54552 1.10619 
-9.25981 -8.57818 1.06819 -9.26031 -8.61061 1.03 -9.2604 -8.64281 0.991612 
-9.26009 -8.67479 0.95305 -9.25938 -8.70655 0.914319 -9.25829 -8.7381 0.875428 
-9.25681 -8.76945 0.836386 -9.25496 -8.80059 0.797202 -9.25274 -8.83154 0.757884 
-9.25016 -8.86231 0.718441 -9.24723 -8.8929 0.678883 -9.24395 -8.92331 0.639218 
-9.24033 -8.95355 0.599455 -9.23638 -8.98363 0.559602 -9.23211 -9.01356 0.51967 
-9.22751 -9.04333 0.479665 -9.2226 -9.07297 0.439599 -9.21739 -9.10246 0.399475 
-9.21187 -9.13182 0.359298 -9.20606 -9.16104 0.319071 -9.19995 -9.19014 0.278799 
-9.19355 -9.21912 0.238484 -9.18686 -9.24798 0.198131 -9.17989 -9.27672 0.157744 
-9.17264 -9.30534 0.117325 -9.16511 -9.33386 0.07688 -9.15731 -9.36228 0.0364111 
-9.14925 -9.39059 -0.00407751 -9.14092 -9.41881 -0.0445821 -9.13234 -9.44693 -0.085099 
-9.1235 -9.47497 -0.125624 -9.1144 -9.50292 -0.166155 -9.10506 -9.53079 -0.206686 
-9.09548 -9.55858 -0.247214 -9.08565 -9.58629 -0.287737 -9.07559 -9.61394 -0.328249 
-9.0653 -9.64152 -0.368747 -9.05478 -9.66903 -0.409228 -9.04403 -9.69649 -0.449689 
-9.03306 -9.72389 -0.490127 -9.02186 -9.75124 -0.530539 -9.01044 -9.77854 -0.570921 
-8.9988 -9.80578 -0.611272 -8.98694 -9.83299 -0.651588 -8.97486 -9.86015 -0.691866 
-8.96257 -9.88727 -0.732103 -8.95007 -9.91435 -0.772296 -8.93735 -9.94141 -0.812442 
-8.92442 -9.96843 -0.852539 -8.91128 -9.99542 -0.892583 -8.89793 -10.0224 -0.932572 
-8.88438 -10.0493 -0.972502 -8.87063 -10.0763 -1.01237 -8.85667 -10.1032 -1.05217 
-8.84251 -10.1301 -1.09191 -8.82815 -10.157 -1.13158 -8.8136 -10.1839 -1.17117 
-8.79885 -10.2108 -1.21069 -8.7839 -10.2376 -1.25013 -8.76876 -10.2645 -1.2895 
-8.75344 -10.2914 -1.32879 -8.73792 -10.3183 -1.36801 -8.72221 -10.3451 -1.40715 
[...]
CELL_DATA 1
FIELD FieldData 2
Length 1 1 double
63.894621201 
Tortuosity 1 1 double
0.88772966208 
POINT_DATA 1278
SCALARS MaximumInscribedSphereRadius float
LOOKUP_TABLE default
0.93 0.936288 0.942576 0.948864 0.955152 0.96144 0.967728 0.974016 0.980304 
0.986592 0.99288 0.999169 1.00546 1.01174 1.01803 1.02432 1.03061 1.0369 
1.04318 1.04947 1.05576 1.06194 1.06793 1.07393 1.07993 1.08593 1.09192 
1.09792 1.10392 1.10991 1.11591 1.12191 1.12791 1.1339 1.1399 1.1459 
1.15189 1.15789 1.16389 1.16988 1.17588 1.17572 1.17136 1.167 1.16264 
1.15828 1.15392 1.14956 1.1452 1.14085 1.13649 1.13213 1.12777 1.12341 
1.11905 1.11469 1.11033 1.10598 1.10162 1.09726 1.0929 1.0878 1.07785 
1.06791 1.05796 1.04801 1.03807 1.02812 1.01818 1.00823 0.998287 0.988342 
0.978396 0.968451 0.958505 0.94856 0.938614 0.928669 0.918723 0.908778 0.898832 
0.888887 0.880624 0.872492 0.864359 0.856227 0.848095 0.839963 0.831831 0.823699 
0.815567 0.807435 0.799303 0.79117 0.783038 0.774906 0.766774 0.758642 0.75051 
0.742378 0.734245 0.726113 0.724406 0.726165 0.727924 0.729683 0.731443 0.733202 
0.734961 0.736721 0.73848 0.740239 0.741998 0.743758 0.745517 0.747276 0.749035 
0.750795 0.752554 0.754313 0.756072 0.757832 0.76241 0.771684 0.780958 0.790232 
0.799506 0.80878 0.818053 0.827327 0.836601 0.845875 0.855149 0.864423 0.873697 
0.882971 0.892245 0.901519 0.910792 0.920066 0.92934 0.938614 0.947845 0.956682 
0.965518 0.974355 0.983191 0.992028 1.00086 1.0097 1.01854 1.02737 1.03621 
1.04505 1.05388 1.06272 1.07156 1.08039 1.08923 1.09807 1.1069 1.11574 
1.12458 1.13324 1.14186 1.15049 1.15911 1.16773 1.17636 1.18498 1.19361 
1.20223 1.21085 1.21948 1.2281 1.23673 1.24535 1.25398 1.2626 1.27122 
1.27985 1.28847 1.2971 1.30574 1.31441 1.32307 1.33174 1.3404 1.34906 
1.35773 1.36639 1.37506 1.38372 1.39239 1.40105 1.40972 1.41838 1.42704 
1.43571 1.44437 1.45304 1.4617 1.47037 1.4749 1.46786 1.46082 1.45378 
1.44674 1.4397 1.43265 1.42561 1.41857 1.41153 1.40449 1.39745 1.39041 
1.38337 1.37633 1.36929 1.36225 1.35521 1.34817 1.34113 1.33409 1.31795 
1.30168 1.28541 1.26913 1.25286 1.23659 1.22032 1.20404 1.18777 1.1715 
1.15522 1.13895 1.12268 1.10641 1.09013 1.07386 1.05759 1.04131 1.02504 
1.00877 1.00938 1.01686 1.02433 1.03181 1.03929 1.04677 1.05425 1.06173 
1.06921 1.07669 1.08417 1.09165 1.09913 1.10661 1.11409 1.12157 1.12905 
1.13653 1.14401 1.15149 1.15784 1.16274 1.16765 1.17256 1.17747 1.18238 
1.18729 1.1922 1.19711 1.20202 1.20693 1.21184 1.21675 1.22166 1.22657 
1.23148 1.23639 1.2413 1.24621 1.25112 1.25501 1.25435 1.25369 1.25303 
1.25237 1.25171 1.25105 1.25039 1.24973 1.24907 1.2484 1.24774 1.24708 
1.24642 1.24576 1.2451 1.24444 1.24378 1.24312 1.24246 1.2418 1.23299 
1.22338 1.21377 1.20415 1.19454 1.18493 1.17532 1.1657 1.15609 1.14648 
1.13686 1.12725 1.11764 1.10802 1.09841 1.0888 1.07919 1.06957 1.05996 
1.05035 1.04318 1.03742 1.03166 1.02589 1.02013 1.01437 1.00861 1.00284 
0.997081 0.991318 0.985555 0.979792 0.974029 0.968266 0.962503 0.95674 0.950978 
0.945215 0.939452 0.933689 0.930007 0.930026 0.930045 0.930064 0.930083 0.930102 
0.93012 0.930139 0.930158 0.930177 0.930196 0.930215 0.930234 0.930253 0.930272 
0.930291 0.93031 0.930329 0.930348 0.930367 0.930555 0.932677 0.934799 0.936921 
0.939043 0.941165 0.943287 0.945409 0.947531 0.949652 0.951774 0.953896 0.956018 
0.95814 0.960262 0.962384 0.964506 0.966628 0.96875 0.970872 0.972993 0.97724 
0.981982 0.986725 0.991467 0.996209 1.00095 1.00569 1.01044 1.01518 1.01992 
1.02466 1.02941 1.03415 1.03889 1.04363 1.04838 1.05312 1.05786 1.0626 
1.06734 1.0768 1.09087 1.10494 1.11901 1.13308 1.14715 1.16121 1.17528 
1.18935 1.20342 1.21749 1.23156 1.24563 1.25969 1.27376 1.28783 1.3019 
1.31597 1.33004 1.34411 1.35777 1.37059 1.38341 1.39623 1.40905 1.42187 
1.43468 1.4475 1.46032 1.47314 1.48596 1.49878 1.5116 1.52442 1.53724 
1.55006 1.56288 1.5757 1.58852 1.60134 1.61416 1.60504 1.5912 1.57735 
1.56351 1.54967 1.53582 1.52198 1.50813 1.49429 1.48045 1.4666 1.45276 
1.43892 1.42507 1.41123 1.39738 1.38354 1.3697 1.35585 1.34201 1.33963 
1.33996 1.3403 1.34063 1.34097 1.3413 1.34164 1.34197 1.3423 1.34264 
1.34297 1.34331 1.34364 1.34398 1.34431 1.34465 1.34498 1.34531 1.34565 
1.34598 1.35175 1.35889 1.36604 1.37319 1.38033 1.38748 1.39462 1.40177 
1.40891 1.41606 1.42321 1.43035 1.4375 1.44464 1.45179 1.45894 1.46608 
1.47323 1.48037 1.48752 1.48713 1.47926 1.4714 1.46353 1.45566 1.44779 
1.43992 1.43205 1.42418 1.41631 1.40845 1.40058 1.39271 1.38484 1.37697 
1.3691 1.36123 1.35336 1.3455 1.33763 1.32869 1.31582 1.30294 1.29006 
1.27718 1.2643 1.25142 1.23854 1.22566 1.21278 1.1999 1.18703 1.17415 
1.16127 1.14839 1.13551 1.12263 1.10975 1.09687 1.08399 1.07112 1.07227 
1.07431 1.07634 1.07837 1.08041 1.08244 1.08447 1.08651 1.08854 1.09058 
1.09261 1.09464 1.09668 1.09871 1.10074 1.10278 1.10481 1.10684 1.10888 
1.11091 1.11688 1.12487 1.13286 1.14085 1.14884 1.15683 1.16482 1.17281 
1.1808 1.18879 1.19678 1.20477 1.21276 1.22075 1.22874 1.23672 1.24471 
1.2527 1.26069 1.26868 1.27665 1.28458 1.29252 1.30045 1.30838 1.31631 
1.32425 1.33218 1.34011 1.34804 1.35598 1.36391 1.37184 1.37977 1.38771 
1.39564 1.40357 1.4115 1.41944 1.42737 1.43376 1.42717 1.42058 1.41398 
1.40739 1.4008 1.39421 1.38761 1.38102 1.37443 1.36784 1.36124 1.35465 
1.34806 1.34146 1.33487 1.32828 1.32169 1.31509 1.3085 1.30191 1.29369 
1.28516 1.27664 1.26811 1.25958 1.25106 1.24253 1.23401 1.22548 1.21695 
1.20843 1.1999 1.19137 1.18285 1.17432 1.16579 1.15727 1.14874 1.14022 
1.13169 1.13555 1.1485 1.16144 1.17439 1.18734 1.20029 1.21324 1.22619 
1.23914 1.25208 1.26503 1.27798 1.29093 1.30388 1.31683 1.32977 1.34272 
1.35567 1.36862 1.38157 1.39008 1.38829 1.3865 1.38471 1.38292 1.38113 
1.37935 1.37756 1.37577 1.37398 1.37219 1.3704 1.36861 1.36682 1.36503 
1.36324 1.36145 1.35966 1.35787 1.35608 1.35393 1.33784 1.32175 1.30565 
1.28956 1.27347 1.25738 1.24128 1.22519 1.2091 1.19301 1.17691 1.16082 
1.14473 1.12864 1.11254 1.09645 1.08036 1.06427 1.04817 1.03208 1.02896 
1.03025 1.03154 1.03284 1.03413 1.03542 1.03671 1.038 1.03929 1.04058 
1.04187 1.04316 1.04445 1.04574 1.04703 1.04832 1.04961 1.0509 1.05219 
1.05349 1.0578 1.06554 1.07328 1.08102 1.08876 1.09649 1.10423 1.11197 
1.11971 1.12745 1.13519 1.14292 1.15066 1.1584 1.16614 1.17388 1.18162 
1.18935 1.19709 1.20483 1.21136 1.21279 1.21421 1.21564 1.21707 1.21849 
1.21992 1.22134 1.22277 1.22419 1.22562 1.22705 1.22847 1.2299 1.23132 
1.23275 1.23417 1.2356 1.23703 1.23845 1.23988 1.24 1.24 1.24 
1.24 1.24 1.24 1.24 1.24 1.24 1.24 1.24 1.24 
1.24 1.24 1.24 1.24 1.24 1.24 1.24 1.24 1.24 
1.24 1.24 1.24 1.24 1.24 1.24 1.24 1.24 1.24 
1.24 1.24 1.24 1.24 1.24 1.24 1.24 1.24 1.24 
1.24 1.24 1.24 1.24 1.24 1.24 1.24 1.24 1.24 
1.24 1.24 1.24 1.24 1.24 1.24 1.24 1.24 1.24 
1.24 1.24 1.24 1.24008 1.24095 1.24182 1.24269 1.24357 1.24444 
1.24531 1.24618 1.24706 1.24793 1.2488 1.24967 1.25055 1.25142 1.25229 
1.25317 1.25404 1.25491 1.25578 1.25666 1.25753 1.2624 1.26818 1.27396 
1.27974 1.28553 1.29131 1.29709 1.30287 1.30865 1.31444 1.32022 1.326 
1.33178 1.33756 1.34335 1.34913 1.35491 1.36069 1.36647 1.37225 1.37817 
1.38421 1.39024 1.39627 1.4023 1.40834 1.41437 1.4204 1.42644 1.43247 
1.4385 1.44453 1.45057 1.4566 1.46263 1.46867 1.4747 1.48073 1.48676 
1.4928 1.49625 1.49266 1.48908 1.48549 1.48191 1.47833 1.47474 1.47116 
1.46757 1.46399 1.4604 1.45682 1.45323 1.44965 1.44607 1.44248 1.4389 
1.43531 1.43173 1.42814 1.42456 1.41589 1.40717 1.39845 1.38974 1.38102 
1.37231 1.36359 1.35488 1.34616 1.33744 1.32873 1.32001 1.3113 1.30258 
1.29386 1.28515 1.27643 1.26772 1.259 1.25029 1.24055 1.23041 1.22026 
1.21012 1.19997 1.18983 1.17969 1.16954 1.1594 1.14926 1.13911 1.12897 
1.11882 1.10868 1.09854 1.08839 1.07825 1.0681 1.05796 1.04782 1.04374 
1.04749 1.05124 1.055 1.05875 1.0625 1.06625 1.07001 1.07376 1.07751 
1.08127 1.08502 1.08877 1.09253 1.09628 1.10003 1.10378 1.10754 1.11129 
1.11504 1.12066 1.13617 1.15168 1.16718 1.18269 1.1982 1.21371 1.22921 
1.24472 1.26023 1.27574 1.29125 1.30675 1.32226 1.33777 1.35328 1.36878 
1.38429 1.3998 1.41531 1.43082 1.42772 1.42211 1.4165 1.41089 1.40529 
1.39968 1.39407 1.38846 1.38285 1.37724 1.37164 1.36603 1.36042 1.35481 
1.3492 1.3436 1.33799 1.33238 1.32677 1.32116 1.30936 1.29347 1.27758 
1.26169 1.2458 1.22991 1.21402 1.19813 1.18224 1.16635 1.15046 1.13457 
1.11868 1.10279 1.0869 1.07101 1.05512 1.03923 1.02334 1.00745 0.998488 
1.00396 1.00944 1.01491 1.02038 1.02586 1.03133 1.0368 1.04228 1.04775 
1.05323 1.0587 1.06417 1.06965 1.07512 1.08059 1.08607 1.09154 1.09702 
1.10249 1.10811 1.11673 1.12534 1.13396 1.14258 1.1512 1.15982 1.16843 
1.17705 1.18567 1.19429 1.2029 1.21152 1.22014 1.22876 1.23737 1.24599 
1.25461 1.26323 1.27184 1.28046 1.28498 1.28825 1.29153 1.2948 1.29808 
1.30136 1.30463 1.30791 1.31118 1.31446 1.31774 1.32101 1.32429 1.32756 
1.33084 1.33412 1.33739 1.34067 1.34395 1.34722 1.34918 1.34978 1.35037 
1.35097 1.35156 1.35216 1.35275 1.35335 1.35394 1.35454 1.35513 1.35573 
1.35632 1.35692 1.35752 1.35811 1.35871 1.3593 1.3599 1.36049 1.36072 
1.35957 1.35843 1.35729 1.35615 1.355 1.35386 1.35272 1.35158 1.35043 
1.34929 1.34815 1.34701 1.34586 1.34472 1.34358 1.34243 1.34129 1.34015 
1.33901 1.33786 1.3474 1.35768 1.36797 1.37825 1.38853 1.39881 1.40909 
1.41937 1.42965 1.43993 1.45022 1.4605 1.47078 1.48106 1.49134 1.50162 
1.5119 1.52219 1.53247 1.54275 1.55553 1.56963 1.58372 1.59781 1.6119 
1.62599 1.64009 1.65418 1.66827 1.68236 1.69645 1.71054 1.72464 1.73873 
1.75282 1.76691 1.781 1.79509 1.80919 1.82328 1.83135 1.82968 1.82801 
1.82634 1.82467 1.823 1.82133 1.81966 1.81799 1.81632 1.81465 1.81298 
1.81131 1.80964 1.80797 1.8063 1.80463 1.80296 1.80129 1.79962 1.7976 
1.7921 1.7866 1.7811 1.7756 1.7701 1.7646 1.7591 1.7536 1.7481 
1.74261 1.73711 1.73161 1.72611 1.72061 1.71511 1.70961 1.70411 1.69861 
1.69311 1.68761 1.68606 1.68513 1.6842 1.68327 1.68233 1.6814 1.68047 
1.67953 1.6786 1.67767 1.67674 1.6758 1.67487 1.67394 1.67301 1.67207 
1.67114 1.67021 1.66928 1.66834 1.66678 1.66432 1.66187 1.65942 1.65697 
1.65452 1.65207 1.64962 1.64717 1.64472 1.64226 1.63981 1.63736 1.63491 
1.63246 1.63001 1.62756 1.62511 1.62265 1.6202 1.61719 1.61383 1.61047 
1.60711 1.60375 1.6004 1.59704 1.59368 1.59032 1.58696 1.5836 1.58024 
1.57688 1.57352 1.57016 1.5668 1.56344 1.56008 1.55672 1.55336 1.55 

TEXTURE_COORDINATES TCoords 2 float
0 0 0.000783085 0 0.00156617 0 0.00234926 0 0.00313234 
0 0.00391543 0 0.00469851 0 0.0054816 0 0.00626468 0 
0.00704777 0 0.00783085 0 0.00861394 0 0.00939702 0 0.0101801 
0 0.0109632 0 0.0117463 0 0.0125294 0 0.0133125 0 
0.0140955 0 0.0148786 0 0.0156617 0 0.0164448 0 0.0172279 
0 0.018011 0 0.018794 0 0.0195771 0 0.0203602 0 
0.0211433 0 0.0219264 0 0.0227095 0 0.0234926 0 0.0242756 
0 0.0250587 0 0.0258418 0 0.0266249 0 0.027408 0 
0.0281911 0 0.0289742 0 0.0297572 0 0.0305403 0 0.0313234 
0 0.0321065 0 0.0328896 0 0.0336727 0 0.0344558 0 
0.0352388 0 0.0360219 0 0.036805 0 0.0375881 0 0.0383712 
0 0.0391543 0 0.0399374 0 0.0407204 0 0.0415035 0 
0.0422866 0 0.0430697 0 0.0438528 0 0.0446359 0 0.045419 
0 0.046202 0 0.0469851 0 0.0477682 0 0.0485513 0 
0.0493344 0 0.0501175 0 0.0509005 0 0.0516836 0 0.0524667 
0 0.0532498 0 0.0540329 0 0.054816 0 0.0555991 0 
0.0563821 0 0.0571652 0 0.0579483 0 0.0587314 0 0.0595145 
0 0.0602976 0 0.0610807 0 0.0618637 0 0.0626468 0 
0.0634299 0 0.064213 0 0.0649961 0 0.0657792 0 0.0665623 
0 0.0673453 0 0.0681284 0 0.0689115 0 0.0696946 0 
0.0704777 0 0.0712608 0 0.0720439 0 0.0728269 0 0.07361 
0 0.0743931 0 0.0751762 0 0.0759593 0 0.0767424 0 
0.0775255 0 0.0783085 0 0.0790916 0 0.0798747 0 0.0806578 
0 0.0814409 0 0.082224 0 0.083007 0 0.0837901 0 
0.0845732 0 0.0853563 0 0.0861394 0 0.0869225 0 0.0877056 
0 0.0884886 0 0.0892717 0 0.0900548 0 0.0908379 0 
0.091621 0 0.0924041 0 0.0931872 0 0.0939702 0 0.0947533 
0 0.0955364 0 0.0963195 0 0.0971026 0 0.0978857 0 
0.0986688 0 0.0994518 0 0.100235 0 0.101018 0 0.101801 
0 0.102584 0 0.103367 0 0.10415 0 0.104933 0 
0.105717 0 0.1065 0 0.107283 0 0.108066 0 0.108849 
0 0.109632 0 0.110415 0 0.111198 0 0.111981 0 
0.112764 0 0.113547 0 0.11433 0 0.115114 0 0.115897 
0 0.11668 0 0.117463 0 0.118246 0 0.119029 0 
0.119812 0 0.120595 0 0.121378 0 0.122161 0 0.122944 
0 0.123727 0 0.124511 0 0.125294 0 0.126077 0 
0.12686 0 0.127643 0 0.128426 0 0.129209 0 0.129992 
0 0.130775 0 0.131558 0 0.132341 0 0.133125 0 
0.133908 0 0.134691 0 0.135474 0 0.136257 0 0.13704 
0 0.137823 0 0.138606 0 0.139389 0 0.140172 0 
0.140955 0 0.141738 0 0.142522 0 0.143305 0 0.144088 
0 0.144871 0 0.145654 0 0.146437 0 0.14722 0 
0.148003 0 0.148786 0 0.149569 0 0.150352 0 0.151135 
0 0.151919 0 0.152702 0 0.153485 0 0.154268 0 
0.155051 0 0.155834 0 0.156617 0 0.1574 0 0.158183 
0 0.158966 0 0.159749 0 0.160533 0 0.161316 0 
0.162099 0 0.162882 0 0.163665 0 0.164448 0 0.165231 
0 0.166014 0 0.166797 0 0.16758 0 0.168363 0 
0.169146 0 0.16993 0 0.170713 0 0.171496 0 0.172279 
0 0.173062 0 0.173845 0 0.174628 0 0.175411 0 
0.176194 0 0.176977 0 0.17776 0 0.178543 0 0.179327 
0 0.18011 0 0.180893 0 0.181676 0 0.182459 0 
0.183242 0 0.184025 0 0.184808 0 0.185591 0 0.186374 
0 0.187157 0 0.18794 0 0.188724 0 0.189507 0 
0.19029 0 0.191073 0 0.191856 0 0.192639 0 0.193422 
0 0.194205 0 0.194988 0 0.195771 0 0.196554 0 
0.197338 0 0.198121 0 0.198904 0 0.199687 0 0.20047 
0 0.201253 0 0.202036 0 0.202819 0 0.203602 0 
0.204385 0 0.205168 0 0.205951 0 0.206735 0 0.207518 
0 0.208301 0 0.209084 0 0.209867 0 0.21065 0 
0.211433 0 0.212216 0 0.212999 0 0.213782 0 0.214565 
0 0.215348 0 0.216132 0 0.216915 0 0.217698 0 
0.218481 0 0.219264 0 0.220047 0 0.22083 0 0.221613 
0 0.222396 0 0.223179 0 0.223962 0 0.224745 0 
0.225529 0 0.226312 0 0.227095 0 0.227878 0 0.228661 
0 0.229444 0 0.230227 0 0.23101 0 0.231793 0 
0.232576 0 0.233359 0 0.234143 0 0.234926 0 0.235709 
0 0.236492 0 0.237275 0 0.238058 0 0.238841 0 
0.239624 0 0.240407 0 0.24119 0 0.241973 0 0.242756 
0 0.24354 0 0.244323 0 0.245106 0 0.245889 0 
0.246672 0 0.247455 0 0.248238 0 0.249021 0 0.249804 
0 0.250587 0 0.25137 0 0.252153 0 0.252937 0 
0.25372 0 0.254503 0 0.255286 0 0.256069 0 0.256852 
0 0.257635 0 0.258418 0 0.259201 0 0.259984 0 
0.260767 0 0.261551 0 0.262334 0 0.263117 0 0.2639 
0 0.264683 0 0.265466 0 0.266249 0 0.267032 0 
0.267815 0 0.268598 0 0.269381 0 0.270164 0 0.270948 
0 0.271731 0 0.272514 0 0.273297 0 0.27408 0 
0.274863 0 0.275646 0 0.276429 0 0.277212 0 0.277995 
0 0.278778 0 0.279561 0 0.280345 0 0.281128 0 
0.281911 0 0.282694 0 0.283477 0 0.28426 0 0.285043 
0 0.285826 0 0.286609 0 0.287392 0 0.288175 0 
0.288958 0 0.289742 0 0.290525 0 0.291308 0 0.292091 
0 0.292874 0 0.293657 0 0.29444 0 0.295223 0 
0.296006 0 0.296789 0 0.297572 0 0.298356 0 0.299139 
0 0.299922 0 0.300705 0 0.301488 0 0.302271 0 
0.303054 0 0.303837 0 0.30462 0 0.305403 0 0.306186 
0 0.306969 0 0.307753 0 0.308536 0 0.309319 0 
0.310102 0 0.310885 0 0.311668 0 0.312451 0 0.313234 
0 0.314017 0 0.3148 0 0.315583 0 0.316366 0 
0.31715 0 0.317933 0 0.318716 0 0.319499 0 0.320282 
0 0.321065 0 0.321848 0 0.322631 0 0.323414 0 
0.324197 0 0.32498 0 0.325763 0 0.326547 0 0.32733 
0 0.328113 0 0.328896 0 0.329679 0 0.330462 0 
0.331245 0 0.332028 0 0.332811 0 0.333594 0 0.334377 
0 0.335161 0 0.335944 0 0.336727 0 0.33751 0 
0.338293 0 0.339076 0 0.339859 0 0.340642 0 0.341425 
0 0.342208 0 0.342991 0 0.343774 0 0.344558 0 
0.345341 0 0.346124 0 0.346907 0 0.34769 0 0.348473 
0 0.349256 0 0.350039 0 0.350822 0 0.351605 0 
0.352388 0 0.353171 0 0.353955 0 0.354738 0 0.355521 
0 0.356304 0 0.357087 0 0.35787 0 0.358653 0 
0.359436 0 0.360219 0 0.361002 0 0.361785 0 0.362569 
0 0.363352 0 0.364135 0 0.364918 0 0.365701 0 
0.366484 0 0.367267 0 0.36805 0 0.368833 0 0.369616 
0 0.370399 0 0.371182 0 0.371966 0 0.372749 0 
0.373532 0 0.374315 0 0.375098 0 0.375881 0 0.376664 
0 0.377447 0 0.37823 0 0.379013 0 0.379796 0 
0.380579 0 0.381363 0 0.382146 0 0.382929 0 0.383712 
0 0.384495 0 0.385278 0 0.386061 0 0.386844 0 
0.387627 0 0.38841 0 0.389193 0 0.389977 0 0.39076 
0 0.391543 0 0.392326 0 0.393109 0 0.393892 0 
0.394675 0 0.395458 0 0.396241 0 0.397024 0 0.397807 
0 0.39859 0 0.399374 0 0.400157 0 0.40094 0 
0.401723 0 0.402506 0 0.403289 0 0.404072 0 0.404855 
0 0.405638 0 0.406421 0 0.407204 0 0.407987 0 
0.408771 0 0.409554 0 0.410337 0 0.41112 0 0.411903 
0 0.412686 0 0.413469 0 0.414252 0 0.415035 0 
0.415818 0 0.416601 0 0.417385 0 0.418168 0 0.418951 
0 0.419734 0 0.420517 0 0.4213 0 0.422083 0 
0.422866 0 0.423649 0 0.424432 0 0.425215 0 0.425998 
0 0.426782 0 0.427565 0 0.428348 0 0.429131 0 
0.429914 0 0.430697 0 0.43148 0 0.432263 0 0.433046 
0 0.433829 0 0.434612 0 0.435395 0 0.436179 0 
0.436962 0 0.437745 0 0.438528 0 0.439311 0 0.440094 
0 0.440877 0 0.44166 0 0.442443 0 0.443226 0 
0.444009 0 0.444792 0 0.445576 0 0.446359 0 0.447142 
0 0.447925 0 0.448708 0 0.449491 0 0.450274 0 
0.451057 0 0.45184 0 0.452623 0 0.453406 0 0.45419 
0 0.454973 0 0.455756 0 0.456539 0 0.457322 0 
0.458105 0 0.458888 0 0.459671 0 0.460454 0 0.461237 
0 0.46202 0 0.462803 0 0.463587 0 0.46437 0 
0.465153 0 0.465936 0 0.466719 0 0.467502 0 0.468285 
0 0.469068 0 0.469851 0 0.470634 0 0.471417 0 
0.4722 0 0.472984 0 0.473767 0 0.47455 0 0.475333 
0 0.476116 0 0.476899 0 0.477682 0 0.478465 0 
0.479248 0 0.480031 0 0.480814 0 0.481597 0 0.482381 
0 0.483164 0 0.483947 0 0.48473 0 0.485513 0 
0.486296 0 0.487079 0 0.487862 0 0.488645 0 0.489428 
0 0.490211 0 0.490995 0 0.491778 0 0.492561 0 
0.493344 0 0.494127 0 0.49491 0 0.495693 0 0.496476 
0 0.497259 0 0.498042 0 0.498825 0 0.499608 0 
0.500392 0 0.501175 0 0.501958 0 0.502741 0 0.503524 
0 0.504307 0 0.50509 0 0.505873 0 0.506656 0 
0.507439 0 0.508222 0 0.509005 0 0.509789 0 0.510572 
0 0.511355 0 0.512138 0 0.512921 0 0.513704 0 
0.514487 0 0.51527 0 0.516053 0 0.516836 0 0.517619 
0 0.518403 0 0.519186 0 0.519969 0 0.520752 0 
0.521535 0 0.522318 0 0.523101 0 0.523884 0 0.524667 
0 0.52545 0 0.526233 0 0.527016 0 0.5278 0 
0.528583 0 0.529366 0 0.530149 0 0.530932 0 0.531715 
0 0.532498 0 0.533281 0 0.534064 0 0.534847 0 
0.53563 0 0.536413 0 0.537197 0 0.53798 0 0.538763 
0 0.539546 0 0.540329 0 0.541112 0 0.541895 0 
0.542678 0 0.543461 0 0.544244 0 0.545027 0 0.545811 
0 0.546594 0 0.547377 0 0.54816 0 0.548943 0 
0.549726 0 0.550509 0 0.551292 0 0.552075 0 0.552858 
0 0.553641 0 0.554424 0 0.555207 0 0.555991 0 
0.556774 0 0.557557 0 0.55834 0 0.559123 0 0.559906 
0 0.560689 0 0.561472 0 0.562255 0 0.563038 0 
0.563821 0 0.564605 0 0.565388 0 0.566171 0 0.566954 
0 0.567737 0 0.56852 0 0.569303 0 0.570086 0 
0.570869 0 0.571652 0 0.572435 0 0.573218 0 0.574002 
0 0.574785 0 0.575568 0 0.576351 0 0.577134 0 
0.577917 0 0.5787 0 0.579483 0 0.580266 0 0.581049 
0 0.581832 0 0.582615 0 0.583399 0 0.584182 0 
0.584965 0 0.585748 0 0.586531 0 0.587314 0 0.588097 
0 0.58888 0 0.589663 0 0.590446 0 0.591229 0 
0.592013 0 0.592796 0 0.593579 0 0.594362 0 0.595145 
0 0.595928 0 0.596711 0 0.597494 0 0.598277 0 
0.59906 0 0.599843 0 0.600626 0 0.60141 0 0.602193 
0 0.602976 0 0.603759 0 0.604542 0 0.605325 0 
0.606108 0 0.606891 0 0.607674 0 0.608457 0 0.60924 
0 0.610023 0 0.610807 0 0.61159 0 0.612373 0 
0.613156 0 0.613939 0 0.614722 0 0.615505 0 0.616288 
0 0.617071 0 0.617854 0 0.618637 0 0.619421 0 
0.620204 0 0.620987 0 0.62177 0 0.622553 0 0.623336 
0 0.624119 0 0.624902 0 0.625685 0 0.626468 0 
0.627251 0 0.628034 0 0.628818 0 0.629601 0 0.630384 
0 0.631167 0 0.63195 0 0.632733 0 0.633516 0 
0.634299 0 0.635082 0 0.635865 0 0.636648 0 0.637432 
0 0.638215 0 0.638998 0 0.639781 0 0.640564 0 
0.641347 0 0.64213 0 0.642913 0 0.643696 0 0.644479 
0 0.645262 0 0.646045 0 0.646829 0 0.647612 0 
0.648395 0 0.649178 0 0.649961 0 0.650744 0 0.651527 
0 0.65231 0 0.653093 0 0.653876 0 0.654659 0 
0.655442 0 0.656226 0 0.657009 0 0.657792 0 0.658575 
0 0.659358 0 0.660141 0 0.660924 0 0.661707 0 
0.66249 0 0.663273 0 0.664056 0 0.664839 0 0.665623 