# vtk DataFile Version 4.2
vtk output
ASCII
DATASET POLYDATA
POINTS 1277 float
0 0 0 -0.00320338 0.00151399 0.00203012 -0.0125561 0.00591312 0.00794854 
-0.027672 0.0129832 0.0174973 -0.048165 0.0225098 0.0304186 -0.0736489 0.0342789 0.0464543 
-0.103738 0.0480762 0.0653466 -0.138045 0.0636873 0.0868376 -0.176185 0.0808981 0.110669 
-0.217771 0.0994944 0.136584 -0.262418 0.119262 0.164323 -0.309738 0.139986 0.19363 
-0.359347 0.161453 0.224245 -0.410857 0.183448 0.255911 -0.463883 0.205758 0.288371 
-0.518039 0.228167 0.321366 -0.572938 0.250463 0.354638 -0.628194 0.272429 0.387929 
-0.683421 0.293853 0.420982 -0.738234 0.31452 0.453539 -0.792245 0.334215 0.485341 
-0.845069 0.352725 0.51613 -0.896414 0.369886 0.545713 -0.946317 0.385711 0.574117 
-0.994887 0.400252 0.601417 -1.04223 0.413561 0.627689 -1.08846 0.425689 0.653007 
-1.13368 0.436688 0.677448 -1.17801 0.44661 0.701086 -1.22154 0.455506 0.723997 
-1.26439 0.463427 0.746257 -1.30666 0.470426 0.76794 -1.34847 0.476555 0.789122 
-1.38993 0.481864 0.809879 -1.43113 0.486405 0.830285 -1.4722 0.490231 0.850417 
-1.51323 0.493392 0.870349 -1.55434 0.495941 0.890157 -1.59564 0.497929 0.909916 
-1.63723 0.499407 0.929702 -1.67922 0.500428 0.94959 -1.72173 0.50104 0.969652 
-1.76476 0.501255 0.989912 -1.80829 0.501047 1.01035 -1.85227 0.500392 1.03094 
-1.89667 0.499263 1.05167 -1.94143 0.497637 1.07251 -1.98652 0.495486 1.09344 
-2.03189 0.492787 1.11444 -2.07751 0.489513 1.13548 -2.12332 0.485638 1.15655 
-2.1693 0.481139 1.17762 -2.21539 0.475989 1.19868 -2.26156 0.470162 1.21969 
-2.30775 0.463634 1.24064 -2.35394 0.45638 1.26151 -2.40008 0.448372 1.28227 
-2.44612 0.439588 1.3029 -2.49203 0.429999 1.32339 -2.53776 0.419583 1.3437 
-2.58327 0.408312 1.36382 -2.62852 0.396163 1.38373 -2.67348 0.383121 1.4034 
-2.71813 0.369202 1.42286 -2.76249 0.354425 1.4421 -2.80655 0.338806 1.46113 
-2.8503 0.322364 1.47997 -2.89375 0.305117 1.49862 -2.93688 0.287084 1.51708 
-2.97971 0.268282 1.53538 -3.02222 0.24873 1.5535 -3.06441 0.228445 1.57148 
-3.10629 0.207446 1.5893 -3.14784 0.185751 1.60698 -3.18908 0.163379 1.62452 
-3.22998 0.140346 1.64195 -3.27056 0.116671 1.65925 -3.31081 0.0923734 1.67645 
-3.35073 0.0674699 1.69355 -3.39031 0.041979 1.71056 -3.42956 0.0159189 1.72748 
-3.46847 -0.0106924 1.74432 -3.50703 -0.0378375 1.7611 -3.54526 -0.0655023 1.77781 
-3.58315 -0.0936738 1.79446 -3.6207 -0.122339 1.81105 -3.65791 -0.151484 1.82759 
-3.69479 -0.181097 1.84407 -3.73134 -0.211164 1.8605 -3.76755 -0.241672 1.87689 
-3.80344 -0.272609 1.89323 -3.839 -0.30396 1.90953 -3.87422 -0.335713 1.92579 
-3.90913 -0.367855 1.94201 -3.94371 -0.400372 1.9582 -3.97796 -0.433252 1.97436 
-4.0119 -0.466482 1.9905 -4.04551 -0.500048 2.00661 -4.07881 -0.533937 2.0227 
-4.11179 -0.568136 2.03877 -4.14445 -0.602632 2.05483 -4.1768 -0.637413 2.07087 
-4.20883 -0.672464 2.0869 -4.24056 -0.707778 2.10293 -4.27198 -0.743345 2.11895 
-4.30311 -0.779161 2.13496 -4.33395 -0.815216 2.15097 -4.36451 -0.851503 2.16698 
-4.39478 -0.888017 2.18299 -4.42479 -0.924748 2.199 -4.45453 -0.96169 2.21501 
-4.48401 -0.998835 2.23103 -4.51323 -1.03618 2.24705 -4.54221 -1.07371 2.26307 
-4.57095 -1.11142 2.2791 -4.59945 -1.14931 2.29515 -4.62772 -1.18736 2.3112 
-4.65577 -1.22557 2.32726 -4.6836 -1.26394 2.34334 -4.71122 -1.30245 2.35943 
-4.73863 -1.3411 2.37554 -4.76584 -1.37988 2.39167 -4.79286 -1.41878 2.40781 
-4.8197 -1.4578 2.42397 -4.84635 -1.49694 2.44015 -4.87282 -1.53619 2.45634 
-4.89912 -1.57555 2.47253 -4.92526 -1.61502 2.48873 -4.95123 -1.6546 2.50493 
-4.97704 -1.69428 2.52113 -5.0027 -1.73406 2.53733 -5.02821 -1.77394 2.55351 
-5.05358 -1.81392 2.56969 -5.07881 -1.85399 2.58585 -5.10391 -1.89415 2.60199 
-5.12888 -1.93441 2.6181 -5.15373 -1.97475 2.6342 -5.17846 -2.01518 2.65026 
-5.20308 -2.05569 2.66629 -5.22759 -2.09628 2.68228 -5.252 -2.13694 2.69824 
-5.2763 -2.17769 2.71416 -5.30052 -2.21851 2.73002 -5.32465 -2.25939 2.74584 
-5.34869 -2.30035 2.76161 -5.37266 -2.34138 2.77731 -5.39655 -2.38248 2.79294 
-5.42038 -2.42364 2.80849 -5.44414 -2.46487 2.82397 -5.46784 -2.50616 2.83936 
-5.49149 -2.54752 2.85465 -5.51509 -2.58895 2.86984 -5.53864 -2.63043 2.88493 
-5.56216 -2.67198 2.8999 -5.58565 -2.71358 2.91475 -5.6091 -2.75525 2.92947 
-5.63253 -2.79698 2.94407 -5.65594 -2.83876 2.95852 -5.67934 -2.8806 2.97283 
-5.70273 -2.92249 2.98698 -5.72611 -2.96444 3.00098 -5.7495 -3.00644 3.01481 
-5.77289 -3.0485 3.02847 -5.79629 -3.0906 3.04195 -5.81971 -3.13276 3.05523 
-5.84316 -3.17497 3.0683 -5.86664 -3.21723 3.08113 -5.89016 -3.25954 3.09371 
-5.91374 -3.30191 3.10601 -5.93737 -3.34432 3.11801 -5.96108 -3.38679 3.12969 
-5.98485 -3.42931 3.14104 -6.00872 -3.47188 3.15203 -6.03268 -3.5145 3.16264 
-6.05673 -3.55718 3.17286 -6.0809 -3.5999 3.18266 -6.10519 -3.64268 3.19202 
-6.1296 -3.68551 3.20092 -6.15414 -3.72839 3.20935 -6.17883 -3.77133 3.21728 
-6.20367 -3.81431 3.22469 -6.22867 -3.85735 3.23156 -6.25383 -3.90044 3.23787 
-6.27917 -3.94359 3.2436 -6.30469 -3.98677 3.24873 -6.33036 -4.02997 3.25323 
-6.3562 -4.07318 3.25706 -6.38217 -4.11638 3.2602 -6.40829 -4.15954 3.26261 
-6.43453 -4.20264 3.26427 -6.46088 -4.24568 3.26515 -6.48734 -4.28862 3.26522 
-6.51391 -4.33145 3.26444 -6.54056 -4.37416 3.26279 -6.56728 -4.41672 3.26024 
-6.59408 -4.45911 3.25676 -6.62094 -4.50131 3.25232 -6.64785 -4.54332 3.24688 
-6.6748 -4.5851 3.24043 -6.70178 -4.62664 3.23292 -6.72878 -4.66792 3.22434 
-6.7558 -4.70892 3.21464 -6.78282 -4.74962 3.20381 -6.80983 -4.79 3.1918 
-6.83683 -4.83006 3.17862 -6.86378 -4.86978 3.16429 -6.89069 -4.90916 3.14884 
-6.91752 -4.94821 3.13229 -6.94425 -4.9869 3.11469 -6.97088 -5.02524 3.09604 
-6.99738 -5.06323 3.07638 -7.02373 -5.10086 3.05575 -7.04992 -5.13813 3.03416 
-7.07593 -5.17503 3.01166 -7.10173 -5.21156 2.98825 -7.12732 -5.24771 2.96398 
-7.15266 -5.28348 2.93888 -7.17776 -5.31887 2.91296 -7.20257 -5.35388 2.88626 
-7.2271 -5.38849 2.85881 -7.25132 -5.4227 2.83063 -7.27521 -5.45652 2.80176 
-7.29875 -5.48993 2.77222 -7.32192 -5.52293 2.74204 -7.34472 -5.55553 2.71124 
-7.36714 -5.58773 2.67986 -7.38919 -5.61957 2.64791 -7.41086 -5.65105 2.61542 
-7.43217 -5.6822 2.58241 -7.45311 -5.71304 2.5489 -7.47369 -5.74358 2.51492 
-7.49391 -5.77384 2.48049 -7.51377 -5.80384 2.44563 -7.53328 -5.8336 2.41037 
-7.55243 -5.86313 2.37473 -7.57124 -5.89247 2.33872 -7.58969 -5.92162 2.30239 
-7.60781 -5.9506 2.26574 -7.62558 -5.97944 2.2288 -7.64302 -6.00815 2.1916 
-7.66012 -6.03674 2.15415 -7.67689 -6.06525 2.11649 -7.69333 -6.09368 2.07863 
-7.70944 -6.12206 2.04059 -7.72522 -6.1504 2.00241 -7.74069 -6.17872 1.96408 
-7.75583 -6.20701 1.92562 -7.77065 -6.23529 1.88703 -7.78514 -6.26356 1.84832 
-7.79931 -6.29182 1.80949 -7.81317 -6.32009 1.77056 -7.8267 -6.34837 1.73153 
-7.83991 -6.37667 1.6924 -7.8528 -6.40499 1.65319 -7.86537 -6.43334 1.6139 
-7.87762 -6.46173 1.57454 -7.88955 -6.49016 1.53511 -7.90116 -6.51864 1.49562 
-7.91246 -6.54717 1.45608 -7.92343 -6.57576 1.4165 -7.93409 -6.60442 1.37688 
-7.94443 -6.63316 1.33722 -7.95446 -6.66198 1.29754 -7.96417 -6.69088 1.25785 
-7.97356 -6.71988 1.21814 -7.98264 -6.74898 1.17843 -7.9914 -6.77817 1.13872 
-7.99985 -6.80747 1.09902 -8.00799 -6.83688 1.05933 -8.01581 -6.86639 1.01965 
-8.02332 -6.89602 0.980002 -8.03052 -6.92576 0.940377 -8.03741 -6.95562 0.900785 
-8.044 -6.9856 0.86123 -8.05027 -7.01571 0.82172 -8.05623 -7.04594 0.782258 
-8.06189 -7.0763 0.74285 -8.06724 -7.10679 0.703502 -8.07228 -7.13742 0.664219 
-8.07702 -7.16819 0.625006 -8.08146 -7.1991 0.585868 -8.08559 -7.23015 0.546811 
-8.08941 -7.26135 0.507841 -8.09294 -7.2927 0.468962 -8.09616 -7.32421 0.430179 
-8.09908 -7.35586 0.391499 -8.10171 -7.38768 0.352924 -8.10404 -7.41965 0.31446 
-8.10607 -7.45178 0.276109 -8.10781 -7.48406 0.237877 -8.10925 -7.51651 0.199768 
-8.11041 -7.54911 0.161785 -8.11129 -7.58188 0.123932 -8.11187 -7.6148 0.0862151 
-8.11218 -7.64789 0.0486368 -8.1122 -7.68114 0.0112016 -8.11195 -7.71456 -0.0260862 
-8.11141 -7.74814 -0.0632227 -8.1106 -7.78188 -0.100204 -8.10952 -7.81579 -0.137025 
-8.10817 -7.84987 -0.173682 -8.10654 -7.88412 -0.210171 -8.10465 -7.91853 -0.246488 
-8.1025 -7.95312 -0.282629 -8.10008 -7.98787 -0.31859 -8.09739 -8.0228 -0.354366 
-8.09445 -8.05789 -0.389954 -8.09126 -8.09316 -0.42535 -8.08781 -8.1286 -0.460552 
-8.08411 -8.16421 -0.495555 -8.08017 -8.19999 -0.530356 -8.07598 -8.23595 -0.564951 
-8.07156 -8.27207 -0.599338 -8.06689 -8.30837 -0.633511 -8.062 -8.34484 -0.667469 
-8.05687 -8.38148 -0.701208 -8.05152 -8.41829 -0.734723 -8.04594 -8.45528 -0.768012 
-8.04014 -8.49244 -0.80107 -8.03412 -8.52977 -0.833895 -8.02789 -8.56727 -0.866483 
-8.02145 -8.60495 -0.898831 -8.0148 -8.6428 -0.930934 -8.00794 -8.68082 -0.96279 
-8.00088 -8.71902 -0.994395 -7.99362 -8.75739 -1.02574 -7.98617 -8.79593 -1.05684 
-7.97853 -8.83465 -1.08767 -7.9707 -8.87353 -1.11824 -7.96269 -8.91259 -1.14854 
-7.9545 -8.95182 -1.17858 -7.94614 -8.99122 -1.20834 -7.93761 -9.03079 -1.23783 
-7.92892 -9.07052 -1.26704 -7.92006 -9.11043 -1.29597 -7.91106 -9.1505 -1.32462 
-7.9019 -9.19074 -1.35299 -7.89259 -9.23114 -1.38106 -7.88315 -9.27171 -1.40885 
-7.87356 -9.31244 -1.43634 -7.86385 -9.35334 -1.46353 -7.854 -9.3944 -1.49043 
-7.84403 -9.43563 -1.51702 -7.83394 -9.47701 -1.54331 -7.82374 -9.51856 -1.56929 
-7.81343 -9.56027 -1.59496 -7.80301 -9.60214 -1.62031 -7.79248 -9.64417 -1.64535 
-7.78186 -9.68636 -1.67008 -7.77115 -9.72871 -1.69448 -7.76035 -9.77123 -1.71856 
-7.74946 -9.8139 -1.74232 -7.7385 -9.85674 -1.76575 -7.72746 -9.89974 -1.78886 
-7.71635 -9.94291 -1.81163 -7.70517 -9.98623 -1.83407 -7.69393 -10.0297 -1.85618 
-7.68264 -10.0734 -1.87795 -7.67129 -10.1172 -1.89938 -7.65989 -10.1612 -1.92047 
-7.64845 -10.2053 -1.94122 -7.63697 -10.2496 -1.96162 -7.62546 -10.2941 -1.98168 
-7.61391 -10.3387 -2.00138 -7.60234 -10.3835 -2.02074 -7.59075 -10.4285 -2.03973 
-7.57914 -10.4736 -2.05838 -7.56752 -10.5189 -2.07665 -7.55589 -10.5643 -2.09456 
[...]
CELL_DATA 1
FIELD FieldData 2
Length 1 1 double
63.839372966 
Tortuosity 1 1 double
0.7748608668 
POINT_DATA 1277
SCALARS MaximumInscribedSphereRadius float
LOOKUP_TABLE default
0.62 0.628145 0.63629 0.644435 0.65258 0.660725 0.66887 0.677015 0.68516 
0.693304 0.701449 0.709594 0.717739 0.725884 0.734029 0.742174 0.750319 0.758464 
0.766609 0.774754 0.782899 0.79096 0.797325 0.80369 0.810055 0.81642 0.822785 
0.82915 0.835515 0.841881 0.848246 0.854611 0.860976 0.867341 0.873706 0.880071 
0.886436 0.892801 0.899166 0.905531 0.911896 0.91517 0.915919 0.916669 0.917418 
0.918168 0.918917 0.919667 0.920416 0.921166 0.921916 0.922665 0.923415 0.924164 
0.924914 0.925663 0.926413 0.927162 0.927912 0.928662 0.929411 0.93 0.93 
0.93 0.93 0.93 0.93 0.93 0.93 0.93 0.93 0.93 
0.93 0.93 0.93 0.93 0.93 0.93 0.93 0.93 0.93 
0.93 0.93 0.93 0.93 0.93 0.93 0.93 0.93 0.93 
0.93 0.93 0.93 0.93 0.93 0.93 0.93 0.93 0.93 
0.93 0.93 0.93 0.930478 0.931158 0.931838 0.932518 0.933198 0.933878 
0.934557 0.935237 0.935917 0.936597 0.937277 0.937957 0.938637 0.939317 0.939997 
0.940677 0.941357 0.942037 0.942717 0.943397 0.949125 0.961637 0.97415 0.986662 
0.999174 1.01169 1.0242 1.03671 1.04922 1.06174 1.07425 1.08676 1.09927 
1.11179 1.1243 1.13681 1.14932 1.16184 1.17435 1.18686 1.19978 1.21507 
1.23035 1.24564 1.26093 1.27622 1.2915 1.30679 1.32208 1.33736 1.35265 
1.36794 1.38322 1.39851 1.4138 1.42908 1.44437 1.45966 1.47494 1.49023 
1.50552 1.50903 1.51075 1.51246 1.51417 1.51588 1.5176 1.51931 1.52102 
1.52273 1.52445 1.52616 1.52787 1.52958 1.5313 1.53301 1.53472 1.53643 
1.53815 1.53986 1.54157 1.53839 1.53183 1.52527 1.51871 1.51215 1.50559 
1.49903 1.49247 1.48592 1.47936 1.4728 1.46624 1.45968 1.45312 1.44656 
1.44 1.43344 1.42688 1.42033 1.41377 1.40495 1.39219 1.37942 1.36665 
1.35389 1.34112 1.32835 1.31559 1.30282 1.29005 1.27729 1.26452 1.25175 
1.23899 1.22622 1.21345 1.20069 1.18792 1.17515 1.16239 1.15023 1.14112 
1.13202 1.12291 1.11381 1.1047 1.0956 1.08649 1.07739 1.06828 1.05918 
1.05007 1.04097 1.03186 1.02276 1.01365 1.00455 0.995445 0.98634 0.977235 
0.968131 0.97675 0.98738 0.99801 1.00864 1.01927 1.0299 1.04053 1.05116 
1.06179 1.07242 1.08305 1.09368 1.10431 1.11494 1.12557 1.1362 1.14683 
1.15746 1.16809 1.17872 1.19162 1.20589 1.22017 1.23444 1.24872 1.26299 
1.27727 1.29154 1.30582 1.32009 1.33437 1.34864 1.36292 1.37719 1.39147 
1.40574 1.42002 1.43429 1.44857 1.46284 1.47598 1.48698 1.49799 1.509 
1.52001 1.53101 1.54202 1.55303 1.56404 1.57504 1.58605 1.59706 1.60807 
1.61908 1.63008 1.64109 1.6521 1.66311 1.67411 1.68512 1.69431 1.68146 
1.66861 1.65575 1.6429 1.63005 1.6172 1.60435 1.59149 1.57864 1.56579 
1.55294 1.54008 1.52723 1.51438 1.50153 1.48868 1.47582 1.46297 1.45012 
1.43727 1.43476 1.43478 1.4348 1.43482 1.43484 1.43486 1.43488 1.4349 
1.43492 1.43494 1.43496 1.43498 1.435 1.43502 1.43504 1.43506 1.43508 
1.4351 1.43512 1.43514 1.44273 1.45701 1.47129 1.48558 1.49986 1.51415 
1.52843 1.54272 1.557 1.57129 1.58557 1.59986 1.61414 1.62842 1.64271 
1.65699 1.67128 1.68556 1.69985 1.71413 1.72485 1.72526 1.72567 1.72608 
1.7265 1.72691 1.72732 1.72773 1.72815 1.72856 1.72897 1.72938 1.7298 
1.73021 1.73062 1.73103 1.73145 1.73186 1.73227 1.73268 1.7331 1.72518 
1.71716 1.70914 1.70113 1.69311 1.6851 1.67708 1.66906 1.66105 1.65303 
1.64501 1.637 1.62898 1.62096 1.61295 1.60493 1.59692 1.5889 1.58088 
1.57287 1.57833 1.58874 1.59914 1.60954 1.61994 1.63034 1.64074 1.65114 
1.66154 1.67194 1.68234 1.69274 1.70314 1.71354 1.72394 1.73434 1.74474 
1.75514 1.76554 1.77594 1.78354 1.78805 1.79257 1.79708 1.8016 1.80611 
1.81063 1.81514 1.81966 1.82417 1.82869 1.8332 1.83772 1.84223 1.84675 
1.85126 1.85578 1.86029 1.86481 1.86932 1.87867 1.88833 1.89799 1.90765 
1.91732 1.92698 1.93664 1.94631 1.95597 1.96563 1.97529 1.98496 1.99462 
2.00428 2.01395 2.02361 2.03327 2.04294 2.0526 2.06226 2.07215 2.08213 
2.09211 2.1021 2.11208 2.12207 2.13205 2.14203 2.15202 2.162 2.17199 
2.18197 2.19195 2.20194 2.21192 2.22191 2.23189 2.24187 2.25186 2.26184 
2.27112 2.27945 2.28777 2.2961 2.30442 2.31275 2.32107 2.3294 2.33772 
2.34604 2.35437 2.36269 2.37102 2.37934 2.38767 2.39599 2.40432 2.41264 
2.42096 2.42929 2.43435 2.42013 2.40591 2.39169 2.37746 2.36324 2.34902 
2.3348 2.32058 2.30635 2.29213 2.27791 2.26369 2.24946 2.23524 2.22102 
2.2068 2.19257 2.17835 2.16413 2.14991 2.13619 2.12254 2.1089 2.09525 
2.0816 2.06796 2.05431 2.04067 2.02702 2.01337 1.99973 1.98608 1.97244 
1.95879 1.94514 1.9315 1.91785 1.90421 1.89056 1.87691 1.87156 1.87138 
1.8712 1.87102 1.87084 1.87066 1.87048 1.8703 1.87012 1.86994 1.86976 
1.86958 1.8694 1.86922 1.86904 1.86887 1.86869 1.86851 1.86833 1.86815 
1.87182 1.88111 1.8904 1.89969 1.90898 1.91827 1.92756 1.93685 1.94614 
1.95544 1.96473 1.97402 1.98331 1.9926 2.00189 2.01118 2.02047 2.02976 
2.03905 2.04835 2.0558 2.05613 2.05647 2.0568 2.05713 2.05747 2.0578 
2.05813 2.05847 2.0588 2.05913 2.05947 2.0598 2.06013 2.06047 2.0608 
2.06114 2.06147 2.0618 2.06214 2.06247 2.05365 2.04452 2.03539 2.02626 
2.01713 2.008 1.99887 1.98974 1.98061 1.97148 1.96235 1.95322 1.94409 
1.93496 1.92583 1.91671 1.90758 1.89845 1.88932 1.88019 1.87688 1.87602 
1.87516 1.87429 1.87343 1.87257 1.87171 1.87084 1.86998 1.86912 1.86825 
1.86739 1.86653 1.86567 1.8648 1.86394 1.86308 1.86222 1.86135 1.86049 
1.86133 1.86439 1.86746 1.87052 1.87359 1.87665 1.87972 1.88278 1.88585 
1.88892 1.89198 1.89505 1.89811 1.90118 1.90424 1.90731 1.91037 1.91344 
1.9165 1.91957 1.92348 1.93197 1.94046 1.94895 1.95744 1.96593 1.97442 
1.98291 1.9914 1.99989 2.00838 2.01687 2.02536 2.03385 2.04234 2.05083 
2.05932 2.06781 2.0763 2.08479 2.09328 2.10239 2.11159 2.12078 2.12998 
2.13917 2.14837 2.15756 2.16676 2.17595 2.18515 2.19435 2.20354 2.21274 
2.22193 2.23113 2.24032 2.24952 2.25871 2.26791 2.2771 2.28304 2.28676 
2.29048 2.2942 2.29792 2.30164 2.30536 2.30908 2.3128 2.31652 2.32024 
2.32395 2.32767 2.33139 2.33511 2.33883 2.34255 2.34627 2.34999 2.35371 
2.34968 2.32874 2.3078 2.28686 2.26592 2.24498 2.22404 2.20309 2.18215 
2.16121 2.14027 2.11933 2.09839 2.07745 2.05651 2.03557 2.01463 1.99369 
1.97275 1.95181 1.93116 1.91845 1.90575 1.89304 1.88034 1.86763 1.85493 
1.84222 1.82952 1.81681 1.80411 1.7914 1.7787 1.76599 1.75328 1.74058 
1.72787 1.71517 1.70246 1.68976 1.67705 1.68777 1.70608 1.72439 1.7427 
1.76102 1.77933 1.79764 1.81596 1.83427 1.85258 1.8709 1.88921 1.90752 
1.92584 1.94415 1.96246 1.98078 1.99909 2.0174 2.03572 2.04251 2.03663 
2.03075 2.02487 2.01899 2.01311 2.00723 2.00135 1.99547 1.98959 1.98371 
1.97783 1.97195 1.96606 1.96018 1.9543 1.94842 1.94254 1.93666 1.93078 
1.92333 1.90952 1.89572 1.88192 1.86811 1.85431 1.84051 1.82671 1.8129 
1.7991 1.7853 1.77149 1.75769 1.74389 1.73008 1.71628 1.70248 1.68867 
1.67487 1.66107 1.64726 1.65065 1.65542 1.66019 1.66496 1.66974 1.67451 
1.67928 1.68406 1.68883 1.6936 1.69837 1.70315 1.70792 1.71269 1.71747 
1.72224 1.72701 1.73178 1.73656 1.74133 1.74633 1.75144 1.75655 1.76166 
1.76677 1.77188 1.77699 1.7821 1.78721 1.79232 1.79743 1.80254 1.80765 
1.81276 1.81787 1.82298 1.82809 1.83321 1.83832 1.84343 1.84656 1.84675 
1.84694 1.84714 1.84733 1.84752 1.84772 1.84791 1.8481 1.8483 1.84849 
1.84868 1.84887 1.84907 1.84926 1.84945 1.84965 1.84984 1.85003 1.85023 
1.85163 1.85999 1.86835 1.87671 1.88507 1.89343 1.90179 1.91014 1.9185 
1.92686 1.93522 1.94358 1.95194 1.9603 1.96866 1.97702 1.98538 1.99373 
2.00209 2.01045 2.01881 2.02367 2.02806 2.03244 2.03683 2.04122 2.04561 
2.05 2.05439 2.05878 2.06317 2.06756 2.07195 2.07634 2.08073 2.08512 
2.08951 2.0939 2.09829 2.10268 2.10707 2.10472 2.09803 2.09134 2.08464 
2.07795 2.07125 2.06456 2.05787 2.05117 2.04448 2.03778 2.03109 2.0244 
2.0177 2.01101 2.00431 1.99762 1.99093 1.98423 1.97754 1.97665 1.98765 
1.99865 2.00966 2.02066 2.03166 2.04266 2.05367 2.06467 2.07567 2.08667 
2.09768 2.10868 2.11968 2.13068 2.14169 2.15269 2.16369 2.17469 2.1857 
2.19701 2.21433 2.23166 2.24899 2.26631 2.28364 2.30096 2.31829 2.33561 
2.35294 2.37026 2.38759 2.40491 2.42224 2.43956 2.45689 2.47421 2.49154 
2.50887 2.52619 2.54352 2.54575 2.54346 2.54117 2.53888 2.53659 2.5343 
2.53201 2.52972 2.52743 2.52514 2.52285 2.52056 2.51827 2.51598 2.5137 
2.51141 2.50912 2.50683 2.50454 2.50225 2.50315 2.50739 2.51162 2.51585 
2.52008 2.52432 2.52855 2.53278 2.53702 2.54125 2.54548 2.54971 2.55395 
2.55818 2.56241 2.56664 2.57088 2.57511 2.57934 2.58357 2.58852 2.5961 
2.60368 2.61126 2.61885 2.62643 2.63401 2.6416 2.64918 2.65676 2.66434 
2.67193 2.67951 2.68709 2.69467 2.70226 2.70984 2.71742 2.72501 2.73259 
2.74017 2.7346 2.72811 2.72162 2.71513 2.70863 2.70214 2.69565 2.68916 
2.68266 2.67617 2.66968 2.66319 2.65669 2.6502 2.64371 2.63722 2.63072 
2.62423 2.61774 2.61124 2.60525 2.5995 2.59375 2.58801 2.58226 2.57652 
2.57077 2.56502 2.55928 2.55353 2.54778 2.54204 2.53629 2.53055 2.5248 
2.51905 2.51331 2.50756 2.50181 2.49607 2.4923 2.49152 2.49075 2.48997 
2.48919 2.48841 2.48764 2.48686 2.48608 2.4853 2.48452 2.48375 2.48297 
2.48219 2.48141 2.48064 2.47986 2.47908 2.4783 2.47753 2.47577 2.46816 
2.46054 2.45292 2.4453 2.43769 2.43007 2.42245 2.41484 2.40722 2.3996 
2.39199 2.38437 2.37675 2.36913 2.36152 2.3539 2.34628 2.33867 2.33105 
2.32343 2.322 2.32135 2.32071 2.32006 2.31941 2.31877 2.31812 2.31748 
2.31683 2.31619 2.31554 2.31489 2.31425 2.3136 2.31296 2.31231 2.31167 
2.31102 2.31038 2.30973 2.32017 2.33714 2.35412 2.3711 2.38807 2.40505 
2.42202 2.439 2.45598 2.47295 2.48993 2.5069 2.52388 2.54086 2.55783 
2.57481 2.59178 2.60876 2.62574 2.64271 2.6535 2.65372 2.65395 2.65417 
2.65439 2.65462 2.65484 2.65506 2.65528 2.65551 2.65573 2.65595 2.65617 
2.6564 2.65662 2.65684 2.65706 2.65729 2.65751 2.65773 2.65702 2.64858 
2.64014 2.6317 2.62327 2.61483 2.60639 2.59796 2.58952 2.58108 2.57264 
2.56421 2.55577 2.54733 2.53889 2.53046 2.52202 2.51358 2.50515 2.49671 
2.48827 2.48718 2.48758 2.48798 2.48837 2.48877 2.48917 2.48957 2.48997 
2.49036 2.49076 2.49116 2.49156 2.49196 2.49235 2.49275 2.49315 2.49355 
2.49395 2.49434 2.49474 2.49729 2.50245 2.50762 2.51279 2.51796 2.52312 
2.52829 2.53346 2.53862 2.54379 2.54896 2.55413 2.55929 2.56446 2.56963 
2.57479 2.57996 2.58513 2.5903 2.59546 2.60457 2.61384 2.62311 2.63238 
2.64166 2.65093 2.6602 2.66947 2.67874 2.68801 2.69728 2.70656 2.71583 
2.7251 2.73437 2.74364 2.75291 2.76219 2.77146 2.78073 2.79 
TEXTURE_COORDINATES TCoords 2 float
0 0 0.000783699 0 0.0015674 0 0.0023511 0 0.0031348 
0 0.0039185 0 0.00470219 0 0.00548589 0 0.00626959 0 
0.00705329 0 0.00783699 0 0.00862069 0 0.00940439 0 0.0101881 
0 0.0109718 0 0.0117555 0 0.0125392 0 0.0133229 0 
0.0141066 0 0.0148903 0 0.015674 0 0.0164577 0 0.0172414 
0 0.0180251 0 0.0188088 0 0.0195925 0 0.0203762 0 
0.0211599 0 0.0219436 0 0.0227273 0 0.023511 0 0.0242947 
0 0.0250784 0 0.0258621 0 0.0266458 0 0.0274295 0 
0.0282132 0 0.0289969 0 0.0297806 0 0.0305643 0 0.031348 
0 0.0321317 0 0.0329154 0 0.0336991 0 0.0344828 0 
0.0352665 0 0.0360502 0 0.0368339 0 0.0376176 0 0.0384013 
0 0.039185 0 0.0399687 0 0.0407524 0 0.0415361 0 
0.0423197 0 0.0431034 0 0.0438871 0 0.0446708 0 0.0454545 
0 0.0462382 0 0.0470219 0 0.0478056 0 0.0485893 0 
0.049373 0 0.0501567 0 0.0509404 0 0.0517241 0 0.0525078 
0 0.0532915 0 0.0540752 0 0.0548589 0 0.0556426 0 
0.0564263 0 0.05721 0 0.0579937 0 0.0587774 0 0.0595611 
0 0.0603448 0 0.0611285 0 0.0619122 0 0.0626959 0 
0.0634796 0 0.0642633 0 0.065047 0 0.0658307 0 0.0666144 
0 0.0673981 0 0.0681818 0 0.0689655 0 0.0697492 0 
0.0705329 0 0.0713166 0 0.0721003 0 0.072884 0 0.0736677 
0 0.0744514 0 0.0752351 0 0.0760188 0 0.0768025 0 
0.0775862 0 0.0783699 0 0.0791536 0 0.0799373 0 0.080721 
0 0.0815047 0 0.0822884 0 0.0830721 0 0.0838558 0 
0.0846395 0 0.0854232 0 0.0862069 0 0.0869906 0 0.0877743 
0 0.088558 0 0.0893417 0 0.0901254 0 0.0909091 0 
0.0916928 0 0.0924765 0 0.0932602 0 0.0940439 0 0.0948276 
0 0.0956113 0 0.096395 0 0.0971787 0 0.0979624 0 
0.0987461 0 0.0995298 0 0.100313 0 0.101097 0 0.101881 
0 0.102665 0 0.103448 0 0.104232 0 0.105016 0 
0.105799 0 0.106583 0 0.107367 0 0.10815 0 0.108934 
0 0.109718 0 0.110502 0 0.111285 0 0.112069 0 
0.112853 0 0.113636 0 0.11442 0 0.115204 0 0.115987 
0 0.116771 0 0.117555 0 0.118339 0 0.119122 0 
0.119906 0 0.12069 0 0.121473 0 0.122257 0 0.123041 
0 0.123824 0 0.124608 0 0.125392 0 0.126176 0 
0.126959 0 0.127743 0 0.128527 0 0.12931 0 0.130094 
0 0.130878 0 0.131661 0 0.132445 0 0.133229 0 
0.134013 0 0.134796 0 0.13558 0 0.136364 0 0.137147 
0 0.137931 0 0.138715 0 0.139498 0 0.140282 0 
0.141066 0 0.14185 0 0.142633 0 0.143417 0 0.144201 
0 0.144984 0 0.145768 0 0.146552 0 0.147335 0 
0.148119 0 0.148903 0 0.149687 0 0.15047 0 0.151254 
0 0.152038 0 0.152821 0 0.153605 0 0.154389 0 
0.155172 0 0.155956 0 0.15674 0 0.157524 0 0.158307 
0 0.159091 0 0.159875 0 0.160658 0 0.161442 0 
0.162226 0 0.163009 0 0.163793 0 0.164577 0 0.16536 
0 0.166144 0 0.166928 0 0.167712 0 0.168495 0 
0.169279 0 0.170063 0 0.170846 0 0.17163 0 0.172414 
0 0.173197 0 0.173981 0 0.174765 0 0.175549 0 
0.176332 0 0.177116 0 0.1779 0 0.178683 0 0.179467 
0 0.180251 0 0.181034 0 0.181818 0 0.182602 0 
0.183386 0 0.184169 0 0.184953 0 0.185737 0 0.18652 
0 0.187304 0 0.188088 0 0.188871 0 0.189655 0 
0.190439 0 0.191223 0 0.192006 0 0.19279 0 0.193574 
0 0.194357 0 0.195141 0 0.195925 0 0.196708 0 
0.197492 0 0.198276 0 0.19906 0 0.199843 0 0.200627 
0 0.201411 0 0.202194 0 0.202978 0 0.203762 0 
0.204545 0 0.205329 0 0.206113 0 0.206897 0 0.20768 
0 0.208464 0 0.209248 0 0.210031 0 0.210815 0 
0.211599 0 0.212382 0 0.213166 0 0.21395 0 0.214734 
0 0.215517 0 0.216301 0 0.217085 0 0.217868 0 
0.218652 0 0.219436 0 0.220219 0 0.221003 0 0.221787 
0 0.222571 0 0.223354 0 0.224138 0 0.224922 0 
0.225705 0 0.226489 0 0.227273 0 0.228056 0 0.22884 
0 0.229624 0 0.230408 0 0.231191 0 0.231975 0 
0.232759 0 0.233542 0 0.234326 0 0.23511 0 0.235893 
0 0.236677 0 0.237461 0 0.238245 0 0.239028 0 
0.239812 0 0.240596 0 0.241379 0 0.242163 0 0.242947 
0 0.24373 0 0.244514 0 0.245298 0 0.246082 0 
0.246865 0 0.247649 0 0.248433 0 0.249216 0 0.25 
0 0.250784 0 0.251567 0 0.252351 0 0.253135 0 
0.253918 0 0.254702 0 0.255486 0 0.25627 0 0.257053 
0 0.257837 0 0.258621 0 0.259404 0 0.260188 0 
0.260972 0 0.261755 0 0.262539 0 0.263323 0 0.264107 
0 0.26489 0 0.265674 0 0.266458 0 0.267241 0 
0.268025 0 0.268809 0 0.269592 0 0.270376 0 0.27116 
0 0.271944 0 0.272727 0 0.273511 0 0.274295 0 
0.275078 0 0.275862 0 0.276646 0 0.277429 0 0.278213 
0 0.278997 0 0.279781 0 0.280564 0 0.281348 0 
0.282132 0 0.282915 0 0.283699 0 0.284483 0 0.285266 
0 0.28605 0 0.286834 0 0.287618 0 0.288401 0 
0.289185 0 0.289969 0 0.290752 0 0.291536 0 0.29232 
0 0.293103 0 0.293887 0 0.294671 0 0.295455 0 
0.296238 0 0.297022 0 0.297806 0 0.298589 0 0.299373 
0 0.300157 0 0.30094 0 0.301724 0 0.302508 0 
0.303292 0 0.304075 0 0.304859 0 0.305643 0 0.306426 
0 0.30721 0 0.307994 0 0.308777 0 0.309561 0 
0.310345 0 0.311129 0 0.311912 0 0.312696 0 0.31348 
0 0.314263 0 0.315047 0 0.315831 0 0.316614 0 
0.317398 0 0.318182 0 0.318966 0 0.319749 0 0.320533 
0 0.321317 0 0.3221 0 0.322884 0 0.323668 0 
0.324451 0 0.325235 0 0.326019 0 0.326803 0 0.327586 
0 0.32837 0 0.329154 0 0.329937 0 0.330721 0 
0.331505 0 0.332288 0 0.333072 0 0.333856 0 0.334639 
0 0.335423 0 0.336207 0 0.336991 0 0.337774 0 
0.338558 0 0.339342 0 0.340125 0 0.340909 0 0.341693 
0 0.342476 0 0.34326 0 0.344044 0 0.344828 0 
0.345611 0 0.346395 0 0.347179 0 0.347962 0 0.348746 
0 0.34953 0 0.350313 0 0.351097 0 0.351881 0 
0.352665 0 0.353448 0 0.354232 0 0.355016 0 0.355799 
0 0.356583 0 0.357367 0 0.35815 0 0.358934 0 
0.359718 0 0.360502 0 0.361285 0 0.362069 0 0.362853 
0 0.363636 0 0.36442 0 0.365204 0 0.365987 0 
0.366771 0 0.367555 0 0.368339 0 0.369122 0 0.369906 
0 0.37069 0 0.371473 0 0.372257 0 0.373041 0 
0.373824 0 0.374608 0 0.375392 0 0.376176 0 0.376959 
0 0.377743 0 0.378527 0 0.37931 0 0.380094 0 
0.380878 0 0.381661 0 0.382445 0 0.383229 0 0.384013 
0 0.384796 0 0.38558 0 0.386364 0 0.387147 0 
0.387931 0 0.388715 0 0.389498 0 0.390282 0 0.391066 
0 0.39185 0 0.392633 0 0.393417 0 0.394201 0 
0.394984 0 0.395768 0 0.396552 0 0.397335 0 0.398119 
0 0.398903 0 0.399687 0 0.40047 0 0.401254 0 
0.402038 0 0.402821 0 0.403605 0 0.404389 0 0.405172 
0 0.405956 0 0.40674 0 0.407524 0 0.408307 0 
0.409091 0 0.409875 0 0.410658 0 0.411442 0 0.412226 
0 0.413009 0 0.413793 0 0.414577 0 0.415361 0 
0.416144 0 0.416928 0 0.417712 0 0.418495 0 0.419279 
0 0.420063 0 0.420846 0 0.42163 0 0.422414 0 
0.423197 0 0.423981 0 0.424765 0 0.425549 0 0.426332 
0 0.427116 0 0.4279 0 0.428683 0 0.429467 0 
0.430251 0 0.431034 0 0.431818 0 0.432602 0 0.433386 
0 0.434169 0 0.434953 0 0.435737 0 0.43652 0 
0.437304 0 0.438088 0 0.438871 0 0.439655 0 0.440439 
0 0.441223 0 0.442006 0 0.44279 0 0.443574 0 
0.444357 0 0.445141 0 0.445925 0 0.446708 0 0.447492 
0 0.448276 0 0.44906 0 0.449843 0 0.450627 0 
0.451411 0 0.452194 0 0.452978 0 0.453762 0 0.454545 
0 0.455329 0 0.456113 0 0.456897 0 0.45768 0 
0.458464 0 0.459248 0 0.460031 0 0.460815 0 0.461599 
0 0.462382 0 0.463166 0 0.46395 0 0.464734 0 
0.465517 0 0.466301 0 0.467085 0 0.467868 0 0.468652 
0 0.469436 0 0.470219 0 0.471003 0 0.471787 0 
0.472571 0 0.473354 0 0.474138 0 0.474922 0 0.475705 
0 0.476489 0 0.477273 0 0.478056 0 0.47884 0 
0.479624 0 0.480408 0 0.481191 0 0.481975 0 0.482759 
0 0.483542 0 0.484326 0 0.48511 0 0.485893 0 
0.486677 0 0.487461 0 0.488245 0 0.489028 0 0.489812 
0 0.490596 0 0.491379 0 0.492163 0 0.492947 0 
0.49373 0 0.494514 0 0.495298 0 0.496082 0 0.496865 
0 0.497649 0 0.498433 0 0.499216 0 0.5 0 
0.500784 0 0.501567 0 0.502351 0 0.503135 0 0.503918 
0 0.504702 0 0.505486 0 0.50627 0 0.507053 0 
0.507837 0 0.508621 0 0.509404 0 0.510188 0 0.510972 
0 0.511755 0 0.512539 0 0.513323 0 0.514107 0 
0.51489 0 0.515674 0 0.516458 0 0.517241 0 0.518025 
0 0.518809 0 0.519592 0 0.520376 0 0.52116 0 
0.521944 0 0.522727 0 0.523511 0 0.524295 0 0.525078 
0 0.525862 0 0.526646 0 0.527429 0 0.528213 0 
0.528997 0 0.529781 0 0.530564 0 0.531348 0 0.532132 
0 0.532915 0 0.533699 0 0.534483 0 0.535266 0 
0.53605 0 0.536834 0 0.537618 0 0.538401 0 0.539185 
0 0.539969 0 0.540752 0 0.541536 0 0.54232 0 
0.543103 0 0.543887 0 0.544671 0 0.545455 0 0.546238 
0 0.547022 0 0.547806 0 0.548589 0 0.549373 0 
0.550157 0 0.55094 0 0.551724 0 0.552508 0 0.553292 
0 0.554075 0 0.554859 0 0.555643 0 0.556426 0 
0.55721 0 0.557994 0 0.558777 0 0.559561 0 0.560345 
0 0.561128 0 0.561912 0 0.562696 0 0.56348 0 
0.564263 0 0.565047 0 0.565831 0 0.566614 0 0.567398 
0 0.568182 0 0.568965 0 0.569749 0 0.570533 0 
0.571317 0 0.5721 0 0.572884 0 0.573668 0 0.574451 
0 0.575235 0 0.576019 0 0.576802 0 0.577586 0 
0.57837 0 0.579154 0 0.579937 0 0.580721 0 0.581505 
0 0.582288 0 0.583072 0 0.583856 0 0.584639 0 
0.585423 0 0.586207 0 0.586991 0 0.587774 0 0.588558 
0 0.589342 0 0.590125 0 0.590909 0 0.591693 0 
0.592476 0 0.59326 0 0.594044 0 0.594828 0 0.595611 
0 0.596395 0 0.597179 0 0.597962 0 0.598746 0 
0.59953 0 0.600313 0 0.601097 0 0.601881 0 0.602665 
0 0.603448 0 0.604232 0 0.605016 0 0.605799 0 
0.606583 0 0.607367 0 0.60815 0 0.608934 0 0.609718 
0 0.610502 0 0.611285 0 0.612069 0 0.612853 0 
0.613636 0 0.61442 0 0.615204 0 0.615987 0 0.616771 
0 0.617555 0 0.618339 0 0.619122 0 0.619906 0 
0.62069 0 0.621473 0 0.622257 0 0.623041 0 0.623824 
0 0.624608 0 0.625392 0 0.626176 0 0.626959 0 
0.627743 0 0.628527 0 0.62931 0 0.630094 0 0.630878 
0 0.631661 0 0.632445 0 0.633229 0 0.634013 0 
0.634796 0 0.63558 0 0.636364 0 0.637147 0 0.637931 
0 0.638715 0 0.639498 0 0.640282 0 0.641066 0 
0.64185 0 0.642633 0 0.643417 0 0.644201 0 0.644984 
0 0.645768 0 0.646552 0 0.647335 0 0.648119 0 
0.648903 0 0.649687 0 0.65047 0 0.651254 0 0.652038 
0 0.652821 0 0.653605 0 0.654389 0 0.655172 0 
0.655956 0 0.65674 0 0.657524 0 0.658307 0 0.659091 
0 0.659875 0 0.660658 0 0.661442 0 0.662226 0 
0.663009 0 0.663793 0 0.664577 0 0.665361 0 0.666144 