# vtk DataFile Version 4.2
vtk output
ASCII
DATASET POLYDATA
POINTS 1276 float
0 0 0 -0.00153328 0.00260519 0.00280575 -0.00602603 0.0101875 0.0109867 
-0.0133176 0.0223971 0.0241885 -0.0232474 0.038884 0.0420567 -0.0356548 0.0592985 0.0642369 
-0.0503791 0.0832906 0.0903747 -0.0672598 0.11051 0.120116 -0.0861362 0.140608 0.153105 
-0.106848 0.173234 0.188989 -0.129233 0.208038 0.227413 -0.153133 0.24467 0.268023 
-0.178386 0.282781 0.310463 -0.204831 0.32202 0.35438 -0.232309 0.362038 0.39942 
-0.260657 0.402484 0.445227 -0.289717 0.44301 0.491448 -0.319326 0.483264 0.537728 
-0.349325 0.522898 0.583712 -0.379552 0.561561 0.629047 -0.409848 0.598903 0.673377 
-0.440052 0.634576 0.71635 -0.470063 0.668367 0.757749 -0.499906 0.700342 0.797637 
-0.529618 0.7306 0.83611 -0.559236 0.759238 0.873263 -0.588797 0.786356 0.909193 
-0.618339 0.812051 0.943995 -0.647901 0.836424 0.977765 -0.677518 0.859571 1.0106 
-0.70723 0.881592 1.04259 -0.737073 0.902586 1.07385 -0.767085 0.92265 1.10445 
-0.797303 0.941884 1.1345 -0.827766 0.960386 1.16409 -0.85851 0.978255 1.19333 
-0.889573 0.995589 1.2223 -0.920993 1.01249 1.2511 -0.952808 1.02905 1.27983 
-0.985054 1.04537 1.30858 -1.01777 1.06155 1.33745 -1.05099 1.07769 1.36653 
-1.08473 1.09382 1.39587 -1.11898 1.10993 1.42544 -1.15372 1.12597 1.4552 
-1.18893 1.14193 1.48513 -1.2246 1.15777 1.5152 -1.26072 1.17347 1.54538 
-1.29726 1.18898 1.57564 -1.33422 1.20429 1.60596 -1.37158 1.21936 1.63629 
-1.40931 1.23416 1.66662 -1.44742 1.24867 1.69691 -1.48587 1.26286 1.72714 
-1.52466 1.27668 1.75727 -1.56377 1.29012 1.78727 -1.60319 1.30315 1.81713 
-1.64289 1.31573 1.8468 -1.68287 1.32784 1.87626 -1.72311 1.33944 1.90547 
-1.76359 1.35051 1.93442 -1.8043 1.36101 1.96307 -1.84522 1.37093 1.99139 
-1.88635 1.38027 2.01941 -1.92768 1.38903 2.04711 -1.96922 1.39722 2.07451 
-2.01095 1.40483 2.10162 -2.05287 1.41188 2.12844 -2.09498 1.41837 2.15498 
-2.13727 1.42429 2.18125 -2.17974 1.42967 2.20724 -2.22238 1.43449 2.23298 
-2.26519 1.43877 2.25846 -2.30816 1.4425 2.2837 -2.35128 1.4457 2.30869 
-2.39456 1.44836 2.33346 -2.438 1.45049 2.35799 -2.48157 1.45209 2.3823 
-2.52528 1.45318 2.40641 -2.56913 1.45374 2.4303 -2.61311 1.45379 2.454 
-2.65722 1.45333 2.4775 -2.70145 1.45237 2.50081 -2.74578 1.45089 2.52394 
-2.79022 1.4489 2.54689 -2.83475 1.44639 2.56965 -2.87937 1.44337 2.59223 
-2.92405 1.43982 2.61463 -2.96879 1.43574 2.63684 -3.01359 1.43113 2.65888 
-3.05843 1.42598 2.68073 -3.1033 1.4203 2.7024 -3.14819 1.41407 2.7239 
-3.19309 1.4073 2.74522 -3.238 1.39998 2.76636 -3.2829 1.3921 2.78732 
-3.32777 1.38367 2.8081 -3.37262 1.37467 2.82872 -3.41744 1.36511 2.84915 
-3.4622 1.35498 2.86941 -3.5069 1.34428 2.8895 -3.55154 1.33301 2.90942 
-3.5961 1.32115 2.92916 -3.64057 1.30872 2.94873 -3.68495 1.2957 2.96814 
-3.72922 1.28212 2.98739 -3.77338 1.26797 3.00648 -3.81742 1.25325 3.02542 
-3.86132 1.23796 3.04421 -3.90509 1.22212 3.06286 -3.94871 1.20572 3.08136 
-3.99217 1.18876 3.09973 -4.03547 1.17124 3.11796 -4.07859 1.15318 3.13607 
-4.12153 1.13458 3.15405 -4.16428 1.11543 3.17192 -4.20683 1.09573 3.18966 
-4.24917 1.0755 3.2073 -4.2913 1.05474 3.22482 -4.3332 1.03344 3.24224 
-4.37486 1.01162 3.25957 -4.41629 0.989266 3.27679 -4.45746 0.966392 3.29393 
-4.49837 0.942999 3.31098 -4.53902 0.919096 3.32794 -4.5794 0.89469 3.34482 
-4.61951 0.86979 3.36163 -4.65935 0.844401 3.37836 -4.69891 0.818534 3.39502 
-4.73819 0.792194 3.41162 -4.77718 0.76539 3.42816 -4.81588 0.738129 3.44463 
-4.85428 0.71042 3.46106 -4.89239 0.68227 3.47743 -4.93019 0.653686 3.49375 
-4.96768 0.624677 3.51003 -5.00487 0.59525 3.52627 -5.04174 0.565412 3.54248 
-5.07829 0.535172 3.55865 -5.11452 0.504538 3.57479 -5.15042 0.473516 3.59091 
-5.18598 0.442115 3.607 -5.22122 0.410342 3.62308 -5.25611 0.378205 3.63914 
-5.29067 0.345713 3.65519 -5.3249 0.312874 3.67123 -5.3588 0.279696 3.68726 
-5.39238 0.246188 3.70329 -5.42563 0.212357 3.7193 -5.45856 0.178214 3.73531 
-5.49118 0.143765 3.75132 -5.52349 0.10902 3.76733 -5.55548 0.0739857 3.78334 
-5.58717 0.0386718 3.79936 -5.61855 0.00308642 3.81537 -5.64964 -0.0327622 3.8314 
-5.68043 -0.0688656 3.84743 -5.71093 -0.105216 3.86347 -5.74113 -0.141803 3.87952 
-5.77105 -0.178621 3.89559 -5.80068 -0.21566 3.91167 -5.83004 -0.252911 3.92777 
-5.85911 -0.290368 3.94389 -5.88791 -0.32802 3.96002 -5.91645 -0.365864 3.97617 
-5.94472 -0.403894 3.99234 -5.97273 -0.442106 4.00851 -6.00049 -0.480495 4.02469 
-6.02801 -0.519056 4.04087 -6.05529 -0.557786 4.05704 -6.08234 -0.596678 4.0732 
-6.10917 -0.635728 4.08936 -6.13577 -0.674933 4.10549 -6.16216 -0.714286 4.12161 
-6.18834 -0.753784 4.1377 -6.21432 -0.793421 4.15376 -6.2401 -0.833194 4.16979 
-6.2657 -0.873097 4.18579 -6.29111 -0.913126 4.20174 -6.31635 -0.953276 4.21765 
-6.34141 -0.993543 4.2335 -6.36631 -1.03392 4.24931 -6.39105 -1.07441 4.26505 
-6.41563 -1.11499 4.28074 -6.44008 -1.15568 4.29635 -6.46438 -1.19648 4.31188 
-6.48855 -1.23738 4.32732 -6.51259 -1.27839 4.34266 -6.53652 -1.31951 4.35787 
-6.56034 -1.36074 4.37297 -6.58406 -1.40209 4.38792 -6.60768 -1.44355 4.40273 
-6.63121 -1.48513 4.41737 -6.65466 -1.52684 4.43184 -6.67804 -1.56866 4.44613 
-6.70135 -1.61062 4.46022 -6.7246 -1.6527 4.47411 -6.7478 -1.69491 4.48778 
-6.77095 -1.73725 4.50122 -6.79407 -1.77972 4.51442 -6.81715 -1.82233 4.52737 
-6.84021 -1.86508 4.54006 -6.86326 -1.90797 4.55247 -6.88629 -1.95101 4.5646 
-6.90933 -1.99418 4.57642 -6.93235 -2.03749 4.58789 -6.95537 -2.08092 4.59896 
-6.97837 -2.12448 4.6096 -7.00137 -2.16816 4.61975 -7.02435 -2.21194 4.62937 
-7.04731 -2.25582 4.63843 -7.07026 -2.2998 4.64687 -7.09318 -2.34387 4.65465 
-7.11609 -2.38802 4.66174 -7.13897 -2.43225 4.66807 -7.16183 -2.47654 4.67362 
-7.18467 -2.5209 4.67834 -7.20747 -2.56531 4.68218 -7.23024 -2.60978 4.6851 
-7.25299 -2.65428 4.68705 -7.2757 -2.69882 4.688 -7.29837 -2.74339 4.6879 
-7.321 -2.78798 4.6867 -7.3436 -2.83259 4.68437 -7.36615 -2.87721 4.68086 
-7.38865 -2.92181 4.67619 -7.41106 -2.96638 4.67038 -7.43339 -3.01089 4.66344 
-7.4556 -3.05533 4.65539 -7.47769 -3.09968 4.64624 -7.49963 -3.1439 4.63601 
-7.52141 -3.18799 4.62471 -7.54302 -3.23192 4.61237 -7.56443 -3.27567 4.59899 
-7.58562 -3.31922 4.5846 -7.60659 -3.36255 4.56921 -7.62731 -3.40563 4.55283 
-7.64777 -3.44846 4.53549 -7.66795 -3.49099 4.5172 -7.68783 -3.53323 4.49797 
-7.7074 -3.57513 4.47781 -7.72663 -3.6167 4.45676 -7.74552 -3.65789 4.43482 
-7.76405 -3.69869 4.41201 -7.78219 -3.73909 4.38834 -7.79996 -3.7791 4.36385 
-7.81736 -3.81873 4.33858 -7.83439 -3.858 4.31257 -7.85106 -3.89692 4.28583 
-7.86738 -3.93552 4.25843 -7.88334 -3.9738 4.23038 -7.89897 -4.0118 4.20173 
-7.91426 -4.04952 4.17251 -7.92922 -4.08698 4.14276 -7.94385 -4.12421 4.11251 
-7.95817 -4.1612 4.08181 -7.97217 -4.19799 4.05068 -7.98586 -4.2346 4.01916 
-7.99926 -4.27102 3.98729 -8.01235 -4.3073 3.95511 -8.02516 -4.34343 3.92265 
-8.03768 -4.37945 3.88994 -8.04993 -4.41536 3.85703 -8.0619 -4.45118 3.82395 
-8.07361 -4.48693 3.79073 -8.08505 -4.52262 3.75739 -8.09623 -4.55826 3.72395 
-8.10714 -4.59386 3.69039 -8.11778 -4.62941 3.65674 -8.12815 -4.66494 3.623 
-8.13825 -4.70044 3.58918 -8.14808 -4.73592 3.55528 -8.15764 -4.77139 3.52131 
-8.16692 -4.80686 3.48727 -8.17593 -4.84233 3.45318 -8.18466 -4.87781 3.41904 
-8.19312 -4.91331 3.38485 -8.2013 -4.94883 3.35063 -8.2092 -4.98438 3.31637 
-8.21682 -5.01997 3.2821 -8.22416 -5.05561 3.24781 -8.23122 -5.0913 3.21351 
-8.23799 -5.12704 3.1792 -8.24448 -5.16286 3.1449 -8.25069 -5.19874 3.11062 
-8.25661 -5.2347 3.07634 -8.26223 -5.27074 3.04209 -8.26755 -5.30686 3.00786 
-8.27256 -5.34305 2.97365 -8.27726 -5.37931 2.93948 -8.28164 -5.41565 2.90533 
-8.28569 -5.45206 2.87122 -8.28941 -5.48855 2.83714 -8.29278 -5.52511 2.80311 
-8.29581 -5.56174 2.76911 -8.29848 -5.59844 2.73517 -8.3008 -5.63522 2.70127 
-8.30275 -5.67207 2.66742 -8.30432 -5.70898 2.63363 -8.30551 -5.74597 2.5999 
-8.30632 -5.78303 2.56623 -8.30673 -5.82015 2.53262 -8.30675 -5.85735 2.49908 
-8.30636 -5.89461 2.46561 -8.30555 -5.93194 2.43221 -8.30433 -5.96933 2.39888 
-8.30267 -6.00678 2.36563 -8.30059 -6.04428 2.33245 -8.29806 -6.08182 2.29935 
-8.29509 -6.11939 2.26631 -8.29166 -6.15698 2.23334 -8.28777 -6.19459 2.20044 
-8.28341 -6.23219 2.16761 -8.27857 -6.2698 2.13484 -8.27325 -6.30738 2.10214 
-8.26744 -6.34495 2.0695 -8.26114 -6.38248 2.03692 -8.25432 -6.41997 2.0044 
-8.247 -6.45742 1.97193 -8.23916 -6.4948 1.93953 -8.23079 -6.53212 1.90718 
-8.22188 -6.56936 1.87489 -8.21244 -6.60651 1.84265 -8.20245 -6.64357 1.81047 
-8.1919 -6.68052 1.77833 -8.1808 -6.71737 1.74625 -8.16914 -6.75409 1.71422 
-8.15692 -6.79069 1.68223 -8.14417 -6.82716 1.6503 -8.13087 -6.86348 1.61842 
-8.11705 -6.89966 1.58659 -8.10271 -6.93569 1.5548 -8.08785 -6.97156 1.52308 
-8.07248 -7.00725 1.4914 -8.05661 -7.04278 1.45977 -8.04024 -7.07813 1.4282 
-8.02339 -7.11328 1.39668 -8.00605 -7.14825 1.36521 -7.98824 -7.18301 1.33379 
-7.96996 -7.21756 1.30242 -7.95122 -7.2519 1.27111 -7.93203 -7.28602 1.23985 
-7.91239 -7.31991 1.20865 -7.8923 -7.35357 1.1775 -7.87179 -7.38698 1.1464 
-7.85085 -7.42015 1.11535 -7.82949 -7.45307 1.08436 -7.80772 -7.48575 1.05343 
-7.78556 -7.51821 1.02255 -7.76302 -7.55045 0.991729 -7.7401 -7.58248 0.960968 
-7.71681 -7.61431 0.930268 -7.69317 -7.64594 0.899628 -7.66919 -7.6774 0.869051 
-7.64488 -7.70868 0.838537 -7.62025 -7.7398 0.808089 -7.59531 -7.77077 0.777705 
-7.57007 -7.80159 0.747389 -7.54454 -7.83227 0.717141 -7.51874 -7.86283 0.686962 
-7.49267 -7.89327 0.656853 -7.46634 -7.9236 0.626815 -7.43976 -7.95383 0.59685 
-7.41296 -7.98397 0.566959 -7.38593 -8.01403 0.537142 -7.35868 -8.04402 0.507401 
-7.33124 -8.07394 0.47774 -7.3036 -8.10381 0.448166 -7.27579 -8.13362 0.418687 
-7.2478 -8.16338 0.389311 -7.21967 -8.1931 0.360046 -7.19139 -8.22277 0.330901 
-7.16298 -8.25242 0.301882 -7.13444 -8.28203 0.272999 -7.1058 -8.31162 0.244259 
-7.07706 -8.34119 0.215671 -7.04824 -8.37075 0.187241 -7.01934 -8.40029 0.158979 
[...]
CELL_DATA 1
FIELD FieldData 2
Length 1 1 double
63.772253952 
Tortuosity 1 1 double
0.92377864075 
POINT_DATA 1276
SCALARS MaximumInscribedSphereRadius float
LOOKUP_TABLE default
1.116 1.1202 1.1244 1.1286 1.1328 1.137 1.1412 1.1454 1.1496 
1.1538 1.158 1.1622 1.1664 1.1706 1.17481 1.17901 1.18321 1.18741 
1.19161 1.19581 1.20001 1.20217 1.19772 1.19326 1.1888 1.18435 1.17989 
1.17543 1.17097 1.16652 1.16206 1.1576 1.15315 1.14869 1.14423 1.13978 
1.13532 1.13086 1.12641 1.12195 1.11749 1.11031 1.0996 1.08889 1.07818 
1.06746 1.05675 1.04604 1.03533 1.02462 1.01391 1.0032 0.992487 0.981776 
0.971065 0.960354 0.949643 0.938932 0.928221 0.91751 0.906798 0.896315 0.886722 
0.877129 0.867536 0.857943 0.84835 0.838757 0.829164 0.819571 0.809978 0.800385 
0.790791 0.781198 0.771605 0.762012 0.752419 0.742826 0.733233 0.72364 0.714047 
0.704454 0.708531 0.713452 0.718373 0.723294 0.728216 0.733137 0.738058 0.742979 
0.7479 0.752822 0.757743 0.762664 0.767585 0.772506 0.777427 0.782349 0.78727 
0.792191 0.797112 0.802033 0.811445 0.822925 0.834405 0.845885 0.857365 0.868845 
0.880325 0.891805 0.903285 0.914765 0.926244 0.937724 0.949204 0.960684 0.972164 
0.983644 0.995124 1.0066 1.01808 1.02956 1.03996 1.0489 1.05784 1.06679 
1.07573 1.08468 1.09362 1.10256 1.11151 1.12045 1.12939 1.13834 1.14728 
1.15623 1.16517 1.17411 1.18306 1.192 1.20095 1.20989 1.216 1.20811 
1.20022 1.19233 1.18444 1.17655 1.16866 1.16076 1.15287 1.14498 1.13709 
1.1292 1.12131 1.11341 1.10552 1.09763 1.08974 1.08185 1.07396 1.06607 
1.05817 1.05535 1.05309 1.05084 1.04858 1.04633 1.04408 1.04182 1.03957 
1.03731 1.03506 1.03281 1.03055 1.0283 1.02604 1.02379 1.02154 1.01928 
1.01703 1.01477 1.01252 1.01737 1.02661 1.03584 1.04508 1.05431 1.06355 
1.07278 1.08202 1.09125 1.10049 1.10972 1.11896 1.12819 1.13743 1.14666 
1.1559 1.16513 1.17437 1.1836 1.19284 1.19963 1.20166 1.20368 1.20571 
1.20774 1.20977 1.2118 1.21382 1.21585 1.21788 1.21991 1.22194 1.22396 
1.22599 1.22802 1.23005 1.23208 1.2341 1.23613 1.23816 1.24 1.24 
1.24 1.24 1.24 1.24 1.24 1.24 1.24 1.24 1.24 
1.24 1.24 1.24 1.24 1.24 1.24 1.24 1.24 1.24 
1.24 1.23313 1.22572 1.21832 1.21092 1.20351 1.19611 1.18871 1.1813 
1.1739 1.1665 1.15909 1.15169 1.14428 1.13688 1.12948 1.12207 1.11467 
1.10727 1.09986 1.09246 1.08756 1.08392 1.08028 1.07665 1.07301 1.06937 
1.06573 1.0621 1.05846 1.05482 1.05119 1.04755 1.04391 1.04028 1.03664 
1.033 1.02937 1.02573 1.02209 1.01846 1.01999 1.02976 1.03954 1.04931 
1.05909 1.06887 1.07864 1.08842 1.09819 1.10797 1.11774 1.12752 1.13729 
1.14707 1.15684 1.16662 1.1764 1.18617 1.19595 1.20572 1.21562 1.22646 
1.23731 1.24815 1.259 1.26984 1.28069 1.29153 1.30238 1.31322 1.32407 
1.33491 1.34576 1.3566 1.36745 1.37829 1.38914 1.39998 1.41083 1.42168 
1.43252 1.43041 1.42596 1.4215 1.41705 1.4126 1.40814 1.40369 1.39924 
1.39478 1.39033 1.38588 1.38142 1.37697 1.37252 1.36806 1.36361 1.35916 
1.3547 1.35025 1.3458 1.33253 1.31306 1.2936 1.27413 1.25466 1.2352 
1.21573 1.19627 1.1768 1.15734 1.13787 1.11841 1.09894 1.07947 1.06001 
1.04054 1.02108 1.00161 0.982147 0.962682 0.955525 0.975434 0.995344 1.01525 
1.03516 1.05507 1.07498 1.09489 1.1148 1.13471 1.15462 1.17453 1.19444 
1.21435 1.23426 1.25417 1.27408 1.29399 1.3139 1.3338 1.3534 1.36312 
1.37284 1.38255 1.39227 1.40198 1.4117 1.42141 1.43113 1.44084 1.45056 
1.46027 1.46999 1.4797 1.48942 1.49914 1.50885 1.51857 1.52828 1.538 
1.54771 1.5548 1.56108 1.56737 1.57365 1.57993 1.58621 1.59249 1.59878 
1.60506 1.61134 1.61762 1.6239 1.63019 1.63647 1.64275 1.64903 1.65532 
1.6616 1.66788 1.67416 1.68243 1.69193 1.70144 1.71095 1.72045 1.72996 
1.73946 1.74897 1.75848 1.76798 1.77749 1.787 1.7965 1.80601 1.81552 
1.82502 1.83453 1.84404 1.85354 1.86 1.86 1.86 1.86 1.86 
1.86 1.86 1.86 1.86 1.86 1.86 1.86 1.86 1.86 
1.86 1.86 1.86 1.86 1.86 1.86 1.86026 1.86192 1.86359 
1.86525 1.86691 1.86857 1.87024 1.8719 1.87356 1.87523 1.87689 1.87855 
1.88021 1.88188 1.88354 1.8852 1.88686 1.88853 1.89019 1.89185 1.89352 
1.90178 1.91067 1.91956 1.92845 1.93734 1.94623 1.95512 1.96401 1.9729 
1.98179 1.99068 1.99957 2.00845 2.01734 2.02623 2.03512 2.04401 2.0529 
2.06179 2.07068 2.07689 2.08164 2.08638 2.09113 2.09588 2.10063 2.10538 
2.11013 2.11487 2.11962 2.12437 2.12912 2.13387 2.13861 2.14336 2.14811 
2.15286 2.15761 2.16236 2.1671 2.16851 2.16468 2.16085 2.15702 2.15319 
2.14936 2.14553 2.1417 2.13787 2.13404 2.13021 2.12638 2.12255 2.11872 
2.11489 2.11106 2.10723 2.1034 2.09957 2.09574 2.0912 2.08431 2.07742 
2.07053 2.06364 2.05675 2.04985 2.04296 2.03607 2.02918 2.02229 2.0154 
2.0085 2.00161 1.99472 1.98783 1.98094 1.97405 1.96715 1.96026 1.95777 
1.96618 1.9746 1.98301 1.99143 1.99985 2.00826 2.01668 2.02509 2.03351 
2.04193 2.05034 2.05876 2.06717 2.07559 2.08401 2.09242 2.10084 2.10925 
2.11767 2.1256 2.11791 2.11023 2.10255 2.09487 2.08719 2.07951 2.07183 
2.06414 2.05646 2.04878 2.0411 2.03342 2.02574 2.01805 2.01037 2.00269 
1.99501 1.98733 1.97965 1.97196 1.96242 1.95226 1.9421 1.93195 1.92179 
1.91163 1.90148 1.89132 1.88116 1.87101 1.86085 1.85069 1.84054 1.83038 
1.82022 1.81007 1.79991 1.78975 1.7796 1.76944 1.75958 1.75005 1.74052 
1.73099 1.72146 1.71193 1.7024 1.69287 1.68334 1.67381 1.66428 1.65475 
1.64522 1.63569 1.62616 1.61663 1.6071 1.59757 1.58804 1.57851 1.57056 
1.56954 1.56851 1.56749 1.56647 1.56544 1.56442 1.5634 1.56238 1.56135 
1.56033 1.55931 1.55828 1.55726 1.55624 1.55521 1.55419 1.55317 1.55215 
1.55112 1.5501 1.55 1.55 1.55 1.55 1.55 1.55 1.55 
1.55 1.55 1.55 1.55 1.55 1.55 1.55 1.55 1.55 
1.55 1.55 1.55 1.55 1.54819 1.54528 1.54237 1.53946 1.53655 
1.53364 1.53073 1.52781 1.5249 1.52199 1.51908 1.51617 1.51326 1.51034 
1.50743 1.50452 1.50161 1.4987 1.49579 1.49287 1.48752 1.47747 1.46742 
1.45737 1.44733 1.43728 1.42723 1.41718 1.40714 1.39709 1.38704 1.37699 
1.36694 1.3569 1.34685 1.3368 1.32675 1.3167 1.30666 1.29661 1.28769 
1.29407 1.30046 1.30685 1.31324 1.31962 1.32601 1.3324 1.33878 1.34517 
1.35156 1.35794 1.36433 1.37072 1.3771 1.38349 1.38988 1.39626 1.40265 
1.40904 1.41542 1.42196 1.42854 1.43512 1.4417 1.44828 1.45486 1.46143 
1.46801 1.47459 1.48117 1.48775 1.49433 1.50091 1.50748 1.51406 1.52064 
1.52722 1.5338 1.54038 1.54695 1.55057 1.55163 1.55269 1.55375 1.5548 
1.55586 1.55692 1.55798 1.55904 1.5601 1.56116 1.56222 1.56328 1.56434 
1.5654 1.56645 1.56751 1.56857 1.56963 1.57069 1.57393 1.58294 1.59195 
1.60096 1.60997 1.61898 1.62799 1.637 1.64601 1.65502 1.66403 1.67304 
1.68205 1.69106 1.70007 1.70908 1.71809 1.7271 1.73611 1.74512 1.75415 
1.76478 1.77541 1.78603 1.79666 1.80729 1.81792 1.82854 1.83917 1.8498 
1.86043 1.87106 1.88168 1.89231 1.90294 1.91357 1.92419 1.93482 1.94545 
1.95608 1.96671 1.97438 1.98104 1.9877 1.99436 2.00102 2.00769 2.01435 
2.02101 2.02767 2.03433 2.04099 2.04766 2.05432 2.06098 2.06764 2.0743 
2.08096 2.08763 2.09429 2.10095 2.0997 2.08969 2.07968 2.06966 2.05965 
2.04964 2.03963 2.02962 2.01961 2.0096 1.99959 1.98958 1.97956 1.96955 
1.95954 1.94953 1.93952 1.92951 1.9195 1.90949 1.89943 1.88919 1.87895 
1.86871 1.85847 1.84822 1.83798 1.82774 1.8175 1.80726 1.79702 1.78678 
1.77654 1.7663 1.75605 1.74581 1.73557 1.72533 1.71509 1.70485 1.69461 
1.68726 1.68017 1.67308 1.666 1.65891 1.65182 1.64473 1.63765 1.63056 
1.62347 1.61639 1.6093 1.60221 1.59513 1.58804 1.58095 1.57386 1.56678 
1.55969 1.5526 1.55009 1.55022 1.55036 1.5505 1.55063 1.55077 1.55091 
1.55105 1.55118 1.55132 1.55146 1.55159 1.55173 1.55187 1.55201 1.55214 
1.55228 1.55242 1.55255 1.55269 1.55539 1.56288 1.57036 1.57784 1.58533 
1.59281 1.60029 1.60778 1.61526 1.62274 1.63023 1.63771 1.6452 1.65268 
1.66016 1.66765 1.67513 1.68261 1.6901 1.69758 1.70525 1.71549 1.72574 
1.73598 1.74623 1.75647 1.76672 1.77696 1.78721 1.79745 1.8077 1.81794 
1.82819 1.83843 1.84868 1.85892 1.86917 1.87941 1.88966 1.8999 1.91015 
1.92009 1.92994 1.9398 1.94966 1.95951 1.96937 1.97922 1.98908 1.99894 
2.00879 2.01865 2.0285 2.03836 2.04822 2.05807 2.06793 2.07779 2.08764 
2.0975 2.10735 2.11356 2.11642 2.11929 2.12215 2.12501 2.12788 2.13074 
2.13361 2.13647 2.13934 2.1422 2.14506 2.14793 2.15079 2.15366 2.15652 
2.15939 2.16225 2.16511 2.16798 2.16808 2.16155 2.15503 2.1485 2.14197 
2.13545 2.12892 2.1224 2.11587 2.10934 2.10282 2.09629 2.08977 2.08324 
2.07671 2.07019 2.06366 2.05714 2.05061 2.04408 2.0378 2.03323 2.02866 
2.02409 2.01953 2.01496 2.01039 2.00582 2.00126 1.99669 1.99212 1.98755 
1.98299 1.97842 1.97385 1.96928 1.96472 1.96015 1.95558 1.95101 1.94645 
1.9519 1.9579 1.9639 1.9699 1.9759 1.9819 1.9879 1.9939 1.9999 
2.0059 2.0119 2.0179 2.0239 2.0299 2.0359 2.0419 2.0479 2.0539 
2.0599 2.0659 2.05683 2.04167 2.02651 2.01135 1.99619 1.98102 1.96586 
1.9507 1.93554 1.92038 1.90522 1.89006 1.87489 1.85973 1.84457 1.82941 
1.81425 1.79909 1.78393 1.76876 1.76006 1.75956 1.75907 1.75857 1.75807 
1.75757 1.75708 1.75658 1.75608 1.75558 1.75509 1.75459 1.75409 1.75359 
1.7531 1.7526 1.7521 1.7516 1.75111 1.75061 1.75301 1.77061 1.78822 
1.80583 1.82343 1.84104 1.85865 1.87625 1.89386 1.91147 1.92907 1.94668 
1.96428 1.98189 1.9995 2.0171 2.03471 2.05232 2.06992 2.08753 2.10514 
2.09174 2.07395 2.05616 2.03837 2.02058 2.00279 1.985 1.96721 1.94942 
1.93163 1.91384 1.89605 1.87826 1.86047 1.84268 1.8249 1.80711 1.78932 
1.77153 1.75374 1.74443 1.74094 1.73744 1.73395 1.73046 1.72697 1.72348 
1.71998 1.71649 1.713 1.70951 1.70602 1.70252 1.69903 1.69554 1.69205 
1.68856 1.68506 1.68157 1.67808 1.67731 1.68253 1.68774 1.69296 1.69817 
1.70339 1.7086 1.71382 1.71903 1.72425 1.72946 1.73468 1.73989 1.74511 
1.75032 1.75554 1.76075 1.76597 1.77118 1.7764 1.78124 1.77364 1.76605 
1.75845 1.75086 1.74326 1.73567 1.72808 1.72048 1.71289 1.70529 1.6977 
1.6901 1.68251 1.67491 1.66732 1.65972 1.65213 1.64453 1.63694 1.62934 
1.63274 1.6399 1.64705 1.65421 1.66136 1.66851 1.67567 1.68282 1.68998 
1.69713 1.70429 1.71144 1.71859 1.72575 1.7329 1.74006 1.74721 1.75436 
1.76152 1.76867 1.77084 1.76866 1.76648 1.7643 1.76213 1.75995 1.75777 
1.75559 1.75342 1.75124 1.74906 1.74689 1.74471 1.74253 1.74035 1.73818 
1.736 1.73382 1.73164 1.72947 1.72235 1.71373 1.70512 1.6965 1.68788 
1.67926 1.67065 1.66203 1.65341 1.64479 1.63618 1.62756 1.61894 1.61032 
1.60171 1.59309 1.58447 1.57585 1.56723 1.55862 1.55 
TEXTURE_COORDINATES TCoords 2 float
0 0 0.000784314 0 0.00156863 0 0.00235294 0 0.00313725 
0 0.00392157 0 0.00470588 0 0.0054902 0 0.00627451 0 
0.00705882 0 0.00784314 0 0.00862745 0 0.00941176 0 0.0101961 
0 0.0109804 0 0.0117647 0 0.012549 0 0.0133333 0 
0.0141176 0 0.014902 0 0.0156863 0 0.0164706 0 0.0172549 
0 0.0180392 0 0.0188235 0 0.0196078 0 0.0203922 0 
0.0211765 0 0.0219608 0 0.0227451 0 0.0235294 0 0.0243137 
0 0.025098 0 0.0258824 0 0.0266667 0 0.027451 0 
0.0282353 0 0.0290196 0 0.0298039 0 0.0305882 0 0.0313726 
0 0.0321569 0 0.0329412 0 0.0337255 0 0.0345098 0 
0.0352941 0 0.0360784 0 0.0368627 0 0.0376471 0 0.0384314 
0 0.0392157 0 0.04 0 0.0407843 0 0.0415686 0 
0.0423529 0 0.0431373 0 0.0439216 0 0.0447059 0 0.0454902 
0 0.0462745 0 0.0470588 0 0.0478431 0 0.0486275 0 
0.0494118 0 0.0501961 0 0.0509804 0 0.0517647 0 0.052549 
0 0.0533333 0 0.0541176 0 0.054902 0 0.0556863 0 
0.0564706 0 0.0572549 0 0.0580392 0 0.0588235 0 0.0596078 
0 0.0603922 0 0.0611765 0 0.0619608 0 0.0627451 0 
0.0635294 0 0.0643137 0 0.065098 0 0.0658824 0 0.0666667 
0 0.067451 0 0.0682353 0 0.0690196 0 0.0698039 0 
0.0705882 0 0.0713725 0 0.0721569 0 0.0729412 0 0.0737255 
0 0.0745098 0 0.0752941 0 0.0760784 0 0.0768627 0 
0.0776471 0 0.0784314 0 0.0792157 0 0.08 0 0.0807843 
0 0.0815686 0 0.0823529 0 0.0831373 0 0.0839216 0 
0.0847059 0 0.0854902 0 0.0862745 0 0.0870588 0 0.0878431 
0 0.0886275 0 0.0894118 0 0.0901961 0 0.0909804 0 
0.0917647 0 0.092549 0 0.0933333 0 0.0941176 0 0.094902 
0 0.0956863 0 0.0964706 0 0.0972549 0 0.0980392 0 
0.0988235 0 0.0996078 0 0.100392 0 0.101176 0 0.101961 
0 0.102745 0 0.103529 0 0.104314 0 0.105098 0 
0.105882 0 0.106667 0 0.107451 0 0.108235 0 0.10902 
0 0.109804 0 0.110588 0 0.111373 0 0.112157 0 
0.112941 0 0.113725 0 0.11451 0 0.115294 0 0.116078 
0 0.116863 0 0.117647 0 0.118431 0 0.119216 0 
0.12 0 0.120784 0 0.121569 0 0.122353 0 0.123137 
0 0.123922 0 0.124706 0 0.12549 0 0.126275 0 
0.127059 0 0.127843 0 0.128627 0 0.129412 0 0.130196 
0 0.13098 0 0.131765 0 0.132549 0 0.133333 0 
0.134118 0 0.134902 0 0.135686 0 0.136471 0 0.137255 
0 0.138039 0 0.138824 0 0.139608 0 0.140392 0 
0.141176 0 0.141961 0 0.142745 0 0.143529 0 0.144314 
0 0.145098 0 0.145882 0 0.146667 0 0.147451 0 
0.148235 0 0.14902 0 0.149804 0 0.150588 0 0.151373 
0 0.152157 0 0.152941 0 0.153725 0 0.15451 0 
0.155294 0 0.156078 0 0.156863 0 0.157647 0 0.158431 
0 0.159216 0 0.16 0 0.160784 0 0.161569 0 
0.162353 0 0.163137 0 0.163922 0 0.164706 0 0.16549 
0 0.166275 0 0.167059 0 0.167843 0 0.168627 0 
0.169412 0 0.170196 0 0.17098 0 0.171765 0 0.172549 
0 0.173333 0 0.174118 0 0.174902 0 0.175686 0 
0.176471 0 0.177255 0 0.178039 0 0.178824 0 0.179608 
0 0.180392 0 0.181176 0 0.181961 0 0.182745 0 
0.183529 0 0.184314 0 0.185098 0 0.185882 0 0.186667 
0 0.187451 0 0.188235 0 0.18902 0 0.189804 0 
0.190588 0 0.191373 0 0.192157 0 0.192941 0 0.193725 
0 0.19451 0 0.195294 0 0.196078 0 0.196863 0 
0.197647 0 0.198431 0 0.199216 0 0.2 0 0.200784 
0 0.201569 0 0.202353 0 0.203137 0 0.203922 0 
0.204706 0 0.20549 0 0.206275 0 0.207059 0 0.207843 
0 0.208627 0 0.209412 0 0.210196 0 0.21098 0 
0.211765 0 0.212549 0 0.213333 0 0.214118 0 0.214902 
0 0.215686 0 0.216471 0 0.217255 0 0.218039 0 
0.218824 0 0.219608 0 0.220392 0 0.221176 0 0.221961 
0 0.222745 0 0.223529 0 0.224314 0 0.225098 0 
0.225882 0 0.226667 0 0.227451 0 0.228235 0 0.22902 
0 0.229804 0 0.230588 0 0.231373 0 0.232157 0 
0.232941 0 0.233725 0 0.23451 0 0.235294 0 0.236078 
0 0.236863 0 0.237647 0 0.238431 0 0.239216 0 
0.24 0 0.240784 0 0.241569 0 0.242353 0 0.243137 
0 0.243922 0 0.244706 0 0.24549 0 0.246275 0 
0.247059 0 0.247843 0 0.248627 0 0.249412 0 0.250196 
0 0.25098 0 0.251765 0 0.252549 0 0.253333 0 
0.254118 0 0.254902 0 0.255686 0 0.256471 0 0.257255 
0 0.258039 0 0.258824 0 0.259608 0 0.260392 0 
0.261176 0 0.261961 0 0.262745 0 0.263529 0 0.264314 
0 0.265098 0 0.265882 0 0.266667 0 0.267451 0 
0.268235 0 0.26902 0 0.269804 0 0.270588 0 0.271373 
0 0.272157 0 0.272941 0 0.273725 0 0.27451 0 
0.275294 0 0.276078 0 0.276863 0 0.277647 0 0.278431 
0 0.279216 0 0.28 0 0.280784 0 0.281569 0 
0.282353 0 0.283137 0 0.283922 0 0.284706 0 0.28549 
0 0.286275 0 0.287059 0 0.287843 0 0.288627 0 
0.289412 0 0.290196 0 0.29098 0 0.291765 0 0.292549 
0 0.293333 0 0.294118 0 0.294902 0 0.295686 0 
0.296471 0 0.297255 0 0.298039 0 0.298824 0 0.299608 
0 0.300392 0 0.301176 0 0.301961 0 0.302745 0 
0.303529 0 0.304314 0 0.305098 0 0.305882 0 0.306667 
0 0.307451 0 0.308235 0 0.30902 0 0.309804 0 
0.310588 0 0.311373 0 0.312157 0 0.312941 0 0.313726 
0 0.31451 0 0.315294 0 0.316078 0 0.316863 0 
0.317647 0 0.318431 0 0.319216 0 0.32 0 0.320784 
0 0.321569 0 0.322353 0 0.323137 0 0.323922 0 
0.324706 0 0.32549 0 0.326275 0 0.327059 0 0.327843 
0 0.328627 0 0.329412 0 0.330196 0 0.33098 0 
0.331765 0 0.332549 0 0.333333 0 0.334118 0 0.334902 
0 0.335686 0 0.336471 0 0.337255 0 0.338039 0 
0.338824 0 0.339608 0 0.340392 0 0.341176 0 0.341961 
0 0.342745 0 0.343529 0 0.344314 0 0.345098 0 
0.345882 0 0.346667 0 0.347451 0 0.348235 0 0.34902 
0 0.349804 0 0.350588 0 0.351373 0 0.352157 0 
0.352941 0 0.353725 0 0.35451 0 0.355294 0 0.356078 
0 0.356863 0 0.357647 0 0.358431 0 0.359216 0 
0.36 0 0.360784 0 0.361569 0 0.362353 0 0.363137 
0 0.363922 0 0.364706 0 0.36549 0 0.366275 0 
0.367059 0 0.367843 0 0.368627 0 0.369412 0 0.370196 
0 0.37098 0 0.371765 0 0.372549 0 0.373333 0 
0.374118 0 0.374902 0 0.375686 0 0.376471 0 0.377255 
0 0.378039 0 0.378824 0 0.379608 0 0.380392 0 
0.381176 0 0.381961 0 0.382745 0 0.383529 0 0.384314 
0 0.385098 0 0.385882 0 0.386667 0 0.387451 0 
0.388235 0 0.38902 0 0.389804 0 0.390588 0 0.391373 
0 0.392157 0 0.392941 0 0.393725 0 0.39451 0 
0.395294 0 0.396078 0 0.396863 0 0.397647 0 0.398431 
0 0.399216 0 0.4 0 0.400784 0 0.401569 0 
0.402353 0 0.403137 0 0.403922 0 0.404706 0 0.40549 
0 0.406274 0 0.407059 0 0.407843 0 0.408627 0 
0.409412 0 0.410196 0 0.41098 0 0.411765 0 0.412549 
0 0.413333 0 0.414118 0 0.414902 0 0.415686 0 
0.416471 0 0.417255 0 0.418039 0 0.418824 0 0.419608 
0 0.420392 0 0.421176 0 0.421961 0 0.422745 0 
0.423529 0 0.424314 0 0.425098 0 0.425882 0 0.426667 
0 0.427451 0 0.428235 0 0.42902 0 0.429804 0 
0.430588 0 0.431373 0 0.432157 0 0.432941 0 0.433725 
0 0.43451 0 0.435294 0 0.436078 0 0.436863 0 
0.437647 0 0.438431 0 0.439216 0 0.44 0 0.440784 
0 0.441569 0 0.442353 0 0.443137 0 0.443922 0 
0.444706 0 0.44549 0 0.446275 0 0.447059 0 0.447843 
0 0.448627 0 0.449412 0 0.450196 0 0.45098 0 
0.451765 0 0.452549 0 0.453333 0 0.454118 0 0.454902 
0 0.455686 0 0.456471 0 0.457255 0 0.458039 0 
0.458824 0 0.459608 0 0.460392 0 0.461176 0 0.461961 
0 0.462745 0 0.463529 0 0.464314 0 0.465098 0 
0.465882 0 0.466667 0 0.467451 0 0.468235 0 0.46902 
0 0.469804 0 0.470588 0 0.471373 0 0.472157 0 
0.472941 0 0.473725 0 0.47451 0 0.475294 0 0.476078 
0 0.476863 0 0.477647 0 0.478431 0 0.479216 0 
0.48 0 0.480784 0 0.481569 0 0.482353 0 0.483137 
0 0.483922 0 0.484706 0 0.48549 0 0.486275 0 
0.487059 0 0.487843 0 0.488627 0 0.489412 0 0.490196 
0 0.49098 0 0.491765 0 0.492549 0 0.493333 0 
0.494118 0 0.494902 0 0.495686 0 0.496471 0 0.497255 
0 0.498039 0 0.498824 0 0.499608 0 0.500392 0 
0.501176 0 0.501961 0 0.502745 0 0.503529 0 0.504314 
0 0.505098 0 0.505882 0 0.506667 0 0.507451 0 
0.508235 0 0.50902 0 0.509804 0 0.510588 0 0.511373 
0 0.512157 0 0.512941 0 0.513726 0 0.51451 0 
0.515294 0 0.516078 0 0.516863 0 0.517647 0 0.518431 
0 0.519216 0 0.52 0 0.520784 0 0.521569 0 
0.522353 0 0.523137 0 0.523922 0 0.524706 0 0.52549 
0 0.526275 0 0.527059 0 0.527843 0 0.528627 0 
0.529412 0 0.530196 0 0.53098 0 0.531765 0 0.532549 
0 0.533333 0 0.534118 0 0.534902 0 0.535686 0 
0.536471 0 0.537255 0 0.538039 0 0.538824 0 0.539608 
0 0.540392 0 0.541176 0 0.541961 0 0.542745 0 
0.543529 0 0.544314 0 0.545098 0 0.545882 0 0.546667 
0 0.547451 0 0.548235 0 0.54902 0 0.549804 0 
0.550588 0 0.551373 0 0.552157 0 0.552941 0 0.553725 
0 0.55451 0 0.555294 0 0.556078 0 0.556863 0 
0.557647 0 0.558431 0 0.559216 0 0.56 0 0.560784 
0 0.561569 0 0.562353 0 0.563137 0 0.563922 0 
0.564706 0 0.56549 0 0.566275 0 0.567059 0 0.567843 
0 0.568627 0 0.569412 0 0.570196 0 0.57098 0 
0.571765 0 0.572549 0 0.573333 0 0.574118 0 0.574902 
0 0.575686 0 0.576471 0 0.577255 0 0.578039 0 
0.578824 0 0.579608 0 0.580392 0 0.581176 0 0.581961 
0 0.582745 0 0.583529 0 0.584314 0 0.585098 0 
0.585882 0 0.586667 0 0.587451 0 0.588235 0 0.58902 
0 0.589804 0 0.590588 0 0.591373 0 0.592157 0 
0.592941 0 0.593726 0 0.59451 0 0.595294 0 0.596078 
0 0.596863 0 0.597647 0 0.598431 0 0.599216 0 
0.6 0 0.600784 0 0.601569 0 0.602353 0 0.603137 
0 0.603922 0 0.604706 0 0.60549 0 0.606274 0 
0.607059 0 0.607843 0 0.608627 0 0.609412 0 0.610196 
0 0.61098 0 0.611765 0 0.612549 0 0.613333 0 
0.614118 0 0.614902 0 0.615686 0 0.616471 0 0.617255 
0 0.618039 0 0.618824 0 0.619608 0 0.620392 0 
0.621176 0 0.621961 0 0.622745 0 0.623529 0 0.624314 
0 0.625098 0 0.625882 0 0.626667 0 0.627451 0 
0.628235 0 0.62902 0 0.629804 0 0.630588 0 0.631373 
0 0.632157 0 0.632941 0 0.633725 0 0.63451 0 
0.635294 0 0.636078 0 0.636863 0 0.637647 0 0.638431 
0 0.639216 0 0.64 0 0.640784 0 0.641569 0 
0.642353 0 0.643137 0 0.643922 0 0.644706 0 0.64549 
0 0.646275 0 0.647059 0 0.647843 0 0.648627 0 
0.649412 0 0.650196 0 0.65098 0 0.651765 0 0.652549 
0 0.653333 0 0.654118 0 0.654902 0 0.655686 0 
0.656471 0 0.657255 0 0.658039 0 0.658824 0 0.659608 
0 0.660392 0 0.661176 0 0.661961 0 0.662745 0 
0.663529 0 0.664314 0 0.665098 0 0.665882 0 0.666667 
0 0.667451 0 0.668235 0 0.66902 0 0.669804 0 
0.670588 0 0.671373 0 0.672157 0 0.672941 0 0.673725 
0 0.67451 0 0.675294 0 0.676078 0 0.676863 0 