# vtk DataFile Version 4.2
vtk output
ASCII
DATASET POLYDATA
POINTS 1277 float
0 0 0 -0.00378874 -0.00150539 0.000379728 -0.0148388 -0.00588988 0.00150476 
-0.0326759 -0.0129559 0.00335387 -0.0568258 -0.022506 0.00590584 -0.0868143 -0.0343426 0.00913944 
-0.122167 -0.0482682 0.0130334 -0.16241 -0.0640853 0.0175666 -0.207069 -0.0815963 0.0227177 
-0.255669 -0.100604 0.0284656 -0.307737 -0.12091 0.034789 -0.362797 -0.142318 0.0416666 
-0.420377 -0.164629 0.0490773 -0.480001 -0.187647 0.0569998 -0.541195 -0.211173 0.0654129 
-0.603486 -0.235011 0.0742954 -0.666398 -0.258962 0.083626 -0.729458 -0.28283 0.0933836 
-0.792192 -0.306416 0.103547 -0.854124 -0.329524 0.114095 -0.914782 -0.351955 0.125006 
-0.97369 -0.373512 0.136259 -1.03052 -0.394058 0.147835 -1.08533 -0.41363 0.159726 
-1.13826 -0.432294 0.171921 -1.18944 -0.450114 0.184412 -1.23902 -0.467156 0.197191 
-1.28712 -0.483487 0.210248 -1.33389 -0.499172 0.223575 -1.37946 -0.514277 0.237164 
-1.42396 -0.528868 0.251005 -1.46753 -0.54301 0.26509 -1.51031 -0.556769 0.279411 
-1.55243 -0.570211 0.293957 -1.59403 -0.583402 0.308722 -1.63524 -0.596408 0.323695 
-1.6762 -0.609293 0.338869 -1.71705 -0.622125 0.354234 -1.75792 -0.634969 0.369782 
-1.79895 -0.64789 0.385504 -1.84027 -0.660954 0.401392 -1.88201 -0.674226 0.417437 
-1.92424 -0.687738 0.43363 -1.96692 -0.70148 0.449968 -2.01002 -0.715446 0.466442 
-2.0535 -0.729624 0.483049 -2.09733 -0.744007 0.499781 -2.14146 -0.758584 0.516633 
-2.18588 -0.773347 0.533598 -2.23053 -0.788287 0.550672 -2.27539 -0.803394 0.567848 
-2.32042 -0.818659 0.58512 -2.36559 -0.834073 0.602482 -2.41086 -0.849626 0.619929 
-2.45619 -0.86531 0.637454 -2.50155 -0.881116 0.655052 -2.54691 -0.897034 0.672716 
-2.59223 -0.913055 0.690441 -2.63747 -0.929169 0.708222 -2.6826 -0.945368 0.726051 
-2.72759 -0.961643 0.743923 -2.7724 -0.977984 0.761832 -2.817 -0.994389 0.779772 
-2.8614 -1.01087 0.79773 -2.90561 -1.02745 0.815695 -2.94964 -1.04415 0.833655 
-2.99349 -1.06098 0.851599 -3.03718 -1.07797 0.869515 -3.0807 -1.09512 0.887392 
-3.12408 -1.11246 0.905217 -3.16732 -1.13001 0.92298 -3.21043 -1.14778 0.940668 
-3.25342 -1.16579 0.958269 -3.29628 -1.18407 0.975773 -3.33905 -1.20262 0.993167 
-3.38171 -1.22147 1.01044 -3.42429 -1.24063 1.02758 -3.46679 -1.26013 1.04457 
-3.50921 -1.27998 1.06141 -3.55157 -1.30019 1.07808 -3.59388 -1.3208 1.09458 
-3.63614 -1.34181 1.11088 -3.67836 -1.36324 1.12697 -3.72053 -1.38511 1.14285 
-3.76263 -1.40742 1.15848 -3.80463 -1.4302 1.17384 -3.84653 -1.45344 1.18892 
-3.88829 -1.47716 1.2037 -3.92991 -1.50137 1.21814 -3.97137 -1.52609 1.23224 
-4.01263 -1.55132 1.24597 -4.0537 -1.57708 1.25931 -4.09454 -1.60337 1.27224 
-4.13514 -1.63021 1.28473 -4.17547 -1.65761 1.29678 -4.21553 -1.68558 1.30835 
-4.25529 -1.71413 1.31942 -4.29472 -1.74327 1.32998 -4.33383 -1.77301 1.34 
-4.37257 -1.80337 1.34946 -4.41094 -1.83436 1.35835 -4.44892 -1.86598 1.36663 
-4.48648 -1.89825 1.3743 -4.52363 -1.93116 1.38134 -4.56034 -1.96469 1.38777 
-4.59663 -1.99882 1.39359 -4.63249 -2.03353 1.39881 -4.66791 -2.0688 1.40344 
-4.70289 -2.1046 1.40749 -4.73743 -2.14093 1.41097 -4.77152 -2.17775 1.41388 
-4.80517 -2.21504 1.41624 -4.83836 -2.2528 1.41804 -4.8711 -2.29099 1.41931 
-4.90338 -2.32959 1.42004 -4.9352 -2.36859 1.42025 -4.96655 -2.40797 1.41995 
-4.99744 -2.4477 1.41914 -5.02785 -2.48776 1.41783 -5.05779 -2.52814 1.41603 
-5.08725 -2.56881 1.41375 -5.11623 -2.60976 1.41099 -5.14472 -2.65095 1.40777 
-5.17274 -2.69239 1.4041 -5.20029 -2.73404 1.39999 -5.2274 -2.77591 1.39546 
-5.25409 -2.81799 1.39053 -5.28037 -2.86026 1.38522 -5.30627 -2.90271 1.37953 
-5.33179 -2.94533 1.3735 -5.35696 -2.98811 1.36713 -5.38181 -3.03104 1.36044 
-5.40633 -3.07411 1.35345 -5.43057 -3.1173 1.34619 -5.45452 -3.16062 1.33865 
-5.47822 -3.20404 1.33086 -5.50168 -3.24756 1.32285 -5.52491 -3.29116 1.31461 
-5.54795 -3.33483 1.30618 -5.57079 -3.37857 1.29757 -5.59348 -3.42236 1.2888 
-5.61601 -3.46619 1.27988 -5.63841 -3.51005 1.27082 -5.6607 -3.55394 1.26165 
-5.68289 -3.59784 1.25237 -5.70497 -3.64176 1.24296 -5.72696 -3.68569 1.23344 
-5.74886 -3.72963 1.2238 -5.77067 -3.77358 1.21403 -5.79241 -3.81753 1.20414 
-5.81408 -3.86148 1.19413 -5.83568 -3.90543 1.18399 -5.85722 -3.94937 1.17372 
-5.87871 -3.99331 1.16332 -5.90015 -4.03724 1.1528 -5.92155 -4.08116 1.14214 
-5.94292 -4.12506 1.13135 -5.96425 -4.16894 1.12042 -5.98556 -4.2128 1.10936 
-6.00685 -4.25663 1.09816 -6.02813 -4.30044 1.08682 -6.0494 -4.34422 1.07534 
-6.07067 -4.38796 1.06372 -6.09195 -4.43167 1.05196 -6.11322 -4.47535 1.04004 
-6.1345 -4.51898 1.02797 -6.15578 -4.56256 1.01572 -6.17706 -4.6061 1.00329 
-6.19833 -4.64959 0.990675 -6.21958 -4.69302 0.977856 -6.24083 -4.7364 0.964828 
-6.26206 -4.77972 0.951579 -6.28327 -4.82298 0.938101 -6.30447 -4.86617 0.924383 
-6.32564 -4.90929 0.910415 -6.34678 -4.95235 0.896189 -6.3679 -4.99532 0.881693 
-6.38898 -5.03823 0.866919 -6.41004 -5.08105 0.851856 -6.43105 -5.12379 0.836494 
-6.45203 -5.16644 0.820824 -6.47296 -5.209 0.804836 -6.49385 -5.25148 0.78852 
-6.51469 -5.29385 0.771866 -6.53548 -5.33613 0.754865 -6.55621 -5.37831 0.737508 
-6.57686 -5.42037 0.719785 -6.59742 -5.46232 0.701687 -6.61789 -5.50415 0.683204 
-6.63826 -5.54585 0.664329 -6.65851 -5.58743 0.64505 -6.67864 -5.62886 0.62536 
-6.69863 -5.67016 0.605249 -6.71848 -5.71131 0.584708 -6.73817 -5.7523 0.563727 
-6.75769 -5.79314 0.542297 -6.77704 -5.83382 0.520409 -6.7962 -5.87433 0.498054 
-6.81517 -5.91466 0.475223 -6.83393 -5.95482 0.451905 -6.85247 -5.99479 0.428093 
-6.87079 -6.03457 0.403777 -6.88887 -6.07416 0.378948 -6.9067 -6.11355 0.353596 
-6.92428 -6.15273 0.327716 -6.94158 -6.1917 0.301312 -6.9586 -6.23046 0.274388 
-6.97534 -6.26899 0.246947 -6.99176 -6.30729 0.218993 -7.00787 -6.34536 0.19053 
-7.02365 -6.38318 0.161562 -7.03909 -6.42076 0.132093 -7.05418 -6.45809 0.102127 
-7.0689 -6.49516 0.0716671 -7.08325 -6.53196 0.0407177 -7.09721 -6.56849 0.00928265 
-7.11076 -6.60475 -0.0226343 -7.12391 -6.64073 -0.0550291 -7.13663 -6.67641 -0.0878981 
-7.14892 -6.71181 -0.121237 -7.16076 -6.7469 -0.155043 -7.17214 -6.78169 -0.189311 
-7.18306 -6.81616 -0.224037 -7.19348 -6.85032 -0.259219 -7.20342 -6.88416 -0.294849 
-7.21286 -6.91768 -0.330916 -7.2218 -6.95088 -0.367404 -7.23024 -6.98376 -0.404299 
-7.23817 -7.01633 -0.441588 -7.24561 -7.0486 -0.479254 -7.25254 -7.08056 -0.517284 
-7.25896 -7.11221 -0.555663 -7.26487 -7.14357 -0.594377 -7.27026 -7.17463 -0.633412 
-7.27515 -7.20539 -0.672752 -7.27952 -7.23586 -0.712383 -7.28337 -7.26605 -0.752291 
-7.2867 -7.29595 -0.792461 -7.28951 -7.32556 -0.832879 -7.2918 -7.3549 -0.873531 
-7.29357 -7.38396 -0.914401 -7.2948 -7.41275 -0.955475 -7.29551 -7.44126 -0.996739 
-7.29569 -7.46951 -1.03818 -7.29533 -7.49749 -1.07978 -7.29445 -7.52522 -1.12153 
-7.29304 -7.55269 -1.16342 -7.29111 -7.57992 -1.20544 -7.28867 -7.60691 -1.24758 
-7.28571 -7.63367 -1.28983 -7.28226 -7.66021 -1.33218 -7.2783 -7.68653 -1.37462 
-7.27386 -7.71264 -1.41715 -7.26892 -7.73856 -1.45974 -7.2635 -7.76428 -1.50239 
-7.2576 -7.78981 -1.54509 -7.25123 -7.81516 -1.58784 -7.24439 -7.84035 -1.63061 
-7.23708 -7.86536 -1.67341 -7.22932 -7.89022 -1.71622 -7.22111 -7.91493 -1.75902 
-7.21244 -7.9395 -1.80182 -7.20334 -7.96393 -1.8446 -7.19379 -7.98823 -1.88735 
-7.18382 -8.01242 -1.93007 -7.17341 -8.03648 -1.97274 -7.16259 -8.06044 -2.01535 
-7.15135 -8.08431 -2.05791 -7.1397 -8.10807 -2.10041 -7.12765 -8.13176 -2.14284 
-7.1152 -8.15536 -2.18519 -7.10237 -8.17889 -2.22747 -7.08915 -8.20236 -2.26967 
-7.07555 -8.22577 -2.31178 -7.06159 -8.24913 -2.3538 -7.04726 -8.27244 -2.39571 
-7.03257 -8.29572 -2.43753 -7.01753 -8.31898 -2.47923 -7.00214 -8.34221 -2.52082 
-6.98642 -8.36542 -2.56229 -6.97036 -8.38862 -2.60364 -6.95398 -8.41183 -2.64485 
-6.93728 -8.43504 -2.68593 -6.92026 -8.45826 -2.72687 -6.90293 -8.48151 -2.76766 
-6.88531 -8.50478 -2.80831 -6.86738 -8.52809 -2.8488 -6.84917 -8.55144 -2.88913 
-6.83068 -8.57483 -2.9293 -6.8119 -8.59829 -2.96931 -6.79286 -8.6218 -3.00915 
-6.77355 -8.64539 -3.04882 -6.75397 -8.66905 -3.08832 -6.73415 -8.6928 -3.12765 
-6.71407 -8.71664 -3.16679 -6.69376 -8.74058 -3.20575 -6.6732 -8.76463 -3.24452 
-6.65242 -8.78879 -3.28311 -6.63141 -8.81307 -3.3215 -6.61018 -8.83748 -3.3597 
-6.58874 -8.86202 -3.3977 -6.56709 -8.8867 -3.43549 -6.54524 -8.91154 -3.47308 
-6.52319 -8.93653 -3.51047 -6.50096 -8.96168 -3.54764 -6.47854 -8.987 -3.58459 
-6.45595 -9.0125 -3.62133 -6.43319 -9.03819 -3.65784 -6.41027 -9.06407 -3.69411 
-6.3872 -9.09015 -3.73015 -6.364 -9.11644 -3.76595 -6.34066 -9.14294 -3.8015 
-6.31721 -9.16966 -3.8368 -6.29364 -9.19661 -3.87183 -6.26997 -9.2238 -3.90661 
-6.2462 -9.25124 -3.94111 -6.22235 -9.27892 -3.97533 -6.19843 -9.30687 -4.00928 
-6.17443 -9.33508 -4.04293 -6.15038 -9.36357 -4.0763 -6.12628 -9.39233 -4.10936 
-6.10214 -9.42139 -4.14213 -6.07796 -9.45074 -4.17458 -6.05376 -9.48039 -4.20672 
-6.02955 -9.51035 -4.23854 -6.00534 -9.54064 -4.27003 -5.98113 -9.57125 -4.30118 
-5.95694 -9.60221 -4.332 -5.93278 -9.63352 -4.36247 -5.90865 -9.6652 -4.39259 
-5.88458 -9.69726 -4.42234 -5.86057 -9.72973 -4.45172 -5.83664 -9.7626 -4.48072 
-5.81279 -9.79589 -4.50934 -5.78904 -9.82963 -4.53756 -5.76539 -9.86382 -4.56538 
-5.74187 -9.89847 -4.59279 -5.71848 -9.93359 -4.61979 -5.69523 -9.96922 -4.64636 
-5.67213 -10.0053 -4.67251 -5.6492 -10.042 -4.69821 -5.62644 -10.0792 -4.72347 
-5.60387 -10.1169 -4.74827 -5.5815 -10.1552 -4.77261 -5.55935 -10.194 -4.79648 
-5.53741 -10.2335 -4.81988 -5.51573 -10.2735 -4.84277 -5.49435 -10.3141 -4.86511 
-5.47334 -10.3553 -4.88685 -5.45275 -10.3971 -4.90793 -5.43263 -10.4394 -4.9283 
-5.41304 -10.4823 -4.94791 -5.39404 -10.5257 -4.96672 -5.37568 -10.5697 -4.98466 
-5.35801 -10.6142 -5.00169 -5.34111 -10.6592 -5.01776 -5.32501 -10.7048 -5.03281 
-5.30978 -10.7508 -5.0468 -5.29546 -10.7974 -5.05967 -5.28213 -10.8445 -5.07138 
-5.26983 -10.892 -5.08186 -5.25862 -10.9401 -5.09107 -5.24855 -10.9886 -5.09896 
[...]
CELL_DATA 1
FIELD FieldData 2
Length 1 1 double
63.823190635 
Tortuosity 1 1 double
0.77261462275 
POINT_DATA 1277
SCALARS MaximumInscribedSphereRadius float
LOOKUP_TABLE default
1.24 1.24101 1.24201 1.24302 1.24402 1.24503 1.24604 1.24704 1.24805 
1.24906 1.25006 1.25107 1.25207 1.25308 1.25409 1.25509 1.2561 1.2571 
1.25811 1.25912 1.26012 1.2611 1.26189 1.26268 1.26347 1.26426 1.26504 
1.26583 1.26662 1.26741 1.2682 1.26899 1.26977 1.27056 1.27135 1.27214 
1.27293 1.27371 1.2745 1.27529 1.27608 1.27653 1.27656 1.27659 1.27663 
1.27666 1.2767 1.27673 1.27676 1.2768 1.27683 1.27687 1.2769 1.27693 
1.27697 1.277 1.27704 1.27707 1.2771 1.27714 1.27717 1.27709 1.2764 
1.27571 1.27502 1.27433 1.27364 1.27295 1.27226 1.27157 1.27087 1.27018 
1.26949 1.2688 1.26811 1.26742 1.26673 1.26604 1.26535 1.26466 1.26397 
1.26328 1.26223 1.26113 1.26002 1.25892 1.25782 1.25671 1.25561 1.25451 
1.2534 1.2523 1.2512 1.25009 1.24899 1.24789 1.24678 1.24568 1.24458 
1.24347 1.24237 1.24127 1.24141 1.24233 1.24326 1.24418 1.24511 1.24604 
1.24696 1.24789 1.24881 1.24974 1.25066 1.25159 1.25252 1.25344 1.25437 
1.25529 1.25622 1.25714 1.25807 1.25899 1.26306 1.27205 1.28103 1.29002 
1.29901 1.30799 1.31698 1.32597 1.33496 1.34394 1.35293 1.36192 1.37091 
1.37989 1.38888 1.39787 1.40685 1.41584 1.42483 1.43382 1.44106 1.43424 
1.42743 1.42061 1.4138 1.40698 1.40017 1.39335 1.38654 1.37973 1.37291 
1.3661 1.35928 1.35247 1.34565 1.33884 1.33202 1.32521 1.31839 1.31158 
1.30476 1.28945 1.27232 1.2552 1.23807 1.22095 1.20382 1.1867 1.16957 
1.15245 1.13532 1.1182 1.10107 1.08395 1.06683 1.0497 1.03258 1.01545 
0.998326 0.981201 0.964077 0.961866 0.972275 0.982684 0.993093 1.0035 1.01391 
1.02432 1.03473 1.04514 1.05555 1.06596 1.07637 1.08677 1.09718 1.10759 
1.118 1.12841 1.13882 1.14923 1.15964 1.16627 1.16271 1.15916 1.15561 
1.15205 1.1485 1.14494 1.14139 1.13783 1.13428 1.13073 1.12717 1.12362 
1.12006 1.11651 1.11295 1.1094 1.10585 1.10229 1.09874 1.09517 1.09088 
1.0866 1.08231 1.07803 1.07374 1.06946 1.06517 1.06088 1.0566 1.05231 
1.04803 1.04374 1.03946 1.03517 1.03089 1.0266 1.02231 1.01803 1.01374 
1.00946 1.01582 1.02545 1.03508 1.04471 1.05433 1.06396 1.07359 1.08322 
1.09285 1.10248 1.11211 1.12174 1.13137 1.141 1.15063 1.16026 1.16989 
1.17952 1.18915 1.19878 1.20507 1.20799 1.2109 1.21382 1.21674 1.21966 
1.22257 1.22549 1.22841 1.23132 1.23424 1.23716 1.24008 1.24299 1.24591 
1.24883 1.25174 1.25466 1.25758 1.2605 1.26254 1.2615 1.26046 1.25941 
1.25837 1.25733 1.25629 1.25524 1.2542 1.25316 1.25212 1.25107 1.25003 
1.24899 1.24795 1.2469 1.24586 1.24482 1.24378 1.24273 1.24169 1.24155 
1.24147 1.24139 1.24131 1.24123 1.24115 1.24107 1.24099 1.24091 1.24083 
1.24075 1.24067 1.24059 1.24051 1.24043 1.24035 1.24027 1.24019 1.24011 
1.24003 1.24465 1.25167 1.25869 1.26571 1.27273 1.27975 1.28676 1.29378 
1.3008 1.30782 1.31484 1.32186 1.32888 1.3359 1.34291 1.34993 1.35695 
1.36397 1.37099 1.37801 1.38864 1.40455 1.42047 1.43638 1.4523 1.46822 
1.48413 1.50005 1.51596 1.53188 1.5478 1.56371 1.57963 1.59555 1.61146 
1.62738 1.64329 1.65921 1.67513 1.69104 1.69964 1.68228 1.66492 1.64755 
1.63019 1.61283 1.59546 1.5781 1.56074 1.54337 1.52601 1.50865 1.49128 
1.47392 1.45656 1.43919 1.42183 1.40447 1.3871 1.36974 1.35922 1.3631 
1.36697 1.37085 1.37473 1.3786 1.38248 1.38636 1.39023 1.39411 1.39799 
1.40186 1.40574 1.40962 1.4135 1.41737 1.42125 1.42513 1.429 1.43288 
1.43628 1.43723 1.43818 1.43913 1.44008 1.44103 1.44198 1.44293 1.44388 
1.44483 1.44578 1.44673 1.44768 1.44863 1.44958 1.45053 1.45148 1.45243 
1.45338 1.45434 1.45529 1.44364 1.43107 1.41851 1.40594 1.39337 1.3808 
1.36823 1.35567 1.3431 1.33053 1.31796 1.30539 1.29283 1.28026 1.26769 
1.25512 1.24256 1.22999 1.21742 1.20485 1.19991 1.19855 1.19719 1.19583 
1.19447 1.19311 1.19175 1.19039 1.18903 1.18766 1.1863 1.18494 1.18358 
1.18222 1.18086 1.1795 1.17814 1.17678 1.17541 1.17405 1.17547 1.18067 
1.18586 1.19106 1.19625 1.20145 1.20664 1.21183 1.21703 1.22222 1.22742 
1.23261 1.23781 1.243 1.2482 1.25339 1.25858 1.26378 1.26897 1.27417 
1.28125 1.29767 1.31409 1.33051 1.34693 1.36335 1.37977 1.39619 1.41261 
1.42904 1.44546 1.46188 1.4783 1.49472 1.51114 1.52756 1.54398 1.5604 
1.57682 1.59325 1.60967 1.60747 1.60373 1.59999 1.59624 1.5925 1.58875 
1.58501 1.58126 1.57752 1.57378 1.57003 1.56629 1.56254 1.5588 1.55505 
1.55131 1.54757 1.54382 1.54008 1.53633 1.52759 1.51694 1.50629 1.49564 
1.48499 1.47434 1.46369 1.45304 1.44239 1.43174 1.42109 1.41044 1.39979 
1.38914 1.37849 1.36784 1.35719 1.34654 1.33589 1.32524 1.32837 1.33898 
1.34959 1.36021 1.37082 1.38143 1.39204 1.40266 1.41327 1.42388 1.43449 
1.44511 1.45572 1.46633 1.47694 1.48756 1.49817 1.50878 1.51939 1.53001 
1.53065 1.52212 1.5136 1.50507 1.49655 1.48802 1.4795 1.47097 1.46244 
1.45392 1.44539 1.43687 1.42834 1.41982 1.41129 1.40277 1.39424 1.38571 
1.37719 1.36866 1.36192 1.35965 1.35739 1.35512 1.35286 1.3506 1.34833 
1.34607 1.3438 1.34154 1.33928 1.33701 1.33475 1.33248 1.33022 1.32795 
1.32569 1.32343 1.32116 1.3189 1.31671 1.32478 1.33285 1.34092 1.349 
1.35707 1.36514 1.37321 1.38128 1.38936 1.39743 1.4055 1.41357 1.42165 
1.42972 1.43779 1.44586 1.45394 1.46201 1.47008 1.47815 1.48288 1.48631 
1.48975 1.49318 1.49661 1.50004 1.50347 1.5069 1.51034 1.51377 1.5172 
1.52063 1.52406 1.5275 1.53093 1.53436 1.53779 1.54122 1.54466 1.54809 
1.55191 1.55622 1.56054 1.56485 1.56916 1.57348 1.57779 1.58211 1.58642 
1.59073 1.59505 1.59936 1.60367 1.60799 1.6123 1.61662 1.62093 1.62524 
1.62956 1.63387 1.64137 1.66216 1.68295 1.70374 1.72453 1.74532 1.76611 
1.7869 1.80768 1.82847 1.84926 1.87005 1.89084 1.91163 1.93242 1.95321 
1.974 1.99479 2.01558 2.03637 2.05716 2.0571 2.05565 2.05421 2.05277 
2.05132 2.04988 2.04843 2.04699 2.04555 2.0441 2.04266 2.04122 2.03977 
2.03833 2.03689 2.03544 2.034 2.03256 2.03111 2.02967 2.02442 2.01723 
2.01003 2.00284 1.99565 1.98845 1.98126 1.97407 1.96687 1.95968 1.95249 
1.94529 1.9381 1.9309 1.92371 1.91652 1.90932 1.90213 1.89494 1.88774 
1.88287 1.88172 1.88057 1.87942 1.87827 1.87712 1.87597 1.87482 1.87367 
1.87252 1.87137 1.87022 1.86907 1.86792 1.86677 1.86562 1.86447 1.86332 
1.86217 1.86102 1.86 1.86 1.86 1.86 1.86 1.86 1.86 
1.86 1.86 1.86 1.86 1.86 1.86 1.86 1.86 1.86 
1.86 1.86 1.86 1.86 1.86 1.86 1.86 1.86 1.86 
1.86 1.86 1.86 1.86 1.86 1.86 1.86 1.86 1.86 
1.86 1.86 1.86 1.86 1.86 1.86 1.86 1.85529 1.84699 
1.83869 1.83039 1.82209 1.81379 1.80549 1.79719 1.7889 1.7806 1.7723 
1.764 1.7557 1.7474 1.7391 1.7308 1.7225 1.7142 1.7059 1.6976 
1.69066 1.68707 1.68347 1.67988 1.67628 1.67269 1.66909 1.6655 1.6619 
1.65831 1.65471 1.65112 1.64752 1.64393 1.64034 1.63674 1.63315 1.62955 
1.62596 1.62236 1.61884 1.62662 1.6344 1.64218 1.64996 1.65774 1.66552 
1.6733 1.68108 1.68886 1.69664 1.70441 1.71219 1.71997 1.72775 1.73553 
1.74331 1.75109 1.75887 1.76665 1.77443 1.77221 1.76612 1.76004 1.75395 
1.74786 1.74178 1.73569 1.7296 1.72352 1.71743 1.71134 1.70526 1.69917 
1.69308 1.687 1.68091 1.67482 1.66873 1.66265 1.65656 1.64888 1.63911 
1.62934 1.61957 1.6098 1.60004 1.59027 1.5805 1.57073 1.56097 1.5512 
1.54143 1.53166 1.5219 1.51213 1.50236 1.49259 1.48283 1.47306 1.46329 
1.45671 1.46858 1.48045 1.49232 1.50419 1.51607 1.52794 1.53981 1.55168 
1.56356 1.57543 1.5873 1.59917 1.61104 1.62292 1.63479 1.64666 1.65853 
1.67041 1.68228 1.69415 1.70616 1.71819 1.73022 1.74225 1.75427 1.7663 
1.77833 1.79036 1.80239 1.81442 1.82645 1.83848 1.85051 1.86254 1.87457 
1.8866 1.89863 1.91066 1.92268 1.93471 1.94543 1.95518 1.96492 1.97467 
1.98441 1.99416 2.0039 2.01365 2.02339 2.03314 2.04288 2.05263 2.06237 
2.07212 2.08186 2.09161 2.10135 2.11109 2.12084 2.13058 2.13818 2.14045 
2.14272 2.145 2.14727 2.14954 2.15181 2.15408 2.15635 2.15862 2.1609 
2.16317 2.16544 2.16771 2.16998 2.17225 2.17452 2.17679 2.17907 2.18134 
2.18356 2.17988 2.17621 2.17253 2.16885 2.16518 2.1615 2.15782 2.15415 
2.15047 2.1468 2.14312 2.13944 2.13577 2.13209 2.12841 2.12474 2.12106 
2.11738 2.11371 2.11003 2.1018 2.0921 2.0824 2.0727 2.063 2.0533 
2.0436 2.0339 2.0242 2.0145 2.0048 1.9951 1.9854 1.9757 1.966 
1.9563 1.9466 1.9369 1.9272 1.9175 1.92547 1.94379 1.96211 1.98043 
1.99874 2.01706 2.03538 2.0537 2.07202 2.09034 2.10866 2.12698 2.1453 
2.16361 2.18193 2.20025 2.21857 2.23689 2.25521 2.27353 2.285 2.28692 
2.28883 2.29075 2.29266 2.29458 2.2965 2.29841 2.30033 2.30224 2.30416 
2.30608 2.30799 2.30991 2.31182 2.31374 2.31566 2.31757 2.31949 2.3214 
2.32124 2.30888 2.29652 2.28416 2.27181 2.25945 2.24709 2.23473 2.22237 
2.21001 2.19765 2.1853 2.17294 2.16058 2.14822 2.13586 2.1235 2.11114 
2.09879 2.08643 2.07407 2.07227 2.0722 2.07212 2.07204 2.07197 2.07189 
2.07181 2.07174 2.07166 2.07158 2.0715 2.07143 2.07135 2.07127 2.0712 
2.07112 2.07104 2.07097 2.07089 2.07081 2.07329 2.07768 2.08207 2.08646 
2.09085 2.09524 2.09962 2.10401 2.1084 2.11279 2.11718 2.12157 2.12595 
2.13034 2.13473 2.13912 2.14351 2.1479 2.15229 2.15667 2.15995 2.16046 
2.16096 2.16146 2.16196 2.16247 2.16297 2.16347 2.16397 2.16447 2.16498 
2.16548 2.16598 2.16648 2.16699 2.16749 2.16799 2.16849 2.169 2.1695 
2.16999 2.1655 2.16101 2.15652 2.15203 2.14754 2.14305 2.13856 2.13407 
2.12958 2.12509 2.1206 2.11612 2.11163 2.10714 2.10265 2.09816 2.09367 
2.08918 2.08469 2.0802 2.07283 2.06432 2.05581 2.04731 2.0388 2.03029 
2.02179 2.01328 2.00478 1.99627 1.98776 1.97926 1.97075 1.96225 1.95374 
1.94523 1.93673 1.92822 1.91972 1.91121 1.90908 1.91529 1.9215 1.92772 
1.93393 1.94014 1.94635 1.95256 1.95877 1.96498 1.97119 1.97741 1.98362 
1.98983 1.99604 2.00225 2.00846 2.01467 2.02089 2.0271 2.03332 2.03958 
2.04584 2.0521 2.05837 2.06463 2.07089 2.07715 2.08342 2.08968 2.09594 
2.10221 2.10847 2.11473 2.12099 2.12726 2.13352 2.13978 2.14605 2.15231 
2.15857 2.15943 2.15933 2.15923 2.15913 2.15903 2.15893 2.15883 2.15873 
2.15863 2.15853 2.15844 2.15834 2.15824 2.15814 2.15804 2.15794 2.15784 
2.15774 2.15764 2.15754 2.14778 2.13008 2.11239 2.0947 2.07701 2.05931 
2.04162 2.02393 2.00624 1.98854 1.97085 1.95316 1.93547 1.91778 1.90008 
1.88239 1.8647 1.84701 1.82931 1.81162 1.78531 1.75804 1.73078 1.70351 
1.67625 1.64898 1.62172 1.59445 1.56719 1.53992 1.51265 1.48539 1.45812 
1.43086 1.40359 1.37633 1.34906 1.3218 1.29453 1.26727 1.24 
TEXTURE_COORDINATES TCoords 2 float
0 0 0.000783699 0 0.0015674 0 0.0023511 0 0.0031348 
0 0.0039185 0 0.00470219 0 0.00548589 0 0.00626959 0 
0.00705329 0 0.00783699 0 0.00862069 0 0.00940439 0 0.0101881 
0 0.0109718 0 0.0117555 0 0.0125392 0 0.0133229 0 
0.0141066 0 0.0148903 0 0.015674 0 0.0164577 0 0.0172414 
0 0.0180251 0 0.0188088 0 0.0195925 0 0.0203762 0 
0.0211599 0 0.0219436 0 0.0227273 0 0.023511 0 0.0242947 
0 0.0250784 0 0.0258621 0 0.0266458 0 0.0274295 0 
0.0282132 0 0.0289969 0 0.0297806 0 0.0305643 0 0.031348 
0 0.0321317 0 0.0329154 0 0.0336991 0 0.0344828 0 
0.0352665 0 0.0360502 0 0.0368339 0 0.0376176 0 0.0384013 
0 0.039185 0 0.0399687 0 0.0407524 0 0.0415361 0 
0.0423197 0 0.0431034 0 0.0438871 0 0.0446708 0 0.0454545 
0 0.0462382 0 0.0470219 0 0.0478056 0 0.0485893 0 
0.049373 0 0.0501567 0 0.0509404 0 0.0517241 0 0.0525078 
0 0.0532915 0 0.0540752 0 0.0548589 0 0.0556426 0 
0.0564263 0 0.05721 0 0.0579937 0 0.0587774 0 0.0595611 
0 0.0603448 0 0.0611285 0 0.0619122 0 0.0626959 0 
0.0634796 0 0.0642633 0 0.065047 0 0.0658307 0 0.0666144 
0 0.0673981 0 0.0681818 0 0.0689655 0 0.0697492 0 
0.0705329 0 0.0713166 0 0.0721003 0 0.072884 0 0.0736677 
0 0.0744514 0 0.0752351 0 0.0760188 0 0.0768025 0 
0.0775862 0 0.0783699 0 0.0791536 0 0.0799373 0 0.080721 
0 0.0815047 0 0.0822884 0 0.0830721 0 0.0838558 0 
0.0846395 0 0.0854232 0 0.0862069 0 0.0869906 0 0.0877743 
0 0.088558 0 0.0893417 0 0.0901254 0 0.0909091 0 
0.0916928 0 0.0924765 0 0.0932602 0 0.0940439 0 0.0948276 
0 0.0956113 0 0.096395 0 0.0971787 0 0.0979624 0 
0.0987461 0 0.0995298 0 0.100313 0 0.101097 0 0.101881 
0 0.102665 0 0.103448 0 0.104232 0 0.105016 0 
0.105799 0 0.106583 0 0.107367 0 0.10815 0 0.108934 
0 0.109718 0 0.110502 0 0.111285 0 0.112069 0 
0.112853 0 0.113636 0 0.11442 0 0.115204 0 0.115987 
0 0.116771 0 0.117555 0 0.118339 0 0.119122 0 
0.119906 0 0.12069 0 0.121473 0 0.122257 0 0.123041 
0 0.123824 0 0.124608 0 0.125392 0 0.126176 0 
0.126959 0 0.127743 0 0.128527 0 0.12931 0 0.130094 
0 0.130878 0 0.131661 0 0.132445 0 0.133229 0 
0.134013 0 0.134796 0 0.13558 0 0.136364 0 0.137147 
0 0.137931 0 0.138715 0 0.139498 0 0.140282 0 
0.141066 0 0.14185 0 0.142633 0 0.143417 0 0.144201 
0 0.144984 0 0.145768 0 0.146552 0 0.147335 0 
0.148119 0 0.148903 0 0.149687 0 0.15047 0 0.151254 
0 0.152038 0 0.152821 0 0.153605 0 0.154389 0 
0.155172 0 0.155956 0 0.15674 0 0.157524 0 0.158307 
0 0.159091 0 0.159875 0 0.160658 0 0.161442 0 
0.162226 0 0.163009 0 0.163793 0 0.164577 0 0.16536 
0 0.166144 0 0.166928 0 0.167712 0 0.168495 0 
0.169279 0 0.170063 0 0.170846 0 0.17163 0 0.172414 
0 0.173197 0 0.173981 0 0.174765 0 0.175549 0 
0.176332 0 0.177116 0 0.1779 0 0.178683 0 0.179467 
0 0.180251 0 0.181034 0 0.181818 0 0.182602 0 
0.183386 0 0.184169 0 0.184953 0 0.185737 0 0.18652 
0 0.187304 0 0.188088 0 0.188871 0 0.189655 0 
0.190439 0 0.191223 0 0.192006 0 0.19279 0 0.193574 
0 0.194357 0 0.195141 0 0.195925 0 0.196708 0 
0.197492 0 0.198276 0 0.19906 0 0.199843 0 0.200627 
0 0.201411 0 0.202194 0 0.202978 0 0.203762 0 
0.204545 0 0.205329 0 0.206113 0 0.206897 0 0.20768 
0 0.208464 0 0.209248 0 0.210031 0 0.210815 0 
0.211599 0 0.212382 0 0.213166 0 0.21395 0 0.214734 
0 0.215517 0 0.216301 0 0.217085 0 0.217868 0 
0.218652 0 0.219436 0 0.220219 0 0.221003 0 0.221787 
0 0.222571 0 0.223354 0 0.224138 0 0.224922 0 
0.225705 0 0.226489 0 0.227273 0 0.228056 0 0.22884 
0 0.229624 0 0.230408 0 0.231191 0 0.231975 0 
0.232759 0 0.233542 0 0.234326 0 0.23511 0 0.235893 
0 0.236677 0 0.237461 0 0.238245 0 0.239028 0 
0.239812 0 0.240596 0 0.241379 0 0.242163 0 0.242947 
0 0.24373 0 0.244514 0 0.245298 0 0.246082 0 
0.246865 0 0.247649 0 0.248433 0 0.249216 0 0.25 
0 0.250784 0 0.251567 0 0.252351 0 0.253135 0 
0.253918 0 0.254702 0 0.255486 0 0.25627 0 0.257053 
0 0.257837 0 0.258621 0 0.259404 0 0.260188 0 
0.260972 0 0.261755 0 0.262539 0 0.263323 0 0.264107 
0 0.26489 0 0.265674 0 0.266458 0 0.267241 0 
0.268025 0 0.268809 0 0.269592 0 0.270376 0 0.27116 
0 0.271944 0 0.272727 0 0.273511 0 0.274295 0 
0.275078 0 0.275862 0 0.276646 0 0.277429 0 0.278213 
0 0.278997 0 0.279781 0 0.280564 0 0.281348 0 
0.282132 0 0.282915 0 0.283699 0 0.284483 0 0.285266 
0 0.28605 0 0.286834 0 0.287618 0 0.288401 0 
0.289185 0 0.289969 0 0.290752 0 0.291536 0 0.29232 
0 0.293103 0 0.293887 0 0.294671 0 0.295455 0 
0.296238 0 0.297022 0 0.297806 0 0.298589 0 0.299373 
0 0.300157 0 0.30094 0 0.301724 0 0.302508 0 
0.303292 0 0.304075 0 0.304859 0 0.305643 0 0.306426 
0 0.30721 0 0.307994 0 0.308777 0 0.309561 0 
0.310345 0 0.311129 0 0.311912 0 0.312696 0 0.31348 
0 0.314263 0 0.315047 0 0.315831 0 0.316614 0 
0.317398 0 0.318182 0 0.318966 0 0.319749 0 0.320533 
0 0.321317 0 0.3221 0 0.322884 0 0.323668 0 
0.324451 0 0.325235 0 0.326019 0 0.326803 0 0.327586 
0 0.32837 0 0.329154 0 0.329937 0 0.330721 0 
0.331505 0 0.332288 0 0.333072 0 0.333856 0 0.334639 
0 0.335423 0 0.336207 0 0.336991 0 0.337774 0 
0.338558 0 0.339342 0 0.340125 0 0.340909 0 0.341693 
0 0.342476 0 0.34326 0 0.344044 0 0.344828 0 
0.345611 0 0.346395 0 0.347179 0 0.347962 0 0.348746 
0 0.34953 0 0.350313 0 0.351097 0 0.351881 0 
0.352665 0 0.353448 0 0.354232 0 0.355016 0 0.355799 
0 0.356583 0 0.357367 0 0.35815 0 0.358934 0 
0.359718 0 0.360502 0 0.361285 0 0.362069 0 0.362853 
0 0.363636 0 0.36442 0 0.365204 0 0.365987 0 
0.366771 0 0.367555 0 0.368339 0 0.369122 0 0.369906 
0 0.37069 0 0.371473 0 0.372257 0 0.373041 0 
0.373824 0 0.374608 0 0.375392 0 0.376176 0 0.376959 
0 0.377743 0 0.378527 0 0.37931 0 0.380094 0 
0.380878 0 0.381661 0 0.382445 0 0.383229 0 0.384013 
0 0.384796 0 0.38558 0 0.386364 0 0.387147 0 
0.387931 0 0.388715 0 0.389498 0 0.390282 0 0.391066 
0 0.39185 0 0.392633 0 0.393417 0 0.394201 0 
0.394984 0 0.395768 0 0.396552 0 0.397335 0 0.398119 
0 0.398903 0 0.399687 0 0.40047 0 0.401254 0 
0.402038 0 0.402821 0 0.403605 0 0.404389 0 0.405172 
0 0.405956 0 0.40674 0 0.407524 0 0.408307 0 
0.409091 0 0.409875 0 0.410658 0 0.411442 0 0.412226 
0 0.413009 0 0.413793 0 0.414577 0 0.415361 0 
0.416144 0 0.416928 0 0.417712 0 0.418495 0 0.419279 
0 0.420063 0 0.420846 0 0.42163 0 0.422414 0 
0.423197 0 0.423981 0 0.424765 0 0.425549 0 0.426332 
0 0.427116 0 0.4279 0 0.428683 0 0.429467 0 
0.430251 0 0.431034 0 0.431818 0 0.432602 0 0.433386 
0 0.434169 0 0.434953 0 0.435737 0 0.43652 0 
0.437304 0 0.438088 0 0.438871 0 0.439655 0 0.440439 
0 0.441223 0 0.442006 0 0.44279 0 0.443574 0 
0.444357 0 0.445141 0 0.445925 0 0.446708 0 0.447492 
0 0.448276 0 0.44906 0 0.449843 0 0.450627 0 
0.451411 0 0.452194 0 0.452978 0 0.453762 0 0.454545 
0 0.455329 0 0.456113 0 0.456897 0 0.45768 0 
0.458464 0 0.459248 0 0.460031 0 0.460815 0 0.461599 
0 0.462382 0 0.463166 0 0.46395 0 0.464734 0 
0.465517 0 0.466301 0 0.467085 0 0.467868 0 0.468652 
0 0.469436 0 0.470219 0 0.471003 0 0.471787 0 
0.472571 0 0.473354 0 0.474138 0 0.474922 0 0.475705 
0 0.476489 0 0.477273 0 0.478056 0 0.47884 0 
0.479624 0 0.480408 0 0.481191 0 0.481975 0 0.482759 
0 0.483542 0 0.484326 0 0.48511 0 0.485893 0 
0.486677 0 0.487461 0 0.488245 0 0.489028 0 0.489812 
0 0.490596 0 0.491379 0 0.492163 0 0.492947 0 
0.49373 0 0.494514 0 0.495298 0 0.496082 0 0.496865 
0 0.497649 0 0.498433 0 0.499216 0 0.5 0 
0.500784 0 0.501567 0 0.502351 0 0.503135 0 0.503918 
0 0.504702 0 0.505486 0 0.50627 0 0.507053 0 
0.507837 0 0.508621 0 0.509404 0 0.510188 0 0.510972 
0 0.511755 0 0.512539 0 0.513323 0 0.514107 0 
0.51489 0 0.515674 0 0.516458 0 0.517241 0 0.518025 
0 0.518809 0 0.519592 0 0.520376 0 0.52116 0 
0.521944 0 0.522727 0 0.523511 0 0.524295 0 0.525078 
0 0.525862 0 0.526646 0 0.527429 0 0.528213 0 
0.528997 0 0.529781 0 0.530564 0 0.531348 0 0.532132 
0 0.532915 0 0.533699 0 0.534483 0 0.535266 0 
0.53605 0 0.536834 0 0.537618 0 0.538401 0 0.539185 
0 0.539969 0 0.540752 0 0.541536 0 0.54232 0 
0.543103 0 0.543887 0 0.544671 0 0.545455 0 0.546238 
0 0.547022 0 0.547806 0 0.548589 0 0.549373 0 
0.550157 0 0.55094 0 0.551724 0 0.552508 0 0.553292 
0 0.554075 0 0.554859 0 0.555643 0 0.556426 0 
0.55721 0 0.557994 0 0.558777 0 0.559561 0 0.560345 
0 0.561128 0 0.561912 0 0.562696 0 0.56348 0 
0.564263 0 0.565047 0 0.565831 0 0.566614 0 0.567398 
0 0.568182 0 0.568965 0 0.569749 0 0.570533 0 
0.571317 0 0.5721 0 0.572884 0 0.573668 0 0.574451 
0 0.575235 0 0.576019 0 0.576802 0 0.577586 0 
0.57837 0 0.579154 0 0.579937 0 0.580721 0 0.581505 
0 0.582288 0 0.583072 0 0.583856 0 0.584639 0 
0.585423 0 0.586207 0 0.586991 0 0.587774 0 0.588558 
0 0.589342 0 0.590125 0 0.590909 0 0.591693 0 
0.592476 0 0.59326 0 0.594044 0 0.594828 0 0.595611 
0 0.596395 0 0.597179 0 0.597962 0 0.598746 0 
0.59953 0 0.600313 0 0.601097 0 0.601881 0 0.602665 
0 0.603448 0 0.604232 0 0.605016 0 0.605799 0 
0.606583 0 0.607367 0 0.60815 0 0.608934 0 0.609718 
0 0.610502 0 0.611285 0 0.612069 0 0.612853 0 
0.613636 0 0.61442 0 0.615204 0 0.615987 0 0.616771 
0 0.617555 0 0.618339 0 0.619122 0 0.619906 0 
0.62069 0 0.621473 0 0.622257 0 0.623041 0 0.623824 
0 0.624608 0 0.625392 0 0.626176 0 0.626959 0 
0.627743 0 0.628527 0 0.62931 0 0.630094 0 0.630878 
0 0.631661 0 0.632445 0 0.633229 0 0.634013 0 
0.634796 0 0.63558 0 0.636364 0 0.637147 0 0.637931 
0 0.638715 0 0.639498 0 0.640282 0 0.641066 0 
0.64185 0 0.642633 0 0.643417 0 0.644201 0 0.644984 
0 0.645768 0 0.646552 0 0.647335 0 0.648119 0 
0.648903 0 0.649687 0 0.65047 0 0.651254 0 0.652038 
0 0.652821 0 0.653605 0 0.654389 0 0.655172 0 
0.655956 0 0.65674 0 0.657524 0 0.658307 0 0.659091 
0 0.659875 0 0.660658 0 0.661442 0 0.662226 0 
0.663009 0 0.663793 0 0.664577 0 0.665361 0 0.666144 
0 0.666928 0 0.667712 0 0.668495 0 0.669279 0 
0.670063 0 0.670846 0 0.67163 0 0.672414 0 0.673198 