# vtk DataFile Version 4.2
vtk output
ASCII
DATASET POLYDATA
POINTS 1277 float
0 0 0 -0.00359828 -0.00015394 0.00200255 -0.0141009 -0.000599835 0.0078225 
-0.0310695 -0.0013138 0.0171783 -0.0540657 -0.00227194 0.0297885 -0.0826513 -0.00345038 0.0453715 
-0.116388 -0.00482522 0.0636458 -0.154837 -0.00637257 0.0843299 -0.19756 -0.00806856 0.107142 
-0.244119 -0.00988929 0.131801 -0.294076 -0.0118109 0.158025 -0.346992 -0.0138094 0.185533 
-0.402428 -0.0158611 0.214043 -0.459948 -0.0179419 0.243274 -0.519111 -0.020028 0.272944 
-0.57948 -0.0220956 0.302771 -0.640617 -0.0241207 0.332474 -0.702082 -0.0260794 0.361772 
-0.763438 -0.0279479 0.390382 -0.824247 -0.0297022 0.418025 -0.88407 -0.0313186 0.444417 
-0.94247 -0.0327731 0.469278 -0.999189 -0.0340541 0.492447 -1.05431 -0.0351725 0.513986 
-1.10794 -0.0361417 0.533981 -1.1602 -0.0369753 0.55252 -1.21121 -0.0376867 0.569688 
-1.26109 -0.0382894 0.585575 -1.30995 -0.0387968 0.600265 -1.3579 -0.0392224 0.613846 
-1.40507 -0.0395797 0.626406 -1.45157 -0.0398822 0.63803 -1.49752 -0.0401434 0.648806 
-1.54303 -0.0403766 0.658821 -1.58822 -0.0405954 0.668161 -1.6332 -0.0408132 0.676914 
-1.6781 -0.0410435 0.685166 -1.72303 -0.0412999 0.693005 -1.76811 -0.0415957 0.700516 
-1.81345 -0.0419444 0.707788 -1.85917 -0.0423595 0.714907 -1.90538 -0.0428543 0.721959 
-1.95214 -0.0434382 0.728987 -1.99942 -0.0441153 0.73598 -2.04718 -0.0448894 0.742925 
-2.09538 -0.0457643 0.749806 -2.144 -0.0467438 0.756611 -2.193 -0.0478318 0.763325 
-2.24234 -0.049032 0.769934 -2.29198 -0.0503482 0.776424 -2.34191 -0.0517842 0.782781 
-2.39207 -0.053344 0.788991 -2.44244 -0.0550312 0.795039 -2.49298 -0.0568497 0.800911 
-2.54366 -0.0588032 0.806594 -2.59444 -0.0608957 0.812073 -2.64529 -0.0631308 0.817335 
-2.69617 -0.0655125 0.822365 -2.74705 -0.0680445 0.827148 -2.79789 -0.0707306 0.831672 
-2.84867 -0.0735747 0.835922 -2.89933 -0.0765805 0.839883 -2.94987 -0.0797528 0.84355 
-3.00029 -0.0830988 0.846933 -3.05058 -0.086626 0.850049 -3.10076 -0.0903419 0.852911 
-3.15083 -0.0942542 0.855534 -3.20079 -0.0983702 0.857934 -3.25067 -0.102698 0.860124 
-3.30045 -0.107244 0.86212 -3.35015 -0.112017 0.863937 -3.39977 -0.117023 0.865588 
-3.44932 -0.122271 0.86709 -3.49881 -0.127768 0.868456 -3.54824 -0.133522 0.869702 
-3.59762 -0.13954 0.870842 -3.64695 -0.145829 0.871891 -3.69624 -0.152398 0.872864 
-3.7455 -0.159253 0.873775 -3.79473 -0.166402 0.87464 -3.84394 -0.173853 0.875473 
-3.89313 -0.181614 0.876288 -3.94232 -0.189691 0.877101 -3.99149 -0.19809 0.877919 
-4.04064 -0.206818 0.87875 -4.08976 -0.21588 0.879602 -4.13885 -0.225281 0.880482 
-4.18789 -0.235027 0.881397 -4.23689 -0.245123 0.882354 -4.28583 -0.255576 0.883361 
-4.33471 -0.266391 0.884426 -4.38352 -0.277573 0.885554 -4.43225 -0.289127 0.886754 
-4.4809 -0.301061 0.888033 -4.52946 -0.313378 0.889398 -4.57792 -0.326085 0.890857 
-4.62627 -0.339188 0.892417 -4.67452 -0.352691 0.894084 -4.72264 -0.366601 0.895868 
-4.77064 -0.380922 0.897774 -4.81851 -0.395662 0.89981 -4.86624 -0.410824 0.901983 
-4.91382 -0.426416 0.904302 -4.96125 -0.442437 0.906769 -5.00852 -0.458888 0.909388 
-5.05563 -0.475768 0.912163 -5.10257 -0.493076 0.915095 -5.14934 -0.51081 0.918188 
-5.19592 -0.52897 0.921444 -5.24233 -0.547555 0.924866 -5.28854 -0.566564 0.928457 
-5.33456 -0.585996 0.93222 -5.38038 -0.605851 0.936157 -5.42599 -0.626126 0.940271 
-5.47139 -0.646821 0.944566 -5.51658 -0.667936 0.949044 -5.56154 -0.689469 0.953707 
-5.60628 -0.711419 0.958558 -5.65078 -0.733786 0.963602 -5.69505 -0.756569 0.968839 
-5.73908 -0.779766 0.974272 -5.78285 -0.803376 0.979906 -5.82638 -0.827399 0.985742 
-5.86964 -0.851833 0.99178 -5.91265 -0.87667 0.998013 -5.9554 -0.901906 1.00443 
-5.99789 -0.927535 1.01104 -6.04013 -0.953551 1.01781 -6.0821 -0.979948 1.02476 
-6.12381 -1.00672 1.03186 -6.16526 -1.03386 1.03912 -6.20645 -1.06137 1.04652 
-6.24738 -1.08923 1.05407 -6.28804 -1.11745 1.06174 -6.32845 -1.14601 1.06955 
-6.36858 -1.17492 1.07747 -6.40846 -1.20415 1.0855 -6.44807 -1.23372 1.09364 
-6.48741 -1.26361 1.10187 -6.52649 -1.29382 1.1102 -6.5653 -1.32434 1.11861 
-6.60385 -1.35516 1.12709 -6.64212 -1.38629 1.13565 -6.68013 -1.41771 1.14427 
-6.71788 -1.44942 1.15294 -6.75537 -1.48141 1.16165 -6.7926 -1.51369 1.17039 
-6.82958 -1.54624 1.17914 -6.86632 -1.57907 1.18789 -6.90282 -1.61217 1.19663 
-6.93908 -1.64552 1.20535 -6.9751 -1.67914 1.21404 -7.0109 -1.71302 1.22268 
-7.04647 -1.74714 1.23126 -7.08183 -1.78151 1.23977 -7.11697 -1.81612 1.2482 
-7.1519 -1.85097 1.25653 -7.18662 -1.88606 1.26476 -7.22115 -1.92137 1.27287 
-7.25547 -1.95691 1.28085 -7.2896 -1.99267 1.28869 -7.32354 -2.02864 1.29637 
-7.3573 -2.06483 1.30388 -7.39088 -2.10122 1.31122 -7.42428 -2.13782 1.31836 
-7.45751 -2.17462 1.32529 -7.49057 -2.21161 1.332 -7.52346 -2.24879 1.33848 
-7.55619 -2.28615 1.3447 -7.58876 -2.3237 1.35067 -7.62117 -2.36142 1.35635 
-7.65343 -2.39932 1.36174 -7.68553 -2.43738 1.36682 -7.71749 -2.4756 1.37158 
-7.7493 -2.51399 1.376 -7.78097 -2.55253 1.38007 -7.8125 -2.59122 1.38378 
-7.84389 -2.63005 1.3871 -7.87515 -2.66903 1.39004 -7.90629 -2.70814 1.39256 
-7.93729 -2.74738 1.39467 -7.96818 -2.78675 1.39633 -7.99894 -2.82625 1.39755 
-8.02959 -2.86586 1.3983 -8.06012 -2.90559 1.39858 -8.09053 -2.94542 1.39836 
-8.12082 -2.98534 1.39766 -8.151 -3.02535 1.39646 -8.18106 -3.06544 1.39474 
-8.21099 -3.1056 1.39251 -8.2408 -3.14581 1.38975 -8.27049 -3.18607 1.38646 
-8.30005 -3.22637 1.38263 -8.32949 -3.26671 1.37825 -8.3588 -3.30706 1.3733 
-8.38798 -3.34743 1.36779 -8.41704 -3.38781 1.36171 -8.44596 -3.42818 1.35504 
-8.47475 -3.46854 1.34779 -8.50341 -3.50888 1.33993 -8.53193 -3.54918 1.33146 
-8.56032 -3.58945 1.32238 -8.58858 -3.62966 1.31268 -8.61669 -3.66982 1.30234 
-8.64467 -3.70992 1.29137 -8.67251 -3.74993 1.27976 -8.7002 -3.78987 1.26753 
-8.72775 -3.82972 1.25468 -8.75515 -3.86948 1.24121 -8.7824 -3.90913 1.22712 
-8.8095 -3.94867 1.21243 -8.83644 -3.9881 1.19714 -8.86323 -4.0274 1.18124 
-8.88985 -4.06657 1.16476 -8.91631 -4.1056 1.14769 -8.94261 -4.14449 1.13004 
-8.96874 -4.18323 1.11181 -8.9947 -4.2218 1.093 -9.02048 -4.26021 1.07363 
-9.04609 -4.29844 1.0537 -9.07153 -4.33649 1.03321 -9.09678 -4.37436 1.01217 
-9.12186 -4.41203 0.990578 -9.14674 -4.44949 0.968447 -9.17145 -4.48675 0.945778 
-9.19596 -4.52379 0.92258 -9.22028 -4.56062 0.89886 -9.24442 -4.59724 0.874625 
-9.26836 -4.63364 0.849885 -9.2921 -4.66983 0.824647 -9.31565 -4.70579 0.798918 
-9.33901 -4.74154 0.772706 -9.36216 -4.77706 0.746019 -9.38512 -4.81236 0.718865 
-9.40787 -4.84744 0.691252 -9.43043 -4.88229 0.663188 -9.45278 -4.91691 0.634679 
-9.47492 -4.9513 0.605735 -9.49686 -4.98547 0.576363 -9.51859 -5.0194 0.546571 
-9.5401 -5.0531 0.516366 -9.56141 -5.08656 0.485756 -9.58251 -5.11979 0.45475 
-9.60339 -5.15278 0.423355 -9.62406 -5.18553 0.391579 -9.64451 -5.21805 0.359427 
-9.66474 -5.25033 0.326905 -9.68474 -5.28237 0.294017 -9.70451 -5.31417 0.26077 
-9.72406 -5.34574 0.227168 -9.74336 -5.37708 0.193216 -9.76243 -5.40819 0.158919 
-9.78125 -5.43907 0.124282 -9.79983 -5.46972 0.0893107 -9.81816 -5.50014 0.0540097 
-9.83624 -5.53034 0.0183841 -9.85405 -5.5603 -0.0175609 -9.87161 -5.59005 -0.0538202 
-9.88891 -5.61957 -0.0903889 -9.90593 -5.64887 -0.127262 -9.92269 -5.67795 -0.164434 
-9.93917 -5.7068 -0.2019 -9.95537 -5.73544 -0.239655 -9.9713 -5.76386 -0.277694 
-9.98693 -5.79207 -0.316012 -10.0023 -5.82006 -0.354604 -10.0173 -5.84784 -0.393467 
-10.0321 -5.8754 -0.432595 -10.0465 -5.90276 -0.471987 -10.0606 -5.9299 -0.511636 
-10.0744 -5.95684 -0.55154 -10.0878 -5.98358 -0.591695 -10.1009 -6.01011 -0.632096 
-10.1137 -6.03644 -0.67274 -10.1261 -6.06257 -0.713622 -10.1381 -6.0885 -0.754739 
-10.1497 -6.11424 -0.796087 -10.161 -6.13978 -0.837662 -10.1719 -6.16512 -0.87946 
-10.1824 -6.19028 -0.921476 -10.1924 -6.21524 -0.963708 -10.2021 -6.24002 -1.00615 
-10.2113 -6.26461 -1.0488 -10.2202 -6.28901 -1.09165 -10.2285 -6.31323 -1.1347 
-10.2365 -6.33727 -1.17795 -10.244 -6.36114 -1.22138 -10.251 -6.38482 -1.26499 
-10.2575 -6.40833 -1.30877 -10.2636 -6.43168 -1.35271 -10.2692 -6.45485 -1.3968 
-10.2743 -6.47787 -1.44104 -10.2789 -6.50072 -1.48542 -10.283 -6.52341 -1.52992 
-10.2865 -6.54595 -1.57454 -10.2896 -6.56834 -1.61928 -10.2921 -6.59058 -1.66411 
-10.294 -6.61267 -1.70905 -10.2954 -6.63462 -1.75406 -10.2962 -6.65644 -1.79916 
-10.2965 -6.67811 -1.84433 -10.2961 -6.69965 -1.88956 -10.2952 -6.72106 -1.93484 
-10.2937 -6.74234 -1.98017 -10.2915 -6.7635 -2.02553 -10.2888 -6.78454 -2.07092 
-10.2854 -6.80546 -2.11633 -10.2815 -6.82627 -2.16175 -10.2769 -6.84698 -2.20716 
-10.2717 -6.8676 -2.25255 -10.2659 -6.88812 -2.29792 -10.2595 -6.90857 -2.34324 
-10.2525 -6.92895 -2.38851 -10.2449 -6.94926 -2.43372 -10.2367 -6.96951 -2.47885 
-10.2279 -6.9897 -2.5239 -10.2186 -7.00985 -2.56885 -10.2086 -7.02996 -2.61369 
-10.1981 -7.05005 -2.65841 -10.187 -7.0701 -2.70299 -10.1753 -7.09014 -2.74743 
-10.163 -7.11016 -2.79172 -10.1502 -7.13019 -2.83584 -10.1368 -7.15021 -2.87978 
-10.1228 -7.17025 -2.92353 -10.1083 -7.1903 -2.96707 -10.0932 -7.21038 -3.01041 
-10.0776 -7.23049 -3.05354 -10.0614 -7.25064 -3.09644 -10.0448 -7.27084 -3.13912 
-10.0276 -7.2911 -3.18156 -10.0098 -7.31143 -3.22377 -9.99166 -7.33182 -3.26574 
-9.97298 -7.3523 -3.30745 -9.95384 -7.37287 -3.34892 -9.93423 -7.39354 -3.39012 
-9.91418 -7.41431 -3.43106 -9.89368 -7.4352 -3.47174 -9.87276 -7.45622 -3.51213 
-9.85142 -7.47736 -3.55224 -9.82967 -7.49864 -3.59207 -9.80752 -7.52007 -3.6316 
-9.78499 -7.54166 -3.67084 -9.76208 -7.5634 -3.70978 -9.73881 -7.58532 -3.7484 
-9.71518 -7.60743 -3.78671 -9.69121 -7.62971 -3.8247 -9.66691 -7.6522 -3.86237 
-9.64229 -7.67489 -3.89971 -9.61736 -7.69779 -3.93671 -9.59214 -7.72091 -3.97337 
-9.56664 -7.74425 -4.00969 -9.54087 -7.76784 -4.04565 -9.51485 -7.79166 -4.08126 
-9.48858 -7.81574 -4.11651 -9.46208 -7.84008 -4.1514 -9.43536 -7.86468 -4.18591 
-9.40844 -7.88956 -4.22005 -9.38132 -7.91472 -4.2538 -9.35402 -7.94018 -4.28717 
[...]
CELL_DATA 1
FIELD FieldData 2
Length 1 1 double
63.813317745 
Tortuosity 1 1 double
1.0338842265 
POINT_DATA 1277
SCALARS MaximumInscribedSphereRadius float
LOOKUP_TABLE default
1.24 1.22139 1.20279 1.18418 1.16558 1.14697 1.12837 1.10976 1.09115 
1.07255 1.05394 1.03534 1.01673 0.998125 0.979519 0.960913 0.942307 0.923701 
0.905096 0.88649 0.867884 0.854455 0.855747 0.857038 0.85833 0.859622 0.860914 
0.862205 0.863497 0.864789 0.866081 0.867372 0.868664 0.869956 0.871247 0.872539 
0.873831 0.875123 0.876414 0.877706 0.878998 0.890997 0.91846 0.945923 0.973386 
1.00085 1.02831 1.05577 1.08324 1.1107 1.13816 1.16563 1.19309 1.22055 
1.24801 1.27548 1.30294 1.3304 1.35787 1.38533 1.41279 1.43352 1.41872 
1.40391 1.38911 1.3743 1.3595 1.34469 1.32989 1.31508 1.30028 1.28547 
1.27067 1.25586 1.24106 1.22625 1.21145 1.19664 1.18184 1.16703 1.15223 
1.13742 1.13211 1.12822 1.12432 1.12042 1.11652 1.11262 1.10873 1.10483 
1.10093 1.09703 1.09313 1.08923 1.08534 1.08144 1.07754 1.07364 1.06974 
1.06584 1.06195 1.05805 1.06142 1.06978 1.07815 1.08651 1.09488 1.10325 
1.11161 1.11998 1.12834 1.13671 1.14507 1.15344 1.1618 1.17017 1.17854 
1.1869 1.19527 1.20363 1.212 1.22036 1.22624 1.22693 1.22762 1.22831 
1.229 1.22969 1.23038 1.23107 1.23176 1.23245 1.23314 1.23383 1.23452 
1.23521 1.2359 1.23659 1.23728 1.23797 1.23866 1.23935 1.24 1.24 
1.24 1.24 1.24 1.24 1.24 1.24 1.24 1.24 1.24 
1.24 1.24 1.24 1.24 1.24 1.24 1.24 1.24 1.24 
1.24 1.24 1.24 1.24 1.24 1.24 1.24 1.24 1.24 
1.24 1.24 1.24 1.24 1.24 1.24 1.24 1.24 1.24 
1.24 1.24 1.24 1.23963 1.23889 1.23814 1.2374 1.23666 1.23591 
1.23517 1.23442 1.23368 1.23294 1.23219 1.23145 1.2307 1.22996 1.22921 
1.22847 1.22773 1.22698 1.22624 1.22549 1.22403 1.22015 1.21628 1.2124 
1.20852 1.20465 1.20077 1.1969 1.19302 1.18915 1.18527 1.18139 1.17752 
1.17364 1.16977 1.16589 1.16202 1.15814 1.15426 1.15039 1.14651 1.14807 
1.14977 1.15148 1.15318 1.15488 1.15659 1.15829 1.15999 1.1617 1.1634 
1.1651 1.16681 1.16851 1.17021 1.17192 1.17362 1.17532 1.17703 1.17873 
1.18043 1.18654 1.19448 1.20241 1.21034 1.21827 1.2262 1.23413 1.24206 
1.24999 1.25792 1.26585 1.27378 1.28171 1.28964 1.29757 1.3055 1.31343 
1.32137 1.3293 1.33723 1.34696 1.35903 1.37111 1.38318 1.39525 1.40732 
1.41939 1.43146 1.44353 1.45561 1.46768 1.47975 1.49182 1.50389 1.51596 
1.52803 1.54011 1.55218 1.56425 1.57632 1.58481 1.5751 1.56538 1.55567 
1.54595 1.53623 1.52652 1.5168 1.50708 1.49737 1.48765 1.47793 1.46822 
1.4585 1.44879 1.43907 1.42935 1.41964 1.40992 1.4002 1.39049 1.38287 
1.37549 1.36811 1.36073 1.35335 1.34597 1.33859 1.33121 1.32383 1.31645 
1.30907 1.30169 1.29431 1.28693 1.27955 1.27217 1.26479 1.25741 1.25002 
1.24264 1.24105 1.24269 1.24433 1.24597 1.24761 1.24924 1.25088 1.25252 
1.25416 1.2558 1.25744 1.25908 1.26072 1.26235 1.26399 1.26563 1.26727 
1.26891 1.27055 1.27219 1.27725 1.28802 1.29879 1.30956 1.32034 1.33111 
1.34188 1.35265 1.36342 1.37419 1.38497 1.39574 1.40651 1.41728 1.42805 
1.43883 1.4496 1.46037 1.47114 1.48191 1.49363 1.51332 1.53301 1.5527 
1.57239 1.59208 1.61177 1.63146 1.65115 1.67084 1.69053 1.71022 1.72991 
1.7496 1.76929 1.78898 1.80867 1.82836 1.84805 1.86774 1.88743 1.90207 
1.91581 1.92956 1.9433 1.95705 1.97079 1.98454 1.99829 2.01203 2.02578 
2.03952 2.05327 2.06701 2.08076 2.0945 2.10825 2.12199 2.13574 2.14948 
2.16323 2.15292 2.1305 2.10808 2.08567 2.06325 2.04084 2.01842 1.99601 
1.97359 1.95117 1.92876 1.90634 1.88393 1.86151 1.83909 1.81668 1.79426 
1.77185 1.74943 1.72702 1.70947 1.69253 1.6756 1.65866 1.64173 1.6248 
1.60786 1.59093 1.57399 1.55706 1.54013 1.52319 1.50626 1.48932 1.47239 
1.45546 1.43852 1.42159 1.40466 1.38772 1.39328 1.40456 1.41583 1.42711 
1.43839 1.44966 1.46094 1.47222 1.48349 1.49477 1.50605 1.51732 1.5286 
1.53988 1.55115 1.56243 1.57371 1.58498 1.59626 1.60754 1.61747 1.62635 
1.63524 1.64412 1.653 1.66188 1.67077 1.67965 1.68853 1.69741 1.7063 
1.71518 1.72406 1.73294 1.74183 1.75071 1.75959 1.76847 1.77736 1.78624 
1.78824 1.77305 1.75787 1.74269 1.72751 1.71233 1.69715 1.68196 1.66678 
1.6516 1.63642 1.62124 1.60606 1.59088 1.57569 1.56051 1.54533 1.53015 
1.51497 1.49979 1.48462 1.47211 1.4596 1.44709 1.43458 1.42208 1.40957 
1.39706 1.38455 1.37204 1.35953 1.34702 1.33451 1.322 1.3095 1.29699 
1.28448 1.27197 1.25946 1.24695 1.23444 1.25012 1.27628 1.30244 1.32861 
1.35477 1.38093 1.40709 1.43326 1.45942 1.48558 1.51175 1.53791 1.56407 
1.59024 1.6164 1.64256 1.66873 1.69489 1.72105 1.74721 1.75496 1.74183 
1.72869 1.71555 1.70241 1.68928 1.67614 1.663 1.64987 1.63673 1.62359 
1.61045 1.59732 1.58418 1.57104 1.5579 1.54477 1.53163 1.51849 1.50535 
1.49556 1.49576 1.49597 1.49617 1.49637 1.49658 1.49678 1.49698 1.49718 
1.49739 1.49759 1.49779 1.498 1.4982 1.4984 1.4986 1.49881 1.49901 
1.49921 1.49942 1.50121 1.51797 1.53472 1.55148 1.56823 1.58499 1.60174 
1.6185 1.63525 1.652 1.66876 1.68551 1.70227 1.71902 1.73578 1.75253 
1.76929 1.78604 1.8028 1.81955 1.8363 1.83858 1.83969 1.8408 1.84191 
1.84302 1.84413 1.84524 1.84635 1.84746 1.84857 1.84968 1.85079 1.8519 
1.85301 1.85412 1.85523 1.85634 1.85745 1.85855 1.85966 1.86 1.86 
1.86 1.86 1.86 1.86 1.86 1.86 1.86 1.86 1.86 
1.86 1.86 1.86 1.86 1.86 1.86 1.86 1.86 1.86 
1.86 1.86 1.86 1.86 1.86 1.86 1.86 1.86 1.86 
1.86 1.86 1.86 1.86 1.86 1.86 1.86 1.86 1.86 
1.86 1.86 1.86 1.86 1.86 1.86 1.86 1.86 1.86 
1.86 1.86 1.86 1.86 1.86 1.86 1.86 1.86 1.86 
1.86 1.86 1.86 1.86 1.86 1.86 1.86 1.86 1.86 
1.86 1.86 1.86 1.86 1.86 1.86 1.86 1.86 1.86 
1.86 1.86 1.86 1.86 1.86 1.86 1.86 1.86209 1.86566 
1.86923 1.87281 1.87638 1.87996 1.88353 1.8871 1.89068 1.89425 1.89782 
1.9014 1.90497 1.90854 1.91212 1.91569 1.91927 1.92284 1.92641 1.92999 
1.93602 1.94738 1.95873 1.97009 1.98144 1.9928 2.00416 2.01551 2.02687 
2.03822 2.04958 2.06093 2.07229 2.08365 2.095 2.10636 2.11771 2.12907 
2.14043 2.15178 2.16194 2.1621 2.16227 2.16243 2.16259 2.16276 2.16292 
2.16309 2.16325 2.16342 2.16358 2.16374 2.16391 2.16407 2.16424 2.1644 
2.16456 2.16473 2.16489 2.16506 2.16522 2.15867 2.15123 2.1438 2.13636 
2.12892 2.12148 2.11405 2.10661 2.09917 2.09173 2.0843 2.07686 2.06942 
2.06198 2.05455 2.04711 2.03967 2.03223 2.0248 2.01736 2.00839 1.99846 
1.98853 1.9786 1.96867 1.95873 1.9488 1.93887 1.92894 1.91901 1.90908 
1.89914 1.88921 1.87928 1.86935 1.85942 1.84949 1.83955 1.82962 1.81969 
1.80992 1.80045 1.79099 1.78153 1.77207 1.76261 1.75315 1.74369 1.73423 
1.72477 1.7153 1.70584 1.69638 1.68692 1.67746 1.668 1.65854 1.64908 
1.63962 1.63016 1.62096 1.61746 1.61395 1.61044 1.60694 1.60343 1.59993 
1.59642 1.59291 1.58941 1.5859 1.5824 1.57889 1.57538 1.57188 1.56837 
1.56487 1.56136 1.55785 1.55435 1.55084 1.55097 1.55225 1.55353 1.55482 
1.5561 1.55738 1.55866 1.55994 1.56122 1.5625 1.56378 1.56506 1.56634 
1.56762 1.5689 1.57018 1.57146 1.57275 1.57403 1.57531 1.57977 1.58775 
1.59573 1.6037 1.61168 1.61966 1.62764 1.63562 1.6436 1.65158 1.65956 
1.66754 1.67552 1.6835 1.69148 1.69946 1.70744 1.71542 1.7234 1.73137 
1.73982 1.75028 1.76075 1.77121 1.78168 1.79214 1.8026 1.81307 1.82353 
1.834 1.84446 1.85492 1.86539 1.87585 1.88632 1.89678 1.90724 1.91771 
1.92817 1.93864 1.9491 1.9599 1.97073 1.98157 1.9924 2.00324 2.01407 
2.0249 2.03574 2.04657 2.05741 2.06824 2.07908 2.08991 2.10075 2.11158 
2.12242 2.13325 2.14409 2.15492 2.16576 2.17 2.17 2.17 2.17 
2.17 2.17 2.17 2.17 2.17 2.17 2.17 2.17 2.17 
2.17 2.17 2.17 2.17 2.17 2.17 2.17 2.16712 2.15845 
2.14977 2.14109 2.13242 2.12374 2.11506 2.10639 2.09771 2.08903 2.08036 
2.07168 2.063 2.05433 2.04565 2.03697 2.02829 2.01962 2.01094 2.00226 
1.99423 1.99331 1.9924 1.99148 1.99056 1.98964 1.98872 1.9878 1.98688 
1.98596 1.98504 1.98412 1.98321 1.98229 1.98137 1.98045 1.97953 1.97861 
1.97769 1.97677 1.97585 1.98208 1.98952 1.99696 2.0044 2.01184 2.01928 
2.02672 2.03416 2.0416 2.04904 2.05648 2.06392 2.07137 2.07881 2.08625 
2.09369 2.10113 2.10857 2.11601 2.12345 2.12193 2.1149 2.10788 2.10086 
2.09383 2.08681 2.07978 2.07276 2.06574 2.05871 2.05169 2.04466 2.03764 
2.03062 2.02359 2.01657 2.00955 2.00252 1.9955 1.98847 1.98867 2.00106 
2.01345 2.02585 2.03824 2.05064 2.06303 2.07542 2.08782 2.10021 2.1126 
2.125 2.13739 2.14979 2.16218 2.17457 2.18697 2.19936 2.21176 2.22415 
2.23485 2.23214 2.22943 2.22673 2.22402 2.22132 2.21861 2.2159 2.2132 
2.21049 2.20778 2.20508 2.20237 2.19967 2.19696 2.19425 2.19155 2.18884 
2.18614 2.18343 2.18072 2.15882 2.13325 2.10769 2.08212 2.05656 2.03099 
2.00543 1.97986 1.9543 1.92873 1.90317 1.8776 1.85204 1.82647 1.80091 
1.77534 1.74978 1.72421 1.69865 1.67308 1.66891 1.6818 1.69468 1.70757 
1.72046 1.73334 1.74623 1.75912 1.772 1.78489 1.79778 1.81066 1.82355 
1.83644 1.84933 1.86221 1.8751 1.88799 1.90087 1.91376 1.92636 1.93817 
1.94998 1.96179 1.9736 1.98541 1.99722 2.00904 2.02085 2.03266 2.04447 
2.05628 2.06809 2.0799 2.09171 2.10352 2.11534 2.12715 2.13896 2.15077 
2.16258 2.16328 2.16372 2.16416 2.1646 2.16505 2.16549 2.16593 2.16637 
2.16681 2.16725 2.16769 2.16813 2.16857 2.16902 2.16946 2.1699 2.17034 
2.17078 2.17122 2.17166 2.17224 2.17288 2.17352 2.17415 2.17479 2.17543 
2.17607 2.17671 2.17735 2.17798 2.17862 2.17926 2.1799 2.18054 2.18117 
2.18181 2.18245 2.18309 2.18373 2.18437 2.18308 2.17887 2.17466 2.17045 
2.16625 2.16204 2.15783 2.15362 2.14942 2.14521 2.141 2.13679 2.13259 
2.12838 2.12417 2.11996 2.11576 2.11155 2.10734 2.10313 2.09819 2.08728 
2.07638 2.06547 2.05456 2.04366 2.03275 2.02184 2.01094 2.00003 1.98912 
1.97822 1.96731 1.9564 1.9455 1.93459 1.92368 1.91278 1.90187 1.89096 
1.88006 1.86859 1.85701 1.84542 1.83384 1.82225 1.81067 1.79908 1.7875 
1.77591 1.76433 1.75274 1.74116 1.72957 1.71799 1.7064 1.69482 1.68323 
1.67165 1.66006 1.64848 1.64805 1.65554 1.66303 1.67052 1.67801 1.6855 
1.69299 1.70048 1.70797 1.71546 1.72295 1.73044 1.73793 1.74542 1.75291 
1.7604 1.76789 1.77538 1.78287 1.79036 1.8058 1.82401 1.84222 1.86043 
1.87864 1.89685 1.91506 1.93327 1.95148 1.96969 1.9879 2.00611 2.02432 
2.04253 2.06074 2.07895 2.09716 2.11537 2.13358 2.15179 2.17 
TEXTURE_COORDINATES TCoords 2 float
0 0 0.000783699 0 0.0015674 0 0.0023511 0 0.0031348 
0 0.0039185 0 0.00470219 0 0.00548589 0 0.00626959 0 
0.00705329 0 0.00783699 0 0.00862069 0 0.00940439 0 0.0101881 
0 0.0109718 0 0.0117555 0 0.0125392 0 0.0133229 0 
0.0141066 0 0.0148903 0 0.015674 0 0.0164577 0 0.0172414 
0 0.0180251 0 0.0188088 0 0.0195925 0 0.0203762 0 
0.0211599 0 0.0219436 0 0.0227273 0 0.023511 0 0.0242947 
0 0.0250784 0 0.0258621 0 0.0266458 0 0.0274295 0 
0.0282132 0 0.0289969 0 0.0297806 0 0.0305643 0 0.031348 
0 0.0321317 0 0.0329154 0 0.0336991 0 0.0344828 0 
0.0352665 0 0.0360502 0 0.0368339 0 0.0376176 0 0.0384013 
0 0.039185 0 0.0399687 0 0.0407524 0 0.0415361 0 
0.0423197 0 0.0431034 0 0.0438871 0 0.0446708 0 0.0454545 
0 0.0462382 0 0.0470219 0 0.0478056 0 0.0485893 0 
0.049373 0 0.0501567 0 0.0509404 0 0.0517241 0 0.0525078 
0 0.0532915 0 0.0540752 0 0.0548589 0 0.0556426 0 
0.0564263 0 0.05721 0 0.0579937 0 0.0587774 0 0.0595611 
0 0.0603448 0 0.0611285 0 0.0619122 0 0.0626959 0 
0.0634796 0 0.0642633 0 0.065047 0 0.0658307 0 0.0666144 
0 0.0673981 0 0.0681818 0 0.0689655 0 0.0697492 0 
0.0705329 0 0.0713166 0 0.0721003 0 0.072884 0 0.0736677 
0 0.0744514 0 0.0752351 0 0.0760188 0 0.0768025 0 
0.0775862 0 0.0783699 0 0.0791536 0 0.0799373 0 0.080721 
0 0.0815047 0 0.0822884 0 0.0830721 0 0.0838558 0 
0.0846395 0 0.0854232 0 0.0862069 0 0.0869906 0 0.0877743 
0 0.088558 0 0.0893417 0 0.0901254 0 0.0909091 0 
0.0916928 0 0.0924765 0 0.0932602 0 0.0940439 0 0.0948276 
0 0.0956113 0 0.096395 0 0.0971787 0 0.0979624 0 
0.0987461 0 0.0995298 0 0.100313 0 0.101097 0 0.101881 
0 0.102665 0 0.103448 0 0.104232 0 0.105016 0 
0.105799 0 0.106583 0 0.107367 0 0.10815 0 0.108934 
0 0.109718 0 0.110502 0 0.111285 0 0.112069 0 
0.112853 0 0.113636 0 0.11442 0 0.115204 0 0.115987 
0 0.116771 0 0.117555 0 0.118339 0 0.119122 0 
0.119906 0 0.12069 0 0.121473 0 0.122257 0 0.123041 
0 0.123824 0 0.124608 0 0.125392 0 0.126176 0 
0.126959 0 0.127743 0 0.128527 0 0.12931 0 0.130094 
0 0.130878 0 0.131661 0 0.132445 0 0.133229 0 
0.134013 0 0.134796 0 0.13558 0 0.136364 0 0.137147 
0 0.137931 0 0.138715 0 0.139498 0 0.140282 0 
0.141066 0 0.14185 0 0.142633 0 0.143417 0 0.144201 
0 0.144984 0 0.145768 0 0.146552 0 0.147335 0 
0.148119 0 0.148903 0 0.149687 0 0.15047 0 0.151254 
0 0.152038 0 0.152821 0 0.153605 0 0.154389 0 
0.155172 0 0.155956 0 0.15674 0 0.157524 0 0.158307 
0 0.159091 0 0.159875 0 0.160658 0 0.161442 0 
0.162226 0 0.163009 0 0.163793 0 0.164577 0 0.16536 
0 0.166144 0 0.166928 0 0.167712 0 0.168495 0 
0.169279 0 0.170063 0 0.170846 0 0.17163 0 0.172414 
0 0.173197 0 0.173981 0 0.174765 0 0.175549 0 
0.176332 0 0.177116 0 0.1779 0 0.178683 0 0.179467 
0 0.180251 0 0.181034 0 0.181818 0 0.182602 0 
0.183386 0 0.184169 0 0.184953 0 0.185737 0 0.18652 
0 0.187304 0 0.188088 0 0.188871 0 0.189655 0 
0.190439 0 0.191223 0 0.192006 0 0.19279 0 0.193574 
0 0.194357 0 0.195141 0 0.195925 0 0.196708 0 
0.197492 0 0.198276 0 0.19906 0 0.199843 0 0.200627 
0 0.201411 0 0.202194 0 0.202978 0 0.203762 0 
0.204545 0 0.205329 0 0.206113 0 0.206897 0 0.20768 
0 0.208464 0 0.209248 0 0.210031 0 0.210815 0 
0.211599 0 0.212382 0 0.213166 0 0.21395 0 0.214734 
0 0.215517 0 0.216301 0 0.217085 0 0.217868 0 
0.218652 0 0.219436 0 0.220219 0 0.221003 0 0.221787 
0 0.222571 0 0.223354 0 0.224138 0 0.224922 0 
0.225705 0 0.226489 0 0.227273 0 0.228056 0 0.22884 
0 0.229624 0 0.230408 0 0.231191 0 0.231975 0 
0.232759 0 0.233542 0 0.234326 0 0.23511 0 0.235893 
0 0.236677 0 0.237461 0 0.238245 0 0.239028 0 
0.239812 0 0.240596 0 0.241379 0 0.242163 0 0.242947 
0 0.24373 0 0.244514 0 0.245298 0 0.246082 0 
0.246865 0 0.247649 0 0.248433 0 0.249216 0 0.25 
0 0.250784 0 0.251567 0 0.252351 0 0.253135 0 
0.253918 0 0.254702 0 0.255486 0 0.25627 0 0.257053 
0 0.257837 0 0.258621 0 0.259404 0 0.260188 0 
0.260972 0 0.261755 0 0.262539 0 0.263323 0 0.264107 
0 0.26489 0 0.265674 0 0.266458 0 0.267241 0 
0.268025 0 0.268809 0 0.269592 0 0.270376 0 0.27116 
0 0.271944 0 0.272727 0 0.273511 0 0.274295 0 
0.275078 0 0.275862 0 0.276646 0 0.277429 0 0.278213 
0 0.278997 0 0.279781 0 0.280564 0 0.281348 0 
0.282132 0 0.282915 0 0.283699 0 0.284483 0 0.285266 
0 0.28605 0 0.286834 0 0.287618 0 0.288401 0 
0.289185 0 0.289969 0 0.290752 0 0.291536 0 0.29232 
0 0.293103 0 0.293887 0 0.294671 0 0.295455 0 
0.296238 0 0.297022 0 0.297806 0 0.298589 0 0.299373 
0 0.300157 0 0.30094 0 0.301724 0 0.302508 0 
0.303292 0 0.304075 0 0.304859 0 0.305643 0 0.306426 
0 0.30721 0 0.307994 0 0.308777 0 0.309561 0 
0.310345 0 0.311129 0 0.311912 0 0.312696 0 0.31348 
0 0.314263 0 0.315047 0 0.315831 0 0.316614 0 
0.317398 0 0.318182 0 0.318966 0 0.319749 0 0.320533 
0 0.321317 0 0.3221 0 0.322884 0 0.323668 0 
0.324451 0 0.325235 0 0.326019 0 0.326803 0 0.327586 
0 0.32837 0 0.329154 0 0.329937 0 0.330721 0 
0.331505 0 0.332288 0 0.333072 0 0.333856 0 0.334639 
0 0.335423 0 0.336207 0 0.336991 0 0.337774 0 
0.338558 0 0.339342 0 0.340125 0 0.340909 0 0.341693 
0 0.342476 0 0.34326 0 0.344044 0 0.344828 0 
0.345611 0 0.346395 0 0.347179 0 0.347962 0 0.348746 
0 0.34953 0 0.350313 0 0.351097 0 0.351881 0 
0.352665 0 0.353448 0 0.354232 0 0.355016 0 0.355799 
0 0.356583 0 0.357367 0 0.35815 0 0.358934 0 
0.359718 0 0.360502 0 0.361285 0 0.362069 0 0.362853 
0 0.363636 0 0.36442 0 0.365204 0 0.365987 0 
0.366771 0 0.367555 0 0.368339 0 0.369122 0 0.369906 
0 0.37069 0 0.371473 0 0.372257 0 0.373041 0 
0.373824 0 0.374608 0 0.375392 0 0.376176 0 0.376959 
0 0.377743 0 0.378527 0 0.37931 0 0.380094 0 
0.380878 0 0.381661 0 0.382445 0 0.383229 0 0.384013 
0 0.384796 0 0.38558 0 0.386364 0 0.387147 0 
0.387931 0 0.388715 0 0.389498 0 0.390282 0 0.391066 
0 0.39185 0 0.392633 0 0.393417 0 0.394201 0 
0.394984 0 0.395768 0 0.396552 0 0.397335 0 0.398119 
0 0.398903 0 0.399687 0 0.40047 0 0.401254 0 
0.402038 0 0.402821 0 0.403605 0 0.404389 0 0.405172 
0 0.405956 0 0.40674 0 0.407524 0 0.408307 0 
0.409091 0 0.409875 0 0.410658 0 0.411442 0 0.412226 
0 0.413009 0 0.413793 0 0.414577 0 0.415361 0 
0.416144 0 0.416928 0 0.417712 0 0.418495 0 0.419279 
0 0.420063 0 0.420846 0 0.42163 0 0.422414 0 
0.423197 0 0.423981 0 0.424765 0 0.425549 0 0.426332 
0 0.427116 0 0.4279 0 0.428683 0 0.429467 0 
0.430251 0 0.431034 0 0.431818 0 0.432602 0 0.433386 
0 0.434169 0 0.434953 0 0.435737 0 0.43652 0 
0.437304 0 0.438088 0 0.438871 0 0.439655 0 0.440439 
0 0.441223 0 0.442006 0 0.44279 0 0.443574 0 
0.444357 0 0.445141 0 0.445925 0 0.446708 0 0.447492 
0 0.448276 0 0.44906 0 0.449843 0 0.450627 0 
0.451411 0 0.452194 0 0.452978 0 0.453762 0 0.454545 
0 0.455329 0 0.456113 0 0.456897 0 0.45768 0 
0.458464 0 0.459248 0 0.460031 0 0.460815 0 0.461599 
0 0.462382 0 0.463166 0 0.46395 0 0.464734 0 
0.465517 0 0.466301 0 0.467085 0 0.467868 0 0.468652 
0 0.469436 0 0.470219 0 0.471003 0 0.471787 0 
0.472571 0 0.473354 0 0.474138 0 0.474922 0 0.475705 
0 0.476489 0 0.477273 0 0.478056 0 0.47884 0 
0.479624 0 0.480408 0 0.481191 0 0.481975 0 0.482759 
0 0.483542 0 0.484326 0 0.48511 0 0.485893 0 
0.486677 0 0.487461 0 0.488245 0 0.489028 0 0.489812 
0 0.490596 0 0.491379 0 0.492163 0 0.492947 0 
0.49373 0 0.494514 0 0.495298 0 0.496082 0 0.496865 
0 0.497649 0 0.498433 0 0.499216 0 0.5 0 
0.500784 0 0.501567 0 0.502351 0 0.503135 0 0.503918 
0 0.504702 0 0.505486 0 0.50627 0 0.507053 0 
0.507837 0 0.508621 0 0.509404 0 0.510188 0 0.510972 
0 0.511755 0 0.512539 0 0.513323 0 0.514107 0 
0.51489 0 0.515674 0 0.516458 0 0.517241 0 0.518025 
0 0.518809 0 0.519592 0 0.520376 0 0.52116 0 
0.521944 0 0.522727 0 0.523511 0 0.524295 0 0.525078 
0 0.525862 0 0.526646 0 0.527429 0 0.528213 0 
0.528997 0 0.529781 0 0.530564 0 0.531348 0 0.532132 
0 0.532915 0 0.533699 0 0.534483 0 0.535266 0 
0.53605 0 0.536834 0 0.537618 0 0.538401 0 0.539185 
0 0.539969 0 0.540752 0 0.541536 0 0.54232 0 
0.543103 0 0.543887 0 0.544671 0 0.545455 0 0.546238 
0 0.547022 0 0.547806 0 0.548589 0 0.549373 0 
0.550157 0 0.55094 0 0.551724 0 0.552508 0 0.553292 
0 0.554075 0 0.554859 0 0.555643 0 0.556426 0 
0.55721 0 0.557994 0 0.558777 0 0.559561 0 0.560345 
0 0.561128 0 0.561912 0 0.562696 0 0.56348 0 
0.564263 0 0.565047 0 0.565831 0 0.566614 0 0.567398 
0 0.568182 0 0.568965 0 0.569749 0 0.570533 0 
0.571317 0 0.5721 0 0.572884 0 0.573668 0 0.574451 
0 0.575235 0 0.576019 0 0.576802 0 0.577586 0 
0.57837 0 0.579154 0 0.579937 0 0.580721 0 0.581505 
0 0.582288 0 0.583072 0 0.583856 0 0.584639 0 
0.585423 0 0.586207 0 0.586991 0 0.587774 0 0.588558 
0 0.589342 0 0.590125 0 0.590909 0 0.591693 0 
0.592476 0 0.59326 0 0.594044 0 0.594828 0 0.595611 
0 0.596395 0 0.597179 0 0.597962 0 0.598746 0 
0.59953 0 0.600313 0 0.601097 0 0.601881 0 0.602665 
0 0.603448 0 0.604232 0 0.605016 0 0.605799 0 
0.606583 0 0.607367 0 0.60815 0 0.608934 0 0.609718 
0 0.610502 0 0.611285 0 0.612069 0 0.612853 0 
0.613636 0 0.61442 0 0.615204 0 0.615987 0 0.616771 
0 0.617555 0 0.618339 0 0.619122 0 0.619906 0 
0.62069 0 0.621473 0 0.622257 0 0.623041 0 0.623824 
0 0.624608 0 0.625392 0 0.626176 0 0.626959 0 
0.627743 0 0.628527 0 0.62931 0 0.630094 0 0.630878 
0 0.631661 0 0.632445 0 0.633229 0 0.634013 0 
0.634796 0 0.63558 0 0.636364 0 0.637147 0 0.637931 
0 0.638715 0 0.639498 0 0.640282 0 0.641066 0 
0.64185 0 0.642633 0 0.643417 0 0.644201 0 0.644984 
0 0.645768 0 0.646552 0 0.647335 0 0.648119 0 
0.648903 0 0.649687 0 0.65047 0 0.651254 0 0.652038 
0 0.652821 0 0.653605 0 0.654389 0 0.655172 0 
0.655956 0 0.65674 0 0.657524 0 0.658307 0 0.659091 
0 0.659875 0 0.660658 0 0.661442 0 0.662226 0 
0.663009 0 0.663793 0 0.664577 0 0.665361 0 0.666144 
0 0.666928 0 0.667712 0 0.668495 0 0.669279 0 
0.670063 0 0.670846 0 0.67163 0 0.672414 0 0.673198 
0 0.673981 0 0.674765 0 0.675549 0 0.676332 0 
0.677116 0 0.6779 0 0.678683 0 0.679467 0 0.680251 
0 0.681035 0 0.681818 0 0.682602 0 0.683386 0 
0.684169 0 0.684953 0 0.685737 0 0.68652 0 0.687304 
0 0.688088 0 0.688872 0 0.689655 0 0.690439 0 