# vtk DataFile Version 4.2
vtk output
ASCII
DATASET POLYDATA
POINTS 1277 float
0 0 0 -0.003612 0.00054008 0.00181565 -0.0141513 0.00211676 0.00710429 
-0.031173 0.00466471 0.0156284 -0.0542321 0.00811859 0.0271505 -0.0828835 0.0124131 0.0414332 
-0.116682 0.0174828 0.0582388 -0.155183 0.0232624 0.0773301 -0.197942 0.0296867 0.0984693 
-0.244513 0.0366901 0.121419 -0.294451 0.0442075 0.145942 -0.347312 0.0521734 0.1718 
-0.40265 0.0605226 0.198757 -0.46002 0.0691897 0.226574 -0.518978 0.0781093 0.255014 
-0.579078 0.0872162 0.28384 -0.639876 0.0964449 0.312814 -0.700926 0.10573 0.341699 
-0.761784 0.115007 0.370257 -0.822003 0.124209 0.39825 -0.881141 0.133272 0.425442 
-0.938751 0.14213 0.451594 -0.994511 0.150735 0.476537 -1.04848 0.159089 0.500307 
-1.10077 0.167205 0.522978 -1.15153 0.175095 0.544629 -1.20087 0.182772 0.565333 
-1.24892 0.190248 0.585168 -1.29582 0.197537 0.604209 -1.34168 0.20465 0.622531 
-1.38664 0.211601 0.640211 -1.43081 0.218401 0.657325 -1.47434 0.225063 0.673949 
-1.51734 0.2316 0.690158 -1.55994 0.238025 0.706028 -1.60228 0.244349 0.721635 
-1.64447 0.250586 0.737056 -1.68664 0.256748 0.752365 -1.72892 0.262848 0.76764 
-1.77145 0.268898 0.782955 -1.81433 0.27491 0.798386 -1.85771 0.280898 0.814009 
-1.90163 0.286863 0.829855 -1.94606 0.292797 0.84591 -1.99096 0.298692 0.86216 
-2.03631 0.304539 0.878587 -2.08207 0.310329 0.895176 -2.12821 0.316054 0.911911 
-2.1747 0.321705 0.928775 -2.22149 0.327274 0.945753 -2.26856 0.332751 0.962828 
-2.31587 0.338128 0.979985 -2.3634 0.343396 0.997207 -2.4111 0.348547 1.01448 
-2.45894 0.353572 1.03178 -2.50689 0.358463 1.04911 -2.55492 0.36321 1.06643 
-2.60299 0.367805 1.08374 -2.65107 0.37224 1.10102 -2.69912 0.376505 1.11825 
-2.74712 0.380592 1.13542 -2.79503 0.384492 1.15251 -2.84282 0.388199 1.16951 
-2.8905 0.391707 1.18643 -2.93807 0.395015 1.20327 -2.98555 0.398118 1.22004 
-3.03293 0.401013 1.23674 -3.08024 0.403697 1.2534 -3.12747 0.406167 1.27 
-3.17463 0.408418 1.28656 -3.22173 0.410449 1.30309 -3.26877 0.412256 1.31959 
-3.31577 0.413834 1.33607 -3.36273 0.415182 1.35254 -3.40965 0.416295 1.369 
-3.45655 0.41717 1.38546 -3.50344 0.417805 1.40193 -3.55031 0.418195 1.41842 
-3.59718 0.418337 1.43493 -3.64405 0.418229 1.45147 -3.69093 0.417866 1.46805 
-3.73783 0.417245 1.48467 -3.78475 0.416364 1.50134 -3.8317 0.415217 1.51807 
-3.87866 0.413801 1.53484 -3.92563 0.412111 1.55167 -3.97261 0.410144 1.56855 
-4.01959 0.407894 1.58548 -4.06657 0.405357 1.60246 -4.11353 0.40253 1.61949 
-4.16049 0.399408 1.63656 -4.20742 0.395986 1.65369 -4.25433 0.392261 1.67087 
-4.30121 0.388227 1.68809 -4.34805 0.383882 1.70537 -4.39486 0.37922 1.72269 
-4.44162 0.374237 1.74005 -4.48833 0.368928 1.75747 -4.53498 0.363291 1.77493 
-4.58158 0.35732 1.79244 -4.6281 0.351011 1.80999 -4.67456 0.344359 1.82759 
-4.72094 0.337362 1.84523 -4.76725 0.330015 1.86292 -4.81347 0.322319 1.88065 
-4.8596 0.314272 1.89842 -4.90565 0.305874 1.91624 -4.95162 0.297124 1.93409 
-4.99749 0.288021 1.95199 -5.04326 0.278565 1.96993 -5.08894 0.268754 1.9879 
-5.13453 0.258587 2.00591 -5.18001 0.248064 2.02395 -5.22539 0.237185 2.04204 
-5.27067 0.225947 2.06015 -5.31583 0.214351 2.0783 -5.36089 0.202396 2.09648 
-5.40584 0.19008 2.1147 -5.45067 0.177403 2.13294 -5.49538 0.164365 2.15122 
-5.53998 0.150964 2.16952 -5.58445 0.137199 2.18785 -5.6288 0.12307 2.20621 
-5.67303 0.108577 2.2246 -5.71713 0.0937227 2.24301 -5.7611 0.0785108 2.26143 
-5.80494 0.0629437 2.27988 -5.84865 0.0470245 2.29833 -5.89224 0.0307562 2.3168 
-5.93569 0.0141417 2.33526 -5.97902 -0.00281592 2.35374 -6.02221 -0.0201138 2.37221 
-6.06527 -0.0377489 2.39068 -6.10819 -0.0557183 2.40914 -6.15098 -0.074019 2.42758 
-6.19364 -0.0926481 2.44602 -6.23616 -0.111602 2.46444 -6.27855 -0.130879 2.48283 
-6.3208 -0.150475 2.50121 -6.36291 -0.170388 2.51955 -6.40488 -0.190614 2.53787 
-6.44671 -0.211151 2.55615 -6.4884 -0.231995 2.57439 -6.52995 -0.253143 2.59259 
-6.57136 -0.274592 2.61075 -6.61264 -0.296336 2.62886 -6.65378 -0.318372 2.64691 
-6.6948 -0.340694 2.66491 -6.73568 -0.3633 2.68284 -6.77644 -0.386184 2.7007 
-6.81707 -0.409342 2.7185 -6.85758 -0.432769 2.73621 -6.89797 -0.456461 2.75385 
-6.93825 -0.480415 2.7714 -6.97841 -0.504625 2.78886 -7.01847 -0.529087 2.80623 
-7.05841 -0.553797 2.8235 -7.09824 -0.57875 2.84066 -7.13798 -0.603942 2.85772 
-7.17761 -0.629369 2.87467 -7.21714 -0.655026 2.8915 -7.25657 -0.680909 2.90821 
-7.29591 -0.707014 2.92479 -7.33516 -0.733335 2.94125 -7.37432 -0.759871 2.95757 
-7.41339 -0.786616 2.97375 -7.45238 -0.813568 2.98977 -7.49129 -0.840722 3.00565 
-7.53013 -0.868076 3.02136 -7.5689 -0.895626 3.03691 -7.60759 -0.923369 3.05229 
-7.64622 -0.9513 3.06748 -7.68479 -0.979416 3.08249 -7.7233 -1.00771 3.09731 
-7.76176 -1.03619 3.11192 -7.80016 -1.06484 3.12634 -7.83851 -1.09367 3.14054 
-7.87682 -1.12266 3.15453 -7.91509 -1.15181 3.16829 -7.95331 -1.18113 3.18182 
-7.99151 -1.2106 3.19512 -8.02966 -1.24022 3.20817 -8.0678 -1.27 3.22098 
-8.1059 -1.29992 3.23353 -8.14398 -1.32999 3.24581 -8.18204 -1.3602 3.25783 
-8.22008 -1.39055 3.26957 -8.2581 -1.42103 3.28101 -8.2961 -1.45165 3.29216 
-8.33408 -1.4824 3.30301 -8.37204 -1.51329 3.31353 -8.40999 -1.5443 3.32374 
-8.44792 -1.57543 3.33361 -8.48583 -1.60669 3.34314 -8.52373 -1.63807 3.35231 
-8.56161 -1.66957 3.36113 -8.59948 -1.70118 3.36958 -8.63735 -1.73291 3.37765 
-8.6752 -1.76475 3.38534 -8.71304 -1.7967 3.39263 -8.75087 -1.82876 3.39952 
-8.78869 -1.86093 3.40599 -8.8265 -1.89319 3.41205 -8.86431 -1.92556 3.41767 
-8.90211 -1.95802 3.42285 -8.9399 -1.99059 3.42758 -8.97768 -2.02324 3.43185 
-9.01543 -2.05598 3.43564 -9.05315 -2.08881 3.43893 -9.09084 -2.12173 3.44172 
-9.12849 -2.15472 3.44399 -9.1661 -2.1878 3.44574 -9.20366 -2.22095 3.44693 
-9.24117 -2.25417 3.44758 -9.27862 -2.28747 3.44765 -9.31601 -2.32083 3.44714 
-9.35332 -2.35426 3.44604 -9.39057 -2.38774 3.44433 -9.42773 -2.42129 3.44199 
-9.46481 -2.4549 3.43903 -9.50181 -2.48855 3.43541 -9.5387 -2.52226 3.43114 
-9.5755 -2.55602 3.42619 -9.61219 -2.58982 3.42056 -9.64877 -2.62366 3.41423 
-9.68523 -2.65754 3.40719 -9.72153 -2.69145 3.39944 -9.75767 -2.72538 3.39095 
-9.79362 -2.75933 3.38172 -9.82936 -2.79328 3.37174 -9.86487 -2.82724 3.361 
-9.90014 -2.8612 3.34949 -9.93514 -2.89514 3.3372 -9.96986 -2.92907 3.32411 
-10.0043 -2.96298 3.31022 -10.0384 -2.99686 3.29552 -10.0721 -3.0307 3.28 
-10.1055 -3.06449 3.26364 -10.1385 -3.09824 3.24644 -10.1711 -3.13193 3.22839 
-10.2032 -3.16555 3.20947 -10.2349 -3.19911 3.18967 -10.2662 -3.23259 3.16899 
-10.297 -3.26599 3.14742 -10.3273 -3.2993 3.12494 -10.357 -3.33251 3.10156 
-10.3862 -3.36562 3.0773 -10.4148 -3.39862 3.05218 -10.4429 -3.43151 3.02621 
-10.4703 -3.46427 2.99941 -10.4971 -3.49691 2.9718 -10.5232 -3.52942 2.94339 
-10.5486 -3.56178 2.91421 -10.5733 -3.594 2.88426 -10.5973 -3.62606 2.85357 
-10.6205 -3.65797 2.82216 -10.6429 -3.68971 2.79003 -10.6645 -3.72127 2.75721 
-10.6853 -3.75266 2.72371 -10.7053 -3.78387 2.68955 -10.7243 -3.81488 2.65476 
-10.7425 -3.8457 2.61933 -10.7597 -3.87631 2.5833 -10.776 -3.90672 2.54668 
-10.7913 -3.9369 2.50949 -10.8057 -3.96687 2.47174 -10.819 -3.99662 2.43347 
-10.8314 -4.02616 2.3947 -10.8428 -4.05547 2.35547 -10.8533 -4.08457 2.3158 
-10.8628 -4.11346 2.27571 -10.8714 -4.14213 2.23524 -10.8791 -4.17059 2.19442 
-10.8858 -4.19884 2.15326 -10.8916 -4.22688 2.11181 -10.8964 -4.2547 2.07008 
-10.9004 -4.28232 2.02811 -10.9034 -4.30973 1.98592 -10.9056 -4.33693 1.94354 
-10.9068 -4.36392 1.901 -10.9072 -4.39071 1.85833 -10.9067 -4.4173 1.81555 
-10.9053 -4.44368 1.77269 -10.903 -4.46985 1.72979 -10.8999 -4.49583 1.68686 
-10.8959 -4.5216 1.64394 -10.8911 -4.54718 1.60102 -10.8854 -4.57258 1.55812 
-10.879 -4.59779 1.51525 -10.8718 -4.62283 1.47241 -10.8639 -4.64771 1.42961 
-10.8552 -4.67242 1.38686 -10.8458 -4.69698 1.34417 -10.8357 -4.7214 1.30155 
-10.825 -4.74567 1.25901 -10.8136 -4.76981 1.21655 -10.8016 -4.79382 1.17418 
-10.7889 -4.81771 1.1319 -10.7757 -4.84149 1.08974 -10.7619 -4.86516 1.0477 
-10.7476 -4.88873 1.00578 -10.7327 -4.9122 0.963988 -10.7173 -4.93559 0.922341 
-10.7014 -4.9589 0.880844 -10.6851 -4.98213 0.839505 -10.6684 -5.00529 0.79833 
-10.6511 -5.02839 0.75732 -10.6335 -5.05143 0.716475 -10.6155 -5.07442 0.675795 
-10.5971 -5.09737 0.635278 -10.5782 -5.12027 0.594924 -10.559 -5.14313 0.554732 
-10.5395 -5.16596 0.514702 -10.5196 -5.18876 0.474834 -10.4994 -5.21154 0.435126 
-10.4788 -5.2343 0.395579 -10.4579 -5.25705 0.356191 -10.4368 -5.2798 0.316962 
-10.4153 -5.30254 0.277892 -10.3936 -5.32528 0.23898 -10.3716 -5.34803 0.200225 
-10.3493 -5.3708 0.161627 -10.3268 -5.39358 0.123185 -10.3041 -5.41639 0.0848983 
-10.2812 -5.43922 0.0467669 -10.2581 -5.46209 0.00879009 -10.2347 -5.485 -0.0290328 
-10.2112 -5.50796 -0.0667023 -10.1875 -5.53098 -0.104219 -10.1637 -5.55407 -0.141583 
-10.1397 -5.57724 -0.178796 -10.1155 -5.6005 -0.215857 -10.0912 -5.62385 -0.252767 
-10.0667 -5.64731 -0.289528 -10.0422 -5.67089 -0.326138 -10.0175 -5.69459 -0.3626 
-9.99271 -5.71843 -0.398913 -9.96783 -5.74241 -0.435078 -9.94286 -5.76654 -0.471095 
-9.9178 -5.79084 -0.506966 -9.89267 -5.81531 -0.54269 -9.86749 -5.83996 -0.578268 
-9.84224 -5.8648 -0.613701 -9.81695 -5.88983 -0.648988 -9.79162 -5.91508 -0.684132 
-9.76627 -5.94055 -0.719132 -9.74089 -5.96623 -0.753987 -9.7155 -5.99213 -0.788696 
-9.69009 -6.01825 -0.823257 -9.66468 -6.04456 -0.857667 -9.63927 -6.07107 -0.891924 
-9.61386 -6.09778 -0.926027 -9.58846 -6.12468 -0.959973 -9.56308 -6.15175 -0.99376 
-9.53772 -6.17901 -1.02739 -9.51239 -6.20643 -1.06085 -9.48708 -6.23402 -1.09415 
-9.46181 -6.26177 -1.12728 -9.43659 -6.28968 -1.16025 -9.4114 -6.31773 -1.19304 
-9.38628 -6.34593 -1.22566 -9.3612 -6.37426 -1.2581 -9.33619 -6.40273 -1.29037 
-9.31125 -6.43132 -1.32246 -9.28638 -6.46004 -1.35436 -9.26159 -6.48887 -1.38609 
-9.23689 -6.51783 -1.41762 -9.2123 -6.54697 -1.44896 -9.18786 -6.57637 -1.48008 
-9.16359 -6.60608 -1.51098 -9.13953 -6.63617 -1.54164 -9.11569 -6.6667 -1.57205 
[...]
CELL_DATA 1
FIELD FieldData 2
Length 1 1 double
63.81212663 
Tortuosity 1 1 double
1.0238386754 
POINT_DATA 1277
SCALARS MaximumInscribedSphereRadius float
LOOKUP_TABLE default
0.62 0.638817 0.657635 0.676452 0.695269 0.714086 0.732904 0.751721 0.770538 
0.789356 0.808173 0.82699 0.845807 0.864625 0.883442 0.902259 0.921076 0.939894 
0.958711 0.977528 0.996346 1.01467 1.02784 1.041 1.05417 1.06734 1.08051 
1.09368 1.10685 1.12002 1.13319 1.14635 1.15952 1.17269 1.18586 1.19903 
1.2122 1.22537 1.23853 1.2517 1.26487 1.27342 1.27661 1.27979 1.28298 
1.28616 1.28935 1.29253 1.29572 1.2989 1.30209 1.30527 1.30846 1.31164 
1.31483 1.31801 1.3212 1.32439 1.32757 1.33076 1.33394 1.33527 1.32627 
1.31728 1.30828 1.29929 1.29029 1.28129 1.2723 1.2633 1.25431 1.24531 
1.23631 1.22732 1.21832 1.20933 1.20033 1.19134 1.18234 1.17334 1.16435 
1.15535 1.1446 1.13355 1.1225 1.11146 1.10041 1.08936 1.07831 1.06726 
1.05621 1.04517 1.03412 1.02307 1.01202 1.00097 0.989924 0.978876 0.967828 
0.956779 0.945731 0.934683 0.93 0.93 0.93 0.93 0.93 0.93 
0.93 0.93 0.93 0.93 0.93 0.93 0.93 0.93 0.93 
0.93 0.93 0.93 0.93 0.93 0.93196 0.938512 0.945064 0.951616 
0.958168 0.96472 0.971272 0.977824 0.984376 0.990928 0.99748 1.00403 1.01058 
1.01714 1.02369 1.03024 1.03679 1.04334 1.0499 1.05645 1.06302 1.07049 
1.07797 1.08544 1.09292 1.10039 1.10786 1.11534 1.12281 1.13029 1.13776 
1.14523 1.15271 1.16018 1.16766 1.17513 1.1826 1.19008 1.19755 1.20503 
1.2125 1.21537 1.21663 1.21789 1.21915 1.22041 1.22167 1.22293 1.22419 
1.22545 1.22671 1.22798 1.22924 1.2305 1.23176 1.23302 1.23428 1.23554 
1.2368 1.23806 1.23932 1.24 1.24 1.24 1.24 1.24 1.24 
1.24 1.24 1.24 1.24 1.24 1.24 1.24 1.24 1.24 
1.24 1.24 1.24 1.24 1.24 1.23987 1.23914 1.23841 1.23767 
1.23694 1.23621 1.23548 1.23475 1.23402 1.23329 1.23255 1.23182 1.23109 
1.23036 1.22963 1.2289 1.22817 1.22744 1.2267 1.22597 1.22524 1.21599 
1.20596 1.19593 1.18589 1.17586 1.16583 1.1558 1.14577 1.13574 1.12571 
1.11567 1.10564 1.09561 1.08558 1.07555 1.06552 1.05549 1.04545 1.03542 
1.02539 1.01908 1.01452 1.00996 1.00539 1.00083 0.996265 0.991701 0.987138 
0.982574 0.97801 0.973447 0.968883 0.96432 0.959756 0.955192 0.950629 0.946065 
0.941502 0.936938 0.932374 0.93 0.93 0.93 0.93 0.93 0.93 
0.93 0.93 0.93 0.93 0.93 0.93 0.93 0.93 0.93 
0.93 0.93 0.93 0.93 0.93 0.93 0.93 0.93 0.93 
0.93 0.93 0.93 0.93 0.93 0.93 0.93 0.93 0.93 
0.93 0.93 0.93 0.93 0.93 0.93 0.93 0.93 0.93 
0.93 0.93 0.93 0.93 0.93 0.93 0.93 0.93 0.93 
0.93 0.93 0.93 0.93 0.93 0.93 0.93 0.93 0.93 
0.93 0.93 0.93 0.93 0.93 0.93 0.93 0.93 0.93 
0.93 0.93 0.93 0.93 0.93 0.93 0.93 0.93 0.93 
0.93 0.93 0.93 0.93 0.93 0.93 0.93 0.93 0.93 
0.93 0.93 0.93 0.93 0.93 0.93 0.93 0.93 0.93 
0.93 0.93 0.93 0.93 0.93 0.931186 0.938311 0.945437 0.952562 
0.959687 0.966812 0.973938 0.981063 0.988188 0.995314 1.00244 1.00956 1.01669 
1.02381 1.03094 1.03807 1.04519 1.05232 1.05944 1.06657 1.07369 1.0816 
1.08959 1.09757 1.10555 1.11354 1.12152 1.12951 1.13749 1.14548 1.15346 
1.16145 1.16943 1.17742 1.1854 1.19339 1.20137 1.20935 1.21734 1.22532 
1.23331 1.23419 1.23449 1.2348 1.23511 1.23542 1.23573 1.23604 1.23634 
1.23665 1.23696 1.23727 1.23758 1.23789 1.2382 1.2385 1.23881 1.23912 
1.23943 1.23974 1.24099 1.24752 1.25405 1.26057 1.2671 1.27363 1.28016 
1.28668 1.29321 1.29974 1.30627 1.31279 1.31932 1.32585 1.33238 1.33891 
1.34543 1.35196 1.35849 1.36502 1.37154 1.38171 1.39202 1.40233 1.41264 
1.42294 1.43325 1.44356 1.45387 1.46418 1.47449 1.4848 1.49511 1.50541 
1.51572 1.52603 1.53634 1.54665 1.55696 1.56727 1.57757 1.58483 1.59071 
1.5966 1.60248 1.60837 1.61425 1.62013 1.62602 1.6319 1.63779 1.64367 
1.64956 1.65544 1.66132 1.66721 1.67309 1.67898 1.68486 1.69074 1.69663 
1.69978 1.69908 1.69838 1.69768 1.69699 1.69629 1.69559 1.69489 1.69419 
1.69349 1.6928 1.6921 1.6914 1.6907 1.69 1.6893 1.6886 1.68791 
1.68721 1.68651 1.68481 1.6771 1.66939 1.66168 1.65397 1.64626 1.63855 
1.63084 1.62314 1.61543 1.60772 1.60001 1.5923 1.58459 1.57688 1.56917 
1.56146 1.55376 1.54605 1.53834 1.53063 1.52073 1.51053 1.50033 1.49014 
1.47994 1.46975 1.45955 1.44935 1.43916 1.42896 1.41877 1.40857 1.39837 
1.38818 1.37798 1.36779 1.35759 1.34739 1.3372 1.327 1.33802 1.36037 
1.38272 1.40507 1.42742 1.44977 1.47212 1.49447 1.51682 1.53917 1.56152 
1.58387 1.60622 1.62857 1.65092 1.67327 1.69562 1.71798 1.74033 1.76268 
1.77858 1.7871 1.79563 1.80416 1.81268 1.82121 1.82973 1.83826 1.84679 
1.85531 1.86384 1.87236 1.88089 1.88942 1.89794 1.90647 1.91499 1.92352 
1.93204 1.94057 1.94312 1.92815 1.91317 1.8982 1.88323 1.86825 1.85328 
1.8383 1.82333 1.80835 1.79338 1.7784 1.76343 1.74845 1.73348 1.7185 
1.70353 1.68855 1.67358 1.6586 1.64363 1.64863 1.6537 1.65878 1.66385 
1.66893 1.674 1.67908 1.68415 1.68923 1.6943 1.69938 1.70445 1.70953 
1.7146 1.71968 1.72475 1.72983 1.7349 1.73998 1.74505 1.7505 1.7561 
1.7617 1.76729 1.77289 1.77849 1.78408 1.78968 1.79528 1.80087 1.80647 
1.81207 1.81766 1.82326 1.82886 1.83445 1.84005 1.84565 1.85124 1.85684 
1.86 1.86 1.86 1.86 1.86 1.86 1.86 1.86 1.86 
1.86 1.86 1.86 1.86 1.86 1.86 1.86 1.86 1.86 
1.86 1.86 1.85913 1.85324 1.84734 1.84145 1.83556 1.82966 1.82377 
1.81787 1.81198 1.80609 1.80019 1.7943 1.7884 1.78251 1.77662 1.77072 
1.76483 1.75893 1.75304 1.74715 1.74125 1.73377 1.72602 1.71828 1.71054 
1.70279 1.69505 1.68731 1.67956 1.67182 1.66408 1.65634 1.64859 1.64085 
1.63311 1.62536 1.61762 1.60988 1.60213 1.59439 1.58665 1.58241 1.58074 
1.57907 1.57741 1.57574 1.57407 1.5724 1.57074 1.56907 1.5674 1.56573 
1.56407 1.5624 1.56073 1.55906 1.55739 1.55573 1.55406 1.55239 1.55072 
1.54837 1.5444 1.54044 1.53648 1.53252 1.52856 1.5246 1.52063 1.51667 
1.51271 1.50875 1.50479 1.50083 1.49686 1.4929 1.48894 1.48498 1.48102 
1.47706 1.47309 1.4689 1.45875 1.44861 1.43846 1.42831 1.41816 1.40801 
1.39787 1.38772 1.37757 1.36742 1.35727 1.34713 1.33698 1.32683 1.31668 
1.30654 1.29639 1.28624 1.27609 1.26594 1.26281 1.26164 1.26047 1.2593 
1.25813 1.25696 1.25578 1.25461 1.25344 1.25227 1.2511 1.24993 1.24875 
1.24758 1.24641 1.24524 1.24407 1.2429 1.24172 1.24055 1.23818 1.23475 
1.23131 1.22787 1.22444 1.221 1.21756 1.21412 1.21069 1.20725 1.20381 
1.20038 1.19694 1.1935 1.19006 1.18663 1.18319 1.17975 1.17631 1.17288 
1.16908 1.1643 1.15952 1.15474 1.14996 1.14518 1.1404 1.13562 1.13084 
1.12606 1.12128 1.1165 1.11172 1.10694 1.10216 1.09738 1.0926 1.08782 
1.08304 1.07826 1.07348 1.09247 1.11147 1.13047 1.14947 1.16847 1.18746 
1.20646 1.22546 1.24446 1.26346 1.28245 1.30145 1.32045 1.33945 1.35845 
1.37744 1.39644 1.41544 1.43444 1.45344 1.47191 1.49018 1.50845 1.52672 
1.54499 1.56326 1.58153 1.5998 1.61807 1.63635 1.65462 1.67289 1.69116 
1.70943 1.7277 1.74597 1.76424 1.78251 1.80079 1.81906 1.82452 1.81404 
1.80356 1.79308 1.7826 1.77212 1.76164 1.75116 1.74068 1.7302 1.71972 
1.70924 1.69876 1.68828 1.6778 1.66732 1.65684 1.64636 1.63588 1.6254 
1.61607 1.61279 1.60951 1.60622 1.60294 1.59966 1.59638 1.59309 1.58981 
1.58653 1.58324 1.57996 1.57668 1.5734 1.57011 1.56683 1.56355 1.56027 
1.55698 1.5537 1.55042 1.55183 1.55393 1.55603 1.55813 1.56023 1.56233 
1.56443 1.56653 1.56862 1.57072 1.57282 1.57492 1.57702 1.57912 1.58122 
1.58332 1.58542 1.58752 1.58961 1.59171 1.59753 1.60595 1.61437 1.6228 
1.63122 1.63964 1.64807 1.65649 1.66492 1.67334 1.68176 1.69019 1.69861 
1.70704 1.71546 1.72388 1.73231 1.74073 1.74916 1.75758 1.7649 1.76966 
1.77442 1.77918 1.78394 1.7887 1.79346 1.79822 1.80298 1.80774 1.8125 
1.81726 1.82202 1.82678 1.83154 1.8363 1.84106 1.84582 1.85058 1.85534 
1.85998 1.85913 1.85827 1.85742 1.85656 1.85571 1.85486 1.854 1.85315 
1.85229 1.85144 1.85058 1.84973 1.84887 1.84802 1.84717 1.84631 1.84546 
1.8446 1.84375 1.84289 1.83599 1.82708 1.81816 1.80925 1.80033 1.79141 
1.7825 1.77358 1.76467 1.75575 1.74683 1.73792 1.729 1.72009 1.71117 
1.70225 1.69334 1.68442 1.67551 1.66659 1.66396 1.66758 1.67121 1.67483 
1.67846 1.68208 1.68571 1.68933 1.69295 1.69658 1.7002 1.70383 1.70745 
1.71108 1.7147 1.71833 1.72195 1.72558 1.7292 1.73283 1.73719 1.7433 
1.7494 1.75551 1.76161 1.76772 1.77382 1.77993 1.78603 1.79214 1.79824 
1.80435 1.81045 1.81656 1.82266 1.82877 1.83487 1.84098 1.84708 1.85319 
1.85662 1.83311 1.80961 1.78611 1.76261 1.73911 1.7156 1.6921 1.6686 
1.6451 1.6216 1.5981 1.57459 1.55109 1.52759 1.50409 1.48059 1.45709 
1.43358 1.41008 1.38658 1.3887 1.39587 1.40304 1.41021 1.41738 1.42455 
1.43172 1.43889 1.44606 1.45323 1.4604 1.46757 1.47474 1.48191 1.48908 
1.49625 1.50342 1.51059 1.51776 1.52493 1.53493 1.54719 1.55944 1.57169 
1.58395 1.5962 1.60845 1.62071 1.63296 1.64521 1.65746 1.66972 1.68197 
1.69422 1.70648 1.71873 1.73098 1.74323 1.75549 1.76774 1.77504 1.76926 
1.76347 1.75769 1.7519 1.74612 1.74033 1.73455 1.72876 1.72297 1.71719 
1.7114 1.70562 1.69983 1.69405 1.68826 1.68248 1.67669 1.67091 1.66512 
1.65934 1.65777 1.65625 1.65474 1.65322 1.6517 1.65019 1.64867 1.64715 
1.64564 1.64412 1.6426 1.64109 1.63957 1.63805 1.63654 1.63502 1.6335 
1.63199 1.63047 1.62895 1.63523 1.64474 1.65424 1.66375 1.67325 1.68276 
1.69226 1.70177 1.71128 1.72078 1.73029 1.73979 1.7493 1.7588 1.76831 
1.77782 1.78732 1.79683 1.80633 1.81584 1.81551 1.80191 1.7883 1.77469 
1.76109 1.74748 1.73387 1.72027 1.70666 1.69306 1.67945 1.66584 1.65224 
1.63863 1.62503 1.61142 1.59781 1.58421 1.5706 1.55699 1.5434 1.5299 
1.51639 1.50288 1.48938 1.47587 1.46236 1.44886 1.43535 1.42185 1.40834 
1.39483 1.38133 1.36782 1.35431 1.34081 1.3273 1.3138 1.30029 1.28678 
1.27328 1.2701 1.26885 1.2676 1.26635 1.2651 1.26384 1.26259 1.26134 
1.26009 1.25883 1.25758 1.25633 1.25508 1.25383 1.25257 1.25132 1.25007 
1.24882 1.24756 1.24631 1.24895 1.25497 1.26098 1.267 1.27301 1.27903 
1.28504 1.29106 1.29708 1.30309 1.30911 1.31512 1.32114 1.32716 1.33317 
1.33919 1.3452 1.35122 1.35724 1.36325 1.37187 1.38077 1.38968 1.39859 
1.40749 1.4164 1.42531 1.43421 1.44312 1.45203 1.46093 1.46984 1.47875 
1.48765 1.49656 1.50547 1.51437 1.52328 1.53219 1.54109 1.55 
TEXTURE_COORDINATES TCoords 2 float
0 0 0.000783699 0 0.0015674 0 0.0023511 0 0.0031348 
0 0.0039185 0 0.00470219 0 0.00548589 0 0.00626959 0 
0.00705329 0 0.00783699 0 0.00862069 0 0.00940439 0 0.0101881 
0 0.0109718 0 0.0117555 0 0.0125392 0 0.0133229 0 
0.0141066 0 0.0148903 0 0.015674 0 0.0164577 0 0.0172414 
0 0.0180251 0 0.0188088 0 0.0195925 0 0.0203762 0 
0.0211599 0 0.0219436 0 0.0227273 0 0.023511 0 0.0242947 
0 0.0250784 0 0.0258621 0 0.0266458 0 0.0274295 0 
0.0282132 0 0.0289969 0 0.0297806 0 0.0305643 0 0.031348 
0 0.0321317 0 0.0329154 0 0.0336991 0 0.0344828 0 
0.0352665 0 0.0360502 0 0.0368339 0 0.0376176 0 0.0384013 
0 0.039185 0 0.0399687 0 0.0407524 0 0.0415361 0 
0.0423197 0 0.0431034 0 0.0438871 0 0.0446708 0 0.0454545 
0 0.0462382 0 0.0470219 0 0.0478056 0 0.0485893 0 
0.049373 0 0.0501567 0 0.0509404 0 0.0517241 0 0.0525078 
0 0.0532915 0 0.0540752 0 0.0548589 0 0.0556426 0 
0.0564263 0 0.05721 0 0.0579937 0 0.0587774 0 0.0595611 
0 0.0603448 0 0.0611285 0 0.0619122 0 0.0626959 0 
0.0634796 0 0.0642633 0 0.065047 0 0.0658307 0 0.0666144 
0 0.0673981 0 0.0681818 0 0.0689655 0 0.0697492 0 
0.0705329 0 0.0713166 0 0.0721003 0 0.072884 0 0.0736677 
0 0.0744514 0 0.0752351 0 0.0760188 0 0.0768025 0 
0.0775862 0 0.0783699 0 0.0791536 0 0.0799373 0 0.080721 
0 0.0815047 0 0.0822884 0 0.0830721 0 0.0838558 0 
0.0846395 0 0.0854232 0 0.0862069 0 0.0869906 0 0.0877743 
0 0.088558 0 0.0893417 0 0.0901254 0 0.0909091 0 
0.0916928 0 0.0924765 0 0.0932602 0 0.0940439 0 0.0948276 
0 0.0956113 0 0.096395 0 0.0971787 0 0.0979624 0 
0.0987461 0 0.0995298 0 0.100313 0 0.101097 0 0.101881 
0 0.102665 0 0.103448 0 0.104232 0 0.105016 0 
0.105799 0 0.106583 0 0.107367 0 0.10815 0 0.108934 
0 0.109718 0 0.110502 0 0.111285 0 0.112069 0 
0.112853 0 0.113636 0 0.11442 0 0.115204 0 0.115987 
0 0.116771 0 0.117555 0 0.118339 0 0.119122 0 
0.119906 0 0.12069 0 0.121473 0 0.122257 0 0.123041 
0 0.123824 0 0.124608 0 0.125392 0 0.126176 0 
0.126959 0 0.127743 0 0.128527 0 0.12931 0 0.130094 
0 0.130878 0 0.131661 0 0.132445 0 0.133229 0 
0.134013 0 0.134796 0 0.13558 0 0.136364 0 0.137147 
0 0.137931 0 0.138715 0 0.139498 0 0.140282 0 
0.141066 0 0.14185 0 0.142633 0 0.143417 0 0.144201 
0 0.144984 0 0.145768 0 0.146552 0 0.147335 0 
0.148119 0 0.148903 0 0.149687 0 0.15047 0 0.151254 
0 0.152038 0 0.152821 0 0.153605 0 0.154389 0 
0.155172 0 0.155956 0 0.15674 0 0.157524 0 0.158307 
0 0.159091 0 0.159875 0 0.160658 0 0.161442 0 
0.162226 0 0.163009 0 0.163793 0 0.164577 0 0.16536 
0 0.166144 0 0.166928 0 0.167712 0 0.168495 0 
0.169279 0 0.170063 0 0.170846 0 0.17163 0 0.172414 
0 0.173197 0 0.173981 0 0.174765 0 0.175549 0 
0.176332 0 0.177116 0 0.1779 0 0.178683 0 0.179467 
0 0.180251 0 0.181034 0 0.181818 0 0.182602 0 
0.183386 0 0.184169 0 0.184953 0 0.185737 0 0.18652 
0 0.187304 0 0.188088 0 0.188871 0 0.189655 0 
0.190439 0 0.191223 0 0.192006 0 0.19279 0 0.193574 
0 0.194357 0 0.195141 0 0.195925 0 0.196708 0 
0.197492 0 0.198276 0 0.19906 0 0.199843 0 0.200627 
0 0.201411 0 0.202194 0 0.202978 0 0.203762 0 
0.204545 0 0.205329 0 0.206113 0 0.206897 0 0.20768 
0 0.208464 0 0.209248 0 0.210031 0 0.210815 0 
0.211599 0 0.212382 0 0.213166 0 0.21395 0 0.214734 
0 0.215517 0 0.216301 0 0.217085 0 0.217868 0 
0.218652 0 0.219436 0 0.220219 0 0.221003 0 0.221787 
0 0.222571 0 0.223354 0 0.224138 0 0.224922 0 
0.225705 0 0.226489 0 0.227273 0 0.228056 0 0.22884 
0 0.229624 0 0.230408 0 0.231191 0 0.231975 0 
0.232759 0 0.233542 0 0.234326 0 0.23511 0 0.235893 
0 0.236677 0 0.237461 0 0.238245 0 0.239028 0 
0.239812 0 0.240596 0 0.241379 0 0.242163 0 0.242947 
0 0.24373 0 0.244514 0 0.245298 0 0.246082 0 
0.246865 0 0.247649 0 0.248433 0 0.249216 0 0.25 
0 0.250784 0 0.251567 0 0.252351 0 0.253135 0 
0.253918 0 0.254702 0 0.255486 0 0.25627 0 0.257053 
0 0.257837 0 0.258621 0 0.259404 0 0.260188 0 
0.260972 0 0.261755 0 0.262539 0 0.263323 0 0.264107 
0 0.26489 0 0.265674 0 0.266458 0 0.267241 0 
0.268025 0 0.268809 0 0.269592 0 0.270376 0 0.27116 
0 0.271944 0 0.272727 0 0.273511 0 0.274295 0 
0.275078 0 0.275862 0 0.276646 0 0.277429 0 0.278213 
0 0.278997 0 0.279781 0 0.280564 0 0.281348 0 
0.282132 0 0.282915 0 0.283699 0 0.284483 0 0.285266 
0 0.28605 0 0.286834 0 0.287618 0 0.288401 0 
0.289185 0 0.289969 0 0.290752 0 0.291536 0 0.29232 
0 0.293103 0 0.293887 0 0.294671 0 0.295455 0 
0.296238 0 0.297022 0 0.297806 0 0.298589 0 0.299373 
0 0.300157 0 0.30094 0 0.301724 0 0.302508 0 
0.303292 0 0.304075 0 0.304859 0 0.305643 0 0.306426 
0 0.30721 0 0.307994 0 0.308777 0 0.309561 0 
0.310345 0 0.311129 0 0.311912 0 0.312696 0 0.31348 
0 0.314263 0 0.315047 0 0.315831 0 0.316614 0 
0.317398 0 0.318182 0 0.318966 0 0.319749 0 0.320533 
0 0.321317 0 0.3221 0 0.322884 0 0.323668 0 
0.324451 0 0.325235 0 0.326019 0 0.326803 0 0.327586 
0 0.32837 0 0.329154 0 0.329937 0 0.330721 0 
0.331505 0 0.332288 0 0.333072 0 0.333856 0 0.334639 
0 0.335423 0 0.336207 0 0.336991 0 0.337774 0 
0.338558 0 0.339342 0 0.340125 0 0.340909 0 0.341693 
0 0.342476 0 0.34326 0 0.344044 0 0.344828 0 
0.345611 0 0.346395 0 0.347179 0 0.347962 0 0.348746 
0 0.34953 0 0.350313 0 0.351097 0 0.351881 0 
0.352665 0 0.353448 0 0.354232 0 0.355016 0 0.355799 
0 0.356583 0 0.357367 0 0.35815 0 0.358934 0 
0.359718 0 0.360502 0 0.361285 0 0.362069 0 0.362853 
0 0.363636 0 0.36442 0 0.365204 0 0.365987 0 
0.366771 0 0.367555 0 0.368339 0 0.369122 0 0.369906 
0 0.37069 0 0.371473 0 0.372257 0 0.373041 0 
0.373824 0 0.374608 0 0.375392 0 0.376176 0 0.376959 
0 0.377743 0 0.378527 0 0.37931 0 0.380094 0 
0.380878 0 0.381661 0 0.382445 0 0.383229 0 0.384013 
0 0.384796 0 0.38558 0 0.386364 0 0.387147 0 
0.387931 0 0.388715 0 0.389498 0 0.390282 0 0.391066 
0 0.39185 0 0.392633 0 0.393417 0 0.394201 0 
0.394984 0 0.395768 0 0.396552 0 0.397335 0 0.398119 
0 0.398903 0 0.399687 0 0.40047 0 0.401254 0 
0.402038 0 0.402821 0 0.403605 0 0.404389 0 0.405172 
0 0.405956 0 0.40674 0 0.407524 0 0.408307 0 
0.409091 0 0.409875 0 0.410658 0 0.411442 0 0.412226 
0 0.413009 0 0.413793 0 0.414577 0 0.415361 0 
0.416144 0 0.416928 0 0.417712 0 0.418495 0 0.419279 
0 0.420063 0 0.420846 0 0.42163 0 0.422414 0 
0.423197 0 0.423981 0 0.424765 0 0.425549 0 0.426332 
0 0.427116 0 0.4279 0 0.428683 0 0.429467 0 
0.430251 0 0.431034 0 0.431818 0 0.432602 0 0.433386 
0 0.434169 0 0.434953 0 0.435737 0 0.43652 0 
0.437304 0 0.438088 0 0.438871 0 0.439655 0 0.440439 
0 0.441223 0 0.442006 0 0.44279 0 0.443574 0 
0.444357 0 0.445141 0 0.445925 0 0.446708 0 0.447492 
0 0.448276 0 0.44906 0 0.449843 0 0.450627 0 
0.451411 0 0.452194 0 0.452978 0 0.453762 0 0.454545 
0 0.455329 0 0.456113 0 0.456897 0 0.45768 0 
0.458464 0 0.459248 0 0.460031 0 0.460815 0 0.461599 
0 0.462382 0 0.463166 0 0.46395 0 0.464734 0 
0.465517 0 0.466301 0 0.467085 0 0.467868 0 0.468652 
0 0.469436 0 0.470219 0 0.471003 0 0.471787 0 
0.472571 0 0.473354 0 0.474138 0 0.474922 0 0.475705 
0 0.476489 0 0.477273 0 0.478056 0 0.47884 0 
0.479624 0 0.480408 0 0.481191 0 0.481975 0 0.482759 
0 0.483542 0 0.484326 0 0.48511 0 0.485893 0 
0.486677 0 0.487461 0 0.488245 0 0.489028 0 0.489812 
0 0.490596 0 0.491379 0 0.492163 0 0.492947 0 
0.49373 0 0.494514 0 0.495298 0 0.496082 0 0.496865 
0 0.497649 0 0.498433 0 0.499216 0 0.5 0 
0.500784 0 0.501567 0 0.502351 0 0.503135 0 0.503918 
0 0.504702 0 0.505486 0 0.50627 0 0.507053 0 
0.507837 0 0.508621 0 0.509404 0 0.510188 0 0.510972 
0 0.511755 0 0.512539 0 0.513323 0 0.514107 0 
0.51489 0 0.515674 0 0.516458 0 0.517241 0 0.518025 
0 0.518809 0 0.519592 0 0.520376 0 0.52116 0 
0.521944 0 0.522727 0 0.523511 0 0.524295 0 0.525078 
0 0.525862 0 0.526646 0 0.527429 0 0.528213 0 
0.528997 0 0.529781 0 0.530564 0 0.531348 0 0.532132 
0 0.532915 0 0.533699 0 0.534483 0 0.535266 0 
0.53605 0 0.536834 0 0.537618 0 0.538401 0 0.539185 
0 0.539969 0 0.540752 0 0.541536 0 0.54232 0 
0.543103 0 0.543887 0 0.544671 0 0.545455 0 0.546238 
0 0.547022 0 0.547806 0 0.548589 0 0.549373 0 
0.550157 0 0.55094 0 0.551724 0 0.552508 0 0.553292 
0 0.554075 0 0.554859 0 0.555643 0 0.556426 0 
0.55721 0 0.557994 0 0.558777 0 0.559561 0 0.560345 
0 0.561128 0 0.561912 0 0.562696 0 0.56348 0 
0.564263 0 0.565047 0 0.565831 0 0.566614 0 0.567398 
0 0.568182 0 0.568965 0 0.569749 0 0.570533 0 
0.571317 0 0.5721 0 0.572884 0 0.573668 0 0.574451 
0 0.575235 0 0.576019 0 0.576802 0 0.577586 0 
0.57837 0 0.579154 0 0.579937 0 0.580721 0 0.581505 
0 0.582288 0 0.583072 0 0.583856 0 0.584639 0 
0.585423 0 0.586207 0 0.586991 0 0.587774 0 0.588558 
0 0.589342 0 0.590125 0 0.590909 0 0.591693 0 
0.592476 0 0.59326 0 0.594044 0 0.594828 0 0.595611 
0 0.596395 0 0.597179 0 0.597962 0 0.598746 0 
0.59953 0 0.600313 0 0.601097 0 0.601881 0 0.602665 
0 0.603448 0 0.604232 0 0.605016 0 0.605799 0 
0.606583 0 0.607367 0 0.60815 0 0.608934 0 0.609718 
0 0.610502 0 0.611285 0 0.612069 0 0.612853 0 
0.613636 0 0.61442 0 0.615204 0 0.615987 0 0.616771 
0 0.617555 0 0.618339 0 0.619122 0 0.619906 0 
0.62069 0 0.621473 0 0.622257 0 0.623041 0 0.623824 
0 0.624608 0 0.625392 0 0.626176 0 0.626959 0 
0.627743 0 0.628527 0 0.62931 0 0.630094 0 0.630878 
0 0.631661 0 0.632445 0 0.633229 0 0.634013 0 
0.634796 0 0.63558 0 0.636364 0 0.637147 0 0.637931 
0 0.638715 0 0.639498 0 0.640282 0 0.641066 0 
0.64185 0 0.642633 0 0.643417 0 0.644201 0 0.644984 
0 0.645768 0 0.646552 0 0.647335 0 0.648119 0 
0.648903 0 0.649687 0 0.65047 0 0.651254 0 0.652038 
0 0.652821 0 0.653605 0 0.654389 0 0.655172 0 
0.655956 0 0.65674 0 0.657524 0 0.658307 0 0.659091 
0 0.659875 0 0.660658 0 0.661442 0 0.662226 0 
0.663009 0 0.663793 0 0.664577 0 0.665361 0 0.666144 
0 0.666928 0 0.667712 0 0.668495 0 0.669279 0 
0.670063 0 0.670846 0 0.67163 0 0.672414 0 0.673198 
0 0.673981 0 0.674765 0 0.675549 0 0.676332 0 
0.677116 0 0.6779 0 0.678683 0 0.679467 0 0.680251 
0 0.681035 0 0.681818 0 0.682602 0 0.683386 0 
0.684169 0 0.684953 0 0.685737 0 0.68652 0 0.687304 
0 0.688088 0 0.688872 0 0.689655 0 0.690439 0 
0.691223 0 0.692006 0 0.69279 0 0.693574 0 0.694357 