# vtk DataFile Version 4.2
vtk output
ASCII
DATASET POLYDATA
POINTS 1276 float
0 0 0 -0.0019825 0.00113863 0.00343369 -0.00776455 0.0044673 0.0134428 
-0.0170979 0.00985513 0.0295893 -0.0297345 0.0171713 0.0514354 -0.045426 0.0262849 0.0785431 
-0.0639242 0.0370651 0.110474 -0.084981 0.049381 0.146791 -0.108348 0.0631017 0.187056 
-0.133777 0.0780965 0.23083 -0.161021 0.0942345 0.277676 -0.18983 0.111385 0.327157 
-0.219956 0.129416 0.378833 -0.251152 0.148199 0.432266 -0.283169 0.1676 0.48702 
-0.315759 0.187491 0.542657 -0.348674 0.20774 0.598737 -0.381665 0.228216 0.654823 
-0.414485 0.248788 0.710478 -0.446885 0.269326 0.765262 -0.478617 0.289698 0.81874 
-0.509435 0.309775 0.870476 -0.539221 0.32949 0.920258 -0.568037 0.348867 0.968183 
-0.595956 0.367935 1.01437 -0.623053 0.386722 1.05895 -0.649404 0.405259 1.10203 
-0.675082 0.423575 1.14375 -0.700163 0.4417 1.18421 -0.72472 0.459662 1.22354 
-0.74883 0.477491 1.26187 -0.772565 0.495216 1.29931 -0.796002 0.512868 1.33599 
-0.819214 0.530474 1.37202 -0.842277 0.548066 1.40753 -0.865264 0.565672 1.44264 
-0.888252 0.583321 1.47747 -0.911313 0.601043 1.51214 -0.934524 0.618868 1.54678 
-0.957958 0.636824 1.58149 -0.98169 0.654942 1.61642 -1.00579 0.67325 1.65167 
-1.03031 0.691759 1.6873 -1.05522 0.710456 1.72328 -1.08051 0.729327 1.75959 
-1.10616 0.748357 1.79619 -1.13217 0.767532 1.83304 -1.15851 0.786838 1.87012 
-1.18516 0.80626 1.90739 -1.21213 0.825784 1.94482 -1.23938 0.845396 1.98237 
-1.2669 0.86508 2.02002 -1.29468 0.884823 2.05773 -1.3227 0.90461 2.09547 
-1.35094 0.924426 2.13321 -1.3794 0.944258 2.17091 -1.40805 0.964091 2.20854 
-1.43688 0.983911 2.24607 -1.46588 1.0037 2.28347 -1.49502 1.02345 2.3207 
-1.52429 1.04314 2.35773 -1.55369 1.06277 2.39453 -1.58319 1.0823 2.43107 
-1.6128 1.10176 2.46737 -1.64253 1.12112 2.50343 -1.67239 1.14039 2.53925 
-1.70237 1.15956 2.57486 -1.73249 1.17863 2.61024 -1.76276 1.1976 2.64542 
-1.79317 1.21646 2.68041 -1.82374 1.23522 2.7152 -1.85447 1.25386 2.74981 
-1.88537 1.27239 2.78426 -1.91645 1.2908 2.81853 -1.9477 1.30908 2.85266 
-1.97915 1.32724 2.88663 -2.01078 1.34527 2.92047 -2.04262 1.36318 2.95418 
-2.07466 1.38094 2.98777 -2.10692 1.39857 3.02125 -2.13939 1.41606 3.05463 
-2.17209 1.4334 3.08791 -2.20501 1.4506 3.1211 -2.23817 1.46764 3.1542 
-2.27156 1.48453 3.18722 -2.30518 1.50125 3.22014 -2.33902 1.5178 3.25296 
-2.37308 1.53418 3.28569 -2.40737 1.55038 3.31831 -2.44188 1.56639 3.35083 
-2.47661 1.5822 3.38324 -2.51156 1.59782 3.41555 -2.54672 1.61324 3.44773 
-2.5821 1.62845 3.47981 -2.61769 1.64344 3.51176 -2.6535 1.65821 3.54359 
-2.68951 1.67276 3.5753 -2.72573 1.68707 3.60688 -2.76216 1.70115 3.63833 
-2.7988 1.71498 3.66965 -2.83563 1.72857 3.70083 -2.87268 1.7419 3.73187 
-2.90992 1.75497 3.76277 -2.94736 1.76777 3.79353 -2.985 1.78031 3.82415 
-3.02283 1.79257 3.85462 -3.06087 1.80455 3.88495 -3.09909 1.81625 3.91513 
-3.13751 1.82766 3.94516 -3.17612 1.83878 3.97505 -3.21492 1.84959 4.0048 
-3.25391 1.86011 4.03439 -3.29308 1.87031 4.06384 -3.33244 1.88021 4.09314 
-3.37199 1.88978 4.12229 -3.41172 1.89903 4.15128 -3.45163 1.90796 4.18013 
-3.49172 1.91655 4.20883 -3.53199 1.92481 4.23738 -3.57244 1.93273 4.26577 
-3.61306 1.9403 4.29401 -3.65386 1.94752 4.3221 -3.69483 1.95438 4.35004 
-3.73598 1.96088 4.37782 -3.77729 1.96702 4.40544 -3.81876 1.97279 4.43291 
-3.8604 1.97818 4.46022 -3.90218 1.9832 4.48738 -3.94412 1.98783 4.51437 
-3.9862 1.99208 4.54121 -4.02842 1.99593 4.56788 -4.07078 1.99938 4.5944 
-4.11327 2.00244 4.62075 -4.15589 2.00509 4.64695 -4.19864 2.00733 4.67298 
-4.2415 2.00915 4.69884 -4.28447 2.01056 4.72454 -4.32756 2.01154 4.75007 
-4.37075 2.01209 4.77544 -4.41405 2.01221 4.80064 -4.45744 2.01189 4.82568 
-4.50092 2.01113 4.85054 -4.5445 2.00992 4.87524 -4.58815 2.00826 4.89976 
-4.63189 2.00615 4.92412 -4.67569 2.00358 4.94831 -4.71956 2.00055 4.97233 
-4.76348 1.99706 4.99619 -4.80745 1.99311 5.01989 -4.85146 1.98869 5.04343 
-4.89551 1.9838 5.06681 -4.93958 1.97843 5.09004 -4.98368 1.9726 5.11311 
-5.02779 1.96628 5.13602 -5.0719 1.95949 5.15879 -5.11602 1.95221 5.1814 
-5.16012 1.94444 5.20387 -5.20422 1.93619 5.22619 -5.24829 1.92745 5.24837 
-5.29233 1.91822 5.2704 -5.33633 1.90848 5.29229 -5.3803 1.89825 5.31404 
-5.42421 1.88752 5.33565 -5.46806 1.87629 5.35713 -5.51185 1.86455 5.37847 
-5.55557 1.85231 5.39968 -5.59921 1.83957 5.42077 -5.64275 1.82633 5.44174 
-5.6862 1.81259 5.46259 -5.72955 1.79836 5.48334 -5.77278 1.78363 5.50397 
-5.81589 1.76841 5.5245 -5.85886 1.75269 5.54493 -5.90171 1.73649 5.56527 
-5.9444 1.7198 5.58551 -5.98694 1.70261 5.60567 -6.02932 1.68495 5.62575 
-6.07153 1.66679 5.64575 -6.11356 1.64816 5.66567 -6.15541 1.62904 5.68553 
-6.19706 1.60944 5.70532 -6.23851 1.58936 5.72504 -6.27975 1.5688 5.74471 
-6.32077 1.54776 5.76433 -6.36156 1.52626 5.7839 -6.40213 1.50429 5.80342 
-6.44246 1.48186 5.82291 -6.48256 1.45898 5.84236 -6.52242 1.43566 5.86178 
-6.56203 1.4119 5.88117 -6.6014 1.38772 5.90054 -6.64052 1.36311 5.9199 
-6.67938 1.33809 5.93924 -6.71798 1.31267 5.95858 -6.75632 1.28684 5.97791 
-6.79439 1.26063 5.99724 -6.83219 1.23403 6.01658 -6.86972 1.20705 6.03593 
-6.90696 1.1797 6.05529 -6.94393 1.15199 6.07467 -6.98061 1.12393 6.09408 
-7.01699 1.09552 6.11351 -7.05309 1.06676 6.13298 -7.08888 1.03768 6.15248 
-7.12438 1.00827 6.17202 -7.15958 0.978541 6.19161 -7.1945 0.948503 6.21123 
-7.22912 0.918162 6.23088 -7.26346 0.887527 6.25057 -7.29753 0.856605 6.2703 
-7.33132 0.825404 6.29005 -7.36485 0.793932 6.30984 -7.39811 0.762197 6.32966 
-7.43111 0.730206 6.3495 -7.46385 0.697967 6.36938 -7.49635 0.665489 6.38928 
-7.52859 0.632778 6.4092 -7.5606 0.599842 6.42914 -7.59236 0.566689 6.44911 
-7.6239 0.533328 6.4691 -7.6552 0.499766 6.48911 -7.68628 0.46601 6.50914 
-7.71714 0.432068 6.52918 -7.74778 0.397949 6.54923 -7.77821 0.363658 6.56931 
-7.80844 0.3292 6.58938 -7.83847 0.294578 6.60946 -7.86832 0.259795 6.62953 
-7.89798 0.224853 6.64959 -7.92747 0.189755 6.66962 -7.95679 0.154504 6.68963 
-7.98596 0.119103 6.7096 -8.01497 0.0835557 6.72953 -8.04384 0.0478638 6.7494 
-8.07258 0.0120307 6.76923 -8.10119 -0.0239409 6.78898 -8.12968 -0.0600479 6.80867 
-8.15806 -0.0962876 6.82828 -8.18633 -0.132657 6.8478 -8.2145 -0.169153 6.86723 
-8.24259 -0.205774 6.88657 -8.27059 -0.242515 6.90579 -8.29852 -0.279374 6.92491 
-8.32639 -0.316349 6.9439 -8.35419 -0.353437 6.96277 -8.38195 -0.390637 6.98149 
-8.40965 -0.42795 7.00006 -8.43731 -0.465377 7.01847 -8.46494 -0.50292 7.03669 
-8.49253 -0.540579 7.05471 -8.5201 -0.578355 7.07253 -8.54765 -0.616249 7.09011 
-8.57518 -0.654263 7.10746 -8.6027 -0.692396 7.12456 -8.63021 -0.730651 7.14139 
-8.65773 -0.769028 7.15794 -8.68525 -0.807527 7.17419 -8.71278 -0.846151 7.19013 
-8.74033 -0.884899 7.20575 -8.7679 -0.923774 7.22103 -8.7955 -0.962776 7.23596 
-8.82312 -1.0019 7.25052 -8.85079 -1.04116 7.2647 -8.8785 -1.08055 7.27848 
-8.90626 -1.12007 7.29186 -8.93406 -1.15972 7.30481 -8.96191 -1.1995 7.31732 
-8.9898 -1.2394 7.32937 -9.01772 -1.27942 7.34096 -9.04568 -1.31957 7.35205 
-9.07366 -1.35983 7.36264 -9.10167 -1.4002 7.37272 -9.12969 -1.44069 7.38225 
-9.15772 -1.48129 7.39124 -9.18577 -1.522 7.39966 -9.21381 -1.56281 7.4075 
-9.24186 -1.60372 7.41474 -9.2699 -1.64473 7.42137 -9.29794 -1.68584 7.42737 
-9.32595 -1.72704 7.43272 -9.35395 -1.76834 7.43741 -9.38193 -1.80972 7.44142 
-9.40988 -1.85119 7.44474 -9.4378 -1.89275 7.44735 -9.46568 -1.93438 7.44924 
-9.49352 -1.9761 7.45039 -9.52131 -2.01788 7.45081 -9.54904 -2.05972 7.45048 
-9.5767 -2.1016 7.44941 -9.60429 -2.14352 7.44759 -9.63179 -2.18547 7.44503 
-9.6592 -2.22743 7.44173 -9.6865 -2.2694 7.43767 -9.7137 -2.31137 7.43287 
-9.74078 -2.35332 7.42731 -9.76773 -2.39525 7.421 -9.79455 -2.43714 7.41393 
-9.82122 -2.47898 7.40611 -9.84773 -2.52077 7.39753 -9.87409 -2.5625 7.38819 
-9.90028 -2.60415 7.37809 -9.92628 -2.64571 7.36722 -9.9521 -2.68717 7.35559 
-9.97773 -2.72853 7.3432 -10.0031 -2.76978 7.33004 -10.0284 -2.81089 7.3161 
-10.0533 -2.85187 7.30141 -10.0781 -2.8927 7.28596 -10.1027 -2.93338 7.26976 
-10.127 -2.9739 7.25282 -10.151 -3.01425 7.23513 -10.1749 -3.05442 7.21672 
-10.1984 -3.0944 7.19759 -10.2218 -3.13419 7.17773 -10.2448 -3.17377 7.15717 
-10.2676 -3.21314 7.1359 -10.2902 -3.25228 7.11394 -10.3124 -3.29119 7.09128 
-10.3344 -3.32986 7.06794 -10.3561 -3.36829 7.04392 -10.3776 -3.40645 7.01922 
-10.3987 -3.44436 6.99387 -10.4195 -3.48198 6.96785 -10.4401 -3.51933 6.94118 
-10.4603 -3.55638 6.91387 -10.4802 -3.59313 6.88592 -10.4998 -3.62957 6.85733 
-10.5191 -3.66569 6.82811 -10.538 -3.70148 6.79828 -10.5566 -3.73693 6.76782 
-10.5748 -3.77203 6.73676 -10.5926 -3.80677 6.70508 -10.6101 -3.84114 6.67281 
-10.6271 -3.87513 6.63994 -10.6438 -3.90873 6.60648 -10.66 -3.94192 6.57243 
-10.6758 -3.97471 6.5378 -10.6912 -4.00708 6.5026 -10.7062 -4.03901 6.46684 
-10.7207 -4.0705 6.4305 -10.7347 -4.10155 6.39361 -10.7482 -4.13213 6.35617 
-10.7613 -4.16224 6.31818 -10.7738 -4.19187 6.27964 -10.7859 -4.22101 6.24057 
-10.7974 -4.24965 6.20097 -10.8084 -4.27778 6.16085 -10.8189 -4.3054 6.12023 
-10.8288 -4.33253 6.07912 -10.8382 -4.35914 6.03755 -10.8471 -4.38525 5.99553 
-10.8554 -4.41086 5.95307 -10.8632 -4.43597 5.91021 -10.8703 -4.46057 5.86695 
-10.877 -4.48467 5.82331 -10.883 -4.50827 5.77932 -10.8885 -4.53137 5.73498 
-10.8934 -4.55397 5.69032 -10.8977 -4.57606 5.64535 -10.9014 -4.59766 5.6001 
-10.9045 -4.61876 5.55458 -10.907 -4.63936 5.5088 -10.9089 -4.65946 5.46279 
-10.9102 -4.67906 5.41656 -10.9109 -4.69816 5.37013 -10.911 -4.71677 5.32353 
-10.9104 -4.73489 5.27676 -10.9092 -4.75253 5.22983 -10.9074 -4.7697 5.18277 
-10.905 -4.78643 5.13557 -10.9021 -4.80273 5.08826 -10.8985 -4.81862 5.04085 
-10.8944 -4.8341 4.99335 -10.8897 -4.8492 4.94577 -10.8845 -4.86393 4.89812 
-10.8787 -4.87831 4.85041 -10.8724 -4.89234 4.80266 -10.8656 -4.90606 4.75489 
-10.8582 -4.91946 4.70709 -10.8504 -4.93257 4.65929 -10.842 -4.94541 4.6115 
-10.8331 -4.95798 4.56372 -10.8238 -4.9703 4.51598 -10.814 -4.98239 4.46828 
[...]
CELL_DATA 1
FIELD FieldData 2
Length 1 1 double
63.784270556 
Tortuosity 1 1 double
1.1720483776 
POINT_DATA 1276
SCALARS MaximumInscribedSphereRadius float
LOOKUP_TABLE default
1.24 1.2276 1.2152 1.20281 1.19041 1.17801 1.16561 1.15321 1.14081 
1.12842 1.11602 1.10362 1.09122 1.07882 1.06643 1.05403 1.04163 1.02923 
1.01683 1.00443 0.992036 0.987141 0.995126 1.00311 1.01109 1.01908 1.02706 
1.03505 1.04303 1.05102 1.059 1.06699 1.07497 1.08296 1.09094 1.09892 
1.10691 1.11489 1.12288 1.13086 1.13885 1.14208 1.1381 1.13412 1.13014 
1.12616 1.12218 1.1182 1.11422 1.11025 1.10627 1.10229 1.09831 1.09433 
1.09035 1.08637 1.08239 1.07841 1.07443 1.07045 1.06647 1.0621 1.05553 
1.04897 1.0424 1.03584 1.02927 1.02271 1.01615 1.00958 1.00302 0.996452 
0.989888 0.983324 0.976759 0.970195 0.96363 0.957066 0.950502 0.943937 0.937373 
0.930809 0.932886 0.936176 0.939467 0.942758 0.946049 0.94934 0.95263 0.955921 
0.959212 0.962503 0.965794 0.969084 0.972375 0.975666 0.978957 0.982248 0.985539 
0.988829 0.99212 0.995411 1.0034 1.01451 1.02562 1.03673 1.04784 1.05895 
1.07006 1.08117 1.09228 1.10339 1.1145 1.12561 1.13672 1.14783 1.15894 
1.17005 1.18116 1.19227 1.20338 1.21449 1.21797 1.206 1.19402 1.18205 
1.17008 1.1581 1.14613 1.13416 1.12218 1.11021 1.09824 1.08626 1.07429 
1.06232 1.05034 1.03837 1.02639 1.01442 1.00245 0.990474 0.979779 0.987541 
0.995303 1.00307 1.01083 1.01859 1.02635 1.03411 1.04188 1.04964 1.0574 
1.06516 1.07292 1.08069 1.08845 1.09621 1.10397 1.11173 1.1195 1.12726 
1.13502 1.1345 1.13196 1.12941 1.12686 1.12431 1.12176 1.11922 1.11667 
1.11412 1.11157 1.10902 1.10648 1.10393 1.10138 1.09883 1.09629 1.09374 
1.09119 1.08864 1.08609 1.08135 1.07475 1.06815 1.06155 1.05495 1.04836 
1.04176 1.03516 1.02856 1.02196 1.01537 1.00877 1.00217 0.995571 0.988973 
0.982375 0.975777 0.969179 0.962581 0.955983 0.951598 0.952908 0.954218 0.955528 
0.956839 0.958149 0.959459 0.960769 0.96208 0.96339 0.9647 0.96601 0.967321 
0.968631 0.969941 0.971251 0.972561 0.973872 0.975182 0.976492 0.977809 0.979989 
0.98217 0.984351 0.986532 0.988712 0.990893 0.993074 0.995254 0.997435 0.999616 
1.0018 1.00398 1.00616 1.00834 1.01052 1.0127 1.01488 1.01706 1.01924 
1.02142 1.0384 1.06095 1.08351 1.10607 1.12862 1.15118 1.17374 1.19629 
1.21885 1.2414 1.26396 1.28652 1.30907 1.33163 1.35419 1.37674 1.3993 
1.42185 1.44441 1.46697 1.47572 1.46755 1.45939 1.45122 1.44305 1.43489 
1.42672 1.41855 1.41038 1.40222 1.39405 1.38588 1.37772 1.36955 1.36138 
1.35322 1.34505 1.33688 1.32871 1.32055 1.31326 1.30961 1.30595 1.30229 
1.29864 1.29498 1.29132 1.28766 1.28401 1.28035 1.27669 1.27304 1.26938 
1.26572 1.26207 1.25841 1.25475 1.25109 1.24744 1.24378 1.24012 1.24 
1.24 1.24 1.24 1.24 1.24 1.24 1.24 1.24 1.24 
1.24 1.24 1.24 1.24 1.24 1.24 1.24 1.24 1.24 
1.24 1.24 1.24 1.24 1.24 1.24 1.24 1.24 1.24 
1.24 1.24 1.24 1.24 1.24 1.24 1.24 1.24 1.24 
1.24 1.24 1.24 1.23716 1.23158 1.22601 1.22044 1.21486 1.20929 
1.20372 1.19814 1.19257 1.187 1.18142 1.17585 1.17027 1.1647 1.15913 
1.15355 1.14798 1.14241 1.13683 1.13126 1.12549 1.11922 1.11296 1.1067 
1.10043 1.09417 1.08791 1.08164 1.07538 1.06912 1.06285 1.05659 1.05033 
1.04406 1.0378 1.03154 1.02528 1.01901 1.01275 1.00649 1.00097 1.01168 
1.02239 1.0331 1.04381 1.05452 1.06523 1.07594 1.08666 1.09737 1.10808 
1.11879 1.1295 1.14021 1.15092 1.16163 1.17234 1.18305 1.19376 1.20447 
1.21518 1.22237 1.22853 1.23468 1.24084 1.247 1.25315 1.25931 1.26547 
1.27163 1.27778 1.28394 1.2901 1.29625 1.30241 1.30857 1.31472 1.32088 
1.32704 1.3332 1.33935 1.33818 1.32963 1.32108 1.31253 1.30398 1.29543 
1.28688 1.27833 1.26978 1.26123 1.25268 1.24413 1.23558 1.22703 1.21848 
1.20993 1.20138 1.19283 1.18428 1.17573 1.16773 1.16149 1.15524 1.149 
1.14276 1.13651 1.13027 1.12403 1.11778 1.11154 1.1053 1.09905 1.09281 
1.08657 1.08032 1.07408 1.06784 1.06159 1.05535 1.04911 1.04337 1.05323 
1.06309 1.07296 1.08282 1.09268 1.10254 1.1124 1.12226 1.13212 1.14198 
1.15185 1.16171 1.17157 1.18143 1.19129 1.20115 1.21101 1.22087 1.23074 
1.2405 1.24875 1.257 1.26524 1.27349 1.28174 1.28999 1.29824 1.30649 
1.31474 1.32298 1.33123 1.33948 1.34773 1.35598 1.36423 1.37247 1.38072 
1.38897 1.39722 1.40414 1.40479 1.40544 1.4061 1.40675 1.4074 1.40805 
1.4087 1.40935 1.41 1.41065 1.4113 1.41195 1.4126 1.41325 1.4139 
1.41455 1.4152 1.41586 1.41651 1.41657 1.4105 1.40443 1.39837 1.3923 
1.38623 1.38016 1.37409 1.36802 1.36195 1.35588 1.34981 1.34374 1.33767 
1.33161 1.32554 1.31947 1.3134 1.30733 1.30126 1.29519 1.29768 1.30102 
1.30436 1.3077 1.31104 1.31439 1.31773 1.32107 1.32441 1.32775 1.33109 
1.33443 1.33778 1.34112 1.34446 1.3478 1.35114 1.35448 1.35782 1.36117 
1.35868 1.35324 1.3478 1.34235 1.33691 1.33147 1.32603 1.32059 1.31515 
1.30971 1.30426 1.29882 1.29338 1.28794 1.2825 1.27706 1.27161 1.26617 
1.26073 1.25529 1.25202 1.25215 1.25229 1.25242 1.25255 1.25268 1.25281 
1.25294 1.25308 1.25321 1.25334 1.25347 1.2536 1.25373 1.25387 1.254 
1.25413 1.25426 1.25439 1.25453 1.25603 1.26691 1.27778 1.28865 1.29953 
1.3104 1.32128 1.33215 1.34303 1.3539 1.36478 1.37565 1.38653 1.3974 
1.40827 1.41915 1.43002 1.4409 1.45177 1.46265 1.4733 1.46609 1.45887 
1.45166 1.44444 1.43723 1.43001 1.4228 1.41558 1.40837 1.40115 1.39394 
1.38672 1.37951 1.37229 1.36507 1.35786 1.35064 1.34343 1.33621 1.329 
1.34266 1.35925 1.37585 1.39244 1.40904 1.42563 1.44222 1.45882 1.47541 
1.49201 1.5086 1.52519 1.54179 1.55838 1.57498 1.59157 1.60816 1.62476 
1.64135 1.65795 1.66467 1.66588 1.66709 1.66831 1.66952 1.67073 1.67194 
1.67315 1.67437 1.67558 1.67679 1.678 1.67922 1.68043 1.68164 1.68285 
1.68407 1.68528 1.68649 1.6877 1.68029 1.65902 1.63775 1.61647 1.5952 
1.57393 1.55266 1.53138 1.51011 1.48884 1.46757 1.4463 1.42502 1.40375 
1.38248 1.36121 1.33993 1.31866 1.29739 1.27612 1.25723 1.25495 1.25266 
1.25038 1.24809 1.24581 1.24352 1.24124 1.23895 1.23667 1.23438 1.2321 
1.22981 1.22752 1.22524 1.22295 1.22067 1.21838 1.2161 1.21381 1.21153 
1.20299 1.19359 1.18418 1.17478 1.16537 1.15597 1.14656 1.13716 1.12776 
1.11835 1.10895 1.09954 1.09014 1.08073 1.07133 1.06192 1.05252 1.04312 
1.03371 1.02431 1.02404 1.029 1.03395 1.0389 1.04385 1.04881 1.05376 
1.05871 1.06367 1.06862 1.07357 1.07852 1.08348 1.08843 1.09338 1.09834 
1.10329 1.10824 1.11319 1.11815 1.12838 1.14732 1.16625 1.18519 1.20413 
1.22306 1.242 1.26094 1.27987 1.29881 1.31774 1.33668 1.35562 1.37455 
1.39349 1.41243 1.43136 1.4503 1.46923 1.48817 1.50722 1.52729 1.54735 
1.56742 1.58748 1.60754 1.62761 1.64767 1.66774 1.6878 1.70786 1.72793 
1.74799 1.76806 1.78812 1.80818 1.82825 1.84831 1.86838 1.88844 1.9085 
1.91768 1.92475 1.93183 1.9389 1.94597 1.95304 1.96011 1.96718 1.97425 
1.98132 1.98839 1.99546 2.00253 2.0096 2.01668 2.02375 2.03082 2.03789 
2.04496 2.05203 2.04707 2.03384 2.02062 2.00739 1.99417 1.98094 1.96771 
1.95449 1.94126 1.92804 1.91481 1.90158 1.88836 1.87513 1.86191 1.84868 
1.83545 1.82223 1.809 1.79578 1.7841 1.77507 1.76604 1.75701 1.74798 
1.73895 1.72992 1.72089 1.71186 1.70283 1.6938 1.68477 1.67574 1.66671 
1.65768 1.64865 1.63962 1.63058 1.62155 1.61252 1.60441 1.60173 1.59905 
1.59636 1.59368 1.591 1.58832 1.58563 1.58295 1.58027 1.57758 1.5749 
1.57222 1.56954 1.56685 1.56417 1.56149 1.55881 1.55612 1.55344 1.55076 
1.55574 1.56157 1.56741 1.57324 1.57907 1.58491 1.59074 1.59658 1.60241 
1.60824 1.61408 1.61991 1.62574 1.63158 1.63741 1.64324 1.64908 1.65491 
1.66074 1.66658 1.67342 1.68083 1.68824 1.69565 1.70306 1.71047 1.71788 
1.72529 1.7327 1.74011 1.74751 1.75492 1.76233 1.76974 1.77715 1.78456 
1.79197 1.79938 1.80679 1.8142 1.8167 1.81124 1.80577 1.80031 1.79485 
1.78939 1.78393 1.77847 1.77301 1.76755 1.76209 1.75662 1.75116 1.7457 
1.74024 1.73478 1.72932 1.72386 1.7184 1.71294 1.71129 1.7408 1.77032 
1.79983 1.82934 1.85885 1.88837 1.91788 1.94739 1.9769 2.00642 2.03593 
2.06544 2.09495 2.12447 2.15398 2.18349 2.213 2.24252 2.27203 2.30154 
2.30859 2.31097 2.31334 2.31571 2.31808 2.32045 2.32282 2.3252 2.32757 
2.32994 2.33231 2.33468 2.33706 2.33943 2.3418 2.34417 2.34654 2.34892 
2.35129 2.35366 2.35832 2.36488 2.37145 2.37801 2.38458 2.39114 2.3977 
2.40427 2.41083 2.4174 2.42396 2.43053 2.43709 2.44366 2.45022 2.45678 
2.46335 2.46991 2.47648 2.48304 2.49317 2.51308 2.53299 2.55289 2.5728 
2.5927 2.61261 2.63251 2.65242 2.67232 2.69223 2.71213 2.73204 2.75194 
2.77185 2.79175 2.81166 2.83156 2.85147 2.87137 2.89107 2.8868 2.88253 
2.87825 2.87398 2.8697 2.86543 2.86116 2.85688 2.85261 2.84833 2.84406 
2.83979 2.83551 2.83124 2.82696 2.82269 2.81842 2.81414 2.80987 2.80559 
2.79227 2.77681 2.76135 2.74589 2.73043 2.71497 2.69951 2.68405 2.66859 
2.65313 2.63767 2.62221 2.60675 2.59129 2.57583 2.56037 2.54491 2.52945 
2.51399 2.49853 2.48352 2.46871 2.45391 2.4391 2.42429 2.40949 2.39468 
2.37987 2.36507 2.35026 2.33545 2.32064 2.30584 2.29103 2.27622 2.26142 
2.24661 2.2318 2.217 2.20219 2.17845 2.14532 2.11218 2.07905 2.04591 
2.01278 1.97964 1.94651 1.91338 1.88024 1.84711 1.81397 1.78084 1.7477 
1.71457 1.68143 1.6483 1.61517 1.58203 1.5489 1.52046 1.50742 1.49438 
1.48135 1.46831 1.45528 1.44224 1.42921 1.41617 1.40313 1.3901 1.37706 
1.36403 1.35099 1.33796 1.32492 1.31189 1.29885 1.28581 1.27278 1.25974 
1.26958 1.28035 1.29112 1.30189 1.31266 1.32343 1.3342 1.34497 1.35574 
1.36651 1.37728 1.38805 1.39882 1.40959 1.42036 1.43113 1.4419 1.45267 
1.46344 1.47421 1.49687 1.52514 1.5534 1.58166 1.60993 1.63819 1.66645 
1.69472 1.72298 1.75124 1.77951 1.80777 1.83603 1.8643 1.89256 1.92083 
1.94909 1.97735 2.00562 2.03388 2.04873 2.04323 2.03773 2.03224 2.02674 
2.02125 2.01575 2.01025 2.00476 1.99926 1.99377 1.98827 1.98277 1.97728 
1.97178 1.96629 1.96079 1.95529 1.9498 1.9443 1.93899 1.93507 1.93115 
1.92723 1.92332 1.9194 1.91548 1.91156 1.90764 1.90372 1.8998 1.89589 
1.89197 1.88805 1.88413 1.88021 1.87629 1.87237 1.86846 1.86454 1.86062 
1.86 1.86 1.86 1.86 1.86 1.86 1.86 1.86 1.86 
1.86 1.86 1.86 1.86 1.86 1.86 1.86 1.86 1.86 
1.86 1.86 1.85772 1.85393 1.85015 1.84636 1.84258 1.83879 1.83501 
1.83122 1.82744 1.82365 1.81987 1.81608 1.8123 1.80851 1.80473 1.80094 
1.79716 1.79337 1.78959 1.7858 1.7772 1.76584 1.75448 1.74312 1.73176 
1.7204 1.70904 1.69768 1.68632 1.67496 1.6636 1.65224 1.64088 1.62952 
1.61816 1.6068 1.59544 1.58408 1.57272 1.56136 1.55 
TEXTURE_COORDINATES TCoords 2 float
0 0 0.000784314 0 0.00156863 0 0.00235294 0 0.00313725 
0 0.00392157 0 0.00470588 0 0.0054902 0 0.00627451 0 
0.00705882 0 0.00784314 0 0.00862745 0 0.00941176 0 0.0101961 
0 0.0109804 0 0.0117647 0 0.012549 0 0.0133333 0 
0.0141176 0 0.014902 0 0.0156863 0 0.0164706 0 0.0172549 
0 0.0180392 0 0.0188235 0 0.0196078 0 0.0203922 0 
0.0211765 0 0.0219608 0 0.0227451 0 0.0235294 0 0.0243137 
0 0.025098 0 0.0258824 0 0.0266667 0 0.027451 0 
0.0282353 0 0.0290196 0 0.0298039 0 0.0305882 0 0.0313726 
0 0.0321569 0 0.0329412 0 0.0337255 0 0.0345098 0 
0.0352941 0 0.0360784 0 0.0368627 0 0.0376471 0 0.0384314 
0 0.0392157 0 0.04 0 0.0407843 0 0.0415686 0 
0.0423529 0 0.0431373 0 0.0439216 0 0.0447059 0 0.0454902 
0 0.0462745 0 0.0470588 0 0.0478431 0 0.0486275 0 
0.0494118 0 0.0501961 0 0.0509804 0 0.0517647 0 0.052549 
0 0.0533333 0 0.0541176 0 0.054902 0 0.0556863 0 
0.0564706 0 0.0572549 0 0.0580392 0 0.0588235 0 0.0596078 
0 0.0603922 0 0.0611765 0 0.0619608 0 0.0627451 0 
0.0635294 0 0.0643137 0 0.065098 0 0.0658824 0 0.0666667 
0 0.067451 0 0.0682353 0 0.0690196 0 0.0698039 0 
0.0705882 0 0.0713725 0 0.0721569 0 0.0729412 0 0.0737255 
0 0.0745098 0 0.0752941 0 0.0760784 0 0.0768627 0 
0.0776471 0 0.0784314 0 0.0792157 0 0.08 0 0.0807843 
0 0.0815686 0 0.0823529 0 0.0831373 0 0.0839216 0 
0.0847059 0 0.0854902 0 0.0862745 0 0.0870588 0 0.0878431 
0 0.0886275 0 0.0894118 0 0.0901961 0 0.0909804 0 
0.0917647 0 0.092549 0 0.0933333 0 0.0941176 0 0.094902 
0 0.0956863 0 0.0964706 0 0.0972549 0 0.0980392 0 
0.0988235 0 0.0996078 0 0.100392 0 0.101176 0 0.101961 
0 0.102745 0 0.103529 0 0.104314 0 0.105098 0 
0.105882 0 0.106667 0 0.107451 0 0.108235 0 0.10902 
0 0.109804 0 0.110588 0 0.111373 0 0.112157 0 
0.112941 0 0.113725 0 0.11451 0 0.115294 0 0.116078 
0 0.116863 0 0.117647 0 0.118431 0 0.119216 0 
0.12 0 0.120784 0 0.121569 0 0.122353 0 0.123137 
0 0.123922 0 0.124706 0 0.12549 0 0.126275 0 
0.127059 0 0.127843 0 0.128627 0 0.129412 0 0.130196 
0 0.13098 0 0.131765 0 0.132549 0 0.133333 0 
0.134118 0 0.134902 0 0.135686 0 0.136471 0 0.137255 
0 0.138039 0 0.138824 0 0.139608 0 0.140392 0 
0.141176 0 0.141961 0 0.142745 0 0.143529 0 0.144314 
0 0.145098 0 0.145882 0 0.146667 0 0.147451 0 
0.148235 0 0.14902 0 0.149804 0 0.150588 0 0.151373 
0 0.152157 0 0.152941 0 0.153725 0 0.15451 0 
0.155294 0 0.156078 0 0.156863 0 0.157647 0 0.158431 
0 0.159216 0 0.16 0 0.160784 0 0.161569 0 
0.162353 0 0.163137 0 0.163922 0 0.164706 0 0.16549 
0 0.166275 0 0.167059 0 0.167843 0 0.168627 0 
0.169412 0 0.170196 0 0.17098 0 0.171765 0 0.172549 
0 0.173333 0 0.174118 0 0.174902 0 0.175686 0 
0.176471 0 0.177255 0 0.178039 0 0.178824 0 0.179608 
0 0.180392 0 0.181176 0 0.181961 0 0.182745 0 
0.183529 0 0.184314 0 0.185098 0 0.185882 0 0.186667 
0 0.187451 0 0.188235 0 0.18902 0 0.189804 0 
0.190588 0 0.191373 0 0.192157 0 0.192941 0 0.193725 
0 0.19451 0 0.195294 0 0.196078 0 0.196863 0 
0.197647 0 0.198431 0 0.199216 0 0.2 0 0.200784 
0 0.201569 0 0.202353 0 0.203137 0 0.203922 0 
0.204706 0 0.20549 0 0.206275 0 0.207059 0 0.207843 
0 0.208627 0 0.209412 0 0.210196 0 0.21098 0 
0.211765 0 0.212549 0 0.213333 0 0.214118 0 0.214902 
0 0.215686 0 0.216471 0 0.217255 0 0.218039 0 
0.218824 0 0.219608 0 0.220392 0 0.221176 0 0.221961 
0 0.222745 0 0.223529 0 0.224314 0 0.225098 0 
0.225882 0 0.226667 0 0.227451 0 0.228235 0 0.22902 
0 0.229804 0 0.230588 0 0.231373 0 0.232157 0 
0.232941 0 0.233725 0 0.23451 0 0.235294 0 0.236078 
0 0.236863 0 0.237647 0 0.238431 0 0.239216 0 
0.24 0 0.240784 0 0.241569 0 0.242353 0 0.243137 
0 0.243922 0 0.244706 0 0.24549 0 0.246275 0 
0.247059 0 0.247843 0 0.248627 0 0.249412 0 0.250196 
0 0.25098 0 0.251765 0 0.252549 0 0.253333 0 
0.254118 0 0.254902 0 0.255686 0 0.256471 0 0.257255 
0 0.258039 0 0.258824 0 0.259608 0 0.260392 0 
0.261176 0 0.261961 0 0.262745 0 0.263529 0 0.264314 
0 0.265098 0 0.265882 0 0.266667 0 0.267451 0 
0.268235 0 0.26902 0 0.269804 0 0.270588 0 0.271373 
0 0.272157 0 0.272941 0 0.273725 0 0.27451 0 
0.275294 0 0.276078 0 0.276863 0 0.277647 0 0.278431 
0 0.279216 0 0.28 0 0.280784 0 0.281569 0 
0.282353 0 0.283137 0 0.283922 0 0.284706 0 0.28549 
0 0.286275 0 0.287059 0 0.287843 0 0.288627 0 
0.289412 0 0.290196 0 0.29098 0 0.291765 0 0.292549 
0 0.293333 0 0.294118 0 0.294902 0 0.295686 0 
0.296471 0 0.297255 0 0.298039 0 0.298824 0 0.299608 
0 0.300392 0 0.301176 0 0.301961 0 0.302745 0 
0.303529 0 0.304314 0 0.305098 0 0.305882 0 0.306667 
0 0.307451 0 0.308235 0 0.30902 0 0.309804 0 
0.310588 0 0.311373 0 0.312157 0 0.312941 0 0.313726 
0 0.31451 0 0.315294 0 0.316078 0 0.316863 0 
0.317647 0 0.318431 0 0.319216 0 0.32 0 0.320784 
0 0.321569 0 0.322353 0 0.323137 0 0.323922 0 
0.324706 0 0.32549 0 0.326275 0 0.327059 0 0.327843 
0 0.328627 0 0.329412 0 0.330196 0 0.33098 0 
0.331765 0 0.332549 0 0.333333 0 0.334118 0 0.334902 
0 0.335686 0 0.336471 0 0.337255 0 0.338039 0 
0.338824 0 0.339608 0 0.340392 0 0.341176 0 0.341961 
0 0.342745 0 0.343529 0 0.344314 0 0.345098 0 
0.345882 0 0.346667 0 0.347451 0 0.348235 0 0.34902 
0 0.349804 0 0.350588 0 0.351373 0 0.352157 0 
0.352941 0 0.353725 0 0.35451 0 0.355294 0 0.356078 
0 0.356863 0 0.357647 0 0.358431 0 0.359216 0 
0.36 0 0.360784 0 0.361569 0 0.362353 0 0.363137 
0 0.363922 0 0.364706 0 0.36549 0 0.366275 0 
0.367059 0 0.367843 0 0.368627 0 0.369412 0 0.370196 
0 0.37098 0 0.371765 0 0.372549 0 0.373333 0 
0.374118 0 0.374902 0 0.375686 0 0.376471 0 0.377255 
0 0.378039 0 0.378824 0 0.379608 0 0.380392 0 
0.381176 0 0.381961 0 0.382745 0 0.383529 0 0.384314 
0 0.385098 0 0.385882 0 0.386667 0 0.387451 0 
0.388235 0 0.38902 0 0.389804 0 0.390588 0 0.391373 
0 0.392157 0 0.392941 0 0.393725 0 0.39451 0 
0.395294 0 0.396078 0 0.396863 0 0.397647 0 0.398431 
0 0.399216 0 0.4 0 0.400784 0 0.401569 0 
0.402353 0 0.403137 0 0.403922 0 0.404706 0 0.40549 
0 0.406274 0 0.407059 0 0.407843 0 0.408627 0 
0.409412 0 0.410196 0 0.41098 0 0.411765 0 0.412549 
0 0.413333 0 0.414118 0 0.414902 0 0.415686 0 
0.416471 0 0.417255 0 0.418039 0 0.418824 0 0.419608 
0 0.420392 0 0.421176 0 0.421961 0 0.422745 0 
0.423529 0 0.424314 0 0.425098 0 0.425882 0 0.426667 
0 0.427451 0 0.428235 0 0.42902 0 0.429804 0 
0.430588 0 0.431373 0 0.432157 0 0.432941 0 0.433725 
0 0.43451 0 0.435294 0 0.436078 0 0.436863 0 
0.437647 0 0.438431 0 0.439216 0 0.44 0 0.440784 
0 0.441569 0 0.442353 0 0.443137 0 0.443922 0 
0.444706 0 0.44549 0 0.446275 0 0.447059 0 0.447843 
0 0.448627 0 0.449412 0 0.450196 0 0.45098 0 
0.451765 0 0.452549 0 0.453333 0 0.454118 0 0.454902 
0 0.455686 0 0.456471 0 0.457255 0 0.458039 0 
0.458824 0 0.459608 0 0.460392 0 0.461176 0 0.461961 
0 0.462745 0 0.463529 0 0.464314 0 0.465098 0 
0.465882 0 0.466667 0 0.467451 0 0.468235 0 0.46902 
0 0.469804 0 0.470588 0 0.471373 0 0.472157 0 
0.472941 0 0.473725 0 0.47451 0 0.475294 0 0.476078 
0 0.476863 0 0.477647 0 0.478431 0 0.479216 0 
0.48 0 0.480784 0 0.481569 0 0.482353 0 0.483137 
0 0.483922 0 0.484706 0 0.48549 0 0.486275 0 
0.487059 0 0.487843 0 0.488627 0 0.489412 0 0.490196 
0 0.49098 0 0.491765 0 0.492549 0 0.493333 0 
0.494118 0 0.494902 0 0.495686 0 0.496471 0 0.497255 
0 0.498039 0 0.498824 0 0.499608 0 0.500392 0 
0.501176 0 0.501961 0 0.502745 0 0.503529 0 0.504314 
0 0.505098 0 0.505882 0 0.506667 0 0.507451 0 
0.508235 0 0.50902 0 0.509804 0 0.510588 0 0.511373 
0 0.512157 0 0.512941 0 0.513726 0 0.51451 0 
0.515294 0 0.516078 0 0.516863 0 0.517647 0 0.518431 
0 0.519216 0 0.52 0 0.520784 0 0.521569 0 
0.522353 0 0.523137 0 0.523922 0 0.524706 0 0.52549 
0 0.526275 0 0.527059 0 0.527843 0 0.528627 0 
0.529412 0 0.530196 0 0.53098 0 0.531765 0 0.532549 
0 0.533333 0 0.534118 0 0.534902 0 0.535686 0 
0.536471 0 0.537255 0 0.538039 0 0.538824 0 0.539608 
0 0.540392 0 0.541176 0 0.541961 0 0.542745 0 
0.543529 0 0.544314 0 0.545098 0 0.545882 0 0.546667 
0 0.547451 0 0.548235 0 0.54902 0 0.549804 0 
0.550588 0 0.551373 0 0.552157 0 0.552941 0 0.553725 
0 0.55451 0 0.555294 0 0.556078 0 0.556863 0 
0.557647 0 0.558431 0 0.559216 0 0.56 0 0.560784 
0 0.561569 0 0.562353 0 0.563137 0 0.563922 0 
0.564706 0 0.56549 0 0.566275 0 0.567059 0 0.567843 
0 0.568627 0 0.569412 0 0.570196 0 0.57098 0 
0.571765 0 0.572549 0 0.573333 0 0.574118 0 0.574902 
0 0.575686 0 0.576471 0 0.577255 0 0.578039 0 
0.578824 0 0.579608 0 0.580392 0 0.581176 0 0.581961 
0 0.582745 0 0.583529 0 0.584314 0 0.585098 0 
0.585882 0 0.586667 0 0.587451 0 0.588235 0 0.58902 
0 0.589804 0 0.590588 0 0.591373 0 0.592157 0 
0.592941 0 0.593726 0 0.59451 0 0.595294 0 0.596078 
0 0.596863 0 0.597647 0 0.598431 0 0.599216 0 
0.6 0 0.600784 0 0.601569 0 0.602353 0 0.603137 
0 0.603922 0 0.604706 0 0.60549 0 0.606274 0 
0.607059 0 0.607843 0 0.608627 0 0.609412 0 0.610196 
0 0.61098 0 0.611765 0 0.612549 0 0.613333 0 
0.614118 0 0.614902 0 0.615686 0 0.616471 0 0.617255 
0 0.618039 0 0.618824 0 0.619608 0 0.620392 0 
0.621176 0 0.621961 0 0.622745 0 0.623529 0 0.624314 
0 0.625098 0 0.625882 0 0.626667 0 0.627451 0 
0.628235 0 0.62902 0 0.629804 0 0.630588 0 0.631373 
0 0.632157 0 0.632941 0 0.633725 0 0.63451 0 
0.635294 0 0.636078 0 0.636863 0 0.637647 0 0.638431 
0 0.639216 0 0.64 0 0.640784 0 0.641569 0 
0.642353 0 0.643137 0 0.643922 0 0.644706 0 0.64549 
0 0.646275 0 0.647059 0 0.647843 0 0.648627 0 
0.649412 0 0.650196 0 0.65098 0 0.651765 0 0.652549 
0 0.653333 0 0.654118 0 0.654902 0 0.655686 0 
0.656471 0 0.657255 0 0.658039 0 0.658824 0 0.659608 
0 0.660392 0 0.661176 0 0.661961 0 0.662745 0 
0.663529 0 0.664314 0 0.665098 0 0.665882 0 0.666667 
0 0.667451 0 0.668235 0 0.66902 0 0.669804 0 
0.670588 0 0.671373 0 0.672157 0 0.672941 0 0.673725 