# vtk DataFile Version 4.2
vtk output
ASCII
DATASET POLYDATA
POINTS 1273 float
0 0 0 -0.00265421 0.00258689 0.00188597 -0.0104023 0.0101274 0.00737051 
-0.0229223 0.0222911 0.0161935 -0.0398924 0.0387477 0.0280949 -0.0609907 0.059167 0.0428146 
-0.0858954 0.0832186 0.0600925 -0.114285 0.110572 0.0796685 -0.145836 0.140897 0.101283 
-0.180229 0.173864 0.124675 -0.21714 0.209142 0.149584 -0.256249 0.2464 0.175752 
-0.297232 0.285309 0.202917 -0.339769 0.325537 0.23082 -0.383537 0.366756 0.259201 
-0.428214 0.408634 0.287799 -0.47348 0.450841 0.316354 -0.51901 0.493047 0.344607 
-0.564485 0.534921 0.372296 -0.609582 0.576134 0.399163 -0.653979 0.616354 0.424947 
-0.697363 0.655262 0.449395 -0.739622 0.692734 0.472422 -0.780836 0.728844 0.494102 
-0.821094 0.763672 0.514516 -0.860483 0.797297 0.533747 -0.899094 0.8298 0.551876 
-0.937013 0.861262 0.568983 -0.97433 0.891761 0.585152 -1.01113 0.921379 0.600462 
-1.04751 0.950194 0.614997 -1.08355 0.978289 0.628836 -1.11934 1.00574 0.642062 
-1.15498 1.03263 0.654756 -1.19054 1.05904 0.667 -1.22612 1.08505 0.678875 
-1.2618 1.11074 0.690463 -1.29768 1.13619 0.701844 -1.33385 1.16147 0.713101 
-1.37038 1.18668 0.724316 -1.40737 1.21189 0.735569 -1.44491 1.23717 0.74694 
-1.48304 1.26256 0.758468 -1.52173 1.28803 0.77014 -1.56096 1.31354 0.781942 
-1.60071 1.33907 0.793857 -1.64095 1.36457 0.805873 -1.68166 1.39002 0.817972 
-1.72283 1.41539 0.830141 -1.76442 1.44063 0.842365 -1.80641 1.46573 0.854628 
-1.84878 1.49064 0.866915 -1.8915 1.51534 0.879212 -1.93456 1.53979 0.891504 
-1.97793 1.56395 0.903775 -2.02158 1.5878 0.916011 -2.0655 1.6113 0.928196 
-2.10965 1.63443 0.940317 -2.15402 1.65714 0.952356 -2.19858 1.6794 0.964301 
-2.24332 1.70119 0.976136 -2.2882 1.72247 0.987845 -2.33321 1.74321 0.999422 
-2.37834 1.76341 1.01088 -2.42362 1.78306 1.02222 -2.46902 1.80216 1.03347 
-2.51456 1.8207 1.04463 -2.56023 1.83867 1.05571 -2.60604 1.85607 1.06674 
-2.65199 1.87289 1.07771 -2.69809 1.88913 1.08865 -2.74432 1.90479 1.09956 
-2.7907 1.91985 1.11046 -2.83722 1.93431 1.12136 -2.8839 1.94817 1.13227 
-2.93072 1.96142 1.1432 -2.97769 1.97405 1.15417 -3.02481 1.98606 1.16518 
-3.07209 1.99745 1.17626 -3.11952 2.0082 1.1874 -3.16711 2.01832 1.19863 
-3.21485 2.02779 1.20996 -3.26276 2.03661 1.22139 -3.3108 2.04478 1.23294 
-3.35898 2.05228 1.24461 -3.40726 2.0591 1.25641 -3.45564 2.06524 1.26834 
-3.50409 2.07068 1.28041 -3.55261 2.07542 1.29264 -3.60116 2.07944 1.30501 
-3.64974 2.08274 1.31755 -3.69833 2.08531 1.33026 -3.74691 2.08714 1.34314 
-3.79547 2.08822 1.3562 -3.84398 2.08853 1.36945 -3.89243 2.08808 1.38289 
-3.94081 2.08685 1.39653 -3.9891 2.08483 1.41039 -4.03727 2.08201 1.42445 
-4.08532 2.07839 1.43874 -4.13323 2.07395 1.45325 -4.18097 2.06868 1.468 
-4.22854 2.06259 1.48298 -4.27592 2.05566 1.49821 -4.32309 2.04792 1.51368 
-4.37005 2.03937 1.52939 -4.41679 2.03004 1.54534 -4.46328 2.01992 1.56153 
-4.50952 2.00904 1.57796 -4.5555 1.99741 1.59463 -4.6012 1.98504 1.61153 
-4.64662 1.97193 1.62867 -4.69173 1.95811 1.64604 -4.73654 1.94358 1.66365 
-4.78101 1.92836 1.6815 -4.82516 1.91246 1.69958 -4.86895 1.8959 1.71789 
-4.91238 1.87868 1.73644 -4.95544 1.86081 1.75522 -4.99812 1.84231 1.77423 
-5.0404 1.8232 1.79347 -5.08227 1.80348 1.81294 -5.12372 1.78316 1.83264 
-5.16474 1.76227 1.85256 -5.20534 1.74081 1.8727 -5.24553 1.7188 1.89306 
-5.28531 1.69625 1.91362 -5.32468 1.67318 1.93437 -5.36365 1.6496 1.95532 
-5.40222 1.62553 1.97645 -5.4404 1.60098 1.99775 -5.47819 1.57597 2.01923 
-5.5156 1.55051 2.04086 -5.55263 1.52462 2.06265 -5.58928 1.4983 2.08459 
-5.62557 1.47159 2.10667 -5.66149 1.44448 2.12888 -5.69704 1.41699 2.15122 
-5.73225 1.38915 2.17367 -5.7671 1.36096 2.19624 -5.8016 1.33243 2.21891 
-5.83576 1.30359 2.24168 -5.86958 1.27445 2.26454 -5.90308 1.24502 2.28749 
-5.93625 1.2153 2.3105 -5.9691 1.18531 2.33359 -6.00166 1.15504 2.35672 
-6.03393 1.12452 2.3799 -6.06592 1.09373 2.40312 -6.09763 1.0627 2.42636 
-6.12909 1.03143 2.44962 -6.1603 0.999919 2.47289 -6.19127 0.96818 2.49616 
-6.22201 0.936219 2.51942 -6.25253 0.904043 2.54265 -6.28284 0.871658 2.56586 
-6.31296 0.839071 2.58902 -6.34288 0.806289 2.61214 -6.37263 0.773319 2.6352 
-6.40221 0.740167 2.65819 -6.43164 0.706841 2.6811 -6.46092 0.673347 2.70393 
-6.49006 0.639692 2.72667 -6.51908 0.605881 2.74929 -6.54798 0.571908 2.77178 
-6.5768 0.537767 2.79411 -6.60553 0.503451 2.81626 -6.6342 0.468953 2.83819 
-6.66282 0.434266 2.85988 -6.69141 0.399384 2.88131 -6.71999 0.3643 2.90244 
-6.74857 0.329007 2.92325 -6.77716 0.293498 2.94371 -6.80578 0.257767 2.96379 
-6.83445 0.221806 2.98347 -6.86319 0.185608 3.00272 -6.892 0.149168 3.02151 
-6.92091 0.112477 3.03982 -6.94992 0.0755304 3.05762 -6.97906 0.0383197 3.07488 
-7.00835 0.00083861 3.09158 -7.03779 -0.0369196 3.10768 -7.06741 -0.0749619 3.12316 
-7.09721 -0.113293 3.138 -7.12718 -0.151899 3.15214 -7.15731 -0.190757 3.16554 
-7.18757 -0.229845 3.17813 -7.21794 -0.269139 3.18986 -7.24839 -0.308616 3.20068 
-7.2789 -0.348254 3.21054 -7.30944 -0.38803 3.21938 -7.34001 -0.427921 3.22714 
-7.37056 -0.467903 3.23377 -7.40108 -0.507955 3.23922 -7.43155 -0.548052 3.24343 
-7.46194 -0.588173 3.24635 -7.49224 -0.628294 3.24792 -7.52241 -0.668392 3.24809 
-7.55243 -0.708444 3.2468 -7.58228 -0.748429 3.244 -7.61194 -0.788321 3.23964 
-7.64139 -0.8281 3.23366 -7.6706 -0.867741 3.22601 -7.69955 -0.907222 3.21664 
-7.72822 -0.946527 3.20555 -7.75658 -0.98564 3.1928 -7.78461 -1.02455 3.17844 
-7.81229 -1.06324 3.16254 -7.8396 -1.1017 3.14514 -7.86651 -1.13991 3.12631 
-7.893 -1.17786 3.10609 -7.91905 -1.21554 3.08454 -7.94464 -1.25293 3.06172 
-7.96974 -1.29002 3.03768 -7.99433 -1.3268 3.01248 -8.01839 -1.36325 2.98617 
-8.04189 -1.39936 2.95881 -8.06482 -1.43511 2.93045 -8.08715 -1.47049 2.90115 
-8.10886 -1.50549 2.87096 -8.12992 -1.5401 2.83995 -8.15032 -1.57429 2.80815 
-8.17003 -1.60806 2.77564 -8.18902 -1.64139 2.74246 -8.2073 -1.6743 2.70866 
-8.22488 -1.70679 2.67426 -8.24177 -1.73889 2.63929 -8.25799 -1.77063 2.60378 
-8.27355 -1.80202 2.56776 -8.28847 -1.83309 2.53126 -8.30275 -1.86387 2.4943 
-8.31641 -1.89436 2.45692 -8.32948 -1.9246 2.41914 -8.34195 -1.9546 2.38098 
-8.35384 -1.9844 2.34249 -8.36518 -2.014 2.30368 -8.37597 -2.04344 2.26458 
-8.38622 -2.07273 2.22523 -8.39596 -2.1019 2.18565 -8.40519 -2.13096 2.14586 
-8.41392 -2.15995 2.10591 -8.42218 -2.18888 2.06581 -8.42998 -2.21778 2.02559 
-8.43733 -2.24666 1.98529 -8.44424 -2.27554 1.94492 -8.45071 -2.30444 1.90449 
-8.45675 -2.33336 1.86401 -8.46235 -2.36229 1.82349 -8.46753 -2.39126 1.78294 
-8.47228 -2.42026 1.74237 -8.47661 -2.4493 1.70178 -8.48052 -2.47839 1.66119 
-8.48402 -2.50754 1.6206 -8.48709 -2.53674 1.58002 -8.48976 -2.56601 1.53946 
-8.49201 -2.59535 1.49893 -8.49386 -2.62477 1.45843 -8.49531 -2.65428 1.41798 
-8.49635 -2.68387 1.37759 -8.49699 -2.71356 1.33725 -8.49724 -2.74336 1.29699 
-8.49709 -2.77326 1.2568 -8.49655 -2.80328 1.2167 -8.49563 -2.83342 1.1767 
-8.49431 -2.86369 1.1368 -8.49262 -2.89409 1.09701 -8.49054 -2.92461 1.05734 
-8.48808 -2.95528 1.01779 -8.48524 -2.98608 0.97838 -8.48202 -3.01702 0.939104 
-8.47842 -3.0481 0.899972 -8.47445 -3.07932 0.860991 -8.47011 -3.1107 0.822168 
-8.4654 -3.14222 0.783511 -8.46031 -3.17389 0.745024 -8.45486 -3.20571 0.706716 
-8.44904 -3.23769 0.668592 -8.44285 -3.26983 0.63066 -8.4363 -3.30213 0.592927 
-8.42938 -3.33459 0.555398 -8.42211 -3.36722 0.518081 -8.41448 -3.40002 0.480982 
-8.40648 -3.43298 0.444109 -8.39814 -3.46612 0.407467 -8.38943 -3.49943 0.371064 
-8.38037 -3.53292 0.334901 -8.37096 -3.56656 0.298982 -8.36119 -3.60037 0.263306 
-8.35106 -3.63434 0.227875 -8.34057 -3.66845 0.192691 -8.32972 -3.7027 0.157755 
-8.31852 -3.7371 0.123069 -8.30695 -3.77162 0.0886335 -8.29501 -3.80627 0.0544504 
-8.28272 -3.84105 0.0205209 -8.27006 -3.87593 -0.0131535 -8.25704 -3.91093 -0.0465714 
-8.24364 -3.94603 -0.0797314 -8.22989 -3.98123 -0.112632 -8.21576 -4.01652 -0.145272 
-8.20127 -4.0519 -0.177651 -8.18641 -4.08737 -0.209765 -8.17117 -4.1229 -0.241615 
-8.15557 -4.15851 -0.273199 -8.13959 -4.19418 -0.304515 -8.12324 -4.22991 -0.335569 
-8.10652 -4.26568 -0.36637 -8.08942 -4.30148 -0.396928 -8.07195 -4.3373 -0.427255 
-8.0541 -4.37312 -0.45736 -8.03588 -4.40893 -0.487253 -8.01729 -4.44472 -0.516945 
-7.99832 -4.48047 -0.546447 -7.97898 -4.51618 -0.575768 -7.95926 -4.55182 -0.604918 
-7.93916 -4.58738 -0.633909 -7.91869 -4.62286 -0.662751 -7.89784 -4.65824 -0.691453 
-7.87661 -4.6935 -0.720026 -7.85501 -4.72864 -0.74848 -7.83303 -4.76363 -0.776827 
-7.81067 -4.79847 -0.805075 -7.78793 -4.83315 -0.833236 -7.76481 -4.86764 -0.861319 
-7.74132 -4.90195 -0.889335 -7.71745 -4.93605 -0.917295 -7.69321 -4.96993 -0.945207 
-7.66861 -5.00359 -0.973081 -7.64366 -5.03702 -1.00093 -7.61836 -5.0702 -1.02875 
-7.59273 -5.10313 -1.05657 -7.56678 -5.1358 -1.08439 -7.5405 -5.1682 -1.11222 
-7.51392 -5.20032 -1.14007 -7.48703 -5.23214 -1.16795 -7.45985 -5.26367 -1.19587 
-7.43239 -5.29488 -1.22383 -7.40465 -5.32578 -1.25186 -7.37665 -5.35634 -1.27995 
-7.34838 -5.38657 -1.30812 -7.31986 -5.41645 -1.33638 -7.2911 -5.44597 -1.36473 
-7.26211 -5.47512 -1.39319 -7.23289 -5.5039 -1.42177 -7.20346 -5.53229 -1.45047 
-7.17381 -5.56029 -1.4793 -7.14396 -5.5879 -1.50827 -7.11392 -5.61512 -1.53738 
-7.08368 -5.64197 -1.56664 -7.05325 -5.66846 -1.59603 -7.02265 -5.69458 -1.62557 
-6.99187 -5.72036 -1.65525 -6.96091 -5.74579 -1.68508 -6.9298 -5.77088 -1.71507 
-6.89852 -5.79564 -1.7452 -6.86709 -5.82008 -1.77549 -6.83551 -5.84421 -1.80593 
-6.80379 -5.86802 -1.83653 -6.77193 -5.89154 -1.86729 -6.73994 -5.91476 -1.89822 
-6.70782 -5.9377 -1.9293 -6.67558 -5.96036 -1.96055 -6.64323 -5.98275 -1.99197 
-6.61077 -6.00487 -2.02356 -6.5782 -6.02674 -2.05532 -6.54553 -6.04836 -2.08724 
-6.51278 -6.06974 -2.11933 -6.47994 -6.09088 -2.15155 -6.44703 -6.11179 -2.18388 
-6.41405 -6.13248 -2.2163 -6.38102 -6.15296 -2.24878 -6.34795 -6.17322 -2.28131 
-6.31484 -6.19327 -2.31386 -6.2817 -6.21313 -2.3464 -6.24854 -6.23279 -2.37892 
[...]
CELL_DATA 1
FIELD FieldData 2
Length 1 1 double
63.618783904 
Tortuosity 1 1 double
1.2785843711 
POINT_DATA 1273
SCALARS MaximumInscribedSphereRadius float
LOOKUP_TABLE default
1.3144 1.31156 1.30872 1.30587 1.30303 1.30019 1.29735 1.29451 1.29167 
1.28882 1.28598 1.28314 1.2803 1.27746 1.27462 1.27177 1.26893 1.26609 
1.26325 1.26041 1.25757 1.25626 1.25643 1.2566 1.25676 1.25693 1.25709 
1.25726 1.25742 1.25759 1.25775 1.25792 1.25808 1.25825 1.25841 1.25858 
1.25875 1.25891 1.25908 1.25924 1.25941 1.25821 1.25525 1.2523 1.24935 
1.24639 1.24344 1.24049 1.23753 1.23458 1.23163 1.22867 1.22572 1.22277 
1.21981 1.21686 1.21391 1.21096 1.208 1.20505 1.2021 1.19794 1.18915 
1.18036 1.17157 1.16277 1.15398 1.14519 1.1364 1.1276 1.11881 1.11002 
1.10123 1.09244 1.08364 1.07485 1.06606 1.05727 1.04847 1.03968 1.03089 
1.0221 1.05127 1.08192 1.11256 1.1432 1.17384 1.20448 1.23513 1.26577 
1.29641 1.32705 1.3577 1.38834 1.41898 1.44962 1.48026 1.51091 1.54155 
1.57219 1.60283 1.63348 1.62996 1.61457 1.59918 1.58379 1.56839 1.553 
1.53761 1.52222 1.50683 1.49144 1.47605 1.46066 1.44526 1.42987 1.41448 
1.39909 1.3837 1.36831 1.35292 1.33753 1.32111 1.30379 1.28647 1.26914 
1.25182 1.2345 1.21717 1.19985 1.18253 1.1652 1.14788 1.13056 1.11323 
1.09591 1.07859 1.06126 1.04394 1.02662 1.00929 0.991971 0.980078 0.981751 
0.983423 0.985096 0.986768 0.988441 0.990114 0.991786 0.993459 0.995131 0.996804 
0.998477 1.00015 1.00182 1.00349 1.00517 1.00684 1.00851 1.01018 1.01186 
1.01378 1.02924 1.0447 1.06017 1.07563 1.09109 1.10656 1.12202 1.13748 
1.15295 1.16841 1.18387 1.19934 1.2148 1.23026 1.24573 1.26119 1.27665 
1.29212 1.30758 1.32304 1.31721 1.30452 1.29183 1.27914 1.26645 1.25375 
1.24106 1.22837 1.21568 1.20299 1.1903 1.17761 1.16491 1.15222 1.13953 
1.12684 1.11415 1.10146 1.08877 1.07608 1.06605 1.05771 1.04937 1.04103 
1.03268 1.02434 1.016 1.00766 0.999323 0.990983 0.982642 0.974302 0.965962 
0.957621 0.949281 0.94094 0.9326 0.92426 0.915919 0.907579 0.9124 0.928931 
0.945462 0.961993 0.978524 0.995055 1.01159 1.02812 1.04465 1.06118 1.07771 
1.09424 1.11077 1.1273 1.14383 1.16037 1.1769 1.19343 1.20996 1.22649 
1.24143 1.2525 1.26356 1.27462 1.28568 1.29675 1.30781 1.31887 1.32994 
1.341 1.35206 1.36312 1.37419 1.38525 1.39631 1.40738 1.41844 1.4295 
1.44056 1.45163 1.46205 1.45176 1.44147 1.43118 1.42088 1.41059 1.4003 
1.39001 1.37971 1.36942 1.35913 1.34883 1.33854 1.32825 1.31796 1.30766 
1.29737 1.28708 1.27679 1.26649 1.2562 1.25331 1.25263 1.25195 1.25126 
1.25058 1.2499 1.24921 1.24853 1.24785 1.24716 1.24648 1.2458 1.24511 
1.24443 1.24375 1.24307 1.24238 1.2417 1.24102 1.24033 1.24501 1.25476 
1.2645 1.27425 1.284 1.29375 1.3035 1.31325 1.323 1.33275 1.3425 
1.35225 1.362 1.37175 1.3815 1.39125 1.401 1.41074 1.42049 1.43024 
1.43773 1.4385 1.43927 1.44005 1.44082 1.44159 1.44237 1.44314 1.44391 
1.44469 1.44546 1.44623 1.44701 1.44778 1.44855 1.44933 1.4501 1.45087 
1.45165 1.45242 1.45319 1.44557 1.43788 1.4302 1.42252 1.41483 1.40715 
1.39947 1.39178 1.3841 1.37641 1.36873 1.36105 1.35336 1.34568 1.338 
1.33031 1.32263 1.31494 1.30726 1.29958 1.30789 1.32213 1.33637 1.35061 
1.36485 1.37909 1.39333 1.40757 1.42181 1.43605 1.45029 1.46453 1.47877 
1.49301 1.50725 1.52149 1.53573 1.54997 1.56421 1.57845 1.58152 1.57127 
1.56101 1.55075 1.54049 1.53024 1.51998 1.50972 1.49947 1.48921 1.47895 
1.46869 1.45844 1.44818 1.43792 1.42767 1.41741 1.40715 1.39689 1.38664 
1.37897 1.38249 1.386 1.38952 1.39303 1.39655 1.40007 1.40358 1.4071 
1.41061 1.41413 1.41765 1.42116 1.42468 1.42819 1.43171 1.43522 1.43874 
1.44226 1.44577 1.44929 1.44547 1.44151 1.43754 1.43357 1.4296 1.42564 
1.42167 1.4177 1.41373 1.40977 1.4058 1.40183 1.39786 1.3939 1.38993 
1.38596 1.38199 1.37756 1.37157 1.36558 1.35959 1.35361 1.34762 1.34163 
1.33564 1.32966 1.32367 1.31768 1.31169 1.3057 1.29972 1.29373 1.28774 
1.28175 1.27576 1.26978 1.26379 1.25916 1.26569 1.27222 1.27875 1.28528 
1.2918 1.29833 1.30486 1.31139 1.31792 1.32445 1.33098 1.33751 1.34404 
1.35057 1.3571 1.36363 1.37016 1.37669 1.38321 1.38974 1.40046 1.41184 
1.42322 1.4346 1.44598 1.45736 1.46874 1.48012 1.4915 1.50289 1.51427 
1.52565 1.53703 1.54841 1.55979 1.57117 1.58255 1.59393 1.60531 1.61669 
1.62583 1.63364 1.64144 1.64924 1.65705 1.66485 1.67265 1.68046 1.68826 
1.69606 1.70387 1.71167 1.71948 1.72728 1.73508 1.74289 1.75069 1.75849 
1.7663 1.7741 1.77095 1.75058 1.73021 1.70985 1.68948 1.66911 1.64875 
1.62838 1.60801 1.58765 1.56728 1.54692 1.52655 1.50618 1.48582 1.46545 
1.44508 1.42472 1.40435 1.38398 1.36743 1.37187 1.3763 1.38074 1.38517 
1.38961 1.39404 1.39848 1.40291 1.40735 1.41178 1.41622 1.42065 1.42509 
1.42952 1.43396 1.43839 1.44283 1.44726 1.4517 1.45614 1.46084 1.46554 
1.47024 1.47494 1.47964 1.48434 1.48904 1.49374 1.49844 1.50314 1.50784 
1.51254 1.51724 1.52194 1.52664 1.53134 1.53604 1.54074 1.54544 1.54973 
1.54096 1.53219 1.52342 1.51465 1.50588 1.49711 1.48833 1.47956 1.47079 
1.46202 1.45325 1.44448 1.43571 1.42694 1.41816 1.40939 1.40062 1.39185 
1.38308 1.3746 1.37501 1.37542 1.37583 1.37623 1.37664 1.37705 1.37746 
1.37787 1.37827 1.37868 1.37909 1.3795 1.37991 1.38031 1.38072 1.38113 
1.38154 1.38194 1.38235 1.38276 1.38696 1.39115 1.39534 1.39953 1.40373 
1.40792 1.41211 1.41631 1.4205 1.42469 1.42888 1.43308 1.43727 1.44146 
1.44566 1.44985 1.45404 1.45824 1.46243 1.46662 1.45918 1.44888 1.43857 
1.42827 1.41797 1.40766 1.39736 1.38705 1.37675 1.36645 1.35614 1.34584 
1.33553 1.32523 1.31492 1.30462 1.29432 1.28401 1.27371 1.2634 1.25582 
1.25058 1.24534 1.2401 1.23486 1.22962 1.22438 1.21914 1.2139 1.20866 
1.20343 1.19819 1.19295 1.18771 1.18247 1.17723 1.17199 1.16675 1.16151 
1.15627 1.15536 1.16618 1.177 1.18782 1.19864 1.20946 1.22029 1.23111 
1.24193 1.25275 1.26357 1.27439 1.28521 1.29604 1.30686 1.31768 1.3285 
1.33932 1.35014 1.36097 1.37187 1.38519 1.39852 1.41185 1.42518 1.4385 
1.45183 1.46516 1.47849 1.49182 1.50514 1.51847 1.5318 1.54513 1.55846 
1.57178 1.58511 1.59844 1.61177 1.6251 1.63842 1.63843 1.63501 1.63158 
1.62816 1.62474 1.62132 1.61789 1.61447 1.61105 1.60763 1.6042 1.60078 
1.59736 1.59394 1.59051 1.58709 1.58367 1.58025 1.57682 1.5734 1.57789 
1.58879 1.59969 1.61058 1.62148 1.63238 1.64328 1.65418 1.66507 1.67597 
1.68687 1.69777 1.70867 1.71956 1.73046 1.74136 1.75226 1.76316 1.77405 
1.78495 1.7902 1.78398 1.77776 1.77154 1.76533 1.75911 1.75289 1.74668 
1.74046 1.73424 1.72803 1.72181 1.71559 1.70937 1.70316 1.69694 1.69072 
1.68451 1.67829 1.67207 1.66593 1.66014 1.65436 1.64858 1.6428 1.63701 
1.63123 1.62545 1.61967 1.61389 1.6081 1.60232 1.59654 1.59076 1.58497 
1.57919 1.57341 1.56763 1.56184 1.55606 1.55028 1.54716 1.54419 1.54121 
1.53823 1.53525 1.53227 1.52929 1.52631 1.52333 1.52035 1.51737 1.51439 
1.51141 1.50843 1.50545 1.50247 1.49949 1.49651 1.49353 1.49055 1.48377 
1.47528 1.46679 1.4583 1.44981 1.44132 1.43284 1.42435 1.41586 1.40737 
1.39888 1.39039 1.3819 1.37341 1.36492 1.35643 1.34794 1.33945 1.33097 
1.32248 1.3206 1.32803 1.33547 1.3429 1.35034 1.35777 1.36521 1.37264 
1.38008 1.38751 1.39495 1.40239 1.40982 1.41726 1.42469 1.43213 1.43956 
1.447 1.45443 1.46187 1.46921 1.47594 1.48268 1.48941 1.49614 1.50288 
1.50961 1.51635 1.52308 1.52982 1.53655 1.54328 1.55002 1.55675 1.56349 
1.57022 1.57695 1.58369 1.59042 1.59716 1.60389 1.6094 1.61472 1.62004 
1.62535 1.63067 1.63598 1.6413 1.64662 1.65193 1.65725 1.66257 1.66788 
1.6732 1.67851 1.68383 1.68915 1.69446 1.69978 1.70509 1.71041 1.71621 
1.72234 1.72848 1.73462 1.74075 1.74689 1.75302 1.75916 1.7653 1.77143 
1.77757 1.7837 1.78984 1.79597 1.80211 1.80825 1.81438 1.82052 1.82665 
1.83279 1.83522 1.82935 1.82348 1.81761 1.81174 1.80587 1.8 1.79413 
1.78826 1.7824 1.77653 1.77066 1.76479 1.75892 1.75305 1.74718 1.74131 
1.73544 1.72957 1.7237 1.71785 1.71241 1.70697 1.70153 1.69609 1.69065 
1.68521 1.67977 1.67433 1.66889 1.66345 1.65801 1.65256 1.64712 1.64168 
1.63624 1.6308 1.62536 1.61992 1.61448 1.60904 1.61426 1.62239 1.63053 
1.63867 1.64681 1.65494 1.66308 1.67122 1.67936 1.68749 1.69563 1.70377 
1.71191 1.72004 1.72818 1.73632 1.74445 1.75259 1.76073 1.76887 1.78249 
1.80014 1.8178 1.83545 1.8531 1.87075 1.8884 1.90606 1.92371 1.94136 
1.95901 1.97667 1.99432 2.01197 2.02962 2.04728 2.06493 2.08258 2.10023 
2.11788 2.11902 2.09438 2.06975 2.04512 2.02048 1.99585 1.97122 1.94659 
1.92195 1.89732 1.87269 1.84805 1.82342 1.79879 1.77416 1.74952 1.72489 
1.70026 1.67562 1.65099 1.62988 1.6259 1.62192 1.61794 1.61397 1.60999 
1.60601 1.60203 1.59805 1.59407 1.59009 1.58611 1.58213 1.57816 1.57418 
1.5702 1.56622 1.56224 1.55826 1.55428 1.5503 1.54548 1.5406 1.53571 
1.53082 1.52593 1.52104 1.51615 1.51126 1.50637 1.50149 1.4966 1.49171 
1.48682 1.48193 1.47704 1.47215 1.46726 1.46238 1.45749 1.4526 1.4479 
1.4433 1.43871 1.43411 1.42951 1.42492 1.42032 1.41572 1.41112 1.40653 
1.40193 1.39733 1.39274 1.38814 1.38354 1.37894 1.37435 1.36975 1.36515 
1.36056 1.3616 1.37149 1.38137 1.39126 1.40114 1.41103 1.42091 1.4308 
1.44068 1.45057 1.46045 1.47034 1.48022 1.49011 1.49999 1.50988 1.51976 
1.52965 1.53953 1.54942 1.55815 1.55822 1.5583 1.55837 1.55844 1.55852 
1.55859 1.55867 1.55874 1.55881 1.55889 1.55896 1.55904 1.55911 1.55918 
1.55926 1.55933 1.55941 1.55948 1.55955 1.55963 1.57092 1.58434 1.59776 
1.61118 1.6246 1.63801 1.65143 1.66485 1.67827 1.69169 1.70511 1.71853 
1.73195 1.74536 1.75878 1.7722 1.78562 1.79904 1.81246 1.82588 1.84114 
1.85782 1.87451 1.89119 1.90787 1.92456 1.94124 1.95792 1.97461 1.99129 
2.00797 2.02465 2.04134 2.05802 2.0747 2.09139 2.10807 2.12475 2.14144 
2.15812 2.16996 2.16981 2.16966 2.16951 2.16936 2.16921 2.16906 2.16891 
2.16877 2.16862 2.16847 2.16832 2.16817 2.16802 2.16787 2.16772 2.16757 
2.16743 2.16728 2.16713 2.16673 2.14476 2.1228 2.10083 2.07886 2.0569 
2.03493 2.01296 1.991 1.96903 1.94706 1.9251 1.90313 1.88117 1.8592 
1.83723 1.81527 1.7933 1.77133 1.74937 1.7274 1.7097 1.69352 1.67733 
1.66114 1.64495 1.62876 1.61258 1.59639 1.5802 1.56401 1.54782 1.53164 
1.51545 1.49926 1.48307 1.46688 1.4507 1.43451 1.41832 1.40213 1.39464 
1.39561 1.39658 1.39755 1.39852 1.39949 1.40047 1.40144 1.40241 1.40338 
1.40435 1.40532 1.40629 1.40726 1.40823 1.4092 1.41017 1.41114 1.41211 
1.41308 1.42357 1.44539 1.46722 1.48904 1.51086 1.53268 1.5545 1.57632 
1.59814 1.61997 1.64179 1.66361 1.68543 1.70725 1.72907 1.75089 1.77271 
1.79454 1.81636 1.83818 1.86 
TEXTURE_COORDINATES TCoords 2 float
0 0 0.000786163 0 0.00157233 0 0.00235849 0 0.00314465 
0 0.00393082 0 0.00471698 0 0.00550314 0 0.00628931 0 
0.00707547 0 0.00786164 0 0.0086478 0 0.00943396 0 0.0102201 
0 0.0110063 0 0.0117925 0 0.0125786 0 0.0133648 0 
0.0141509 0 0.0149371 0 0.0157233 0 0.0165094 0 0.0172956 
0 0.0180818 0 0.0188679 0 0.0196541 0 0.0204403 0 
0.0212264 0 0.0220126 0 0.0227987 0 0.0235849 0 0.0243711 
0 0.0251572 0 0.0259434 0 0.0267296 0 0.0275157 0 
0.0283019 0 0.0290881 0 0.0298742 0 0.0306604 0 0.0314465 
0 0.0322327 0 0.0330189 0 0.033805 0 0.0345912 0 
0.0353774 0 0.0361635 0 0.0369497 0 0.0377358 0 0.038522 
0 0.0393082 0 0.0400943 0 0.0408805 0 0.0416667 0 
0.0424528 0 0.043239 0 0.0440252 0 0.0448113 0 0.0455975 
0 0.0463836 0 0.0471698 0 0.047956 0 0.0487421 0 
0.0495283 0 0.0503145 0 0.0511006 0 0.0518868 0 0.052673 
0 0.0534591 0 0.0542453 0 0.0550314 0 0.0558176 0 
0.0566038 0 0.0573899 0 0.0581761 0 0.0589623 0 0.0597484 
0 0.0605346 0 0.0613208 0 0.0621069 0 0.0628931 0 
0.0636792 0 0.0644654 0 0.0652516 0 0.0660377 0 0.0668239 
0 0.0676101 0 0.0683962 0 0.0691824 0 0.0699686 0 
0.0707547 0 0.0715409 0 0.072327 0 0.0731132 0 0.0738994 
0 0.0746855 0 0.0754717 0 0.0762579 0 0.077044 0 
0.0778302 0 0.0786164 0 0.0794025 0 0.0801887 0 0.0809748 
0 0.081761 0 0.0825472 0 0.0833333 0 0.0841195 0 
0.0849057 0 0.0856918 0 0.086478 0 0.0872642 0 0.0880503 
0 0.0888365 0 0.0896226 0 0.0904088 0 0.091195 0 
0.0919811 0 0.0927673 0 0.0935535 0 0.0943396 0 0.0951258 
0 0.0959119 0 0.0966981 0 0.0974843 0 0.0982704 0 
0.0990566 0 0.0998428 0 0.100629 0 0.101415 0 0.102201 
0 0.102987 0 0.103774 0 0.10456 0 0.105346 0 
0.106132 0 0.106918 0 0.107704 0 0.108491 0 0.109277 
0 0.110063 0 0.110849 0 0.111635 0 0.112421 0 
0.113208 0 0.113994 0 0.11478 0 0.115566 0 0.116352 
0 0.117138 0 0.117925 0 0.118711 0 0.119497 0 
0.120283 0 0.121069 0 0.121855 0 0.122642 0 0.123428 
0 0.124214 0 0.125 0 0.125786 0 0.126572 0 
0.127358 0 0.128145 0 0.128931 0 0.129717 0 0.130503 
0 0.131289 0 0.132075 0 0.132862 0 0.133648 0 
0.134434 0 0.13522 0 0.136006 0 0.136792 0 0.137579 
0 0.138365 0 0.139151 0 0.139937 0 0.140723 0 
0.141509 0 0.142296 0 0.143082 0 0.143868 0 0.144654 
0 0.14544 0 0.146226 0 0.147013 0 0.147799 0 
0.148585 0 0.149371 0 0.150157 0 0.150943 0 0.15173 
0 0.152516 0 0.153302 0 0.154088 0 0.154874 0 
0.15566 0 0.156447 0 0.157233 0 0.158019 0 0.158805 
0 0.159591 0 0.160377 0 0.161164 0 0.16195 0 
0.162736 0 0.163522 0 0.164308 0 0.165094 0 0.165881 
0 0.166667 0 0.167453 0 0.168239 0 0.169025 0 
0.169811 0 0.170597 0 0.171384 0 0.17217 0 0.172956 
0 0.173742 0 0.174528 0 0.175314 0 0.176101 0 
0.176887 0 0.177673 0 0.178459 0 0.179245 0 0.180031 
0 0.180818 0 0.181604 0 0.18239 0 0.183176 0 
0.183962 0 0.184748 0 0.185535 0 0.186321 0 0.187107 
0 0.187893 0 0.188679 0 0.189465 0 0.190252 0 
0.191038 0 0.191824 0 0.19261 0 0.193396 0 0.194182 
0 0.194969 0 0.195755 0 0.196541 0 0.197327 0 
0.198113 0 0.198899 0 0.199686 0 0.200472 0 0.201258 
0 0.202044 0 0.20283 0 0.203616 0 0.204403 0 
0.205189 0 0.205975 0 0.206761 0 0.207547 0 0.208333 
0 0.209119 0 0.209906 0 0.210692 0 0.211478 0 
0.212264 0 0.21305 0 0.213836 0 0.214623 0 0.215409 
0 0.216195 0 0.216981 0 0.217767 0 0.218553 0 
0.21934 0 0.220126 0 0.220912 0 0.221698 0 0.222484 
0 0.22327 0 0.224057 0 0.224843 0 0.225629 0 
0.226415 0 0.227201 0 0.227987 0 0.228774 0 0.22956 
0 0.230346 0 0.231132 0 0.231918 0 0.232704 0 
0.233491 0 0.234277 0 0.235063 0 0.235849 0 0.236635 
0 0.237421 0 0.238208 0 0.238994 0 0.23978 0 
0.240566 0 0.241352 0 0.242138 0 0.242925 0 0.243711 
0 0.244497 0 0.245283 0 0.246069 0 0.246855 0 
0.247642 0 0.248428 0 0.249214 0 0.25 0 0.250786 
0 0.251572 0 0.252358 0 0.253145 0 0.253931 0 
0.254717 0 0.255503 0 0.256289 0 0.257075 0 0.257862 
0 0.258648 0 0.259434 0 0.26022 0 0.261006 0 
0.261792 0 0.262579 0 0.263365 0 0.264151 0 0.264937 
0 0.265723 0 0.266509 0 0.267296 0 0.268082 0 
0.268868 0 0.269654 0 0.27044 0 0.271226 0 0.272013 
0 0.272799 0 0.273585 0 0.274371 0 0.275157 0 
0.275943 0 0.27673 0 0.277516 0 0.278302 0 0.279088 
0 0.279874 0 0.28066 0 0.281447 0 0.282233 0 
0.283019 0 0.283805 0 0.284591 0 0.285377 0 0.286164 
0 0.28695 0 0.287736 0 0.288522 0 0.289308 0 
0.290094 0 0.290881 0 0.291667 0 0.292453 0 0.293239 
0 0.294025 0 0.294811 0 0.295597 0 0.296384 0 
0.29717 0 0.297956 0 0.298742 0 0.299528 0 0.300314 
0 0.301101 0 0.301887 0 0.302673 0 0.303459 0 
0.304245 0 0.305031 0 0.305818 0 0.306604 0 0.30739 
0 0.308176 0 0.308962 0 0.309748 0 0.310535 0 
0.311321 0 0.312107 0 0.312893 0 0.313679 0 0.314465 
0 0.315252 0 0.316038 0 0.316824 0 0.31761 0 
0.318396 0 0.319182 0 0.319969 0 0.320755 0 0.321541 
0 0.322327 0 0.323113 0 0.323899 0 0.324686 0 
0.325472 0 0.326258 0 0.327044 0 0.32783 0 0.328616 
0 0.329403 0 0.330189 0 0.330975 0 0.331761 0 
0.332547 0 0.333333 0 0.334119 0 0.334906 0 0.335692 
0 0.336478 0 0.337264 0 0.33805 0 0.338836 0 
0.339623 0 0.340409 0 0.341195 0 0.341981 0 0.342767 
0 0.343553 0 0.34434 0 0.345126 0 0.345912 0 
0.346698 0 0.347484 0 0.34827 0 0.349057 0 0.349843 
0 0.350629 0 0.351415 0 0.352201 0 0.352987 0 
0.353774 0 0.35456 0 0.355346 0 0.356132 0 0.356918 
0 0.357704 0 0.358491 0 0.359277 0 0.360063 0 
0.360849 0 0.361635 0 0.362421 0 0.363208 0 0.363994 
0 0.36478 0 0.365566 0 0.366352 0 0.367138 0 
0.367925 0 0.368711 0 0.369497 0 0.370283 0 0.371069 
0 0.371855 0 0.372642 0 0.373428 0 0.374214 0 
0.375 0 0.375786 0 0.376572 0 0.377358 0 0.378145 
0 0.378931 0 0.379717 0 0.380503 0 0.381289 0 
0.382075 0 0.382862 0 0.383648 0 0.384434 0 0.38522 
0 0.386006 0 0.386792 0 0.387579 0 0.388365 0 
0.389151 0 0.389937 0 0.390723 0 0.391509 0 0.392296 
0 0.393082 0 0.393868 0 0.394654 0 0.39544 0 
0.396226 0 0.397013 0 0.397799 0 0.398585 0 0.399371 
0 0.400157 0 0.400943 0 0.40173 0 0.402516 0 
0.403302 0 0.404088 0 0.404874 0 0.40566 0 0.406447 
0 0.407233 0 0.408019 0 0.408805 0 0.409591 0 
0.410377 0 0.411164 0 0.41195 0 0.412736 0 0.413522 
0 0.414308 0 0.415094 0 0.415881 0 0.416667 0 
0.417453 0 0.418239 0 0.419025 0 0.419811 0 0.420597 
0 0.421384 0 0.42217 0 0.422956 0 0.423742 0 
0.424528 0 0.425314 0 0.426101 0 0.426887 0 0.427673 
0 0.428459 0 0.429245 0 0.430031 0 0.430818 0 
0.431604 0 0.43239 0 0.433176 0 0.433962 0 0.434748 
0 0.435535 0 0.436321 0 0.437107 0 0.437893 0 
0.438679 0 0.439465 0 0.440252 0 0.441038 0 0.441824 
0 0.44261 0 0.443396 0 0.444182 0 0.444969 0 
0.445755 0 0.446541 0 0.447327 0 0.448113 0 0.448899 
0 0.449686 0 0.450472 0 0.451258 0 0.452044 0 
0.45283 0 0.453616 0 0.454403 0 0.455189 0 0.455975 
0 0.456761 0 0.457547 0 0.458333 0 0.459119 0 
0.459906 0 0.460692 0 0.461478 0 0.462264 0 0.46305 
0 0.463836 0 0.464623 0 0.465409 0 0.466195 0 
0.466981 0 0.467767 0 0.468553 0 0.46934 0 0.470126 
0 0.470912 0 0.471698 0 0.472484 0 0.47327 0 
0.474057 0 0.474843 0 0.475629 0 0.476415 0 0.477201 
0 0.477987 0 0.478774 0 0.47956 0 0.480346 0 
0.481132 0 0.481918 0 0.482704 0 0.483491 0 0.484277 
0 0.485063 0 0.485849 0 0.486635 0 0.487421 0 
0.488208 0 0.488994 0 0.48978 0 0.490566 0 0.491352 
0 0.492138 0 0.492925 0 0.493711 0 0.494497 0 
0.495283 0 0.496069 0 0.496855 0 0.497642 0 0.498428 
0 0.499214 0 0.5 0 0.500786 0 0.501572 0 
0.502358 0 0.503145 0 0.503931 0 0.504717 0 0.505503 
0 0.506289 0 0.507075 0 0.507862 0 0.508648 0 
0.509434 0 0.51022 0 0.511006 0 0.511792 0 0.512579 
0 0.513365 0 0.514151 0 0.514937 0 0.515723 0 
0.516509 0 0.517296 0 0.518082 0 0.518868 0 0.519654 
0 0.52044 0 0.521226 0 0.522013 0 0.522799 0 
0.523585 0 0.524371 0 0.525157 0 0.525943 0 0.52673 
0 0.527516 0 0.528302 0 0.529088 0 0.529874 0 
0.53066 0 0.531447 0 0.532233 0 0.533019 0 0.533805 
0 0.534591 0 0.535377 0 0.536164 0 0.53695 0 
0.537736 0 0.538522 0 0.539308 0 0.540094 0 0.540881 
0 0.541667 0 0.542453 0 0.543239 0 0.544025 0 
0.544811 0 0.545597 0 0.546384 0 0.54717 0 0.547956 
0 0.548742 0 0.549528 0 0.550314 0 0.551101 0 
0.551887 0 0.552673 0 0.553459 0 0.554245 0 0.555031 
0 0.555818 0 0.556604 0 0.55739 0 0.558176 0 
0.558962 0 0.559748 0 0.560535 0 0.561321 0 0.562107 
0 0.562893 0 0.563679 0 0.564465 0 0.565252 0 
0.566038 0 0.566824 0 0.56761 0 0.568396 0 0.569182 
0 0.569969 0 0.570755 0 0.571541 0 0.572327 0 
0.573113 0 0.573899 0 0.574686 0 0.575472 0 0.576258 
0 0.577044 0 0.57783 0 0.578616 0 0.579403 0 
0.580189 0 0.580975 0 0.581761 0 0.582547 0 0.583333 
0 0.584119 0 0.584906 0 0.585692 0 0.586478 0 
0.587264 0 0.58805 0 0.588836 0 0.589623 0 0.590409 
0 0.591195 0 0.591981 0 0.592767 0 0.593553 0 
0.59434 0 0.595126 0 0.595912 0 0.596698 0 0.597484 
0 0.59827 0 0.599057 0 0.599843 0 0.600629 0 
0.601415 0 0.602201 0 0.602987 0 0.603774 0 0.60456 
0 0.605346 0 0.606132 0 0.606918 0 0.607704 0 
0.608491 0 0.609277 0 0.610063 0 0.610849 0 0.611635 
0 0.612421 0 0.613208 0 0.613994 0 0.61478 0 
0.615566 0 0.616352 0 0.617138 0 0.617925 0 0.618711 
0 0.619497 0 0.620283 0 0.621069 0 0.621855 0 
0.622642 0 0.623428 0 0.624214 0 0.625 0 0.625786 
0 0.626572 0 0.627358 0 0.628145 0 0.628931 0 
0.629717 0 0.630503 0 0.631289 0 0.632075 0 0.632862 
0 0.633648 0 0.634434 0 0.63522 0 0.636006 0 
0.636792 0 0.637579 0 0.638365 0 0.639151 0 0.639937 
0 0.640723 0 0.641509 0 0.642296 0 0.643082 0 
0.643868 0 0.644654 0 0.64544 0 0.646226 0 0.647013 
0 0.647799 0 0.648585 0 0.649371 0 0.650157 0 
0.650943 0 0.65173 0 0.652516 0 0.653302 0 0.654088 
0 0.654874 0 0.65566 0 0.656447 0 0.657233 0 
0.658019 0 0.658805 0 0.659591 0 0.660377 0 0.661164 
0 0.66195 0 0.662736 0 0.663522 0 0.664308 0 