# vtk DataFile Version 4.2
vtk output
ASCII
DATASET POLYDATA
POINTS 1275 float
0 0 0 -0.000731332 0.00385462 -0.00162299 -0.00289608 0.0150875 -0.00631784 
-0.00645039 0.0332021 -0.0138234 -0.0113504 0.0577019 -0.0238784 -0.0175522 0.0880905 -0.0362217 
-0.025012 0.123871 -0.0505921 -0.0336858 0.164548 -0.0667284 -0.0435299 0.209624 -0.0843695 
-0.0545003 0.258602 -0.103254 -0.0665532 0.310987 -0.123121 -0.0796448 0.366281 -0.143709 
-0.0937311 0.423988 -0.164758 -0.108768 0.483613 -0.186005 -0.124712 0.544657 -0.207189 
-0.14152 0.606625 -0.22805 -0.159146 0.66902 -0.248327 -0.177549 0.731346 -0.267757 
-0.196682 0.793106 -0.286081 -0.216503 0.853804 -0.303036 -0.236969 0.912943 -0.318361 
-0.258035 0.970052 -0.331811 -0.279685 1.025 -0.343329 -0.301915 1.07789 -0.352995 
-0.324721 1.12883 -0.360889 -0.348103 1.17793 -0.367093 -0.372056 1.2253 -0.371687 
-0.39658 1.27105 -0.374752 -0.42167 1.31528 -0.37637 -0.447325 1.35811 -0.376621 
-0.473542 1.39964 -0.375587 -0.500318 1.43999 -0.373349 -0.527651 1.47925 -0.369987 
-0.555539 1.51754 -0.365584 -0.583978 1.55497 -0.360219 -0.612966 1.59165 -0.353973 
-0.642501 1.62769 -0.346929 -0.67258 1.66318 -0.339167 -0.703201 1.69825 -0.330768 
-0.73436 1.73301 -0.321813 -0.766056 1.76755 -0.312383 -0.798286 1.80198 -0.302556 
-0.831039 1.83634 -0.292366 -0.864303 1.87058 -0.28181 -0.898062 1.90466 -0.270885 
-0.932302 1.93854 -0.259585 -0.96701 1.97219 -0.247909 -1.00217 2.00556 -0.235852 
-1.03777 2.03862 -0.223411 -1.07379 2.07133 -0.210581 -1.11022 2.10364 -0.19736 
-1.14704 2.13553 -0.183743 -1.18425 2.16694 -0.169727 -1.22182 2.19784 -0.155309 
-1.25975 2.22819 -0.140483 -1.29801 2.25796 -0.125248 -1.33659 2.2871 -0.109599 
-1.37548 2.31557 -0.0935317 -1.41467 2.34333 -0.0770436 -1.45414 2.37035 -0.0601306 
-1.49387 2.39659 -0.0427891 -1.53385 2.422 -0.0250155 -1.57408 2.44657 -0.00681337 
-1.61453 2.4703 0.0118038 -1.65521 2.49318 0.0308219 -1.69611 2.51523 0.0502269 
-1.73722 2.53643 0.0700048 -1.77853 2.55681 0.0901414 -1.82004 2.57635 0.110623 
-1.86174 2.59506 0.131435 -1.90363 2.61294 0.152563 -1.94568 2.63 0.173994 
-1.98791 2.64624 0.195713 -2.0303 2.66166 0.217707 -2.07284 2.67626 0.23996 
-2.11553 2.69005 0.26246 -2.15836 2.70302 0.285192 -2.20133 2.71518 0.308142 
-2.24442 2.72654 0.331296 -2.28762 2.73709 0.35464 -2.33095 2.74683 0.378159 
-2.37437 2.75578 0.401841 -2.41789 2.76392 0.425671 -2.46149 2.77126 0.449644 
-2.50516 2.77779 0.473752 -2.54888 2.78349 0.49799 -2.59263 2.78836 0.522349 
-2.63641 2.7924 0.546824 -2.68019 2.79559 0.571408 -2.72395 2.79794 0.596095 
-2.7677 2.79942 0.620877 -2.8114 2.80004 0.645748 -2.85504 2.79978 0.670701 
-2.89862 2.79864 0.695731 -2.9421 2.79662 0.720829 -2.98549 2.7937 0.74599 
-3.02876 2.78987 0.771207 -3.07189 2.78514 0.796473 -3.11488 2.77949 0.821782 
-3.1577 2.77291 0.847127 -3.20035 2.7654 0.872501 -3.2428 2.75696 0.897898 
-3.28504 2.74756 0.923311 -3.32707 2.73724 0.948736 -3.36886 2.72599 0.974167 
-3.4104 2.71383 0.999602 -3.45169 2.70079 1.02503 -3.4927 2.68686 1.05046 
-3.53344 2.67207 1.07588 -3.57388 2.65643 1.10128 -3.61401 2.63995 1.12666 
-3.65383 2.62265 1.15202 -3.69332 2.60454 1.17735 -3.73246 2.58563 1.20265 
-3.77125 2.56594 1.22791 -3.80968 2.54549 1.25313 -3.84772 2.52428 1.2783 
-3.88538 2.50233 1.30342 -3.92263 2.47966 1.32849 -3.95947 2.45628 1.3535 
-3.99588 2.43219 1.37844 -4.03185 2.40743 1.40332 -4.06737 2.38199 1.42813 
-4.10244 2.3559 1.45286 -4.13706 2.32918 1.47751 -4.17123 2.30184 1.50209 
-4.20496 2.27389 1.52658 -4.23824 2.24536 1.551 -4.27109 2.21626 1.57533 
-4.30351 2.18662 1.59957 -4.33549 2.15644 1.62373 -4.36704 2.12574 1.6478 
-4.39817 2.09455 1.67178 -4.42887 2.06288 1.69567 -4.45915 2.03074 1.71946 
-4.48901 1.99816 1.74316 -4.51845 1.96515 1.76676 -4.54749 1.93173 1.79026 
-4.57611 1.89791 1.81366 -4.60432 1.86372 1.83695 -4.63214 1.82916 1.86014 
-4.65955 1.79427 1.88323 -4.68656 1.75904 1.90621 -4.71318 1.72351 1.92908 
-4.73942 1.68766 1.95183 -4.76528 1.65149 1.97447 -4.79079 1.61502 1.99699 
-4.81595 1.57824 2.0194 -4.84076 1.54115 2.04168 -4.86525 1.50376 2.06383 
-4.88942 1.46606 2.08586 -4.91327 1.42807 2.10775 -4.93683 1.38977 2.12951 
-4.96011 1.35118 2.15114 -4.9831 1.31229 2.17263 -5.00583 1.2731 2.19398 
-5.0283 1.23363 2.21519 -5.05052 1.19386 2.23625 -5.07251 1.1538 2.25716 
-5.09427 1.11346 2.27792 -5.11582 1.07283 2.29853 -5.13717 1.03191 2.31898 
-5.15832 0.990716 2.33928 -5.17928 0.94924 2.35939 -5.20006 0.907486 2.37926 
-5.22067 0.865456 2.3988 -5.2411 0.823152 2.41796 -5.26136 0.780578 2.43665 
-5.28146 0.737735 2.45481 -5.3014 0.694626 2.47236 -5.32118 0.651252 2.48922 
-5.34081 0.607617 2.50534 -5.36029 0.563722 2.52063 -5.37963 0.51957 2.53502 
-5.39882 0.475163 2.54845 -5.41788 0.430503 2.56083 -5.4368 0.385594 2.5721 
-5.4556 0.340436 2.58218 -5.47427 0.295032 2.591 -5.49282 0.249386 2.5985 
-5.51126 0.203498 2.60459 -5.52958 0.157371 2.60921 -5.54779 0.111008 2.61227 
-5.5659 0.0644172 2.61374 -5.58388 0.0176341 2.61361 -5.60171 -0.0292977 2.61191 
-5.61937 -0.0763346 2.60867 -5.63683 -0.123433 2.60393 -5.65408 -0.170549 2.5977 
-5.6711 -0.21764 2.59001 -5.68784 -0.264662 2.5809 -5.70431 -0.311571 2.5704 
-5.72047 -0.358324 2.55852 -5.7363 -0.404877 2.5453 -5.75178 -0.451187 2.53077 
-5.76688 -0.497209 2.51495 -5.78159 -0.542902 2.49788 -5.79588 -0.588221 2.47957 
-5.80972 -0.633122 2.46007 -5.8231 -0.677562 2.4394 -5.836 -0.721498 2.41758 
-5.84838 -0.764885 2.39464 -5.86023 -0.807681 2.37062 -5.87154 -0.849852 2.34554 
-5.88229 -0.891417 2.31945 -5.8925 -0.932408 2.29241 -5.90218 -0.972857 2.26448 
-5.91133 -1.0128 2.2357 -5.91996 -1.05226 2.20614 -5.92808 -1.09128 2.17584 
-5.93569 -1.12989 2.14487 -5.94281 -1.16812 2.11327 -5.94944 -1.20601 2.08111 
-5.95559 -1.24358 2.04843 -5.96126 -1.28087 2.01529 -5.96646 -1.31791 1.98175 
-5.97121 -1.35474 1.94786 -5.9755 -1.39138 1.91368 -5.97935 -1.42788 1.87925 
-5.98275 -1.46425 1.84464 -5.98573 -1.50054 1.8099 -5.98829 -1.53678 1.77509 
-5.99043 -1.573 1.74025 -5.99216 -1.60923 1.70545 -5.99349 -1.64548 1.6707 
-5.9944 -1.68176 1.636 -5.99491 -1.71806 1.60137 -5.99501 -1.7544 1.56681 
-5.9947 -1.79076 1.53231 -5.99398 -1.82716 1.4979 -5.99284 -1.86359 1.46356 
-5.99129 -1.90006 1.4293 -5.98932 -1.93657 1.39513 -5.98694 -1.97312 1.36106 
-5.98414 -2.00971 1.32708 -5.98092 -2.04634 1.2932 -5.97728 -2.08302 1.25942 
-5.97322 -2.11974 1.22576 -5.96874 -2.15652 1.1922 -5.96384 -2.19334 1.15877 
-5.95851 -2.23022 1.12546 -5.95275 -2.26716 1.09227 -5.94657 -2.30415 1.05922 
-5.93997 -2.3412 1.0263 -5.93293 -2.3783 0.993513 -5.92547 -2.41546 0.96087 
-5.91759 -2.45267 0.92837 -5.90929 -2.48993 0.896015 -5.90058 -2.52724 0.863807 
-5.89145 -2.56458 0.831748 -5.88192 -2.60196 0.79984 -5.87197 -2.63937 0.768086 
-5.86163 -2.67682 0.736488 -5.85088 -2.71428 0.705049 -5.83973 -2.75178 0.673769 
-5.82819 -2.78929 0.642652 -5.81625 -2.82681 0.6117 -5.80392 -2.86435 0.580914 
-5.79121 -2.9019 0.550298 -5.77811 -2.93945 0.519854 -5.76464 -2.977 0.489583 
-5.75078 -3.01455 0.459488 -5.73654 -3.0521 0.429571 -5.72194 -3.08963 0.399834 
-5.70696 -3.12716 0.370277 -5.69162 -3.16466 0.340894 -5.67592 -3.20214 0.311677 
-5.65986 -3.23958 0.282617 -5.64346 -3.27699 0.253708 -5.6267 -3.31435 0.224942 
-5.6096 -3.35165 0.196311 -5.59217 -3.3889 0.167808 -5.5744 -3.42608 0.139424 
-5.5563 -3.46319 0.111152 -5.53788 -3.50022 0.082985 -5.51914 -3.53716 0.0549148 
-5.50009 -3.57401 0.0269337 -5.48072 -3.61077 -0.000965886 -5.46105 -3.64741 -0.0287916 
-5.44108 -3.68395 -0.056551 -5.42081 -3.72037 -0.084252 -5.40025 -3.75666 -0.111902 
-5.37941 -3.79282 -0.139509 -5.35828 -3.82884 -0.16708 -5.33687 -3.86472 -0.194623 
-5.31519 -3.90045 -0.222144 -5.29324 -3.93602 -0.249647 -5.27103 -3.97145 -0.27714 
-5.24857 -4.00671 -0.304625 -5.22585 -4.04181 -0.33211 -5.20288 -4.07674 -0.3596 
-5.17967 -4.11151 -0.387098 -5.15623 -4.1461 -0.414613 -5.13255 -4.18052 -0.442147 
-5.10865 -4.21476 -0.469707 -5.08453 -4.24882 -0.497298 -5.06019 -4.28269 -0.524925 
-5.03563 -4.31637 -0.552595 -5.01088 -4.34986 -0.580311 -4.98592 -4.38315 -0.608079 
-4.96077 -4.41624 -0.635906 -4.93543 -4.44913 -0.663795 -4.9099 -4.48182 -0.691752 
-4.8842 -4.51429 -0.719784 -4.85832 -4.54655 -0.747894 -4.83227 -4.5786 -0.776084 
-4.80605 -4.61044 -0.80435 -4.77966 -4.64208 -0.832692 -4.75312 -4.67352 -0.861106 
-4.72642 -4.70476 -0.88959 -4.69956 -4.73581 -0.918141 -4.67255 -4.76667 -0.946757 
-4.6454 -4.79734 -0.975435 -4.61809 -4.82783 -1.00417 -4.59065 -4.85815 -1.03297 
-4.56307 -4.88829 -1.06182 -4.53535 -4.91827 -1.09072 -4.5075 -4.94808 -1.11967 
-4.47951 -4.97772 -1.14867 -4.45141 -5.00721 -1.17771 -4.42317 -5.03655 -1.2068 
-4.39482 -5.06573 -1.23593 -4.36635 -5.09477 -1.26509 -4.33777 -5.12367 -1.29429 
-4.30908 -5.15243 -1.32352 -4.28027 -5.18105 -1.35277 -4.25136 -5.20956 -1.38205 
-4.22235 -5.23795 -1.41133 -4.19323 -5.26624 -1.4406 -4.16402 -5.29443 -1.46987 
-4.1347 -5.32254 -1.49911 -4.10528 -5.35058 -1.52831 -4.07577 -5.37856 -1.55747 
-4.04616 -5.40648 -1.58658 -4.01646 -5.43436 -1.61562 -3.98666 -5.4622 -1.64458 
-3.95678 -5.49002 -1.67346 -3.9268 -5.51783 -1.70224 -3.89674 -5.54563 -1.73092 
-3.8666 -5.57343 -1.75948 -3.83637 -5.60126 -1.78791 -3.80606 -5.6291 -1.81621 
-3.77566 -5.65699 -1.84435 -3.74519 -5.68492 -1.87235 -3.71464 -5.7129 -1.90017 
-3.68402 -5.74095 -1.92781 -3.65332 -5.76907 -1.95527 -3.62253 -5.79728 -1.98254 
-3.59167 -5.82558 -2.0096 -3.56073 -5.854 -2.03646 -3.5297 -5.88252 -2.06311 
-3.49859 -5.91118 -2.08953 -3.46739 -5.93997 -2.11573 -3.43611 -5.96891 -2.14169 
-3.40473 -5.998 -2.16741 -3.37326 -6.02727 -2.19288 -3.3417 -6.05671 -2.2181 
-3.31005 -6.08634 -2.24305 -3.2783 -6.11618 -2.26773 -3.24645 -6.14622 -2.29213 
-3.21451 -6.17648 -2.31625 -3.18246 -6.20697 -2.34007 -3.15032 -6.2377 -2.3636 
-3.11806 -6.26868 -2.38682 -3.08571 -6.29992 -2.40973 -3.05325 -6.33143 -2.43231 
-3.0207 -6.36324 -2.45452 -2.9881 -6.39536 -2.47628 -2.95546 -6.42783 -2.49751 
[...]
CELL_DATA 1
FIELD FieldData 2
Length 1 1 double
63.707413648 
Tortuosity 1 1 double
1.2616716734 
POINT_DATA 1275
SCALARS MaximumInscribedSphereRadius float
LOOKUP_TABLE default
0.93 0.918468 0.906935 0.895402 0.88387 0.872338 0.860805 0.849273 0.83774 
0.826208 0.814675 0.803143 0.79161 0.780078 0.768545 0.757013 0.74548 0.733948 
0.722415 0.710883 0.69935 0.704132 0.718208 0.732283 0.746359 0.760434 0.77451 
0.788585 0.802661 0.816736 0.830812 0.844887 0.858963 0.873038 0.887114 0.901189 
0.915265 0.92934 0.943416 0.957491 0.971567 0.988612 1.00776 1.02691 1.04605 
1.0652 1.08435 1.10349 1.12264 1.14179 1.16094 1.18008 1.19923 1.21838 
1.23752 1.25667 1.27582 1.29497 1.31411 1.33326 1.35241 1.36507 1.36727 
1.36948 1.37169 1.3739 1.37611 1.37832 1.38053 1.38273 1.38494 1.38715 
1.38936 1.39157 1.39378 1.39599 1.39819 1.4004 1.40261 1.40482 1.40703 
1.405 1.38016 1.35533 1.33049 1.30566 1.28082 1.25599 1.23115 1.20632 
1.18148 1.15665 1.13181 1.10698 1.08214 1.05731 1.03247 1.00764 0.982801 
0.957966 0.933131 0.908295 0.894739 0.881872 0.869006 0.856139 0.843272 0.830405 
0.817538 0.804671 0.791804 0.778938 0.766071 0.753204 0.740337 0.72747 0.714603 
0.701737 0.68887 0.676003 0.663136 0.650269 0.654336 0.664826 0.675316 0.685806 
0.696296 0.706785 0.717275 0.727765 0.738255 0.748745 0.759234 0.769724 0.780214 
0.790704 0.801194 0.811684 0.822173 0.832663 0.843153 0.853643 0.865434 0.878664 
0.891893 0.905123 0.918353 0.931583 0.944812 0.958042 0.971272 0.984502 0.997731 
1.01096 1.02419 1.03742 1.05065 1.06388 1.07711 1.09034 1.10357 1.1168 
1.12768 1.12923 1.13078 1.13233 1.13388 1.13543 1.13698 1.13852 1.14007 
1.14162 1.14317 1.14472 1.14627 1.14782 1.14937 1.15092 1.15246 1.15401 
1.15556 1.15711 1.15866 1.1508 1.14256 1.13432 1.12608 1.11784 1.10961 
1.10137 1.09313 1.08489 1.07665 1.06841 1.06018 1.05194 1.0437 1.03546 
1.02722 1.01898 1.01075 1.00251 0.99427 1.01414 1.03557 1.057 1.07842 
1.09985 1.12128 1.1427 1.16413 1.18556 1.20698 1.22841 1.24984 1.27126 
1.29269 1.31412 1.33554 1.35697 1.3784 1.39982 1.42125 1.42192 1.41349 
1.40506 1.39663 1.3882 1.37977 1.37134 1.36291 1.35448 1.34605 1.33763 
1.3292 1.32077 1.31234 1.30391 1.29548 1.28705 1.27862 1.27019 1.26176 
1.25526 1.25142 1.24757 1.24373 1.23989 1.23604 1.2322 1.22835 1.22451 
1.22067 1.21682 1.21298 1.20913 1.20529 1.20145 1.1976 1.19376 1.18991 
1.18607 1.18223 1.17865 1.17664 1.17463 1.17262 1.17061 1.1686 1.16659 
1.16458 1.16257 1.16056 1.15855 1.15654 1.15453 1.15253 1.15052 1.14851 
1.1465 1.14449 1.14248 1.14047 1.13846 1.1304 1.12142 1.11243 1.10345 
1.09447 1.08549 1.0765 1.06752 1.05854 1.04956 1.04058 1.03159 1.02261 
1.01363 1.00465 0.995666 0.986684 0.977701 0.968719 0.959737 0.960223 0.967455 
0.974688 0.98192 0.989153 0.996385 1.00362 1.01085 1.01808 1.02531 1.03255 
1.03978 1.04701 1.05424 1.06148 1.06871 1.07594 1.08317 1.09041 1.09764 
1.10494 1.11239 1.11985 1.1273 1.13476 1.14221 1.14966 1.15712 1.16457 
1.17203 1.17948 1.18694 1.19439 1.20185 1.2093 1.21676 1.22421 1.23167 
1.23912 1.24658 1.25404 1.26262 1.27121 1.2798 1.28839 1.29697 1.30556 
1.31415 1.32273 1.33132 1.33991 1.34849 1.35708 1.36567 1.37425 1.38284 
1.39143 1.40001 1.4086 1.41719 1.42577 1.43251 1.43854 1.44457 1.4506 
1.45663 1.46266 1.46869 1.47472 1.48075 1.48678 1.49281 1.49884 1.50487 
1.5109 1.51693 1.52296 1.52899 1.53502 1.54105 1.54708 1.55787 1.57312 
1.58837 1.60362 1.61887 1.63412 1.64937 1.66463 1.67988 1.69513 1.71038 
1.72563 1.74088 1.75613 1.77138 1.78663 1.80188 1.81713 1.83238 1.84763 
1.85698 1.86484 1.87271 1.88058 1.88844 1.89631 1.90417 1.91204 1.91991 
1.92777 1.93564 1.94351 1.95137 1.95924 1.9671 1.97497 1.98284 1.9907 
1.99857 2.00644 2.00223 1.9949 1.98758 1.98025 1.97293 1.9656 1.95828 
1.95095 1.94363 1.9363 1.92898 1.92165 1.91433 1.907 1.89967 1.89235 
1.88502 1.8777 1.87037 1.86305 1.86043 1.86073 1.86103 1.86132 1.86162 
1.86192 1.86222 1.86251 1.86281 1.86311 1.8634 1.8637 1.864 1.86429 
1.86459 1.86489 1.86519 1.86548 1.86578 1.86608 1.86652 1.86717 1.86783 
1.86848 1.86913 1.86979 1.87044 1.87109 1.87175 1.8724 1.87305 1.87371 
1.87436 1.87501 1.87567 1.87632 1.87697 1.87763 1.87828 1.87893 1.87918 
1.87788 1.87659 1.8753 1.87401 1.87272 1.87143 1.87013 1.86884 1.86755 
1.86626 1.86497 1.86367 1.86238 1.86109 1.8598 1.85851 1.85721 1.85592 
1.85463 1.85334 1.84478 1.83612 1.82746 1.8188 1.81014 1.80148 1.79282 
1.78416 1.7755 1.76684 1.75817 1.74951 1.74085 1.73219 1.72353 1.71487 
1.70621 1.69755 1.68889 1.68023 1.67331 1.66704 1.66077 1.6545 1.64824 
1.64197 1.6357 1.62943 1.62317 1.6169 1.61063 1.60436 1.59809 1.59183 
1.58556 1.57929 1.57302 1.56676 1.56049 1.55422 1.5509 1.55085 1.55081 
1.55076 1.55071 1.55067 1.55062 1.55058 1.55053 1.55049 1.55044 1.55039 
1.55035 1.5503 1.55026 1.55021 1.55016 1.55012 1.55007 1.55003 1.55112 
1.55393 1.55674 1.55955 1.56236 1.56516 1.56797 1.57078 1.57359 1.5764 
1.57921 1.58201 1.58482 1.58763 1.59044 1.59325 1.59606 1.59887 1.60167 
1.60448 1.59746 1.58772 1.57798 1.56824 1.5585 1.54876 1.53902 1.52929 
1.51955 1.50981 1.50007 1.49033 1.48059 1.47085 1.46111 1.45137 1.44163 
1.4319 1.42216 1.41242 1.39696 1.37749 1.35802 1.33855 1.31908 1.29961 
1.28014 1.26067 1.24119 1.22172 1.20225 1.18278 1.16331 1.14384 1.12437 
1.1049 1.08543 1.06595 1.04648 1.02701 1.02292 1.04717 1.07143 1.09568 
1.11993 1.14419 1.16844 1.19269 1.21695 1.2412 1.26545 1.28971 1.31396 
1.33821 1.36247 1.38672 1.41097 1.43523 1.45948 1.48373 1.50378 1.49463 
1.48548 1.47633 1.46718 1.45803 1.44888 1.43973 1.43058 1.42143 1.41228 
1.40313 1.39398 1.38483 1.37568 1.36653 1.35738 1.34823 1.33908 1.32993 
1.32078 1.33173 1.34535 1.35897 1.37259 1.3862 1.39982 1.41344 1.42706 
1.44068 1.4543 1.46791 1.48153 1.49515 1.50877 1.52239 1.536 1.54962 
1.56324 1.57686 1.59048 1.60375 1.6168 1.62986 1.64291 1.65597 1.66902 
1.68208 1.69513 1.70819 1.72124 1.7343 1.74735 1.76041 1.77346 1.78652 
1.79957 1.81263 1.82568 1.83874 1.85179 1.85407 1.8381 1.82214 1.80617 
1.7902 1.77424 1.75827 1.74231 1.72634 1.71037 1.69441 1.67844 1.66247 
1.64651 1.63054 1.61457 1.59861 1.58264 1.56667 1.55071 1.53345 1.51109 
1.48873 1.46637 1.44402 1.42166 1.3993 1.37694 1.35458 1.33223 1.30987 
1.28751 1.26515 1.24279 1.22044 1.19808 1.17572 1.15336 1.131 1.10864 
1.08837 1.11247 1.13657 1.16066 1.18476 1.20886 1.23295 1.25705 1.28115 
1.30524 1.32934 1.35344 1.37753 1.40163 1.42572 1.44982 1.47392 1.49801 
1.52211 1.54621 1.5703 1.58238 1.59235 1.60231 1.61228 1.62224 1.6322 
1.64217 1.65213 1.6621 1.67206 1.68202 1.69199 1.70195 1.71192 1.72188 
1.73184 1.74181 1.75177 1.76174 1.7717 1.76503 1.74789 1.73074 1.7136 
1.69646 1.67932 1.66217 1.64503 1.62789 1.61074 1.5936 1.57646 1.55932 
1.54217 1.52503 1.50789 1.49074 1.4736 1.45646 1.43932 1.43412 1.4514 
1.46868 1.48596 1.50325 1.52053 1.53781 1.5551 1.57238 1.58966 1.60695 
1.62423 1.64151 1.6588 1.67608 1.69336 1.71065 1.72793 1.74521 1.7625 
1.77954 1.79318 1.80683 1.82047 1.83411 1.84775 1.8614 1.87504 1.88868 
1.90232 1.91597 1.92961 1.94325 1.95689 1.97054 1.98418 1.99782 2.01146 
2.02511 2.03875 2.05239 2.04825 2.03907 2.02988 2.02069 2.0115 2.00231 
1.99312 1.98393 1.97474 1.96555 1.95636 1.94717 1.93798 1.92879 1.9196 
1.91041 1.90122 1.89204 1.88285 1.87366 1.86876 1.86832 1.86788 1.86743 
1.86699 1.86655 1.86611 1.86566 1.86522 1.86478 1.86434 1.86389 1.86345 
1.86301 1.86257 1.86212 1.86168 1.86124 1.86079 1.86035 1.86023 1.86132 
1.86242 1.86351 1.86461 1.8657 1.8668 1.86789 1.86899 1.87008 1.87118 
1.87227 1.87337 1.87447 1.87556 1.87666 1.87775 1.87885 1.87994 1.88104 
1.88213 1.89136 1.90129 1.91121 1.92114 1.93106 1.94099 1.95092 1.96084 
1.97077 1.98069 1.99062 2.00054 2.01047 2.02039 2.03032 2.04024 2.05017 
2.06009 2.07002 2.07994 2.08629 2.09055 2.09481 2.09907 2.10333 2.10759 
2.11185 2.11611 2.12037 2.12463 2.12889 2.13315 2.13741 2.14167 2.14593 
2.15019 2.15445 2.1587 2.16296 2.16722 2.16857 2.16445 2.16033 2.15621 
2.1521 2.14798 2.14386 2.13974 2.13563 2.13151 2.12739 2.12328 2.11916 
2.11504 2.11092 2.10681 2.10269 2.09857 2.09446 2.09034 2.08586 2.07723 
2.0686 2.05997 2.05134 2.04271 2.03408 2.02545 2.01681 2.00818 1.99955 
1.99092 1.98229 1.97366 1.96503 1.9564 1.94777 1.93914 1.93051 1.92188 
1.91325 1.90634 1.8998 1.89326 1.88672 1.88018 1.87364 1.8671 1.86056 
1.85401 1.84747 1.84093 1.83439 1.82785 1.82131 1.81477 1.80823 1.80168 
1.79514 1.7886 1.78206 1.78006 1.78137 1.78267 1.78397 1.78527 1.78658 
1.78788 1.78918 1.79048 1.79179 1.79309 1.79439 1.79569 1.797 1.7983 
1.7996 1.8009 1.80221 1.80351 1.80481 1.80625 1.80799 1.80972 1.81145 
1.81319 1.81492 1.81665 1.81839 1.82012 1.82186 1.82359 1.82532 1.82706 
1.82879 1.83053 1.83226 1.83399 1.83573 1.83746 1.83919 1.8403 1.83194 
1.82358 1.81521 1.80685 1.79849 1.79013 1.78177 1.77341 1.76505 1.75669 
1.74833 1.73997 1.73161 1.72325 1.71489 1.70653 1.69817 1.6898 1.68144 
1.67308 1.67743 1.68503 1.69262 1.70022 1.70782 1.71541 1.72301 1.73061 
1.73821 1.7458 1.7534 1.761 1.76859 1.77619 1.78379 1.79139 1.79898 
1.80658 1.81418 1.82177 1.83427 1.85125 1.86824 1.88523 1.90221 1.9192 
1.93619 1.95318 1.97016 1.98715 2.00414 2.02112 2.03811 2.0551 2.07209 
2.08907 2.10606 2.12305 2.14003 2.15702 2.16949 2.16735 2.16521 2.16307 
2.16093 2.15879 2.15665 2.1545 2.15236 2.15022 2.14808 2.14594 2.1438 
2.14165 2.13951 2.13737 2.13523 2.13309 2.13095 2.12881 2.12666 2.11647 
2.10582 2.09518 2.08453 2.07388 2.06324 2.05259 2.04195 2.0313 2.02065 
2.01001 1.99936 1.98872 1.97807 1.96742 1.95678 1.94613 1.93548 1.92484 
1.91419 1.91724 1.92721 1.93717 1.94714 1.9571 1.96707 1.97703 1.987 
1.99697 2.00693 2.0169 2.02686 2.03683 2.04679 2.05676 2.06672 2.07669 
2.08665 2.09662 2.10659 2.11374 2.11658 2.11941 2.12224 2.12507 2.1279 
2.13073 2.13357 2.1364 2.13923 2.14206 2.14489 2.14773 2.15056 2.15339 
2.15622 2.15905 2.16188 2.16472 2.16755 2.1722 2.18862 2.20504 2.22145 
2.23787 2.25429 2.27071 2.28712 2.30354 2.31996 2.33637 2.35279 2.36921 
2.38563 2.40204 2.41846 2.43488 2.45129 2.46771 2.48413 2.50055 2.4964 
2.48902 2.48163 2.47425 2.46686 2.45948 2.45209 2.44471 2.43733 2.42994 
2.42256 2.41517 2.40779 2.4004 2.39302 2.38564 2.37825 2.37087 2.36348 
2.3561 2.32768 2.28528 2.24288 2.20047 2.15807 2.11567 2.07327 2.03087 
1.98847 1.94607 1.90366 1.86126 1.81886 1.77646 1.73406 1.69166 1.64926 
1.60686 1.56445 1.52205 1.49368 1.481 1.46831 1.45563 1.44295 1.43026 
1.41758 1.40489 1.39221 1.37952 1.36684 1.35416 1.34147 1.32879 1.3161 
1.30342 1.29074 1.27805 1.26537 1.25268 1.24 
TEXTURE_COORDINATES TCoords 2 float
0 0 0.000784929 0 0.00156986 0 0.00235479 0 0.00313972 
0 0.00392465 0 0.00470958 0 0.00549451 0 0.00627944 0 
0.00706436 0 0.00784929 0 0.00863422 0 0.00941915 0 0.0102041 
0 0.010989 0 0.0117739 0 0.0125589 0 0.0133438 0 
0.0141287 0 0.0149137 0 0.0156986 0 0.0164835 0 0.0172684 
0 0.0180534 0 0.0188383 0 0.0196232 0 0.0204082 0 
0.0211931 0 0.021978 0 0.022763 0 0.0235479 0 0.0243328 
0 0.0251177 0 0.0259027 0 0.0266876 0 0.0274725 0 
0.0282575 0 0.0290424 0 0.0298273 0 0.0306122 0 0.0313972 
0 0.0321821 0 0.032967 0 0.033752 0 0.0345369 0 
0.0353218 0 0.0361068 0 0.0368917 0 0.0376766 0 0.0384615 
0 0.0392465 0 0.0400314 0 0.0408163 0 0.0416013 0 
0.0423862 0 0.0431711 0 0.043956 0 0.044741 0 0.0455259 
0 0.0463108 0 0.0470958 0 0.0478807 0 0.0486656 0 
0.0494506 0 0.0502355 0 0.0510204 0 0.0518053 0 0.0525903 
0 0.0533752 0 0.0541601 0 0.0549451 0 0.05573 0 
0.0565149 0 0.0572998 0 0.0580848 0 0.0588697 0 0.0596546 
0 0.0604396 0 0.0612245 0 0.0620094 0 0.0627944 0 
0.0635793 0 0.0643642 0 0.0651491 0 0.0659341 0 0.066719 
0 0.0675039 0 0.0682889 0 0.0690738 0 0.0698587 0 
0.0706436 0 0.0714286 0 0.0722135 0 0.0729984 0 0.0737834 
0 0.0745683 0 0.0753532 0 0.0761381 0 0.0769231 0 
0.077708 0 0.0784929 0 0.0792779 0 0.0800628 0 0.0808477 
0 0.0816327 0 0.0824176 0 0.0832025 0 0.0839874 0 
0.0847724 0 0.0855573 0 0.0863422 0 0.0871272 0 0.0879121 
0 0.088697 0 0.0894819 0 0.0902669 0 0.0910518 0 
0.0918367 0 0.0926217 0 0.0934066 0 0.0941915 0 0.0949765 
0 0.0957614 0 0.0965463 0 0.0973312 0 0.0981162 0 
0.0989011 0 0.099686 0 0.100471 0 0.101256 0 0.102041 
0 0.102826 0 0.103611 0 0.104396 0 0.105181 0 
0.105965 0 0.10675 0 0.107535 0 0.10832 0 0.109105 
0 0.10989 0 0.110675 0 0.11146 0 0.112245 0 
0.11303 0 0.113815 0 0.1146 0 0.115385 0 0.11617 
0 0.116954 0 0.117739 0 0.118524 0 0.119309 0 
0.120094 0 0.120879 0 0.121664 0 0.122449 0 0.123234 
0 0.124019 0 0.124804 0 0.125589 0 0.126374 0 
0.127159 0 0.127943 0 0.128728 0 0.129513 0 0.130298 
0 0.131083 0 0.131868 0 0.132653 0 0.133438 0 
0.134223 0 0.135008 0 0.135793 0 0.136578 0 0.137363 
0 0.138148 0 0.138932 0 0.139717 0 0.140502 0 
0.141287 0 0.142072 0 0.142857 0 0.143642 0 0.144427 
0 0.145212 0 0.145997 0 0.146782 0 0.147567 0 
0.148352 0 0.149137 0 0.149922 0 0.150706 0 0.151491 
0 0.152276 0 0.153061 0 0.153846 0 0.154631 0 
0.155416 0 0.156201 0 0.156986 0 0.157771 0 0.158556 
0 0.159341 0 0.160126 0 0.160911 0 0.161695 0 
0.16248 0 0.163265 0 0.16405 0 0.164835 0 0.16562 
0 0.166405 0 0.16719 0 0.167975 0 0.16876 0 
0.169545 0 0.17033 0 0.171115 0 0.1719 0 0.172684 
0 0.173469 0 0.174254 0 0.175039 0 0.175824 0 
0.176609 0 0.177394 0 0.178179 0 0.178964 0 0.179749 
0 0.180534 0 0.181319 0 0.182104 0 0.182889 0 
0.183673 0 0.184458 0 0.185243 0 0.186028 0 0.186813 
0 0.187598 0 0.188383 0 0.189168 0 0.189953 0 
0.190738 0 0.191523 0 0.192308 0 0.193093 0 0.193878 
0 0.194662 0 0.195447 0 0.196232 0 0.197017 0 
0.197802 0 0.198587 0 0.199372 0 0.200157 0 0.200942 
0 0.201727 0 0.202512 0 0.203297 0 0.204082 0 
0.204867 0 0.205651 0 0.206436 0 0.207221 0 0.208006 
0 0.208791 0 0.209576 0 0.210361 0 0.211146 0 
0.211931 0 0.212716 0 0.213501 0 0.214286 0 0.215071 
0 0.215856 0 0.216641 0 0.217425 0 0.21821 0 
0.218995 0 0.21978 0 0.220565 0 0.22135 0 0.222135 
0 0.22292 0 0.223705 0 0.22449 0 0.225275 0 
0.22606 0 0.226845 0 0.22763 0 0.228414 0 0.229199 
0 0.229984 0 0.230769 0 0.231554 0 0.232339 0 
0.233124 0 0.233909 0 0.234694 0 0.235479 0 0.236264 
0 0.237049 0 0.237834 0 0.238619 0 0.239403 0 
0.240188 0 0.240973 0 0.241758 0 0.242543 0 0.243328 
0 0.244113 0 0.244898 0 0.245683 0 0.246468 0 
0.247253 0 0.248038 0 0.248823 0 0.249608 0 0.250392 
0 0.251177 0 0.251962 0 0.252747 0 0.253532 0 
0.254317 0 0.255102 0 0.255887 0 0.256672 0 0.257457 
0 0.258242 0 0.259027 0 0.259812 0 0.260597 0 
0.261381 0 0.262166 0 0.262951 0 0.263736 0 0.264521 
0 0.265306 0 0.266091 0 0.266876 0 0.267661 0 
0.268446 0 0.269231 0 0.270016 0 0.270801 0 0.271586 
0 0.27237 0 0.273155 0 0.27394 0 0.274725 0 
0.27551 0 0.276295 0 0.27708 0 0.277865 0 0.27865 
0 0.279435 0 0.28022 0 0.281005 0 0.28179 0 
0.282575 0 0.283359 0 0.284144 0 0.284929 0 0.285714 
0 0.286499 0 0.287284 0 0.288069 0 0.288854 0 
0.289639 0 0.290424 0 0.291209 0 0.291994 0 0.292779 
0 0.293564 0 0.294349 0 0.295133 0 0.295918 0 
0.296703 0 0.297488 0 0.298273 0 0.299058 0 0.299843 
0 0.300628 0 0.301413 0 0.302198 0 0.302983 0 
0.303768 0 0.304553 0 0.305338 0 0.306122 0 0.306907 
0 0.307692 0 0.308477 0 0.309262 0 0.310047 0 
0.310832 0 0.311617 0 0.312402 0 0.313187 0 0.313972 
0 0.314757 0 0.315542 0 0.316327 0 0.317111 0 
0.317896 0 0.318681 0 0.319466 0 0.320251 0 0.321036 
0 0.321821 0 0.322606 0 0.323391 0 0.324176 0 
0.324961 0 0.325746 0 0.326531 0 0.327316 0 0.3281 
0 0.328885 0 0.32967 0 0.330455 0 0.33124 0 
0.332025 0 0.33281 0 0.333595 0 0.33438 0 0.335165 
0 0.33595 0 0.336735 0 0.33752 0 0.338305 0 
0.339089 0 0.339874 0 0.340659 0 0.341444 0 0.342229 
0 0.343014 0 0.343799 0 0.344584 0 0.345369 0 
0.346154 0 0.346939 0 0.347724 0 0.348509 0 0.349294 
0 0.350078 0 0.350863 0 0.351648 0 0.352433 0 
0.353218 0 0.354003 0 0.354788 0 0.355573 0 0.356358 
0 0.357143 0 0.357928 0 0.358713 0 0.359498 0 
0.360283 0 0.361068 0 0.361852 0 0.362637 0 0.363422 
0 0.364207 0 0.364992 0 0.365777 0 0.366562 0 
0.367347 0 0.368132 0 0.368917 0 0.369702 0 0.370487 
0 0.371272 0 0.372057 0 0.372841 0 0.373626 0 
0.374411 0 0.375196 0 0.375981 0 0.376766 0 0.377551 
0 0.378336 0 0.379121 0 0.379906 0 0.380691 0 
0.381476 0 0.382261 0 0.383046 0 0.38383 0 0.384615 
0 0.3854 0 0.386185 0 0.38697 0 0.387755 0 
0.38854 0 0.389325 0 0.39011 0 0.390895 0 0.39168 
0 0.392465 0 0.39325 0 0.394035 0 0.394819 0 
0.395604 0 0.396389 0 0.397174 0 0.397959 0 0.398744 
0 0.399529 0 0.400314 0 0.401099 0 0.401884 0 
0.402669 0 0.403454 0 0.404239 0 0.405024 0 0.405808 
0 0.406593 0 0.407378 0 0.408163 0 0.408948 0 
0.409733 0 0.410518 0 0.411303 0 0.412088 0 0.412873 
0 0.413658 0 0.414443 0 0.415228 0 0.416013 0 
0.416797 0 0.417582 0 0.418367 0 0.419152 0 0.419937 
0 0.420722 0 0.421507 0 0.422292 0 0.423077 0 
0.423862 0 0.424647 0 0.425432 0 0.426217 0 0.427002 
0 0.427786 0 0.428571 0 0.429356 0 0.430141 0 
0.430926 0 0.431711 0 0.432496 0 0.433281 0 0.434066 
0 0.434851 0 0.435636 0 0.436421 0 0.437206 0 
0.437991 0 0.438776 0 0.43956 0 0.440345 0 0.44113 
0 0.441915 0 0.4427 0 0.443485 0 0.44427 0 
0.445055 0 0.44584 0 0.446625 0 0.44741 0 0.448195 
0 0.44898 0 0.449765 0 0.450549 0 0.451334 0 
0.452119 0 0.452904 0 0.453689 0 0.454474 0 0.455259 
0 0.456044 0 0.456829 0 0.457614 0 0.458399 0 
0.459184 0 0.459969 0 0.460754 0 0.461538 0 0.462323 
0 0.463108 0 0.463893 0 0.464678 0 0.465463 0 
0.466248 0 0.467033 0 0.467818 0 0.468603 0 0.469388 
0 0.470173 0 0.470958 0 0.471743 0 0.472527 0 
0.473312 0 0.474097 0 0.474882 0 0.475667 0 0.476452 
0 0.477237 0 0.478022 0 0.478807 0 0.479592 0 
0.480377 0 0.481162 0 0.481947 0 0.482732 0 0.483516 
0 0.484301 0 0.485086 0 0.485871 0 0.486656 0 
0.487441 0 0.488226 0 0.489011 0 0.489796 0 0.490581 
0 0.491366 0 0.492151 0 0.492936 0 0.493721 0 
0.494505 0 0.49529 0 0.496075 0 0.49686 0 0.497645 
0 0.49843 0 0.499215 0 0.5 0 0.500785 0 
0.50157 0 0.502355 0 0.50314 0 0.503925 0 0.50471 
0 0.505495 0 0.506279 0 0.507064 0 0.507849 0 
0.508634 0 0.509419 0 0.510204 0 0.510989 0 0.511774 
0 0.512559 0 0.513344 0 0.514129 0 0.514914 0 
0.515699 0 0.516484 0 0.517268 0 0.518053 0 0.518838 
0 0.519623 0 0.520408 0 0.521193 0 0.521978 0 
0.522763 0 0.523548 0 0.524333 0 0.525118 0 0.525903 
0 0.526688 0 0.527473 0 0.528257 0 0.529042 0 
0.529827 0 0.530612 0 0.531397 0 0.532182 0 0.532967 
0 0.533752 0 0.534537 0 0.535322 0 0.536107 0 
0.536892 0 0.537677 0 0.538462 0 0.539246 0 0.540031 
0 0.540816 0 0.541601 0 0.542386 0 0.543171 0 
0.543956 0 0.544741 0 0.545526 0 0.546311 0 0.547096 
0 0.547881 0 0.548666 0 0.549451 0 0.550235 0 
0.55102 0 0.551805 0 0.55259 0 0.553375 0 0.55416 
0 0.554945 0 0.55573 0 0.556515 0 0.5573 0 
0.558085 0 0.55887 0 0.559655 0 0.56044 0 0.561224 
0 0.562009 0 0.562794 0 0.563579 0 0.564364 0 
0.565149 0 0.565934 0 0.566719 0 0.567504 0 0.568289 
0 0.569074 0 0.569859 0 0.570644 0 0.571429 0 
0.572214 0 0.572998 0 0.573783 0 0.574568 0 0.575353 
0 0.576138 0 0.576923 0 0.577708 0 0.578493 0 
0.579278 0 0.580063 0 0.580848 0 0.581633 0 0.582418 
0 0.583203 0 0.583987 0 0.584772 0 0.585557 0 
0.586342 0 0.587127 0 0.587912 0 0.588697 0 0.589482 
0 0.590267 0 0.591052 0 0.591837 0 0.592622 0 
0.593407 0 0.594192 0 0.594976 0 0.595761 0 0.596546 
0 0.597331 0 0.598116 0 0.598901 0 0.599686 0 
0.600471 0 0.601256 0 0.602041 0 0.602826 0 0.603611 
0 0.604396 0 0.605181 0 0.605965 0 0.60675 0 
0.607535 0 0.60832 0 0.609105 0 0.60989 0 0.610675 
0 0.61146 0 0.612245 0 0.61303 0 0.613815 0 
0.6146 0 0.615385 0 0.61617 0 0.616954 0 0.617739 
0 0.618524 0 0.619309 0 0.620094 0 0.620879 0 
0.621664 0 0.622449 0 0.623234 0 0.624019 0 0.624804 
0 0.625589 0 0.626374 0 0.627159 0 0.627943 0 
0.628728 0 0.629513 0 0.630298 0 0.631083 0 0.631868 
0 0.632653 0 0.633438 0 0.634223 0 0.635008 0 
0.635793 0 0.636578 0 0.637363 0 0.638148 0 0.638932 
0 0.639717 0 0.640502 0 0.641287 0 0.642072 0 
0.642857 0 0.643642 0 0.644427 0 0.645212 0 0.645997 
0 0.646782 0 0.647567 0 0.648352 0 0.649137 0 
0.649922 0 0.650706 0 0.651491 0 0.652276 0 0.653061 
0 0.653846 0 0.654631 0 0.655416 0 0.656201 0 