# vtk DataFile Version 4.2
vtk output
ASCII
DATASET POLYDATA
POINTS 1278 float
0 0 0 -0.00301266 0.00275889 4.5663e-05 -0.0118083 0.0107962 0.000185073 
-0.0260233 0.0237528 0.00042186 -0.0452942 0.0412695 0.000759656 -0.0692575 0.0629875 0.00120209 
-0.0975496 0.0885474 0.0017528 -0.129807 0.11759 0.00241541 -0.165666 0.149757 0.00319355 
-0.204763 0.184688 0.00409085 -0.246735 0.222026 0.00511095 -0.291219 0.261409 0.00625747 
-0.337849 0.30248 0.00753406 -0.386264 0.34488 0.00894432 -0.4361 0.388249 0.0104919 
-0.486992 0.432228 0.0121804 -0.538578 0.476458 0.0140136 -0.590494 0.52058 0.0159949 
-0.642376 0.564235 0.0181281 -0.693861 0.607064 0.0204167 -0.744585 0.648708 0.0228645 
-0.794185 0.688808 0.0254749 -0.842396 0.727101 0.0282506 -0.889262 0.763631 0.0311898 
-0.934889 0.798502 0.0342906 -0.979382 0.831816 0.0375505 -1.02285 0.863677 0.0409674 
-1.06538 0.894189 0.0445391 -1.10711 0.923454 0.0482634 -1.14811 0.951576 0.0521379 
-1.18851 0.978658 0.0561605 -1.22841 1.0048 0.060329 -1.26791 1.03012 0.0646411 
-1.30712 1.0547 0.0690946 -1.34614 1.07865 0.0736873 -1.38508 1.10209 0.0784169 
-1.42404 1.1251 0.0832812 -1.46314 1.14779 0.0882781 -1.50246 1.17027 0.0934052 
-1.54213 1.19265 0.0986603 -1.58224 1.21501 0.104041 -1.62289 1.23746 0.109546 
-1.66412 1.26003 0.115175 -1.70589 1.28267 0.12093 -1.74818 1.30535 0.126813 
-1.79096 1.32802 0.132826 -1.83421 1.35066 0.138972 -1.87791 1.37323 0.145252 
-1.92201 1.39569 0.151669 -1.9665 1.418 0.158224 -2.01136 1.44013 0.16492 
-2.05655 1.46204 0.171758 -2.10205 1.48369 0.178741 -2.14783 1.50505 0.185871 
-2.19387 1.52608 0.193149 -2.24013 1.54674 0.200579 -2.2866 1.56699 0.208161 
-2.33325 1.58681 0.215899 -2.38005 1.60615 0.223793 -2.42698 1.62497 0.231847 
-2.474 1.64324 0.240062 -2.52109 1.66092 0.24844 -2.56824 1.67799 0.256983 
-2.61543 1.69444 0.265687 -2.66268 1.71027 0.274551 -2.70999 1.72548 0.283571 
-2.75735 1.74009 0.292745 -2.80476 1.75408 0.30207 -2.85224 1.76747 0.311544 
-2.89977 1.78024 0.321164 -2.94736 1.79241 0.330926 -2.99502 1.80398 0.340829 
-3.04274 1.81494 0.35087 -3.09052 1.82531 0.361045 -3.13838 1.83507 0.371353 
-3.1863 1.84424 0.381791 -3.23428 1.85281 0.392355 -3.28235 1.86079 0.403043 
-3.33048 1.86817 0.413853 -3.37869 1.87497 0.424782 -3.42697 1.88117 0.435826 
-3.47533 1.88679 0.446984 -3.52376 1.89183 0.458252 -3.57227 1.89627 0.469628 
-3.62083 1.90013 0.481106 -3.66945 1.90339 0.492683 -3.71811 1.90606 0.504355 
-3.76679 1.90812 0.516118 -3.8155 1.90959 0.527968 -3.86422 1.91045 0.539902 
-3.91295 1.9107 0.551915 -3.96166 1.91034 0.564003 -4.01036 1.90936 0.576162 
-4.05904 1.90777 0.58839 -4.10767 1.90556 0.60068 -4.15626 1.90272 0.61303 
-4.2048 1.89926 0.625436 -4.25327 1.89517 0.637894 -4.30166 1.89044 0.650399 
-4.34997 1.88508 0.662948 -4.39819 1.87909 0.675538 -4.4463 1.87245 0.688163 
-4.4943 1.86517 0.70082 -4.54218 1.85725 0.713505 -4.58994 1.84869 0.726213 
-4.63757 1.83952 0.73894 -4.68507 1.82972 0.751681 -4.73244 1.81932 0.764431 
-4.77967 1.80832 0.777186 -4.82675 1.79673 0.789942 -4.87369 1.78456 0.802693 
-4.92048 1.7718 0.815436 -4.96712 1.75849 0.828166 -5.0136 1.74461 0.840877 
-5.05991 1.73018 0.853567 -5.10607 1.7152 0.866229 -5.15205 1.69969 0.87886 
-5.19786 1.68366 0.891454 -5.24349 1.6671 0.904008 -5.28895 1.65003 0.916517 
-5.33422 1.63246 0.928977 -5.3793 1.6144 0.941382 -5.42419 1.59584 0.953728 
-5.46888 1.57681 0.966011 -5.51338 1.55731 0.978229 -5.55769 1.53734 0.990379 
-5.60181 1.51692 1.00246 -5.64574 1.49606 1.01446 -5.68948 1.47476 1.02639 
-5.73303 1.45304 1.03824 -5.77639 1.4309 1.05001 -5.81956 1.40834 1.06169 
-5.86255 1.38539 1.07329 -5.90535 1.36205 1.08479 -5.94797 1.33832 1.09621 
-5.99041 1.31422 1.10752 -6.03266 1.28975 1.11874 -6.07473 1.26493 1.12986 
-6.11662 1.23975 1.14088 -6.15833 1.21424 1.15178 -6.19986 1.1884 1.16258 
-6.24121 1.16223 1.17327 -6.28239 1.13575 1.18384 -6.32338 1.10897 1.1943 
-6.36421 1.08189 1.20463 -6.40486 1.05451 1.21485 -6.44535 1.02685 1.22494 
-6.48568 0.99892 1.2349 -6.52585 0.970715 1.24474 -6.56586 0.942247 1.25444 
-6.60572 0.913522 1.26402 -6.64543 0.884547 1.27346 -6.68499 0.85533 1.28277 
-6.72442 0.825877 1.29193 -6.7637 0.796195 1.30096 -6.80285 0.766291 1.30984 
-6.84186 0.736172 1.31858 -6.88075 0.705845 1.32717 -6.91952 0.675316 1.33562 
-6.95816 0.644594 1.34391 -6.99668 0.613684 1.35205 -7.03509 0.582593 1.36004 
-7.07339 0.551329 1.36786 -7.11158 0.519897 1.37553 -7.14966 0.488305 1.38304 
-7.18765 0.456557 1.39038 -7.22554 0.424658 1.39756 -7.26333 0.392613 1.40457 
-7.30104 0.360429 1.4114 -7.33866 0.328109 1.41806 -7.3762 0.29566 1.42454 
-7.41366 0.263087 1.43084 -7.45105 0.230394 1.43695 -7.48837 0.197587 1.44288 
-7.52563 0.164672 1.44862 -7.56282 0.131653 1.45417 -7.59995 0.0985365 1.45952 
-7.63703 0.0653267 1.46468 -7.67406 0.0320292 1.46964 -7.71104 -0.0013507 1.47439 
-7.74798 -0.0348078 1.47894 -7.78488 -0.0683368 1.48328 -7.82175 -0.101932 1.48741 
-7.85858 -0.13559 1.49133 -7.89538 -0.169303 1.49503 -7.93216 -0.203069 1.49851 
-7.96892 -0.236882 1.50176 -8.00565 -0.270738 1.50479 -8.04237 -0.304633 1.50758 
-8.07908 -0.338562 1.51013 -8.11577 -0.372519 1.51245 -8.15245 -0.406502 1.51451 
-8.18913 -0.440505 1.51633 -8.2258 -0.474524 1.51789 -8.26248 -0.508554 1.5192 
-8.29915 -0.54259 1.52024 -8.33583 -0.576629 1.52102 -8.37252 -0.610666 1.52152 
-8.40922 -0.644695 1.52175 -8.44593 -0.678713 1.52171 -8.48266 -0.712715 1.52137 
-8.5194 -0.746697 1.52076 -8.55617 -0.780653 1.51985 -8.59296 -0.81458 1.51865 
-8.62977 -0.848473 1.51714 -8.66662 -0.882329 1.51534 -8.70348 -0.916145 1.51322 
-8.74037 -0.949916 1.5108 -8.77728 -0.98364 1.50806 -8.81421 -1.01731 1.50499 
-8.85117 -1.05093 1.5016 -8.88814 -1.08449 1.49789 -8.92513 -1.11799 1.49383 
-8.96214 -1.15143 1.48945 -8.99917 -1.1848 1.48471 -9.03621 -1.2181 1.47964 
-9.07327 -1.25132 1.47421 -9.11034 -1.28447 1.46842 -9.14743 -1.31753 1.46228 
-9.18453 -1.35051 1.45577 -9.22164 -1.3834 1.4489 -9.25877 -1.4162 1.44165 
-9.2959 -1.44891 1.43402 -9.33305 -1.48151 1.42602 -9.3702 -1.51402 1.41763 
-9.40735 -1.54642 1.40885 -9.4445 -1.57873 1.39969 -9.48165 -1.61093 1.39014 
-9.51879 -1.64303 1.3802 -9.5559 -1.67503 1.36987 -9.593 -1.70693 1.35915 
-9.63006 -1.73872 1.34804 -9.6671 -1.77042 1.33653 -9.7041 -1.80201 1.32463 
-9.74105 -1.83351 1.31234 -9.77796 -1.8649 1.29965 -9.81482 -1.8962 1.28657 
-9.85161 -1.92739 1.27309 -9.88834 -1.95848 1.25921 -9.92501 -1.98947 1.24494 
-9.9616 -2.02036 1.23026 -9.99811 -2.05115 1.21518 -10.0345 -2.08185 1.1997 
-10.0709 -2.11244 1.18382 -10.1071 -2.14293 1.16754 -10.1433 -2.17332 1.15085 
-10.1793 -2.20362 1.13376 -10.2152 -2.23382 1.11628 -10.2511 -2.26393 1.09839 
-10.2867 -2.29394 1.08011 -10.3223 -2.32387 1.06144 -10.3577 -2.35371 1.04237 
-10.393 -2.38347 1.02291 -10.4281 -2.41315 1.00307 -10.4631 -2.44274 0.982834 
-10.4979 -2.47226 0.962214 -10.5326 -2.50169 0.941211 -10.5671 -2.53106 0.919825 
-10.6014 -2.56035 0.898058 -10.6355 -2.58957 0.875912 -10.6695 -2.61872 0.853388 
-10.7032 -2.6478 0.830488 -10.7367 -2.67682 0.807215 -10.7701 -2.70578 0.783569 
-10.8032 -2.73467 0.759551 -10.8361 -2.76351 0.735166 -10.8688 -2.79229 0.710416 
-10.9012 -2.82101 0.685305 -10.9335 -2.84969 0.659836 -10.9654 -2.87832 0.634014 
-10.9972 -2.90691 0.607842 -11.0286 -2.93545 0.581324 -11.0599 -2.96396 0.554463 
-11.0908 -2.99244 0.527262 -11.1215 -3.02088 0.499727 -11.1519 -3.04929 0.471859 
-11.1821 -3.07768 0.443664 -11.2119 -3.10604 0.415144 -11.2415 -3.13439 0.386304 
-11.2707 -3.16271 0.357146 -11.2997 -3.19103 0.327675 -11.3284 -3.21933 0.297894 
-11.3567 -3.24762 0.267808 -11.3847 -3.27591 0.237418 -11.4124 -3.3042 0.20673 
-11.4398 -3.33249 0.175748 -11.4668 -3.36078 0.144475 -11.4936 -3.38908 0.112917 
-11.5199 -3.41739 0.0810798 -11.5459 -3.44571 0.0489673 -11.5716 -3.47404 0.0165849 
-11.5969 -3.5024 -0.0160626 -11.6218 -3.53078 -0.0489701 -11.6464 -3.55918 -0.0821327 
-11.6706 -3.5876 -0.115545 -11.6944 -3.61606 -0.149203 -11.7178 -3.64455 -0.183101 
-11.7408 -3.67308 -0.217234 -11.7635 -3.70164 -0.251597 -11.7857 -3.73025 -0.286186 
-11.8075 -3.7589 -0.320995 -11.829 -3.7876 -0.356018 -11.85 -3.81635 -0.391253 
-11.8706 -3.84516 -0.426692 -11.8908 -3.87402 -0.462332 -11.9105 -3.90294 -0.498167 
-11.9298 -3.93192 -0.534192 -11.9487 -3.96096 -0.5704 -11.9671 -3.99006 -0.606785 
-11.9851 -4.01923 -0.643342 -12.0027 -4.04847 -0.680064 -12.0198 -4.07777 -0.716945 
-12.0364 -4.10714 -0.75398 -12.0526 -4.13658 -0.791162 -12.0683 -4.16609 -0.828485 
-12.0836 -4.19567 -0.865943 -12.0983 -4.22533 -0.903531 -12.1127 -4.25506 -0.941242 
-12.1265 -4.28487 -0.97907 -12.1398 -4.31475 -1.01701 -12.1527 -4.34471 -1.05505 
-12.1651 -4.37475 -1.0932 -12.177 -4.40487 -1.13143 -12.1884 -4.43507 -1.16976 
-12.1993 -4.46536 -1.20816 -12.2097 -4.49573 -1.24664 -12.2196 -4.52619 -1.28519 
-12.229 -4.55673 -1.3238 -12.2379 -4.58735 -1.36247 -12.2463 -4.61805 -1.40118 
-12.2542 -4.64884 -1.43994 -12.2616 -4.67971 -1.47873 -12.2684 -4.71066 -1.51756 
-12.2748 -4.74169 -1.5564 -12.2806 -4.7728 -1.59527 -12.2859 -4.80399 -1.63414 
-12.2907 -4.83525 -1.67302 -12.295 -4.8666 -1.71189 -12.2988 -4.89802 -1.75075 
-12.302 -4.92952 -1.7896 -12.3048 -4.9611 -1.82843 -12.307 -4.99275 -1.86722 
-12.3087 -5.02448 -1.90598 -12.3098 -5.05628 -1.9447 -12.3105 -5.08815 -1.98337 
-12.3106 -5.1201 -2.02198 -12.3102 -5.15212 -2.06053 -12.3092 -5.18421 -2.09902 
-12.3078 -5.21637 -2.13743 -12.3058 -5.2486 -2.17576 -12.3033 -5.2809 -2.21401 
-12.3003 -5.31326 -2.25216 -12.2968 -5.34569 -2.29022 -12.2928 -5.37817 -2.32818 
-12.2882 -5.41072 -2.36603 -12.2832 -5.44333 -2.40376 -12.2777 -5.47599 -2.44137 
-12.2716 -5.50871 -2.47886 -12.2651 -5.54149 -2.51621 -12.2581 -5.57431 -2.55343 
-12.2505 -5.60719 -2.5905 -12.2425 -5.64013 -2.62742 -12.234 -5.67311 -2.66418 
-12.225 -5.70613 -2.70079 -12.2156 -5.73921 -2.73722 -12.2056 -5.77233 -2.77348 
-12.1952 -5.80549 -2.80957 -12.1843 -5.83869 -2.84547 -12.173 -5.87193 -2.88118 
[...]
CELL_DATA 1
FIELD FieldData 2
Length 1 1 double
63.889747897 
Tortuosity 1 1 double
0.91119407946 
POINT_DATA 1278
SCALARS MaximumInscribedSphereRadius float
LOOKUP_TABLE default
1.116 1.11229 1.10859 1.10488 1.10117 1.09746 1.09376 1.09005 1.08634 
1.08264 1.07893 1.07522 1.07152 1.06781 1.0641 1.06039 1.05669 1.05298 
1.04927 1.04557 1.04186 1.03814 1.03427 1.0304 1.02653 1.02265 1.01878 
1.01491 1.01104 1.00717 1.0033 0.99943 0.995559 0.991688 0.987817 0.983946 
0.980076 0.976205 0.972334 0.968463 0.964592 0.962711 0.961994 0.961277 0.96056 
0.959843 0.959126 0.958408 0.957691 0.956974 0.956257 0.95554 0.954822 0.954105 
0.953388 0.952671 0.951954 0.951236 0.950519 0.949802 0.949085 0.948651 0.949983 
0.951315 0.952646 0.953978 0.95531 0.956641 0.957973 0.959304 0.960636 0.961968 
0.963299 0.964631 0.965963 0.967294 0.968626 0.969957 0.971289 0.972621 0.973952 
0.975284 0.974507 0.973511 0.972515 0.97152 0.970524 0.969528 0.968532 0.967537 
0.966541 0.965545 0.964549 0.963554 0.962558 0.961562 0.960567 0.959571 0.958575 
0.957579 0.956584 0.955588 0.956388 0.958188 0.959987 0.961787 0.963586 0.965385 
0.967185 0.968984 0.970784 0.972583 0.974383 0.976182 0.977982 0.979781 0.98158 
0.98338 0.985179 0.986979 0.988778 0.990578 0.99601 1.00744 1.01887 1.0303 
1.04172 1.05315 1.06458 1.07601 1.08744 1.09887 1.11029 1.12172 1.13315 
1.14458 1.15601 1.16744 1.17886 1.19029 1.20172 1.21315 1.22398 1.22969 
1.23539 1.2411 1.24681 1.25252 1.25823 1.26394 1.26964 1.27535 1.28106 
1.28677 1.29248 1.29819 1.30389 1.3096 1.31531 1.32102 1.32673 1.33244 
1.33814 1.33671 1.33378 1.33085 1.32792 1.325 1.32207 1.31914 1.31621 
1.31328 1.31035 1.30743 1.3045 1.30157 1.29864 1.29571 1.29279 1.28986 
1.28693 1.284 1.28107 1.27671 1.27116 1.26561 1.26006 1.2545 1.24895 
1.2434 1.23785 1.2323 1.22675 1.2212 1.21565 1.2101 1.20455 1.199 
1.19345 1.1879 1.18235 1.1768 1.17124 1.16558 1.15959 1.1536 1.14761 
1.14162 1.13563 1.12964 1.12365 1.11766 1.11167 1.10568 1.09969 1.0937 
1.08771 1.08172 1.07573 1.06974 1.06375 1.05777 1.05178 1.04579 1.04848 
1.05122 1.05396 1.0567 1.05944 1.06218 1.06492 1.06767 1.07041 1.07315 
1.07589 1.07863 1.08137 1.08412 1.08686 1.0896 1.09234 1.09508 1.09782 
1.10057 1.10669 1.11413 1.12157 1.12901 1.13645 1.14389 1.15133 1.15877 
1.16621 1.17365 1.18109 1.18853 1.19597 1.20341 1.21085 1.21828 1.22572 
1.23316 1.2406 1.24804 1.24906 1.24217 1.23528 1.22839 1.2215 1.2146 
1.20771 1.20082 1.19393 1.18703 1.18014 1.17325 1.16636 1.15947 1.15257 
1.14568 1.13879 1.1319 1.12501 1.11811 1.11165 1.1072 1.10275 1.0983 
1.09385 1.0894 1.08495 1.0805 1.07605 1.07161 1.06716 1.06271 1.05826 
1.05381 1.04936 1.04491 1.04046 1.03601 1.03156 1.02711 1.02266 1.02806 
1.03452 1.04098 1.04743 1.05389 1.06035 1.06681 1.07327 1.07972 1.08618 
1.09264 1.0991 1.10555 1.11201 1.11847 1.12493 1.13139 1.13784 1.1443 
1.15076 1.1556 1.1595 1.1634 1.1673 1.17119 1.17509 1.17899 1.18289 
1.18679 1.19069 1.19459 1.19849 1.20239 1.20629 1.21019 1.21408 1.21798 
1.22188 1.22578 1.22968 1.2323 1.23269 1.23307 1.23346 1.23385 1.23423 
1.23462 1.23501 1.2354 1.23578 1.23617 1.23656 1.23694 1.23733 1.23772 
1.2381 1.23849 1.23888 1.23926 1.23965 1.24009 1.24106 1.24202 1.24299 
1.24395 1.24492 1.24588 1.24685 1.24781 1.24878 1.24974 1.25071 1.25167 
1.25264 1.2536 1.25457 1.25553 1.2565 1.25746 1.25843 1.25939 1.2613 
1.26341 1.26553 1.26764 1.26975 1.27186 1.27397 1.27608 1.2782 1.28031 
1.28242 1.28453 1.28664 1.28875 1.29087 1.29298 1.29509 1.2972 1.29931 
1.30142 1.30505 1.3099 1.31476 1.31961 1.32446 1.32932 1.33417 1.33903 
1.34388 1.34873 1.35359 1.35844 1.36329 1.36815 1.373 1.37786 1.38271 
1.38756 1.39242 1.39727 1.40228 1.40767 1.41306 1.41844 1.42383 1.42922 
1.43461 1.44 1.44538 1.45077 1.45616 1.46155 1.46694 1.47232 1.47771 
1.4831 1.48849 1.49388 1.49926 1.50465 1.50938 1.50061 1.49183 1.48306 
1.47428 1.4655 1.45673 1.44795 1.43918 1.4304 1.42162 1.41285 1.40407 
1.39529 1.38652 1.37774 1.36897 1.36019 1.35141 1.34264 1.33386 1.34858 
1.36403 1.37947 1.39492 1.41036 1.42581 1.44125 1.45669 1.47214 1.48758 
1.50303 1.51847 1.53392 1.54936 1.56481 1.58025 1.59569 1.61114 1.62658 
1.64203 1.65066 1.65651 1.66236 1.6682 1.67405 1.6799 1.68575 1.6916 
1.69744 1.70329 1.70914 1.71499 1.72084 1.72668 1.73253 1.73838 1.74423 
1.75007 1.75592 1.76177 1.76143 1.75377 1.74612 1.73846 1.7308 1.72314 
1.71548 1.70782 1.70016 1.69251 1.68485 1.67719 1.66953 1.66187 1.65421 
1.64656 1.6389 1.63124 1.62358 1.61592 1.61051 1.6157 1.62089 1.62608 
1.63126 1.63645 1.64164 1.64683 1.65202 1.65721 1.6624 1.66759 1.67278 
1.67797 1.68316 1.68835 1.69354 1.69873 1.70392 1.70911 1.7143 1.72177 
1.72951 1.73725 1.74499 1.75273 1.76047 1.76821 1.77595 1.78369 1.79143 
1.79917 1.80691 1.81465 1.82239 1.83013 1.83788 1.84562 1.85336 1.8611 
1.86884 1.87702 1.88549 1.89396 1.90242 1.91089 1.91935 1.92782 1.93629 
1.94475 1.95322 1.96169 1.97015 1.97862 1.98708 1.99555 2.00402 2.01248 
2.02095 2.02942 2.03788 2.04314 2.04228 2.04142 2.04056 2.03969 2.03883 
2.03797 2.0371 2.03624 2.03538 2.03452 2.03365 2.03279 2.03193 2.03106 
2.0302 2.02934 2.02848 2.02761 2.02675 2.02486 2.00998 1.9951 1.98022 
1.96534 1.95046 1.93558 1.9207 1.90582 1.89094 1.87606 1.86118 1.8463 
1.83142 1.81654 1.80166 1.78678 1.7719 1.75702 1.74214 1.72726 1.72407 
1.72373 1.72339 1.72305 1.72271 1.72236 1.72202 1.72168 1.72134 1.721 
1.72066 1.72032 1.71998 1.71964 1.7193 1.71896 1.71862 1.71828 1.71794 
1.7176 1.7254 1.7404 1.75541 1.77042 1.78542 1.80043 1.81543 1.83044 
1.84545 1.86045 1.87546 1.89046 1.90547 1.92047 1.93548 1.95049 1.96549 
1.9805 1.9955 2.01051 2.02223 2.0244 2.02656 2.02872 2.03089 2.03305 
2.03521 2.03737 2.03954 2.0417 2.04386 2.04603 2.04819 2.05035 2.05252 
2.05468 2.05684 2.05901 2.06117 2.06333 2.06549 2.05769 2.04968 2.04166 
2.03364 2.02562 2.01761 2.00959 2.00157 1.99356 1.98554 1.97752 1.9695 
1.96149 1.95347 1.94545 1.93744 1.92942 1.9214 1.91338 1.90537 1.90148 
1.89937 1.89725 1.89513 1.89301 1.89089 1.88877 1.88665 1.88453 1.88241 
1.8803 1.87818 1.87606 1.87394 1.87182 1.8697 1.86758 1.86546 1.86334 
1.86122 1.85919 1.85729 1.85538 1.85347 1.85156 1.84965 1.84774 1.84583 
1.84392 1.84201 1.8401 1.8382 1.83629 1.83438 1.83247 1.83056 1.82865 
1.82674 1.82483 1.82292 1.81949 1.80706 1.79463 1.78219 1.76976 1.75733 
1.74489 1.73246 1.72003 1.70759 1.69516 1.68273 1.67029 1.65786 1.64543 
1.63299 1.62056 1.60813 1.59569 1.58326 1.57083 1.55752 1.54408 1.53064 
1.5172 1.50376 1.49032 1.47688 1.46344 1.45 1.43656 1.42312 1.40968 
1.39623 1.38279 1.36935 1.35591 1.34247 1.32903 1.31559 1.30215 1.29508 
1.29228 1.28948 1.28668 1.28388 1.28108 1.27828 1.27548 1.27268 1.26988 
1.26708 1.26428 1.26148 1.25868 1.25588 1.25308 1.25028 1.24748 1.24468 
1.24188 1.24063 1.24255 1.24447 1.24639 1.24831 1.25023 1.25215 1.25408 
1.256 1.25792 1.25984 1.26176 1.26368 1.2656 1.26752 1.26944 1.27136 
1.27328 1.2752 1.27712 1.27939 1.28773 1.29606 1.3044 1.31273 1.32107 
1.3294 1.33774 1.34607 1.35441 1.36274 1.37108 1.37941 1.38775 1.39608 
1.40442 1.41275 1.42109 1.42942 1.43775 1.44609 1.44891 1.4502 1.45148 
1.45276 1.45405 1.45533 1.45661 1.4579 1.45918 1.46046 1.46175 1.46303 
1.46431 1.4656 1.46688 1.46816 1.46945 1.47073 1.47201 1.4733 1.47004 
1.46235 1.45466 1.44697 1.43928 1.4316 1.42391 1.41622 1.40853 1.40084 
1.39315 1.38546 1.37777 1.37009 1.3624 1.35471 1.34702 1.33933 1.33164 
1.32395 1.3204 1.33081 1.34122 1.35163 1.36204 1.37245 1.38286 1.39327 
1.40368 1.41409 1.4245 1.4349 1.44531 1.45572 1.46613 1.47654 1.48695 
1.49736 1.50777 1.51818 1.52859 1.5517 1.57548 1.59926 1.62303 1.64681 
1.67058 1.69436 1.71814 1.74191 1.76569 1.78947 1.81324 1.83702 1.8608 
1.88457 1.90835 1.93212 1.9559 1.97968 2.00345 2.01089 2.01031 2.00974 
2.00916 2.00859 2.00802 2.00744 2.00687 2.0063 2.00572 2.00515 2.00458 
2.004 2.00343 2.00286 2.00228 2.00171 2.00114 2.00056 1.99999 1.99294 
1.97582 1.9587 1.94158 1.92445 1.90733 1.89021 1.87309 1.85597 1.83885 
1.82173 1.80461 1.78749 1.77036 1.75324 1.73612 1.719 1.70188 1.68476 
1.66764 1.6527 1.6551 1.6575 1.6599 1.6623 1.6647 1.6671 1.6695 
1.67191 1.67431 1.67671 1.67911 1.68151 1.68391 1.68631 1.68871 1.69111 
1.69351 1.69592 1.69832 1.70072 1.70787 1.71599 1.72411 1.73222 1.74034 
1.74846 1.75657 1.76469 1.7728 1.78092 1.78904 1.79715 1.80527 1.81338 
1.8215 1.82962 1.83773 1.84585 1.85396 1.86208 1.86589 1.86619 1.86649 
1.86679 1.8671 1.8674 1.8677 1.868 1.8683 1.86861 1.86891 1.86921 
1.86951 1.86982 1.87012 1.87042 1.87072 1.87102 1.87133 1.87163 1.87228 
1.87386 1.87545 1.87704 1.87862 1.88021 1.88179 1.88338 1.88496 1.88655 
1.88814 1.88972 1.89131 1.89289 1.89448 1.89606 1.89765 1.89924 1.90082 
1.90241 1.90399 1.91067 1.9174 1.92413 1.93086 1.93759 1.94432 1.95105 
1.95778 1.96451 1.97124 1.97797 1.98471 1.99144 1.99817 2.0049 2.01163 
2.01836 2.02509 2.03182 2.03855 2.04167 2.04332 2.04498 2.04663 2.04829 
2.04994 2.0516 2.05325 2.05491 2.05656 2.05822 2.05988 2.06153 2.06319 
2.06484 2.0665 2.06815 2.06981 2.07146 2.07312 2.06485 2.04377 2.02269 
2.0016 1.98052 1.95943 1.93835 1.91727 1.89618 1.8751 1.85401 1.83293 
1.81185 1.79076 1.76968 1.7486 1.72751 1.70643 1.68534 1.66426 1.64488 
1.63424 1.6236 1.61296 1.60232 1.59168 1.58103 1.57039 1.55975 1.54911 
1.53847 1.52783 1.51719 1.50655 1.4959 1.48526 1.47462 1.46398 1.45334 
1.4427 1.43206 1.43509 1.4397 1.44432 1.44893 1.45355 1.45816 1.46278 
1.4674 1.47201 1.47663 1.48124 1.48586 1.49048 1.49509 1.49971 1.50432 
1.50894 1.51356 1.51817 1.52279 1.52527 1.52653 1.52779 1.52904 1.5303 
1.53156 1.53282 1.53408 1.53533 1.53659 1.53785 1.53911 1.54037 1.54162 
1.54288 1.54414 1.5454 1.54666 1.54791 1.54917 1.55021 1.55088 1.55155 
1.55223 1.5529 1.55357 1.55424 1.55491 1.55559 1.55626 1.55693 1.5576 
1.55827 1.55895 1.55962 1.56029 1.56096 1.56163 1.56231 1.56298 1.56434 
1.57175 1.57915 1.58655 1.59395 1.60135 1.60875 1.61615 1.62355 1.63095 
1.63836 1.64576 1.65316 1.66056 1.66796 1.67536 1.68276 1.69016 1.69756 
1.70497 1.71237 1.71531 1.71756 1.71981 1.72206 1.72431 1.72656 1.72881 
1.73106 1.73331 1.73556 1.73781 1.74006 1.74231 1.74456 1.74681 1.74906 
1.75131 1.75356 1.75581 1.75806 1.75522 1.74371 1.73221 1.7207 1.7092 
1.69769 1.68619 1.67468 1.66317 1.65167 1.64016 1.62866 1.61715 1.60565 
1.59414 1.58264 1.57113 1.55963 1.54812 1.53662 1.5227 1.50856 1.49443 
1.48029 1.46616 1.45202 1.43789 1.42375 1.40962 1.39548 1.38135 1.36721 
1.35308 1.33894 1.32481 1.31067 1.29654 1.2824 1.26827 1.25413 1.24 

TEXTURE_COORDINATES TCoords 2 float
0 0 0.000783085 0 0.00156617 0 0.00234926 0 0.00313234 
0 0.00391543 0 0.00469851 0 0.0054816 0 0.00626468 0 
0.00704777 0 0.00783085 0 0.00861394 0 0.00939702 0 0.0101801 
0 0.0109632 0 0.0117463 0 0.0125294 0 0.0133125 0 
0.0140955 0 0.0148786 0 0.0156617 0 0.0164448 0 0.0172279 
0 0.018011 0 0.018794 0 0.0195771 0 0.0203602 0 
0.0211433 0 0.0219264 0 0.0227095 0 0.0234926 0 0.0242756 
0 0.0250587 0 0.0258418 0 0.0266249 0 0.027408 0 
0.0281911 0 0.0289742 0 0.0297572 0 0.0305403 0 0.0313234 
0 0.0321065 0 0.0328896 0 0.0336727 0 0.0344558 0 
0.0352388 0 0.0360219 0 0.036805 0 0.0375881 0 0.0383712 
0 0.0391543 0 0.0399374 0 0.0407204 0 0.0415035 0 
0.0422866 0 0.0430697 0 0.0438528 0 0.0446359 0 0.045419 
0 0.046202 0 0.0469851 0 0.0477682 0 0.0485513 0 
0.0493344 0 0.0501175 0 0.0509005 0 0.0516836 0 0.0524667 
0 0.0532498 0 0.0540329 0 0.054816 0 0.0555991 0 
0.0563821 0 0.0571652 0 0.0579483 0 0.0587314 0 0.0595145 
0 0.0602976 0 0.0610807 0 0.0618637 0 0.0626468 0 
0.0634299 0 0.064213 0 0.0649961 0 0.0657792 0 0.0665623 
0 0.0673453 0 0.0681284 0 0.0689115 0 0.0696946 0 
0.0704777 0 0.0712608 0 0.0720439 0 0.0728269 0 0.07361 
0 0.0743931 0 0.0751762 0 0.0759593 0 0.0767424 0 
0.0775255 0 0.0783085 0 0.0790916 0 0.0798747 0 0.0806578 
0 0.0814409 0 0.082224 0 0.083007 0 0.0837901 0 
0.0845732 0 0.0853563 0 0.0861394 0 0.0869225 0 0.0877056 
0 0.0884886 0 0.0892717 0 0.0900548 0 0.0908379 0 
0.091621 0 0.0924041 0 0.0931872 0 0.0939702 0 0.0947533 
0 0.0955364 0 0.0963195 0 0.0971026 0 0.0978857 0 
0.0986688 0 0.0994518 0 0.100235 0 0.101018 0 0.101801 
0 0.102584 0 0.103367 0 0.10415 0 0.104933 0 
0.105717 0 0.1065 0 0.107283 0 0.108066 0 0.108849 
0 0.109632 0 0.110415 0 0.111198 0 0.111981 0 
0.112764 0 0.113547 0 0.11433 0 0.115114 0 0.115897 
0 0.11668 0 0.117463 0 0.118246 0 0.119029 0 
0.119812 0 0.120595 0 0.121378 0 0.122161 0 0.122944 
0 0.123727 0 0.124511 0 0.125294 0 0.126077 0 
0.12686 0 0.127643 0 0.128426 0 0.129209 0 0.129992 
0 0.130775 0 0.131558 0 0.132341 0 0.133125 0 
0.133908 0 0.134691 0 0.135474 0 0.136257 0 0.13704 
0 0.137823 0 0.138606 0 0.139389 0 0.140172 0 
0.140955 0 0.141738 0 0.142522 0 0.143305 0 0.144088 
0 0.144871 0 0.145654 0 0.146437 0 0.14722 0 
0.148003 0 0.148786 0 0.149569 0 0.150352 0 0.151135 
0 0.151919 0 0.152702 0 0.153485 0 0.154268 0 
0.155051 0 0.155834 0 0.156617 0 0.1574 0 0.158183 
0 0.158966 0 0.159749 0 0.160533 0 0.161316 0 
0.162099 0 0.162882 0 0.163665 0 0.164448 0 0.165231 
0 0.166014 0 0.166797 0 0.16758 0 0.168363 0 
0.169146 0 0.16993 0 0.170713 0 0.171496 0 0.172279 
0 0.173062 0 0.173845 0 0.174628 0 0.175411 0 
0.176194 0 0.176977 0 0.17776 0 0.178543 0 0.179327 
0 0.18011 0 0.180893 0 0.181676 0 0.182459 0 
0.183242 0 0.184025 0 0.184808 0 0.185591 0 0.186374 
0 0.187157 0 0.18794 0 0.188724 0 0.189507 0 
0.19029 0 0.191073 0 0.191856 0 0.192639 0 0.193422 
0 0.194205 0 0.194988 0 0.195771 0 0.196554 0 
0.197338 0 0.198121 0 0.198904 0 0.199687 0 0.20047 
0 0.201253 0 0.202036 0 0.202819 0 0.203602 0 
0.204385 0 0.205168 0 0.205951 0 0.206735 0 0.207518 
0 0.208301 0 0.209084 0 0.209867 0 0.21065 0 
0.211433 0 0.212216 0 0.212999 0 0.213782 0 0.214565 
0 0.215348 0 0.216132 0 0.216915 0 0.217698 0 
0.218481 0 0.219264 0 0.220047 0 0.22083 0 0.221613 
0 0.222396 0 0.223179 0 0.223962 0 0.224745 0 
0.225529 0 0.226312 0 0.227095 0 0.227878 0 0.228661 
0 0.229444 0 0.230227 0 0.23101 0 0.231793 0 
0.232576 0 0.233359 0 0.234143 0 0.234926 0 0.235709 
0 0.236492 0 0.237275 0 0.238058 0 0.238841 0 
0.239624 0 0.240407 0 0.24119 0 0.241973 0 0.242756 
0 0.24354 0 0.244323 0 0.245106 0 0.245889 0 
0.246672 0 0.247455 0 0.248238 0 0.249021 0 0.249804 
0 0.250587 0 0.25137 0 0.252153 0 0.252937 0 
0.25372 0 0.254503 0 0.255286 0 0.256069 0 0.256852 
0 0.257635 0 0.258418 0 0.259201 0 0.259984 0 
0.260767 0 0.261551 0 0.262334 0 0.263117 0 0.2639 
0 0.264683 0 0.265466 0 0.266249 0 0.267032 0 
0.267815 0 0.268598 0 0.269381 0 0.270164 0 0.270948 
0 0.271731 0 0.272514 0 0.273297 0 0.27408 0 
0.274863 0 0.275646 0 0.276429 0 0.277212 0 0.277995 
0 0.278778 0 0.279561 0 0.280345 0 0.281128 0 
0.281911 0 0.282694 0 0.283477 0 0.28426 0 0.285043 
0 0.285826 0 0.286609 0 0.287392 0 0.288175 0 
0.288958 0 0.289742 0 0.290525 0 0.291308 0 0.292091 
0 0.292874 0 0.293657 0 0.29444 0 0.295223 0 
0.296006 0 0.296789 0 0.297572 0 0.298356 0 0.299139 
0 0.299922 0 0.300705 0 0.301488 0 0.302271 0 
0.303054 0 0.303837 0 0.30462 0 0.305403 0 0.306186 
0 0.306969 0 0.307753 0 0.308536 0 0.309319 0 
0.310102 0 0.310885 0 0.311668 0 0.312451 0 0.313234 
0 0.314017 0 0.3148 0 0.315583 0 0.316366 0 
0.31715 0 0.317933 0 0.318716 0 0.319499 0 0.320282 
0 0.321065 0 0.321848 0 0.322631 0 0.323414 0 
0.324197 0 0.32498 0 0.325763 0 0.326547 0 0.32733 
0 0.328113 0 0.328896 0 0.329679 0 0.330462 0 
0.331245 0 0.332028 0 0.332811 0 0.333594 0 0.334377 
0 0.335161 0 0.335944 0 0.336727 0 0.33751 0 
0.338293 0 0.339076 0 0.339859 0 0.340642 0 0.341425 
0 0.342208 0 0.342991 0 0.343774 0 0.344558 0 
0.345341 0 0.346124 0 0.346907 0 0.34769 0 0.348473 
0 0.349256 0 0.350039 0 0.350822 0 0.351605 0 
0.352388 0 0.353171 0 0.353955 0 0.354738 0 0.355521 
0 0.356304 0 0.357087 0 0.35787 0 0.358653 0 
0.359436 0 0.360219 0 0.361002 0 0.361785 0 0.362569 
0 0.363352 0 0.364135 0 0.364918 0 0.365701 0 
0.366484 0 0.367267 0 0.36805 0 0.368833 0 0.369616 
0 0.370399 0 0.371182 0 0.371966 0 0.372749 0 
0.373532 0 0.374315 0 0.375098 0 0.375881 0 0.376664 
0 0.377447 0 0.37823 0 0.379013 0 0.379796 0 
0.380579 0 0.381363 0 0.382146 0 0.382929 0 0.383712 
0 0.384495 0 0.385278 0 0.386061 0 0.386844 0 
0.387627 0 0.38841 0 0.389193 0 0.389977 0 0.39076 
0 0.391543 0 0.392326 0 0.393109 0 0.393892 0 
0.394675 0 0.395458 0 0.396241 0 0.397024 0 0.397807 
0 0.39859 0 0.399374 0 0.400157 0 0.40094 0 
0.401723 0 0.402506 0 0.403289 0 0.404072 0 0.404855 
0 0.405638 0 0.406421 0 0.407204 0 0.407987 0 
0.408771 0 0.409554 0 0.410337 0 0.41112 0 0.411903 
0 0.412686 0 0.413469 0 0.414252 0 0.415035 0 
0.415818 0 0.416601 0 0.417385 0 0.418168 0 0.418951 
0 0.419734 0 0.420517 0 0.4213 0 0.422083 0 
0.422866 0 0.423649 0 0.424432 0 0.425215 0 0.425998 
0 0.426782 0 0.427565 0 0.428348 0 0.429131 0 
0.429914 0 0.430697 0 0.43148 0 0.432263 0 0.433046 
0 0.433829 0 0.434612 0 0.435395 0 0.436179 0 
0.436962 0 0.437745 0 0.438528 0 0.439311 0 0.440094 
0 0.440877 0 0.44166 0 0.442443 0 0.443226 0 
0.444009 0 0.444792 0 0.445576 0 0.446359 0 0.447142 
0 0.447925 0 0.448708 0 0.449491 0 0.450274 0 
0.451057 0 0.45184 0 0.452623 0 0.453406 0 0.45419 
0 0.454973 0 0.455756 0 0.456539 0 0.457322 0 
0.458105 0 0.458888 0 0.459671 0 0.460454 0 0.461237 
0 0.46202 0 0.462803 0 0.463587 0 0.46437 0 
0.465153 0 0.465936 0 0.466719 0 0.467502 0 0.468285 
0 0.469068 0 0.469851 0 0.470634 0 0.471417 0 
0.4722 0 0.472984 0 0.473767 0 0.47455 0 0.475333 
0 0.476116 0 0.476899 0 0.477682 0 0.478465 0 
0.479248 0 0.480031 0 0.480814 0 0.481597 0 0.482381 
0 0.483164 0 0.483947 0 0.48473 0 0.485513 0 
0.486296 0 0.487079 0 0.487862 0 0.488645 0 0.489428 
0 0.490211 0 0.490995 0 0.491778 0 0.492561 0 
0.493344 0 0.494127 0 0.49491 0 0.495693 0 0.496476 
0 0.497259 0 0.498042 0 0.498825 0 0.499608 0 
0.500392 0 0.501175 0 0.501958 0 0.502741 0 0.503524 
0 0.504307 0 0.50509 0 0.505873 0 0.506656 0 
0.507439 0 0.508222 0 0.509005 0 0.509789 0 0.510572 
0 0.511355 0 0.512138 0 0.512921 0 0.513704 0 
0.514487 0 0.51527 0 0.516053 0 0.516836 0 0.517619 
0 0.518403 0 0.519186 0 0.519969 0 0.520752 0 
0.521535 0 0.522318 0 0.523101 0 0.523884 0 0.524667 
0 0.52545 0 0.526233 0 0.527016 0 0.5278 0 
0.528583 0 0.529366 0 0.530149 0 0.530932 0 0.531715 
0 0.532498 0 0.533281 0 0.534064 0 0.534847 0 
0.53563 0 0.536413 0 0.537197 0 0.53798 0 0.538763 
0 0.539546 0 0.540329 0 0.541112 0 0.541895 0 
0.542678 0 0.543461 0 0.544244 0 0.545027 0 0.545811 
0 0.546594 0 0.547377 0 0.54816 0 0.548943 0 
0.549726 0 0.550509 0 0.551292 0 0.552075 0 0.552858 
0 0.553641 0 0.554424 0 0.555207 0 0.555991 0 
0.556774 0 0.557557 0 0.55834 0 0.559123 0 0.559906 
0 0.560689 0 0.561472 0 0.562255 0 0.563038 0 
0.563821 0 0.564605 0 0.565388 0 0.566171 0 0.566954 
0 0.567737 0 0.56852 0 0.569303 0 0.570086 0 
0.570869 0 0.571652 0 0.572435 0 0.573218 0 0.574002 
0 0.574785 0 0.575568 0 0.576351 0 0.577134 0 
0.577917 0 0.5787 0 0.579483 0 0.580266 0 0.581049 
0 0.581832 0 0.582615 0 0.583399 0 0.584182 0 
0.584965 0 0.585748 0 0.586531 0 0.587314 0 0.588097 
0 0.58888 0 0.589663 0 0.590446 0 0.591229 0 
0.592013 0 0.592796 0 0.593579 0 0.594362 0 0.595145 
0 0.595928 0 0.596711 0 0.597494 0 0.598277 0 
0.59906 0 0.599843 0 0.600626 0 0.60141 0 0.602193 
0 0.602976 0 0.603759 0 0.604542 0 0.605325 0 
0.606108 0 0.606891 0 0.607674 0 0.608457 0 0.60924 
0 0.610023 0 0.610807 0 0.61159 0 0.612373 0 
0.613156 0 0.613939 0 0.614722 0 0.615505 0 0.616288 
0 0.617071 0 0.617854 0 0.618637 0 0.619421 0 
0.620204 0 0.620987 0 0.62177 0 0.622553 0 0.623336 
0 0.624119 0 0.624902 0 0.625685 0 0.626468 0 
0.627251 0 0.628034 0 0.628818 0 0.629601 0 0.630384 
0 0.631167 0 0.63195 0 0.632733 0 0.633516 0 
0.634299 0 0.635082 0 0.635865 0 0.636648 0 0.637432 
0 0.638215 0 0.638998 0 0.639781 0 0.640564 0 
0.641347 0 0.64213 0 0.642913 0 0.643696 0 0.644479 
0 0.645262 0 0.646045 0 0.646829 0 0.647612 0 
0.648395 0 0.649178 0 0.649961 0 0.650744 0 0.651527 
0 0.65231 0 0.653093 0 0.653876 0 0.654659 0 
0.655442 0 0.656226 0 0.657009 0 0.657792 0 0.658575 