# vtk DataFile Version 4.2
vtk output
ASCII
DATASET POLYDATA
POINTS 1277 float
0 0 0 -0.00401037 -0.000644046 0.000349564 -0.015706 -0.0025312 0.00137826 
-0.0345837 -0.00559398 0.00305609 -0.0601402 -0.00976491 0.00535307 -0.0918724 -0.0149765 0.00823919 
-0.129277 -0.0211613 0.0116845 -0.171851 -0.0282518 0.0156589 -0.219091 -0.0361806 0.0201325 
-0.270493 -0.0448801 0.0250752 -0.325556 -0.0542829 0.0304572 -0.383774 -0.0643215 0.0362482 
-0.444646 -0.0749285 0.0424185 -0.507668 -0.0860363 0.048938 -0.572336 -0.0975775 0.0557766 
-0.638148 -0.109485 0.0629045 -0.7046 -0.12169 0.0702915 -0.77119 -0.134126 0.0779078 
-0.837413 -0.146726 0.0857233 -0.902767 -0.159422 0.0937079 -0.966749 -0.172147 0.101832 
-1.02885 -0.184832 0.110065 -1.0887 -0.197428 0.118383 -1.14635 -0.209942 0.126783 
-1.20193 -0.222396 0.135266 -1.2556 -0.234813 0.143833 -1.30751 -0.247212 0.152485 
-1.3578 -0.259617 0.161224 -1.40662 -0.272048 0.17005 -1.45413 -0.284527 0.178965 
-1.50045 -0.297075 0.187971 -1.54575 -0.309715 0.197068 -1.59017 -0.322468 0.206258 
-1.63385 -0.335355 0.215541 -1.67695 -0.348397 0.22492 -1.71961 -0.361618 0.234394 
-1.76198 -0.375037 0.243967 -1.80421 -0.388677 0.253638 -1.84644 -0.402559 0.263408 
-1.88882 -0.416704 0.27328 -1.93151 -0.431135 0.283255 -1.97463 -0.445873 0.293332 
-2.01823 -0.460925 0.303511 -2.06227 -0.476291 0.313786 -2.10672 -0.491971 0.324151 
-2.15153 -0.507962 0.334603 -2.19666 -0.524266 0.345135 -2.24208 -0.540879 0.355743 
-2.28774 -0.557802 0.366422 -2.3336 -0.575033 0.377167 -2.37963 -0.592571 0.387972 
-2.42578 -0.610416 0.398832 -2.47201 -0.628567 0.409743 -2.51829 -0.647021 0.420699 
-2.56457 -0.66578 0.431696 -2.61081 -0.68484 0.442728 -2.65698 -0.704203 0.45379 
-2.70303 -0.723865 0.464877 -2.74892 -0.743828 0.475984 -2.79462 -0.764089 0.487106 
-2.84008 -0.784647 0.498238 -2.88526 -0.805502 0.509375 -2.93014 -0.826653 0.520512 
-2.97472 -0.848098 0.531646 -3.01901 -0.869838 0.542774 -3.06302 -0.891871 0.553892 
-3.10676 -0.914197 0.564997 -3.15024 -0.936814 0.576085 -3.19346 -0.959723 0.587154 
-3.23644 -0.982922 0.598201 -3.27918 -1.00641 0.609221 -3.3217 -1.03019 0.620212 
-3.364 -1.05425 0.63117 -3.40609 -1.0786 0.642093 -3.44799 -1.10324 0.652976 
-3.4897 -1.12817 0.663818 -3.53123 -1.15337 0.674613 -3.57259 -1.17887 0.68536 
-3.61379 -1.20464 0.696054 -3.65483 -1.2307 0.706694 -3.69574 -1.25704 0.717274 
-3.73651 -1.28366 0.727793 -3.77715 -1.31057 0.738246 -3.81767 -1.33774 0.748635 
-3.85807 -1.36519 0.758957 -3.89834 -1.39291 0.769214 -3.93848 -1.42088 0.779404 
-3.97849 -1.44912 0.789529 -4.01836 -1.4776 0.799588 -4.0581 -1.50634 0.80958 
-4.09771 -1.53532 0.819507 -4.13718 -1.56454 0.829367 -4.1765 -1.59399 0.83916 
-4.21569 -1.62367 0.848887 -4.25474 -1.65357 0.858548 -4.29364 -1.6837 0.868142 
-4.3324 -1.71404 0.877669 -4.37101 -1.74459 0.887129 -4.40947 -1.77535 0.896522 
-4.44778 -1.80631 0.905848 -4.48594 -1.83747 0.915107 -4.52394 -1.86882 0.924299 
-4.56179 -1.90035 0.933423 -4.59949 -1.93207 0.942481 -4.63704 -1.96397 0.951472 
-4.67444 -1.99604 0.960397 -4.71169 -2.02829 0.969257 -4.74881 -2.0607 0.978051 
-4.78579 -2.09327 0.986782 -4.82264 -2.126 0.995448 -4.85937 -2.15888 1.00405 
-4.89596 -2.19192 1.01259 -4.93244 -2.22509 1.02107 -4.9688 -2.25841 1.02948 
-5.00504 -2.29186 1.03784 -5.04117 -2.32545 1.04613 -5.0772 -2.35916 1.05437 
-5.11312 -2.393 1.06254 -5.14895 -2.42696 1.07066 -5.18468 -2.46103 1.07871 
-5.22031 -2.49521 1.08671 -5.25586 -2.5295 1.09465 -5.29132 -2.56389 1.10253 
-5.3267 -2.59838 1.11036 -5.362 -2.63296 1.11812 -5.39722 -2.66764 1.12583 
-5.43237 -2.70241 1.13347 -5.46745 -2.73727 1.14105 -5.50246 -2.77221 1.14856 
-5.5374 -2.80723 1.156 -5.57228 -2.84234 1.16337 -5.6071 -2.87752 1.17067 
-5.64186 -2.91277 1.17789 -5.67656 -2.9481 1.18504 -5.71121 -2.9835 1.19211 
-5.74581 -3.01896 1.1991 -5.78036 -3.05449 1.20601 -5.81487 -3.09008 1.21283 
-5.84933 -3.12573 1.21957 -5.88375 -3.16143 1.22622 -5.91814 -3.19719 1.23278 
-5.95249 -3.233 1.23925 -5.9868 -3.26886 1.24563 -6.02109 -3.30476 1.25191 
-6.05535 -3.3407 1.25809 -6.08958 -3.37669 1.26416 -6.12379 -3.41273 1.27012 
-6.15797 -3.4488 1.27596 -6.19213 -3.48492 1.28167 -6.22627 -3.52107 1.28726 
-6.26038 -3.55727 1.2927 -6.29448 -3.5935 1.298 -6.32856 -3.62977 1.30314 
-6.36263 -3.66607 1.30814 -6.39668 -3.70241 1.31297 -6.43072 -3.73879 1.31763 
-6.46475 -3.77519 1.32211 -6.49876 -3.81163 1.32642 -6.53277 -3.8481 1.33053 
-6.56677 -3.8846 1.33446 -6.60076 -3.92113 1.33818 -6.63475 -3.95769 1.3417 
-6.66874 -3.99427 1.34501 -6.70273 -4.03089 1.3481 -6.73671 -4.06752 1.35096 
-6.77068 -4.10419 1.35359 -6.80465 -4.14088 1.35596 -6.83861 -4.17759 1.35808 
-6.87256 -4.21433 1.35993 -6.90649 -4.2511 1.3615 -6.94041 -4.28789 1.36278 
-6.9743 -4.32471 1.36376 -7.00818 -4.36156 1.36443 -7.04203 -4.39843 1.36477 
-7.07586 -4.43533 1.36479 -7.10966 -4.47225 1.36446 -7.14343 -4.5092 1.36378 
-7.17716 -4.54617 1.36274 -7.21087 -4.58317 1.36132 -7.24453 -4.6202 1.35951 
-7.27816 -4.65725 1.35732 -7.31174 -4.69432 1.35471 -7.34529 -4.73143 1.35169 
-7.37878 -4.76855 1.34825 -7.41223 -4.80571 1.34436 -7.44561 -4.84288 1.34003 
-7.47891 -4.88008 1.33524 -7.51213 -4.9173 1.32998 -7.54525 -4.95453 1.32423 
-7.57826 -4.99178 1.31799 -7.61115 -5.02905 1.31124 -7.64391 -5.06633 1.30398 
-7.67652 -5.10362 1.29619 -7.70898 -5.14092 1.28785 -7.74127 -5.17823 1.27897 
-7.77339 -5.21554 1.26952 -7.80531 -5.25286 1.2595 -7.83703 -5.29018 1.24889 
-7.86855 -5.32751 1.23768 -7.89984 -5.36483 1.22587 -7.93089 -5.40216 1.21344 
-7.9617 -5.43948 1.20037 -7.99225 -5.47679 1.18666 -8.02253 -5.5141 1.1723 
-8.05253 -5.55139 1.15727 -8.08223 -5.58868 1.14159 -8.11163 -5.62595 1.12526 
-8.1407 -5.6632 1.10829 -8.16943 -5.70043 1.09068 -8.19781 -5.73764 1.07244 
-8.22583 -5.77482 1.05357 -8.25347 -5.81196 1.03408 -8.28072 -5.84908 1.01397 
-8.30755 -5.88615 0.993264 -8.33397 -5.92319 0.97195 -8.35995 -5.96018 0.950041 
-8.38548 -5.99713 0.927541 -8.41055 -6.03402 0.904457 -8.43514 -6.07086 0.880795 
-8.45924 -6.10765 0.856561 -8.48283 -6.14437 0.83176 -8.5059 -6.18104 0.806398 
-8.52844 -6.21763 0.780482 -8.55044 -6.25416 0.754018 -8.57187 -6.29062 0.727013 
-8.59274 -6.327 0.69948 -8.61304 -6.36331 0.671437 -8.63277 -6.39955 0.642899 
-8.65194 -6.43572 0.613881 -8.67054 -6.47182 0.5844 -8.68856 -6.50785 0.554471 
-8.70601 -6.5438 0.524111 -8.72289 -6.57969 0.493334 -8.73919 -6.6155 0.462157 
-8.7549 -6.65124 0.430596 -8.77004 -6.68691 0.398667 -8.7846 -6.72251 0.366384 
-8.79857 -6.75805 0.333765 -8.81195 -6.79351 0.300825 -8.82475 -6.8289 0.267579 
-8.83696 -6.86422 0.234044 -8.84857 -6.89947 0.200236 -8.8596 -6.93465 0.166169 
-8.87002 -6.96976 0.131861 -8.87986 -7.0048 0.0973263 -8.8891 -7.03978 0.0625769 
-8.89775 -7.07468 0.027623 -8.90581 -7.10952 -0.00752547 -8.91329 -7.1443 -0.0428585 
-8.9202 -7.17901 -0.0783662 -8.92654 -7.21365 -0.114038 -8.93231 -7.24824 -0.149865 
-8.93752 -7.28277 -0.185837 -8.94217 -7.31723 -0.221942 -8.94626 -7.35164 -0.258173 
-8.94981 -7.38599 -0.294518 -8.95281 -7.42028 -0.330967 -8.95527 -7.45452 -0.367512 
-8.95719 -7.4887 -0.40414 -8.95858 -7.52284 -0.440843 -8.95944 -7.55692 -0.477611 
-8.95978 -7.59094 -0.514433 -8.95961 -7.62492 -0.5513 -8.95891 -7.65886 -0.588201 
-8.95771 -7.69274 -0.625127 -8.956 -7.72658 -0.662069 -8.95379 -7.76037 -0.699023 
-8.95109 -7.79411 -0.735982 -8.9479 -7.82781 -0.772942 -8.94422 -7.86146 -0.809896 
-8.94006 -7.89506 -0.846839 -8.93542 -7.92862 -0.883766 -8.93032 -7.96213 -0.920671 
-8.92474 -7.9956 -0.957549 -8.91871 -8.02902 -0.994394 -8.91222 -8.06239 -1.0312 
-8.90528 -8.09572 -1.06796 -8.8979 -8.129 -1.10468 -8.89007 -8.16223 -1.14134 
-8.88181 -8.19542 -1.17793 -8.87311 -8.22856 -1.21447 -8.86399 -8.26166 -1.25093 
-8.85445 -8.29471 -1.28731 -8.84449 -8.32771 -1.32361 -8.83412 -8.36067 -1.35983 
-8.82335 -8.39358 -1.39595 -8.81216 -8.42645 -1.43198 -8.80057 -8.45927 -1.4679 
-8.78858 -8.49206 -1.50373 -8.77618 -8.5248 -1.53945 -8.76338 -8.55751 -1.57507 
-8.75018 -8.59018 -1.61057 -8.73659 -8.62282 -1.64597 -8.72259 -8.65542 -1.68125 
-8.70819 -8.688 -1.71641 -8.6934 -8.72054 -1.75145 -8.67821 -8.75306 -1.78636 
-8.66263 -8.78555 -1.82115 -8.64665 -8.81801 -1.85581 -8.63028 -8.85045 -1.89034 
-8.61352 -8.88287 -1.92473 -8.59637 -8.91527 -1.95898 -8.57883 -8.94766 -1.9931 
-8.56091 -8.98002 -2.02707 -8.54259 -9.01237 -2.06089 -8.52389 -9.04471 -2.09457 
-8.50482 -9.07702 -2.12808 -8.48537 -9.10932 -2.16144 -8.46556 -9.14159 -2.19462 
-8.44539 -9.17383 -2.22763 -8.42488 -9.20603 -2.26045 -8.40403 -9.23819 -2.29308 
-8.38286 -9.2703 -2.3255 -8.36136 -9.30237 -2.35772 -8.33954 -9.33438 -2.38973 
-8.31742 -9.36633 -2.42151 -8.295 -9.39822 -2.45307 -8.2723 -9.43004 -2.48438 
-8.24931 -9.46179 -2.51546 -8.22604 -9.49346 -2.54628 -8.20252 -9.52505 -2.57684 
-8.17873 -9.55655 -2.60714 -8.1547 -9.58796 -2.63717 -8.13042 -9.61927 -2.66691 
-8.10591 -9.65049 -2.69637 -8.08117 -9.6816 -2.72553 -8.05619 -9.71262 -2.75439 
-8.03094 -9.74357 -2.78294 -8.00538 -9.77446 -2.81118 -7.97947 -9.80533 -2.8391 
-7.9532 -9.83618 -2.86669 -7.92653 -9.86705 -2.89394 -7.89942 -9.89795 -2.92086 
-7.87184 -9.9289 -2.94743 -7.84377 -9.95992 -2.97365 -7.81517 -9.99104 -2.99952 
-7.78601 -10.0223 -3.02501 -7.75625 -10.0536 -3.05014 -7.72587 -10.0852 -3.07489 
-7.69483 -10.1169 -3.09926 -7.6631 -10.1488 -3.12324 -7.63066 -10.1809 -3.14682 
-7.59746 -10.2132 -3.17 -7.56347 -10.2458 -3.19277 -7.52867 -10.2787 -3.21512 
-7.49303 -10.3119 -3.23706 -7.45655 -10.3454 -3.2585 -7.41933 -10.3791 -3.2793 
-7.38144 -10.4129 -3.29929 -7.34297 -10.4467 -3.31831 -7.304 -10.4805 -3.3362 
-7.26463 -10.5142 -3.3528 -7.22493 -10.5477 -3.36795 -7.18499 -10.5808 -3.38148 
-7.1449 -10.6137 -3.39325 -7.10474 -10.6461 -3.40308 -7.0646 -10.6779 -3.41081 
-7.02456 -10.7092 -3.41629 -6.9847 -10.7397 -3.41935 -6.94512 -10.7695 -3.41984 
-6.90589 -10.7985 -3.41759 -6.86711 -10.8265 -3.41244 -6.82885 -10.8535 -3.40422 
-6.79121 -10.8794 -3.39279 -6.75426 -10.9042 -3.37798 -6.7181 -10.9277 -3.35962 
[...]
CELL_DATA 1
FIELD FieldData 2
Length 1 1 double
63.830826647 
Tortuosity 1 1 double
0.62279417855 
POINT_DATA 1277
SCALARS MaximumInscribedSphereRadius float
LOOKUP_TABLE default
0.93 0.93 0.93 0.93 0.93 0.93 0.93 0.93 0.93 
0.93 0.93 0.93 0.93 0.93 0.93 0.93 0.93 0.93 
0.93 0.93 0.93 0.93 0.93 0.93 0.93 0.93 0.93 
0.93 0.93 0.93 0.93 0.93 0.93 0.93 0.93 0.93 
0.93 0.93 0.93 0.93 0.93 0.93 0.93 0.93 0.93 
0.93 0.93 0.93 0.93 0.93 0.93 0.93 0.93 0.93 
0.93 0.93 0.93 0.93 0.93 0.93 0.93 0.930198 0.931445 
0.932693 0.93394 0.935188 0.936436 0.937683 0.938931 0.940178 0.941426 0.942674 
0.943921 0.945169 0.946416 0.947664 0.948911 0.950159 0.951407 0.952654 0.953902 
0.955149 0.958941 0.963046 0.96715 0.971255 0.97536 0.979465 0.98357 0.987674 
0.991779 0.995884 0.999989 1.00409 1.0082 1.0123 1.01641 1.02051 1.02462 
1.02872 1.03283 1.03693 1.04398 1.05284 1.0617 1.07056 1.07942 1.08828 
1.09714 1.10601 1.11487 1.12373 1.13259 1.14145 1.15031 1.15917 1.16803 
1.17689 1.18576 1.19462 1.20348 1.21234 1.21667 1.21214 1.20762 1.20309 
1.19857 1.19404 1.18952 1.18499 1.18047 1.17594 1.17142 1.16689 1.16237 
1.15784 1.15332 1.14879 1.14427 1.13974 1.13521 1.13069 1.12626 1.12336 
1.12047 1.11757 1.11468 1.11178 1.10889 1.10599 1.1031 1.1002 1.0973 
1.09441 1.09151 1.08862 1.08572 1.08283 1.07993 1.07704 1.07414 1.07124 
1.06835 1.08356 1.10389 1.12423 1.14457 1.1649 1.18524 1.20557 1.22591 
1.24624 1.26658 1.28691 1.30725 1.32759 1.34792 1.36826 1.38859 1.40893 
1.42926 1.4496 1.46993 1.48336 1.49001 1.49666 1.50331 1.50995 1.5166 
1.52325 1.5299 1.53654 1.54319 1.54984 1.55649 1.56313 1.56978 1.57643 
1.58307 1.58972 1.59637 1.60302 1.60966 1.61201 1.60089 1.58978 1.57867 
1.56756 1.55645 1.54533 1.53422 1.52311 1.512 1.50089 1.48978 1.47866 
1.46755 1.45644 1.44533 1.43422 1.4231 1.41199 1.40088 1.38977 1.36096 
1.33207 1.30318 1.27429 1.24539 1.2165 1.18761 1.15872 1.12983 1.10094 
1.07205 1.04316 1.01427 0.985383 0.956492 0.927602 0.898712 0.869821 0.840931 
0.812041 0.808549 0.813852 0.819155 0.824457 0.82976 0.835063 0.840366 0.845669 
0.850972 0.856274 0.861577 0.86688 0.872183 0.877486 0.882789 0.888091 0.893394 
0.898697 0.904 0.909303 0.919282 0.934338 0.949395 0.964451 0.979508 0.994564 
1.00962 1.02468 1.03973 1.05479 1.06985 1.0849 1.09996 1.11502 1.13007 
1.14513 1.16018 1.17524 1.1903 1.20535 1.21748 1.2186 1.21972 1.22085 
1.22197 1.22309 1.22421 1.22534 1.22646 1.22758 1.22871 1.22983 1.23095 
1.23208 1.2332 1.23432 1.23544 1.23657 1.23769 1.23881 1.23994 1.23726 
1.23435 1.23145 1.22854 1.22564 1.22273 1.21982 1.21692 1.21401 1.21111 
1.2082 1.20529 1.20239 1.19948 1.19658 1.19367 1.19076 1.18786 1.18495 
1.18205 1.17615 1.16871 1.16127 1.15383 1.1464 1.13896 1.13152 1.12409 
1.11665 1.10921 1.10177 1.09434 1.0869 1.07946 1.07202 1.06459 1.05715 
1.04971 1.04227 1.03484 1.03603 1.05135 1.06666 1.08198 1.09729 1.11261 
1.12793 1.14324 1.15856 1.17387 1.18919 1.2045 1.21982 1.23514 1.25045 
1.26577 1.28108 1.2964 1.31172 1.32703 1.34343 1.36287 1.38231 1.40175 
1.42119 1.44063 1.46007 1.47951 1.49895 1.51839 1.53783 1.55727 1.57671 
1.59615 1.61559 1.63503 1.65447 1.67391 1.69335 1.70717 1.69632 1.68547 
1.67462 1.66377 1.65292 1.64207 1.63122 1.62037 1.60952 1.59868 1.58783 
1.57698 1.56613 1.55528 1.54443 1.53358 1.52273 1.51188 1.50103 1.49018 
1.48066 1.47156 1.46247 1.45337 1.44428 1.43518 1.42608 1.41699 1.40789 
1.3988 1.3897 1.38061 1.37151 1.36242 1.35332 1.34423 1.33513 1.32603 
1.31694 1.30784 1.30637 1.3141 1.32183 1.32955 1.33728 1.34501 1.35273 
1.36046 1.36819 1.37591 1.38364 1.39137 1.39909 1.40682 1.41455 1.42227 
1.43 1.43773 1.44545 1.45318 1.4603 1.46473 1.46915 1.47358 1.47801 
1.48244 1.48687 1.49129 1.49572 1.50015 1.50458 1.50901 1.51344 1.51786 
1.52229 1.52672 1.53115 1.53558 1.54 1.54443 1.54886 1.54927 1.54931 
1.54935 1.54939 1.54942 1.54946 1.5495 1.54954 1.54957 1.54961 1.54965 
1.54969 1.54972 1.54976 1.5498 1.54984 1.54987 1.54991 1.54995 1.54999 
1.55 1.55 1.55 1.55 1.55 1.55 1.55 1.55 1.55 
1.55 1.55 1.55 1.55 1.55 1.55 1.55 1.55 1.55 
1.55 1.55 1.55189 1.55622 1.56056 1.56489 1.56923 1.57356 1.5779 
1.58224 1.58657 1.59091 1.59524 1.59958 1.60392 1.60825 1.61259 1.61692 
1.62126 1.62559 1.62993 1.63427 1.63914 1.64661 1.65408 1.66156 1.66903 
1.6765 1.68397 1.69145 1.69892 1.70639 1.71386 1.72133 1.72881 1.73628 
1.74375 1.75122 1.7587 1.76617 1.77364 1.78111 1.78858 1.78707 1.78451 
1.78196 1.7794 1.77684 1.77429 1.77173 1.76917 1.76662 1.76406 1.7615 
1.75895 1.75639 1.75383 1.75128 1.74872 1.74617 1.74361 1.74105 1.7385 
1.73276 1.72505 1.71735 1.70964 1.70194 1.69423 1.68653 1.67882 1.67112 
1.66341 1.65571 1.648 1.6403 1.6326 1.62489 1.61719 1.60948 1.60178 
1.59407 1.58637 1.58321 1.589 1.5948 1.60059 1.60638 1.61217 1.61796 
1.62376 1.62955 1.63534 1.64113 1.64692 1.65271 1.65851 1.6643 1.67009 
1.67588 1.68167 1.68747 1.69326 1.6991 1.70581 1.71252 1.71922 1.72593 
1.73264 1.73935 1.74606 1.75276 1.75947 1.76618 1.77289 1.77959 1.7863 
1.79301 1.79972 1.80643 1.81313 1.81984 1.82655 1.83326 1.83572 1.83696 
1.83821 1.83945 1.8407 1.84194 1.84319 1.84443 1.84568 1.84692 1.84817 
1.84941 1.85066 1.8519 1.85315 1.85439 1.85564 1.85689 1.85813 1.85938 
1.86 1.86 1.86 1.86 1.86 1.86 1.86 1.86 1.86 
1.86 1.86 1.86 1.86 1.86 1.86 1.86 1.86 1.86 
1.86 1.86 1.85982 1.85902 1.85822 1.85742 1.85662 1.85581 1.85501 
1.85421 1.85341 1.85261 1.85181 1.851 1.8502 1.8494 1.8486 1.8478 
1.847 1.84619 1.84539 1.84459 1.84379 1.83766 1.83126 1.82486 1.81846 
1.81206 1.80566 1.79926 1.79286 1.78646 1.78006 1.77366 1.76726 1.76086 
1.75446 1.74806 1.74166 1.73526 1.72886 1.72246 1.71606 1.70886 1.70129 
1.69373 1.68616 1.6786 1.67103 1.66347 1.6559 1.64834 1.64077 1.63321 
1.62564 1.61808 1.61051 1.60295 1.59538 1.58782 1.58025 1.57269 1.56512 
1.56045 1.55964 1.55884 1.55803 1.55722 1.55642 1.55561 1.55481 1.554 
1.5532 1.55239 1.55159 1.55078 1.54998 1.54917 1.54837 1.54756 1.54676 
1.54595 1.54515 1.54374 1.53918 1.53463 1.53008 1.52552 1.52097 1.51642 
1.51186 1.50731 1.50276 1.4982 1.49365 1.4891 1.48454 1.47999 1.47544 
1.47088 1.46633 1.46178 1.45722 1.45267 1.44424 1.43533 1.42642 1.41751 
1.40859 1.39968 1.39077 1.38186 1.37295 1.36403 1.35512 1.34621 1.3373 
1.32839 1.31947 1.31056 1.30165 1.29274 1.28382 1.27491 1.27264 1.27457 
1.2765 1.27843 1.28036 1.28229 1.28422 1.28615 1.28808 1.29 1.29193 
1.29386 1.29579 1.29772 1.29965 1.30158 1.30351 1.30544 1.30737 1.3093 
1.31202 1.31631 1.32059 1.32488 1.32917 1.33346 1.33775 1.34204 1.34633 
1.35062 1.3549 1.35919 1.36348 1.36777 1.37206 1.37635 1.38064 1.38493 
1.38921 1.3935 1.3978 1.40233 1.40685 1.41137 1.41589 1.42041 1.42493 
1.42945 1.43397 1.43849 1.44301 1.44753 1.45205 1.45658 1.4611 1.46562 
1.47014 1.47466 1.47918 1.4837 1.48822 1.49155 1.49454 1.49753 1.50051 
1.5035 1.50649 1.50948 1.51246 1.51545 1.51844 1.52143 1.52442 1.5274 
1.53039 1.53338 1.53637 1.53935 1.54234 1.54533 1.54832 1.54982 1.54983 
1.54984 1.54985 1.54986 1.54987 1.54988 1.54989 1.5499 1.5499 1.54991 
1.54992 1.54993 1.54994 1.54995 1.54996 1.54997 1.54998 1.54998 1.54999 
1.55 1.55 1.55 1.55 1.55 1.55 1.55 1.55 1.55 
1.55 1.55 1.55 1.55 1.55 1.55 1.55 1.55 1.55 
1.55 1.55 1.55 1.55 1.55 1.55 1.55 1.55 1.55 
1.55 1.55 1.55 1.55 1.55 1.55 1.55 1.55 1.55 
1.55 1.55 1.55 1.55 1.55 1.55 1.55 1.55 1.55 
1.55 1.55 1.55 1.55 1.55 1.55 1.55 1.55 1.55 
1.55 1.55 1.55 1.55 1.55 1.55 1.55 1.55142 1.55514 
1.55885 1.56256 1.56627 1.56998 1.57369 1.5774 1.58111 1.58482 1.58853 
1.59224 1.59595 1.59966 1.60337 1.60708 1.61079 1.6145 1.61821 1.62192 
1.62654 1.63817 1.64981 1.66144 1.67307 1.68471 1.69634 1.70797 1.71961 
1.73124 1.74287 1.75451 1.76614 1.77777 1.78941 1.80104 1.81267 1.82431 
1.83594 1.84758 1.85921 1.85822 1.85507 1.85192 1.84877 1.84562 1.84247 
1.83933 1.83618 1.83303 1.82988 1.82673 1.82358 1.82043 1.81728 1.81413 
1.81098 1.80783 1.80468 1.80153 1.79838 1.79008 1.77831 1.76654 1.75477 
1.74301 1.73124 1.71947 1.70771 1.69594 1.68417 1.67241 1.66064 1.64887 
1.63711 1.62534 1.61357 1.60181 1.59004 1.57827 1.56651 1.55574 1.54696 
1.53818 1.52939 1.52061 1.51183 1.50304 1.49426 1.48548 1.47669 1.46791 
1.45912 1.45034 1.44156 1.43277 1.42399 1.41521 1.40642 1.39764 1.38886 
1.38052 1.37815 1.37578 1.37341 1.37104 1.36868 1.36631 1.36394 1.36157 
1.3592 1.35683 1.35447 1.3521 1.34973 1.34736 1.34499 1.34263 1.34026 
1.33789 1.33552 1.33315 1.3388 1.34649 1.35419 1.36188 1.36958 1.37727 
1.38497 1.39266 1.40035 1.40805 1.41574 1.42344 1.43113 1.43883 1.44652 
1.45422 1.46191 1.46961 1.4773 1.485 1.49295 1.50113 1.50931 1.5175 
1.52568 1.53386 1.54205 1.55023 1.55841 1.5666 1.57478 1.58296 1.59115 
1.59933 1.60751 1.6157 1.62388 1.63206 1.64025 1.64843 1.65673 1.66541 
1.67409 1.68277 1.69145 1.70013 1.70881 1.71749 1.72616 1.73484 1.74352 
1.7522 1.76088 1.76956 1.77824 1.78692 1.7956 1.80428 1.81296 1.82163 
1.83031 1.83203 1.83348 1.83493 1.83638 1.83782 1.83927 1.84072 1.84217 
1.84361 1.84506 1.84651 1.84796 1.84941 1.85085 1.8523 1.85375 1.8552 
1.85664 1.85809 1.85954 1.85848 1.85624 1.85401 1.85178 1.84954 1.84731 
1.84508 1.84284 1.84061 1.83837 1.83614 1.83391 1.83167 1.82944 1.82721 
1.82497 1.82274 1.82051 1.81827 1.81604 1.81156 1.80373 1.7959 1.78807 
1.78024 1.77241 1.76458 1.75676 1.74893 1.7411 1.73327 1.72544 1.71761 
1.70978 1.70195 1.69412 1.68629 1.67846 1.67063 1.6628 1.65578 1.65446 
1.65313 1.65181 1.65048 1.64916 1.64783 1.6465 1.64518 1.64385 1.64253 
1.6412 1.63987 1.63855 1.63722 1.6359 1.63457 1.63325 1.63192 1.63059 
1.62927 1.63549 1.64303 1.65057 1.65811 1.66565 1.67319 1.68073 1.68827 
1.69581 1.70335 1.71089 1.71843 1.72598 1.73352 1.74106 1.7486 1.75614 
1.76368 1.77122 1.77876 1.78199 1.77906 1.77613 1.77319 1.77026 1.76733 
1.76439 1.76146 1.75852 1.75559 1.75266 1.74972 1.74679 1.74386 1.74092 
1.73799 1.73505 1.73212 1.72919 1.72625 1.71804 1.70964 1.70124 1.69284 
1.68443 1.67603 1.66763 1.65923 1.65083 1.64242 1.63402 1.62562 1.61722 
1.60881 1.60041 1.59201 1.58361 1.57521 1.5668 1.5584 1.55 
TEXTURE_COORDINATES TCoords 2 float
0 0 0.000783699 0 0.0015674 0 0.0023511 0 0.0031348 
0 0.0039185 0 0.00470219 0 0.00548589 0 0.00626959 0 
0.00705329 0 0.00783699 0 0.00862069 0 0.00940439 0 0.0101881 
0 0.0109718 0 0.0117555 0 0.0125392 0 0.0133229 0 
0.0141066 0 0.0148903 0 0.015674 0 0.0164577 0 0.0172414 
0 0.0180251 0 0.0188088 0 0.0195925 0 0.0203762 0 
0.0211599 0 0.0219436 0 0.0227273 0 0.023511 0 0.0242947 
0 0.0250784 0 0.0258621 0 0.0266458 0 0.0274295 0 
0.0282132 0 0.0289969 0 0.0297806 0 0.0305643 0 0.031348 
0 0.0321317 0 0.0329154 0 0.0336991 0 0.0344828 0 
0.0352665 0 0.0360502 0 0.0368339 0 0.0376176 0 0.0384013 
0 0.039185 0 0.0399687 0 0.0407524 0 0.0415361 0 
0.0423197 0 0.0431034 0 0.0438871 0 0.0446708 0 0.0454545 
0 0.0462382 0 0.0470219 0 0.0478056 0 0.0485893 0 
0.049373 0 0.0501567 0 0.0509404 0 0.0517241 0 0.0525078 
0 0.0532915 0 0.0540752 0 0.0548589 0 0.0556426 0 
0.0564263 0 0.05721 0 0.0579937 0 0.0587774 0 0.0595611 
0 0.0603448 0 0.0611285 0 0.0619122 0 0.0626959 0 
0.0634796 0 0.0642633 0 0.065047 0 0.0658307 0 0.0666144 
0 0.0673981 0 0.0681818 0 0.0689655 0 0.0697492 0 
0.0705329 0 0.0713166 0 0.0721003 0 0.072884 0 0.0736677 
0 0.0744514 0 0.0752351 0 0.0760188 0 0.0768025 0 
0.0775862 0 0.0783699 0 0.0791536 0 0.0799373 0 0.080721 
0 0.0815047 0 0.0822884 0 0.0830721 0 0.0838558 0 
0.0846395 0 0.0854232 0 0.0862069 0 0.0869906 0 0.0877743 
0 0.088558 0 0.0893417 0 0.0901254 0 0.0909091 0 
0.0916928 0 0.0924765 0 0.0932602 0 0.0940439 0 0.0948276 
0 0.0956113 0 0.096395 0 0.0971787 0 0.0979624 0 
0.0987461 0 0.0995298 0 0.100313 0 0.101097 0 0.101881 
0 0.102665 0 0.103448 0 0.104232 0 0.105016 0 
0.105799 0 0.106583 0 0.107367 0 0.10815 0 0.108934 
0 0.109718 0 0.110502 0 0.111285 0 0.112069 0 
0.112853 0 0.113636 0 0.11442 0 0.115204 0 0.115987 
0 0.116771 0 0.117555 0 0.118339 0 0.119122 0 
0.119906 0 0.12069 0 0.121473 0 0.122257 0 0.123041 
0 0.123824 0 0.124608 0 0.125392 0 0.126176 0 
0.126959 0 0.127743 0 0.128527 0 0.12931 0 0.130094 
0 0.130878 0 0.131661 0 0.132445 0 0.133229 0 
0.134013 0 0.134796 0 0.13558 0 0.136364 0 0.137147 
0 0.137931 0 0.138715 0 0.139498 0 0.140282 0 
0.141066 0 0.14185 0 0.142633 0 0.143417 0 0.144201 
0 0.144984 0 0.145768 0 0.146552 0 0.147335 0 
0.148119 0 0.148903 0 0.149687 0 0.15047 0 0.151254 
0 0.152038 0 0.152821 0 0.153605 0 0.154389 0 
0.155172 0 0.155956 0 0.15674 0 0.157524 0 0.158307 
0 0.159091 0 0.159875 0 0.160658 0 0.161442 0 
0.162226 0 0.163009 0 0.163793 0 0.164577 0 0.16536 
0 0.166144 0 0.166928 0 0.167712 0 0.168495 0 
0.169279 0 0.170063 0 0.170846 0 0.17163 0 0.172414 
0 0.173197 0 0.173981 0 0.174765 0 0.175549 0 
0.176332 0 0.177116 0 0.1779 0 0.178683 0 0.179467 
0 0.180251 0 0.181034 0 0.181818 0 0.182602 0 
0.183386 0 0.184169 0 0.184953 0 0.185737 0 0.18652 
0 0.187304 0 0.188088 0 0.188871 0 0.189655 0 
0.190439 0 0.191223 0 0.192006 0 0.19279 0 0.193574 
0 0.194357 0 0.195141 0 0.195925 0 0.196708 0 
0.197492 0 0.198276 0 0.19906 0 0.199843 0 0.200627 
0 0.201411 0 0.202194 0 0.202978 0 0.203762 0 
0.204545 0 0.205329 0 0.206113 0 0.206897 0 0.20768 
0 0.208464 0 0.209248 0 0.210031 0 0.210815 0 
0.211599 0 0.212382 0 0.213166 0 0.21395 0 0.214734 
0 0.215517 0 0.216301 0 0.217085 0 0.217868 0 
0.218652 0 0.219436 0 0.220219 0 0.221003 0 0.221787 
0 0.222571 0 0.223354 0 0.224138 0 0.224922 0 
0.225705 0 0.226489 0 0.227273 0 0.228056 0 0.22884 
0 0.229624 0 0.230408 0 0.231191 0 0.231975 0 
0.232759 0 0.233542 0 0.234326 0 0.23511 0 0.235893 
0 0.236677 0 0.237461 0 0.238245 0 0.239028 0 
0.239812 0 0.240596 0 0.241379 0 0.242163 0 0.242947 
0 0.24373 0 0.244514 0 0.245298 0 0.246082 0 
0.246865 0 0.247649 0 0.248433 0 0.249216 0 0.25 
0 0.250784 0 0.251567 0 0.252351 0 0.253135 0 
0.253918 0 0.254702 0 0.255486 0 0.25627 0 0.257053 
0 0.257837 0 0.258621 0 0.259404 0 0.260188 0 
0.260972 0 0.261755 0 0.262539 0 0.263323 0 0.264107 
0 0.26489 0 0.265674 0 0.266458 0 0.267241 0 
0.268025 0 0.268809 0 0.269592 0 0.270376 0 0.27116 
0 0.271944 0 0.272727 0 0.273511 0 0.274295 0 
0.275078 0 0.275862 0 0.276646 0 0.277429 0 0.278213 
0 0.278997 0 0.279781 0 0.280564 0 0.281348 0 
0.282132 0 0.282915 0 0.283699 0 0.284483 0 0.285266 
0 0.28605 0 0.286834 0 0.287618 0 0.288401 0 
0.289185 0 0.289969 0 0.290752 0 0.291536 0 0.29232 
0 0.293103 0 0.293887 0 0.294671 0 0.295455 0 
0.296238 0 0.297022 0 0.297806 0 0.298589 0 0.299373 
0 0.300157 0 0.30094 0 0.301724 0 0.302508 0 
0.303292 0 0.304075 0 0.304859 0 0.305643 0 0.306426 
0 0.30721 0 0.307994 0 0.308777 0 0.309561 0 
0.310345 0 0.311129 0 0.311912 0 0.312696 0 0.31348 
0 0.314263 0 0.315047 0 0.315831 0 0.316614 0 
0.317398 0 0.318182 0 0.318966 0 0.319749 0 0.320533 
0 0.321317 0 0.3221 0 0.322884 0 0.323668 0 
0.324451 0 0.325235 0 0.326019 0 0.326803 0 0.327586 
0 0.32837 0 0.329154 0 0.329937 0 0.330721 0 
0.331505 0 0.332288 0 0.333072 0 0.333856 0 0.334639 
0 0.335423 0 0.336207 0 0.336991 0 0.337774 0 
0.338558 0 0.339342 0 0.340125 0 0.340909 0 0.341693 
0 0.342476 0 0.34326 0 0.344044 0 0.344828 0 
0.345611 0 0.346395 0 0.347179 0 0.347962 0 0.348746 
0 0.34953 0 0.350313 0 0.351097 0 0.351881 0 
0.352665 0 0.353448 0 0.354232 0 0.355016 0 0.355799 
0 0.356583 0 0.357367 0 0.35815 0 0.358934 0 
0.359718 0 0.360502 0 0.361285 0 0.362069 0 0.362853 
0 0.363636 0 0.36442 0 0.365204 0 0.365987 0 
0.366771 0 0.367555 0 0.368339 0 0.369122 0 0.369906 
0 0.37069 0 0.371473 0 0.372257 0 0.373041 0 
0.373824 0 0.374608 0 0.375392 0 0.376176 0 0.376959 
0 0.377743 0 0.378527 0 0.37931 0 0.380094 0 
0.380878 0 0.381661 0 0.382445 0 0.383229 0 0.384013 
0 0.384796 0 0.38558 0 0.386364 0 0.387147 0 
0.387931 0 0.388715 0 0.389498 0 0.390282 0 0.391066 
0 0.39185 0 0.392633 0 0.393417 0 0.394201 0 
0.394984 0 0.395768 0 0.396552 0 0.397335 0 0.398119 
0 0.398903 0 0.399687 0 0.40047 0 0.401254 0 
0.402038 0 0.402821 0 0.403605 0 0.404389 0 0.405172 
0 0.405956 0 0.40674 0 0.407524 0 0.408307 0 
0.409091 0 0.409875 0 0.410658 0 0.411442 0 0.412226 
0 0.413009 0 0.413793 0 0.414577 0 0.415361 0 
0.416144 0 0.416928 0 0.417712 0 0.418495 0 0.419279 
0 0.420063 0 0.420846 0 0.42163 0 0.422414 0 
0.423197 0 0.423981 0 0.424765 0 0.425549 0 0.426332 
0 0.427116 0 0.4279 0 0.428683 0 0.429467 0 
0.430251 0 0.431034 0 0.431818 0 0.432602 0 0.433386 
0 0.434169 0 0.434953 0 0.435737 0 0.43652 0 
0.437304 0 0.438088 0 0.438871 0 0.439655 0 0.440439 
0 0.441223 0 0.442006 0 0.44279 0 0.443574 0 
0.444357 0 0.445141 0 0.445925 0 0.446708 0 0.447492 
0 0.448276 0 0.44906 0 0.449843 0 0.450627 0 
0.451411 0 0.452194 0 0.452978 0 0.453762 0 0.454545 
0 0.455329 0 0.456113 0 0.456897 0 0.45768 0 
0.458464 0 0.459248 0 0.460031 0 0.460815 0 0.461599 
0 0.462382 0 0.463166 0 0.46395 0 0.464734 0 
0.465517 0 0.466301 0 0.467085 0 0.467868 0 0.468652 
0 0.469436 0 0.470219 0 0.471003 0 0.471787 0 
0.472571 0 0.473354 0 0.474138 0 0.474922 0 0.475705 
0 0.476489 0 0.477273 0 0.478056 0 0.47884 0 
0.479624 0 0.480408 0 0.481191 0 0.481975 0 0.482759 
0 0.483542 0 0.484326 0 0.48511 0 0.485893 0 
0.486677 0 0.487461 0 0.488245 0 0.489028 0 0.489812 
0 0.490596 0 0.491379 0 0.492163 0 0.492947 0 
0.49373 0 0.494514 0 0.495298 0 0.496082 0 0.496865 
0 0.497649 0 0.498433 0 0.499216 0 0.5 0 
0.500784 0 0.501567 0 0.502351 0 0.503135 0 0.503918 
0 0.504702 0 0.505486 0 0.50627 0 0.507053 0 
0.507837 0 0.508621 0 0.509404 0 0.510188 0 0.510972 
0 0.511755 0 0.512539 0 0.513323 0 0.514107 0 
0.51489 0 0.515674 0 0.516458 0 0.517241 0 0.518025 
0 0.518809 0 0.519592 0 0.520376 0 0.52116 0 
0.521944 0 0.522727 0 0.523511 0 0.524295 0 0.525078 
0 0.525862 0 0.526646 0 0.527429 0 0.528213 0 
0.528997 0 0.529781 0 0.530564 0 0.531348 0 0.532132 
0 0.532915 0 0.533699 0 0.534483 0 0.535266 0 
0.53605 0 0.536834 0 0.537618 0 0.538401 0 0.539185 
0 0.539969 0 0.540752 0 0.541536 0 0.54232 0 
0.543103 0 0.543887 0 0.544671 0 0.545455 0 0.546238 
0 0.547022 0 0.547806 0 0.548589 0 0.549373 0 
0.550157 0 0.55094 0 0.551724 0 0.552508 0 0.553292 
0 0.554075 0 0.554859 0 0.555643 0 0.556426 0 
0.55721 0 0.557994 0 0.558777 0 0.559561 0 0.560345 
0 0.561128 0 0.561912 0 0.562696 0 0.56348 0 
0.564263 0 0.565047 0 0.565831 0 0.566614 0 0.567398 
0 0.568182 0 0.568965 0 0.569749 0 0.570533 0 
0.571317 0 0.5721 0 0.572884 0 0.573668 0 0.574451 
0 0.575235 0 0.576019 0 0.576802 0 0.577586 0 
0.57837 0 0.579154 0 0.579937 0 0.580721 0 0.581505 
0 0.582288 0 0.583072 0 0.583856 0 0.584639 0 
0.585423 0 0.586207 0 0.586991 0 0.587774 0 0.588558 
0 0.589342 0 0.590125 0 0.590909 0 0.591693 0 
0.592476 0 0.59326 0 0.594044 0 0.594828 0 0.595611 
0 0.596395 0 0.597179 0 0.597962 0 0.598746 0 
0.59953 0 0.600313 0 0.601097 0 0.601881 0 0.602665 
0 0.603448 0 0.604232 0 0.605016 0 0.605799 0 
0.606583 0 0.607367 0 0.60815 0 0.608934 0 0.609718 
0 0.610502 0 0.611285 0 0.612069 0 0.612853 0 
0.613636 0 0.61442 0 0.615204 0 0.615987 0 0.616771 
0 0.617555 0 0.618339 0 0.619122 0 0.619906 0 
0.62069 0 0.621473 0 0.622257 0 0.623041 0 0.623824 
0 0.624608 0 0.625392 0 0.626176 0 0.626959 0 
0.627743 0 0.628527 0 0.62931 0 0.630094 0 0.630878 
0 0.631661 0 0.632445 0 0.633229 0 0.634013 0 
0.634796 0 0.63558 0 0.636364 0 0.637147 0 0.637931 
0 0.638715 0 0.639498 0 0.640282 0 0.641066 0 
0.64185 0 0.642633 0 0.643417 0 0.644201 0 0.644984 
0 0.645768 0 0.646552 0 0.647335 0 0.648119 0 
0.648903 0 0.649687 0 0.65047 0 0.651254 0 0.652038 
0 0.652821 0 0.653605 0 0.654389 0 0.655172 0 
0.655956 0 0.65674 0 0.657524 0 0.658307 0 0.659091 
0 0.659875 0 0.660658 0 0.661442 0 0.662226 0 
0.663009 0 0.663793 0 0.664577 0 0.665361 0 0.666144 
0 0.666928 0 0.667712 0 0.668495 0 0.669279 0 
0.670063 0 0.670846 0 0.67163 0 0.672414 0 0.673198 
0 0.673981 0 0.674765 0 0.675549 0 0.676332 0 
0.677116 0 0.6779 0 0.678683 0 0.679467 0 0.680251 
0 0.681035 0 0.681818 0 0.682602 0 0.683386 0 
0.684169 0 0.684953 0 0.685737 0 0.68652 0 0.687304 
0 0.688088 0 0.688872 0 0.689655 0 0.690439 0 