# vtk DataFile Version 4.2
vtk output
ASCII
DATASET POLYDATA
POINTS 1278 float
0 0 0 -0.00393615 -0.000828222 0.000755697 -0.015415 -0.00323062 0.00297619 
-0.0339422 -0.00708378 0.00659158 -0.0590232 -0.0122643 0.011532 -0.0901638 -0.0186488 0.0177275 
-0.12687 -0.0261138 0.0251082 -0.168646 -0.034536 0.0336042 -0.214999 -0.0437919 0.0431457 
-0.265434 -0.0537581 0.0536627 -0.319456 -0.0643112 0.0650853 -0.376572 -0.0753279 0.0773436 
-0.436286 -0.0866846 0.0903678 -0.498104 -0.0982581 0.104088 -0.561533 -0.109925 0.118434 
-0.626077 -0.121561 0.133336 -0.691243 -0.133045 0.148725 -0.756535 -0.144251 0.16453 
-0.82146 -0.155057 0.180681 -0.885523 -0.165339 0.197109 -0.948229 -0.174974 0.213744 
-1.00908 -0.183838 0.230515 -1.06773 -0.191842 0.24737 -1.12421 -0.199006 0.264306 
-1.17869 -0.205369 0.281334 -1.23129 -0.210974 0.298461 -1.28218 -0.215863 0.315699 
-1.33149 -0.220075 0.333055 -1.37936 -0.223653 0.350539 -1.42594 -0.226638 0.368161 
-1.47138 -0.229071 0.38593 -1.51582 -0.230994 0.403854 -1.5594 -0.232448 0.421944 
-1.60227 -0.233473 0.440209 -1.64457 -0.234112 0.458657 -1.68645 -0.234406 0.477299 
-1.72805 -0.234396 0.496143 -1.76951 -0.234123 0.515198 -1.81098 -0.233629 0.534475 
-1.85261 -0.232954 0.553982 -1.89453 -0.232141 0.573728 -1.93689 -0.231229 0.593723 
-1.97972 -0.230228 0.613966 -2.02299 -0.229129 0.634452 -2.06666 -0.22792 0.655174 
-2.1107 -0.226591 0.676126 -2.15506 -0.225132 0.697302 -2.19971 -0.223531 0.718695 
-2.2446 -0.221778 0.740301 -2.28972 -0.219863 0.762111 -2.33501 -0.217774 0.784122 
-2.38044 -0.215501 0.806325 -2.42597 -0.213033 0.828715 -2.47156 -0.21036 0.851286 
-2.51718 -0.207471 0.874031 -2.56279 -0.204355 0.896945 -2.60836 -0.201001 0.920021 
-2.65384 -0.1974 0.943253 -2.69919 -0.193539 0.966635 -2.74439 -0.189409 0.990161 
-2.78938 -0.184999 1.01382 -2.83415 -0.180298 1.03762 -2.87865 -0.175299 1.06154 
-2.9229 -0.170008 1.08558 -2.96691 -0.164431 1.10973 -3.01069 -0.158574 1.134 
-3.05425 -0.152446 1.15837 -3.09762 -0.146051 1.18284 -3.14079 -0.139398 1.2074 
-3.18378 -0.132493 1.23206 -3.22661 -0.125342 1.2568 -3.26929 -0.117953 1.28162 
-3.31183 -0.110332 1.30651 -3.35424 -0.102486 1.33147 -3.39654 -0.0944208 1.3565 
-3.43873 -0.0861444 1.38159 -3.48084 -0.0776631 1.40673 -3.52287 -0.0689837 1.43191 
-3.56483 -0.0601128 1.45715 -3.60674 -0.0510573 1.48242 -3.64862 -0.0418238 1.50772 
-3.69046 -0.0324192 1.53306 -3.73229 -0.0228496 1.55841 -3.77411 -0.013118 1.58379 
-3.81592 -0.00322628 1.60918 -3.85772 0.00682386 1.63459 -3.8995 0.0170306 1.66 
-3.94126 0.027392 1.68542 -3.98302 0.0379064 1.71084 -4.02476 0.048572 1.73626 
-4.06648 0.0593868 1.76167 -4.10819 0.0703492 1.78707 -4.14989 0.0814573 1.81246 
-4.19157 0.0927093 1.83783 -4.23323 0.104103 1.86317 -4.27488 0.115638 1.8885 
-4.31651 0.127311 1.91379 -4.35813 0.13912 1.93906 -4.39973 0.151064 1.96429 
-4.44131 0.163142 1.98948 -4.48287 0.17535 2.01462 -4.52442 0.187688 2.03972 
-4.56595 0.200154 2.06477 -4.60746 0.212744 2.08977 -4.64897 0.225455 2.1147 
-4.69046 0.238283 2.13958 -4.73195 0.251223 2.16439 -4.77343 0.264272 2.18914 
-4.81492 0.277427 2.21382 -4.85641 0.290682 2.23842 -4.89791 0.304035 2.26295 
-4.93942 0.317481 2.28739 -4.98095 0.331017 2.31176 -5.0225 0.344638 2.33603 
-5.06407 0.358341 2.36022 -5.10566 0.372121 2.38431 -5.14729 0.385975 2.40831 
-5.18895 0.3999 2.43221 -5.23064 0.41389 2.456 -5.27238 0.427942 2.47969 
-5.31416 0.442052 2.50327 -5.35599 0.456217 2.52674 -5.39786 0.470432 2.55009 
-5.4398 0.484694 2.57332 -5.48178 0.498997 2.59644 -5.52383 0.513337 2.61943 
-5.56593 0.527709 2.64229 -5.6081 0.542109 2.66502 -5.65033 0.556532 2.68763 
-5.69263 0.570974 2.7101 -5.73499 0.58543 2.73244 -5.77742 0.599895 2.75465 
-5.81993 0.614364 2.77671 -5.8625 0.628834 2.79864 -5.90516 0.643299 2.82042 
-5.94789 0.657754 2.84205 -5.9907 0.672196 2.86354 -6.03359 0.686619 2.88488 
-6.07657 0.70102 2.90607 -6.11963 0.715392 2.9271 -6.16278 0.729732 2.94798 
-6.20601 0.744035 2.9687 -6.24934 0.758297 2.98926 -6.29276 0.772512 3.00966 
-6.33628 0.786675 3.02989 -6.37989 0.800781 3.04996 -6.4236 0.814824 3.06986 
-6.46741 0.828798 3.0896 -6.51131 0.842699 3.10917 -6.55531 0.856519 3.12857 
-6.59941 0.870255 3.1478 -6.64362 0.8839 3.16686 -6.68793 0.897448 3.18576 
-6.73234 0.910895 3.20447 -6.77685 0.924234 3.22302 -6.82147 0.93746 3.24139 
-6.8662 0.950568 3.25959 -6.91103 0.963552 3.27761 -6.95597 0.976406 3.29545 
-7.00102 0.989124 3.31312 -7.04618 1.0017 3.33061 -7.09145 1.01413 3.34792 
-7.13684 1.02641 3.36504 -7.18233 1.03854 3.38199 -7.22794 1.05049 3.39875 
-7.27367 1.06228 3.41534 -7.3195 1.0739 3.43174 -7.36544 1.08533 3.44797 
-7.4115 1.09658 3.46402 -7.45766 1.10763 3.47989 -7.50393 1.11848 3.49559 
-7.5503 1.12913 3.51111 -7.59678 1.13956 3.52646 -7.64337 1.14978 3.54163 
-7.69006 1.15978 3.55663 -7.73685 1.16954 3.57146 -7.78374 1.17907 3.58612 
-7.83074 1.18836 3.60061 -7.87784 1.1974 3.61493 -7.92503 1.20618 3.62909 
-7.97233 1.21471 3.64307 -8.01972 1.22297 3.65689 -8.06721 1.23096 3.67055 
-8.11479 1.23867 3.68404 -8.16247 1.2461 3.69737 -8.21024 1.25324 3.71053 
-8.2581 1.26008 3.72354 -8.30604 1.26663 3.7364 -8.35407 1.27286 3.7491 
-8.40217 1.27878 3.76165 -8.45035 1.28439 3.77406 -8.49861 1.28967 3.78632 
-8.54693 1.29462 3.79843 -8.59532 1.29923 3.81041 -8.64378 1.3035 3.82225 
-8.6923 1.30742 3.83396 -8.74088 1.31099 3.84554 -8.78951 1.31421 3.85698 
-8.83819 1.31705 3.8683 -8.88693 1.31953 3.8795 -8.93571 1.32162 3.89057 
-8.98453 1.32334 3.90153 -9.0334 1.32467 3.91236 -9.0823 1.3256 3.92309 
-9.13124 1.32613 3.9337 -9.18021 1.32626 3.94421 -9.2292 1.32598 3.95461 
-9.27821 1.32529 3.96492 -9.32724 1.32418 3.97512 -9.37627 1.32265 3.98524 
-9.4253 1.3207 3.99527 -9.47434 1.31832 4.00521 -9.52337 1.31551 4.01507 
-9.57238 1.31225 4.02486 -9.62138 1.30856 4.03457 -9.67035 1.30442 4.04421 
-9.7193 1.29983 4.05379 -9.76821 1.29479 4.0633 -9.81709 1.28929 4.07276 
-9.86592 1.28333 4.08216 -9.91471 1.2769 4.09152 -9.96344 1.27 4.10082 
-10.0121 1.26263 4.11009 -10.0607 1.25478 4.11931 -10.1093 1.24644 4.1285 
-10.1577 1.23762 4.13766 -10.2061 1.22832 4.14679 -10.2544 1.21854 4.1559 
-10.3026 1.20827 4.16498 -10.3507 1.19751 4.17406 -10.3987 1.18627 4.18312 
-10.4465 1.17455 4.19217 -10.4943 1.16234 4.20122 -10.5419 1.14964 4.21027 
-10.5894 1.13646 4.21932 -10.6367 1.12279 4.22839 -10.6839 1.10864 4.23746 
-10.731 1.094 4.24655 -10.7779 1.07887 4.25566 -10.8246 1.06325 4.2648 
-10.8712 1.04715 4.27396 -10.9175 1.03056 4.28316 -10.9637 1.01348 4.29239 
-11.0097 0.995909 4.30166 -11.0555 0.977852 4.31098 -11.1011 0.95931 4.32034 
-11.1465 0.940287 4.32975 -11.1916 0.920789 4.33922 -11.2366 0.900821 4.34873 
-11.2813 0.88039 4.35831 -11.3258 0.859498 4.36794 -11.3701 0.838154 4.37764 
-11.4142 0.81636 4.3874 -11.458 0.794124 4.39723 -11.5016 0.771449 4.40713 
-11.5449 0.748342 4.4171 -11.588 0.724807 4.42714 -11.6308 0.70085 4.43726 
-11.6734 0.676477 4.44746 -11.7157 0.651692 4.45774 -11.7578 0.626501 4.46811 
-11.7996 0.600909 4.47856 -11.8411 0.574921 4.4891 -11.8823 0.548543 4.49974 
-11.9233 0.52178 4.51047 -11.9639 0.494638 4.52129 -12.0043 0.467124 4.53221 
-12.0445 0.439245 4.54323 -12.0843 0.411009 4.55434 -12.1238 0.382422 4.56555 
-12.1631 0.353491 4.57686 -12.2021 0.324225 4.58827 -12.2409 0.294629 4.59977 
-12.2793 0.264711 4.61137 -12.3175 0.234478 4.62307 -12.3554 0.203937 4.63487 
-12.393 0.173096 4.64676 -12.4303 0.141962 4.65876 -12.4674 0.110541 4.67085 
-12.5042 0.0788404 4.68305 -12.5408 0.046868 4.69534 -12.577 0.0146307 4.70774 
-12.613 -0.0178645 4.72023 -12.6488 -0.0506103 4.73283 -12.6842 -0.0835997 4.74552 
-12.7194 -0.116826 4.75832 -12.7544 -0.150284 4.77121 -12.789 -0.183967 4.78421 
-12.8234 -0.217872 4.7973 -12.8576 -0.251992 4.81049 -12.8915 -0.286323 4.82377 
-12.9252 -0.320859 4.83714 -12.9586 -0.355595 4.8506 -12.9918 -0.390525 4.86416 
-13.0247 -0.425645 4.8778 -13.0574 -0.460949 4.89153 -13.0899 -0.496432 4.90535 
-13.1222 -0.532089 4.91925 -13.1542 -0.567915 4.93323 -13.186 -0.603903 4.9473 
-13.2176 -0.64005 4.96144 -13.249 -0.676349 4.97567 -13.2802 -0.712796 4.98997 
-13.3112 -0.749386 5.00435 -13.3419 -0.786112 5.0188 -13.3725 -0.822971 5.03333 
-13.4029 -0.859958 5.04793 -13.433 -0.89707 5.06259 -13.463 -0.934305 5.07732 
-13.4929 -0.97166 5.09211 -13.5225 -1.00913 5.10696 -13.552 -1.04672 5.12186 
-13.5812 -1.08442 5.13682 -13.6104 -1.12222 5.15182 -13.6393 -1.16013 5.16687 
-13.6682 -1.19814 5.18197 -13.6968 -1.23626 5.1971 -13.7253 -1.27447 5.21227 
-13.7537 -1.31277 5.22747 -13.7819 -1.35116 5.2427 -13.81 -1.38964 5.25796 
-13.838 -1.42821 5.27324 -13.8658 -1.46686 5.28854 -13.8936 -1.50559 5.30386 
-13.9212 -1.54439 5.31919 -13.9486 -1.58327 5.33454 -13.976 -1.62222 5.34989 
-14.0033 -1.66124 5.36524 -14.0305 -1.70033 5.38059 -14.0576 -1.73949 5.39593 
-14.0846 -1.77872 5.41126 -14.1115 -1.81801 5.42657 -14.1383 -1.85738 5.44185 
-14.165 -1.8968 5.4571 -14.1917 -1.9363 5.47232 -14.2183 -1.97585 5.48751 
-14.2448 -2.01547 5.50264 -14.2712 -2.05516 5.51773 -14.2976 -2.0949 5.53276 
-14.324 -2.13471 5.54773 -14.3502 -2.17457 5.56263 -14.3765 -2.21449 5.57747 
-14.4027 -2.25448 5.59223 -14.4288 -2.29451 5.60691 -14.4549 -2.33461 5.6215 
-14.481 -2.37476 5.636 -14.507 -2.41497 5.6504 -14.5331 -2.45523 5.6647 
-14.5591 -2.49555 5.67889 -14.5851 -2.53592 5.69295 -14.611 -2.57635 5.70688 
-14.637 -2.61684 5.72067 -14.6629 -2.65738 5.73432 -14.6888 -2.69799 5.74781 
-14.7147 -2.73865 5.76114 -14.7407 -2.77937 5.77429 -14.7666 -2.82014 5.78726 
-14.7925 -2.86098 5.80005 -14.8184 -2.90187 5.81263 -14.8443 -2.94283 5.82502 
-14.8703 -2.98384 5.83718 -14.8962 -3.02492 5.84913 -14.9222 -3.06605 5.86084 
-14.9482 -3.10725 5.87232 -14.9742 -3.14851 5.88354 -15.0002 -3.18983 5.89451 
-15.0263 -3.23121 5.90522 -15.0524 -3.27265 5.91565 -15.0785 -3.31416 5.92579 
-15.1046 -3.35572 5.93563 -15.1307 -3.39735 5.94515 -15.1569 -3.43904 5.95434 
-15.1831 -3.48079 5.9632 -15.2093 -3.5226 5.9717 -15.2355 -3.56447 5.97983 
[...]
CELL_DATA 1
FIELD FieldData 2
Length 1 1 double
63.864557991 
Tortuosity 1 1 double
1.1503820546 
POINT_DATA 1278
SCALARS MaximumInscribedSphereRadius float
LOOKUP_TABLE default
0.93 0.939167 0.948334 0.957502 0.966669 0.975836 0.985003 0.994171 1.00334 
1.01251 1.02167 1.03084 1.04001 1.04917 1.05834 1.06751 1.07668 1.08584 
1.09501 1.10418 1.11334 1.12199 1.12375 1.12551 1.12727 1.12903 1.1308 
1.13256 1.13432 1.13608 1.13784 1.13961 1.14137 1.14313 1.14489 1.14665 
1.14842 1.15018 1.15194 1.1537 1.15547 1.15098 1.14252 1.13405 1.12559 
1.11713 1.10867 1.10021 1.09175 1.08329 1.07483 1.06637 1.05791 1.04945 
1.04099 1.03253 1.02406 1.0156 1.00714 0.998682 0.990221 0.983546 0.989055 
0.994564 1.00007 1.00558 1.01109 1.0166 1.02211 1.02762 1.03313 1.03863 
1.04414 1.04965 1.05516 1.06067 1.06618 1.07169 1.0772 1.08271 1.08821 
1.09372 1.10069 1.10787 1.11504 1.12222 1.1294 1.13658 1.14375 1.15093 
1.15811 1.16528 1.17246 1.17964 1.18681 1.19399 1.20117 1.20835 1.21552 
1.2227 1.22988 1.23705 1.23977 1.23937 1.23897 1.23857 1.23817 1.23778 
1.23738 1.23698 1.23658 1.23618 1.23579 1.23539 1.23499 1.23459 1.2342 
1.2338 1.2334 1.233 1.2326 1.23221 1.22879 1.21848 1.20817 1.19786 
1.18755 1.17724 1.16693 1.15662 1.14631 1.136 1.12569 1.11538 1.10507 
1.09476 1.08445 1.07414 1.06383 1.05352 1.04321 1.0329 1.02242 1.00425 
0.986084 0.967917 0.949749 0.931581 0.913414 0.895246 0.877078 0.858911 0.840743 
0.822575 0.804408 0.78624 0.768072 0.749905 0.731737 0.713569 0.695402 0.677234 
0.659066 0.659461 0.666404 0.673347 0.68029 0.687232 0.694175 0.701118 0.708061 
0.715003 0.721946 0.728889 0.735831 0.742774 0.749717 0.75666 0.763602 0.770545 
0.777488 0.784431 0.791373 0.798182 0.804833 0.811484 0.818135 0.824786 0.831437 
0.838088 0.844739 0.85139 0.858041 0.864692 0.871343 0.877994 0.884644 0.891295 
0.897946 0.904597 0.911248 0.917899 0.92455 0.93 0.93 0.93 0.93 
0.93 0.93 0.93 0.93 0.93 0.93 0.93 0.93 0.93 
0.93 0.93 0.93 0.93 0.93 0.93 0.93 0.93 0.93 
0.93 0.93 0.93 0.93 0.93 0.93 0.93 0.93 0.93 
0.93 0.93 0.93 0.93 0.93 0.93 0.93 0.93 0.93 
0.93 0.93 0.93 0.93 0.93 0.93 0.93 0.93 0.93 
0.93 0.93 0.93 0.93 0.93 0.93 0.93 0.93 0.93 
0.93 0.93 0.93 0.929977 0.929913 0.92985 0.929786 0.929722 0.929658 
0.929595 0.929531 0.929467 0.929403 0.92934 0.929276 0.929212 0.929149 0.929085 
0.929021 0.928957 0.928894 0.92883 0.928766 0.928363 0.924336 0.920309 0.916282 
0.912256 0.908229 0.904202 0.900175 0.896148 0.892122 0.888095 0.884068 0.880041 
0.876014 0.871988 0.867961 0.863934 0.859907 0.85588 0.851853 0.847827 0.840103 
0.831484 0.822865 0.814246 0.805627 0.797008 0.788388 0.779769 0.77115 0.762531 
0.753912 0.745292 0.736673 0.728054 0.719435 0.710816 0.702197 0.693577 0.684958 
0.676339 0.674003 0.67741 0.680817 0.684224 0.687632 0.691039 0.694446 0.697853 
0.70126 0.704667 0.708075 0.711482 0.714889 0.718296 0.721703 0.72511 0.728517 
0.731925 0.735332 0.738739 0.743128 0.750664 0.7582 0.765737 0.773273 0.780809 
0.788345 0.795882 0.803418 0.810954 0.81849 0.826027 0.833563 0.841099 0.848635 
0.856172 0.863708 0.871244 0.87878 0.886317 0.893853 0.895883 0.897648 0.899414 
0.901179 0.902945 0.90471 0.906475 0.908241 0.910006 0.911772 0.913537 0.915303 
0.917068 0.918834 0.920599 0.922365 0.92413 0.925896 0.927661 0.929427 0.93 
0.93 0.93 0.93 0.93 0.93 0.93 0.93 0.93 0.93 
0.93 0.93 0.93 0.93 0.93 0.93 0.93 0.93 0.93 
0.93 0.93 0.93 0.93 0.93 0.93 0.93 0.93 0.93 
0.93 0.93 0.93 0.93 0.93 0.93 0.93 0.93 0.93 
0.93 0.93 0.93 0.932199 0.946063 0.959926 0.97379 0.987653 1.00152 
1.01538 1.02924 1.04311 1.05697 1.07083 1.0847 1.09856 1.11243 1.12629 
1.14015 1.15402 1.16788 1.18174 1.19561 1.20947 1.21295 1.21531 1.21767 
1.22002 1.22238 1.22474 1.2271 1.22946 1.23182 1.23417 1.23653 1.23889 
1.24125 1.24361 1.24597 1.24832 1.25068 1.25304 1.2554 1.25776 1.24934 
1.2347 1.22006 1.20542 1.19078 1.17614 1.1615 1.14686 1.13222 1.11758 
1.10294 1.0883 1.07367 1.05903 1.04439 1.02975 1.01511 1.00047 0.985828 
0.971188 0.96186 0.962113 0.962366 0.962619 0.962872 0.963125 0.963378 0.963631 
0.963884 0.964137 0.96439 0.964643 0.964896 0.965149 0.965402 0.965655 0.965908 
0.966161 0.966414 0.966667 0.967377 0.973563 0.979749 0.985935 0.992121 0.998307 
1.00449 1.01068 1.01687 1.02305 1.02924 1.03542 1.04161 1.0478 1.05398 
1.06017 1.06635 1.07254 1.07873 1.08491 1.0911 1.09639 1.10145 1.10651 
1.11157 1.11663 1.1217 1.12676 1.13182 1.13688 1.14194 1.14701 1.15207 
1.15713 1.16219 1.16725 1.17232 1.17738 1.18244 1.1875 1.19256 1.19843 
1.20516 1.2119 1.21863 1.22537 1.2321 1.23884 1.24557 1.25231 1.25904 
1.26578 1.27252 1.27925 1.28599 1.29272 1.29946 1.30619 1.31293 1.31966 
1.3264 1.33302 1.33949 1.34595 1.35242 1.35889 1.36535 1.37182 1.37829 
1.38475 1.39122 1.39769 1.40415 1.41062 1.41708 1.42355 1.43002 1.43648 
1.44295 1.44942 1.45588 1.46235 1.45462 1.44324 1.43187 1.42049 1.40911 
1.39774 1.38636 1.37499 1.36361 1.35223 1.34086 1.32948 1.31811 1.30673 
1.29536 1.28398 1.2726 1.26123 1.24985 1.23956 1.23627 1.23299 1.2297 
1.22641 1.22313 1.21984 1.21656 1.21327 1.20998 1.2067 1.20341 1.20012 
1.19684 1.19355 1.19027 1.18698 1.18369 1.18041 1.17712 1.17383 1.16492 
1.15563 1.14635 1.13706 1.12777 1.11849 1.1092 1.09991 1.09063 1.08134 
1.07206 1.06277 1.05348 1.0442 1.03491 1.02562 1.01634 1.00705 0.997765 
0.988478 0.987953 0.99228 0.996606 1.00093 1.00526 1.00959 1.01391 1.01824 
1.02257 1.0269 1.03122 1.03555 1.03988 1.0442 1.04853 1.05286 1.05718 
1.06151 1.06584 1.07016 1.0759 1.08414 1.09238 1.10061 1.10885 1.11709 
1.12533 1.13356 1.1418 1.15004 1.15828 1.16651 1.17475 1.18299 1.19123 
1.19946 1.2077 1.21594 1.22418 1.23241 1.24 1.24 1.24 1.24 
1.24 1.24 1.24 1.24 1.24 1.24 1.24 1.24 1.24 
1.24 1.24 1.24 1.24 1.24 1.24 1.24 1.24 1.24 
1.24 1.24 1.24 1.24 1.24 1.24 1.24 1.24 1.24 
1.24 1.24 1.24 1.24 1.24 1.24 1.24 1.24 1.24 
1.24 1.24 1.24 1.24 1.24 1.24 1.24 1.24 1.24 
1.24 1.24 1.24 1.24 1.24 1.24 1.24 1.24 1.24 
1.24 1.24 1.24 1.2401 1.24043 1.24076 1.24109 1.24143 1.24176 
1.24209 1.24242 1.24276 1.24309 1.24342 1.24375 1.24409 1.24442 1.24475 
1.24508 1.24542 1.24575 1.24608 1.24641 1.24684 1.25277 1.25871 1.26464 
1.27057 1.27651 1.28244 1.28837 1.29431 1.30024 1.30617 1.31211 1.31804 
1.32397 1.32991 1.33584 1.34177 1.34771 1.35364 1.35958 1.36551 1.37362 
1.38251 1.3914 1.4003 1.40919 1.41808 1.42697 1.43586 1.44475 1.45364 
1.46253 1.47142 1.48032 1.48921 1.4981 1.50699 1.51588 1.52477 1.53366 
1.54255 1.55139 1.56017 1.56895 1.57773 1.58652 1.5953 1.60408 1.61286 
1.62164 1.63042 1.6392 1.64798 1.65676 1.66554 1.67432 1.6831 1.69188 
1.70066 1.70944 1.71822 1.72662 1.73326 1.73989 1.74652 1.75316 1.75979 
1.76642 1.77306 1.77969 1.78632 1.79296 1.79959 1.80622 1.81286 1.81949 
1.82612 1.83276 1.83939 1.84602 1.85266 1.85929 1.85967 1.8593 1.85893 
1.85856 1.8582 1.85783 1.85746 1.85709 1.85672 1.85635 1.85598 1.85561 
1.85524 1.85488 1.85451 1.85414 1.85377 1.8534 1.85303 1.85266 1.84956 
1.84474 1.83992 1.8351 1.83028 1.82545 1.82063 1.81581 1.81099 1.80617 
1.80135 1.79652 1.7917 1.78688 1.78206 1.77724 1.77241 1.76759 1.76277 
1.75795 1.75191 1.74346 1.735 1.72655 1.71809 1.70964 1.70119 1.69273 
1.68428 1.67582 1.66737 1.65892 1.65046 1.64201 1.63355 1.6251 1.61664 
1.60819 1.59974 1.59128 1.58324 1.5816 1.57995 1.57831 1.57666 1.57502 
1.57337 1.57173 1.57008 1.56844 1.5668 1.56515 1.56351 1.56186 1.56022 
1.55857 1.55693 1.55528 1.55364 1.552 1.55035 1.55025 1.55058 1.5509 
1.55122 1.55154 1.55187 1.55219 1.55251 1.55283 1.55316 1.55348 1.5538 
1.55412 1.55445 1.55477 1.55509 1.55542 1.55574 1.55606 1.55638 1.55618 
1.55549 1.5548 1.5541 1.55341 1.55272 1.55202 1.55133 1.55064 1.54994 
1.54925 1.54856 1.54786 1.54717 1.54648 1.54578 1.54509 1.5444 1.5437 
1.54301 1.53952 1.52697 1.51443 1.50188 1.48933 1.47679 1.46424 1.45169 
1.43915 1.4266 1.41405 1.4015 1.38896 1.37641 1.36386 1.35132 1.33877 
1.32622 1.31368 1.30113 1.28858 1.27228 1.2558 1.23932 1.22284 1.20636 
1.18988 1.1734 1.15692 1.14044 1.12396 1.10748 1.091 1.07452 1.05804 
1.04156 1.02508 1.0086 0.992125 0.975646 0.959166 0.954287 0.955055 0.955824 
0.956592 0.957361 0.958129 0.958897 0.959666 0.960434 0.961203 0.961971 0.96274 
0.963508 0.964276 0.965045 0.965813 0.966582 0.96735 0.968119 0.968887 0.9725 
0.980566 0.988632 0.996698 1.00476 1.01283 1.0209 1.02896 1.03703 1.04509 
1.05316 1.06123 1.06929 1.07736 1.08542 1.09349 1.10156 1.10962 1.11769 
1.12575 1.13461 1.1502 1.16578 1.18137 1.19695 1.21254 1.22812 1.24371 
1.2593 1.27488 1.29047 1.30605 1.32164 1.33722 1.35281 1.3684 1.38398 
1.39957 1.41515 1.43074 1.44632 1.4473 1.44512 1.44293 1.44074 1.43855 
1.43637 1.43418 1.43199 1.4298 1.42762 1.42543 1.42324 1.42105 1.41887 
1.41668 1.41449 1.41231 1.41012 1.40793 1.40574 1.40096 1.39394 1.38693 
1.37991 1.37289 1.36587 1.35885 1.35183 1.34482 1.3378 1.33078 1.32376 
1.31674 1.30972 1.3027 1.29569 1.28867 1.28165 1.27463 1.26761 1.26488 
1.27491 1.28494 1.29496 1.30499 1.31502 1.32504 1.33507 1.3451 1.35512 
1.36515 1.37518 1.3852 1.39523 1.40526 1.41528 1.42531 1.43534 1.44536 
1.45539 1.46542 1.46674 1.46777 1.4688 1.46983 1.47086 1.47189 1.47292 
1.47395 1.47498 1.47602 1.47705 1.47808 1.47911 1.48014 1.48117 1.4822 
1.48323 1.48426 1.48529 1.48632 1.47993 1.4701 1.46027 1.45044 1.44062 
1.43079 1.42096 1.41113 1.4013 1.39148 1.38165 1.37182 1.36199 1.35216 
1.34234 1.33251 1.32268 1.31285 1.30302 1.2932 1.28706 1.28646 1.28585 
1.28525 1.28465 1.28405 1.28344 1.28284 1.28224 1.28164 1.28103 1.28043 
1.27983 1.27923 1.27862 1.27802 1.27742 1.27682 1.27621 1.27561 1.27624 
1.2862 1.29615 1.3061 1.31605 1.326 1.33595 1.3459 1.35585 1.3658 
1.37575 1.3857 1.39566 1.40561 1.41556 1.42551 1.43546 1.44541 1.45536 
1.46531 1.47526 1.50829 1.54506 1.58182 1.61859 1.65536 1.69212 1.72889 
1.76566 1.80242 1.83919 1.87595 1.91272 1.94949 1.98625 2.02302 2.05979 
2.09655 2.13332 2.17009 2.20685 2.22761 2.22428 2.22094 2.21761 2.21428 
2.21095 2.20761 2.20428 2.20095 2.19761 2.19428 2.19095 2.18762 2.18428 
2.18095 2.17762 2.17428 2.17095 2.16762 2.16429 2.13708 2.10773 2.07837 
2.04902 2.01967 1.99031 1.96096 1.9316 1.90225 1.8729 1.84354 1.81419 
1.78483 1.75548 1.72612 1.69677 1.66742 1.63806 1.60871 1.57935 1.55 

TEXTURE_COORDINATES TCoords 2 float
0 0 0.000783085 0 0.00156617 0 0.00234926 0 0.00313234 
0 0.00391543 0 0.00469851 0 0.0054816 0 0.00626468 0 
0.00704777 0 0.00783085 0 0.00861394 0 0.00939702 0 0.0101801 
0 0.0109632 0 0.0117463 0 0.0125294 0 0.0133125 0 
0.0140955 0 0.0148786 0 0.0156617 0 0.0164448 0 0.0172279 
0 0.018011 0 0.018794 0 0.0195771 0 0.0203602 0 
0.0211433 0 0.0219264 0 0.0227095 0 0.0234926 0 0.0242756 
0 0.0250587 0 0.0258418 0 0.0266249 0 0.027408 0 
0.0281911 0 0.0289742 0 0.0297572 0 0.0305403 0 0.0313234 
0 0.0321065 0 0.0328896 0 0.0336727 0 0.0344558 0 
0.0352388 0 0.0360219 0 0.036805 0 0.0375881 0 0.0383712 
0 0.0391543 0 0.0399374 0 0.0407204 0 0.0415035 0 
0.0422866 0 0.0430697 0 0.0438528 0 0.0446359 0 0.045419 
0 0.046202 0 0.0469851 0 0.0477682 0 0.0485513 0 
0.0493344 0 0.0501175 0 0.0509005 0 0.0516836 0 0.0524667 
0 0.0532498 0 0.0540329 0 0.054816 0 0.0555991 0 
0.0563821 0 0.0571652 0 0.0579483 0 0.0587314 0 0.0595145 
0 0.0602976 0 0.0610807 0 0.0618637 0 0.0626468 0 
0.0634299 0 0.064213 0 0.0649961 0 0.0657792 0 0.0665623 
0 0.0673453 0 0.0681284 0 0.0689115 0 0.0696946 0 
0.0704777 0 0.0712608 0 0.0720439 0 0.0728269 0 0.07361 
0 0.0743931 0 0.0751762 0 0.0759593 0 0.0767424 0 
0.0775255 0 0.0783085 0 0.0790916 0 0.0798747 0 0.0806578 
0 0.0814409 0 0.082224 0 0.083007 0 0.0837901 0 
0.0845732 0 0.0853563 0 0.0861394 0 0.0869225 0 0.0877056 
0 0.0884886 0 0.0892717 0 0.0900548 0 0.0908379 0 
0.091621 0 0.0924041 0 0.0931872 0 0.0939702 0 0.0947533 
0 0.0955364 0 0.0963195 0 0.0971026 0 0.0978857 0 
0.0986688 0 0.0994518 0 0.100235 0 0.101018 0 0.101801 
0 0.102584 0 0.103367 0 0.10415 0 0.104933 0 
0.105717 0 0.1065 0 0.107283 0 0.108066 0 0.108849 
0 0.109632 0 0.110415 0 0.111198 0 0.111981 0 
0.112764 0 0.113547 0 0.11433 0 0.115114 0 0.115897 
0 0.11668 0 0.117463 0 0.118246 0 0.119029 0 
0.119812 0 0.120595 0 0.121378 0 0.122161 0 0.122944 
0 0.123727 0 0.124511 0 0.125294 0 0.126077 0 
0.12686 0 0.127643 0 0.128426 0 0.129209 0 0.129992 
0 0.130775 0 0.131558 0 0.132341 0 0.133125 0 
0.133908 0 0.134691 0 0.135474 0 0.136257 0 0.13704 
0 0.137823 0 0.138606 0 0.139389 0 0.140172 0 
0.140955 0 0.141738 0 0.142522 0 0.143305 0 0.144088 
0 0.144871 0 0.145654 0 0.146437 0 0.14722 0 
0.148003 0 0.148786 0 0.149569 0 0.150352 0 0.151135 
0 0.151919 0 0.152702 0 0.153485 0 0.154268 0 
0.155051 0 0.155834 0 0.156617 0 0.1574 0 0.158183 
0 0.158966 0 0.159749 0 0.160533 0 0.161316 0 
0.162099 0 0.162882 0 0.163665 0 0.164448 0 0.165231 
0 0.166014 0 0.166797 0 0.16758 0 0.168363 0 
0.169146 0 0.16993 0 0.170713 0 0.171496 0 0.172279 
0 0.173062 0 0.173845 0 0.174628 0 0.175411 0 
0.176194 0 0.176977 0 0.17776 0 0.178543 0 0.179327 
0 0.18011 0 0.180893 0 0.181676 0 0.182459 0 
0.183242 0 0.184025 0 0.184808 0 0.185591 0 0.186374 
0 0.187157 0 0.18794 0 0.188724 0 0.189507 0 
0.19029 0 0.191073 0 0.191856 0 0.192639 0 0.193422 
0 0.194205 0 0.194988 0 0.195771 0 0.196554 0 
0.197338 0 0.198121 0 0.198904 0 0.199687 0 0.20047 
0 0.201253 0 0.202036 0 0.202819 0 0.203602 0 
0.204385 0 0.205168 0 0.205951 0 0.206735 0 0.207518 
0 0.208301 0 0.209084 0 0.209867 0 0.21065 0 
0.211433 0 0.212216 0 0.212999 0 0.213782 0 0.214565 
0 0.215348 0 0.216132 0 0.216915 0 0.217698 0 
0.218481 0 0.219264 0 0.220047 0 0.22083 0 0.221613 
0 0.222396 0 0.223179 0 0.223962 0 0.224745 0 
0.225529 0 0.226312 0 0.227095 0 0.227878 0 0.228661 
0 0.229444 0 0.230227 0 0.23101 0 0.231793 0 
0.232576 0 0.233359 0 0.234143 0 0.234926 0 0.235709 
0 0.236492 0 0.237275 0 0.238058 0 0.238841 0 
0.239624 0 0.240407 0 0.24119 0 0.241973 0 0.242756 
0 0.24354 0 0.244323 0 0.245106 0 0.245889 0 
0.246672 0 0.247455 0 0.248238 0 0.249021 0 0.249804 
0 0.250587 0 0.25137 0 0.252153 0 0.252937 0 
0.25372 0 0.254503 0 0.255286 0 0.256069 0 0.256852 
0 0.257635 0 0.258418 0 0.259201 0 0.259984 0 
0.260767 0 0.261551 0 0.262334 0 0.263117 0 0.2639 
0 0.264683 0 0.265466 0 0.266249 0 0.267032 0 
0.267815 0 0.268598 0 0.269381 0 0.270164 0 0.270948 
0 0.271731 0 0.272514 0 0.273297 0 0.27408 0 
0.274863 0 0.275646 0 0.276429 0 0.277212 0 0.277995 
0 0.278778 0 0.279561 0 0.280345 0 0.281128 0 
0.281911 0 0.282694 0 0.283477 0 0.28426 0 0.285043 
0 0.285826 0 0.286609 0 0.287392 0 0.288175 0 
0.288958 0 0.289742 0 0.290525 0 0.291308 0 0.292091 
0 0.292874 0 0.293657 0 0.29444 0 0.295223 0 
0.296006 0 0.296789 0 0.297572 0 0.298356 0 0.299139 
0 0.299922 0 0.300705 0 0.301488 0 0.302271 0 
0.303054 0 0.303837 0 0.30462 0 0.305403 0 0.306186 
0 0.306969 0 0.307753 0 0.308536 0 0.309319 0 
0.310102 0 0.310885 0 0.311668 0 0.312451 0 0.313234 
0 0.314017 0 0.3148 0 0.315583 0 0.316366 0 
0.31715 0 0.317933 0 0.318716 0 0.319499 0 0.320282 
0 0.321065 0 0.321848 0 0.322631 0 0.323414 0 
0.324197 0 0.32498 0 0.325763 0 0.326547 0 0.32733 
0 0.328113 0 0.328896 0 0.329679 0 0.330462 0 
0.331245 0 0.332028 0 0.332811 0 0.333594 0 0.334377 
0 0.335161 0 0.335944 0 0.336727 0 0.33751 0 
0.338293 0 0.339076 0 0.339859 0 0.340642 0 0.341425 
0 0.342208 0 0.342991 0 0.343774 0 0.344558 0 
0.345341 0 0.346124 0 0.346907 0 0.34769 0 0.348473 
0 0.349256 0 0.350039 0 0.350822 0 0.351605 0 
0.352388 0 0.353171 0 0.353955 0 0.354738 0 0.355521 
0 0.356304 0 0.357087 0 0.35787 0 0.358653 0 
0.359436 0 0.360219 0 0.361002 0 0.361785 0 0.362569 
0 0.363352 0 0.364135 0 0.364918 0 0.365701 0 
0.366484 0 0.367267 0 0.36805 0 0.368833 0 0.369616 
0 0.370399 0 0.371182 0 0.371966 0 0.372749 0 
0.373532 0 0.374315 0 0.375098 0 0.375881 0 0.376664 
0 0.377447 0 0.37823 0 0.379013 0 0.379796 0 
0.380579 0 0.381363 0 0.382146 0 0.382929 0 0.383712 
0 0.384495 0 0.385278 0 0.386061 0 0.386844 0 
0.387627 0 0.38841 0 0.389193 0 0.389977 0 0.39076 
0 0.391543 0 0.392326 0 0.393109 0 0.393892 0 
0.394675 0 0.395458 0 0.396241 0 0.397024 0 0.397807 
0 0.39859 0 0.399374 0 0.400157 0 0.40094 0 
0.401723 0 0.402506 0 0.403289 0 0.404072 0 0.404855 
0 0.405638 0 0.406421 0 0.407204 0 0.407987 0 
0.408771 0 0.409554 0 0.410337 0 0.41112 0 0.411903 
0 0.412686 0 0.413469 0 0.414252 0 0.415035 0 
0.415818 0 0.416601 0 0.417385 0 0.418168 0 0.418951 
0 0.419734 0 0.420517 0 0.4213 0 0.422083 0 
0.422866 0 0.423649 0 0.424432 0 0.425215 0 0.425998 
0 0.426782 0 0.427565 0 0.428348 0 0.429131 0 
0.429914 0 0.430697 0 0.43148 0 0.432263 0 0.433046 
0 0.433829 0 0.434612 0 0.435395 0 0.436179 0 
0.436962 0 0.437745 0 0.438528 0 0.439311 0 0.440094 
0 0.440877 0 0.44166 0 0.442443 0 0.443226 0 
0.444009 0 0.444792 0 0.445576 0 0.446359 0 0.447142 
0 0.447925 0 0.448708 0 0.449491 0 0.450274 0 
0.451057 0 0.45184 0 0.452623 0 0.453406 0 0.45419 
0 0.454973 0 0.455756 0 0.456539 0 0.457322 0 
0.458105 0 0.458888 0 0.459671 0 0.460454 0 0.461237 
0 0.46202 0 0.462803 0 0.463587 0 0.46437 0 
0.465153 0 0.465936 0 0.466719 0 0.467502 0 0.468285 
0 0.469068 0 0.469851 0 0.470634 0 0.471417 0 
0.4722 0 0.472984 0 0.473767 0 0.47455 0 0.475333 
0 0.476116 0 0.476899 0 0.477682 0 0.478465 0 
0.479248 0 0.480031 0 0.480814 0 0.481597 0 0.482381 
0 0.483164 0 0.483947 0 0.48473 0 0.485513 0 
0.486296 0 0.487079 0 0.487862 0 0.488645 0 0.489428 
0 0.490211 0 0.490995 0 0.491778 0 0.492561 0 
0.493344 0 0.494127 0 0.49491 0 0.495693 0 0.496476 
0 0.497259 0 0.498042 0 0.498825 0 0.499608 0 
0.500392 0 0.501175 0 0.501958 0 0.502741 0 0.503524 
0 0.504307 0 0.50509 0 0.505873 0 0.506656 0 
0.507439 0 0.508222 0 0.509005 0 0.509789 0 0.510572 
0 0.511355 0 0.512138 0 0.512921 0 0.513704 0 
0.514487 0 0.51527 0 0.516053 0 0.516836 0 0.517619 
0 0.518403 0 0.519186 0 0.519969 0 0.520752 0 
0.521535 0 0.522318 0 0.523101 0 0.523884 0 0.524667 
0 0.52545 0 0.526233 0 0.527016 0 0.5278 0 
0.528583 0 0.529366 0 0.530149 0 0.530932 0 0.531715 
0 0.532498 0 0.533281 0 0.534064 0 0.534847 0 
0.53563 0 0.536413 0 0.537197 0 0.53798 0 0.538763 
0 0.539546 0 0.540329 0 0.541112 0 0.541895 0 
0.542678 0 0.543461 0 0.544244 0 0.545027 0 0.545811 
0 0.546594 0 0.547377 0 0.54816 0 0.548943 0 
0.549726 0 0.550509 0 0.551292 0 0.552075 0 0.552858 
0 0.553641 0 0.554424 0 0.555207 0 0.555991 0 
0.556774 0 0.557557 0 0.55834 0 0.559123 0 0.559906 
0 0.560689 0 0.561472 0 0.562255 0 0.563038 0 
0.563821 0 0.564605 0 0.565388 0 0.566171 0 0.566954 
0 0.567737 0 0.56852 0 0.569303 0 0.570086 0 
0.570869 0 0.571652 0 0.572435 0 0.573218 0 0.574002 
0 0.574785 0 0.575568 0 0.576351 0 0.577134 0 
0.577917 0 0.5787 0 0.579483 0 0.580266 0 0.581049 
0 0.581832 0 0.582615 0 0.583399 0 0.584182 0 
0.584965 0 0.585748 0 0.586531 0 0.587314 0 0.588097 
0 0.58888 0 0.589663 0 0.590446 0 0.591229 0 
0.592013 0 0.592796 0 0.593579 0 0.594362 0 0.595145 
0 0.595928 0 0.596711 0 0.597494 0 0.598277 0 
0.59906 0 0.599843 0 0.600626 0 0.60141 0 0.602193 
0 0.602976 0 0.603759 0 0.604542 0 0.605325 0 
0.606108 0 0.606891 0 0.607674 0 0.608457 0 0.60924 
0 0.610023 0 0.610807 0 0.61159 0 0.612373 0 
0.613156 0 0.613939 0 0.614722 0 0.615505 0 0.616288 
0 0.617071 0 0.617854 0 0.618637 0 0.619421 0 
0.620204 0 0.620987 0 0.62177 0 0.622553 0 0.623336 
0 0.624119 0 0.624902 0 0.625685 0 0.626468 0 
0.627251 0 0.628034 0 0.628818 0 0.629601 0 0.630384 
0 0.631167 0 0.63195 0 0.632733 0 0.633516 0 
0.634299 0 0.635082 0 0.635865 0 0.636648 0 0.637432 
0 0.638215 0 0.638998 0 0.639781 0 0.640564 0 
0.641347 0 0.64213 0 0.642913 0 0.643696 0 0.644479 
0 0.645262 0 0.646045 0 0.646829 0 0.647612 0 
0.648395 0 0.649178 0 0.649961 0 0.650744 0 0.651527 
0 0.65231 0 0.653093 0 0.653876 0 0.654659 0 
0.655442 0 0.656226 0 0.657009 0 0.657792 0 0.658575 
0 0.659358 0 0.660141 0 0.660924 0 0.661707 0 
0.66249 0 0.663273 0 0.664056 0 0.664839 0 0.665623 
0 0.666406 0 0.667189 0 0.667972 0 0.668755 0 
0.669538 0 0.670321 0 0.671104 0 0.671887 0 0.67267 
0 0.673453 0 0.674236 0 0.67502 0 0.675803 0 