# vtk DataFile Version 4.2
vtk output
ASCII
DATASET POLYDATA
POINTS 1279 float
0 0 0 -0.00320987 0.000113728 -0.00264912 -0.0125779 0.000437423 -0.0103583 
-0.0277119 0.000944848 -0.0227701 -0.0482196 0.00160977 -0.0395273 -0.0737086 0.00240594 -0.0602726 
-0.103787 0.00330714 -0.0846486 -0.138061 0.00428713 -0.112298 -0.176141 0.00531966 -0.142863 
-0.217632 0.00637851 -0.175988 -0.262144 0.00743743 -0.211313 -0.309283 0.0084702 -0.248483 
-0.358657 0.00945057 -0.28714 -0.409875 0.0103523 -0.326926 -0.462543 0.0111492 -0.367484 
-0.51627 0.011815 -0.408457 -0.570663 0.0123234 -0.449488 -0.62533 0.0126482 -0.490219 
-0.679878 0.0127633 -0.530292 -0.733916 0.0126423 -0.569351 -0.787051 0.012259 -0.607039 
-0.838905 0.011588 -0.64301 -0.889358 0.0106173 -0.677145 -0.93851 0.00934665 -0.70952 
-0.986469 0.00777631 -0.740215 -1.03334 0.00590637 -0.769313 -1.07924 0.003737 -0.796893 
-1.12427 0.00126834 -0.823039 -1.16854 -0.00149945 -0.84783 -1.21216 -0.00456622 -0.871348 
-1.25523 -0.00793182 -0.893675 -1.29787 -0.0115961 -0.914892 -1.34017 -0.0155589 -0.935081 
-1.38226 -0.0198201 -0.954321 -1.42423 -0.0243795 -0.972696 -1.4662 -0.0292369 -0.990285 
-1.50828 -0.0343923 -1.00717 -1.55056 -0.0398454 -1.02344 -1.59317 -0.0455962 -1.03916 
-1.6362 -0.0516444 -1.05442 -1.67977 -0.0579899 -1.06931 -1.72398 -0.0646326 -1.08389 
-1.76886 -0.0715751 -1.0982 -1.81437 -0.0788222 -1.11218 -1.86046 -0.086379 -1.12581 
-1.9071 -0.0942505 -1.13903 -1.95422 -0.102442 -1.1518 -2.00179 -0.110958 -1.16408 
-2.04977 -0.119805 -1.17582 -2.09809 -0.128986 -1.187 -2.14673 -0.138507 -1.19755 
-2.19563 -0.148374 -1.20743 -2.24474 -0.158591 -1.21662 -2.29403 -0.169163 -1.22505 
-2.34344 -0.180095 -1.2327 -2.39293 -0.191393 -1.23951 -2.44245 -0.203062 -1.24545 
-2.49196 -0.215106 -1.25047 -2.54141 -0.22753 -1.25452 -2.59076 -0.240341 -1.25758 
-2.63996 -0.253542 -1.25958 -2.68896 -0.267139 -1.26049 -2.73773 -0.281133 -1.26029 
-2.78625 -0.295516 -1.25899 -2.83453 -0.310278 -1.25662 -2.88255 -0.325408 -1.25319 
-2.9303 -0.340896 -1.24875 -2.97779 -0.356733 -1.2433 -3.025 -0.372907 -1.23688 
-3.07192 -0.389409 -1.22952 -3.11856 -0.406228 -1.22123 -3.1649 -0.423355 -1.21205 
-3.21094 -0.440779 -1.20199 -3.25667 -0.45849 -1.19108 -3.30208 -0.476477 -1.17936 
-3.34718 -0.494731 -1.16684 -3.39194 -0.513242 -1.15355 -3.43637 -0.531999 -1.13951 
-3.48046 -0.550992 -1.12475 -3.5242 -0.57021 -1.10929 -3.56759 -0.589645 -1.09317 
-3.61061 -0.609285 -1.0764 -3.65327 -0.629121 -1.05901 -3.69556 -0.649146 -1.04101 
-3.7375 -0.669357 -1.02243 -3.77907 -0.689749 -1.00328 -3.82029 -0.710316 -0.983581 
-3.86116 -0.731054 -0.963341 -3.90168 -0.751959 -0.942579 -3.94185 -0.773026 -0.921312 
-3.98169 -0.79425 -0.899556 -4.02119 -0.815627 -0.877328 -4.06035 -0.837151 -0.854643 
-4.09918 -0.858818 -0.831517 -4.13769 -0.880624 -0.807968 -4.17587 -0.902563 -0.784011 
-4.21374 -0.924631 -0.759662 -4.25128 -0.946824 -0.734938 -4.28852 -0.969137 -0.709854 
-4.32544 -0.991564 -0.684428 -4.36206 -1.0141 -0.658674 -4.39837 -1.03675 -0.63261 
-4.43439 -1.05949 -0.606252 -4.47011 -1.08233 -0.579612 -4.50555 -1.10527 -0.552699 
-4.54071 -1.12831 -0.525525 -4.57559 -1.15144 -0.498098 -4.61022 -1.17467 -0.470429 
-4.64458 -1.19799 -0.442527 -4.6787 -1.2214 -0.414402 -4.71257 -1.2449 -0.386065 
-4.7462 -1.2685 -0.357524 -4.77961 -1.29218 -0.32879 -4.8128 -1.31595 -0.299872 
-4.84577 -1.33981 -0.270781 -4.87854 -1.36375 -0.241526 -4.9111 -1.38778 -0.212117 
-4.94348 -1.41189 -0.182564 -4.97566 -1.43609 -0.152876 -5.00768 -1.46036 -0.123064 
-5.03952 -1.48472 -0.0931377 -5.07119 -1.50916 -0.0631062 -5.10271 -1.53368 -0.0329797 
-5.13408 -1.55827 -0.00276651 -5.16531 -1.58295 0.0275275 -5.1964 -1.6077 0.0578969 
-5.22735 -1.63253 0.0883362 -5.25817 -1.65744 0.11884 -5.28886 -1.68243 0.149402 
-5.31944 -1.70751 0.180018 -5.3499 -1.73266 0.210681 -5.38025 -1.7579 0.241387 
-5.41049 -1.78322 0.272129 -5.44063 -1.80862 0.302903 -5.47068 -1.8341 0.333702 
-5.50063 -1.85967 0.364522 -5.5305 -1.88532 0.395356 -5.56028 -1.91106 0.426199 
-5.58999 -1.93688 0.457046 -5.61963 -1.96278 0.487891 -5.6492 -1.98877 0.518729 
-5.67871 -2.01485 0.549554 -5.70816 -2.04102 0.58036 -5.73756 -2.06727 0.611143 
-5.76691 -2.09361 0.641896 -5.79621 -2.12003 0.672615 -5.82548 -2.14655 0.703296 
-5.85471 -2.17316 0.733932 -5.8839 -2.19986 0.764518 -5.91307 -2.22665 0.795051 
-5.94221 -2.25354 0.825523 -5.97134 -2.28052 0.855932 -6.00044 -2.30759 0.88627 
-6.02954 -2.33476 0.916534 -6.05863 -2.36203 0.946718 -6.08771 -2.3894 0.976818 
-6.11679 -2.41686 1.00683 -6.14588 -2.44443 1.03674 -6.17497 -2.4721 1.06656 
-6.20408 -2.49987 1.09626 -6.2332 -2.52774 1.12586 -6.26234 -2.55571 1.15535 
-6.29151 -2.58379 1.18471 -6.3207 -2.61198 1.21395 -6.34993 -2.64027 1.24306 
-6.37919 -2.66867 1.27203 -6.40849 -2.69718 1.30085 -6.43782 -2.7258 1.32953 
-6.4672 -2.75453 1.35806 -6.49662 -2.78337 1.38642 -6.52609 -2.81233 1.41462 
-6.5556 -2.8414 1.44265 -6.58517 -2.87059 1.4705 -6.6148 -2.8999 1.49817 
-6.64448 -2.92932 1.52565 -6.67422 -2.95887 1.55293 -6.70402 -2.98853 1.58001 
-6.73389 -3.01832 1.60689 -6.76383 -3.04823 1.63356 -6.79384 -3.07827 1.66001 
-6.82392 -3.10843 1.68623 -6.85408 -3.13872 1.71223 -6.88432 -3.16914 1.73799 
-6.91463 -3.19968 1.76351 -6.94503 -3.23036 1.78878 -6.97551 -3.26117 1.8138 
-7.00608 -3.29211 1.83856 -7.03673 -3.32318 1.86305 -7.06747 -3.35439 1.88726 
-7.09829 -3.38573 1.91119 -7.12919 -3.4172 1.93483 -7.16018 -3.44882 1.95817 
-7.19126 -3.48057 1.98121 -7.22242 -3.51245 2.00394 -7.25367 -3.54448 2.02635 
-7.28501 -3.57665 2.04843 -7.31644 -3.60895 2.07018 -7.34795 -3.6414 2.0916 
-7.37955 -3.67399 2.11266 -7.41125 -3.70672 2.13337 -7.44303 -3.7396 2.15372 
-7.4749 -3.77261 2.1737 -7.50686 -3.80578 2.19331 -7.53891 -3.83909 2.21253 
-7.57105 -3.87255 2.23136 -7.60328 -3.90615 2.2498 -7.63559 -3.9399 2.26782 
-7.66799 -3.9738 2.28544 -7.70046 -4.00784 2.30263 -7.733 -4.04203 2.31939 
-7.76561 -4.07637 2.33572 -7.79829 -4.11085 2.3516 -7.83103 -4.14548 2.36702 
-7.86382 -4.18025 2.38198 -7.89668 -4.21516 2.39647 -7.92958 -4.25023 2.41048 
-7.96254 -4.28543 2.42401 -7.99553 -4.32078 2.43704 -8.02857 -4.35628 2.44957 
-8.06165 -4.39192 2.46159 -8.09476 -4.4277 2.47309 -8.1279 -4.46363 2.48406 
-8.16107 -4.49971 2.4945 -8.19425 -4.53592 2.50439 -8.22746 -4.57228 2.51374 
-8.26069 -4.60878 2.52252 -8.29391 -4.64542 2.53074 -8.32713 -4.6822 2.53839 
-8.36034 -4.71911 2.54546 -8.39352 -4.75615 2.55194 -8.42667 -4.79331 2.55783 
-8.45978 -4.83061 2.56312 -8.49284 -4.86802 2.56779 -8.52585 -4.90555 2.57186 
-8.55879 -4.9432 2.5753 -8.59165 -4.98097 2.57811 -8.62443 -5.01885 2.58028 
-8.65712 -5.05683 2.58182 -8.68971 -5.09492 2.5827 -8.72219 -5.13312 2.58292 
-8.75455 -5.17141 2.58247 -8.78678 -5.20981 2.58136 -8.81888 -5.2483 2.57956 
-8.85083 -5.28688 2.57708 -8.88263 -5.32555 2.57391 -8.91427 -5.3643 2.57003 
-8.94573 -5.40314 2.56547 -8.977 -5.44205 2.5602 -9.00807 -5.48103 2.55424 
-9.03893 -5.52007 2.54758 -9.06956 -5.55917 2.54023 -9.09996 -5.59831 2.53219 
-9.1301 -5.63751 2.52344 -9.15998 -5.67674 2.51401 -9.18958 -5.71601 2.50388 
-9.21889 -5.7553 2.49305 -9.2479 -5.79462 2.48154 -9.2766 -5.83396 2.46933 
-9.30497 -5.8733 2.45642 -9.333 -5.91265 2.44283 -9.36068 -5.952 2.42854 
-9.388 -5.99135 2.41356 -9.41494 -6.03068 2.39789 -9.44149 -6.07 2.38152 
-9.46764 -6.10929 2.36447 -9.49337 -6.14855 2.34673 -9.51869 -6.18778 2.32831 
-9.54358 -6.22697 2.30922 -9.56803 -6.26611 2.28948 -9.59203 -6.3052 2.26909 
-9.61559 -6.34424 2.24807 -9.63869 -6.38321 2.22643 -9.66131 -6.42212 2.20417 
-9.68347 -6.46095 2.18131 -9.70514 -6.49971 2.15785 -9.72632 -6.53838 2.13382 
-9.747 -6.57697 2.10921 -9.76717 -6.61546 2.08404 -9.78684 -6.65385 2.05833 
-9.80598 -6.69213 2.03207 -9.82459 -6.73031 2.00529 -9.84266 -6.76836 1.97799 
-9.86019 -6.8063 1.95018 -9.87717 -6.84411 1.92188 -9.89359 -6.88178 1.89309 
-9.90944 -6.91932 1.86383 -9.92472 -6.95672 1.8341 -9.93944 -6.99398 1.80393 
-9.95359 -7.0311 1.77332 -9.96718 -7.06807 1.74229 -9.98021 -7.1049 1.71084 
-9.99268 -7.14158 1.679 -10.0046 -7.17812 1.64678 -10.0159 -7.21451 1.61418 
-10.0267 -7.25074 1.58122 -10.037 -7.28683 1.54792 -10.0467 -7.32276 1.51429 
-10.0558 -7.35854 1.48033 -10.0644 -7.39417 1.44607 -10.0724 -7.42964 1.41151 
-10.0799 -7.46495 1.37668 -10.0869 -7.5001 1.34157 -10.0933 -7.53509 1.30621 
-10.0992 -7.56992 1.2706 -10.1045 -7.60459 1.23477 -10.1092 -7.63909 1.19872 
-10.1135 -7.67343 1.16246 -10.1172 -7.70761 1.126 -10.1204 -7.74163 1.08935 
-10.123 -7.77549 1.05252 -10.1252 -7.80919 1.01552 -10.1268 -7.84273 0.978352 
-10.1279 -7.87612 0.941028 -10.1286 -7.90936 0.903556 -10.1287 -7.94245 0.865944 
-10.1283 -7.97539 0.828201 -10.1275 -8.00818 0.790335 -10.1262 -8.04082 0.752355 
-10.1244 -8.07332 0.71427 -10.1221 -8.10567 0.676087 -10.1194 -8.13789 0.637815 
-10.1162 -8.16996 0.599463 -10.1125 -8.20189 0.561039 -10.1084 -8.23369 0.522551 
-10.1038 -8.26535 0.484008 -10.0988 -8.29688 0.445419 -10.0934 -8.32827 0.406789 
-10.0876 -8.35953 0.368125 -10.0813 -8.39067 0.329429 -10.0746 -8.42168 0.290707 
-10.0674 -8.45256 0.251964 -10.0599 -8.48333 0.213203 -10.052 -8.51397 0.174429 
-10.0436 -8.5445 0.135646 -10.0349 -8.57491 0.0968598 -10.0258 -8.60521 0.0580738 
-10.0163 -8.6354 0.0192929 -10.0064 -8.66548 -0.0194785 -9.99614 -8.69546 -0.058236 
-9.98551 -8.72533 -0.0969751 -9.97452 -8.7551 -0.135691 -9.96317 -8.78477 -0.17438 
-9.95146 -8.81434 -0.213037 -9.93941 -8.84381 -0.251658 -9.92701 -8.87319 -0.290238 
-9.91427 -8.90249 -0.328772 -9.9012 -8.93169 -0.367257 -9.8878 -8.96081 -0.40569 
-9.87407 -8.98984 -0.444067 -9.86002 -9.01879 -0.482386 -9.84566 -9.04767 -0.520643 
-9.83097 -9.07647 -0.558836 -9.81598 -9.1052 -0.596962 -9.80068 -9.13386 -0.635017 
-9.78508 -9.16245 -0.673 -9.76919 -9.19098 -0.710906 -9.75299 -9.21945 -0.748733 
-9.73651 -9.24786 -0.786478 -9.71974 -9.27622 -0.824138 -9.70269 -9.30452 -0.86171 
-9.68536 -9.33278 -0.899191 -9.66775 -9.36098 -0.936579 -9.64987 -9.38915 -0.97387 
[...]
CELL_DATA 1
FIELD FieldData 2
Length 1 1 double
63.909075181 
Tortuosity 1 1 double
0.86381303304 
POINT_DATA 1279
SCALARS MaximumInscribedSphereRadius float
LOOKUP_TABLE default
0.93 0.93 0.93 0.93 0.93 0.93 0.93 0.93 0.93 
0.93 0.93 0.93 0.93 0.93 0.93 0.93 0.93 0.93 
0.93 0.93 0.93 0.930204 0.93057 0.930936 0.931302 0.931668 0.932034 
0.9324 0.932766 0.933133 0.933499 0.933865 0.934231 0.934597 0.934963 0.935329 
0.935695 0.936061 0.936427 0.936793 0.937159 0.940428 0.946686 0.952944 0.959202 
0.96546 0.971718 0.977975 0.984233 0.990491 0.996749 1.00301 1.00926 1.01552 
1.02178 1.02804 1.0343 1.04055 1.04681 1.05307 1.05933 1.0657 1.07289 
1.08008 1.08727 1.09446 1.10165 1.10884 1.11603 1.12322 1.13041 1.1376 
1.14479 1.15198 1.15917 1.16636 1.17355 1.18074 1.18793 1.19512 1.20231 
1.2095 1.20358 1.19558 1.18757 1.17957 1.17156 1.16356 1.15556 1.14755 
1.13955 1.13154 1.12354 1.11553 1.10753 1.09952 1.09152 1.08352 1.07551 
1.06751 1.0595 1.0515 1.04665 1.04419 1.04174 1.03929 1.03683 1.03438 
1.03193 1.02948 1.02702 1.02457 1.02212 1.01966 1.01721 1.01476 1.0123 
1.00985 1.0074 1.00495 1.00249 1.00004 1.00057 1.00879 1.017 1.02521 
1.03343 1.04164 1.04986 1.05807 1.06629 1.0745 1.08271 1.09093 1.09914 
1.10736 1.11557 1.12379 1.132 1.14021 1.14843 1.15664 1.16486 1.17296 
1.18107 1.18917 1.19727 1.20538 1.21348 1.22158 1.22968 1.23779 1.24589 
1.25399 1.2621 1.2702 1.2783 1.28641 1.29451 1.30261 1.31072 1.31882 
1.32692 1.33392 1.34043 1.34695 1.35346 1.35998 1.36649 1.37301 1.37952 
1.38604 1.39255 1.39907 1.40558 1.4121 1.41861 1.42513 1.43164 1.43816 
1.44467 1.45118 1.4577 1.46123 1.4604 1.45958 1.45876 1.45794 1.45712 
1.4563 1.45548 1.45466 1.45384 1.45301 1.45219 1.45137 1.45055 1.44973 
1.44891 1.44809 1.44727 1.44645 1.44562 1.44417 1.43794 1.43171 1.42548 
1.41925 1.41302 1.40679 1.40056 1.39433 1.3881 1.38187 1.37564 1.36941 
1.36318 1.35695 1.35072 1.34449 1.33826 1.33203 1.3258 1.31957 1.31681 
1.31478 1.31274 1.31071 1.30867 1.30664 1.3046 1.30256 1.30053 1.29849 
1.29646 1.29442 1.29239 1.29035 1.28831 1.28628 1.28424 1.28221 1.28017 
1.27813 1.27793 1.27928 1.28063 1.28198 1.28333 1.28469 1.28604 1.28739 
1.28874 1.29009 1.29144 1.29279 1.29414 1.29549 1.29684 1.29819 1.29955 
1.3009 1.30225 1.3036 1.30484 1.30578 1.30672 1.30765 1.30859 1.30953 
1.31046 1.3114 1.31234 1.31327 1.31421 1.31515 1.31608 1.31702 1.31796 
1.3189 1.31983 1.32077 1.32171 1.32264 1.32358 1.31641 1.30906 1.30171 
1.29437 1.28702 1.27967 1.27232 1.26497 1.25763 1.25028 1.24293 1.23558 
1.22823 1.22089 1.21354 1.20619 1.19884 1.19149 1.18414 1.1768 1.17129 
1.16661 1.16193 1.15725 1.15257 1.14789 1.14321 1.13852 1.13384 1.12916 
1.12448 1.1198 1.11512 1.11044 1.10576 1.10108 1.09639 1.09171 1.08703 
1.08235 1.08378 1.0943 1.10483 1.11535 1.12587 1.1364 1.14692 1.15745 
1.16797 1.1785 1.18902 1.19954 1.21007 1.22059 1.23112 1.24164 1.25217 
1.26269 1.27321 1.28374 1.29418 1.30399 1.3138 1.32361 1.33342 1.34322 
1.35303 1.36284 1.37265 1.38246 1.39227 1.40208 1.41189 1.42169 1.4315 
1.44131 1.45112 1.46093 1.47074 1.48055 1.49035 1.49141 1.49056 1.4897 
1.48885 1.488 1.48715 1.48629 1.48544 1.48459 1.48374 1.48288 1.48203 
1.48118 1.48032 1.47947 1.47862 1.47777 1.47691 1.47606 1.47521 1.47193 
1.46654 1.46114 1.45575 1.45035 1.44496 1.43957 1.43417 1.42878 1.42338 
1.41799 1.4126 1.4072 1.40181 1.39641 1.39102 1.38562 1.38023 1.37484 
1.36944 1.36366 1.3566 1.34955 1.3425 1.33544 1.32839 1.32134 1.31428 
1.30723 1.30017 1.29312 1.28607 1.27901 1.27196 1.2649 1.25785 1.2508 
1.24374 1.23669 1.22964 1.22258 1.22515 1.22802 1.2309 1.23378 1.23665 
1.23953 1.24241 1.24528 1.24816 1.25104 1.25391 1.25679 1.25967 1.26254 
1.26542 1.2683 1.27117 1.27405 1.27693 1.2798 1.28598 1.29392 1.30186 
1.3098 1.31774 1.32568 1.33362 1.34156 1.3495 1.35744 1.36538 1.37332 
1.38126 1.3892 1.39714 1.40508 1.41302 1.42096 1.4289 1.43684 1.44261 
1.43901 1.4354 1.4318 1.42819 1.42459 1.42098 1.41738 1.41377 1.41017 
1.40656 1.40296 1.39935 1.39575 1.39214 1.38854 1.38493 1.38133 1.37772 
1.37412 1.3698 1.36464 1.35949 1.35433 1.34917 1.34402 1.33886 1.3337 
1.32854 1.32339 1.31823 1.31307 1.30792 1.30276 1.2976 1.29244 1.28729 
1.28213 1.27697 1.27182 1.26666 1.27153 1.27657 1.28162 1.28667 1.29171 
1.29676 1.3018 1.30685 1.3119 1.31694 1.32199 1.32703 1.33208 1.33713 
1.34217 1.34722 1.35226 1.35731 1.36236 1.3674 1.37452 1.38241 1.3903 
1.39819 1.40608 1.41397 1.42186 1.42975 1.43764 1.44553 1.45342 1.4613 
1.46919 1.47708 1.48497 1.49286 1.50075 1.50864 1.51653 1.52442 1.52638 
1.52051 1.51463 1.50876 1.50288 1.49701 1.49113 1.48526 1.47938 1.47351 
1.46763 1.46176 1.45588 1.45001 1.44414 1.43826 1.43239 1.42651 1.42064 
1.41476 1.40859 1.40059 1.39259 1.38459 1.37658 1.36858 1.36058 1.35258 
1.34458 1.33658 1.32858 1.32058 1.31258 1.30458 1.29658 1.28858 1.28058 
1.27258 1.26458 1.25658 1.24857 1.26076 1.27648 1.29221 1.30794 1.32366 
1.33939 1.35511 1.37084 1.38657 1.40229 1.41802 1.43374 1.44947 1.4652 
1.48092 1.49665 1.51237 1.5281 1.54383 1.55955 1.5717 1.58104 1.59038 
1.59972 1.60906 1.6184 1.62774 1.63708 1.64642 1.65576 1.6651 1.67444 
1.68378 1.69312 1.70246 1.7118 1.72114 1.73048 1.73982 1.74916 1.74866 
1.72168 1.69471 1.66774 1.64077 1.6138 1.58682 1.55985 1.53288 1.50591 
1.47893 1.45196 1.42499 1.39802 1.37105 1.34407 1.3171 1.29013 1.26316 
1.23618 1.20921 1.20604 1.20329 1.20054 1.19778 1.19503 1.19228 1.18953 
1.18678 1.18403 1.18128 1.17853 1.17578 1.17303 1.17027 1.16752 1.16477 
1.16202 1.15927 1.15652 1.15377 1.16542 1.18339 1.20136 1.21933 1.2373 
1.25527 1.27324 1.29121 1.30918 1.32715 1.34512 1.36309 1.38105 1.39902 
1.41699 1.43496 1.45293 1.4709 1.48887 1.50684 1.52161 1.53172 1.54182 
1.55193 1.56203 1.57213 1.58224 1.59234 1.60245 1.61255 1.62265 1.63276 
1.64286 1.65297 1.66307 1.67317 1.68328 1.69338 1.70349 1.71359 1.72312 
1.72825 1.73338 1.73851 1.74365 1.74878 1.75391 1.75904 1.76417 1.76931 
1.77444 1.77957 1.7847 1.78984 1.79497 1.8001 1.80523 1.81036 1.8155 
1.82063 1.82576 1.82084 1.81381 1.80678 1.79975 1.79273 1.7857 1.77867 
1.77164 1.76462 1.75759 1.75056 1.74353 1.7365 1.72948 1.72245 1.71542 
1.70839 1.70136 1.69434 1.68731 1.68255 1.67975 1.67695 1.67415 1.67135 
1.66856 1.66576 1.66296 1.66016 1.65736 1.65456 1.65176 1.64896 1.64617 
1.64337 1.64057 1.63777 1.63497 1.63217 1.62937 1.6289 1.6356 1.6423 
1.64899 1.65569 1.66239 1.66908 1.67578 1.68248 1.68917 1.69587 1.70257 
1.70926 1.71596 1.72266 1.72935 1.73605 1.74275 1.74944 1.75614 1.76284 
1.76475 1.76643 1.76812 1.7698 1.77149 1.77317 1.77486 1.77654 1.77823 
1.77991 1.7816 1.78328 1.78497 1.78665 1.78834 1.79002 1.79171 1.79339 
1.79508 1.79676 1.79176 1.78338 1.775 1.76662 1.75824 1.74986 1.74148 
1.73309 1.72471 1.71633 1.70795 1.69957 1.69119 1.68281 1.67443 1.66604 
1.65766 1.64928 1.6409 1.63252 1.62393 1.615 1.60607 1.59714 1.58821 
1.57927 1.57034 1.56141 1.55248 1.54355 1.53461 1.52568 1.51675 1.50782 
1.49889 1.48996 1.48102 1.47209 1.46316 1.45423 1.44574 1.44228 1.43883 
1.43537 1.43191 1.42846 1.425 1.42155 1.41809 1.41463 1.41118 1.40772 
1.40426 1.40081 1.39735 1.3939 1.39044 1.38698 1.38353 1.38007 1.37662 
1.38521 1.39684 1.40847 1.42011 1.43174 1.44337 1.455 1.46663 1.47826 
1.48989 1.50152 1.51315 1.52478 1.53642 1.54805 1.55968 1.57131 1.58294 
1.59457 1.6062 1.61615 1.62455 1.63294 1.64133 1.64973 1.65812 1.66651 
1.67491 1.6833 1.69169 1.70009 1.70848 1.71687 1.72527 1.73366 1.74205 
1.75045 1.75884 1.76723 1.77563 1.78052 1.77353 1.76654 1.75955 1.75257 
1.74558 1.73859 1.7316 1.72461 1.71763 1.71064 1.70365 1.69666 1.68967 
1.68269 1.6757 1.66871 1.66172 1.65473 1.64774 1.64076 1.63888 1.63734 
1.63581 1.63428 1.63275 1.63121 1.62968 1.62815 1.62662 1.62509 1.62355 
1.62202 1.62049 1.61896 1.61742 1.61589 1.61436 1.61283 1.61129 1.60976 
1.61205 1.61643 1.6208 1.62518 1.62956 1.63394 1.63832 1.6427 1.64708 
1.65145 1.65583 1.66021 1.66459 1.66897 1.67335 1.67772 1.6821 1.68648 
1.69086 1.69524 1.69594 1.68997 1.684 1.67804 1.67207 1.6661 1.66013 
1.65417 1.6482 1.64223 1.63626 1.6303 1.62433 1.61836 1.61239 1.60642 
1.60046 1.59449 1.58852 1.58255 1.57614 1.5632 1.55027 1.53733 1.5244 
1.51147 1.49853 1.4856 1.47266 1.45973 1.44679 1.43386 1.42093 1.40799 
1.39506 1.38212 1.36919 1.35625 1.34332 1.33038 1.31745 1.30688 1.297 
1.28711 1.27723 1.26735 1.25746 1.24758 1.2377 1.22781 1.21793 1.20805 
1.19816 1.18828 1.1784 1.16851 1.15863 1.14875 1.13886 1.12898 1.1191 
1.1118 1.10726 1.10272 1.09818 1.09364 1.0891 1.08456 1.08002 1.07548 
1.07094 1.0664 1.06186 1.05731 1.05277 1.04823 1.04369 1.03915 1.03461 
1.03007 1.02553 1.02391 1.03446 1.04501 1.05556 1.06611 1.07666 1.0872 
1.09775 1.1083 1.11885 1.1294 1.13995 1.1505 1.16104 1.17159 1.18214 
1.19269 1.20324 1.21379 1.22434 1.23488 1.24729 1.2599 1.27251 1.28511 
1.29772 1.31033 1.32294 1.33554 1.34815 1.36076 1.37337 1.38597 1.39858 
1.41119 1.42379 1.4364 1.44901 1.46162 1.47422 1.48683 1.49348 1.49635 
1.49922 1.5021 1.50497 1.50784 1.51071 1.51358 1.51646 1.51933 1.5222 
1.52507 1.52795 1.53082 1.53369 1.53656 1.53943 1.54231 1.54518 1.54805 
1.55107 1.55441 1.55775 1.56109 1.56443 1.56777 1.57111 1.57445 1.57779 
1.58113 1.58447 1.58781 1.59115 1.59449 1.59783 1.60117 1.60451 1.60785 
1.61119 1.61453 1.61801 1.62571 1.6334 1.6411 1.64879 1.65649 1.66418 
1.67188 1.67957 1.68727 1.69497 1.70266 1.71036 1.71805 1.72575 1.73344 
1.74114 1.74884 1.75653 1.76423 1.77192 1.77015 1.76505 1.75994 1.75483 
1.74973 1.74462 1.73951 1.7344 1.7293 1.72419 1.71908 1.71398 1.70887 
1.70376 1.69865 1.69355 1.68844 1.68333 1.67823 1.67312 1.66355 1.64857 
1.63359 1.61861 1.60364 1.58866 1.57368 1.5587 1.54373 1.52875 1.51377 
1.49879 1.48381 1.46884 1.45386 1.43888 1.4239 1.40893 1.39395 1.37897 
1.36551 1.36057 1.35563 1.35069 1.34575 1.34081 1.33588 1.33094 1.326 
1.32106 1.31612 1.31119 1.30625 1.30131 1.29637 1.29143 1.28649 1.28156 
1.27662 1.27168 1.26674 1.26517 1.264 1.26283 1.26166 1.26049 1.25932 
1.25815 1.25698 1.25581 1.25464 1.25346 1.25229 1.25112 1.24995 1.24878 
1.24761 1.24644 1.24527 1.2441 1.24293 1.24623 1.2539 1.26157 1.26924 
1.2769 1.28457 1.29224 1.29991 1.30758 1.31524 1.32291 1.33058 1.33825 
1.34592 1.35358 1.36125 1.36892 1.37659 1.38426 1.39192 1.39953 1.40705 
1.41458 1.4221 1.42962 1.43715 1.44467 1.45219 1.45972 1.46724 1.47476 
1.48229 1.48981 1.49734 1.50486 1.51238 1.51991 1.52743 1.53495 1.54248 
1.55 
TEXTURE_COORDINATES TCoords 2 float
0 0 0.000782473 0 0.00156495 0 0.00234742 0 0.00312989 
0 0.00391236 0 0.00469484 0 0.00547731 0 0.00625978 0 
0.00704225 0 0.00782473 0 0.0086072 0 0.00938967 0 0.0101721 
0 0.0109546 0 0.0117371 0 0.0125196 0 0.013302 0 
0.0140845 0 0.014867 0 0.0156495 0 0.0164319 0 0.0172144 
0 0.0179969 0 0.0187793 0 0.0195618 0 0.0203443 0 
0.0211268 0 0.0219092 0 0.0226917 0 0.0234742 0 0.0242567 
0 0.0250391 0 0.0258216 0 0.0266041 0 0.0273865 0 
0.028169 0 0.0289515 0 0.029734 0 0.0305164 0 0.0312989 
0 0.0320814 0 0.0328638 0 0.0336463 0 0.0344288 0 
0.0352113 0 0.0359937 0 0.0367762 0 0.0375587 0 0.0383412 
0 0.0391236 0 0.0399061 0 0.0406886 0 0.041471 0 
0.0422535 0 0.043036 0 0.0438185 0 0.0446009 0 0.0453834 
0 0.0461659 0 0.0469484 0 0.0477308 0 0.0485133 0 
0.0492958 0 0.0500782 0 0.0508607 0 0.0516432 0 0.0524257 
0 0.0532081 0 0.0539906 0 0.0547731 0 0.0555556 0 
0.056338 0 0.0571205 0 0.057903 0 0.0586854 0 0.0594679 
0 0.0602504 0 0.0610329 0 0.0618153 0 0.0625978 0 
0.0633803 0 0.0641628 0 0.0649452 0 0.0657277 0 0.0665102 
0 0.0672926 0 0.0680751 0 0.0688576 0 0.0696401 0 
0.0704225 0 0.071205 0 0.0719875 0 0.07277 0 0.0735524 
0 0.0743349 0 0.0751174 0 0.0758998 0 0.0766823 0 
0.0774648 0 0.0782473 0 0.0790297 0 0.0798122 0 0.0805947 
0 0.0813771 0 0.0821596 0 0.0829421 0 0.0837246 0 
0.084507 0 0.0852895 0 0.086072 0 0.0868545 0 0.0876369 
0 0.0884194 0 0.0892019 0 0.0899843 0 0.0907668 0 
0.0915493 0 0.0923318 0 0.0931142 0 0.0938967 0 0.0946792 
0 0.0954617 0 0.0962441 0 0.0970266 0 0.0978091 0 
0.0985916 0 0.099374 0 0.100156 0 0.100939 0 0.101721 
0 0.102504 0 0.103286 0 0.104069 0 0.104851 0 
0.105634 0 0.106416 0 0.107199 0 0.107981 0 0.108764 
0 0.109546 0 0.110329 0 0.111111 0 0.111894 0 
0.112676 0 0.113459 0 0.114241 0 0.115023 0 0.115806 
0 0.116588 0 0.117371 0 0.118153 0 0.118936 0 
0.119718 0 0.120501 0 0.121283 0 0.122066 0 0.122848 
0 0.123631 0 0.124413 0 0.125196 0 0.125978 0 
0.126761 0 0.127543 0 0.128326 0 0.129108 0 0.12989 
0 0.130673 0 0.131455 0 0.132238 0 0.13302 0 
0.133803 0 0.134585 0 0.135368 0 0.13615 0 0.136933 
0 0.137715 0 0.138498 0 0.13928 0 0.140063 0 
0.140845 0 0.141628 0 0.14241 0 0.143192 0 0.143975 
0 0.144757 0 0.14554 0 0.146322 0 0.147105 0 
0.147887 0 0.14867 0 0.149452 0 0.150235 0 0.151017 
0 0.1518 0 0.152582 0 0.153365 0 0.154147 0 
0.15493 0 0.155712 0 0.156495 0 0.157277 0 0.158059 
0 0.158842 0 0.159624 0 0.160407 0 0.161189 0 
0.161972 0 0.162754 0 0.163537 0 0.164319 0 0.165102 
0 0.165884 0 0.166667 0 0.167449 0 0.168232 0 
0.169014 0 0.169797 0 0.170579 0 0.171362 0 0.172144 
0 0.172926 0 0.173709 0 0.174491 0 0.175274 0 
0.176056 0 0.176839 0 0.177621 0 0.178404 0 0.179186 
0 0.179969 0 0.180751 0 0.181534 0 0.182316 0 
0.183099 0 0.183881 0 0.184664 0 0.185446 0 0.186228 
0 0.187011 0 0.187793 0 0.188576 0 0.189358 0 
0.190141 0 0.190923 0 0.191706 0 0.192488 0 0.193271 
0 0.194053 0 0.194836 0 0.195618 0 0.196401 0 
0.197183 0 0.197966 0 0.198748 0 0.199531 0 0.200313 
0 0.201095 0 0.201878 0 0.20266 0 0.203443 0 
0.204225 0 0.205008 0 0.20579 0 0.206573 0 0.207355 
0 0.208138 0 0.20892 0 0.209703 0 0.210485 0 
0.211268 0 0.21205 0 0.212833 0 0.213615 0 0.214397 
0 0.21518 0 0.215962 0 0.216745 0 0.217527 0 
0.21831 0 0.219092 0 0.219875 0 0.220657 0 0.22144 
0 0.222222 0 0.223005 0 0.223787 0 0.22457 0 
0.225352 0 0.226135 0 0.226917 0 0.2277 0 0.228482 
0 0.229264 0 0.230047 0 0.230829 0 0.231612 0 
0.232394 0 0.233177 0 0.233959 0 0.234742 0 0.235524 
0 0.236307 0 0.237089 0 0.237872 0 0.238654 0 
0.239437 0 0.240219 0 0.241002 0 0.241784 0 0.242567 
0 0.243349 0 0.244131 0 0.244914 0 0.245696 0 
0.246479 0 0.247261 0 0.248044 0 0.248826 0 0.249609 
0 0.250391 0 0.251174 0 0.251956 0 0.252739 0 
0.253521 0 0.254304 0 0.255086 0 0.255869 0 0.256651 
0 0.257434 0 0.258216 0 0.258998 0 0.259781 0 
0.260563 0 0.261346 0 0.262128 0 0.262911 0 0.263693 
0 0.264476 0 0.265258 0 0.266041 0 0.266823 0 
0.267606 0 0.268388 0 0.269171 0 0.269953 0 0.270736 
0 0.271518 0 0.2723 0 0.273083 0 0.273865 0 
0.274648 0 0.27543 0 0.276213 0 0.276995 0 0.277778 
0 0.27856 0 0.279343 0 0.280125 0 0.280908 0 
0.28169 0 0.282473 0 0.283255 0 0.284038 0 0.28482 
0 0.285603 0 0.286385 0 0.287167 0 0.28795 0 
0.288732 0 0.289515 0 0.290297 0 0.29108 0 0.291862 
0 0.292645 0 0.293427 0 0.29421 0 0.294992 0 
0.295775 0 0.296557 0 0.29734 0 0.298122 0 0.298905 
0 0.299687 0 0.300469 0 0.301252 0 0.302034 0 
0.302817 0 0.303599 0 0.304382 0 0.305164 0 0.305947 
0 0.306729 0 0.307512 0 0.308294 0 0.309077 0 
0.309859 0 0.310642 0 0.311424 0 0.312207 0 0.312989 
0 0.313772 0 0.314554 0 0.315336 0 0.316119 0 
0.316901 0 0.317684 0 0.318466 0 0.319249 0 0.320031 
0 0.320814 0 0.321596 0 0.322379 0 0.323161 0 
0.323944 0 0.324726 0 0.325509 0 0.326291 0 0.327074 
0 0.327856 0 0.328638 0 0.329421 0 0.330203 0 
0.330986 0 0.331768 0 0.332551 0 0.333333 0 0.334116 
0 0.334898 0 0.335681 0 0.336463 0 0.337246 0 
0.338028 0 0.338811 0 0.339593 0 0.340376 0 0.341158 
0 0.341941 0 0.342723 0 0.343505 0 0.344288 0 
0.34507 0 0.345853 0 0.346635 0 0.347418 0 0.3482 
0 0.348983 0 0.349765 0 0.350548 0 0.35133 0 
0.352113 0 0.352895 0 0.353678 0 0.35446 0 0.355243 
0 0.356025 0 0.356808 0 0.35759 0 0.358372 0 
0.359155 0 0.359937 0 0.36072 0 0.361502 0 0.362285 
0 0.363067 0 0.36385 0 0.364632 0 0.365415 0 
0.366197 0 0.36698 0 0.367762 0 0.368545 0 0.369327 
0 0.37011 0 0.370892 0 0.371674 0 0.372457 0 
0.373239 0 0.374022 0 0.374804 0 0.375587 0 0.376369 
0 0.377152 0 0.377934 0 0.378717 0 0.379499 0 
0.380282 0 0.381064 0 0.381847 0 0.382629 0 0.383412 
0 0.384194 0 0.384977 0 0.385759 0 0.386541 0 
0.387324 0 0.388106 0 0.388889 0 0.389671 0 0.390454 
0 0.391236 0 0.392019 0 0.392801 0 0.393584 0 
0.394366 0 0.395149 0 0.395931 0 0.396714 0 0.397496 
0 0.398279 0 0.399061 0 0.399844 0 0.400626 0 
0.401408 0 0.402191 0 0.402973 0 0.403756 0 0.404538 
0 0.405321 0 0.406103 0 0.406886 0 0.407668 0 
0.408451 0 0.409233 0 0.410016 0 0.410798 0 0.411581 
0 0.412363 0 0.413146 0 0.413928 0 0.41471 0 
0.415493 0 0.416275 0 0.417058 0 0.41784 0 0.418623 
0 0.419405 0 0.420188 0 0.42097 0 0.421753 0 
0.422535 0 0.423318 0 0.4241 0 0.424883 0 0.425665 
0 0.426448 0 0.42723 0 0.428013 0 0.428795 0 
0.429577 0 0.43036 0 0.431142 0 0.431925 0 0.432707 
0 0.43349 0 0.434272 0 0.435055 0 0.435837 0 
0.43662 0 0.437402 0 0.438185 0 0.438967 0 0.43975 
0 0.440532 0 0.441315 0 0.442097 0 0.442879 0 
0.443662 0 0.444444 0 0.445227 0 0.446009 0 0.446792 
0 0.447574 0 0.448357 0 0.449139 0 0.449922 0 
0.450704 0 0.451487 0 0.452269 0 0.453052 0 0.453834 
0 0.454617 0 0.455399 0 0.456182 0 0.456964 0 
0.457746 0 0.458529 0 0.459311 0 0.460094 0 0.460876 
0 0.461659 0 0.462441 0 0.463224 0 0.464006 0 
0.464789 0 0.465571 0 0.466354 0 0.467136 0 0.467919 
0 0.468701 0 0.469484 0 0.470266 0 0.471049 0 
0.471831 0 0.472613 0 0.473396 0 0.474178 0 0.474961 
0 0.475743 0 0.476526 0 0.477308 0 0.478091 0 
0.478873 0 0.479656 0 0.480438 0 0.481221 0 0.482003 
0 0.482786 0 0.483568 0 0.484351 0 0.485133 0 
0.485915 0 0.486698 0 0.48748 0 0.488263 0 0.489045 
0 0.489828 0 0.49061 0 0.491393 0 0.492175 0 
0.492958 0 0.49374 0 0.494523 0 0.495305 0 0.496088 
0 0.49687 0 0.497653 0 0.498435 0 0.499218 0 
0.5 0 0.500782 0 0.501565 0 0.502347 0 0.50313 
0 0.503912 0 0.504695 0 0.505477 0 0.50626 0 
0.507042 0 0.507825 0 0.508607 0 0.50939 0 0.510172 
0 0.510955 0 0.511737 0 0.51252 0 0.513302 0 
0.514085 0 0.514867 0 0.515649 0 0.516432 0 0.517214 
0 0.517997 0 0.518779 0 0.519562 0 0.520344 0 
0.521127 0 0.521909 0 0.522692 0 0.523474 0 0.524257 
0 0.525039 0 0.525822 0 0.526604 0 0.527387 0 
0.528169 0 0.528951 0 0.529734 0 0.530516 0 0.531299 
0 0.532081 0 0.532864 0 0.533646 0 0.534429 0 
0.535211 0 0.535994 0 0.536776 0 0.537559 0 0.538341 
0 0.539124 0 0.539906 0 0.540689 0 0.541471 0 
0.542253 0 0.543036 0 0.543818 0 0.544601 0 0.545383 
0 0.546166 0 0.546948 0 0.547731 0 0.548513 0 
0.549296 0 0.550078 0 0.550861 0 0.551643 0 0.552426 
0 0.553208 0 0.553991 0 0.554773 0 0.555556 0 
0.556338 0 0.557121 0 0.557903 0 0.558685 0 0.559468 
0 0.56025 0 0.561033 0 0.561815 0 0.562598 0 
0.56338 0 0.564163 0 0.564945 0 0.565728 0 0.56651 
0 0.567293 0 0.568075 0 0.568858 0 0.56964 0 
0.570423 0 0.571205 0 0.571988 0 0.57277 0 0.573552 
0 0.574335 0 0.575117 0 0.5759 0 0.576682 0 
0.577465 0 0.578247 0 0.57903 0 0.579812 0 0.580595 
0 0.581377 0 0.58216 0 0.582942 0 0.583725 0 
0.584507 0 0.58529 0 0.586072 0 0.586854 0 0.587637 
0 0.588419 0 0.589202 0 0.589984 0 0.590767 0 
0.591549 0 0.592332 0 0.593114 0 0.593897 0 0.594679 
0 0.595462 0 0.596244 0 0.597027 0 0.597809 0 
0.598592 0 0.599374 0 0.600156 0 0.600939 0 0.601721 
0 0.602504 0 0.603286 0 0.604069 0 0.604851 0 
0.605634 0 0.606416 0 0.607199 0 0.607981 0 0.608764 
0 0.609546 0 0.610329 0 0.611111 0 0.611894 0 
0.612676 0 0.613459 0 0.614241 0 0.615023 0 0.615806 
0 0.616588 0 0.617371 0 0.618153 0 0.618936 0 
0.619718 0 0.620501 0 0.621283 0 0.622066 0 0.622848 
0 0.623631 0 0.624413 0 0.625196 0 0.625978 0 
0.626761 0 0.627543 0 0.628326 0 0.629108 0 0.62989 
0 0.630673 0 0.631455 0 0.632238 0 0.63302 0 
0.633803 0 0.634585 0 0.635368 0 0.63615 0 0.636933 
0 0.637715 0 0.638498 0 0.63928 0 0.640063 0 
0.640845 0 0.641628 0 0.64241 0 0.643192 0 0.643975 
0 0.644757 0 0.64554 0 0.646322 0 0.647105 0 
0.647887 0 0.64867 0 0.649452 0 0.650235 0 0.651017 
0 0.6518 0 0.652582 0 0.653365 0 0.654147 0 
0.65493 0 0.655712 0 0.656494 0 0.657277 0 0.658059 
0 0.658842 0 0.659624 0 0.660407 0 0.661189 0 
0.661972 0 0.662754 0 0.663537 0 0.664319 0 0.665102 