# vtk DataFile Version 4.2
vtk output
ASCII
DATASET POLYDATA
POINTS 1277 float
0 0 0 -0.00396898 -0.00076103 0.000596699 -0.0155468 -0.0029685 0.00234319 
-0.0342398 -0.00650899 0.00517407 -0.0595542 -0.0112691 0.00902393 -0.0909965 -0.0171353 0.0138274 
-0.128073 -0.0239943 0.019519 -0.17029 -0.0317325 0.0260333 -0.217153 -0.0402367 0.0333051 
-0.26817 -0.0493933 0.0412688 -0.322846 -0.0590889 0.049859 -0.380688 -0.0692101 0.0590104 
-0.441202 -0.0796434 0.0686575 -0.503894 -0.0902755 0.0787349 -0.568271 -0.100993 0.0891773 
-0.633839 -0.111682 0.0999191 -0.700105 -0.12223 0.110895 -0.766574 -0.132523 0.12204 
-0.832753 -0.142447 0.133288 -0.898148 -0.15189 0.144574 -0.962266 -0.160737 0.155832 
-1.02461 -0.168876 0.166998 -1.08483 -0.176226 0.178021 -1.14298 -0.182815 0.188902 
-1.1992 -0.188689 0.199654 -1.25364 -0.193896 0.210284 -1.30644 -0.198483 0.220806 
-1.35775 -0.202497 0.231229 -1.40771 -0.205985 0.241563 -1.45646 -0.208995 0.251821 
-1.50414 -0.211575 0.262011 -1.55091 -0.21377 0.272146 -1.5969 -0.215629 0.282235 
-1.64225 -0.217198 0.292289 -1.68712 -0.218525 0.30232 -1.73164 -0.219658 0.312337 
-1.77596 -0.220642 0.322351 -1.82022 -0.221527 0.332373 -1.86456 -0.222358 0.342414 
-1.90913 -0.223183 0.352484 -1.95408 -0.22405 0.362594 -1.99954 -0.225004 0.372755 
-2.04556 -0.226066 0.382968 -2.09211 -0.227233 0.393227 -2.13916 -0.228499 0.403525 
-2.18668 -0.22986 0.413857 -2.23461 -0.231311 0.424215 -2.28294 -0.232847 0.434593 
-2.33162 -0.234463 0.444985 -2.38061 -0.236153 0.455383 -2.42989 -0.237914 0.465782 
-2.47941 -0.23974 0.476175 -2.52913 -0.241626 0.486556 -2.57903 -0.243567 0.496917 
-2.62907 -0.245559 0.507253 -2.67921 -0.247596 0.517556 -2.72941 -0.249674 0.527821 
-2.77964 -0.251787 0.53804 -2.82986 -0.253931 0.548208 -2.88004 -0.256101 0.558318 
-2.93014 -0.258291 0.568362 -2.98012 -0.260498 0.578336 -3.02997 -0.262719 0.588233 
-3.07967 -0.264964 0.598051 -3.12926 -0.267243 0.60779 -3.17873 -0.269566 0.617448 
-3.22809 -0.271942 0.627023 -3.27736 -0.274382 0.636515 -3.32654 -0.276897 0.645921 
-3.37564 -0.279495 0.655241 -3.42467 -0.282187 0.664473 -3.47365 -0.284983 0.673615 
-3.52257 -0.287894 0.682667 -3.57146 -0.290928 0.691627 -3.62031 -0.294097 0.700493 
-3.66915 -0.29741 0.709265 -3.71797 -0.300877 0.71794 -3.76679 -0.304509 0.726517 
-3.81562 -0.308315 0.734996 -3.86446 -0.312305 0.743374 -3.91333 -0.31649 0.75165 
-3.96224 -0.320879 0.759824 -4.01118 -0.325483 0.767893 -4.06017 -0.33031 0.775856 
-4.1092 -0.335367 0.783713 -4.15825 -0.340663 0.791463 -4.20733 -0.346205 0.799105 
-4.25643 -0.352002 0.806638 -4.30554 -0.358061 0.814061 -4.35466 -0.364391 0.821374 
-4.40377 -0.370999 0.828575 -4.45289 -0.377894 0.835663 -4.50199 -0.385082 0.842639 
-4.55108 -0.392573 0.8495 -4.60015 -0.400374 0.856245 -4.64919 -0.408493 0.862875 
-4.6982 -0.416937 0.869389 -4.74717 -0.425716 0.875784 -4.7961 -0.434837 0.882061 
-4.84498 -0.444307 0.888219 -4.8938 -0.454135 0.894256 -4.94256 -0.464329 0.900172 
-4.99126 -0.474897 0.905966 -5.03988 -0.485845 0.91164 -5.08843 -0.497183 0.917198 
-5.13689 -0.508918 0.922645 -5.18525 -0.521056 0.927984 -5.23351 -0.533607 0.93322 
-5.28167 -0.546577 0.938356 -5.32971 -0.559974 0.943397 -5.37762 -0.573805 0.948346 
-5.42541 -0.588079 0.953208 -5.47307 -0.602803 0.957987 -5.52058 -0.617985 0.962687 
-5.56794 -0.633632 0.967311 -5.61514 -0.649752 0.971865 -5.66218 -0.666352 0.976352 
-5.70904 -0.68344 0.980777 -5.75573 -0.701024 0.985142 -5.80223 -0.719111 0.989453 
-5.84854 -0.737709 0.993713 -5.89466 -0.756826 0.997927 -5.94056 -0.776468 1.0021 
-5.98625 -0.796641 1.00623 -6.03172 -0.81734 1.01034 -6.07696 -0.838565 1.01442 
-6.12196 -0.86031 1.0185 -6.16671 -0.882575 1.02256 -6.21121 -0.905356 1.02663 
-6.25545 -0.92865 1.03071 -6.29941 -0.952455 1.03481 -6.3431 -0.976768 1.03894 
-6.38649 -1.00159 1.0431 -6.4296 -1.02691 1.0473 -6.4724 -1.05273 1.05155 
-6.51489 -1.07904 1.05587 -6.55706 -1.10585 1.06024 -6.5989 -1.13315 1.0647 
-6.6404 -1.16094 1.06923 -6.68156 -1.18922 1.07386 -6.72237 -1.21797 1.07858 
-6.76282 -1.24721 1.08341 -6.8029 -1.27693 1.08835 -6.84261 -1.30711 1.09342 
-6.88194 -1.33776 1.09861 -6.9209 -1.36887 1.10393 -6.95948 -1.40041 1.10939 
-6.99769 -1.43238 1.11498 -7.03552 -1.46477 1.12071 -7.07298 -1.49757 1.1266 
-7.11008 -1.53076 1.13263 -7.14679 -1.56435 1.13882 -7.18314 -1.5983 1.14516 
-7.21912 -1.63262 1.15167 -7.25473 -1.6673 1.15835 -7.28997 -1.70231 1.1652 
-7.32484 -1.73766 1.17223 -7.35934 -1.77333 1.17943 -7.39347 -1.8093 1.18682 
-7.42724 -1.84558 1.1944 -7.46064 -1.88214 1.20216 -7.49368 -1.91898 1.21013 
-7.52634 -1.95609 1.2183 -7.55865 -1.99345 1.22667 -7.59059 -2.03105 1.23524 
-7.62219 -2.0689 1.244 -7.65345 -2.10697 1.25296 -7.68437 -2.14526 1.2621 
-7.71497 -2.18377 1.27143 -7.74526 -2.22249 1.28093 -7.77525 -2.2614 1.2906 
-7.80493 -2.3005 1.30043 -7.83433 -2.33978 1.31043 -7.86345 -2.37923 1.32058 
-7.8923 -2.41885 1.33088 -7.92088 -2.45863 1.34133 -7.94922 -2.49855 1.35191 
-7.9773 -2.53862 1.36263 -8.00516 -2.57881 1.37348 -8.03278 -2.61913 1.38446 
-8.06019 -2.65957 1.39555 -8.08739 -2.70011 1.40676 -8.11439 -2.74075 1.41808 
-8.14119 -2.78149 1.4295 -8.16781 -2.82231 1.44102 -8.19426 -2.86321 1.45262 
-8.22054 -2.9042 1.4643 -8.24666 -2.94526 1.47604 -8.27263 -2.98641 1.48783 
-8.29846 -3.02762 1.49966 -8.32416 -3.0689 1.51152 -8.34973 -3.11026 1.5234 
-8.37519 -3.15167 1.53529 -8.40053 -3.19315 1.54718 -8.42578 -3.23469 1.55905 
-8.45094 -3.27629 1.57089 -8.47601 -3.31795 1.5827 -8.50101 -3.35965 1.59446 
-8.52594 -3.4014 1.60617 -8.55082 -3.44321 1.6178 -8.57565 -3.48505 1.62936 
-8.60044 -3.52694 1.64082 -8.62519 -3.56887 1.65218 -8.64992 -3.61083 1.66343 
-8.67464 -3.65283 1.67455 -8.69935 -3.69486 1.68551 -8.72406 -3.73694 1.69629 
-8.74878 -3.77906 1.70686 -8.77352 -3.82122 1.7172 -8.7983 -3.86343 1.72726 
-8.82311 -3.90569 1.73704 -8.84796 -3.948 1.7465 -8.87288 -3.99036 1.75561 
-8.89785 -4.03278 1.76435 -8.9229 -4.07526 1.77269 -8.94803 -4.1178 1.7806 
-8.97326 -4.16041 1.78805 -8.99858 -4.20308 1.79503 -9.02401 -4.24581 1.8015 
-9.04956 -4.28862 1.80743 -9.07523 -4.3315 1.8128 -9.10104 -4.37446 1.81758 
-9.127 -4.41749 1.82174 -9.15311 -4.46061 1.82526 -9.17937 -4.50379 1.82811 
-9.20578 -4.54704 1.83024 -9.2323 -4.5903 1.83163 -9.25893 -4.63356 1.83222 
-9.28565 -4.67677 1.83198 -9.31243 -4.71993 1.83086 -9.33925 -4.76298 1.82884 
-9.3661 -4.80592 1.82586 -9.39295 -4.84869 1.82188 -9.41979 -4.89128 1.81688 
-9.4466 -4.93366 1.8108 -9.47336 -4.9758 1.80361 -9.50005 -5.01766 1.79527 
-9.52664 -5.05922 1.78573 -9.55313 -5.10044 1.77496 -9.57949 -5.14131 1.76291 
-9.6057 -5.18178 1.74955 -9.63174 -5.22184 1.73484 -9.65759 -5.26144 1.71873 
-9.68324 -5.30057 1.70119 -9.70866 -5.33918 1.68218 -9.73384 -5.37728 1.66172 
-9.75875 -5.41486 1.63987 -9.78338 -5.4519 1.61667 -9.80771 -5.48841 1.59216 
-9.83171 -5.52437 1.56639 -9.85537 -5.55979 1.5394 -9.87867 -5.59465 1.51125 
-9.90158 -5.62895 1.48197 -9.9241 -5.66269 1.45161 -9.94619 -5.69586 1.42022 
-9.96785 -5.72845 1.38784 -9.98905 -5.76045 1.35452 -10.0098 -5.79187 1.3203 
-10.03 -5.82269 1.28524 -10.0497 -5.85291 1.24937 -10.0689 -5.88252 1.21274 
-10.0875 -5.91152 1.1754 -10.1055 -5.9399 1.13739 -10.1229 -5.96766 1.09875 
-10.1398 -5.99479 1.05955 -10.156 -6.0213 1.01979 -10.1716 -6.04722 0.979509 
-10.1866 -6.07258 0.938728 -10.201 -6.09739 0.897468 -10.2148 -6.12168 0.855751 
-10.2281 -6.14547 0.813601 -10.2408 -6.16878 0.771038 -10.253 -6.19165 0.728087 
-10.2646 -6.2141 0.684769 -10.2757 -6.23614 0.641107 -10.2863 -6.2578 0.597123 
-10.2963 -6.27911 0.55284 -10.3059 -6.30009 0.508281 -10.315 -6.32076 0.463467 
-10.3235 -6.34115 0.418422 -10.3316 -6.36127 0.373167 -10.3393 -6.38117 0.327726 
-10.3464 -6.40085 0.28212 -10.3532 -6.42034 0.236372 -10.3594 -6.43967 0.190505 
-10.3653 -6.45886 0.144534 -10.3707 -6.4779 0.0984641 -10.3757 -6.4968 0.0523026 
-10.3802 -6.51558 0.00605515 -10.3844 -6.53424 -0.0402724 -10.3881 -6.55279 -0.0866739 
-10.3913 -6.57123 -0.133144 -10.3941 -6.58957 -0.179675 -10.3965 -6.60781 -0.226263 
-10.3985 -6.62597 -0.272901 -10.4001 -6.64405 -0.319583 -10.4012 -6.66206 -0.366303 
-10.4019 -6.68001 -0.413056 -10.4021 -6.69789 -0.459835 -10.402 -6.71572 -0.506634 
-10.4014 -6.73351 -0.553447 -10.4004 -6.75125 -0.600269 -10.3989 -6.76897 -0.647092 
-10.3971 -6.78666 -0.693913 -10.3948 -6.80434 -0.740723 -10.3921 -6.822 -0.787518 
-10.389 -6.83965 -0.834292 -10.3854 -6.8573 -0.881038 -10.3814 -6.87496 -0.927751 
-10.377 -6.89261 -0.974426 -10.3722 -6.91028 -1.02106 -10.367 -6.92796 -1.06763 
-10.3613 -6.94566 -1.11416 -10.3552 -6.96338 -1.16062 -10.3486 -6.98113 -1.20701 
-10.3417 -6.99891 -1.25333 -10.3343 -7.01672 -1.29956 -10.3264 -7.03457 -1.34572 
-10.3182 -7.05247 -1.39178 -10.3095 -7.07041 -1.43774 -10.3003 -7.08841 -1.4836 
-10.2907 -7.10646 -1.52935 -10.2807 -7.12457 -1.57499 -10.2703 -7.14275 -1.6205 
-10.2594 -7.161 -1.66589 -10.2481 -7.17931 -1.71115 -10.2363 -7.19771 -1.75626 
-10.2242 -7.21617 -1.80124 -10.2115 -7.23471 -1.84606 -10.1984 -7.25333 -1.89072 
-10.1849 -7.27202 -1.93523 -10.171 -7.29078 -1.97956 -10.1566 -7.30963 -2.02372 
-10.1417 -7.32854 -2.0677 -10.1264 -7.34754 -2.11149 -10.1107 -7.36661 -2.15509 
-10.0945 -7.38576 -2.19849 -10.0779 -7.40498 -2.24168 -10.0608 -7.42428 -2.28467 
-10.0433 -7.44366 -2.32743 -10.0254 -7.46312 -2.36997 -10.007 -7.48266 -2.41229 
-9.98813 -7.50227 -2.45437 -9.96883 -7.52197 -2.4962 -9.94908 -7.54174 -2.53779 
-9.92888 -7.5616 -2.57913 -9.90824 -7.58153 -2.62021 -9.88715 -7.60154 -2.66103 
-9.86563 -7.62163 -2.70158 -9.84368 -7.64178 -2.74188 -9.82131 -7.66201 -2.7819 
-9.79852 -7.6823 -2.82166 -9.77532 -7.70266 -2.86115 -9.7517 -7.72308 -2.90036 
-9.72769 -7.74357 -2.9393 -9.70328 -7.76411 -2.97796 -9.67847 -7.78471 -3.01635 
-9.65329 -7.80536 -3.05444 -9.62772 -7.82607 -3.09226 -9.60177 -7.84682 -3.12979 
-9.57546 -7.86763 -3.16702 -9.54878 -7.88848 -3.20397 -9.52175 -7.90937 -3.24062 
[...]
CELL_DATA 1
FIELD FieldData 2
Length 1 1 double
63.846405448 
Tortuosity 1 1 double
1.0581065299 
POINT_DATA 1277
SCALARS MaximumInscribedSphereRadius float
LOOKUP_TABLE default
0.93 0.940518 0.951036 0.961554 0.972073 0.982591 0.993109 1.00363 1.01415 
1.02466 1.03518 1.0457 1.05622 1.06674 1.07725 1.08777 1.09829 1.10881 
1.11933 1.12984 1.14036 1.14985 1.14775 1.14565 1.14355 1.14146 1.13936 
1.13726 1.13516 1.13306 1.13096 1.12887 1.12677 1.12467 1.12257 1.12047 
1.11837 1.11628 1.11418 1.11208 1.10998 1.10473 1.09637 1.08802 1.07967 
1.07132 1.06296 1.05461 1.04626 1.0379 1.02955 1.0212 1.01284 1.00449 
0.996137 0.987784 0.979431 0.971078 0.962725 0.954372 0.946019 0.939414 0.940857 
0.942299 0.943741 0.945184 0.946626 0.948068 0.94951 0.950953 0.952395 0.953837 
0.955279 0.956722 0.958164 0.959606 0.961048 0.962491 0.963933 0.965375 0.966818 
0.96826 0.974296 0.980906 0.987516 0.994126 1.00074 1.00735 1.01396 1.02057 
1.02718 1.03379 1.0404 1.04701 1.05362 1.06023 1.06684 1.07345 1.08006 
1.08667 1.09328 1.09989 1.10642 1.1129 1.11938 1.12586 1.13235 1.13883 
1.14531 1.15179 1.15827 1.16475 1.17123 1.17772 1.1842 1.19068 1.19716 
1.20364 1.21012 1.21661 1.22309 1.22957 1.23384 1.23415 1.23446 1.23477 
1.23508 1.23539 1.2357 1.23601 1.23632 1.23663 1.23694 1.23725 1.23756 
1.23787 1.23817 1.23848 1.23879 1.2391 1.23941 1.23972 1.23999 1.23986 
1.23973 1.2396 1.23947 1.23934 1.23921 1.23908 1.23895 1.23882 1.23869 
1.23856 1.23843 1.2383 1.23817 1.23804 1.23791 1.23778 1.23765 1.23752 
1.23739 1.23262 1.22702 1.22143 1.21583 1.21023 1.20463 1.19904 1.19344 
1.18784 1.18225 1.17665 1.17105 1.16545 1.15986 1.15426 1.14866 1.14306 
1.13747 1.13187 1.12627 1.11852 1.10921 1.0999 1.09059 1.08128 1.07197 
1.06266 1.05335 1.04404 1.03473 1.02541 1.0161 1.00679 0.997481 0.988171 
0.97886 0.969549 0.960238 0.950927 0.941616 0.935937 0.938662 0.941387 0.944111 
0.946836 0.949561 0.952285 0.95501 0.957734 0.960459 0.963184 0.965908 0.968633 
0.971358 0.974082 0.976807 0.979532 0.982256 0.984981 0.987705 0.990784 1.00446 
1.01814 1.03181 1.04549 1.05917 1.07284 1.08652 1.1002 1.11387 1.12755 
1.14123 1.1549 1.16858 1.18226 1.19593 1.20961 1.22329 1.23696 1.25064 
1.26432 1.26891 1.27168 1.27444 1.27721 1.27998 1.28274 1.28551 1.28827 
1.29104 1.2938 1.29657 1.29934 1.3021 1.30487 1.30763 1.3104 1.31317 
1.31593 1.3187 1.32146 1.32038 1.31747 1.31456 1.31166 1.30875 1.30584 
1.30294 1.30003 1.29712 1.29422 1.29131 1.2884 1.2855 1.28259 1.27968 
1.27678 1.27387 1.27096 1.26806 1.26515 1.26307 1.26211 1.26114 1.26017 
1.2592 1.25823 1.25726 1.25629 1.25532 1.25435 1.25338 1.25241 1.25144 
1.25048 1.24951 1.24854 1.24757 1.2466 1.24563 1.24466 1.24407 1.24538 
1.2467 1.24802 1.24934 1.25066 1.25198 1.2533 1.25461 1.25593 1.25725 
1.25857 1.25989 1.26121 1.26253 1.26384 1.26516 1.26648 1.2678 1.26912 
1.27044 1.27703 1.28421 1.29139 1.29858 1.30576 1.31294 1.32012 1.32731 
1.33449 1.34167 1.34886 1.35604 1.36322 1.3704 1.37759 1.38477 1.39195 
1.39914 1.40632 1.4135 1.42557 1.4404 1.45524 1.47008 1.48492 1.49975 
1.51459 1.52943 1.54426 1.5591 1.57394 1.58877 1.60361 1.61845 1.63328 
1.64812 1.66296 1.67779 1.69263 1.70747 1.72525 1.74789 1.77054 1.79318 
1.81582 1.83847 1.86111 1.88375 1.9064 1.92904 1.95168 1.97433 1.99697 
2.01961 2.04226 2.0649 2.08754 2.11019 2.13283 2.15547 2.17513 2.16997 
2.16482 2.15966 2.15451 2.14935 2.1442 2.13904 2.13389 2.12873 2.12358 
2.11842 2.11327 2.10812 2.10296 2.09781 2.09265 2.0875 2.08234 2.07719 
2.07203 2.06759 2.06329 2.059 2.0547 2.0504 2.04611 2.04181 2.03751 
2.03321 2.02892 2.02462 2.02032 2.01603 2.01173 2.00743 2.00314 1.99884 
1.99454 1.99024 1.98595 1.98392 1.98371 1.9835 1.9833 1.98309 1.98289 
1.98268 1.98248 1.98227 1.98206 1.98186 1.98165 1.98145 1.98124 1.98104 
1.98083 1.98063 1.98042 1.98021 1.98001 1.97844 1.97339 1.96833 1.96328 
1.95822 1.95317 1.94811 1.94306 1.938 1.93295 1.9279 1.92284 1.91779 
1.91273 1.90768 1.90262 1.89757 1.89251 1.88746 1.88241 1.87646 1.85398 
1.83151 1.80904 1.78657 1.7641 1.74162 1.71915 1.69668 1.67421 1.65174 
1.62926 1.60679 1.58432 1.56185 1.53937 1.5169 1.49443 1.47196 1.44949 
1.42701 1.42503 1.42761 1.4302 1.43278 1.43536 1.43794 1.44053 1.44311 
1.44569 1.44827 1.45086 1.45344 1.45602 1.4586 1.46119 1.46377 1.46635 
1.46893 1.47152 1.4743 1.47806 1.48182 1.48558 1.48934 1.4931 1.49686 
1.50062 1.50438 1.50814 1.5119 1.51566 1.51942 1.52318 1.52694 1.5307 
1.53446 1.53822 1.54198 1.54574 1.5495 1.55739 1.56593 1.57447 1.583 
1.59154 1.60008 1.60862 1.61715 1.62569 1.63423 1.64276 1.6513 1.65984 
1.66837 1.67691 1.68545 1.69399 1.70252 1.71106 1.7196 1.72266 1.72233 
1.72199 1.72166 1.72132 1.72099 1.72065 1.72032 1.71998 1.71965 1.71931 
1.71898 1.71864 1.71831 1.71797 1.71764 1.7173 1.71697 1.71663 1.7163 
1.70883 1.68793 1.66703 1.64613 1.62523 1.60434 1.58344 1.56254 1.54164 
1.52074 1.49984 1.47894 1.45804 1.43714 1.41624 1.39534 1.37445 1.35355 
1.33265 1.31175 1.29281 1.30062 1.30843 1.31624 1.32405 1.33185 1.33966 
1.34747 1.35528 1.36309 1.37089 1.3787 1.38651 1.39432 1.40213 1.40993 
1.41774 1.42555 1.43336 1.44116 1.44897 1.46609 1.48562 1.50514 1.52467 
1.5442 1.56373 1.58325 1.60278 1.62231 1.64184 1.66137 1.68089 1.70042 
1.71995 1.73948 1.759 1.77853 1.79806 1.81759 1.83712 1.84682 1.84805 
1.84929 1.85053 1.85177 1.85301 1.85425 1.85549 1.85672 1.85796 1.8592 
1.86044 1.86168 1.86292 1.86416 1.86539 1.86663 1.86787 1.86911 1.87035 
1.86256 1.8316 1.80063 1.76966 1.7387 1.70773 1.67676 1.6458 1.61483 
1.58386 1.5529 1.52193 1.49097 1.46 1.42903 1.39807 1.3671 1.33613 
1.30517 1.2742 1.24364 1.2421 1.24056 1.23902 1.23748 1.23594 1.2344 
1.23286 1.23133 1.22979 1.22825 1.22671 1.22517 1.22363 1.22209 1.22055 
1.21901 1.21747 1.21593 1.21439 1.21285 1.21347 1.21483 1.21619 1.21755 
1.2189 1.22026 1.22162 1.22298 1.22434 1.2257 1.22706 1.22841 1.22977 
1.23113 1.23249 1.23385 1.23521 1.23657 1.23792 1.23928 1.24167 1.24521 
1.24875 1.25229 1.25583 1.25937 1.26291 1.26645 1.26999 1.27353 1.27707 
1.28061 1.28415 1.28769 1.29123 1.29478 1.29832 1.30186 1.3054 1.30894 
1.3136 1.32275 1.3319 1.34106 1.35021 1.35936 1.36851 1.37767 1.38682 
1.39597 1.40512 1.41428 1.42343 1.43258 1.44173 1.45089 1.46004 1.46919 
1.47834 1.4875 1.49665 1.49971 1.50231 1.50491 1.50751 1.51011 1.51271 
1.51531 1.51791 1.52051 1.52312 1.52572 1.52832 1.53092 1.53352 1.53612 
1.53872 1.54132 1.54392 1.54652 1.54912 1.55 1.55 1.55 1.55 
1.55 1.55 1.55 1.55 1.55 1.55 1.55 1.55 1.55 
1.55 1.55 1.55 1.55 1.55 1.55 1.55 1.55 1.55 
1.55 1.55 1.55 1.55 1.55 1.55 1.55 1.55 1.55 
1.55 1.55 1.55 1.55 1.55 1.55 1.55 1.55 1.55 
1.55 1.55 1.55 1.55 1.55 1.55 1.55 1.55 1.55 
1.55 1.55 1.55 1.55 1.55 1.55 1.55 1.55 1.55 
1.55 1.55 1.55 1.54145 1.53161 1.52176 1.51191 1.50207 1.49222 
1.48237 1.47253 1.46268 1.45283 1.44299 1.43314 1.42329 1.41345 1.4036 
1.39375 1.38391 1.37406 1.36422 1.35437 1.35136 1.35268 1.35399 1.3553 
1.35661 1.35792 1.35924 1.36055 1.36186 1.36317 1.36449 1.3658 1.36711 
1.36842 1.36973 1.37105 1.37236 1.37367 1.37498 1.37629 1.37931 1.38533 
1.39135 1.39736 1.40338 1.4094 1.41541 1.42143 1.42745 1.43347 1.43948 
1.4455 1.45152 1.45753 1.46355 1.46957 1.47558 1.4816 1.48762 1.49364 
1.49849 1.4923 1.48611 1.47992 1.47373 1.46754 1.46135 1.45517 1.44898 
1.44279 1.4366 1.43041 1.42422 1.41803 1.41184 1.40565 1.39946 1.39327 
1.38708 1.38089 1.3747 1.39207 1.41462 1.43716 1.4597 1.48225 1.50479 
1.52733 1.54988 1.57242 1.59496 1.61751 1.64005 1.66259 1.68514 1.70768 
1.73022 1.75277 1.77531 1.79785 1.82039 1.83914 1.85469 1.87024 1.88578 
1.90133 1.91688 1.93242 1.94797 1.96352 1.97906 1.99461 2.01016 2.02571 
2.04125 2.0568 2.07235 2.08789 2.10344 2.11899 2.13453 2.14305 2.13207 
2.1211 2.11012 2.09914 2.08817 2.07719 2.06622 2.05524 2.04426 2.03329 
2.02231 2.01133 2.00036 1.98938 1.9784 1.96743 1.95645 1.94547 1.9345 
1.92352 1.93115 1.93899 1.94682 1.95466 1.9625 1.97034 1.97817 1.98601 
1.99385 2.00168 2.00952 2.01736 2.02519 2.03303 2.04087 2.0487 2.05654 
2.06438 2.07221 2.08005 2.08217 2.082 2.08184 2.08167 2.0815 2.08133 
2.08117 2.081 2.08083 2.08067 2.0805 2.08033 2.08016 2.08 2.07983 
2.07966 2.0795 2.07933 2.07916 2.07899 2.07499 2.06607 2.05715 2.04822 
2.0393 2.03038 2.02146 2.01254 2.00361 1.99469 1.98577 1.97685 1.96793 
1.959 1.95008 1.94116 1.93224 1.92332 1.91439 1.90547 1.90298 1.93419 
1.96539 1.9966 2.0278 2.059 2.09021 2.12141 2.15261 2.18382 2.21502 
2.24622 2.27743 2.30863 2.33983 2.37104 2.40224 2.43344 2.46465 2.49585 
2.52705 2.51423 2.49579 2.47734 2.4589 2.44045 2.422 2.40356 2.38511 
2.36667 2.34822 2.32977 2.31133 2.29288 2.27443 2.25599 2.23754 2.2191 
2.20065 2.1822 2.16376 2.14201 2.11833 2.09465 2.07097 2.04729 2.0236 
1.99992 1.97624 1.95256 1.92888 1.9052 1.88152 1.85784 1.83416 1.81048 
1.78679 1.76311 1.73943 1.71575 1.69207 1.68231 1.69354 1.70477 1.716 
1.72723 1.73846 1.74969 1.76092 1.77215 1.78338 1.79461 1.80584 1.81707 
1.8283 1.83953 1.85076 1.86199 1.87322 1.88445 1.89568 1.90467 1.90229 
1.89992 1.89754 1.89516 1.89279 1.89041 1.88803 1.88566 1.88328 1.8809 
1.87853 1.87615 1.87377 1.8714 1.86902 1.86664 1.86427 1.86189 1.85952 
1.85714 1.84732 1.83677 1.82623 1.81569 1.80515 1.7946 1.78406 1.77352 
1.76298 1.75243 1.74189 1.73135 1.72081 1.71027 1.69972 1.68918 1.67864 
1.6681 1.65755 1.64701 1.64032 1.63576 1.6312 1.62664 1.62208 1.61752 
1.61296 1.6084 1.60384 1.59928 1.59472 1.59016 1.5856 1.58104 1.57648 
1.57192 1.56736 1.5628 1.55824 1.55368 1.5508 1.55076 1.55072 1.55068 
1.55064 1.5506 1.55056 1.55052 1.55048 1.55044 1.5504 1.55036 1.55032 
1.55028 1.55024 1.5502 1.55016 1.55012 1.55008 1.55004 1.55007 1.55079 
1.55151 1.55223 1.55295 1.55367 1.55439 1.55511 1.55582 1.55654 1.55726 
1.55798 1.5587 1.55942 1.56014 1.56086 1.56157 1.56229 1.56301 1.56373 
1.56445 1.57198 1.58102 1.59007 1.59911 1.60816 1.6172 1.62624 1.63529 
1.64433 1.65338 1.66242 1.67147 1.68051 1.68955 1.6986 1.70764 1.71669 
1.72573 1.73477 1.74382 1.75121 1.75692 1.76262 1.76832 1.77403 1.77973 
1.78543 1.79114 1.79684 1.80254 1.80825 1.81395 1.81965 1.82536 1.83106 
1.83676 1.84247 1.84817 1.85387 1.85957 1.86 1.86 1.86 1.86 
1.86 1.86 1.86 1.86 1.86 1.86 1.86 1.86 1.86 
1.86 1.86 1.86 1.86 1.86 1.86 1.86 1.86 
TEXTURE_COORDINATES TCoords 2 float
0 0 0.000783699 0 0.0015674 0 0.0023511 0 0.0031348 
0 0.0039185 0 0.00470219 0 0.00548589 0 0.00626959 0 
0.00705329 0 0.00783699 0 0.00862069 0 0.00940439 0 0.0101881 
0 0.0109718 0 0.0117555 0 0.0125392 0 0.0133229 0 
0.0141066 0 0.0148903 0 0.015674 0 0.0164577 0 0.0172414 
0 0.0180251 0 0.0188088 0 0.0195925 0 0.0203762 0 
0.0211599 0 0.0219436 0 0.0227273 0 0.023511 0 0.0242947 
0 0.0250784 0 0.0258621 0 0.0266458 0 0.0274295 0 
0.0282132 0 0.0289969 0 0.0297806 0 0.0305643 0 0.031348 
0 0.0321317 0 0.0329154 0 0.0336991 0 0.0344828 0 
0.0352665 0 0.0360502 0 0.0368339 0 0.0376176 0 0.0384013 
0 0.039185 0 0.0399687 0 0.0407524 0 0.0415361 0 
0.0423197 0 0.0431034 0 0.0438871 0 0.0446708 0 0.0454545 
0 0.0462382 0 0.0470219 0 0.0478056 0 0.0485893 0 
0.049373 0 0.0501567 0 0.0509404 0 0.0517241 0 0.0525078 
0 0.0532915 0 0.0540752 0 0.0548589 0 0.0556426 0 
0.0564263 0 0.05721 0 0.0579937 0 0.0587774 0 0.0595611 
0 0.0603448 0 0.0611285 0 0.0619122 0 0.0626959 0 
0.0634796 0 0.0642633 0 0.065047 0 0.0658307 0 0.0666144 
0 0.0673981 0 0.0681818 0 0.0689655 0 0.0697492 0 
0.0705329 0 0.0713166 0 0.0721003 0 0.072884 0 0.0736677 
0 0.0744514 0 0.0752351 0 0.0760188 0 0.0768025 0 
0.0775862 0 0.0783699 0 0.0791536 0 0.0799373 0 0.080721 
0 0.0815047 0 0.0822884 0 0.0830721 0 0.0838558 0 
0.0846395 0 0.0854232 0 0.0862069 0 0.0869906 0 0.0877743 
0 0.088558 0 0.0893417 0 0.0901254 0 0.0909091 0 
0.0916928 0 0.0924765 0 0.0932602 0 0.0940439 0 0.0948276 
0 0.0956113 0 0.096395 0 0.0971787 0 0.0979624 0 
0.0987461 0 0.0995298 0 0.100313 0 0.101097 0 0.101881 
0 0.102665 0 0.103448 0 0.104232 0 0.105016 0 
0.105799 0 0.106583 0 0.107367 0 0.10815 0 0.108934 
0 0.109718 0 0.110502 0 0.111285 0 0.112069 0 
0.112853 0 0.113636 0 0.11442 0 0.115204 0 0.115987 
0 0.116771 0 0.117555 0 0.118339 0 0.119122 0 
0.119906 0 0.12069 0 0.121473 0 0.122257 0 0.123041 
0 0.123824 0 0.124608 0 0.125392 0 0.126176 0 
0.126959 0 0.127743 0 0.128527 0 0.12931 0 0.130094 
0 0.130878 0 0.131661 0 0.132445 0 0.133229 0 
0.134013 0 0.134796 0 0.13558 0 0.136364 0 0.137147 
0 0.137931 0 0.138715 0 0.139498 0 0.140282 0 
0.141066 0 0.14185 0 0.142633 0 0.143417 0 0.144201 
0 0.144984 0 0.145768 0 0.146552 0 0.147335 0 
0.148119 0 0.148903 0 0.149687 0 0.15047 0 0.151254 
0 0.152038 0 0.152821 0 0.153605 0 0.154389 0 
0.155172 0 0.155956 0 0.15674 0 0.157524 0 0.158307 
0 0.159091 0 0.159875 0 0.160658 0 0.161442 0 
0.162226 0 0.163009 0 0.163793 0 0.164577 0 0.16536 
0 0.166144 0 0.166928 0 0.167712 0 0.168495 0 
0.169279 0 0.170063 0 0.170846 0 0.17163 0 0.172414 
0 0.173197 0 0.173981 0 0.174765 0 0.175549 0 
0.176332 0 0.177116 0 0.1779 0 0.178683 0 0.179467 
0 0.180251 0 0.181034 0 0.181818 0 0.182602 0 
0.183386 0 0.184169 0 0.184953 0 0.185737 0 0.18652 
0 0.187304 0 0.188088 0 0.188871 0 0.189655 0 
0.190439 0 0.191223 0 0.192006 0 0.19279 0 0.193574 
0 0.194357 0 0.195141 0 0.195925 0 0.196708 0 
0.197492 0 0.198276 0 0.19906 0 0.199843 0 0.200627 
0 0.201411 0 0.202194 0 0.202978 0 0.203762 0 
0.204545 0 0.205329 0 0.206113 0 0.206897 0 0.20768 
0 0.208464 0 0.209248 0 0.210031 0 0.210815 0 
0.211599 0 0.212382 0 0.213166 0 0.21395 0 0.214734 
0 0.215517 0 0.216301 0 0.217085 0 0.217868 0 
0.218652 0 0.219436 0 0.220219 0 0.221003 0 0.221787 
0 0.222571 0 0.223354 0 0.224138 0 0.224922 0 
0.225705 0 0.226489 0 0.227273 0 0.228056 0 0.22884 
0 0.229624 0 0.230408 0 0.231191 0 0.231975 0 
0.232759 0 0.233542 0 0.234326 0 0.23511 0 0.235893 
0 0.236677 0 0.237461 0 0.238245 0 0.239028 0 
0.239812 0 0.240596 0 0.241379 0 0.242163 0 0.242947 
0 0.24373 0 0.244514 0 0.245298 0 0.246082 0 
0.246865 0 0.247649 0 0.248433 0 0.249216 0 0.25 
0 0.250784 0 0.251567 0 0.252351 0 0.253135 0 
0.253918 0 0.254702 0 0.255486 0 0.25627 0 0.257053 
0 0.257837 0 0.258621 0 0.259404 0 0.260188 0 
0.260972 0 0.261755 0 0.262539 0 0.263323 0 0.264107 
0 0.26489 0 0.265674 0 0.266458 0 0.267241 0 
0.268025 0 0.268809 0 0.269592 0 0.270376 0 0.27116 
0 0.271944 0 0.272727 0 0.273511 0 0.274295 0 
0.275078 0 0.275862 0 0.276646 0 0.277429 0 0.278213 
0 0.278997 0 0.279781 0 0.280564 0 0.281348 0 
0.282132 0 0.282915 0 0.283699 0 0.284483 0 0.285266 
0 0.28605 0 0.286834 0 0.287618 0 0.288401 0 
0.289185 0 0.289969 0 0.290752 0 0.291536 0 0.29232 
0 0.293103 0 0.293887 0 0.294671 0 0.295455 0 
0.296238 0 0.297022 0 0.297806 0 0.298589 0 0.299373 
0 0.300157 0 0.30094 0 0.301724 0 0.302508 0 
0.303292 0 0.304075 0 0.304859 0 0.305643 0 0.306426 
0 0.30721 0 0.307994 0 0.308777 0 0.309561 0 
0.310345 0 0.311129 0 0.311912 0 0.312696 0 0.31348 
0 0.314263 0 0.315047 0 0.315831 0 0.316614 0 
0.317398 0 0.318182 0 0.318966 0 0.319749 0 0.320533 
0 0.321317 0 0.3221 0 0.322884 0 0.323668 0 
0.324451 0 0.325235 0 0.326019 0 0.326803 0 0.327586 
0 0.32837 0 0.329154 0 0.329937 0 0.330721 0 
0.331505 0 0.332288 0 0.333072 0 0.333856 0 0.334639 
0 0.335423 0 0.336207 0 0.336991 0 0.337774 0 
0.338558 0 0.339342 0 0.340125 0 0.340909 0 0.341693 
0 0.342476 0 0.34326 0 0.344044 0 0.344828 0 
0.345611 0 0.346395 0 0.347179 0 0.347962 0 0.348746 
0 0.34953 0 0.350313 0 0.351097 0 0.351881 0 
0.352665 0 0.353448 0 0.354232 0 0.355016 0 0.355799 
0 0.356583 0 0.357367 0 0.35815 0 0.358934 0 
0.359718 0 0.360502 0 0.361285 0 0.362069 0 0.362853 
0 0.363636 0 0.36442 0 0.365204 0 0.365987 0 
0.366771 0 0.367555 0 0.368339 0 0.369122 0 0.369906 
0 0.37069 0 0.371473 0 0.372257 0 0.373041 0 
0.373824 0 0.374608 0 0.375392 0 0.376176 0 0.376959 
0 0.377743 0 0.378527 0 0.37931 0 0.380094 0 
0.380878 0 0.381661 0 0.382445 0 0.383229 0 0.384013 
0 0.384796 0 0.38558 0 0.386364 0 0.387147 0 
0.387931 0 0.388715 0 0.389498 0 0.390282 0 0.391066 
0 0.39185 0 0.392633 0 0.393417 0 0.394201 0 
0.394984 0 0.395768 0 0.396552 0 0.397335 0 0.398119 
0 0.398903 0 0.399687 0 0.40047 0 0.401254 0 
0.402038 0 0.402821 0 0.403605 0 0.404389 0 0.405172 
0 0.405956 0 0.40674 0 0.407524 0 0.408307 0 
0.409091 0 0.409875 0 0.410658 0 0.411442 0 0.412226 
0 0.413009 0 0.413793 0 0.414577 0 0.415361 0 
0.416144 0 0.416928 0 0.417712 0 0.418495 0 0.419279 
0 0.420063 0 0.420846 0 0.42163 0 0.422414 0 
0.423197 0 0.423981 0 0.424765 0 0.425549 0 0.426332 
0 0.427116 0 0.4279 0 0.428683 0 0.429467 0 
0.430251 0 0.431034 0 0.431818 0 0.432602 0 0.433386 
0 0.434169 0 0.434953 0 0.435737 0 0.43652 0 
0.437304 0 0.438088 0 0.438871 0 0.439655 0 0.440439 
0 0.441223 0 0.442006 0 0.44279 0 0.443574 0 
0.444357 0 0.445141 0 0.445925 0 0.446708 0 0.447492 
0 0.448276 0 0.44906 0 0.449843 0 0.450627 0 
0.451411 0 0.452194 0 0.452978 0 0.453762 0 0.454545 
0 0.455329 0 0.456113 0 0.456897 0 0.45768 0 
0.458464 0 0.459248 0 0.460031 0 0.460815 0 0.461599 
0 0.462382 0 0.463166 0 0.46395 0 0.464734 0 
0.465517 0 0.466301 0 0.467085 0 0.467868 0 0.468652 
0 0.469436 0 0.470219 0 0.471003 0 0.471787 0 
0.472571 0 0.473354 0 0.474138 0 0.474922 0 0.475705 
0 0.476489 0 0.477273 0 0.478056 0 0.47884 0 
0.479624 0 0.480408 0 0.481191 0 0.481975 0 0.482759 
0 0.483542 0 0.484326 0 0.48511 0 0.485893 0 
0.486677 0 0.487461 0 0.488245 0 0.489028 0 0.489812 
0 0.490596 0 0.491379 0 0.492163 0 0.492947 0 
0.49373 0 0.494514 0 0.495298 0 0.496082 0 0.496865 
0 0.497649 0 0.498433 0 0.499216 0 0.5 0 
0.500784 0 0.501567 0 0.502351 0 0.503135 0 0.503918 
0 0.504702 0 0.505486 0 0.50627 0 0.507053 0 
0.507837 0 0.508621 0 0.509404 0 0.510188 0 0.510972 
0 0.511755 0 0.512539 0 0.513323 0 0.514107 0 
0.51489 0 0.515674 0 0.516458 0 0.517241 0 0.518025 
0 0.518809 0 0.519592 0 0.520376 0 0.52116 0 
0.521944 0 0.522727 0 0.523511 0 0.524295 0 0.525078 
0 0.525862 0 0.526646 0 0.527429 0 0.528213 0 
0.528997 0 0.529781 0 0.530564 0 0.531348 0 0.532132 
0 0.532915 0 0.533699 0 0.534483 0 0.535266 0 
0.53605 0 0.536834 0 0.537618 0 0.538401 0 0.539185 
0 0.539969 0 0.540752 0 0.541536 0 0.54232 0 
0.543103 0 0.543887 0 0.544671 0 0.545455 0 0.546238 
0 0.547022 0 0.547806 0 0.548589 0 0.549373 0 
0.550157 0 0.55094 0 0.551724 0 0.552508 0 0.553292 
0 0.554075 0 0.554859 0 0.555643 0 0.556426 0 
0.55721 0 0.557994 0 0.558777 0 0.559561 0 0.560345 
0 0.561128 0 0.561912 0 0.562696 0 0.56348 0 
0.564263 0 0.565047 0 0.565831 0 0.566614 0 0.567398 
0 0.568182 0 0.568965 0 0.569749 0 0.570533 0 
0.571317 0 0.5721 0 0.572884 0 0.573668 0 0.574451 
0 0.575235 0 0.576019 0 0.576802 0 0.577586 0 
0.57837 0 0.579154 0 0.579937 0 0.580721 0 0.581505 
0 0.582288 0 0.583072 0 0.583856 0 0.584639 0 
0.585423 0 0.586207 0 0.586991 0 0.587774 0 0.588558 
0 0.589342 0 0.590125 0 0.590909 0 0.591693 0 
0.592476 0 0.59326 0 0.594044 0 0.594828 0 0.595611 
0 0.596395 0 0.597179 0 0.597962 0 0.598746 0 
0.59953 0 0.600313 0 0.601097 0 0.601881 0 0.602665 
0 0.603448 0 0.604232 0 0.605016 0 0.605799 0 
0.606583 0 0.607367 0 0.60815 0 0.608934 0 0.609718 
0 0.610502 0 0.611285 0 0.612069 0 0.612853 0 
0.613636 0 0.61442 0 0.615204 0 0.615987 0 0.616771 
0 0.617555 0 0.618339 0 0.619122 0 0.619906 0 
0.62069 0 0.621473 0 0.622257 0 0.623041 0 0.623824 
0 0.624608 0 0.625392 0 0.626176 0 0.626959 0 
0.627743 0 0.628527 0 0.62931 0 0.630094 0 0.630878 
0 0.631661 0 0.632445 0 0.633229 0 0.634013 0 
0.634796 0 0.63558 0 0.636364 0 0.637147 0 0.637931 
0 0.638715 0 0.639498 0 0.640282 0 0.641066 0 
0.64185 0 0.642633 0 0.643417 0 0.644201 0 0.644984 
0 0.645768 0 0.646552 0 0.647335 0 0.648119 0 
0.648903 0 0.649687 0 0.65047 0 0.651254 0 0.652038 
0 0.652821 0 0.653605 0 0.654389 0 0.655172 0 
0.655956 0 0.65674 0 0.657524 0 0.658307 0 0.659091 
0 0.659875 0 0.660658 0 0.661442 0 0.662226 0 
0.663009 0 0.663793 0 0.664577 0 0.665361 0 0.666144 
0 0.666928 0 0.667712 0 0.668495 0 0.669279 0 
0.670063 0 0.670846 0 0.67163 0 0.672414 0 0.673198 
0 0.673981 0 0.674765 0 0.675549 0 0.676332 0 