# vtk DataFile Version 4.2
vtk output
ASCII
DATASET POLYDATA
POINTS 1277 float
0 0 0 -0.00381882 0.000682253 0.00129707 -0.0149551 0.00268511 0.0050782 
-0.0329287 0.0059427 0.0111783 -0.0572593 0.0103892 0.0194323 -0.0874668 0.0159587 0.029675 
-0.123071 0.0225853 0.0417413 -0.163591 0.0302033 0.0554662 -0.208548 0.0387467 0.0706846 
-0.25746 0.0481496 0.0872312 -0.309848 0.0583463 0.104941 -0.365231 0.0692709 0.123649 
-0.42313 0.0808574 0.14319 -0.483063 0.0930401 0.163399 -0.544552 0.105753 0.184111 
-0.607115 0.11893 0.20516 -0.670272 0.132506 0.226383 -0.733543 0.146415 0.247612 
-0.796448 0.160591 0.268684 -0.858506 0.174967 0.289433 -0.919238 0.189479 0.309695 
-0.978163 0.20406 0.329304 -1.03495 0.21866 0.348146 -1.08967 0.233277 0.366249 
-1.14247 0.247912 0.383665 -1.19348 0.262569 0.400444 -1.24286 0.277252 0.416638 
-1.29073 0.291963 0.432298 -1.33725 0.306706 0.447475 -1.38255 0.321485 0.46222 
-1.42678 0.336302 0.476585 -1.47007 0.35116 0.490622 -1.51257 0.366064 0.50438 
-1.55442 0.381015 0.517912 -1.59576 0.396019 0.531268 -1.63674 0.411077 0.5445 
-1.67749 0.426193 0.55766 -1.71816 0.441371 0.570797 -1.75889 0.456613 0.583965 
-1.79981 0.471923 0.597213 -1.84108 0.487304 0.610593 -1.88282 0.502759 0.624155 
-1.92511 0.518286 0.637923 -1.96791 0.533874 0.651887 -2.01118 0.549513 0.666036 
-2.0549 0.565193 0.680361 -2.09903 0.580904 0.69485 -2.14353 0.596636 0.709493 
-2.18837 0.612378 0.724279 -2.23352 0.628121 0.739199 -2.27894 0.643853 0.754241 
-2.3246 0.659565 0.769395 -2.37047 0.675247 0.78465 -2.41651 0.690889 0.799996 
-2.46268 0.706479 0.815422 -2.50896 0.722009 0.830918 -2.55531 0.737468 0.846473 
-2.60169 0.752845 0.862077 -2.64807 0.768131 0.877719 -2.69442 0.783315 0.893389 
-2.7407 0.798388 0.909075 -2.78688 0.813338 0.924768 -2.83294 0.828156 0.940462 
-2.87888 0.842834 0.956159 -2.92472 0.857364 0.971865 -2.97046 0.871736 0.987585 
-3.01611 0.885943 1.00332 -3.06169 0.899976 1.01909 -3.10721 0.913828 1.03488 
-3.15267 0.927489 1.05071 -3.19809 0.940951 1.06658 -3.24348 0.954206 1.0825 
-3.28885 0.967246 1.09846 -3.33421 0.980062 1.11448 -3.37957 0.992646 1.13057 
-3.42494 1.00499 1.14672 -3.47034 1.01709 1.16294 -3.51577 1.02892 1.17923 
-3.56124 1.0405 1.19561 -3.60676 1.05179 1.21208 -3.65236 1.06281 1.22864 
-3.69802 1.07354 1.2453 -3.74378 1.08396 1.26206 -3.78961 1.09408 1.27892 
-3.83553 1.10388 1.29589 -3.88152 1.11333 1.31295 -3.92758 1.12245 1.33012 
-3.97371 1.1312 1.3474 -4.0199 1.13958 1.36477 -4.06614 1.14758 1.38224 
-4.11243 1.15518 1.39981 -4.15877 1.16237 1.41748 -4.20516 1.16914 1.43525 
-4.25158 1.17548 1.45312 -4.29803 1.18137 1.47109 -4.34451 1.18681 1.48915 
-4.39101 1.19178 1.50731 -4.43753 1.19626 1.52557 -4.48407 1.20025 1.54392 
-4.53061 1.20374 1.56237 -4.57716 1.2067 1.58092 -4.62371 1.20914 1.59955 
-4.67025 1.21103 1.61829 -4.71678 1.21237 1.63711 -4.7633 1.21315 1.65602 
-4.80978 1.21336 1.67502 -4.85622 1.21298 1.6941 -4.90262 1.21202 1.71325 
-4.94897 1.21046 1.73247 -4.99526 1.20829 1.75177 -5.04147 1.20551 1.77113 
-5.08761 1.2021 1.79055 -5.13366 1.19805 1.81003 -5.17961 1.19337 1.82956 
-5.22546 1.18803 1.84915 -5.2712 1.18203 1.86878 -5.31682 1.17535 1.88845 
-5.36231 1.168 1.90816 -5.40767 1.15997 1.92791 -5.45288 1.15123 1.94768 
-5.49794 1.14179 1.96749 -5.54283 1.13163 1.98732 -5.58756 1.12075 2.00717 
-5.6321 1.10914 2.02703 -5.67647 1.09681 2.0469 -5.72064 1.08376 2.06678 
-5.7646 1.07001 2.08664 -5.80836 1.05555 2.10649 -5.85191 1.04039 2.12632 
-5.89523 1.02455 2.14612 -5.93832 1.00802 2.16589 -5.98116 0.990807 2.18561 
-6.02377 0.972926 2.20528 -6.06612 0.95438 2.22489 -6.10821 0.935174 2.24444 
-6.15002 0.915314 2.26391 -6.19156 0.894808 2.28331 -6.23282 0.87366 2.30261 
-6.27379 0.851878 2.32183 -6.31445 0.829467 2.34094 -6.35481 0.806434 2.35994 
-6.39485 0.782785 2.37883 -6.43457 0.758526 2.39759 -6.47396 0.733664 2.41622 
-6.51302 0.70821 2.43471 -6.55176 0.682173 2.45307 -6.59016 0.655565 2.47128 
-6.62824 0.628395 2.48933 -6.666 0.600675 2.50723 -6.70343 0.572414 2.52497 
-6.74053 0.543623 2.54254 -6.77731 0.514313 2.55994 -6.81377 0.484493 2.57716 
-6.8499 0.454175 2.5942 -6.88572 0.42337 2.61105 -6.92121 0.392086 2.62771 
-6.95638 0.360336 2.64416 -6.99123 0.328128 2.66042 -7.02576 0.295475 2.67647 
-7.05997 0.262386 2.6923 -7.09386 0.228872 2.70791 -7.12744 0.194943 2.7233 
-7.1607 0.160609 2.73846 -7.19365 0.125881 2.75339 -7.22628 0.0907666 2.76808 
-7.25859 0.0552711 2.78252 -7.2906 0.0194011 2.79671 -7.32229 -0.0168373 2.81065 
-7.35368 -0.0534377 2.82432 -7.38475 -0.090394 2.83773 -7.41552 -0.1277 2.85088 
-7.44599 -0.165349 2.86374 -7.47615 -0.203336 2.87633 -7.506 -0.241653 2.88863 
-7.53556 -0.280295 2.90064 -7.56482 -0.319255 2.91236 -7.59377 -0.358528 2.92377 
-7.62243 -0.398107 2.93488 -7.6508 -0.437985 2.94568 -7.67886 -0.478157 2.95617 
-7.70664 -0.518616 2.96633 -7.73412 -0.559357 2.97617 -7.76131 -0.600372 2.98567 
-7.78822 -0.641656 2.99485 -7.81483 -0.683203 3.00368 -7.84115 -0.725008 3.01216 
-7.86718 -0.767066 3.02028 -7.89292 -0.809371 3.02804 -7.91836 -0.85192 3.03544 
-7.9435 -0.894706 3.04246 -7.96835 -0.937725 3.04909 -7.9929 -0.980972 3.05534 
-8.01716 -1.02444 3.06119 -8.04111 -1.06813 3.06664 -8.06476 -1.11203 3.07168 
-8.0881 -1.15613 3.0763 -8.11115 -1.20044 3.0805 -8.13388 -1.24495 3.08427 
-8.15631 -1.28965 3.08761 -8.17844 -1.33453 3.0905 -8.20025 -1.3796 3.09294 
-8.22176 -1.42484 3.09492 -8.24295 -1.47026 3.09644 -8.26383 -1.51584 3.09749 
-8.2844 -1.56158 3.09807 -8.30464 -1.60748 3.09816 -8.32457 -1.65352 3.09776 
-8.34418 -1.69969 3.09687 -8.36345 -1.746 3.09548 -8.3824 -1.79242 3.09359 
-8.40101 -1.83895 3.09118 -8.41929 -1.88558 3.08826 -8.43722 -1.93231 3.08482 
-8.45482 -1.97912 3.08085 -8.47206 -2.02601 3.07635 -8.48896 -2.07297 3.07131 
-8.5055 -2.11999 3.06573 -8.52169 -2.16706 3.0596 -8.53752 -2.21417 3.05291 
-8.55298 -2.26132 3.04566 -8.56808 -2.3085 3.03785 -8.58281 -2.35569 3.02946 
-8.59717 -2.40289 3.02049 -8.61116 -2.4501 3.01095 -8.62476 -2.4973 3.00081 
-8.63799 -2.54448 2.99009 -8.65084 -2.59164 2.97879 -8.6633 -2.63876 2.96692 
-8.67538 -2.68584 2.95448 -8.68708 -2.73287 2.94146 -8.6984 -2.77984 2.92789 
-8.70933 -2.82673 2.91375 -8.71988 -2.87355 2.89907 -8.73003 -2.92028 2.88383 
-8.7398 -2.96691 2.86804 -8.74919 -3.01343 2.85172 -8.75818 -3.05984 2.83485 
-8.76678 -3.10613 2.81746 -8.77499 -3.15228 2.79953 -8.78281 -3.19829 2.78108 
-8.79023 -3.24414 2.76211 -8.79726 -3.28984 2.74262 -8.8039 -3.33536 2.72261 
-8.81013 -3.38071 2.7021 -8.81598 -3.42587 2.68109 -8.82142 -3.47083 2.65958 
-8.82648 -3.5156 2.63759 -8.83114 -3.56017 2.61511 -8.83542 -3.60455 2.59217 
-8.83931 -3.64871 2.56877 -8.84282 -3.69267 2.54492 -8.84595 -3.73642 2.52063 
-8.84871 -3.77996 2.49591 -8.85109 -3.82327 2.47077 -8.8531 -3.86637 2.44522 
-8.85474 -3.90925 2.41926 -8.85602 -3.9519 2.39292 -8.85693 -3.99432 2.36618 
-8.85749 -4.03651 2.33907 -8.85768 -4.07846 2.3116 -8.85752 -4.12018 2.28377 
-8.85701 -4.16165 2.25559 -8.85615 -4.20289 2.22707 -8.85494 -4.24387 2.19822 
-8.85338 -4.2846 2.16906 -8.85148 -4.32509 2.13958 -8.84925 -4.36532 2.1098 
-8.84668 -4.4053 2.07973 -8.84378 -4.44504 2.04936 -8.84054 -4.48453 2.01872 
-8.83698 -4.52378 1.9878 -8.8331 -4.56279 1.95661 -8.8289 -4.60155 1.92517 
-8.82437 -4.64007 1.89347 -8.81954 -4.67835 1.86153 -8.81439 -4.7164 1.82936 
-8.80893 -4.75421 1.79695 -8.80317 -4.79178 1.76433 -8.7971 -4.82912 1.73149 
-8.79074 -4.86622 1.69844 -8.78408 -4.9031 1.6652 -8.77712 -4.93974 1.63176 
-8.76987 -4.97615 1.59814 -8.76234 -5.01234 1.56435 -8.75452 -5.0483 1.53038 
-8.74642 -5.08403 1.49626 -8.73804 -5.11955 1.46197 -8.72938 -5.15484 1.42754 
-8.72045 -5.18992 1.39296 -8.71125 -5.22479 1.35823 -8.70178 -5.25945 1.32338 
-8.69205 -5.2939 1.28839 -8.68205 -5.32814 1.25327 -8.67179 -5.36219 1.21804 
-8.66128 -5.39604 1.18269 -8.65051 -5.42969 1.14723 -8.63949 -5.46316 1.11167 
-8.62822 -5.49643 1.07601 -8.6167 -5.52952 1.04025 -8.60494 -5.56243 1.00441 
-8.59293 -5.59516 0.968477 -8.58069 -5.62771 0.932471 -8.56822 -5.66009 0.896391 
-8.55551 -5.6923 0.860244 -8.54257 -5.72434 0.824034 -8.5294 -5.75622 0.787767 
-8.51601 -5.78793 0.751446 -8.50239 -5.81949 0.715075 -8.48855 -5.8509 0.678657 
-8.4745 -5.88216 0.642196 -8.46023 -5.91327 0.605696 -8.44575 -5.94424 0.56916 
-8.43105 -5.97508 0.532592 -8.41615 -6.00578 0.495995 -8.40104 -6.03635 0.459374 
-8.38573 -6.06679 0.422731 -8.37021 -6.09711 0.38607 -8.3545 -6.12731 0.349394 
-8.33858 -6.15739 0.312708 -8.32248 -6.18736 0.276015 -8.30618 -6.21723 0.239319 
-8.28969 -6.24698 0.202622 -8.27301 -6.27664 0.165929 -8.25615 -6.3062 0.129244 
-8.23911 -6.33567 0.092569 -8.22188 -6.36505 0.0559086 -8.20448 -6.39435 0.0192657 
-8.1869 -6.42356 -0.0173566 -8.16914 -6.45269 -0.0539555 -8.15122 -6.48176 -0.0905278 
-8.13313 -6.51075 -0.127071 -8.11486 -6.53968 -0.163581 -8.09644 -6.56855 -0.200057 
-8.07785 -6.59736 -0.236493 -8.05911 -6.62612 -0.272889 -8.0402 -6.65483 -0.30924 
-8.02114 -6.6835 -0.345544 -8.00193 -6.71213 -0.381798 -7.98257 -6.74072 -0.417998 
-7.96305 -6.76928 -0.454143 -7.9434 -6.79782 -0.490228 -7.92359 -6.82633 -0.526251 
-7.90365 -6.85482 -0.562209 -7.88357 -6.8833 -0.598099 -7.86335 -6.91177 -0.633918 
-7.843 -6.94023 -0.669663 -7.82251 -6.96869 -0.705331 -7.80189 -6.99716 -0.740919 
-7.78115 -7.02563 -0.776423 -7.76028 -7.05412 -0.81184 -7.73928 -7.08262 -0.847166 
-7.71815 -7.11115 -0.882399 -7.69691 -7.13971 -0.917536 -7.67555 -7.16831 -0.952572 
-7.65406 -7.19695 -0.987505 -7.63246 -7.22563 -1.02233 -7.61075 -7.25436 -1.05705 
-7.58892 -7.28315 -1.09165 -7.56698 -7.312 -1.12614 -7.54493 -7.34092 -1.1605 
-7.52277 -7.36991 -1.19475 -7.50051 -7.39897 -1.22887 -7.47814 -7.42812 -1.26285 
-7.45567 -7.45736 -1.29671 -7.4331 -7.48669 -1.33043 -7.41042 -7.51612 -1.36401 
-7.38766 -7.54565 -1.39744 -7.36479 -7.57529 -1.43073 -7.34184 -7.60505 -1.46385 
-7.3188 -7.63493 -1.49681 -7.29568 -7.66493 -1.5296 -7.27248 -7.69507 -1.5622 
[...]
CELL_DATA 1
FIELD FieldData 2
Length 1 1 double
63.834829001 
Tortuosity 1 1 double
1.0876728789 
POINT_DATA 1277
SCALARS MaximumInscribedSphereRadius float
LOOKUP_TABLE default
0.93 0.94908 0.96816 0.987241 1.00632 1.0254 1.04448 1.06356 1.08264 
1.10172 1.1208 1.13988 1.15896 1.17804 1.19712 1.2162 1.23528 1.25436 
1.27344 1.29252 1.3116 1.32938 1.3383 1.34722 1.35614 1.36505 1.37397 
1.38289 1.39181 1.40073 1.40965 1.41857 1.42749 1.43641 1.44533 1.45425 
1.46317 1.47209 1.48101 1.48993 1.49884 1.49958 1.49032 1.48105 1.47179 
1.46252 1.45326 1.44399 1.43473 1.42546 1.4162 1.40693 1.39767 1.3884 
1.37914 1.36987 1.36061 1.35134 1.34208 1.33281 1.32355 1.31519 1.31146 
1.30772 1.30399 1.30026 1.29653 1.29279 1.28906 1.28533 1.2816 1.27786 
1.27413 1.2704 1.26667 1.26293 1.2592 1.25547 1.25174 1.248 1.24427 
1.24054 1.24006 1.24005 1.24005 1.24005 1.24005 1.24004 1.24004 1.24004 
1.24003 1.24003 1.24003 1.24002 1.24002 1.24002 1.24002 1.24001 1.24001 
1.24001 1.24 1.24 1.24 1.24 1.24 1.24 1.24 1.24 
1.24 1.24 1.24 1.24 1.24 1.24 1.24 1.24 1.24 
1.24 1.24 1.24 1.24 1.24 1.23803 1.2324 1.22677 1.22114 
1.21552 1.20989 1.20426 1.19864 1.19301 1.18738 1.18175 1.17613 1.1705 
1.16487 1.15925 1.15362 1.14799 1.14236 1.13674 1.13111 1.1253 1.11801 
1.11072 1.10343 1.09614 1.08885 1.08156 1.07427 1.06698 1.05969 1.0524 
1.04511 1.03782 1.03053 1.02324 1.01595 1.00866 1.00137 0.994081 0.986791 
0.979501 0.985109 0.992947 1.00079 1.00862 1.01646 1.0243 1.03214 1.03998 
1.04782 1.05566 1.0635 1.07133 1.07917 1.08701 1.09485 1.10269 1.11053 
1.11837 1.1262 1.13404 1.13736 1.13753 1.1377 1.13787 1.13803 1.1382 
1.13837 1.13854 1.13871 1.13888 1.13905 1.13922 1.13938 1.13955 1.13972 
1.13989 1.14006 1.14023 1.1404 1.14057 1.13816 1.13047 1.12279 1.1151 
1.10742 1.09973 1.09204 1.08436 1.07667 1.06899 1.0613 1.05362 1.04593 
1.03825 1.03056 1.02287 1.01519 1.0075 0.999818 0.992133 0.985567 0.992648 
0.999728 1.00681 1.01389 1.02097 1.02805 1.03513 1.04221 1.04929 1.05637 
1.06345 1.07053 1.07762 1.0847 1.09178 1.09886 1.10594 1.11302 1.1201 
1.12718 1.12914 1.13003 1.13092 1.13182 1.13271 1.1336 1.13449 1.13539 
1.13628 1.13717 1.13806 1.13896 1.13985 1.14074 1.14163 1.14253 1.14342 
1.14431 1.1452 1.1461 1.14188 1.13382 1.12577 1.11771 1.10965 1.10159 
1.09354 1.08548 1.07742 1.06936 1.06131 1.05325 1.04519 1.03713 1.02908 
1.02102 1.01296 1.0049 0.996847 0.98879 0.984922 0.990695 0.996469 1.00224 
1.00802 1.01379 1.01956 1.02534 1.03111 1.03688 1.04266 1.04843 1.0542 
1.05998 1.06575 1.07152 1.0773 1.08307 1.08884 1.09462 1.10033 1.10393 
1.10752 1.11112 1.11472 1.11831 1.12191 1.1255 1.1291 1.1327 1.13629 
1.13989 1.14349 1.14708 1.15068 1.15427 1.15787 1.16147 1.16506 1.16866 
1.17226 1.16767 1.16034 1.153 1.14567 1.13834 1.131 1.12367 1.11633 
1.109 1.10167 1.09433 1.087 1.07967 1.07233 1.065 1.05766 1.05033 
1.043 1.03566 1.02833 1.0242 1.02372 1.02325 1.02278 1.0223 1.02183 
1.02136 1.02088 1.02041 1.01993 1.01946 1.01899 1.01851 1.01804 1.01757 
1.01709 1.01662 1.01614 1.01567 1.0152 1.01648 1.02549 1.0345 1.0435 
1.05251 1.06152 1.07053 1.07954 1.08855 1.09755 1.10656 1.11557 1.12458 
1.13359 1.1426 1.15161 1.16061 1.16962 1.17863 1.18764 1.19665 1.20666 
1.21678 1.22689 1.23701 1.24712 1.25724 1.26735 1.27747 1.28758 1.2977 
1.30781 1.31793 1.32804 1.33816 1.34827 1.35839 1.3685 1.37862 1.38873 
1.39885 1.41021 1.42223 1.43426 1.44629 1.45831 1.47034 1.48237 1.4944 
1.50642 1.51845 1.53048 1.5425 1.55453 1.56656 1.57859 1.59061 1.60264 
1.61467 1.62669 1.63872 1.64441 1.64307 1.64173 1.6404 1.63906 1.63773 
1.63639 1.63505 1.63372 1.63238 1.63104 1.62971 1.62837 1.62704 1.6257 
1.62436 1.62303 1.62169 1.62036 1.61902 1.60032 1.56747 1.53463 1.50178 
1.46893 1.43609 1.40324 1.37039 1.33754 1.3047 1.27185 1.239 1.20616 
1.17331 1.14046 1.10762 1.07477 1.04192 1.00907 0.976227 0.959072 0.968505 
0.977938 0.987372 0.996805 1.00624 1.01567 1.0251 1.03454 1.04397 1.0534 
1.06284 1.07227 1.0817 1.09114 1.10057 1.11 1.11944 1.12887 1.1383 
1.14851 1.16346 1.1784 1.19334 1.20829 1.22323 1.23818 1.25312 1.26807 
1.28301 1.29795 1.3129 1.32784 1.34279 1.35773 1.37268 1.38762 1.40257 
1.41751 1.43245 1.4474 1.46149 1.47547 1.48946 1.50344 1.51743 1.53141 
1.5454 1.55938 1.57337 1.58735 1.60133 1.61532 1.6293 1.64329 1.65727 
1.67126 1.68524 1.69923 1.71321 1.7272 1.72586 1.71533 1.7048 1.69427 
1.68374 1.67321 1.66268 1.65214 1.64161 1.63108 1.62055 1.61002 1.59949 
1.58896 1.57843 1.5679 1.55737 1.54684 1.53631 1.52578 1.51604 1.50777 
1.4995 1.49123 1.48296 1.47469 1.46641 1.45814 1.44987 1.4416 1.43333 
1.42506 1.41679 1.40852 1.40024 1.39197 1.3837 1.37543 1.36716 1.35889 
1.35177 1.35852 1.36528 1.37204 1.3788 1.38556 1.39231 1.39907 1.40583 
1.41259 1.41934 1.4261 1.43286 1.43962 1.44638 1.45313 1.45989 1.46665 
1.47341 1.48016 1.48692 1.47948 1.4694 1.45932 1.44924 1.43916 1.42908 
1.419 1.40892 1.39884 1.38876 1.37868 1.3686 1.35852 1.34844 1.33836 
1.32829 1.31821 1.30813 1.29805 1.28797 1.28399 1.28172 1.27945 1.27718 
1.27492 1.27265 1.27038 1.26811 1.26584 1.26358 1.26131 1.25904 1.25677 
1.2545 1.25224 1.24997 1.2477 1.24543 1.24317 1.2409 1.24062 1.24165 
1.24268 1.2437 1.24473 1.24576 1.24679 1.24781 1.24884 1.24987 1.25089 
1.25192 1.25295 1.25398 1.255 1.25603 1.25706 1.25809 1.25911 1.26014 
1.26159 1.26377 1.26594 1.26812 1.27029 1.27247 1.27464 1.27682 1.27899 
1.28117 1.28334 1.28552 1.28769 1.28987 1.29204 1.29422 1.29639 1.29857 
1.30074 1.30292 1.30525 1.3088 1.31236 1.31592 1.31948 1.32304 1.32659 
1.33015 1.33371 1.33727 1.34082 1.34438 1.34794 1.3515 1.35506 1.35861 
1.36217 1.36573 1.36929 1.37285 1.3764 1.38124 1.38632 1.3914 1.39648 
1.40156 1.40663 1.41171 1.41679 1.42187 1.42695 1.43203 1.43711 1.44218 
1.44726 1.45234 1.45742 1.4625 1.46758 1.47265 1.47773 1.48199 1.48563 
1.48926 1.49289 1.49652 1.50016 1.50379 1.50742 1.51105 1.51469 1.51832 
1.52195 1.52558 1.52921 1.53285 1.53648 1.54011 1.54374 1.54738 1.55101 
1.55075 1.54067 1.5306 1.52052 1.51045 1.50037 1.49029 1.48022 1.47014 
1.46007 1.44999 1.43992 1.42984 1.41976 1.40969 1.39961 1.38954 1.37946 
1.36938 1.35931 1.34924 1.34385 1.33846 1.33307 1.32768 1.3223 1.31691 
1.31152 1.30613 1.30075 1.29536 1.28997 1.28458 1.27919 1.27381 1.26842 
1.26303 1.25764 1.25226 1.24687 1.24148 1.24 1.24 1.24 1.24 
1.24 1.24 1.24 1.24 1.24 1.24 1.24 1.24 1.24 
1.24 1.24 1.24 1.24 1.24 1.24 1.24 1.24004 1.24013 
1.24023 1.24032 1.24041 1.2405 1.24059 1.24068 1.24077 1.24086 1.24096 
1.24105 1.24114 1.24123 1.24132 1.24141 1.2415 1.2416 1.24169 1.24178 
1.24443 1.2565 1.26857 1.28064 1.29271 1.30478 1.31685 1.32892 1.341 
1.35307 1.36514 1.37721 1.38928 1.40135 1.41342 1.4255 1.43757 1.44964 
1.46171 1.47378 1.48585 1.5135 1.54184 1.57018 1.59852 1.62687 1.65521 
1.68355 1.7119 1.74024 1.76858 1.79692 1.82527 1.85361 1.88195 1.9103 
1.93864 1.96698 1.99532 2.02367 2.05201 2.05934 2.05716 2.05497 2.05278 
2.05059 2.0484 2.04621 2.04403 2.04184 2.03965 2.03746 2.03527 2.03308 
2.03089 2.02871 2.02652 2.02433 2.02214 2.01995 2.01776 2.01335 2.00576 
1.99818 1.99059 1.98301 1.97543 1.96784 1.96026 1.95267 1.94509 1.9375 
1.92992 1.92233 1.91475 1.90717 1.89958 1.892 1.88441 1.87683 1.86924 
1.86266 1.86253 1.8624 1.86227 1.86213 1.862 1.86187 1.86174 1.8616 
1.86147 1.86134 1.86121 1.86108 1.86094 1.86081 1.86068 1.86055 1.86042 
1.86028 1.86015 1.86002 1.86 1.86 1.86 1.86 1.86 1.86 
1.86 1.86 1.86 1.86 1.86 1.86 1.86 1.86 1.86 
1.86 1.86 1.86 1.86 1.86 1.86158 1.86431 1.86704 1.86978 
1.87251 1.87524 1.87797 1.88071 1.88344 1.88617 1.88891 1.89164 1.89437 
1.8971 1.89984 1.90257 1.9053 1.90804 1.91077 1.9135 1.92007 1.93568 
1.95128 1.96689 1.9825 1.9981 2.01371 2.02932 2.04493 2.06053 2.07614 
2.09175 2.10736 2.12296 2.13857 2.15418 2.16979 2.18539 2.201 2.21661 
2.23205 2.23774 2.24344 2.24914 2.25484 2.26054 2.26624 2.27193 2.27763 
2.28333 2.28903 2.29473 2.30042 2.30612 2.31182 2.31752 2.32322 2.32891 
2.33461 2.34031 2.34601 2.33442 2.31653 2.29865 2.28076 2.26288 2.24499 
2.22711 2.20922 2.19134 2.17345 2.15557 2.13768 2.11979 2.10191 2.08402 
2.06614 2.04825 2.03037 2.01248 1.9946 1.9853 1.98653 1.98777 1.989 
1.99023 1.99146 1.99269 1.99392 1.99515 1.99638 1.99762 1.99885 2.00008 
2.00131 2.00254 2.00377 2.005 2.00624 2.00747 2.0087 2.01122 2.02006 
2.0289 2.03774 2.04658 2.05542 2.06427 2.07311 2.08195 2.09079 2.09963 
2.10847 2.11731 2.12615 2.13499 2.14384 2.15268 2.16152 2.17036 2.1792 
2.18804 2.19734 2.2067 2.21606 2.22541 2.23477 2.24413 2.25348 2.26284 
2.2722 2.28155 2.29091 2.30027 2.30962 2.31898 2.32834 2.33769 2.34705 
2.35641 2.36576 2.37512 2.37545 2.3706 2.36575 2.3609 2.35605 2.3512 
2.34635 2.3415 2.33665 2.3318 2.32695 2.3221 2.31725 2.3124 2.30755 
2.3027 2.29785 2.293 2.28815 2.2833 2.27404 2.25815 2.24226 2.22638 
2.21049 2.1946 2.17871 2.16282 2.14694 2.13105 2.11516 2.09927 2.08338 
2.06749 2.05161 2.03572 2.01983 2.00394 1.98805 1.97216 1.95842 1.95484 
1.95126 1.94767 1.94409 1.94051 1.93692 1.93334 1.92976 1.92617 1.92259 
1.91901 1.91542 1.91184 1.90826 1.90467 1.90109 1.89751 1.89392 1.89034 
1.88675 1.8752 1.86308 1.85096 1.83884 1.82673 1.81461 1.80249 1.79037 
1.77826 1.76614 1.75402 1.7419 1.72978 1.71767 1.70555 1.69343 1.68131 
1.6692 1.65708 1.64496 1.63115 1.61652 1.60189 1.58726 1.57263 1.558 
1.54337 1.52873 1.5141 1.49947 1.48484 1.47021 1.45558 1.44095 1.42632 
1.41168 1.39705 1.38242 1.36779 1.35316 1.34863 1.35917 1.3697 1.38024 
1.39077 1.40131 1.41185 1.42238 1.43292 1.44346 1.45399 1.46453 1.47507 
1.4856 1.49614 1.50667 1.51721 1.52775 1.53828 1.54882 1.55968 1.57274 
1.58581 1.59887 1.61194 1.625 1.63807 1.65113 1.6642 1.67726 1.69033 
1.70339 1.71646 1.72953 1.74259 1.75566 1.76872 1.78179 1.79485 1.80792 
1.82098 1.82466 1.82647 1.82829 1.83011 1.83193 1.83374 1.83556 1.83738 
1.83919 1.84101 1.84283 1.84465 1.84646 1.84828 1.8501 1.85191 1.85373 
1.85555 1.85737 1.85918 1.86 1.86 1.86 1.86 1.86 1.86 
1.86 1.86 1.86 1.86 1.86 1.86 1.86 1.86 1.86 
1.86 1.86 1.86 1.86 1.86 1.86 1.86 1.86 1.86 
1.86 1.86 1.86 1.86 1.86 1.86 1.86 1.86 1.86 
1.86 1.86 1.86 1.86 1.86 1.86 1.86 1.86 
TEXTURE_COORDINATES TCoords 2 float
0 0 0.000783699 0 0.0015674 0 0.0023511 0 0.0031348 
0 0.0039185 0 0.00470219 0 0.00548589 0 0.00626959 0 
0.00705329 0 0.00783699 0 0.00862069 0 0.00940439 0 0.0101881 
0 0.0109718 0 0.0117555 0 0.0125392 0 0.0133229 0 
0.0141066 0 0.0148903 0 0.015674 0 0.0164577 0 0.0172414 
0 0.0180251 0 0.0188088 0 0.0195925 0 0.0203762 0 
0.0211599 0 0.0219436 0 0.0227273 0 0.023511 0 0.0242947 
0 0.0250784 0 0.0258621 0 0.0266458 0 0.0274295 0 
0.0282132 0 0.0289969 0 0.0297806 0 0.0305643 0 0.031348 
0 0.0321317 0 0.0329154 0 0.0336991 0 0.0344828 0 
0.0352665 0 0.0360502 0 0.0368339 0 0.0376176 0 0.0384013 
0 0.039185 0 0.0399687 0 0.0407524 0 0.0415361 0 
0.0423197 0 0.0431034 0 0.0438871 0 0.0446708 0 0.0454545 
0 0.0462382 0 0.0470219 0 0.0478056 0 0.0485893 0 
0.049373 0 0.0501567 0 0.0509404 0 0.0517241 0 0.0525078 
0 0.0532915 0 0.0540752 0 0.0548589 0 0.0556426 0 
0.0564263 0 0.05721 0 0.0579937 0 0.0587774 0 0.0595611 
0 0.0603448 0 0.0611285 0 0.0619122 0 0.0626959 0 
0.0634796 0 0.0642633 0 0.065047 0 0.0658307 0 0.0666144 
0 0.0673981 0 0.0681818 0 0.0689655 0 0.0697492 0 
0.0705329 0 0.0713166 0 0.0721003 0 0.072884 0 0.0736677 
0 0.0744514 0 0.0752351 0 0.0760188 0 0.0768025 0 
0.0775862 0 0.0783699 0 0.0791536 0 0.0799373 0 0.080721 
0 0.0815047 0 0.0822884 0 0.0830721 0 0.0838558 0 
0.0846395 0 0.0854232 0 0.0862069 0 0.0869906 0 0.0877743 
0 0.088558 0 0.0893417 0 0.0901254 0 0.0909091 0 
0.0916928 0 0.0924765 0 0.0932602 0 0.0940439 0 0.0948276 
0 0.0956113 0 0.096395 0 0.0971787 0 0.0979624 0 
0.0987461 0 0.0995298 0 0.100313 0 0.101097 0 0.101881 
0 0.102665 0 0.103448 0 0.104232 0 0.105016 0 
0.105799 0 0.106583 0 0.107367 0 0.10815 0 0.108934 
0 0.109718 0 0.110502 0 0.111285 0 0.112069 0 
0.112853 0 0.113636 0 0.11442 0 0.115204 0 0.115987 
0 0.116771 0 0.117555 0 0.118339 0 0.119122 0 
0.119906 0 0.12069 0 0.121473 0 0.122257 0 0.123041 
0 0.123824 0 0.124608 0 0.125392 0 0.126176 0 
0.126959 0 0.127743 0 0.128527 0 0.12931 0 0.130094 
0 0.130878 0 0.131661 0 0.132445 0 0.133229 0 
0.134013 0 0.134796 0 0.13558 0 0.136364 0 0.137147 
0 0.137931 0 0.138715 0 0.139498 0 0.140282 0 
0.141066 0 0.14185 0 0.142633 0 0.143417 0 0.144201 
0 0.144984 0 0.145768 0 0.146552 0 0.147335 0 
0.148119 0 0.148903 0 0.149687 0 0.15047 0 0.151254 
0 0.152038 0 0.152821 0 0.153605 0 0.154389 0 
0.155172 0 0.155956 0 0.15674 0 0.157524 0 0.158307 
0 0.159091 0 0.159875 0 0.160658 0 0.161442 0 
0.162226 0 0.163009 0 0.163793 0 0.164577 0 0.16536 
0 0.166144 0 0.166928 0 0.167712 0 0.168495 0 
0.169279 0 0.170063 0 0.170846 0 0.17163 0 0.172414 
0 0.173197 0 0.173981 0 0.174765 0 0.175549 0 
0.176332 0 0.177116 0 0.1779 0 0.178683 0 0.179467 
0 0.180251 0 0.181034 0 0.181818 0 0.182602 0 
0.183386 0 0.184169 0 0.184953 0 0.185737 0 0.18652 
0 0.187304 0 0.188088 0 0.188871 0 0.189655 0 
0.190439 0 0.191223 0 0.192006 0 0.19279 0 0.193574 
0 0.194357 0 0.195141 0 0.195925 0 0.196708 0 
0.197492 0 0.198276 0 0.19906 0 0.199843 0 0.200627 
0 0.201411 0 0.202194 0 0.202978 0 0.203762 0 
0.204545 0 0.205329 0 0.206113 0 0.206897 0 0.20768 
0 0.208464 0 0.209248 0 0.210031 0 0.210815 0 
0.211599 0 0.212382 0 0.213166 0 0.21395 0 0.214734 
0 0.215517 0 0.216301 0 0.217085 0 0.217868 0 
0.218652 0 0.219436 0 0.220219 0 0.221003 0 0.221787 
0 0.222571 0 0.223354 0 0.224138 0 0.224922 0 
0.225705 0 0.226489 0 0.227273 0 0.228056 0 0.22884 
0 0.229624 0 0.230408 0 0.231191 0 0.231975 0 
0.232759 0 0.233542 0 0.234326 0 0.23511 0 0.235893 
0 0.236677 0 0.237461 0 0.238245 0 0.239028 0 
0.239812 0 0.240596 0 0.241379 0 0.242163 0 0.242947 
0 0.24373 0 0.244514 0 0.245298 0 0.246082 0 
0.246865 0 0.247649 0 0.248433 0 0.249216 0 0.25 
0 0.250784 0 0.251567 0 0.252351 0 0.253135 0 
0.253918 0 0.254702 0 0.255486 0 0.25627 0 0.257053 
0 0.257837 0 0.258621 0 0.259404 0 0.260188 0 
0.260972 0 0.261755 0 0.262539 0 0.263323 0 0.264107 
0 0.26489 0 0.265674 0 0.266458 0 0.267241 0 
0.268025 0 0.268809 0 0.269592 0 0.270376 0 0.27116 
0 0.271944 0 0.272727 0 0.273511 0 0.274295 0 
0.275078 0 0.275862 0 0.276646 0 0.277429 0 0.278213 
0 0.278997 0 0.279781 0 0.280564 0 0.281348 0 
0.282132 0 0.282915 0 0.283699 0 0.284483 0 0.285266 
0 0.28605 0 0.286834 0 0.287618 0 0.288401 0 
0.289185 0 0.289969 0 0.290752 0 0.291536 0 0.29232 
0 0.293103 0 0.293887 0 0.294671 0 0.295455 0 
0.296238 0 0.297022 0 0.297806 0 0.298589 0 0.299373 
0 0.300157 0 0.30094 0 0.301724 0 0.302508 0 
0.303292 0 0.304075 0 0.304859 0 0.305643 0 0.306426 
0 0.30721 0 0.307994 0 0.308777 0 0.309561 0 
0.310345 0 0.311129 0 0.311912 0 0.312696 0 0.31348 
0 0.314263 0 0.315047 0 0.315831 0 0.316614 0 
0.317398 0 0.318182 0 0.318966 0 0.319749 0 0.320533 
0 0.321317 0 0.3221 0 0.322884 0 0.323668 0 
0.324451 0 0.325235 0 0.326019 0 0.326803 0 0.327586 
0 0.32837 0 0.329154 0 0.329937 0 0.330721 0 
0.331505 0 0.332288 0 0.333072 0 0.333856 0 0.334639 
0 0.335423 0 0.336207 0 0.336991 0 0.337774 0 
0.338558 0 0.339342 0 0.340125 0 0.340909 0 0.341693 
0 0.342476 0 0.34326 0 0.344044 0 0.344828 0 
0.345611 0 0.346395 0 0.347179 0 0.347962 0 0.348746 
0 0.34953 0 0.350313 0 0.351097 0 0.351881 0 
0.352665 0 0.353448 0 0.354232 0 0.355016 0 0.355799 
0 0.356583 0 0.357367 0 0.35815 0 0.358934 0 
0.359718 0 0.360502 0 0.361285 0 0.362069 0 0.362853 
0 0.363636 0 0.36442 0 0.365204 0 0.365987 0 
0.366771 0 0.367555 0 0.368339 0 0.369122 0 0.369906 
0 0.37069 0 0.371473 0 0.372257 0 0.373041 0 
0.373824 0 0.374608 0 0.375392 0 0.376176 0 0.376959 
0 0.377743 0 0.378527 0 0.37931 0 0.380094 0 
0.380878 0 0.381661 0 0.382445 0 0.383229 0 0.384013 
0 0.384796 0 0.38558 0 0.386364 0 0.387147 0 
0.387931 0 0.388715 0 0.389498 0 0.390282 0 0.391066 
0 0.39185 0 0.392633 0 0.393417 0 0.394201 0 
0.394984 0 0.395768 0 0.396552 0 0.397335 0 0.398119 
0 0.398903 0 0.399687 0 0.40047 0 0.401254 0 
0.402038 0 0.402821 0 0.403605 0 0.404389 0 0.405172 
0 0.405956 0 0.40674 0 0.407524 0 0.408307 0 
0.409091 0 0.409875 0 0.410658 0 0.411442 0 0.412226 
0 0.413009 0 0.413793 0 0.414577 0 0.415361 0 
0.416144 0 0.416928 0 0.417712 0 0.418495 0 0.419279 
0 0.420063 0 0.420846 0 0.42163 0 0.422414 0 
0.423197 0 0.423981 0 0.424765 0 0.425549 0 0.426332 
0 0.427116 0 0.4279 0 0.428683 0 0.429467 0 
0.430251 0 0.431034 0 0.431818 0 0.432602 0 0.433386 
0 0.434169 0 0.434953 0 0.435737 0 0.43652 0 
0.437304 0 0.438088 0 0.438871 0 0.439655 0 0.440439 
0 0.441223 0 0.442006 0 0.44279 0 0.443574 0 
0.444357 0 0.445141 0 0.445925 0 0.446708 0 0.447492 
0 0.448276 0 0.44906 0 0.449843 0 0.450627 0 
0.451411 0 0.452194 0 0.452978 0 0.453762 0 0.454545 
0 0.455329 0 0.456113 0 0.456897 0 0.45768 0 
0.458464 0 0.459248 0 0.460031 0 0.460815 0 0.461599 
0 0.462382 0 0.463166 0 0.46395 0 0.464734 0 
0.465517 0 0.466301 0 0.467085 0 0.467868 0 0.468652 
0 0.469436 0 0.470219 0 0.471003 0 0.471787 0 
0.472571 0 0.473354 0 0.474138 0 0.474922 0 0.475705 
0 0.476489 0 0.477273 0 0.478056 0 0.47884 0 
0.479624 0 0.480408 0 0.481191 0 0.481975 0 0.482759 
0 0.483542 0 0.484326 0 0.48511 0 0.485893 0 
0.486677 0 0.487461 0 0.488245 0 0.489028 0 0.489812 
0 0.490596 0 0.491379 0 0.492163 0 0.492947 0 
0.49373 0 0.494514 0 0.495298 0 0.496082 0 0.496865 
0 0.497649 0 0.498433 0 0.499216 0 0.5 0 
0.500784 0 0.501567 0 0.502351 0 0.503135 0 0.503918 
0 0.504702 0 0.505486 0 0.50627 0 0.507053 0 
0.507837 0 0.508621 0 0.509404 0 0.510188 0 0.510972 
0 0.511755 0 0.512539 0 0.513323 0 0.514107 0 
0.51489 0 0.515674 0 0.516458 0 0.517241 0 0.518025 
0 0.518809 0 0.519592 0 0.520376 0 0.52116 0 
0.521944 0 0.522727 0 0.523511 0 0.524295 0 0.525078 
0 0.525862 0 0.526646 0 0.527429 0 0.528213 0 
0.528997 0 0.529781 0 0.530564 0 0.531348 0 0.532132 
0 0.532915 0 0.533699 0 0.534483 0 0.535266 0 
0.53605 0 0.536834 0 0.537618 0 0.538401 0 0.539185 
0 0.539969 0 0.540752 0 0.541536 0 0.54232 0 
0.543103 0 0.543887 0 0.544671 0 0.545455 0 0.546238 
0 0.547022 0 0.547806 0 0.548589 0 0.549373 0 
0.550157 0 0.55094 0 0.551724 0 0.552508 0 0.553292 
0 0.554075 0 0.554859 0 0.555643 0 0.556426 0 
0.55721 0 0.557994 0 0.558777 0 0.559561 0 0.560345 
0 0.561128 0 0.561912 0 0.562696 0 0.56348 0 
0.564263 0 0.565047 0 0.565831 0 0.566614 0 0.567398 
0 0.568182 0 0.568965 0 0.569749 0 0.570533 0 
0.571317 0 0.5721 0 0.572884 0 0.573668 0 0.574451 
0 0.575235 0 0.576019 0 0.576802 0 0.577586 0 
0.57837 0 0.579154 0 0.579937 0 0.580721 0 0.581505 
0 0.582288 0 0.583072 0 0.583856 0 0.584639 0 
0.585423 0 0.586207 0 0.586991 0 0.587774 0 0.588558 
0 0.589342 0 0.590125 0 0.590909 0 0.591693 0 
0.592476 0 0.59326 0 0.594044 0 0.594828 0 0.595611 
0 0.596395 0 0.597179 0 0.597962 0 0.598746 0 
0.59953 0 0.600313 0 0.601097 0 0.601881 0 0.602665 
0 0.603448 0 0.604232 0 0.605016 0 0.605799 0 
0.606583 0 0.607367 0 0.60815 0 0.608934 0 0.609718 
0 0.610502 0 0.611285 0 0.612069 0 0.612853 0 
0.613636 0 0.61442 0 0.615204 0 0.615987 0 0.616771 
0 0.617555 0 0.618339 0 0.619122 0 0.619906 0 
0.62069 0 0.621473 0 0.622257 0 0.623041 0 0.623824 
0 0.624608 0 0.625392 0 0.626176 0 0.626959 0 
0.627743 0 0.628527 0 0.62931 0 0.630094 0 0.630878 
0 0.631661 0 0.632445 0 0.633229 0 0.634013 0 
0.634796 0 0.63558 0 0.636364 0 0.637147 0 0.637931 
0 0.638715 0 0.639498 0 0.640282 0 0.641066 0 
0.64185 0 0.642633 0 0.643417 0 0.644201 0 0.644984 
0 0.645768 0 0.646552 0 0.647335 0 0.648119 0 
0.648903 0 0.649687 0 0.65047 0 0.651254 0 0.652038 
0 0.652821 0 0.653605 0 0.654389 0 0.655172 0 
0.655956 0 0.65674 0 0.657524 0 0.658307 0 0.659091 
0 0.659875 0 0.660658 0 0.661442 0 0.662226 0 
0.663009 0 0.663793 0 0.664577 0 0.665361 0 0.666144 
0 0.666928 0 0.667712 0 0.668495 0 0.669279 0 
0.670063 0 0.670846 0 0.67163 0 0.672414 0 0.673198 
0 0.673981 0 0.674765 0 0.675549 0 0.676332 0 
0.677116 0 0.6779 0 0.678683 0 0.679467 0 0.680251 
0 0.681035 0 0.681818 0 0.682602 0 0.683386 0 