# vtk DataFile Version 4.2
vtk output
ASCII
DATASET POLYDATA
POINTS 1277 float
0 0 0 -0.00310572 0.000729953 0.00257409 -0.0121785 0.0028598 0.0100605 
-0.0268519 0.00629952 0.0221052 -0.0467592 0.0109591 0.0383546 -0.0715339 0.0167485 0.0584546 
-0.10081 0.0235778 0.0820515 -0.134219 0.0313569 0.108791 -0.171397 0.0399957 0.13832 
-0.211976 0.0494044 0.170284 -0.25559 0.0594928 0.20433 -0.301872 0.070171 0.240103 
-0.350455 0.0813489 0.27725 -0.400973 0.0929365 0.315416 -0.45306 0.104844 0.354249 
-0.506349 0.116981 0.393393 -0.560473 0.129257 0.432496 -0.615066 0.141584 0.471203 
-0.669762 0.15387 0.50916 -0.724193 0.166025 0.546014 -0.777993 0.17796 0.581411 
-0.830796 0.189585 0.614997 -0.882326 0.20083 0.646512 -0.932615 0.211698 0.676014 
-0.981758 0.222204 0.703626 -1.02985 0.232364 0.72947 -1.07698 0.242194 0.753669 
-1.12325 0.251712 0.776347 -1.16876 0.260932 0.797627 -1.21359 0.269872 0.817631 
-1.25785 0.278547 0.836483 -1.30162 0.286973 0.854305 -1.34501 0.295167 0.871222 
-1.3881 0.303145 0.887354 -1.43099 0.310923 0.902827 -1.47379 0.318517 0.917762 
-1.51657 0.325943 0.932284 -1.55944 0.333218 0.946514 -1.60249 0.340358 0.960575 
-1.64582 0.347378 0.974592 -1.68953 0.354296 0.988686 -1.73369 0.361126 1.00298 
-1.77834 0.367867 1.0175 -1.82346 0.374504 1.03224 -1.86902 0.381023 1.04715 
-1.91499 0.387409 1.06222 -1.96134 0.393646 1.07742 -2.00805 0.399721 1.09271 
-2.0551 0.405617 1.10808 -2.10246 0.411321 1.12349 -2.15009 0.416817 1.13892 
-2.19798 0.422091 1.15434 -2.24609 0.427127 1.16971 -2.29441 0.431911 1.18503 
-2.3429 0.436427 1.20024 -2.39154 0.440661 1.21534 -2.4403 0.444599 1.23029 
-2.48916 0.448224 1.24506 -2.53809 0.451523 1.25963 -2.58706 0.45448 1.27397 
-2.63605 0.45708 1.28805 -2.68503 0.459309 1.30184 -2.73397 0.461152 1.31533 
-2.78289 0.462598 1.32852 -2.83177 0.463634 1.34144 -2.88062 0.464249 1.35409 
-2.92943 0.464431 1.36649 -2.9782 0.464169 1.37866 -3.02694 0.46345 1.39061 
-3.07563 0.462263 1.40235 -3.12429 0.460596 1.41391 -3.17291 0.458437 1.42528 
-3.22149 0.455775 1.4365 -3.27003 0.452598 1.44757 -3.31852 0.448894 1.45851 
-3.36698 0.444651 1.46934 -3.41539 0.439858 1.48006 -3.46375 0.434503 1.4907 
-3.51207 0.428574 1.50126 -3.56035 0.422059 1.51177 -3.60858 0.414947 1.52223 
-3.65676 0.407226 1.53267 -3.70489 0.398886 1.54309 -3.75296 0.389923 1.55351 
-3.80095 0.380338 1.56392 -3.84886 0.370132 1.57433 -3.89667 0.359305 1.58474 
-3.94436 0.347856 1.59516 -3.99192 0.335787 1.60558 -4.03934 0.323098 1.61602 
-4.0866 0.309788 1.62647 -4.1337 0.295859 1.63694 -4.1806 0.28131 1.64743 
-4.22731 0.266142 1.65794 -4.27381 0.250355 1.66848 -4.32008 0.233949 1.67905 
-4.36611 0.216925 1.68966 -4.41188 0.199284 1.70031 -4.45739 0.181024 1.71099 
-4.50262 0.162147 1.72172 -4.54755 0.142653 1.73249 -4.59218 0.122542 1.74332 
-4.63648 0.101815 1.7542 -4.68045 0.0804855 1.76513 -4.72411 0.058574 1.77613 
-4.76746 0.0361026 1.78721 -4.81049 0.0130928 1.79835 -4.85323 -0.0104337 1.80958 
-4.89567 -0.0344552 1.82089 -4.93782 -0.0589501 1.8323 -4.97968 -0.0838968 1.8438 
-5.02127 -0.109274 1.85541 -5.06259 -0.135059 1.86713 -5.10363 -0.161231 1.87897 
-5.14442 -0.187768 1.89093 -5.18495 -0.214648 1.90301 -5.22524 -0.24185 1.91523 
-5.26528 -0.269353 1.92758 -5.30508 -0.297134 1.94008 -5.34465 -0.325171 1.95273 
-5.38399 -0.353444 1.96554 -5.42312 -0.381931 1.97851 -5.46203 -0.410609 1.99164 
-5.50073 -0.43946 2.00495 -5.53924 -0.468468 2.01843 -5.57757 -0.497618 2.03208 
-5.61572 -0.526895 2.04589 -5.65372 -0.556283 2.05988 -5.69157 -0.585767 2.07404 
-5.72929 -0.615333 2.08837 -5.76688 -0.644965 2.10286 -5.80437 -0.674647 2.11753 
-5.84176 -0.704365 2.13236 -5.87906 -0.734103 2.14736 -5.91629 -0.763847 2.16253 
-5.95345 -0.79358 2.17786 -5.99057 -0.823288 2.19336 -6.02764 -0.852956 2.20903 
-6.0647 -0.882568 2.22486 -6.10173 -0.912109 2.24086 -6.13877 -0.941564 2.25702 
-6.17582 -0.970918 2.27335 -6.21289 -1.00016 2.28984 -6.24999 -1.02926 2.3065 
-6.28713 -1.05824 2.32331 -6.32431 -1.08707 2.34028 -6.36154 -1.11576 2.35739 
-6.39882 -1.1443 2.37464 -6.43616 -1.17269 2.39204 -6.47355 -1.20092 2.40956 
-6.51101 -1.22899 2.42721 -6.54853 -1.2569 2.44497 -6.58613 -1.28464 2.46286 
-6.6238 -1.31221 2.48085 -6.66155 -1.3396 2.49894 -6.69939 -1.3668 2.51714 
-6.73731 -1.39382 2.53542 -6.77533 -1.42066 2.55379 -6.81344 -1.44729 2.57225 
-6.85165 -1.47373 2.59078 -6.88997 -1.49997 2.60938 -6.92839 -1.526 2.62805 
-6.96693 -1.55182 2.64677 -7.00558 -1.57743 2.66555 -7.04436 -1.60282 2.68438 
-7.08325 -1.62799 2.70324 -7.12227 -1.65296 2.72214 -7.16141 -1.6777 2.74106 
-7.20068 -1.70224 2.76 -7.24007 -1.72656 2.77895 -7.2796 -1.75067 2.7979 
-7.31925 -1.77457 2.81684 -7.35904 -1.79826 2.83578 -7.39897 -1.82174 2.85468 
-7.43903 -1.84501 2.87357 -7.47922 -1.86808 2.89241 -7.51956 -1.89093 2.91121 
-7.56004 -1.91358 2.92996 -7.60066 -1.93602 2.94865 -7.64143 -1.95825 2.96728 
-7.68234 -1.98028 2.98583 -7.72341 -2.00211 3.00429 -7.76462 -2.02373 3.02267 
-7.80598 -2.04515 3.04096 -7.8475 -2.06637 3.05913 -7.88917 -2.08739 3.07719 
-7.931 -2.10821 3.09513 -7.97297 -2.12884 3.11292 -8.0151 -2.14929 3.13057 
-8.05739 -2.16955 3.14807 -8.09983 -2.18963 3.16539 -8.14242 -2.20953 3.18254 
-8.18517 -2.22926 3.1995 -8.22807 -2.24882 3.21626 -8.27113 -2.26821 3.23282 
-8.31434 -2.28744 3.24915 -8.35771 -2.3065 3.26525 -8.40123 -2.32541 3.28112 
-8.44491 -2.34417 3.29673 -8.48874 -2.36278 3.31208 -8.53273 -2.38124 3.32717 
-8.57688 -2.39955 3.34197 -8.62119 -2.41773 3.35648 -8.66565 -2.43577 3.37069 
-8.71026 -2.45368 3.38458 -8.75504 -2.47146 3.39813 -8.79996 -2.48912 3.41132 
-8.84505 -2.50668 3.42413 -8.89028 -2.52412 3.43653 -8.93567 -2.54148 3.44849 
-8.98121 -2.55874 3.45999 -9.0269 -2.57592 3.47101 -9.07275 -2.59302 3.48153 
-9.11874 -2.61005 3.49152 -9.16488 -2.62703 3.50096 -9.21117 -2.64394 3.50982 
-9.25761 -2.66082 3.51807 -9.30419 -2.67764 3.52571 -9.35092 -2.69444 3.53269 
-9.3978 -2.71121 3.53901 -9.44481 -2.72796 3.54462 -9.49198 -2.7447 3.54952 
-9.53928 -2.76143 3.55367 -9.58673 -2.77817 3.55706 -9.63431 -2.79491 3.55965 
-9.68201 -2.81167 3.56142 -9.72977 -2.82843 3.56234 -9.77757 -2.84521 3.56238 
-9.82537 -2.86201 3.56151 -9.87314 -2.87883 3.55969 -9.92083 -2.89566 3.5569 
-9.96841 -2.91252 3.5531 -10.0159 -2.9294 3.54827 -10.0631 -2.9463 3.54237 
-10.1101 -2.96324 3.53538 -10.1569 -2.98019 3.52726 -10.2034 -2.99718 3.51798 
-10.2496 -3.0142 3.50752 -10.2954 -3.03126 3.49584 -10.3408 -3.04835 3.48291 
-10.3858 -3.06547 3.4687 -10.4303 -3.08263 3.45319 -10.4743 -3.09984 3.43633 
-10.5178 -3.11708 3.4181 -10.5607 -3.13437 3.39848 -10.6029 -3.1517 3.37747 
-10.6446 -3.16905 3.35511 -10.6856 -3.18642 3.33145 -10.7259 -3.2038 3.30651 
-10.7655 -3.22118 3.28034 -10.8043 -3.23855 3.25297 -10.8424 -3.2559 3.22444 
-10.8797 -3.27321 3.19479 -10.9162 -3.29049 3.16405 -10.9518 -3.30772 3.13226 
-10.9866 -3.32489 3.09946 -11.0205 -3.34199 3.06569 -11.0534 -3.35901 3.03098 
-11.0854 -3.37594 2.99537 -11.1165 -3.39278 2.9589 -11.1465 -3.40951 2.92161 
-11.1755 -3.42612 2.88352 -11.2035 -3.4426 2.84469 -11.2304 -3.45895 2.80515 
-11.2562 -3.47516 2.76493 -11.2809 -3.49121 2.72407 -11.3045 -3.50711 2.68259 
-11.3271 -3.52286 2.64053 -11.3486 -3.53845 2.5979 -11.3692 -3.55389 2.55474 
-11.3887 -3.56917 2.51107 -11.4073 -3.5843 2.46693 -11.425 -3.59926 2.42233 
-11.4418 -3.61407 2.37731 -11.4577 -3.62871 2.33189 -11.4727 -3.6432 2.2861 
-11.4869 -3.65752 2.23997 -11.5003 -3.67168 2.19352 -11.5129 -3.68567 2.14679 
-11.5247 -3.69949 2.09979 -11.5359 -3.71315 2.05257 -11.5463 -3.72664 2.00513 
-11.556 -3.73996 1.95752 -11.5651 -3.75311 1.90976 -11.5735 -3.76609 1.86188 
-11.5813 -3.7789 1.81389 -11.5885 -3.79154 1.7658 -11.5951 -3.80401 1.71762 
-11.6012 -3.81632 1.66936 -11.6066 -3.82847 1.62101 -11.6115 -3.84046 1.57258 
-11.6158 -3.8523 1.52409 -11.6196 -3.86399 1.47552 -11.6229 -3.87553 1.4269 
-11.6256 -3.88693 1.37821 -11.6278 -3.89818 1.32948 -11.6295 -3.9093 1.2807 
-11.6307 -3.92028 1.23187 -11.6315 -3.93113 1.18301 -11.6317 -3.94184 1.13412 
-11.6315 -3.95243 1.0852 -11.6309 -3.9629 1.03626 -11.6298 -3.97324 0.987308 
-11.6283 -3.98347 0.93834 -11.6263 -3.99358 0.889365 -11.6239 -4.00358 0.840389 
-11.6212 -4.01348 0.791416 -11.618 -4.02329 0.74245 -11.6144 -4.03301 0.693496 
-11.6104 -4.04267 0.644558 -11.606 -4.05227 0.595642 -11.6013 -4.06181 0.54675 
-11.5961 -4.07132 0.497889 -11.5905 -4.0808 0.449062 -11.5846 -4.09026 0.400273 
-11.5783 -4.09971 0.351527 -11.5716 -4.10917 0.30283 -11.5645 -4.11864 0.254184 
-11.557 -4.12813 0.205595 -11.5492 -4.13766 0.157067 -11.541 -4.14723 0.108604 
-11.5324 -4.15685 0.0602114 -11.5235 -4.16654 0.0118932 -11.5142 -4.17631 -0.0363461 
-11.5046 -4.18616 -0.0845021 -11.4946 -4.19611 -0.13257 -11.4842 -4.20617 -0.180544 
-11.4735 -4.21634 -0.228419 -11.4625 -4.22664 -0.276186 -11.451 -4.23707 -0.32384 
-11.4393 -4.24765 -0.371375 -11.4272 -4.25839 -0.418784 -11.4147 -4.26929 -0.46606 
-11.4019 -4.28037 -0.513198 -11.3888 -4.29163 -0.560189 -11.3753 -4.30309 -0.607029 
-11.3614 -4.31475 -0.653711 -11.3472 -4.32663 -0.700227 -11.3327 -4.33874 -0.746573 
-11.3178 -4.35107 -0.79274 -11.3026 -4.36365 -0.838724 -11.287 -4.37649 -0.884516 
-11.2711 -4.38959 -0.930112 -11.2549 -4.40296 -0.975504 -11.2383 -4.41662 -1.02069 
-11.2213 -4.43057 -1.06565 -11.2041 -4.44482 -1.1104 -11.1865 -4.45936 -1.15492 
-11.1685 -4.47418 -1.19922 -11.1503 -4.48929 -1.2433 -11.1317 -4.50467 -1.28715 
-11.1128 -4.52032 -1.33079 -11.0936 -4.53624 -1.37419 -11.0741 -4.55242 -1.41737 
-11.0543 -4.56885 -1.46033 -11.0342 -4.58553 -1.50306 -11.0138 -4.60246 -1.54556 
-10.9931 -4.61962 -1.58783 -10.9721 -4.63702 -1.62987 -10.9509 -4.65465 -1.67168 
-10.9294 -4.6725 -1.71327 -10.9077 -4.69057 -1.75462 -10.8856 -4.70885 -1.79574 
-10.8633 -4.72734 -1.83663 -10.8408 -4.74603 -1.87728 -10.818 -4.76491 -1.9177 
-10.795 -4.78399 -1.95789 -10.7718 -4.80326 -1.99784 -10.7483 -4.8227 -2.03757 
-10.7246 -4.84232 -2.07707 -10.7006 -4.8621 -2.11635 -10.6765 -4.88205 -2.15541 
[...]
CELL_DATA 1
FIELD FieldData 2
Length 1 1 double
63.800234083 
Tortuosity 1 1 double
1.3297736758 
POINT_DATA 1277
SCALARS MaximumInscribedSphereRadius float
LOOKUP_TABLE default
0.93 0.948955 0.96791 0.986864 1.00582 1.02477 1.04373 1.06268 1.08164 
1.10059 1.11955 1.1385 1.15746 1.17641 1.19537 1.21432 1.23328 1.25223 
1.27119 1.29014 1.3091 1.32737 1.33498 1.34259 1.35019 1.3578 1.36541 
1.37301 1.38062 1.38823 1.39583 1.40344 1.41105 1.41866 1.42626 1.43387 
1.44148 1.44908 1.45669 1.4643 1.4719 1.47028 1.46196 1.45364 1.44533 
1.43701 1.42869 1.42037 1.41205 1.40374 1.39542 1.3871 1.37878 1.37046 
1.36215 1.35383 1.34551 1.33719 1.32887 1.32056 1.31224 1.30465 1.30226 
1.29986 1.29746 1.29506 1.29267 1.29027 1.28787 1.28548 1.28308 1.28068 
1.27828 1.27589 1.27349 1.27109 1.26869 1.2663 1.2639 1.2615 1.25911 
1.25671 1.25665 1.25697 1.25729 1.2576 1.25792 1.25824 1.25855 1.25887 
1.25919 1.25951 1.25982 1.26014 1.26046 1.26077 1.26109 1.26141 1.26172 
1.26204 1.26236 1.26267 1.2651 1.2689 1.27271 1.27652 1.28032 1.28413 
1.28794 1.29174 1.29555 1.29935 1.30316 1.30697 1.31077 1.31458 1.31838 
1.32219 1.326 1.3298 1.33361 1.33742 1.34223 1.34912 1.356 1.36289 
1.36978 1.37667 1.38356 1.39045 1.39734 1.40423 1.41112 1.418 1.42489 
1.43178 1.43867 1.44556 1.45245 1.45934 1.46623 1.47311 1.4795 1.47266 
1.46581 1.45897 1.45213 1.44529 1.43845 1.4316 1.42476 1.41792 1.41108 
1.40424 1.39739 1.39055 1.38371 1.37687 1.37002 1.36318 1.35634 1.3495 
1.34266 1.33074 1.31713 1.30352 1.28991 1.2763 1.26269 1.24908 1.23547 
1.22186 1.20825 1.19465 1.18104 1.16743 1.15382 1.14021 1.1266 1.11299 
1.09938 1.08577 1.07216 1.06787 1.0743 1.08072 1.08715 1.09358 1.10001 
1.10644 1.11286 1.11929 1.12572 1.13215 1.13858 1.145 1.15143 1.15786 
1.16429 1.17072 1.17714 1.18357 1.19 1.19511 1.1942 1.1933 1.19239 
1.19149 1.19058 1.18968 1.18877 1.18787 1.18696 1.18605 1.18515 1.18424 
1.18334 1.18243 1.18153 1.18062 1.17972 1.17881 1.17791 1.177 1.15816 
1.13751 1.11687 1.09622 1.07557 1.05492 1.03428 1.01363 0.992982 0.972335 
0.951687 0.93104 0.910392 0.889745 0.869097 0.84845 0.827802 0.807155 0.786507 
0.76586 0.771181 0.788111 0.805041 0.821971 0.838901 0.855831 0.872761 0.889691 
0.906621 0.923551 0.940481 0.957411 0.974341 0.991271 1.0082 1.02513 1.04206 
1.05899 1.07592 1.09285 1.10443 1.1113 1.11817 1.12504 1.13191 1.13878 
1.14565 1.15252 1.15939 1.16626 1.17313 1.18 1.18688 1.19375 1.20062 
1.20749 1.21436 1.22123 1.2281 1.23497 1.23801 1.2306 1.22319 1.21577 
1.20836 1.20095 1.19353 1.18612 1.17871 1.1713 1.16388 1.15647 1.14906 
1.14164 1.13423 1.12682 1.1194 1.11199 1.10458 1.09716 1.08975 1.07988 
1.06999 1.0601 1.05021 1.04032 1.03043 1.02054 1.01065 1.00076 0.990875 
0.980985 0.971096 0.961206 0.951317 0.941428 0.931538 0.921649 0.91176 0.90187 
0.891981 0.8902 0.891721 0.893243 0.894764 0.896285 0.897807 0.899328 0.900849 
0.90237 0.903892 0.905413 0.906934 0.908456 0.909977 0.911498 0.913019 0.914541 
0.916062 0.917583 0.919105 0.920183 0.920677 0.921172 0.921667 0.922162 0.922656 
0.923151 0.923646 0.92414 0.924635 0.92513 0.925625 0.926119 0.926614 0.927109 
0.927603 0.928098 0.928593 0.929088 0.929582 0.93 0.93 0.93 0.93 
0.93 0.93 0.93 0.93 0.93 0.93 0.93 0.93 0.93 
0.93 0.93 0.93 0.93 0.93 0.93 0.93 0.93 0.931271 
0.932732 0.934193 0.935654 0.937114 0.938575 0.940036 0.941497 0.942957 0.944418 
0.945879 0.94734 0.948801 0.950261 0.951722 0.953183 0.954644 0.956104 0.957565 
0.959026 0.964939 0.973966 0.982992 0.992019 1.00105 1.01007 1.0191 1.02813 
1.03715 1.04618 1.05521 1.06423 1.07326 1.08229 1.09131 1.10034 1.10937 
1.11839 1.12742 1.13645 1.14689 1.16112 1.17536 1.18959 1.20382 1.21805 
1.23228 1.24652 1.26075 1.27498 1.28921 1.30345 1.31768 1.33191 1.34614 
1.36037 1.37461 1.38884 1.40307 1.4173 1.4316 1.44735 1.4631 1.47885 
1.49461 1.51036 1.52611 1.54186 1.55761 1.57336 1.58911 1.60486 1.62061 
1.63637 1.65212 1.66787 1.68362 1.69937 1.71512 1.73087 1.74662 1.73387 
1.72014 1.70641 1.69269 1.67896 1.66524 1.65151 1.63779 1.62406 1.61033 
1.59661 1.58288 1.56916 1.55543 1.5417 1.52798 1.51425 1.50053 1.48712 
1.47758 1.46804 1.4585 1.44896 1.43942 1.42988 1.42034 1.4108 1.40126 
1.39172 1.38218 1.37264 1.3631 1.35356 1.34403 1.33449 1.32495 1.31541 
1.30587 1.29633 1.29266 1.29964 1.30662 1.3136 1.32058 1.32756 1.33454 
1.34152 1.3485 1.35548 1.36246 1.36944 1.37642 1.38339 1.39037 1.39735 
1.40433 1.41131 1.41829 1.42527 1.43164 1.43337 1.43509 1.43682 1.43855 
1.44027 1.442 1.44373 1.44546 1.44718 1.44891 1.45064 1.45236 1.45409 
1.45582 1.45754 1.45927 1.461 1.46272 1.46445 1.46618 1.45767 1.44717 
1.43666 1.42616 1.41565 1.40515 1.39464 1.38413 1.37363 1.36312 1.35262 
1.34211 1.33161 1.3211 1.31059 1.30009 1.28958 1.27908 1.26857 1.25807 
1.24701 1.23548 1.22396 1.21244 1.20092 1.1894 1.17788 1.16635 1.15483 
1.14331 1.13179 1.12027 1.10875 1.09722 1.0857 1.07418 1.06266 1.05114 
1.03962 1.02809 1.02257 1.0332 1.04384 1.05447 1.06511 1.07574 1.08637 
1.09701 1.10764 1.11828 1.12891 1.13955 1.15018 1.16082 1.17145 1.18209 
1.19272 1.20335 1.21399 1.22462 1.23527 1.25071 1.26614 1.28158 1.29701 
1.31245 1.32788 1.34332 1.35875 1.37419 1.38962 1.40506 1.42049 1.43593 
1.45136 1.4668 1.48223 1.49767 1.5131 1.52854 1.54398 1.54695 1.54539 
1.54383 1.54227 1.54071 1.53915 1.53759 1.53603 1.53447 1.53291 1.53135 
1.52979 1.52823 1.52667 1.52511 1.52356 1.522 1.52044 1.51888 1.51732 
1.51221 1.50308 1.49394 1.48481 1.47568 1.46655 1.45742 1.44829 1.43916 
1.43003 1.4209 1.41177 1.40264 1.39351 1.38438 1.37525 1.36612 1.35699 
1.34786 1.33872 1.33061 1.32608 1.32155 1.31702 1.31249 1.30797 1.30344 
1.29891 1.29438 1.28986 1.28533 1.2808 1.27627 1.27174 1.26722 1.26269 
1.25816 1.25363 1.24911 1.24458 1.24005 1.24679 1.25366 1.26053 1.2674 
1.27427 1.28114 1.28801 1.29487 1.30174 1.30861 1.31548 1.32235 1.32922 
1.33609 1.34295 1.34982 1.35669 1.36356 1.37043 1.3773 1.39365 1.41292 
1.4322 1.45148 1.47076 1.49003 1.50931 1.52859 1.54786 1.56714 1.58642 
1.6057 1.62497 1.64425 1.66353 1.6828 1.70208 1.72136 1.74064 1.75991 
1.77178 1.77624 1.7807 1.78516 1.78962 1.79408 1.79854 1.80299 1.80745 
1.81191 1.81637 1.82083 1.82529 1.82975 1.83421 1.83867 1.84313 1.84759 
1.85205 1.85651 1.85951 1.85725 1.85499 1.85273 1.85047 1.84821 1.84595 
1.84369 1.84143 1.83917 1.83691 1.83465 1.83239 1.83013 1.82787 1.82561 
1.82335 1.82109 1.81883 1.81657 1.81431 1.80522 1.79558 1.78595 1.77631 
1.76668 1.75704 1.74741 1.73777 1.72814 1.7185 1.70887 1.69923 1.6896 
1.67996 1.67033 1.66069 1.65106 1.64142 1.63179 1.62215 1.61653 1.61315 
1.60976 1.60638 1.603 1.59962 1.59623 1.59285 1.58947 1.58608 1.5827 
1.57932 1.57594 1.57255 1.56917 1.56579 1.5624 1.55902 1.55564 1.55225 
1.55049 1.55144 1.5524 1.55336 1.55432 1.55528 1.55623 1.55719 1.55815 
1.55911 1.56007 1.56102 1.56198 1.56294 1.5639 1.56486 1.56581 1.56677 
1.56773 1.56869 1.57037 1.57946 1.58854 1.59763 1.60671 1.6158 1.62489 
1.63397 1.64306 1.65214 1.66123 1.67032 1.6794 1.68849 1.69757 1.70666 
1.71574 1.72483 1.73392 1.743 1.75209 1.75786 1.76282 1.76778 1.77274 
1.7777 1.78266 1.78762 1.79258 1.79754 1.8025 1.80746 1.81242 1.81738 
1.82234 1.8273 1.83226 1.83722 1.84218 1.84714 1.8521 1.85462 1.85489 
1.85517 1.85544 1.85571 1.85598 1.85625 1.85653 1.8568 1.85707 1.85734 
1.85762 1.85789 1.85816 1.85843 1.8587 1.85898 1.85925 1.85952 1.85979 
1.8558 1.83852 1.82124 1.80396 1.78668 1.76939 1.75211 1.73483 1.71755 
1.70027 1.68299 1.66571 1.64842 1.63114 1.61386 1.59658 1.5793 1.56202 
1.54474 1.52745 1.51017 1.49678 1.48345 1.47012 1.45679 1.44346 1.43013 
1.4168 1.40348 1.39015 1.37682 1.36349 1.35016 1.33683 1.3235 1.31017 
1.29684 1.28351 1.27019 1.25686 1.24353 1.24 1.24 1.24 1.24 
1.24 1.24 1.24 1.24 1.24 1.24 1.24 1.24 1.24 
1.24 1.24 1.24 1.24 1.24 1.24 1.24 1.24 1.24 
1.24 1.24 1.24 1.24 1.24 1.24 1.24 1.24 1.24 
1.24 1.24 1.24 1.24 1.24 1.24 1.24 1.24 1.24 
1.24 1.24 1.24 1.24 1.24 1.24 1.24 1.24 1.24 
1.24 1.24 1.24 1.24 1.24 1.24 1.24 1.24 1.24 
1.24 1.24 1.24 1.24 1.24 1.24 1.24 1.24 1.24 
1.24 1.24 1.24 1.24 1.24 1.24 1.24 1.24 1.24 
1.24 1.24 1.24 1.24 1.24 1.24 1.24 1.24 1.24 
1.24 1.24 1.24 1.24 1.24 1.24 1.24 1.24 1.24 
1.24 1.24 1.24 1.24 1.24 1.24 1.24 1.24052 1.24221 
1.2439 1.24559 1.24727 1.24896 1.25065 1.25234 1.25402 1.25571 1.2574 
1.25909 1.26078 1.26246 1.26415 1.26584 1.26753 1.26921 1.2709 1.27259 
1.27445 1.28426 1.29408 1.30389 1.3137 1.32351 1.33332 1.34314 1.35295 
1.36276 1.37257 1.38238 1.3922 1.40201 1.41182 1.42163 1.43144 1.44126 
1.45107 1.46088 1.47069 1.48076 1.49091 1.50107 1.51123 1.52139 1.53154 
1.5417 1.55186 1.56201 1.57217 1.58233 1.59248 1.60264 1.6128 1.62296 
1.63311 1.64327 1.65343 1.66358 1.67374 1.68289 1.69079 1.69869 1.70658 
1.71448 1.72238 1.73027 1.73817 1.74607 1.75396 1.76186 1.76976 1.77765 
1.78555 1.79345 1.80134 1.80924 1.81713 1.82503 1.83293 1.83835 1.83028 
1.82222 1.81415 1.80608 1.79802 1.78995 1.78189 1.77382 1.76575 1.75769 
1.74962 1.74156 1.73349 1.72542 1.71736 1.70929 1.70122 1.69316 1.68509 
1.67703 1.6709 1.66507 1.65924 1.65342 1.64759 1.64176 1.63593 1.63011 
1.62428 1.61845 1.61262 1.6068 1.60097 1.59514 1.58932 1.58349 1.57766 
1.57183 1.56601 1.56018 1.55853 1.55996 1.56139 1.56282 1.56425 1.56568 
1.5671 1.56853 1.56996 1.57139 1.57282 1.57425 1.57568 1.57711 1.57853 
1.57996 1.58139 1.58282 1.58425 1.58568 1.5888 1.59604 1.60329 1.61053 
1.61778 1.62502 1.63227 1.63951 1.64676 1.654 1.66125 1.66849 1.67574 
1.68298 1.69023 1.69747 1.70472 1.71196 1.71921 1.72645 1.73374 1.74388 
1.75401 1.76414 1.77427 1.78441 1.79454 1.80467 1.81481 1.82494 1.83507 
1.8452 1.85534 1.86547 1.8756 1.88573 1.89587 1.906 1.91613 1.92627 
1.9364 1.94447 1.95195 1.95943 1.96691 1.9744 1.98188 1.98936 1.99685 
2.00433 2.01181 2.0193 2.02678 2.03426 2.04175 2.04923 2.05671 2.0642 
2.07168 2.07916 2.08665 2.08925 2.08502 2.08079 2.07655 2.07232 2.06809 
2.06386 2.05963 2.0554 2.05117 2.04694 2.04271 2.03848 2.03425 2.03002 
2.02579 2.02155 2.01732 2.01309 2.00886 2.00191 1.99481 1.98772 1.98062 
1.97353 1.96643 1.95934 1.95224 1.94515 1.93805 1.93096 1.92386 1.91676 
1.90967 1.90257 1.89548 1.88838 1.88129 1.87419 1.8671 1.86 
TEXTURE_COORDINATES TCoords 2 float
0 0 0.000783699 0 0.0015674 0 0.0023511 0 0.0031348 
0 0.0039185 0 0.00470219 0 0.00548589 0 0.00626959 0 
0.00705329 0 0.00783699 0 0.00862069 0 0.00940439 0 0.0101881 
0 0.0109718 0 0.0117555 0 0.0125392 0 0.0133229 0 
0.0141066 0 0.0148903 0 0.015674 0 0.0164577 0 0.0172414 
0 0.0180251 0 0.0188088 0 0.0195925 0 0.0203762 0 
0.0211599 0 0.0219436 0 0.0227273 0 0.023511 0 0.0242947 
0 0.0250784 0 0.0258621 0 0.0266458 0 0.0274295 0 
0.0282132 0 0.0289969 0 0.0297806 0 0.0305643 0 0.031348 
0 0.0321317 0 0.0329154 0 0.0336991 0 0.0344828 0 
0.0352665 0 0.0360502 0 0.0368339 0 0.0376176 0 0.0384013 
0 0.039185 0 0.0399687 0 0.0407524 0 0.0415361 0 
0.0423197 0 0.0431034 0 0.0438871 0 0.0446708 0 0.0454545 
0 0.0462382 0 0.0470219 0 0.0478056 0 0.0485893 0 
0.049373 0 0.0501567 0 0.0509404 0 0.0517241 0 0.0525078 
0 0.0532915 0 0.0540752 0 0.0548589 0 0.0556426 0 
0.0564263 0 0.05721 0 0.0579937 0 0.0587774 0 0.0595611 
0 0.0603448 0 0.0611285 0 0.0619122 0 0.0626959 0 
0.0634796 0 0.0642633 0 0.065047 0 0.0658307 0 0.0666144 
0 0.0673981 0 0.0681818 0 0.0689655 0 0.0697492 0 
0.0705329 0 0.0713166 0 0.0721003 0 0.072884 0 0.0736677 
0 0.0744514 0 0.0752351 0 0.0760188 0 0.0768025 0 
0.0775862 0 0.0783699 0 0.0791536 0 0.0799373 0 0.080721 
0 0.0815047 0 0.0822884 0 0.0830721 0 0.0838558 0 
0.0846395 0 0.0854232 0 0.0862069 0 0.0869906 0 0.0877743 
0 0.088558 0 0.0893417 0 0.0901254 0 0.0909091 0 
0.0916928 0 0.0924765 0 0.0932602 0 0.0940439 0 0.0948276 
0 0.0956113 0 0.096395 0 0.0971787 0 0.0979624 0 
0.0987461 0 0.0995298 0 0.100313 0 0.101097 0 0.101881 
0 0.102665 0 0.103448 0 0.104232 0 0.105016 0 
0.105799 0 0.106583 0 0.107367 0 0.10815 0 0.108934 
0 0.109718 0 0.110502 0 0.111285 0 0.112069 0 
0.112853 0 0.113636 0 0.11442 0 0.115204 0 0.115987 
0 0.116771 0 0.117555 0 0.118339 0 0.119122 0 
0.119906 0 0.12069 0 0.121473 0 0.122257 0 0.123041 
0 0.123824 0 0.124608 0 0.125392 0 0.126176 0 
0.126959 0 0.127743 0 0.128527 0 0.12931 0 0.130094 
0 0.130878 0 0.131661 0 0.132445 0 0.133229 0 
0.134013 0 0.134796 0 0.13558 0 0.136364 0 0.137147 
0 0.137931 0 0.138715 0 0.139498 0 0.140282 0 
0.141066 0 0.14185 0 0.142633 0 0.143417 0 0.144201 
0 0.144984 0 0.145768 0 0.146552 0 0.147335 0 
0.148119 0 0.148903 0 0.149687 0 0.15047 0 0.151254 
0 0.152038 0 0.152821 0 0.153605 0 0.154389 0 
0.155172 0 0.155956 0 0.15674 0 0.157524 0 0.158307 
0 0.159091 0 0.159875 0 0.160658 0 0.161442 0 
0.162226 0 0.163009 0 0.163793 0 0.164577 0 0.16536 
0 0.166144 0 0.166928 0 0.167712 0 0.168495 0 
0.169279 0 0.170063 0 0.170846 0 0.17163 0 0.172414 
0 0.173197 0 0.173981 0 0.174765 0 0.175549 0 
0.176332 0 0.177116 0 0.1779 0 0.178683 0 0.179467 
0 0.180251 0 0.181034 0 0.181818 0 0.182602 0 
0.183386 0 0.184169 0 0.184953 0 0.185737 0 0.18652 
0 0.187304 0 0.188088 0 0.188871 0 0.189655 0 
0.190439 0 0.191223 0 0.192006 0 0.19279 0 0.193574 
0 0.194357 0 0.195141 0 0.195925 0 0.196708 0 
0.197492 0 0.198276 0 0.19906 0 0.199843 0 0.200627 
0 0.201411 0 0.202194 0 0.202978 0 0.203762 0 
0.204545 0 0.205329 0 0.206113 0 0.206897 0 0.20768 
0 0.208464 0 0.209248 0 0.210031 0 0.210815 0 
0.211599 0 0.212382 0 0.213166 0 0.21395 0 0.214734 
0 0.215517 0 0.216301 0 0.217085 0 0.217868 0 
0.218652 0 0.219436 0 0.220219 0 0.221003 0 0.221787 
0 0.222571 0 0.223354 0 0.224138 0 0.224922 0 
0.225705 0 0.226489 0 0.227273 0 0.228056 0 0.22884 
0 0.229624 0 0.230408 0 0.231191 0 0.231975 0 
0.232759 0 0.233542 0 0.234326 0 0.23511 0 0.235893 
0 0.236677 0 0.237461 0 0.238245 0 0.239028 0 
0.239812 0 0.240596 0 0.241379 0 0.242163 0 0.242947 
0 0.24373 0 0.244514 0 0.245298 0 0.246082 0 
0.246865 0 0.247649 0 0.248433 0 0.249216 0 0.25 
0 0.250784 0 0.251567 0 0.252351 0 0.253135 0 
0.253918 0 0.254702 0 0.255486 0 0.25627 0 0.257053 
0 0.257837 0 0.258621 0 0.259404 0 0.260188 0 
0.260972 0 0.261755 0 0.262539 0 0.263323 0 0.264107 
0 0.26489 0 0.265674 0 0.266458 0 0.267241 0 
0.268025 0 0.268809 0 0.269592 0 0.270376 0 0.27116 
0 0.271944 0 0.272727 0 0.273511 0 0.274295 0 
0.275078 0 0.275862 0 0.276646 0 0.277429 0 0.278213 
0 0.278997 0 0.279781 0 0.280564 0 0.281348 0 
0.282132 0 0.282915 0 0.283699 0 0.284483 0 0.285266 
0 0.28605 0 0.286834 0 0.287618 0 0.288401 0 
0.289185 0 0.289969 0 0.290752 0 0.291536 0 0.29232 
0 0.293103 0 0.293887 0 0.294671 0 0.295455 0 
0.296238 0 0.297022 0 0.297806 0 0.298589 0 0.299373 
0 0.300157 0 0.30094 0 0.301724 0 0.302508 0 
0.303292 0 0.304075 0 0.304859 0 0.305643 0 0.306426 
0 0.30721 0 0.307994 0 0.308777 0 0.309561 0 
0.310345 0 0.311129 0 0.311912 0 0.312696 0 0.31348 
0 0.314263 0 0.315047 0 0.315831 0 0.316614 0 
0.317398 0 0.318182 0 0.318966 0 0.319749 0 0.320533 
0 0.321317 0 0.3221 0 0.322884 0 0.323668 0 
0.324451 0 0.325235 0 0.326019 0 0.326803 0 0.327586 
0 0.32837 0 0.329154 0 0.329937 0 0.330721 0 
0.331505 0 0.332288 0 0.333072 0 0.333856 0 0.334639 
0 0.335423 0 0.336207 0 0.336991 0 0.337774 0 
0.338558 0 0.339342 0 0.340125 0 0.340909 0 0.341693 
0 0.342476 0 0.34326 0 0.344044 0 0.344828 0 
0.345611 0 0.346395 0 0.347179 0 0.347962 0 0.348746 
0 0.34953 0 0.350313 0 0.351097 0 0.351881 0 
0.352665 0 0.353448 0 0.354232 0 0.355016 0 0.355799 
0 0.356583 0 0.357367 0 0.35815 0 0.358934 0 
0.359718 0 0.360502 0 0.361285 0 0.362069 0 0.362853 
0 0.363636 0 0.36442 0 0.365204 0 0.365987 0 
0.366771 0 0.367555 0 0.368339 0 0.369122 0 0.369906 
0 0.37069 0 0.371473 0 0.372257 0 0.373041 0 
0.373824 0 0.374608 0 0.375392 0 0.376176 0 0.376959 
0 0.377743 0 0.378527 0 0.37931 0 0.380094 0 
0.380878 0 0.381661 0 0.382445 0 0.383229 0 0.384013 
0 0.384796 0 0.38558 0 0.386364 0 0.387147 0 
0.387931 0 0.388715 0 0.389498 0 0.390282 0 0.391066 
0 0.39185 0 0.392633 0 0.393417 0 0.394201 0 
0.394984 0 0.395768 0 0.396552 0 0.397335 0 0.398119 
0 0.398903 0 0.399687 0 0.40047 0 0.401254 0 
0.402038 0 0.402821 0 0.403605 0 0.404389 0 0.405172 
0 0.405956 0 0.40674 0 0.407524 0 0.408307 0 
0.409091 0 0.409875 0 0.410658 0 0.411442 0 0.412226 
0 0.413009 0 0.413793 0 0.414577 0 0.415361 0 
0.416144 0 0.416928 0 0.417712 0 0.418495 0 0.419279 
0 0.420063 0 0.420846 0 0.42163 0 0.422414 0 
0.423197 0 0.423981 0 0.424765 0 0.425549 0 0.426332 
0 0.427116 0 0.4279 0 0.428683 0 0.429467 0 
0.430251 0 0.431034 0 0.431818 0 0.432602 0 0.433386 
0 0.434169 0 0.434953 0 0.435737 0 0.43652 0 
0.437304 0 0.438088 0 0.438871 0 0.439655 0 0.440439 
0 0.441223 0 0.442006 0 0.44279 0 0.443574 0 
0.444357 0 0.445141 0 0.445925 0 0.446708 0 0.447492 
0 0.448276 0 0.44906 0 0.449843 0 0.450627 0 
0.451411 0 0.452194 0 0.452978 0 0.453762 0 0.454545 
0 0.455329 0 0.456113 0 0.456897 0 0.45768 0 
0.458464 0 0.459248 0 0.460031 0 0.460815 0 0.461599 
0 0.462382 0 0.463166 0 0.46395 0 0.464734 0 
0.465517 0 0.466301 0 0.467085 0 0.467868 0 0.468652 
0 0.469436 0 0.470219 0 0.471003 0 0.471787 0 
0.472571 0 0.473354 0 0.474138 0 0.474922 0 0.475705 
0 0.476489 0 0.477273 0 0.478056 0 0.47884 0 
0.479624 0 0.480408 0 0.481191 0 0.481975 0 0.482759 
0 0.483542 0 0.484326 0 0.48511 0 0.485893 0 
0.486677 0 0.487461 0 0.488245 0 0.489028 0 0.489812 
0 0.490596 0 0.491379 0 0.492163 0 0.492947 0 
0.49373 0 0.494514 0 0.495298 0 0.496082 0 0.496865 
0 0.497649 0 0.498433 0 0.499216 0 0.5 0 
0.500784 0 0.501567 0 0.502351 0 0.503135 0 0.503918 
0 0.504702 0 0.505486 0 0.50627 0 0.507053 0 
0.507837 0 0.508621 0 0.509404 0 0.510188 0 0.510972 
0 0.511755 0 0.512539 0 0.513323 0 0.514107 0 
0.51489 0 0.515674 0 0.516458 0 0.517241 0 0.518025 
0 0.518809 0 0.519592 0 0.520376 0 0.52116 0 
0.521944 0 0.522727 0 0.523511 0 0.524295 0 0.525078 
0 0.525862 0 0.526646 0 0.527429 0 0.528213 0 
0.528997 0 0.529781 0 0.530564 0 0.531348 0 0.532132 
0 0.532915 0 0.533699 0 0.534483 0 0.535266 0 
0.53605 0 0.536834 0 0.537618 0 0.538401 0 0.539185 
0 0.539969 0 0.540752 0 0.541536 0 0.54232 0 
0.543103 0 0.543887 0 0.544671 0 0.545455 0 0.546238 
0 0.547022 0 0.547806 0 0.548589 0 0.549373 0 
0.550157 0 0.55094 0 0.551724 0 0.552508 0 0.553292 
0 0.554075 0 0.554859 0 0.555643 0 0.556426 0 
0.55721 0 0.557994 0 0.558777 0 0.559561 0 0.560345 
0 0.561128 0 0.561912 0 0.562696 0 0.56348 0 
0.564263 0 0.565047 0 0.565831 0 0.566614 0 0.567398 
0 0.568182 0 0.568965 0 0.569749 0 0.570533 0 
0.571317 0 0.5721 0 0.572884 0 0.573668 0 0.574451 
0 0.575235 0 0.576019 0 0.576802 0 0.577586 0 
0.57837 0 0.579154 0 0.579937 0 0.580721 0 0.581505 
0 0.582288 0 0.583072 0 0.583856 0 0.584639 0 
0.585423 0 0.586207 0 0.586991 0 0.587774 0 0.588558 
0 0.589342 0 0.590125 0 0.590909 0 0.591693 0 
0.592476 0 0.59326 0 0.594044 0 0.594828 0 0.595611 
0 0.596395 0 0.597179 0 0.597962 0 0.598746 0 
0.59953 0 0.600313 0 0.601097 0 0.601881 0 0.602665 
0 0.603448 0 0.604232 0 0.605016 0 0.605799 0 
0.606583 0 0.607367 0 0.60815 0 0.608934 0 0.609718 
0 0.610502 0 0.611285 0 0.612069 0 0.612853 0 
0.613636 0 0.61442 0 0.615204 0 0.615987 0 0.616771 
0 0.617555 0 0.618339 0 0.619122 0 0.619906 0 
0.62069 0 0.621473 0 0.622257 0 0.623041 0 0.623824 
0 0.624608 0 0.625392 0 0.626176 0 0.626959 0 
0.627743 0 0.628527 0 0.62931 0 0.630094 0 0.630878 
0 0.631661 0 0.632445 0 0.633229 0 0.634013 0 
0.634796 0 0.63558 0 0.636364 0 0.637147 0 0.637931 
0 0.638715 0 0.639498 0 0.640282 0 0.641066 0 
0.64185 0 0.642633 0 0.643417 0 0.644201 0 0.644984 
0 0.645768 0 0.646552 0 0.647335 0 0.648119 0 
0.648903 0 0.649687 0 0.65047 0 0.651254 0 0.652038 
0 0.652821 0 0.653605 0 0.654389 0 0.655172 0 
0.655956 0 0.65674 0 0.657524 0 0.658307 0 0.659091 
0 0.659875 0 0.660658 0 0.661442 0 0.662226 0 
0.663009 0 0.663793 0 0.664577 0 0.665361 0 0.666144 
0 0.666928 0 0.667712 0 0.668495 0 0.669279 0 
0.670063 0 0.670846 0 0.67163 0 0.672414 0 0.673198 
0 0.673981 0 0.674765 0 0.675549 0 0.676332 0 
0.677116 0 0.6779 0 0.678683 0 0.679467 0 0.680251 