# vtk DataFile Version 4.2
vtk output
ASCII
DATASET POLYDATA
POINTS 1277 float
0 0 0 -0.00311352 -0.00223278 0.00141738 -0.012205 -0.00872814 0.00555393 
-0.0269008 -0.0191816 0.0122363 -0.0468273 -0.0332887 0.0212911 -0.0716108 -0.0507449 0.0325451 
-0.100878 -0.0712457 0.0458247 -0.134255 -0.0944867 0.0609567 -0.171367 -0.120163 0.0777677 
-0.211843 -0.147971 0.0960844 -0.255307 -0.177606 0.115733 -0.301387 -0.208762 0.136541 
-0.349708 -0.241137 0.158335 -0.399898 -0.274425 0.18094 -0.451581 -0.308321 0.204185 
-0.504386 -0.342522 0.227894 -0.557937 -0.376723 0.251896 -0.611862 -0.410619 0.276017 
-0.665787 -0.443905 0.300083 -0.719338 -0.476279 0.323921 -0.772142 -0.507433 0.347358 
-0.823825 -0.537066 0.37022 -0.874106 -0.564949 0.392377 -0.923022 -0.59112 0.413845 
-0.970676 -0.615672 0.43467 -1.01717 -0.638699 0.454899 -1.06261 -0.660294 0.47458 
-1.1071 -0.680551 0.493759 -1.15075 -0.699564 0.512483 -1.19365 -0.717425 0.530798 
-1.23591 -0.734229 0.548752 -1.27763 -0.750068 0.566392 -1.31892 -0.765036 0.583764 
-1.35988 -0.779228 0.600915 -1.40061 -0.792735 0.617893 -1.44122 -0.805652 0.634743 
-1.48181 -0.818072 0.651513 -1.52249 -0.830088 0.668249 -1.56335 -0.841795 0.684999 
-1.60451 -0.853286 0.701809 -1.64606 -0.864653 0.718726 -1.68811 -0.875988 0.735796 
-1.73069 -0.887328 0.753035 -1.77378 -0.898656 0.770427 -1.81734 -0.909953 0.78796 
-1.86135 -0.921199 0.805617 -1.90577 -0.932376 0.823384 -1.95058 -0.943464 0.841246 
-1.99575 -0.954444 0.859188 -2.04125 -0.965297 0.877195 -2.08704 -0.976004 0.895252 
-2.1331 -0.986546 0.913344 -2.1794 -0.996904 0.931456 -2.22591 -1.00706 0.949574 
-2.27259 -1.01699 0.967682 -2.31943 -1.02668 0.985765 -2.36638 -1.03611 1.00381 
-2.41343 -1.04526 1.0218 -2.46053 -1.05411 1.03972 -2.50767 -1.06264 1.05755 
-2.5548 -1.07084 1.07529 -2.60191 -1.07868 1.09291 -2.64897 -1.08615 1.11041 
-2.69598 -1.09327 1.12779 -2.74294 -1.10006 1.14504 -2.78987 -1.10653 1.16217 
-2.83677 -1.1127 1.1792 -2.88365 -1.11859 1.1961 -2.93051 -1.12421 1.2129 
-2.97735 -1.12959 1.2296 -3.02418 -1.13475 1.24619 -3.07101 -1.13969 1.26267 
-3.11785 -1.14444 1.27907 -3.16469 -1.14901 1.29536 -3.21154 -1.15343 1.31157 
-3.25842 -1.15771 1.32768 -3.30532 -1.16186 1.34371 -3.35225 -1.16591 1.35965 
-3.39922 -1.16988 1.37552 -3.44623 -1.17377 1.3913 -3.49329 -1.17762 1.40701 
-3.5404 -1.18143 1.42265 -3.58757 -1.18523 1.43822 -3.6348 -1.18902 1.45372 
-3.68208 -1.19282 1.46915 -3.72941 -1.19665 1.48451 -3.77679 -1.20051 1.49981 
-3.82421 -1.20441 1.51503 -3.87167 -1.20837 1.53019 -3.91916 -1.2124 1.54527 
-3.96669 -1.21652 1.56029 -4.01425 -1.22072 1.57524 -4.06184 -1.22503 1.59012 
-4.10945 -1.22946 1.60494 -4.15708 -1.23402 1.61968 -4.20472 -1.23873 1.63435 
-4.25238 -1.24358 1.64896 -4.30005 -1.2486 1.6635 -4.34773 -1.2538 1.67797 
-4.3954 -1.25919 1.69237 -4.44308 -1.26479 1.7067 -4.49075 -1.27059 1.72096 
-4.53842 -1.27663 1.73516 -4.58607 -1.2829 1.74929 -4.63371 -1.28942 1.76335 
-4.68132 -1.2962 1.77736 -4.72891 -1.30326 1.7913 -4.77646 -1.31061 1.80518 
-4.82398 -1.31825 1.81902 -4.87145 -1.3262 1.8328 -4.91887 -1.33448 1.84653 
-4.96624 -1.34309 1.86022 -5.01355 -1.35204 1.87386 -5.06079 -1.36136 1.88746 
-5.10796 -1.37104 1.90102 -5.15506 -1.3811 1.91455 -5.20207 -1.39156 1.92804 
-5.249 -1.40243 1.9415 -5.29584 -1.41371 1.95494 -5.34258 -1.42543 1.96834 
-5.38921 -1.43758 1.98173 -5.43574 -1.45019 1.99509 -5.48216 -1.46327 2.00844 
-5.52846 -1.47682 2.02177 -5.57463 -1.49084 2.03509 -5.62067 -1.50533 2.0484 
-5.66657 -1.52029 2.0617 -5.71233 -1.53571 2.07499 -5.75793 -1.5516 2.08828 
-5.80338 -1.56795 2.10157 -5.84867 -1.58475 2.11487 -5.89378 -1.60202 2.12817 
-5.93872 -1.61974 2.14147 -5.98347 -1.63791 2.15479 -6.02804 -1.65653 2.16812 
-6.07241 -1.6756 2.18146 -6.11658 -1.69511 2.19483 -6.16054 -1.71507 2.20821 
-6.20428 -1.73548 2.22161 -6.24781 -1.75632 2.23504 -6.2911 -1.7776 2.2485 
-6.33416 -1.79931 2.26198 -6.37699 -1.82146 2.2755 -6.41956 -1.84404 2.28906 
-6.46189 -1.86704 2.30265 -6.50398 -1.89045 2.31627 -6.54583 -1.91426 2.32994 
-6.58744 -1.93846 2.34363 -6.62882 -1.96304 2.35737 -6.66997 -1.98799 2.37114 
-6.71089 -2.0133 2.38495 -6.75158 -2.03896 2.3988 -6.79204 -2.06495 2.41268 
-6.83229 -2.09127 2.4266 -6.87231 -2.11791 2.44057 -6.91212 -2.14486 2.45457 
-6.95172 -2.1721 2.46861 -6.9911 -2.19963 2.48268 -7.03028 -2.22743 2.4968 
-7.06924 -2.2555 2.51096 -7.10801 -2.28382 2.52516 -7.14657 -2.31239 2.5394 
-7.18493 -2.34119 2.55368 -7.2231 -2.37022 2.568 -7.26108 -2.39946 2.58236 
-7.29887 -2.42891 2.59675 -7.33648 -2.45856 2.61118 -7.37393 -2.48841 2.62563 
-7.41121 -2.51844 2.64011 -7.44834 -2.54865 2.65461 -7.48532 -2.57903 2.66914 
-7.52216 -2.60957 2.68367 -7.55886 -2.64027 2.69822 -7.59544 -2.67111 2.71278 
-7.6319 -2.7021 2.72734 -7.66824 -2.73322 2.7419 -7.70448 -2.76447 2.75646 
-7.74061 -2.79584 2.77102 -7.77666 -2.82731 2.78557 -7.81262 -2.8589 2.8001 
-7.8485 -2.89057 2.81463 -7.88432 -2.92234 2.82913 -7.92006 -2.95419 2.84361 
-7.95575 -2.98611 2.85806 -7.99139 -3.01809 2.87249 -8.02699 -3.05015 2.88688 
-8.06255 -3.08226 2.90121 -8.09808 -3.11443 2.9155 -8.13358 -3.14666 2.92972 
-8.16907 -3.17893 2.94387 -8.20455 -3.21125 2.95793 -8.24002 -3.2436 2.97191 
-8.27549 -3.276 2.9858 -8.31098 -3.30843 2.99957 -8.34647 -3.34089 3.01324 
-8.38199 -3.37338 3.02678 -8.41754 -3.40589 3.0402 -8.45313 -3.43842 3.05348 
-8.48875 -3.47097 3.06661 -8.52442 -3.50353 3.07958 -8.56015 -3.53609 3.0924 
-8.59593 -3.56866 3.10504 -8.63179 -3.60123 3.11751 -8.66772 -3.63379 3.12979 
-8.70372 -3.66635 3.14187 -8.73982 -3.6989 3.15374 -8.776 -3.73143 3.16538 
-8.81227 -3.76395 3.17677 -8.84865 -3.79645 3.18791 -8.88512 -3.82893 3.19876 
-8.92171 -3.86139 3.20932 -8.9584 -3.89381 3.21957 -8.99521 -3.92621 3.22949 
-9.03214 -3.95857 3.23907 -9.0692 -3.9909 3.24829 -9.10639 -4.02319 3.25714 
-9.14371 -4.05544 3.26559 -9.18117 -4.08764 3.27363 -9.21877 -4.1198 3.28125 
-9.25652 -4.1519 3.28843 -9.29442 -4.18395 3.29515 -9.33248 -4.21595 3.3014 
-9.3707 -4.24788 3.30715 -9.40909 -4.27976 3.31241 -9.44764 -4.31157 3.31713 
-9.48636 -4.34331 3.32131 -9.52522 -4.37497 3.32493 -9.56422 -4.40654 3.32795 
-9.60335 -4.43803 3.33035 -9.64259 -4.46941 3.33212 -9.68193 -4.50069 3.33322 
-9.72136 -4.53186 3.33363 -9.76087 -4.56291 3.33333 -9.80044 -4.59384 3.3323 
-9.84007 -4.62463 3.33051 -9.87974 -4.65528 3.32794 -9.91945 -4.68578 3.32456 
-9.95917 -4.71614 3.32035 -9.99889 -4.74633 3.31529 -10.0386 -4.77635 3.30936 
-10.0783 -4.8062 3.30252 -10.118 -4.83588 3.29476 -10.1576 -4.86536 3.28605 
-10.1972 -4.89465 3.27638 -10.2368 -4.92374 3.2657 -10.2762 -4.95262 3.25403 
-10.3155 -4.98129 3.24137 -10.3547 -5.00975 3.22772 -10.3938 -5.03799 3.2131 
-10.4326 -5.066 3.19751 -10.4712 -5.09379 3.18096 -10.5096 -5.12135 3.16345 
-10.5478 -5.14867 3.145 -10.5856 -5.17575 3.12561 -10.6231 -5.20259 3.10528 
-10.6603 -5.22917 3.08404 -10.6972 -5.25551 3.06187 -10.7336 -5.28159 3.0388 
-10.7696 -5.30741 3.01483 -10.8052 -5.33296 2.98996 -10.8403 -5.35824 2.96421 
-10.8749 -5.38326 2.93758 -10.909 -5.40799 2.91007 -10.9426 -5.43244 2.88171 
-10.9756 -5.4566 2.85249 -11.008 -5.48048 2.82242 -11.0398 -5.50409 2.79154 
-11.071 -5.52742 2.75987 -11.1016 -5.55049 2.72743 -11.1316 -5.5733 2.69424 
-11.161 -5.59587 2.66034 -11.1898 -5.6182 2.62574 -11.218 -5.6403 2.59048 
-11.2456 -5.66217 2.55456 -11.2725 -5.68383 2.51803 -11.2988 -5.70528 2.4809 
-11.3244 -5.72653 2.4432 -11.3495 -5.74758 2.40495 -11.3739 -5.76845 2.36618 
-11.3976 -5.78914 2.32691 -11.4207 -5.80966 2.28716 -11.4431 -5.83002 2.24697 
-11.4649 -5.85023 2.20635 -11.486 -5.87029 2.16533 -11.5064 -5.89021 2.12394 
-11.5262 -5.90999 2.08219 -11.5453 -5.92965 2.0401 -11.5638 -5.94919 1.99769 
-11.5816 -5.96861 1.95496 -11.5987 -5.98791 1.91192 -11.6151 -6.00711 1.8686 
-11.631 -6.0262 1.82499 -11.6461 -6.04519 1.78112 -11.6607 -6.06409 1.737 
-11.6746 -6.0829 1.69264 -11.6878 -6.10163 1.64804 -11.7004 -6.12027 1.60324 
-11.7124 -6.13884 1.55823 -11.7238 -6.15734 1.51302 -11.7346 -6.17577 1.46764 
-11.7447 -6.19414 1.4221 -11.7542 -6.21245 1.3764 -11.7631 -6.23072 1.33056 
-11.7714 -6.24893 1.28459 -11.7791 -6.2671 1.23851 -11.7862 -6.28523 1.19232 
-11.7927 -6.30333 1.14604 -11.7986 -6.32139 1.09967 -11.8039 -6.33943 1.05322 
-11.8086 -6.35743 1.0067 -11.8128 -6.3754 0.960111 -11.8163 -6.39334 0.913464 
-11.8193 -6.41127 0.866767 -11.8218 -6.42916 0.820028 -11.8237 -6.44704 0.773253 
-11.825 -6.4649 0.72645 -11.8258 -6.48274 0.679626 -11.826 -6.50056 0.63279 
-11.8258 -6.51837 0.585948 -11.8249 -6.53617 0.539108 -11.8236 -6.55395 0.492277 
-11.8217 -6.57173 0.445464 -11.8193 -6.58951 0.398675 -11.8164 -6.60727 0.351918 
-11.8129 -6.62504 0.3052 -11.809 -6.6428 0.25853 -11.8046 -6.66057 0.211911 
-11.7996 -6.67833 0.165347 -11.7942 -6.6961 0.118843 -11.7883 -6.71387 0.0724008 
-11.782 -6.73164 0.026025 -11.7751 -6.74942 -0.020281 -11.7678 -6.7672 -0.0665138 
-11.76 -6.78499 -0.11267 -11.7518 -6.80279 -0.158745 -11.7432 -6.8206 -0.204737 
-11.7341 -6.83842 -0.250641 -11.7245 -6.85624 -0.296454 -11.7146 -6.87408 -0.342172 
-11.7042 -6.89193 -0.387792 -11.6934 -6.9098 -0.43331 -11.6822 -6.92767 -0.478723 
-11.6705 -6.94557 -0.524027 -11.6585 -6.96348 -0.569218 -11.6461 -6.9814 -0.614293 
-11.6333 -6.99935 -0.659249 -11.6201 -7.01731 -0.704082 -11.6066 -7.03529 -0.748792 
-11.5927 -7.0533 -0.793376 -11.5784 -7.07133 -0.837834 -11.5638 -7.08938 -0.882164 
-11.5488 -7.10746 -0.926365 -11.5334 -7.12557 -0.970436 -11.5178 -7.1437 -1.01437 
-11.5017 -7.16187 -1.05818 -11.4854 -7.18006 -1.10185 -11.4688 -7.19829 -1.14539 
-11.4518 -7.21656 -1.18878 -11.4345 -7.23486 -1.23204 -11.4169 -7.2532 -1.27516 
-11.399 -7.27157 -1.31814 -11.3809 -7.28999 -1.36097 -11.3624 -7.30844 -1.40366 
-11.3437 -7.32694 -1.44621 -11.3247 -7.34549 -1.48861 -11.3054 -7.36407 -1.53086 
-11.2858 -7.38271 -1.57296 -11.266 -7.40139 -1.61491 -11.246 -7.42013 -1.65672 
-11.2257 -7.43892 -1.69837 -11.2052 -7.45776 -1.73989 -11.1844 -7.47666 -1.78125 
[...]
CELL_DATA 1
FIELD FieldData 2
Length 1 1 double
63.812612853 
Tortuosity 1 1 double
1.3842877523 
POINT_DATA 1277
SCALARS MaximumInscribedSphereRadius float
LOOKUP_TABLE default
1.24 1.23099 1.22197 1.21296 1.20395 1.19494 1.18592 1.17691 1.1679 
1.15889 1.14987 1.14086 1.13185 1.12283 1.11382 1.10481 1.0958 1.08678 
1.07777 1.06876 1.05975 1.05165 1.05957 1.0675 1.07542 1.08335 1.09127 
1.0992 1.10712 1.11505 1.12297 1.1309 1.13882 1.14675 1.15467 1.1626 
1.17052 1.17845 1.18637 1.1943 1.20222 1.22 1.24736 1.27473 1.30209 
1.32946 1.35683 1.38419 1.41156 1.43892 1.46629 1.49366 1.52102 1.54839 
1.57575 1.60312 1.63049 1.65785 1.68522 1.71258 1.73995 1.76385 1.76862 
1.7734 1.77817 1.78294 1.78772 1.79249 1.79726 1.80204 1.80681 1.81158 
1.81635 1.82113 1.8259 1.83067 1.83545 1.84022 1.84499 1.84977 1.85454 
1.85931 1.86 1.86 1.86 1.86 1.86 1.86 1.86 1.86 
1.86 1.86 1.86 1.86 1.86 1.86 1.86 1.86 1.86 
1.86 1.86 1.86 1.8573 1.85257 1.84784 1.8431 1.83837 1.83364 
1.8289 1.82417 1.81944 1.8147 1.80997 1.80524 1.8005 1.79577 1.79104 
1.7863 1.78157 1.77683 1.7721 1.76737 1.75686 1.73213 1.7074 1.68266 
1.65793 1.63319 1.60846 1.58372 1.55899 1.53426 1.50952 1.48479 1.46005 
1.43532 1.41058 1.38585 1.36112 1.33638 1.31165 1.28691 1.26246 1.25523 
1.248 1.24077 1.23355 1.22632 1.21909 1.21186 1.20464 1.19741 1.19018 
1.18295 1.17573 1.1685 1.16127 1.15404 1.14682 1.13959 1.13236 1.12513 
1.11791 1.11487 1.11333 1.11179 1.11024 1.1087 1.10716 1.10562 1.10408 
1.10254 1.101 1.09946 1.09792 1.09638 1.09484 1.0933 1.09176 1.09022 
1.08868 1.08714 1.0856 1.08223 1.07661 1.07099 1.06537 1.05975 1.05413 
1.04851 1.04289 1.03727 1.03165 1.02603 1.02041 1.01479 1.00917 1.00355 
0.997932 0.992312 0.986692 0.981073 0.975453 0.969272 0.960137 0.951002 0.941868 
0.932733 0.923598 0.914463 0.905329 0.896194 0.887059 0.877925 0.86879 0.859655 
0.85052 0.841386 0.832251 0.823116 0.813982 0.804847 0.795712 0.786577 0.782415 
0.778944 0.775472 0.772 0.768528 0.765056 0.761585 0.758113 0.754641 0.751169 
0.747697 0.744226 0.740754 0.737282 0.73381 0.730339 0.726867 0.723395 0.719923 
0.716451 0.721456 0.731567 0.741678 0.75179 0.761901 0.772013 0.782124 0.792235 
0.802347 0.812458 0.82257 0.832681 0.842793 0.852904 0.863015 0.873127 0.883238 
0.89335 0.903461 0.913572 0.920096 0.921536 0.922976 0.924416 0.925856 0.927296 
0.928736 0.930176 0.931616 0.933057 0.934497 0.935937 0.937377 0.938817 0.940257 
0.941697 0.943137 0.944577 0.946017 0.947457 0.94998 0.957571 0.965162 0.972753 
0.980345 0.987936 0.995527 1.00312 1.01071 1.0183 1.02589 1.03348 1.04107 
1.04867 1.05626 1.06385 1.07144 1.07903 1.08662 1.09421 1.1018 1.10495 
1.10769 1.11042 1.11316 1.1159 1.11864 1.12137 1.12411 1.12685 1.12959 
1.13232 1.13506 1.1378 1.14054 1.14327 1.14601 1.14875 1.15149 1.15422 
1.15696 1.15214 1.14317 1.13421 1.12525 1.11628 1.10732 1.09836 1.08939 
1.08043 1.07147 1.0625 1.05354 1.04458 1.03561 1.02665 1.01769 1.00872 
0.99976 0.990796 0.981833 0.975346 0.973068 0.970791 0.968514 0.966236 0.963959 
0.961682 0.959404 0.957127 0.95485 0.952572 0.950295 0.948018 0.94574 0.943463 
0.941186 0.938908 0.936631 0.934353 0.932076 0.93071 0.938752 0.946793 0.954834 
0.962875 0.970916 0.978957 0.986998 0.995039 1.00308 1.01112 1.01916 1.0272 
1.03524 1.04329 1.05133 1.05937 1.06741 1.07545 1.08349 1.09153 1.10827 
1.12715 1.14603 1.16491 1.18379 1.20267 1.22155 1.24043 1.25931 1.27818 
1.29706 1.31594 1.33482 1.3537 1.37258 1.39146 1.41034 1.42922 1.4481 
1.46698 1.48268 1.49544 1.50821 1.52097 1.53374 1.54651 1.55927 1.57204 
1.5848 1.59757 1.61033 1.6231 1.63587 1.64863 1.6614 1.67416 1.68693 
1.69969 1.71246 1.72523 1.73322 1.72574 1.71827 1.71079 1.70332 1.69584 
1.68837 1.68089 1.67341 1.66594 1.65846 1.65099 1.64351 1.63604 1.62856 
1.62109 1.61361 1.60614 1.59866 1.59119 1.58371 1.57579 1.56782 1.55984 
1.55186 1.54389 1.53591 1.52793 1.51996 1.51198 1.504 1.49603 1.48805 
1.48007 1.4721 1.46412 1.45614 1.44817 1.44019 1.43221 1.42646 1.42464 
1.42283 1.42101 1.41919 1.41737 1.41555 1.41373 1.41191 1.41009 1.40828 
1.40646 1.40464 1.40282 1.401 1.39918 1.39736 1.39554 1.39373 1.39191 
1.38991 1.38738 1.38485 1.38232 1.37979 1.37726 1.37473 1.3722 1.36966 
1.36713 1.3646 1.36207 1.35954 1.35701 1.35448 1.35195 1.34942 1.34689 
1.34436 1.34183 1.33973 1.35311 1.3665 1.37988 1.39326 1.40665 1.42003 
1.43341 1.4468 1.46018 1.47356 1.48695 1.50033 1.51371 1.5271 1.54048 
1.55386 1.56725 1.58063 1.59401 1.6074 1.62464 1.64316 1.66168 1.6802 
1.69873 1.71725 1.73577 1.75429 1.77281 1.79133 1.80985 1.82837 1.84689 
1.86541 1.88393 1.90245 1.92097 1.93949 1.95801 1.97653 1.98162 1.97173 
1.96183 1.95193 1.94204 1.93214 1.92224 1.91235 1.90245 1.89255 1.88265 
1.87276 1.86286 1.85296 1.84307 1.83317 1.82327 1.81338 1.80348 1.79358 
1.78443 1.77859 1.77275 1.7669 1.76106 1.75521 1.74937 1.74353 1.73768 
1.73184 1.72599 1.72015 1.7143 1.70846 1.70262 1.69677 1.69093 1.68508 
1.67924 1.6734 1.66755 1.67212 1.67792 1.68371 1.6895 1.69529 1.70108 
1.70687 1.71266 1.71845 1.72424 1.73004 1.73583 1.74162 1.74741 1.7532 
1.75899 1.76478 1.77057 1.77636 1.78215 1.77902 1.77027 1.76153 1.75278 
1.74403 1.73529 1.72654 1.7178 1.70905 1.7003 1.69156 1.68281 1.67406 
1.66532 1.65657 1.64783 1.63908 1.63033 1.62159 1.61284 1.6088 1.61366 
1.61852 1.62338 1.62824 1.6331 1.63796 1.64283 1.64769 1.65255 1.65741 
1.66227 1.66713 1.67199 1.67685 1.68171 1.68657 1.69143 1.69629 1.70115 
1.70619 1.71313 1.72008 1.72703 1.73398 1.74093 1.74788 1.75483 1.76178 
1.76873 1.77568 1.78263 1.78958 1.79652 1.80347 1.81042 1.81737 1.82432 
1.83127 1.83822 1.84517 1.84696 1.84763 1.8483 1.84897 1.84965 1.85032 
1.85099 1.85166 1.85233 1.853 1.85367 1.85434 1.85502 1.85569 1.85636 
1.85703 1.8577 1.85837 1.85904 1.85971 1.85955 1.85875 1.85796 1.85717 
1.85637 1.85558 1.85479 1.85399 1.8532 1.85241 1.85161 1.85082 1.85002 
1.84923 1.84844 1.84764 1.84685 1.84606 1.84526 1.84447 1.83854 1.82333 
1.80812 1.79291 1.7777 1.76249 1.74727 1.73206 1.71685 1.70164 1.68643 
1.67122 1.65601 1.6408 1.62559 1.61037 1.59516 1.57995 1.56474 1.54953 
1.53443 1.51971 1.50498 1.49025 1.47552 1.46079 1.44607 1.43134 1.41661 
1.40188 1.38716 1.37243 1.3577 1.34297 1.32824 1.31352 1.29879 1.28406 
1.26933 1.2546 1.24 1.24 1.24 1.24 1.24 1.24 1.24 
1.24 1.24 1.24 1.24 1.24 1.24 1.24 1.24 1.24 
1.24 1.24 1.24 1.24 1.24 1.24 1.24 1.24 1.24 
1.24 1.24 1.24 1.24 1.24 1.24 1.24 1.24 1.24 
1.24 1.24 1.24 1.24 1.24 1.24 1.24 1.24 1.24 
1.24 1.24 1.24 1.24 1.24 1.24 1.24 1.24 1.24 
1.24 1.24 1.24 1.24 1.24 1.24 1.24 1.24 1.24 
1.23973 1.23811 1.23649 1.23487 1.23325 1.23163 1.23002 1.2284 1.22678 
1.22516 1.22354 1.22192 1.2203 1.21868 1.21706 1.21544 1.21382 1.2122 
1.21059 1.20897 1.20735 1.19961 1.19125 1.18289 1.17454 1.16618 1.15783 
1.14947 1.14112 1.13276 1.12441 1.11605 1.1077 1.09934 1.09099 1.08263 
1.07427 1.06592 1.05756 1.04921 1.04085 1.03738 1.03661 1.03584 1.03507 
1.0343 1.03353 1.03276 1.03199 1.03122 1.03045 1.02967 1.0289 1.02813 
1.02736 1.02659 1.02582 1.02505 1.02428 1.02351 1.02274 1.02586 1.03564 
1.04541 1.05519 1.06496 1.07473 1.08451 1.09428 1.10406 1.11383 1.1236 
1.13338 1.14315 1.15293 1.1627 1.17247 1.18225 1.19202 1.2018 1.21157 
1.22138 1.23152 1.24166 1.25179 1.26193 1.27207 1.28221 1.29235 1.30249 
1.31263 1.32277 1.3329 1.34304 1.35318 1.36332 1.37346 1.3836 1.39374 
1.40388 1.41401 1.42415 1.43096 1.43709 1.44323 1.44936 1.45549 1.46162 
1.46775 1.47388 1.48001 1.48614 1.49228 1.49841 1.50454 1.51067 1.5168 
1.52293 1.52906 1.53519 1.54133 1.54746 1.55104 1.55282 1.5546 1.55638 
1.55815 1.55993 1.56171 1.56349 1.56527 1.56704 1.56882 1.5706 1.57238 
1.57416 1.57593 1.57771 1.57949 1.58127 1.58305 1.58482 1.58885 1.59706 
1.60526 1.61347 1.62167 1.62988 1.63808 1.64628 1.65449 1.66269 1.6709 
1.6791 1.68731 1.69551 1.70372 1.71192 1.72012 1.72833 1.73653 1.74474 
1.75131 1.74019 1.72907 1.71794 1.70682 1.6957 1.68458 1.67345 1.66233 
1.65121 1.64009 1.62896 1.61784 1.60672 1.5956 1.58447 1.57335 1.56223 
1.55111 1.53998 1.52886 1.51815 1.50753 1.49692 1.4863 1.47569 1.46507 
1.45446 1.44385 1.43323 1.42262 1.412 1.40139 1.39077 1.38016 1.36954 
1.35893 1.34832 1.3377 1.32709 1.31647 1.31594 1.32509 1.33424 1.34339 
1.35255 1.3617 1.37085 1.38001 1.38916 1.39831 1.40746 1.41662 1.42577 
1.43492 1.44408 1.45323 1.46238 1.47153 1.48069 1.48984 1.49755 1.50016 
1.50277 1.50539 1.508 1.51062 1.51323 1.51584 1.51846 1.52107 1.52368 
1.5263 1.52891 1.53153 1.53414 1.53675 1.53937 1.54198 1.54459 1.54721 
1.54982 1.55 1.55 1.55 1.55 1.55 1.55 1.55 1.55 
1.55 1.55 1.55 1.55 1.55 1.55 1.55 1.55 1.55 
1.55 1.55 1.55 1.55171 1.55436 1.55701 1.55965 1.5623 1.56495 
1.5676 1.57025 1.5729 1.57555 1.5782 1.58085 1.5835 1.58615 1.5888 
1.59145 1.5941 1.59675 1.5994 1.60205 1.6095 1.62546 1.64141 1.65737 
1.67333 1.68928 1.70524 1.72119 1.73715 1.7531 1.76906 1.78501 1.80097 
1.81692 1.83288 1.84883 1.86479 1.88075 1.8967 1.91266 1.92768 1.93177 
1.93585 1.93994 1.94402 1.94811 1.9522 1.95628 1.96037 1.96446 1.96854 
1.97263 1.97671 1.9808 1.98489 1.98897 1.99306 1.99714 2.00123 2.00532 
2.0094 1.99534 1.97645 1.95756 1.93867 1.91978 1.90089 1.88201 1.86312 
1.84423 1.82534 1.80645 1.78756 1.76868 1.74979 1.7309 1.71201 1.69312 
1.67424 1.65535 1.63646 1.62521 1.62158 1.61794 1.61431 1.61068 1.60704 
1.60341 1.59977 1.59614 1.59251 1.58887 1.58524 1.58161 1.57797 1.57434 
1.57071 1.56707 1.56344 1.5598 1.55617 1.55499 1.56248 1.56997 1.57745 
1.58494 1.59242 1.59991 1.6074 1.61488 1.62237 1.62985 1.63734 1.64483 
1.65231 1.6598 1.66728 1.67477 1.68226 1.68974 1.69723 1.70471 1.71619 
1.72776 1.73934 1.75091 1.76249 1.77406 1.78564 1.79721 1.80879 1.82036 
1.83194 1.84351 1.85509 1.86666 1.87824 1.88982 1.90139 1.91297 1.92454 
1.93612 1.93764 1.93649 1.93534 1.93419 1.93304 1.93189 1.93074 1.92959 
1.92844 1.92729 1.92614 1.92499 1.92384 1.92269 1.92154 1.92039 1.91924 
1.91809 1.91694 1.91579 1.92109 1.93315 1.94521 1.95726 1.96932 1.98138 
1.99343 2.00549 2.01755 2.02961 2.04166 2.05372 2.06578 2.07784 2.08989 
2.10195 2.11401 2.12606 2.13812 2.15018 2.16571 2.18143 2.19714 2.21285 
2.22857 2.24428 2.26 2.27571 2.29143 2.30714 2.32286 2.33857 2.35428 
2.37 2.38571 2.40143 2.41714 2.43286 2.44857 2.46429 2.48 
TEXTURE_COORDINATES TCoords 2 float
0 0 0.000783699 0 0.0015674 0 0.0023511 0 0.0031348 
0 0.0039185 0 0.00470219 0 0.00548589 0 0.00626959 0 
0.00705329 0 0.00783699 0 0.00862069 0 0.00940439 0 0.0101881 
0 0.0109718 0 0.0117555 0 0.0125392 0 0.0133229 0 
0.0141066 0 0.0148903 0 0.015674 0 0.0164577 0 0.0172414 
0 0.0180251 0 0.0188088 0 0.0195925 0 0.0203762 0 
0.0211599 0 0.0219436 0 0.0227273 0 0.023511 0 0.0242947 
0 0.0250784 0 0.0258621 0 0.0266458 0 0.0274295 0 
0.0282132 0 0.0289969 0 0.0297806 0 0.0305643 0 0.031348 
0 0.0321317 0 0.0329154 0 0.0336991 0 0.0344828 0 
0.0352665 0 0.0360502 0 0.0368339 0 0.0376176 0 0.0384013 
0 0.039185 0 0.0399687 0 0.0407524 0 0.0415361 0 
0.0423197 0 0.0431034 0 0.0438871 0 0.0446708 0 0.0454545 
0 0.0462382 0 0.0470219 0 0.0478056 0 0.0485893 0 
0.049373 0 0.0501567 0 0.0509404 0 0.0517241 0 0.0525078 
0 0.0532915 0 0.0540752 0 0.0548589 0 0.0556426 0 
0.0564263 0 0.05721 0 0.0579937 0 0.0587774 0 0.0595611 
0 0.0603448 0 0.0611285 0 0.0619122 0 0.0626959 0 
0.0634796 0 0.0642633 0 0.065047 0 0.0658307 0 0.0666144 
0 0.0673981 0 0.0681818 0 0.0689655 0 0.0697492 0 
0.0705329 0 0.0713166 0 0.0721003 0 0.072884 0 0.0736677 
0 0.0744514 0 0.0752351 0 0.0760188 0 0.0768025 0 
0.0775862 0 0.0783699 0 0.0791536 0 0.0799373 0 0.080721 
0 0.0815047 0 0.0822884 0 0.0830721 0 0.0838558 0 
0.0846395 0 0.0854232 0 0.0862069 0 0.0869906 0 0.0877743 
0 0.088558 0 0.0893417 0 0.0901254 0 0.0909091 0 
0.0916928 0 0.0924765 0 0.0932602 0 0.0940439 0 0.0948276 
0 0.0956113 0 0.096395 0 0.0971787 0 0.0979624 0 
0.0987461 0 0.0995298 0 0.100313 0 0.101097 0 0.101881 
0 0.102665 0 0.103448 0 0.104232 0 0.105016 0 
0.105799 0 0.106583 0 0.107367 0 0.10815 0 0.108934 
0 0.109718 0 0.110502 0 0.111285 0 0.112069 0 
0.112853 0 0.113636 0 0.11442 0 0.115204 0 0.115987 
0 0.116771 0 0.117555 0 0.118339 0 0.119122 0 
0.119906 0 0.12069 0 0.121473 0 0.122257 0 0.123041 
0 0.123824 0 0.124608 0 0.125392 0 0.126176 0 
0.126959 0 0.127743 0 0.128527 0 0.12931 0 0.130094 
0 0.130878 0 0.131661 0 0.132445 0 0.133229 0 
0.134013 0 0.134796 0 0.13558 0 0.136364 0 0.137147 
0 0.137931 0 0.138715 0 0.139498 0 0.140282 0 
0.141066 0 0.14185 0 0.142633 0 0.143417 0 0.144201 
0 0.144984 0 0.145768 0 0.146552 0 0.147335 0 
0.148119 0 0.148903 0 0.149687 0 0.15047 0 0.151254 
0 0.152038 0 0.152821 0 0.153605 0 0.154389 0 
0.155172 0 0.155956 0 0.15674 0 0.157524 0 0.158307 
0 0.159091 0 0.159875 0 0.160658 0 0.161442 0 
0.162226 0 0.163009 0 0.163793 0 0.164577 0 0.16536 
0 0.166144 0 0.166928 0 0.167712 0 0.168495 0 
0.169279 0 0.170063 0 0.170846 0 0.17163 0 0.172414 
0 0.173197 0 0.173981 0 0.174765 0 0.175549 0 
0.176332 0 0.177116 0 0.1779 0 0.178683 0 0.179467 
0 0.180251 0 0.181034 0 0.181818 0 0.182602 0 
0.183386 0 0.184169 0 0.184953 0 0.185737 0 0.18652 
0 0.187304 0 0.188088 0 0.188871 0 0.189655 0 
0.190439 0 0.191223 0 0.192006 0 0.19279 0 0.193574 
0 0.194357 0 0.195141 0 0.195925 0 0.196708 0 
0.197492 0 0.198276 0 0.19906 0 0.199843 0 0.200627 
0 0.201411 0 0.202194 0 0.202978 0 0.203762 0 
0.204545 0 0.205329 0 0.206113 0 0.206897 0 0.20768 
0 0.208464 0 0.209248 0 0.210031 0 0.210815 0 
0.211599 0 0.212382 0 0.213166 0 0.21395 0 0.214734 
0 0.215517 0 0.216301 0 0.217085 0 0.217868 0 
0.218652 0 0.219436 0 0.220219 0 0.221003 0 0.221787 
0 0.222571 0 0.223354 0 0.224138 0 0.224922 0 
0.225705 0 0.226489 0 0.227273 0 0.228056 0 0.22884 
0 0.229624 0 0.230408 0 0.231191 0 0.231975 0 
0.232759 0 0.233542 0 0.234326 0 0.23511 0 0.235893 
0 0.236677 0 0.237461 0 0.238245 0 0.239028 0 
0.239812 0 0.240596 0 0.241379 0 0.242163 0 0.242947 
0 0.24373 0 0.244514 0 0.245298 0 0.246082 0 
0.246865 0 0.247649 0 0.248433 0 0.249216 0 0.25 
0 0.250784 0 0.251567 0 0.252351 0 0.253135 0 
0.253918 0 0.254702 0 0.255486 0 0.25627 0 0.257053 
0 0.257837 0 0.258621 0 0.259404 0 0.260188 0 
0.260972 0 0.261755 0 0.262539 0 0.263323 0 0.264107 
0 0.26489 0 0.265674 0 0.266458 0 0.267241 0 
0.268025 0 0.268809 0 0.269592 0 0.270376 0 0.27116 
0 0.271944 0 0.272727 0 0.273511 0 0.274295 0 
0.275078 0 0.275862 0 0.276646 0 0.277429 0 0.278213 
0 0.278997 0 0.279781 0 0.280564 0 0.281348 0 
0.282132 0 0.282915 0 0.283699 0 0.284483 0 0.285266 
0 0.28605 0 0.286834 0 0.287618 0 0.288401 0 
0.289185 0 0.289969 0 0.290752 0 0.291536 0 0.29232 
0 0.293103 0 0.293887 0 0.294671 0 0.295455 0 
0.296238 0 0.297022 0 0.297806 0 0.298589 0 0.299373 
0 0.300157 0 0.30094 0 0.301724 0 0.302508 0 
0.303292 0 0.304075 0 0.304859 0 0.305643 0 0.306426 
0 0.30721 0 0.307994 0 0.308777 0 0.309561 0 
0.310345 0 0.311129 0 0.311912 0 0.312696 0 0.31348 
0 0.314263 0 0.315047 0 0.315831 0 0.316614 0 
0.317398 0 0.318182 0 0.318966 0 0.319749 0 0.320533 
0 0.321317 0 0.3221 0 0.322884 0 0.323668 0 
0.324451 0 0.325235 0 0.326019 0 0.326803 0 0.327586 
0 0.32837 0 0.329154 0 0.329937 0 0.330721 0 
0.331505 0 0.332288 0 0.333072 0 0.333856 0 0.334639 
0 0.335423 0 0.336207 0 0.336991 0 0.337774 0 
0.338558 0 0.339342 0 0.340125 0 0.340909 0 0.341693 
0 0.342476 0 0.34326 0 0.344044 0 0.344828 0 
0.345611 0 0.346395 0 0.347179 0 0.347962 0 0.348746 
0 0.34953 0 0.350313 0 0.351097 0 0.351881 0 
0.352665 0 0.353448 0 0.354232 0 0.355016 0 0.355799 
0 0.356583 0 0.357367 0 0.35815 0 0.358934 0 
0.359718 0 0.360502 0 0.361285 0 0.362069 0 0.362853 
0 0.363636 0 0.36442 0 0.365204 0 0.365987 0 
0.366771 0 0.367555 0 0.368339 0 0.369122 0 0.369906 
0 0.37069 0 0.371473 0 0.372257 0 0.373041 0 
0.373824 0 0.374608 0 0.375392 0 0.376176 0 0.376959 
0 0.377743 0 0.378527 0 0.37931 0 0.380094 0 
0.380878 0 0.381661 0 0.382445 0 0.383229 0 0.384013 
0 0.384796 0 0.38558 0 0.386364 0 0.387147 0 
0.387931 0 0.388715 0 0.389498 0 0.390282 0 0.391066 
0 0.39185 0 0.392633 0 0.393417 0 0.394201 0 
0.394984 0 0.395768 0 0.396552 0 0.397335 0 0.398119 
0 0.398903 0 0.399687 0 0.40047 0 0.401254 0 
0.402038 0 0.402821 0 0.403605 0 0.404389 0 0.405172 
0 0.405956 0 0.40674 0 0.407524 0 0.408307 0 
0.409091 0 0.409875 0 0.410658 0 0.411442 0 0.412226 
0 0.413009 0 0.413793 0 0.414577 0 0.415361 0 
0.416144 0 0.416928 0 0.417712 0 0.418495 0 0.419279 
0 0.420063 0 0.420846 0 0.42163 0 0.422414 0 
0.423197 0 0.423981 0 0.424765 0 0.425549 0 0.426332 
0 0.427116 0 0.4279 0 0.428683 0 0.429467 0 
0.430251 0 0.431034 0 0.431818 0 0.432602 0 0.433386 
0 0.434169 0 0.434953 0 0.435737 0 0.43652 0 
0.437304 0 0.438088 0 0.438871 0 0.439655 0 0.440439 
0 0.441223 0 0.442006 0 0.44279 0 0.443574 0 
0.444357 0 0.445141 0 0.445925 0 0.446708 0 0.447492 
0 0.448276 0 0.44906 0 0.449843 0 0.450627 0 
0.451411 0 0.452194 0 0.452978 0 0.453762 0 0.454545 
0 0.455329 0 0.456113 0 0.456897 0 0.45768 0 
0.458464 0 0.459248 0 0.460031 0 0.460815 0 0.461599 
0 0.462382 0 0.463166 0 0.46395 0 0.464734 0 
0.465517 0 0.466301 0 0.467085 0 0.467868 0 0.468652 
0 0.469436 0 0.470219 0 0.471003 0 0.471787 0 
0.472571 0 0.473354 0 0.474138 0 0.474922 0 0.475705 
0 0.476489 0 0.477273 0 0.478056 0 0.47884 0 
0.479624 0 0.480408 0 0.481191 0 0.481975 0 0.482759 
0 0.483542 0 0.484326 0 0.48511 0 0.485893 0 
0.486677 0 0.487461 0 0.488245 0 0.489028 0 0.489812 
0 0.490596 0 0.491379 0 0.492163 0 0.492947 0 
0.49373 0 0.494514 0 0.495298 0 0.496082 0 0.496865 
0 0.497649 0 0.498433 0 0.499216 0 0.5 0 
0.500784 0 0.501567 0 0.502351 0 0.503135 0 0.503918 
0 0.504702 0 0.505486 0 0.50627 0 0.507053 0 
0.507837 0 0.508621 0 0.509404 0 0.510188 0 0.510972 
0 0.511755 0 0.512539 0 0.513323 0 0.514107 0 
0.51489 0 0.515674 0 0.516458 0 0.517241 0 0.518025 
0 0.518809 0 0.519592 0 0.520376 0 0.52116 0 
0.521944 0 0.522727 0 0.523511 0 0.524295 0 0.525078 
0 0.525862 0 0.526646 0 0.527429 0 0.528213 0 
0.528997 0 0.529781 0 0.530564 0 0.531348 0 0.532132 
0 0.532915 0 0.533699 0 0.534483 0 0.535266 0 
0.53605 0 0.536834 0 0.537618 0 0.538401 0 0.539185 
0 0.539969 0 0.540752 0 0.541536 0 0.54232 0 
0.543103 0 0.543887 0 0.544671 0 0.545455 0 0.546238 
0 0.547022 0 0.547806 0 0.548589 0 0.549373 0 
0.550157 0 0.55094 0 0.551724 0 0.552508 0 0.553292 
0 0.554075 0 0.554859 0 0.555643 0 0.556426 0 
0.55721 0 0.557994 0 0.558777 0 0.559561 0 0.560345 
0 0.561128 0 0.561912 0 0.562696 0 0.56348 0 
0.564263 0 0.565047 0 0.565831 0 0.566614 0 0.567398 
0 0.568182 0 0.568965 0 0.569749 0 0.570533 0 
0.571317 0 0.5721 0 0.572884 0 0.573668 0 0.574451 
0 0.575235 0 0.576019 0 0.576802 0 0.577586 0 
0.57837 0 0.579154 0 0.579937 0 0.580721 0 0.581505 
0 0.582288 0 0.583072 0 0.583856 0 0.584639 0 
0.585423 0 0.586207 0 0.586991 0 0.587774 0 0.588558 
0 0.589342 0 0.590125 0 0.590909 0 0.591693 0 
0.592476 0 0.59326 0 0.594044 0 0.594828 0 0.595611 
0 0.596395 0 0.597179 0 0.597962 0 0.598746 0 
0.59953 0 0.600313 0 0.601097 0 0.601881 0 0.602665 
0 0.603448 0 0.604232 0 0.605016 0 0.605799 0 
0.606583 0 0.607367 0 0.60815 0 0.608934 0 0.609718 
0 0.610502 0 0.611285 0 0.612069 0 0.612853 0 
0.613636 0 0.61442 0 0.615204 0 0.615987 0 0.616771 
0 0.617555 0 0.618339 0 0.619122 0 0.619906 0 
0.62069 0 0.621473 0 0.622257 0 0.623041 0 0.623824 
0 0.624608 0 0.625392 0 0.626176 0 0.626959 0 
0.627743 0 0.628527 0 0.62931 0 0.630094 0 0.630878 
0 0.631661 0 0.632445 0 0.633229 0 0.634013 0 
0.634796 0 0.63558 0 0.636364 0 0.637147 0 0.637931 
0 0.638715 0 0.639498 0 0.640282 0 0.641066 0 
0.64185 0 0.642633 0 0.643417 0 0.644201 0 0.644984 
0 0.645768 0 0.646552 0 0.647335 0 0.648119 0 
0.648903 0 0.649687 0 0.65047 0 0.651254 0 0.652038 
0 0.652821 0 0.653605 0 0.654389 0 0.655172 0 
0.655956 0 0.65674 0 0.657524 0 0.658307 0 0.659091 
0 0.659875 0 0.660658 0 0.661442 0 0.662226 0 
0.663009 0 0.663793 0 0.664577 0 0.665361 0 0.666144 
0 0.666928 0 0.667712 0 0.668495 0 0.669279 0 
0.670063 0 0.670846 0 0.67163 0 0.672414 0 0.673198 
0 0.673981 0 0.674765 0 0.675549 0 0.676332 0 