# vtk DataFile Version 4.2
vtk output
ASCII
DATASET POLYDATA
POINTS 1276 float
0 0 0 -0.00293374 0.00067194 0.00286228 -0.0115001 0.00263949 0.0111899 
-0.0253466 0.00583024 0.024594 -0.044121 0.0101718 0.0426857 -0.067471 0.0155917 0.0650762 
-0.095044 0.0220176 0.0913767 -0.126488 0.0293771 0.121198 -0.16145 0.0375978 0.154152 
-0.199579 0.0466072 0.189849 -0.240521 0.056333 0.227901 -0.283924 0.0667027 0.267919 
-0.329437 0.0776439 0.309514 -0.376706 0.0890843 0.352296 -0.425379 0.100951 0.395878 
-0.475105 0.113173 0.43987 -0.52553 0.125676 0.483884 -0.576302 0.138389 0.52753 
-0.627069 0.151239 0.57042 -0.677478 0.164154 0.612166 -0.727178 0.17706 0.652377 
-0.775821 0.189888 0.690672 -0.823252 0.2026 0.726887 -0.869546 0.215203 0.761122 
-0.914795 0.227703 0.793493 -0.959087 0.24011 0.824118 -1.00251 0.252431 0.853113 
-1.04516 0.264676 0.880595 -1.08713 0.276851 0.90668 -1.1285 0.288966 0.931484 
-1.16936 0.301028 0.955125 -1.20981 0.313046 0.977718 -1.24993 0.325028 0.999382 
-1.28981 0.336982 1.02023 -1.32955 0.348917 1.04038 -1.36924 0.36084 1.05995 
-1.40896 0.37276 1.07906 -1.4488 0.384685 1.09782 -1.48886 0.396624 1.11635 
-1.52922 0.408584 1.13476 -1.56998 0.420573 1.15318 -1.61122 0.432601 1.17172 
-1.65298 0.444666 1.19042 -1.69524 0.45676 1.20927 -1.73797 0.468873 1.22825 
-1.78114 0.480995 1.24734 -1.82473 0.493117 1.2665 -1.8687 0.505228 1.28572 
-1.91304 0.51732 1.30496 -1.95771 0.529383 1.32422 -2.00269 0.541406 1.34345 
-2.04795 0.55338 1.36265 -2.09346 0.565296 1.38178 -2.1392 0.577144 1.40082 
-2.18514 0.588914 1.41975 -2.23124 0.600596 1.43854 -2.2775 0.612181 1.45718 
-2.32387 0.623659 1.47562 -2.37034 0.63502 1.49386 -2.41686 0.646255 1.51187 
-2.46343 0.657354 1.52962 -2.51 0.668308 1.54709 -2.55657 0.679107 1.56427 
-2.60313 0.689747 1.58116 -2.64969 0.700225 1.59778 -2.69625 0.710534 1.61414 
-2.74282 0.72067 1.63026 -2.78941 0.73063 1.64614 -2.83601 0.740408 1.66181 
-2.88264 0.750001 1.67726 -2.9293 0.759402 1.69253 -2.97599 0.768609 1.70761 
-3.02272 0.777617 1.72252 -3.0695 0.78642 1.73727 -3.11632 0.795015 1.75188 
-3.1632 0.803396 1.76636 -3.21013 0.811561 1.78073 -3.25713 0.819503 1.79498 
-3.3042 0.827218 1.80915 -3.35134 0.834703 1.82323 -3.39856 0.841952 1.83725 
-3.44587 0.84896 1.85122 -3.49326 0.855724 1.86514 -3.54074 0.862234 1.87902 
-3.5883 0.868483 1.89287 -3.63593 0.874462 1.90669 -3.68364 0.880161 1.92048 
-3.73141 0.885572 1.93424 -3.77925 0.890686 1.94798 -3.82715 0.895495 1.96169 
-3.8751 0.89999 1.97539 -3.92311 0.904162 1.98907 -3.97116 0.908002 2.00274 
-4.01925 0.911502 2.0164 -4.06738 0.914653 2.03004 -4.11554 0.917446 2.04369 
-4.16374 0.919873 2.05733 -4.21196 0.921924 2.07097 -4.2602 0.923591 2.08462 
-4.30845 0.924866 2.09827 -4.35672 0.925739 2.11193 -4.405 0.926202 2.1256 
-4.45328 0.926246 2.13929 -4.50155 0.925858 2.15299 -4.54982 0.925026 2.16672 
-4.59806 0.923736 2.18047 -4.64628 0.921973 2.19425 -4.69446 0.919725 2.20806 
-4.74259 0.916976 2.2219 -4.79067 0.913714 2.23579 -4.83869 0.909925 2.24972 
-4.88664 0.905594 2.2637 -4.93451 0.900709 2.27774 -4.9823 0.895255 2.29182 
-5.02999 0.889219 2.30597 -5.07758 0.882587 2.32018 -5.12505 0.875345 2.33446 
-5.17241 0.867479 2.3488 -5.21964 0.858976 2.36323 -5.26673 0.849822 2.37773 
-5.31368 0.840002 2.39231 -5.36047 0.829504 2.40698 -5.4071 0.818314 2.42174 
-5.45356 0.806423 2.43658 -5.49983 0.79383 2.45151 -5.54591 0.780535 2.46652 
-5.59176 0.766535 2.48161 -5.63738 0.751831 2.49675 -5.68276 0.736422 2.51196 
-5.72788 0.720306 2.52723 -5.77272 0.703483 2.54254 -5.81728 0.685952 2.5579 
-5.86153 0.667712 2.57329 -5.90546 0.648762 2.58872 -5.94905 0.629101 2.60417 
-5.9923 0.608728 2.61964 -6.03519 0.587643 2.63513 -6.07769 0.565844 2.65063 
-6.11981 0.543331 2.66613 -6.16151 0.520102 2.68162 -6.2028 0.496158 2.69711 
-6.24365 0.471496 2.71258 -6.28405 0.446117 2.72804 -6.32399 0.420024 2.74346 
-6.36347 0.393233 2.75886 -6.40249 0.365764 2.77421 -6.44107 0.337634 2.78951 
-6.47921 0.308862 2.80475 -6.5169 0.279466 2.81992 -6.55417 0.249463 2.83502 
-6.591 0.218873 2.85004 -6.62741 0.187714 2.86496 -6.66339 0.156003 2.87979 
-6.69897 0.123759 2.89451 -6.73413 0.091 2.90912 -6.76889 0.0577447 2.9236 
-6.80324 0.024011 2.93796 -6.8372 -0.0101827 2.95217 -6.87076 -0.0448183 2.96624 
-6.90394 -0.0798775 2.98015 -6.93674 -0.115342 2.9939 -6.96916 -0.151194 3.00747 
-7.0012 -0.187415 3.02087 -7.03288 -0.223987 3.03408 -7.06421 -0.260896 3.0471 
-7.0952 -0.29813 3.05992 -7.12587 -0.335675 3.07254 -7.15624 -0.373517 3.08495 
-7.18632 -0.411645 3.09715 -7.21613 -0.450044 3.10912 -7.24569 -0.488702 3.12088 
-7.27501 -0.527606 3.13241 -7.30412 -0.566742 3.1437 -7.33301 -0.606097 3.15475 
-7.36173 -0.645659 3.16556 -7.39027 -0.685414 3.17612 -7.41866 -0.725349 3.18642 
-7.44691 -0.76545 3.19646 -7.47504 -0.805706 3.20624 -7.50307 -0.846102 3.21575 
-7.53101 -0.886626 3.22498 -7.55887 -0.927264 3.23393 -7.58669 -0.968004 3.2426 
-7.61446 -1.00883 3.25097 -7.64222 -1.04974 3.25905 -7.66995 -1.09071 3.26682 
-7.69768 -1.13175 3.27428 -7.72541 -1.17284 3.28141 -7.75315 -1.21398 3.28822 
-7.78092 -1.25515 3.29469 -7.80871 -1.29635 3.30082 -7.83655 -1.33757 3.3066 
-7.86444 -1.3788 3.31202 -7.89239 -1.42004 3.31707 -7.92042 -1.46126 3.32175 
-7.94852 -1.50248 3.32605 -7.97671 -1.54367 3.32996 -8.005 -1.58483 3.33347 
-8.0334 -1.62595 3.33658 -8.06192 -1.66702 3.33928 -8.09056 -1.70804 3.34156 
-8.11935 -1.74899 3.34341 -8.14828 -1.78987 3.34482 -8.17737 -1.83067 3.3458 
-8.20662 -1.87138 3.34632 -8.23602 -1.91199 3.34638 -8.26559 -1.95249 3.34597 
-8.2953 -1.99289 3.34508 -8.32516 -2.03316 3.34369 -8.35517 -2.07331 3.34179 
-8.38532 -2.11332 3.33939 -8.41561 -2.15319 3.33645 -8.44604 -2.19291 3.33298 
-8.4766 -2.23247 3.32897 -8.50729 -2.27187 3.32439 -8.5381 -2.3111 3.31925 
-8.56904 -2.35014 3.31352 -8.6001 -2.38899 3.30721 -8.63127 -2.42765 3.30029 
-8.66256 -2.46611 3.29277 -8.69396 -2.50436 3.28462 -8.72546 -2.54238 3.27583 
-8.75707 -2.58019 3.26641 -8.78879 -2.61775 3.25633 -8.82059 -2.65508 3.24558 
-8.85247 -2.69217 3.23417 -8.8844 -2.729 3.22208 -8.91637 -2.76559 3.2093 
-8.94835 -2.80193 3.19583 -8.98032 -2.83802 3.18167 -9.01227 -2.87384 3.16681 
-9.04417 -2.90941 3.15123 -9.076 -2.94471 3.13494 -9.10775 -2.97975 3.11793 
-9.13938 -3.01452 3.1002 -9.17089 -3.04902 3.08172 -9.20225 -3.08324 3.06251 
-9.23344 -3.11718 3.04255 -9.26444 -3.15085 3.02184 -9.29522 -3.18423 3.00037 
-9.32578 -3.21733 2.97813 -9.35609 -3.25014 2.95512 -9.38613 -3.28266 2.93133 
-9.41587 -3.31488 2.90676 -9.4453 -3.34681 2.88139 -9.4744 -3.37844 2.85525 
-9.50312 -3.4098 2.82834 -9.53144 -3.44087 2.80067 -9.55933 -3.47167 2.77225 
-9.58676 -3.5022 2.7431 -9.6137 -3.53248 2.71323 -9.64012 -3.5625 2.68264 
-9.666 -3.59228 2.65136 -9.69129 -3.62182 2.61939 -9.71598 -3.65112 2.58674 
-9.74003 -3.68019 2.55342 -9.76341 -3.70904 2.51945 -9.78609 -3.73768 2.48484 
-9.80805 -3.76611 2.4496 -9.82925 -3.79434 2.41373 -9.84967 -3.82237 2.37726 
-9.86926 -3.85021 2.3402 -9.88802 -3.87787 2.30255 -9.90589 -3.90535 2.26432 
-9.92286 -3.93266 2.22554 -9.93892 -3.9598 2.18622 -9.95403 -3.98679 2.1464 
-9.96821 -4.01363 2.10611 -9.98142 -4.04033 2.06539 -9.99368 -4.06688 2.02426 
-10.0049 -4.09331 1.98276 -10.0152 -4.11961 1.94092 -10.0245 -4.1458 1.89878 
-10.0328 -4.17188 1.85636 -10.04 -4.19785 1.8137 -10.0462 -4.22372 1.77084 
-10.0514 -4.2495 1.72779 -10.0555 -4.2752 1.68461 -10.0585 -4.30083 1.64132 
-10.0605 -4.32638 1.59795 -10.0613 -4.35187 1.55453 -10.0611 -4.3773 1.51111 
-10.0597 -4.40268 1.4677 -10.0572 -4.42802 1.42435 -10.0536 -4.45331 1.38108 
-10.0489 -4.47858 1.33792 -10.043 -4.5038 1.29488 -10.0361 -4.52899 1.25198 
-10.0281 -4.55412 1.20922 -10.019 -4.57922 1.16663 -10.009 -4.60426 1.12421 
-9.99802 -4.62925 1.08197 -9.98607 -4.65418 1.03994 -9.97319 -4.67906 0.99812 
-9.9594 -4.70387 0.956527 -9.94475 -4.72862 0.915175 -9.92923 -4.7533 0.874076 
-9.91289 -4.77792 0.833244 -9.89575 -4.80246 0.792692 -9.87784 -4.82692 0.752434 
-9.85917 -4.85131 0.712482 -9.83978 -4.87562 0.672849 -9.81969 -4.89984 0.63355 
-9.79892 -4.92398 0.594597 -9.7775 -4.94803 0.556003 -9.75546 -4.97198 0.517771 
-9.73281 -4.99585 0.479888 -9.70958 -5.01961 0.44234 -9.68579 -5.04328 0.405114 
-9.66147 -5.06684 0.368195 -9.63663 -5.09031 0.331569 -9.6113 -5.11367 0.295224 
-9.5855 -5.13692 0.259145 -9.55926 -5.16006 0.223318 -9.53259 -5.18308 0.187729 
-9.50551 -5.206 0.152364 -9.47806 -5.2288 0.117211 -9.45025 -5.25147 0.0822541 
-9.4221 -5.27403 0.0474804 -9.39364 -5.29647 0.0128759 -9.36489 -5.31878 -0.0215732 
-9.33588 -5.34096 -0.0558808 -9.30661 -5.36301 -0.0900607 -9.27713 -5.38493 -0.124127 
-9.24744 -5.40671 -0.158093 -9.21757 -5.42836 -0.191972 -9.18753 -5.44988 -0.225777 
-9.15734 -5.47125 -0.259519 -9.12702 -5.49249 -0.293212 -9.09656 -5.5136 -0.326866 
-9.06599 -5.53456 -0.360493 -9.03532 -5.55539 -0.394107 -9.00456 -5.57608 -0.427718 
-8.97372 -5.59664 -0.461339 -8.94283 -5.61706 -0.494981 -8.91189 -5.63734 -0.528658 
-8.88091 -5.65749 -0.56238 -8.84991 -5.6775 -0.59616 -8.8189 -5.69737 -0.63001 
-8.78789 -5.7171 -0.663942 -8.75691 -5.7367 -0.697968 -8.72595 -5.75616 -0.732099 
-8.69504 -5.77549 -0.766349 -8.66418 -5.79467 -0.800729 -8.6334 -5.81372 -0.83525 
-8.6027 -5.83263 -0.869925 -8.57208 -5.85141 -0.904753 -8.54156 -5.87006 -0.939734 
-8.51112 -5.88859 -0.974865 -8.48078 -5.907 -1.01014 -8.45054 -5.92529 -1.04557 
-8.4204 -5.94348 -1.08114 -8.39036 -5.96157 -1.11684 -8.36042 -5.97955 -1.15269 
-8.33059 -5.99745 -1.18868 -8.30087 -6.01525 -1.2248 -8.27126 -6.03297 -1.26105 
-8.24176 -6.05062 -1.29744 -8.21238 -6.06819 -1.33395 -8.18312 -6.08569 -1.37059 
-8.15397 -6.10313 -1.40735 -8.12495 -6.12051 -1.44423 -8.09605 -6.13784 -1.48124 
-8.06729 -6.15512 -1.51836 -8.03865 -6.17236 -1.5556 -8.01014 -6.18956 -1.59295 
-7.98176 -6.20672 -1.6304 -7.95351 -6.22387 -1.66796 -7.92536 -6.24101 -1.7056 
-7.89733 -6.25815 -1.74332 -7.8694 -6.2753 -1.78111 -7.84156 -6.29247 -1.81896 
[...]
CELL_DATA 1
FIELD FieldData 2
Length 1 1 double
63.800177709 
Tortuosity 1 1 double
1.2165303251 
POINT_DATA 1276
SCALARS MaximumInscribedSphereRadius float
LOOKUP_TABLE default
0.9796 0.990363 1.00113 1.01189 1.02265 1.03341 1.04418 1.05494 1.0657 
1.07647 1.08723 1.09799 1.10875 1.11952 1.13028 1.14104 1.15181 1.16257 
1.17333 1.18409 1.19486 1.19926 1.19509 1.19091 1.18674 1.18256 1.17839 
1.17421 1.17003 1.16586 1.16168 1.15751 1.15333 1.14916 1.14498 1.1408 
1.13663 1.13245 1.12828 1.1241 1.11993 1.11353 1.10426 1.095 1.08573 
1.07646 1.06719 1.05793 1.04866 1.03939 1.03012 1.02086 1.01159 1.00232 
0.993052 0.983785 0.974517 0.965249 0.955982 0.946714 0.937446 0.93 0.93 
0.93 0.93 0.93 0.93 0.93 0.93 0.93 0.93 0.93 
0.93 0.93 0.93 0.93 0.93 0.93 0.93 0.93 0.93 
0.93 0.937298 0.945199 0.9531 0.961001 0.968902 0.976803 0.984703 0.992604 
1.00051 1.00841 1.01631 1.02421 1.03211 1.04001 1.04791 1.05581 1.06371 
1.07161 1.07951 1.08741 1.09528 1.10313 1.11098 1.11883 1.12668 1.13453 
1.14238 1.15023 1.15808 1.16593 1.17378 1.18163 1.18948 1.19733 1.20517 
1.21302 1.22087 1.22872 1.23657 1.24442 1.24959 1.25078 1.25197 1.25317 
1.25436 1.25555 1.25674 1.25793 1.25912 1.26032 1.26151 1.2627 1.26389 
1.26508 1.26627 1.26747 1.26866 1.26985 1.27104 1.27223 1.27299 1.27175 
1.27052 1.26929 1.26806 1.26682 1.26559 1.26436 1.26312 1.26189 1.26066 
1.25942 1.25819 1.25696 1.25573 1.25449 1.25326 1.25203 1.25079 1.24956 
1.24833 1.24787 1.24747 1.24706 1.24665 1.24624 1.24584 1.24543 1.24502 
1.24461 1.24421 1.2438 1.24339 1.24298 1.24258 1.24217 1.24176 1.24135 
1.24095 1.24054 1.24013 1.24 1.24 1.24 1.24 1.24 1.24 
1.24 1.24 1.24 1.24 1.24 1.24 1.24 1.24 1.24 
1.24 1.24 1.24 1.24 1.24 1.24006 1.2402 1.24034 1.24049 
1.24063 1.24077 1.24091 1.24106 1.2412 1.24134 1.24149 1.24163 1.24177 
1.24191 1.24206 1.2422 1.24234 1.24249 1.24263 1.24277 1.24328 1.24566 
1.24805 1.25043 1.25282 1.2552 1.25759 1.25997 1.26236 1.26474 1.26713 
1.26951 1.2719 1.27428 1.27666 1.27905 1.28143 1.28382 1.2862 1.28859 
1.29097 1.28743 1.28349 1.27956 1.27563 1.27169 1.26776 1.26383 1.25989 
1.25596 1.25203 1.24809 1.24416 1.24023 1.23629 1.23236 1.22843 1.22449 
1.22056 1.21663 1.21269 1.21757 1.22554 1.23351 1.24149 1.24946 1.25743 
1.2654 1.27337 1.28135 1.28932 1.29729 1.30526 1.31323 1.32121 1.32918 
1.33715 1.34512 1.35309 1.36106 1.36904 1.37945 1.39174 1.40403 1.41632 
1.4286 1.44089 1.45318 1.46547 1.47776 1.49005 1.50234 1.51462 1.52691 
1.5392 1.55149 1.56378 1.57607 1.58836 1.60064 1.61293 1.61393 1.59541 
1.57688 1.55836 1.53983 1.52131 1.50278 1.48426 1.46573 1.44721 1.42868 
1.41016 1.39163 1.37311 1.35458 1.33606 1.31753 1.29901 1.28048 1.26196 
1.24535 1.24509 1.24482 1.24456 1.24429 1.24403 1.24376 1.24349 1.24323 
1.24296 1.2427 1.24243 1.24217 1.2419 1.24164 1.24137 1.24111 1.24084 
1.24058 1.24031 1.24005 1.23206 1.22247 1.21287 1.20328 1.19368 1.18409 
1.1745 1.1649 1.15531 1.14571 1.13612 1.12653 1.11693 1.10734 1.09774 
1.08815 1.07856 1.06896 1.05937 1.04977 1.04546 1.04542 1.04539 1.04535 
1.04532 1.04528 1.04524 1.04521 1.04517 1.04514 1.0451 1.04506 1.04503 
1.04499 1.04496 1.04492 1.04488 1.04485 1.04481 1.04478 1.04834 1.06149 
1.07464 1.08779 1.10094 1.11409 1.12724 1.14039 1.15354 1.16669 1.17984 
1.19299 1.20614 1.21929 1.23244 1.24559 1.25875 1.2719 1.28505 1.2982 
1.31139 1.33408 1.35676 1.37945 1.40213 1.42481 1.4475 1.47018 1.49287 
1.51555 1.53823 1.56092 1.5836 1.60629 1.62897 1.65165 1.67434 1.69702 
1.71971 1.74239 1.76507 1.77307 1.77691 1.78076 1.7846 1.78844 1.79228 
1.79612 1.79996 1.8038 1.80764 1.81148 1.81532 1.81917 1.82301 1.82685 
1.83069 1.83453 1.83837 1.84221 1.84605 1.84059 1.83082 1.82104 1.81127 
1.80149 1.79171 1.78194 1.77216 1.76239 1.75261 1.74284 1.73306 1.72329 
1.71351 1.70374 1.69396 1.68419 1.67441 1.66464 1.65486 1.65419 1.65778 
1.66138 1.66497 1.66857 1.67216 1.67576 1.67935 1.68295 1.68654 1.69014 
1.69373 1.69733 1.70092 1.70452 1.70811 1.71171 1.7153 1.7189 1.72249 
1.72482 1.726 1.72718 1.72837 1.72955 1.73074 1.73192 1.7331 1.73429 
1.73547 1.73666 1.73784 1.73903 1.74021 1.74139 1.74258 1.74376 1.74495 
1.74613 1.74732 1.74577 1.73798 1.73018 1.72239 1.71459 1.70679 1.699 
1.6912 1.68341 1.67561 1.66782 1.66002 1.65222 1.64443 1.63663 1.62884 
1.62104 1.61324 1.60545 1.59765 1.59088 1.60249 1.61409 1.62569 1.63729 
1.6489 1.6605 1.6721 1.6837 1.69531 1.70691 1.71851 1.73011 1.74171 
1.75332 1.76492 1.77652 1.78812 1.79973 1.81133 1.82293 1.81888 1.81069 
1.8025 1.79431 1.78612 1.77793 1.76973 1.76154 1.75335 1.74516 1.73697 
1.72878 1.72058 1.71239 1.7042 1.69601 1.68782 1.67963 1.67143 1.66324 
1.66011 1.66142 1.66272 1.66402 1.66532 1.66662 1.66792 1.66922 1.67052 
1.67182 1.67313 1.67443 1.67573 1.67703 1.67833 1.67963 1.68093 1.68223 
1.68353 1.68484 1.68857 1.69803 1.70749 1.71696 1.72642 1.73589 1.74535 
1.75481 1.76428 1.77374 1.7832 1.79267 1.80213 1.8116 1.82106 1.83052 
1.83999 1.84945 1.85891 1.86838 1.87708 1.87639 1.87571 1.87503 1.87434 
1.87366 1.87297 1.87229 1.87161 1.87092 1.87024 1.86955 1.86887 1.86819 
1.8675 1.86682 1.86613 1.86545 1.86477 1.86408 1.8634 1.86316 1.863 
1.86283 1.86267 1.86251 1.86234 1.86218 1.86202 1.86185 1.86169 1.86153 
1.86136 1.8612 1.86104 1.86088 1.86071 1.86055 1.86039 1.86022 1.86006 
1.8633 1.86848 1.87366 1.87884 1.88402 1.88921 1.89439 1.89957 1.90475 
1.90993 1.91511 1.92029 1.92547 1.93065 1.93583 1.94101 1.94619 1.95137 
1.95655 1.96173 1.96789 1.97542 1.98295 1.99048 1.99801 2.00554 2.01307 
2.0206 2.02813 2.03566 2.04319 2.05072 2.05826 2.06579 2.07332 2.08085 
2.08838 2.09591 2.10344 2.11097 2.11544 2.10728 2.09912 2.09096 2.0828 
2.07464 2.06648 2.05832 2.05016 2.042 2.03385 2.02569 2.01753 2.00937 
2.00121 1.99305 1.98489 1.97673 1.96857 1.96041 1.95225 1.93485 1.91707 
1.89929 1.88152 1.86374 1.84596 1.82818 1.8104 1.79263 1.77485 1.75707 
1.73929 1.72151 1.70374 1.68596 1.66818 1.6504 1.63262 1.61485 1.59707 
1.58377 1.57217 1.56057 1.54896 1.53736 1.52576 1.51416 1.50256 1.49095 
1.47935 1.46775 1.45615 1.44455 1.43294 1.42134 1.40974 1.39814 1.38653 
1.37493 1.36333 1.36286 1.37347 1.38409 1.3947 1.40532 1.41593 1.42655 
1.43716 1.44778 1.45839 1.46901 1.47962 1.49024 1.50085 1.51147 1.52208 
1.5327 1.54331 1.55393 1.56454 1.57771 1.59774 1.61778 1.63781 1.65785 
1.67788 1.69791 1.71795 1.73798 1.75802 1.77805 1.79808 1.81812 1.83815 
1.85819 1.87822 1.89825 1.91829 1.93832 1.95835 1.97812 1.98144 1.98476 
1.98808 1.99139 1.99471 1.99803 2.00134 2.00466 2.00798 2.0113 2.01461 
2.01793 2.02125 2.02457 2.02788 2.0312 2.03452 2.03784 2.04115 2.04447 
2.03914 2.03089 2.02264 2.01439 2.00614 1.99789 1.98964 1.98139 1.97314 
1.96489 1.95663 1.94838 1.94013 1.93188 1.92363 1.91538 1.90713 1.89888 
1.89063 1.88238 1.87762 1.87673 1.87584 1.87495 1.87406 1.87317 1.87228 
1.87139 1.8705 1.86961 1.86872 1.86783 1.86694 1.86605 1.86516 1.86427 
1.86338 1.86249 1.8616 1.86071 1.86 1.86 1.86 1.86 1.86 
1.86 1.86 1.86 1.86 1.86 1.86 1.86 1.86 1.86 
1.86 1.86 1.86 1.86 1.86 1.86 1.86 1.86028 1.86058 
1.86088 1.86118 1.86148 1.86178 1.86208 1.86238 1.86267 1.86297 1.86327 
1.86357 1.86387 1.86417 1.86447 1.86477 1.86507 1.86537 1.86567 1.86597 
1.8665 1.86716 1.86782 1.86848 1.86914 1.8698 1.87046 1.87112 1.87178 
1.87244 1.8731 1.87376 1.87442 1.87508 1.87574 1.8764 1.87706 1.87772 
1.87838 1.87903 1.87927 1.87877 1.87827 1.87778 1.87728 1.87678 1.87629 
1.87579 1.87529 1.8748 1.8743 1.87381 1.87331 1.87281 1.87232 1.87182 
1.87132 1.87083 1.87033 1.86983 1.8699 1.87479 1.87967 1.88455 1.88944 
1.89432 1.8992 1.90409 1.90897 1.91386 1.91874 1.92362 1.92851 1.93339 
1.93827 1.94316 1.94804 1.95292 1.95781 1.96269 1.96757 1.97562 1.98425 
1.99288 2.00151 2.01014 2.01878 2.02741 2.03604 2.04467 2.05331 2.06194 
2.07057 2.0792 2.08784 2.09647 2.1051 2.11373 2.12236 2.131 2.13963 
2.14393 2.14511 2.14629 2.14747 2.14865 2.14983 2.15101 2.15219 2.15337 
2.15455 2.15573 2.15691 2.15809 2.15927 2.16044 2.16162 2.1628 2.16398 
2.16516 2.16634 2.16495 2.15815 2.15135 2.14455 2.13776 2.13096 2.12416 
2.11736 2.11056 2.10376 2.09697 2.09017 2.08337 2.07657 2.06977 2.06297 
2.05618 2.04938 2.04258 2.03578 2.02884 2.02061 2.01238 2.00415 1.99592 
1.98769 1.97946 1.97123 1.96299 1.95476 1.94653 1.9383 1.93007 1.92184 
1.91361 1.90538 1.89715 1.88892 1.88068 1.87245 1.86422 1.86343 1.86295 
1.86246 1.86198 1.86149 1.861 1.86052 1.86003 1.85955 1.85906 1.85857 
1.85809 1.8576 1.85712 1.85663 1.85614 1.85566 1.85517 1.85469 1.8542 
1.8529 1.85137 1.84983 1.8483 1.84677 1.84523 1.8437 1.84217 1.84063 
1.8391 1.83756 1.83603 1.8345 1.83296 1.83143 1.8299 1.82836 1.82683 
1.82529 1.82376 1.83132 1.84758 1.86384 1.8801 1.89636 1.91262 1.92888 
1.94514 1.9614 1.97766 1.99392 2.01018 2.02644 2.0427 2.05896 2.07522 
2.09148 2.10774 2.124 2.14026 2.15684 2.17445 2.19206 2.20967 2.22728 
2.2449 2.26251 2.28012 2.29773 2.31534 2.33295 2.35056 2.36817 2.38578 
2.40339 2.42101 2.43862 2.45623 2.47384 2.49145 2.50906 2.51118 2.51277 
2.51436 2.51596 2.51755 2.51914 2.52073 2.52233 2.52392 2.52551 2.5271 
2.5287 2.53029 2.53188 2.53347 2.53507 2.53666 2.53825 2.53984 2.54144 
2.53809 2.53264 2.5272 2.52176 2.51631 2.51087 2.50543 2.49998 2.49454 
2.4891 2.48365 2.47821 2.47277 2.46732 2.46188 2.45644 2.45099 2.44555 
2.44011 2.43466 2.43097 2.42958 2.4282 2.42682 2.42543 2.42405 2.42267 
2.42128 2.4199 2.41852 2.41713 2.41575 2.41437 2.41298 2.4116 2.41022 
2.40883 2.40745 2.40607 2.40468 2.40391 2.40637 2.40884 2.4113 2.41376 
2.41622 2.41868 2.42114 2.4236 2.42607 2.42853 2.43099 2.43345 2.43591 
2.43837 2.44084 2.4433 2.44576 2.44822 2.45068 2.45314 2.44412 2.43369 
2.42326 2.41284 2.40241 2.39199 2.38156 2.37114 2.36071 2.35029 2.33986 
2.32943 2.31901 2.30858 2.29816 2.28773 2.27731 2.26688 2.25645 2.24603 
2.23986 2.2363 2.23274 2.22918 2.22562 2.22206 2.2185 2.21494 2.21138 
2.20782 2.20426 2.2007 2.19713 2.19357 2.19001 2.18645 2.18289 2.17933 
2.17577 2.17221 2.17 2.17 2.17 2.17 2.17 2.17 2.17 
2.17 2.17 2.17 2.17 2.17 2.17 2.17 2.17 2.17 
2.17 2.17 2.17 2.17 2.17 2.17 2.17 2.17 2.17 
2.17 2.17 2.17 2.17 2.17 2.17 2.17 2.17 2.17 
2.17 2.17 2.17 2.17 2.17 2.17 2.17 
TEXTURE_COORDINATES TCoords 2 float
0 0 0.000784314 0 0.00156863 0 0.00235294 0 0.00313725 
0 0.00392157 0 0.00470588 0 0.0054902 0 0.00627451 0 
0.00705882 0 0.00784314 0 0.00862745 0 0.00941176 0 0.0101961 
0 0.0109804 0 0.0117647 0 0.012549 0 0.0133333 0 
0.0141176 0 0.014902 0 0.0156863 0 0.0164706 0 0.0172549 
0 0.0180392 0 0.0188235 0 0.0196078 0 0.0203922 0 
0.0211765 0 0.0219608 0 0.0227451 0 0.0235294 0 0.0243137 
0 0.025098 0 0.0258824 0 0.0266667 0 0.027451 0 
0.0282353 0 0.0290196 0 0.0298039 0 0.0305882 0 0.0313726 
0 0.0321569 0 0.0329412 0 0.0337255 0 0.0345098 0 
0.0352941 0 0.0360784 0 0.0368627 0 0.0376471 0 0.0384314 
0 0.0392157 0 0.04 0 0.0407843 0 0.0415686 0 
0.0423529 0 0.0431373 0 0.0439216 0 0.0447059 0 0.0454902 
0 0.0462745 0 0.0470588 0 0.0478431 0 0.0486275 0 
0.0494118 0 0.0501961 0 0.0509804 0 0.0517647 0 0.052549 
0 0.0533333 0 0.0541176 0 0.054902 0 0.0556863 0 
0.0564706 0 0.0572549 0 0.0580392 0 0.0588235 0 0.0596078 
0 0.0603922 0 0.0611765 0 0.0619608 0 0.0627451 0 
0.0635294 0 0.0643137 0 0.065098 0 0.0658824 0 0.0666667 
0 0.067451 0 0.0682353 0 0.0690196 0 0.0698039 0 
0.0705882 0 0.0713725 0 0.0721569 0 0.0729412 0 0.0737255 
0 0.0745098 0 0.0752941 0 0.0760784 0 0.0768627 0 
0.0776471 0 0.0784314 0 0.0792157 0 0.08 0 0.0807843 
0 0.0815686 0 0.0823529 0 0.0831373 0 0.0839216 0 
0.0847059 0 0.0854902 0 0.0862745 0 0.0870588 0 0.0878431 
0 0.0886275 0 0.0894118 0 0.0901961 0 0.0909804 0 
0.0917647 0 0.092549 0 0.0933333 0 0.0941176 0 0.094902 
0 0.0956863 0 0.0964706 0 0.0972549 0 0.0980392 0 
0.0988235 0 0.0996078 0 0.100392 0 0.101176 0 0.101961 
0 0.102745 0 0.103529 0 0.104314 0 0.105098 0 
0.105882 0 0.106667 0 0.107451 0 0.108235 0 0.10902 
0 0.109804 0 0.110588 0 0.111373 0 0.112157 0 
0.112941 0 0.113725 0 0.11451 0 0.115294 0 0.116078 
0 0.116863 0 0.117647 0 0.118431 0 0.119216 0 
0.12 0 0.120784 0 0.121569 0 0.122353 0 0.123137 
0 0.123922 0 0.124706 0 0.12549 0 0.126275 0 
0.127059 0 0.127843 0 0.128627 0 0.129412 0 0.130196 
0 0.13098 0 0.131765 0 0.132549 0 0.133333 0 
0.134118 0 0.134902 0 0.135686 0 0.136471 0 0.137255 
0 0.138039 0 0.138824 0 0.139608 0 0.140392 0 
0.141176 0 0.141961 0 0.142745 0 0.143529 0 0.144314 
0 0.145098 0 0.145882 0 0.146667 0 0.147451 0 
0.148235 0 0.14902 0 0.149804 0 0.150588 0 0.151373 
0 0.152157 0 0.152941 0 0.153725 0 0.15451 0 
0.155294 0 0.156078 0 0.156863 0 0.157647 0 0.158431 
0 0.159216 0 0.16 0 0.160784 0 0.161569 0 
0.162353 0 0.163137 0 0.163922 0 0.164706 0 0.16549 
0 0.166275 0 0.167059 0 0.167843 0 0.168627 0 
0.169412 0 0.170196 0 0.17098 0 0.171765 0 0.172549 
0 0.173333 0 0.174118 0 0.174902 0 0.175686 0 
0.176471 0 0.177255 0 0.178039 0 0.178824 0 0.179608 
0 0.180392 0 0.181176 0 0.181961 0 0.182745 0 
0.183529 0 0.184314 0 0.185098 0 0.185882 0 0.186667 
0 0.187451 0 0.188235 0 0.18902 0 0.189804 0 
0.190588 0 0.191373 0 0.192157 0 0.192941 0 0.193725 
0 0.19451 0 0.195294 0 0.196078 0 0.196863 0 
0.197647 0 0.198431 0 0.199216 0 0.2 0 0.200784 
0 0.201569 0 0.202353 0 0.203137 0 0.203922 0 
0.204706 0 0.20549 0 0.206275 0 0.207059 0 0.207843 
0 0.208627 0 0.209412 0 0.210196 0 0.21098 0 
0.211765 0 0.212549 0 0.213333 0 0.214118 0 0.214902 
0 0.215686 0 0.216471 0 0.217255 0 0.218039 0 
0.218824 0 0.219608 0 0.220392 0 0.221176 0 0.221961 
0 0.222745 0 0.223529 0 0.224314 0 0.225098 0 
0.225882 0 0.226667 0 0.227451 0 0.228235 0 0.22902 
0 0.229804 0 0.230588 0 0.231373 0 0.232157 0 
0.232941 0 0.233725 0 0.23451 0 0.235294 0 0.236078 
0 0.236863 0 0.237647 0 0.238431 0 0.239216 0 
0.24 0 0.240784 0 0.241569 0 0.242353 0 0.243137 
0 0.243922 0 0.244706 0 0.24549 0 0.246275 0 
0.247059 0 0.247843 0 0.248627 0 0.249412 0 0.250196 
0 0.25098 0 0.251765 0 0.252549 0 0.253333 0 
0.254118 0 0.254902 0 0.255686 0 0.256471 0 0.257255 
0 0.258039 0 0.258824 0 0.259608 0 0.260392 0 
0.261176 0 0.261961 0 0.262745 0 0.263529 0 0.264314 
0 0.265098 0 0.265882 0 0.266667 0 0.267451 0 
0.268235 0 0.26902 0 0.269804 0 0.270588 0 0.271373 
0 0.272157 0 0.272941 0 0.273725 0 0.27451 0 
0.275294 0 0.276078 0 0.276863 0 0.277647 0 0.278431 
0 0.279216 0 0.28 0 0.280784 0 0.281569 0 
0.282353 0 0.283137 0 0.283922 0 0.284706 0 0.28549 
0 0.286275 0 0.287059 0 0.287843 0 0.288627 0 
0.289412 0 0.290196 0 0.29098 0 0.291765 0 0.292549 
0 0.293333 0 0.294118 0 0.294902 0 0.295686 0 
0.296471 0 0.297255 0 0.298039 0 0.298824 0 0.299608 
0 0.300392 0 0.301176 0 0.301961 0 0.302745 0 
0.303529 0 0.304314 0 0.305098 0 0.305882 0 0.306667 
0 0.307451 0 0.308235 0 0.30902 0 0.309804 0 
0.310588 0 0.311373 0 0.312157 0 0.312941 0 0.313726 
0 0.31451 0 0.315294 0 0.316078 0 0.316863 0 
0.317647 0 0.318431 0 0.319216 0 0.32 0 0.320784 
0 0.321569 0 0.322353 0 0.323137 0 0.323922 0 
0.324706 0 0.32549 0 0.326275 0 0.327059 0 0.327843 
0 0.328627 0 0.329412 0 0.330196 0 0.33098 0 
0.331765 0 0.332549 0 0.333333 0 0.334118 0 0.334902 
0 0.335686 0 0.336471 0 0.337255 0 0.338039 0 
0.338824 0 0.339608 0 0.340392 0 0.341176 0 0.341961 
0 0.342745 0 0.343529 0 0.344314 0 0.345098 0 
0.345882 0 0.346667 0 0.347451 0 0.348235 0 0.34902 
0 0.349804 0 0.350588 0 0.351373 0 0.352157 0 
0.352941 0 0.353725 0 0.35451 0 0.355294 0 0.356078 
0 0.356863 0 0.357647 0 0.358431 0 0.359216 0 
0.36 0 0.360784 0 0.361569 0 0.362353 0 0.363137 
0 0.363922 0 0.364706 0 0.36549 0 0.366275 0 
0.367059 0 0.367843 0 0.368627 0 0.369412 0 0.370196 
0 0.37098 0 0.371765 0 0.372549 0 0.373333 0 
0.374118 0 0.374902 0 0.375686 0 0.376471 0 0.377255 
0 0.378039 0 0.378824 0 0.379608 0 0.380392 0 
0.381176 0 0.381961 0 0.382745 0 0.383529 0 0.384314 
0 0.385098 0 0.385882 0 0.386667 0 0.387451 0 
0.388235 0 0.38902 0 0.389804 0 0.390588 0 0.391373 
0 0.392157 0 0.392941 0 0.393725 0 0.39451 0 
0.395294 0 0.396078 0 0.396863 0 0.397647 0 0.398431 
0 0.399216 0 0.4 0 0.400784 0 0.401569 0 
0.402353 0 0.403137 0 0.403922 0 0.404706 0 0.40549 
0 0.406274 0 0.407059 0 0.407843 0 0.408627 0 
0.409412 0 0.410196 0 0.41098 0 0.411765 0 0.412549 
0 0.413333 0 0.414118 0 0.414902 0 0.415686 0 
0.416471 0 0.417255 0 0.418039 0 0.418824 0 0.419608 
0 0.420392 0 0.421176 0 0.421961 0 0.422745 0 
0.423529 0 0.424314 0 0.425098 0 0.425882 0 0.426667 
0 0.427451 0 0.428235 0 0.42902 0 0.429804 0 
0.430588 0 0.431373 0 0.432157 0 0.432941 0 0.433725 
0 0.43451 0 0.435294 0 0.436078 0 0.436863 0 
0.437647 0 0.438431 0 0.439216 0 0.44 0 0.440784 
0 0.441569 0 0.442353 0 0.443137 0 0.443922 0 
0.444706 0 0.44549 0 0.446275 0 0.447059 0 0.447843 
0 0.448627 0 0.449412 0 0.450196 0 0.45098 0 
0.451765 0 0.452549 0 0.453333 0 0.454118 0 0.454902 
0 0.455686 0 0.456471 0 0.457255 0 0.458039 0 
0.458824 0 0.459608 0 0.460392 0 0.461176 0 0.461961 
0 0.462745 0 0.463529 0 0.464314 0 0.465098 0 
0.465882 0 0.466667 0 0.467451 0 0.468235 0 0.46902 
0 0.469804 0 0.470588 0 0.471373 0 0.472157 0 
0.472941 0 0.473725 0 0.47451 0 0.475294 0 0.476078 
0 0.476863 0 0.477647 0 0.478431 0 0.479216 0 
0.48 0 0.480784 0 0.481569 0 0.482353 0 0.483137 
0 0.483922 0 0.484706 0 0.48549 0 0.486275 0 
0.487059 0 0.487843 0 0.488627 0 0.489412 0 0.490196 
0 0.49098 0 0.491765 0 0.492549 0 0.493333 0 
0.494118 0 0.494902 0 0.495686 0 0.496471 0 0.497255 
0 0.498039 0 0.498824 0 0.499608 0 0.500392 0 
0.501176 0 0.501961 0 0.502745 0 0.503529 0 0.504314 
0 0.505098 0 0.505882 0 0.506667 0 0.507451 0 
0.508235 0 0.50902 0 0.509804 0 0.510588 0 0.511373 
0 0.512157 0 0.512941 0 0.513726 0 0.51451 0 
0.515294 0 0.516078 0 0.516863 0 0.517647 0 0.518431 
0 0.519216 0 0.52 0 0.520784 0 0.521569 0 
0.522353 0 0.523137 0 0.523922 0 0.524706 0 0.52549 
0 0.526275 0 0.527059 0 0.527843 0 0.528627 0 
0.529412 0 0.530196 0 0.53098 0 0.531765 0 0.532549 
0 0.533333 0 0.534118 0 0.534902 0 0.535686 0 
0.536471 0 0.537255 0 0.538039 0 0.538824 0 0.539608 
0 0.540392 0 0.541176 0 0.541961 0 0.542745 0 
0.543529 0 0.544314 0 0.545098 0 0.545882 0 0.546667 
0 0.547451 0 0.548235 0 0.54902 0 0.549804 0 
0.550588 0 0.551373 0 0.552157 0 0.552941 0 0.553725 
0 0.55451 0 0.555294 0 0.556078 0 0.556863 0 
0.557647 0 0.558431 0 0.559216 0 0.56 0 0.560784 
0 0.561569 0 0.562353 0 0.563137 0 0.563922 0 
0.564706 0 0.56549 0 0.566275 0 0.567059 0 0.567843 
0 0.568627 0 0.569412 0 0.570196 0 0.57098 0 
0.571765 0 0.572549 0 0.573333 0 0.574118 0 0.574902 
0 0.575686 0 0.576471 0 0.577255 0 0.578039 0 
0.578824 0 0.579608 0 0.580392 0 0.581176 0 0.581961 
0 0.582745 0 0.583529 0 0.584314 0 0.585098 0 
0.585882 0 0.586667 0 0.587451 0 0.588235 0 0.58902 
0 0.589804 0 0.590588 0 0.591373 0 0.592157 0 
0.592941 0 0.593726 0 0.59451 0 0.595294 0 0.596078 
0 0.596863 0 0.597647 0 0.598431 0 0.599216 0 
0.6 0 0.600784 0 0.601569 0 0.602353 0 0.603137 
0 0.603922 0 0.604706 0 0.60549 0 0.606274 0 
0.607059 0 0.607843 0 0.608627 0 0.609412 0 0.610196 
0 0.61098 0 0.611765 0 0.612549 0 0.613333 0 
0.614118 0 0.614902 0 0.615686 0 0.616471 0 0.617255 
0 0.618039 0 0.618824 0 0.619608 0 0.620392 0 
0.621176 0 0.621961 0 0.622745 0 0.623529 0 0.624314 
0 0.625098 0 0.625882 0 0.626667 0 0.627451 0 
0.628235 0 0.62902 0 0.629804 0 0.630588 0 0.631373 
0 0.632157 0 0.632941 0 0.633725 0 0.63451 0 
0.635294 0 0.636078 0 0.636863 0 0.637647 0 0.638431 
0 0.639216 0 0.64 0 0.640784 0 0.641569 0 
0.642353 0 0.643137 0 0.643922 0 0.644706 0 0.64549 
0 0.646275 0 0.647059 0 0.647843 0 0.648627 0 
0.649412 0 0.650196 0 0.65098 0 0.651765 0 0.652549 
0 0.653333 0 0.654118 0 0.654902 0 0.655686 0 
0.656471 0 0.657255 0 0.658039 0 0.658824 0 0.659608 
0 0.660392 0 0.661176 0 0.661961 0 0.662745 0 
0.663529 0 0.664314 0 0.665098 0 0.665882 0 0.666667 
0 0.667451 0 0.668235 0 0.66902 0 0.669804 0 
0.670588 0 0.671373 0 0.672157 0 0.672941 0 0.673725 
0 0.67451 0 0.675294 0 0.676078 0 0.676863 0 
0.677647 0 0.678431 0 0.679216 0 0.68 0 0.680784 
0 0.681569 0 0.682353 0 0.683137 0 0.683922 0 