# vtk DataFile Version 4.2
vtk output
ASCII
DATASET POLYDATA
POINTS 1275 float
0 0 0 -0.00300352 -0.000211385 0.00285011 -0.01177 -0.000815979 0.0111497 
-0.0259335 -0.00176944 0.0245229 -0.0451278 -0.00302743 0.0425935 -0.0689868 -0.0045456 0.0649856 
-0.0971446 -0.00627961 0.0913232 -0.129235 -0.00818513 0.12123 -0.164892 -0.0102178 0.15433 
-0.203749 -0.0123333 0.190248 -0.245441 -0.0144873 0.228607 -0.289601 -0.0166354 0.269031 
-0.335863 -0.0187333 0.311145 -0.383862 -0.0207366 0.354572 -0.43323 -0.0226011 0.398936 
-0.483603 -0.0242823 0.443861 -0.534613 -0.025736 0.488972 -0.585895 -0.0269177 0.533891 
-0.637083 -0.0277832 0.578244 -0.687811 -0.0282881 0.621654 -0.737712 -0.028388 0.663745 
-0.786427 -0.0280396 0.704148 -0.833798 -0.0272297 0.742702 -0.879905 -0.0259814 0.779501 
-0.924848 -0.0243199 0.814653 -0.968722 -0.0222705 0.848264 -1.01162 -0.0198584 0.880441 
-1.05365 -0.0171089 0.911293 -1.0949 -0.0140472 0.940927 -1.13547 -0.0106986 0.969449 
-1.17545 -0.00708819 0.996968 -1.21495 -0.00324136 1.02359 -1.25406 0.000816692 1.04942 
-1.29287 0.00506072 1.07458 -1.33148 0.00946549 1.09916 -1.37 0.0140058 1.12327 
-1.40851 0.0186563 1.14702 -1.44712 0.0233918 1.17052 -1.48592 0.0281871 1.19388 
-1.525 0.0330169 1.2172 -1.56447 0.037856 1.24059 -1.60442 0.0426794 1.26415 
-1.64489 0.047472 1.28794 -1.68586 0.0522307 1.31194 -1.7273 0.0569533 1.3361 
-1.76918 0.0616373 1.36042 -1.81149 0.0662804 1.38486 -1.85418 0.0708804 1.4094 
-1.89723 0.0754348 1.434 -1.94062 0.0799414 1.45865 -1.98432 0.0843979 1.48331 
-2.0283 0.0888018 1.50797 -2.07253 0.093151 1.53259 -2.11699 0.097443 1.55714 
-2.16165 0.101675 1.58161 -2.20648 0.105846 1.60596 -2.25146 0.109953 1.63016 
-2.29655 0.113993 1.6542 -2.34174 0.117964 1.67804 -2.38699 0.121865 1.70166 
-2.43227 0.125692 1.72503 -2.47757 0.129443 1.74812 -2.52285 0.133114 1.77092 
-2.56813 0.136699 1.79344 -2.61341 0.140189 1.81567 -2.65869 0.143576 1.83763 
-2.70399 0.146853 1.85933 -2.7493 0.150012 1.88077 -2.79464 0.153044 1.90195 
-2.84 0.155943 1.9229 -2.8854 0.1587 1.94362 -2.93084 0.161307 1.9641 
-2.97633 0.163757 1.98437 -3.02187 0.166042 2.00443 -3.06747 0.168153 2.02429 
-3.11313 0.170084 2.04395 -3.15886 0.171825 2.06343 -3.20467 0.17337 2.08272 
-3.25056 0.174711 2.10185 -3.29654 0.175839 2.12081 -3.34262 0.176748 2.13961 
-3.38879 0.177428 2.15827 -3.43507 0.177872 2.17678 -3.48144 0.178074 2.19515 
-3.52792 0.178025 2.21338 -3.57449 0.17772 2.23146 -3.62115 0.17715 2.24939 
-3.66789 0.176309 2.26717 -3.71471 0.175189 2.2848 -3.7616 0.173784 2.30227 
-3.80857 0.172087 2.31958 -3.8556 0.17009 2.33673 -3.90269 0.167786 2.35372 
-3.94983 0.165168 2.37054 -3.99703 0.162229 2.3872 -4.04427 0.158963 2.40368 
-4.09156 0.155361 2.41999 -4.13888 0.151418 2.43613 -4.18624 0.147125 2.45209 
-4.23362 0.142476 2.46786 -4.28103 0.137463 2.48346 -4.32845 0.13208 2.49887 
-4.37589 0.126319 2.5141 -4.42334 0.120173 2.52914 -4.47079 0.113634 2.54399 
-4.51824 0.106692 2.55865 -4.56568 0.0993404 2.57312 -4.6131 0.0915704 2.58741 
-4.6605 0.0833737 2.60152 -4.70786 0.0747421 2.61543 -4.7552 0.0656674 2.62916 
-4.80249 0.0561413 2.64271 -4.84973 0.0461555 2.65607 -4.89691 0.0357019 2.66924 
-4.94404 0.024772 2.68223 -4.9911 0.0133578 2.69504 -5.03808 0.00145093 2.70766 
-5.08499 -0.0109569 2.72009 -5.13181 -0.0238738 2.73234 -5.17853 -0.0373082 2.74441 
-5.22516 -0.0512683 2.7563 -5.27168 -0.0657623 2.768 -5.31809 -0.0807984 2.77952 
-5.36438 -0.0963822 2.79085 -5.41054 -0.112516 2.80201 -5.45656 -0.129201 2.81298 
-5.50242 -0.146439 2.82378 -5.54812 -0.164232 2.8344 -5.59364 -0.182582 2.84485 
-5.63897 -0.20149 2.85513 -5.68411 -0.220959 2.86524 -5.72904 -0.240989 2.87517 
-5.77374 -0.261583 2.88494 -5.81821 -0.282742 2.89455 -5.86244 -0.304469 2.90399 
-5.90642 -0.326764 2.91327 -5.95012 -0.349631 2.92239 -5.99355 -0.373069 2.93135 
-6.0367 -0.397081 2.94015 -6.07954 -0.42167 2.94879 -6.12207 -0.446836 2.95729 
-6.16428 -0.472581 2.96563 -6.20615 -0.498908 2.97382 -6.24768 -0.525814 2.98186 
-6.28887 -0.553291 2.98976 -6.3297 -0.581327 2.99752 -6.37018 -0.609913 3.00514 
-6.41031 -0.639037 3.01264 -6.45007 -0.668689 3.02001 -6.48948 -0.698858 3.02726 
-6.52852 -0.729534 3.03439 -6.56719 -0.760705 3.04142 -6.60549 -0.792362 3.04834 
-6.64341 -0.824493 3.05515 -6.68096 -0.857087 3.06188 -6.71813 -0.890135 3.06851 
-6.75492 -0.923625 3.07505 -6.79132 -0.957547 3.08151 -6.82733 -0.99189 3.08789 
-6.86295 -1.02664 3.0942 -6.89817 -1.0618 3.10045 -6.93299 -1.09734 3.10663 
-6.96741 -1.13326 3.11275 -7.00143 -1.16955 3.11882 -7.03506 -1.20619 3.12483 
-7.06829 -1.24318 3.1308 -7.10115 -1.2805 3.13671 -7.13364 -1.31815 3.14258 
-7.16577 -1.35611 3.14841 -7.19755 -1.39437 3.15419 -7.22898 -1.43291 3.15993 
-7.26009 -1.47174 3.16562 -7.29087 -1.51083 3.17128 -7.32134 -1.55017 3.1769 
-7.3515 -1.58976 3.18249 -7.38137 -1.62958 3.18804 -7.41095 -1.66963 3.19356 
-7.44026 -1.70988 3.19905 -7.46929 -1.75033 3.20451 -7.49807 -1.79097 3.20994 
-7.5266 -1.83179 3.21534 -7.55489 -1.87277 3.22072 -7.58295 -1.9139 3.22608 
-7.61079 -1.95517 3.23142 -7.63841 -1.99658 3.23673 -7.66583 -2.03812 3.24201 
-7.69306 -2.07979 3.24725 -7.72011 -2.12157 3.25245 -7.74698 -2.16346 3.25761 
-7.77369 -2.20546 3.26271 -7.80025 -2.24757 3.26774 -7.82666 -2.28976 3.27272 
-7.85294 -2.33205 3.27762 -7.87909 -2.37443 3.28244 -7.90513 -2.41688 3.28718 
-7.93107 -2.45941 3.29183 -7.95691 -2.50201 3.29638 -7.98267 -2.54466 3.30083 
-8.00835 -2.58738 3.30517 -8.03396 -2.63015 3.3094 -8.05952 -2.67297 3.3135 
-8.08503 -2.71582 3.31749 -8.11051 -2.75871 3.32133 -8.13596 -2.80164 3.32505 
-8.16139 -2.84459 3.32861 -8.18681 -2.88756 3.33199 -8.21221 -2.93056 3.33516 
-8.23759 -2.97358 3.33811 -8.26296 -3.01662 3.34079 -8.28833 -3.05968 3.34318 
-8.31368 -3.10276 3.34526 -8.33903 -3.14586 3.347 -8.36437 -3.18897 3.34837 
-8.38971 -3.2321 3.34935 -8.41505 -3.27525 3.3499 -8.44039 -3.31841 3.35 
-8.46573 -3.36158 3.34962 -8.49107 -3.40476 3.34874 -8.51643 -3.44795 3.34732 
-8.54179 -3.49115 3.34535 -8.56715 -3.53436 3.34278 -8.59254 -3.57757 3.33961 
-8.61793 -3.62079 3.33579 -8.64334 -3.66402 3.33131 -8.66876 -3.70724 3.32613 
-8.69417 -3.75045 3.32023 -8.71953 -3.79362 3.3136 -8.74482 -3.83675 3.30621 
-8.77001 -3.8798 3.29805 -8.79507 -3.92278 3.28908 -8.81997 -3.96565 3.2793 
-8.84469 -4.0084 3.26867 -8.86918 -4.05101 3.25719 -8.89343 -4.09348 3.24482 
-8.91741 -4.13577 3.23156 -8.94108 -4.17787 3.21737 -8.96443 -4.21977 3.20223 
-8.9874 -4.26144 3.18614 -9.00999 -4.30288 3.16906 -9.03216 -4.34406 3.15097 
-9.05389 -4.38496 3.13186 -9.07513 -4.42557 3.1117 -9.09587 -4.46587 3.09048 
-9.11608 -4.50585 3.06817 -9.13572 -4.54549 3.04475 -9.15478 -4.58478 3.02026 
-9.17326 -4.62373 2.99474 -9.19115 -4.66235 2.96822 -9.20842 -4.70063 2.94074 
-9.22508 -4.73858 2.91235 -9.24111 -4.77621 2.88309 -9.2565 -4.8135 2.85299 
-9.27125 -4.85048 2.82209 -9.28533 -4.88714 2.79044 -9.29875 -4.92348 2.75807 
-9.31148 -4.9595 2.72503 -9.32352 -4.99522 2.69135 -9.33487 -5.03062 2.65708 
-9.3455 -5.06573 2.62225 -9.35542 -5.10053 2.58691 -9.3646 -5.13503 2.55109 
-9.37304 -5.16924 2.51483 -9.38072 -5.20315 2.47818 -9.38765 -5.23677 2.44118 
-9.3938 -5.27011 2.40385 -9.39919 -5.30316 2.36624 -9.40381 -5.33596 2.32836 
-9.40768 -5.3685 2.29023 -9.41081 -5.40081 2.25187 -9.4132 -5.43288 2.21331 
-9.41486 -5.46475 2.17455 -9.41581 -5.49642 2.13563 -9.41605 -5.5279 2.09656 
-9.4156 -5.5592 2.05736 -9.41445 -5.59034 2.01806 -9.41262 -5.62134 1.97866 
-9.41011 -5.6522 1.9392 -9.40694 -5.68294 1.8997 -9.40312 -5.71357 1.86017 
-9.39864 -5.7441 1.82063 -9.39353 -5.77455 1.78111 -9.38779 -5.80493 1.74162 
-9.38143 -5.83525 1.70218 -9.37446 -5.86553 1.66282 -9.36688 -5.89577 1.62356 
-9.35871 -5.92599 1.5844 -9.34995 -5.95619 1.54536 -9.34062 -5.98635 1.50643 
-9.33071 -6.0165 1.46763 -9.32023 -6.04661 1.42896 -9.3092 -6.0767 1.39041 
-9.29762 -6.10676 1.35201 -9.2855 -6.13679 1.31375 -9.27285 -6.1668 1.27564 
-9.25967 -6.19678 1.23769 -9.24597 -6.22673 1.19989 -9.23177 -6.25665 1.16226 
-9.21706 -6.28654 1.12479 -9.20185 -6.3164 1.0875 -9.18616 -6.34623 1.05039 
-9.16999 -6.37603 1.01346 -9.15335 -6.4058 0.976717 -9.13625 -6.43554 0.94017 
-9.11868 -6.46525 0.903822 -9.10067 -6.49493 0.867678 -9.08222 -6.52457 0.831741 
-9.06334 -6.55418 0.79601 -9.04404 -6.58376 0.760482 -9.02433 -6.6133 0.725156 
-9.00421 -6.64281 0.690031 -8.98371 -6.67228 0.655104 -8.96282 -6.70172 0.620373 
-8.94156 -6.73111 0.585837 -8.91993 -6.76047 0.551494 -8.89796 -6.78978 0.517342 
-8.87564 -6.81906 0.483379 -8.85298 -6.84829 0.449604 -8.83 -6.87749 0.416014 
-8.80671 -6.90663 0.382608 -8.78312 -6.93574 0.349384 -8.75923 -6.9648 0.31634 
-8.73505 -6.99381 0.283474 -8.7106 -7.02277 0.250785 -8.68588 -7.05169 0.218271 
-8.66091 -7.08056 0.185929 -8.63569 -7.10938 0.153759 -8.61022 -7.13815 0.121755 
-8.58452 -7.16688 0.0899155 -8.55859 -7.19556 0.0582355 -8.53243 -7.2242 0.0267114 
-8.50604 -7.2528 -0.00466038 -8.47944 -7.28136 -0.0358838 -8.45261 -7.30988 -0.0669626 
-8.42558 -7.33837 -0.0979005 -8.39834 -7.36682 -0.128701 -8.3709 -7.39524 -0.159369 
-8.34326 -7.42363 -0.189907 -8.31542 -7.452 -0.22032 -8.28739 -7.48033 -0.25061 
-8.25918 -7.50865 -0.280783 -8.23079 -7.53694 -0.310841 -8.20222 -7.5652 -0.340788 
-8.17348 -7.59345 -0.370629 -8.14457 -7.62168 -0.400367 -8.1155 -7.6499 -0.430006 
-8.08627 -7.6781 -0.459548 -8.05688 -7.70629 -0.488991 -8.02734 -7.73447 -0.518324 
-7.99766 -7.76263 -0.547539 -7.96784 -7.79079 -0.576626 -7.93789 -7.81894 -0.605578 
-7.90781 -7.84708 -0.634384 -7.8776 -7.87522 -0.663035 -7.84728 -7.90335 -0.691523 
-7.81684 -7.93148 -0.719839 -7.7863 -7.9596 -0.747973 -7.75565 -7.98773 -0.775917 
-7.72491 -8.01585 -0.803661 -7.69407 -8.04397 -0.831197 -7.66314 -8.0721 -0.858516 
-7.63213 -8.10023 -0.885607 -7.60105 -8.12836 -0.912463 -7.56989 -8.1565 -0.939075 
-7.53867 -8.18464 -0.965433 -7.50738 -8.21279 -0.991528 -7.47604 -8.24095 -1.01735 
-7.44464 -8.26912 -1.04291 -7.41316 -8.29732 -1.06821 -7.3816 -8.32555 -1.09327 
[...]
CELL_DATA 1
FIELD FieldData 2
Length 1 1 double
63.734833616 
Tortuosity 1 1 double
1.1283220417 
POINT_DATA 1275
SCALARS MaximumInscribedSphereRadius float
LOOKUP_TABLE default
0.93 0.952726 0.975452 0.998179 1.0209 1.04363 1.06636 1.08908 1.11181 
1.13454 1.15726 1.17999 1.20271 1.22544 1.24817 1.27089 1.29362 1.31634 
1.33907 1.3618 1.38452 1.39875 1.40173 1.40472 1.40771 1.4107 1.41368 
1.41667 1.41966 1.42265 1.42563 1.42862 1.43161 1.4346 1.43759 1.44057 
1.44356 1.44655 1.44954 1.45252 1.45551 1.45343 1.4444 1.43536 1.42633 
1.41729 1.40826 1.39922 1.39019 1.38115 1.37212 1.36308 1.35405 1.34501 
1.33598 1.32694 1.31791 1.30887 1.29984 1.2908 1.28177 1.27413 1.27292 
1.2717 1.27048 1.26926 1.26805 1.26683 1.26561 1.2644 1.26318 1.26196 
1.26075 1.25953 1.25831 1.2571 1.25588 1.25466 1.25345 1.25223 1.25101 
1.24979 1.24352 1.23671 1.2299 1.2231 1.21629 1.20948 1.20268 1.19587 
1.18906 1.18226 1.17545 1.16864 1.16184 1.15503 1.14822 1.14142 1.13461 
1.1278 1.121 1.11419 1.10714 1.09995 1.09276 1.08557 1.07838 1.07119 
1.06399 1.0568 1.04961 1.04242 1.03523 1.02804 1.02085 1.01366 1.00647 
0.99928 0.992089 0.984899 0.977708 0.970518 0.970198 0.981213 0.992229 1.00324 
1.01426 1.02527 1.03629 1.0473 1.05832 1.06934 1.08035 1.09137 1.10238 
1.1134 1.12441 1.13543 1.14644 1.15746 1.16847 1.17949 1.18937 1.19188 
1.1944 1.19692 1.19944 1.20195 1.20447 1.20699 1.20951 1.21202 1.21454 
1.21706 1.21958 1.2221 1.22461 1.22713 1.22965 1.23217 1.23468 1.2372 
1.23972 1.24 1.24 1.24 1.24 1.24 1.24 1.24 1.24 
1.24 1.24 1.24 1.24 1.24 1.24 1.24 1.24 1.24 
1.24 1.24 1.24 1.24 1.24 1.24 1.24 1.24 1.24 
1.24 1.24 1.24 1.24 1.24 1.24 1.24 1.24 1.24 
1.24 1.24 1.24 1.24 1.24 1.24 1.24 1.24 1.24 
1.24 1.24 1.24 1.24 1.24 1.24 1.24 1.24 1.24 
1.24 1.24 1.24 1.24 1.24 1.24 1.24 1.24079 1.25124 
1.26169 1.27214 1.28259 1.29303 1.30348 1.31393 1.32438 1.33483 1.34528 
1.35573 1.36618 1.37663 1.38708 1.39752 1.40797 1.41842 1.42887 1.43932 
1.44977 1.45532 1.46023 1.46513 1.47004 1.47495 1.47986 1.48476 1.48967 
1.49458 1.49949 1.50439 1.5093 1.51421 1.51912 1.52403 1.52893 1.53384 
1.53875 1.54366 1.54856 1.53731 1.51936 1.50141 1.48346 1.46551 1.44756 
1.42961 1.41166 1.39371 1.37577 1.35782 1.33987 1.32192 1.30397 1.28602 
1.26807 1.25012 1.23217 1.21422 1.19628 1.17591 1.15281 1.12972 1.10662 
1.08352 1.06042 1.03733 1.01423 0.99113 0.968032 0.944934 0.921836 0.898739 
0.875641 0.852543 0.829445 0.806347 0.78325 0.760152 0.737054 0.720422 0.727266 
0.734109 0.740953 0.747797 0.754641 0.761485 0.768328 0.775172 0.782016 0.78886 
0.795703 0.802547 0.809391 0.816235 0.823078 0.829922 0.836766 0.84361 0.850453 
0.857297 0.872304 0.887751 0.903198 0.918645 0.934092 0.94954 0.964987 0.980434 
0.995881 1.01133 1.02678 1.04222 1.05767 1.07312 1.08856 1.10401 1.11946 
1.13491 1.15035 1.1658 1.18323 1.20162 1.22001 1.2384 1.25679 1.27518 
1.29357 1.31197 1.33036 1.34875 1.36714 1.38553 1.40392 1.42231 1.4407 
1.45909 1.47748 1.49587 1.51427 1.53266 1.54971 1.56473 1.57975 1.59477 
1.60978 1.6248 1.63982 1.65484 1.66986 1.68487 1.69989 1.71491 1.72993 
1.74494 1.75996 1.77498 1.79 1.80501 1.82003 1.83505 1.8478 1.84411 
1.84042 1.83672 1.83303 1.82934 1.82564 1.82195 1.81826 1.81456 1.81087 
1.80717 1.80348 1.79979 1.79609 1.7924 1.78871 1.78501 1.78132 1.77763 
1.77393 1.78706 1.80225 1.81744 1.83263 1.84782 1.86301 1.8782 1.89339 
1.90858 1.92377 1.93896 1.95415 1.96934 1.98453 1.99972 2.01491 2.0301 
2.04529 2.06048 2.04785 2.0299 2.01195 1.994 1.97604 1.95809 1.94014 
1.92218 1.90423 1.88628 1.86833 1.85037 1.83242 1.81447 1.79651 1.77856 
1.76061 1.74266 1.7247 1.70675 1.70155 1.70271 1.70387 1.70503 1.70619 
1.70736 1.70852 1.70968 1.71084 1.712 1.71317 1.71433 1.71549 1.71665 
1.71781 1.71898 1.72014 1.7213 1.72246 1.72363 1.72721 1.73392 1.74063 
1.74733 1.75404 1.76075 1.76746 1.77417 1.78088 1.78758 1.79429 1.801 
1.80771 1.81442 1.82113 1.82783 1.83454 1.84125 1.84796 1.85467 1.86 
1.86 1.86 1.86 1.86 1.86 1.86 1.86 1.86 1.86 
1.86 1.86 1.86 1.86 1.86 1.86 1.86 1.86 1.86 
1.86 1.86 1.86 1.86 1.86 1.86 1.86 1.86 1.86 
1.86 1.86 1.86 1.86 1.86 1.86 1.86 1.86 1.86 
1.86 1.86 1.86 1.86 1.86634 1.87554 1.88473 1.89392 1.90312 
1.91231 1.9215 1.9307 1.93989 1.94908 1.95828 1.96747 1.97667 1.98586 
1.99505 2.00425 2.01344 2.02263 2.03183 2.04102 2.05222 2.06609 2.07996 
2.09383 2.10771 2.12158 2.13545 2.14932 2.16319 2.17706 2.19093 2.2048 
2.21868 2.23255 2.24642 2.26029 2.27416 2.28803 2.3019 2.31577 2.323 
2.30295 2.2829 2.26285 2.24279 2.22274 2.20269 2.18263 2.16258 2.14253 
2.12248 2.10242 2.08237 2.06232 2.04226 2.02221 2.00216 1.98211 1.96205 
1.942 1.92328 1.92007 1.91687 1.91366 1.91046 1.90725 1.90405 1.90084 
1.89764 1.89443 1.89123 1.88802 1.88482 1.88161 1.87841 1.8752 1.872 
1.86879 1.86559 1.86238 1.86 1.86 1.86 1.86 1.86 1.86 
1.86 1.86 1.86 1.86 1.86 1.86 1.86 1.86 1.86 
1.86 1.86 1.86 1.86 1.86 1.85939 1.8539 1.84841 1.84292 
1.83743 1.83194 1.82645 1.82096 1.81547 1.80998 1.80449 1.799 1.79351 
1.78802 1.78253 1.77704 1.77155 1.76606 1.76057 1.75509 1.7496 1.74334 
1.73699 1.73064 1.72429 1.71794 1.71159 1.70524 1.69889 1.69254 1.68619 
1.67984 1.67349 1.66714 1.66079 1.65444 1.64809 1.64174 1.63539 1.62904 
1.62269 1.62743 1.63838 1.64932 1.66027 1.67122 1.68217 1.69312 1.70406 
1.71501 1.72596 1.73691 1.74786 1.7588 1.76975 1.7807 1.79165 1.8026 
1.81355 1.82449 1.83544 1.84233 1.84232 1.84232 1.84231 1.84231 1.8423 
1.8423 1.84229 1.84228 1.84228 1.84227 1.84227 1.84226 1.84226 1.84225 
1.84225 1.84224 1.84224 1.84223 1.84222 1.84111 1.82913 1.81716 1.80519 
1.79321 1.78124 1.76927 1.7573 1.74532 1.73335 1.72138 1.7094 1.69743 
1.68546 1.67349 1.66151 1.64954 1.63757 1.62559 1.61362 1.60165 1.59888 
1.59766 1.59645 1.59523 1.59402 1.5928 1.59159 1.59037 1.58916 1.58794 
1.58673 1.58551 1.5843 1.58308 1.58187 1.58065 1.57944 1.57822 1.577 
1.57579 1.58141 1.59001 1.59862 1.60722 1.61583 1.62443 1.63304 1.64164 
1.65024 1.65885 1.66745 1.67606 1.68466 1.69327 1.70187 1.71048 1.71908 
1.72768 1.73629 1.74489 1.75199 1.75742 1.76284 1.76827 1.77369 1.77911 
1.78454 1.78996 1.79539 1.80081 1.80624 1.81166 1.81709 1.82251 1.82794 
1.83336 1.83879 1.84421 1.84964 1.85506 1.85931 1.85934 1.85938 1.85941 
1.85945 1.85948 1.85951 1.85955 1.85958 1.85962 1.85965 1.85969 1.85972 
1.85976 1.85979 1.85983 1.85986 1.85989 1.85993 1.85996 1.86 1.86 
1.86 1.86 1.86 1.86 1.86 1.86 1.86 1.86 1.86 
1.86 1.86 1.86 1.86 1.86 1.86 1.86 1.86 1.86 
1.86 1.86394 1.86968 1.87541 1.88115 1.88688 1.89262 1.89835 1.90409 
1.90982 1.91556 1.92129 1.92703 1.93276 1.9385 1.94423 1.94997 1.9557 
1.96144 1.96717 1.97291 1.97895 1.98542 1.99189 1.99836 2.00483 2.0113 
2.01777 2.02424 2.03071 2.03718 2.04365 2.05012 2.05659 2.06306 2.06952 
2.07599 2.08246 2.08893 2.0954 2.10187 2.10636 2.09763 2.0889 2.08017 
2.07144 2.06271 2.05398 2.04525 2.03651 2.02778 2.01905 2.01032 2.00159 
1.99286 1.98413 1.9754 1.96667 1.95794 1.94921 1.94048 1.93174 1.93446 
1.939 1.94354 1.94809 1.95263 1.95717 1.96171 1.96626 1.9708 1.97534 
1.97989 1.98443 1.98897 1.99352 1.99806 2.0026 2.00714 2.01169 2.01623 
2.02077 2.02896 2.03948 2.04999 2.06051 2.07103 2.08155 2.09207 2.10259 
2.11311 2.12362 2.13414 2.14466 2.15518 2.1657 2.17622 2.18674 2.19726 
2.20777 2.21829 2.22881 2.23901 2.24862 2.25823 2.26784 2.27745 2.28706 
2.29667 2.30628 2.31589 2.3255 2.33511 2.34472 2.35433 2.36393 2.37354 
2.38315 2.39276 2.40237 2.41198 2.42159 2.4299 2.4248 2.41971 2.41461 
2.40952 2.40442 2.39933 2.39423 2.38914 2.38405 2.37895 2.37386 2.36876 
2.36367 2.35857 2.35348 2.34838 2.34329 2.33819 2.3331 2.328 2.3206 
2.31272 2.30484 2.29696 2.28908 2.28119 2.27331 2.26543 2.25755 2.24967 
2.24179 2.23391 2.22603 2.21815 2.21027 2.20239 2.19451 2.18663 2.17875 
2.17087 2.16492 2.16031 2.15569 2.15108 2.14647 2.14186 2.13725 2.13264 
2.12803 2.12342 2.11881 2.1142 2.10959 2.10498 2.10036 2.09575 2.09114 
2.08653 2.08192 2.07731 2.07159 2.06409 2.0566 2.0491 2.04161 2.03412 
2.02662 2.01913 2.01164 2.00414 1.99665 1.98915 1.98166 1.97417 1.96667 
1.95918 1.95168 1.94419 1.9367 1.9292 1.92249 1.91938 1.91626 1.91315 
1.91003 1.90692 1.9038 1.90069 1.89757 1.89446 1.89134 1.88823 1.88511 
1.882 1.87888 1.87577 1.87265 1.86954 1.86643 1.86331 1.8602 1.86335 
1.86693 1.8705 1.87408 1.87765 1.88123 1.8848 1.88838 1.89195 1.89553 
1.8991 1.90268 1.90625 1.90983 1.9134 1.91698 1.92055 1.92413 1.9277 
1.93128 1.94516 1.96409 1.98302 2.00196 2.02089 2.03982 2.05875 2.07768 
2.09661 2.11554 2.13447 2.15341 2.17234 2.19127 2.2102 2.22913 2.24806 
2.26699 2.28593 2.30486 2.3195 2.32757 2.33564 2.34371 2.35179 2.35986 
2.36793 2.376 2.38407 2.39214 2.40021 2.40828 2.41635 2.42442 2.43249 
2.44056 2.44863 2.4567 2.46477 2.47284 2.48 2.48 2.48 2.48 
2.48 2.48 2.48 2.48 2.48 2.48 2.48 2.48 2.48 
2.48 2.48 2.48 2.48 2.48 2.48 2.48 2.48 2.48 
2.48 2.48 2.48 2.48 2.48 2.48 2.48 2.48 2.48 
2.48 2.48 2.48 2.48 2.48 2.48 2.48 2.48 2.48 
2.48 2.47087 2.45475 2.43863 2.4225 2.40638 2.39026 2.37414 2.35802 
2.3419 2.32578 2.30966 2.29353 2.27741 2.26129 2.24517 2.22905 2.21293 
2.19681 2.18069 2.16457 2.15035 2.14008 2.12982 2.11955 2.10929 2.09902 
2.08876 2.07849 2.06823 2.05796 2.0477 2.03743 2.02717 2.0169 2.00664 
1.99637 1.98611 1.97584 1.96558 1.95531 1.94689 1.95665 1.96642 1.97619 
1.98596 1.99573 2.0055 2.01527 2.02504 2.03481 2.04458 2.05434 2.06411 
2.07388 2.08365 2.09342 2.10319 2.11296 2.12273 2.1325 2.14227 2.13661 
2.1279 2.11919 2.11048 2.10177 2.09307 2.08436 2.07565 2.06694 2.05823 
2.04952 2.04081 2.0321 2.02339 2.01469 2.00598 1.99727 1.98856 1.97985 
1.97114 1.95864 1.94357 1.9285 1.91343 1.89836 1.88329 1.86822 1.85315 
1.83808 1.82301 1.80793 1.79286 1.77779 1.76272 1.74765 1.73258 1.71751 
1.70244 1.68737 1.6723 1.65391 1.63322 1.61252 1.59183 1.57113 1.55043 
1.52974 1.50904 1.48835 1.46765 1.44696 1.42626 1.40557 1.38487 1.36417 
1.34348 1.32278 1.30209 1.28139 1.2607 1.24 
TEXTURE_COORDINATES TCoords 2 float
0 0 0.000784929 0 0.00156986 0 0.00235479 0 0.00313972 
0 0.00392465 0 0.00470958 0 0.00549451 0 0.00627944 0 
0.00706436 0 0.00784929 0 0.00863422 0 0.00941915 0 0.0102041 
0 0.010989 0 0.0117739 0 0.0125589 0 0.0133438 0 
0.0141287 0 0.0149137 0 0.0156986 0 0.0164835 0 0.0172684 
0 0.0180534 0 0.0188383 0 0.0196232 0 0.0204082 0 
0.0211931 0 0.021978 0 0.022763 0 0.0235479 0 0.0243328 
0 0.0251177 0 0.0259027 0 0.0266876 0 0.0274725 0 
0.0282575 0 0.0290424 0 0.0298273 0 0.0306122 0 0.0313972 
0 0.0321821 0 0.032967 0 0.033752 0 0.0345369 0 
0.0353218 0 0.0361068 0 0.0368917 0 0.0376766 0 0.0384615 
0 0.0392465 0 0.0400314 0 0.0408163 0 0.0416013 0 
0.0423862 0 0.0431711 0 0.043956 0 0.044741 0 0.0455259 
0 0.0463108 0 0.0470958 0 0.0478807 0 0.0486656 0 
0.0494506 0 0.0502355 0 0.0510204 0 0.0518053 0 0.0525903 
0 0.0533752 0 0.0541601 0 0.0549451 0 0.05573 0 
0.0565149 0 0.0572998 0 0.0580848 0 0.0588697 0 0.0596546 
0 0.0604396 0 0.0612245 0 0.0620094 0 0.0627944 0 
0.0635793 0 0.0643642 0 0.0651491 0 0.0659341 0 0.066719 
0 0.0675039 0 0.0682889 0 0.0690738 0 0.0698587 0 
0.0706436 0 0.0714286 0 0.0722135 0 0.0729984 0 0.0737834 
0 0.0745683 0 0.0753532 0 0.0761381 0 0.0769231 0 
0.077708 0 0.0784929 0 0.0792779 0 0.0800628 0 0.0808477 
0 0.0816327 0 0.0824176 0 0.0832025 0 0.0839874 0 
0.0847724 0 0.0855573 0 0.0863422 0 0.0871272 0 0.0879121 
0 0.088697 0 0.0894819 0 0.0902669 0 0.0910518 0 
0.0918367 0 0.0926217 0 0.0934066 0 0.0941915 0 0.0949765 
0 0.0957614 0 0.0965463 0 0.0973312 0 0.0981162 0 
0.0989011 0 0.099686 0 0.100471 0 0.101256 0 0.102041 
0 0.102826 0 0.103611 0 0.104396 0 0.105181 0 
0.105965 0 0.10675 0 0.107535 0 0.10832 0 0.109105 
0 0.10989 0 0.110675 0 0.11146 0 0.112245 0 
0.11303 0 0.113815 0 0.1146 0 0.115385 0 0.11617 
0 0.116954 0 0.117739 0 0.118524 0 0.119309 0 
0.120094 0 0.120879 0 0.121664 0 0.122449 0 0.123234 
0 0.124019 0 0.124804 0 0.125589 0 0.126374 0 
0.127159 0 0.127943 0 0.128728 0 0.129513 0 0.130298 
0 0.131083 0 0.131868 0 0.132653 0 0.133438 0 
0.134223 0 0.135008 0 0.135793 0 0.136578 0 0.137363 
0 0.138148 0 0.138932 0 0.139717 0 0.140502 0 
0.141287 0 0.142072 0 0.142857 0 0.143642 0 0.144427 
0 0.145212 0 0.145997 0 0.146782 0 0.147567 0 
0.148352 0 0.149137 0 0.149922 0 0.150706 0 0.151491 
0 0.152276 0 0.153061 0 0.153846 0 0.154631 0 
0.155416 0 0.156201 0 0.156986 0 0.157771 0 0.158556 
0 0.159341 0 0.160126 0 0.160911 0 0.161695 0 
0.16248 0 0.163265 0 0.16405 0 0.164835 0 0.16562 
0 0.166405 0 0.16719 0 0.167975 0 0.16876 0 
0.169545 0 0.17033 0 0.171115 0 0.1719 0 0.172684 
0 0.173469 0 0.174254 0 0.175039 0 0.175824 0 
0.176609 0 0.177394 0 0.178179 0 0.178964 0 0.179749 
0 0.180534 0 0.181319 0 0.182104 0 0.182889 0 
0.183673 0 0.184458 0 0.185243 0 0.186028 0 0.186813 
0 0.187598 0 0.188383 0 0.189168 0 0.189953 0 
0.190738 0 0.191523 0 0.192308 0 0.193093 0 0.193878 
0 0.194662 0 0.195447 0 0.196232 0 0.197017 0 
0.197802 0 0.198587 0 0.199372 0 0.200157 0 0.200942 
0 0.201727 0 0.202512 0 0.203297 0 0.204082 0 
0.204867 0 0.205651 0 0.206436 0 0.207221 0 0.208006 
0 0.208791 0 0.209576 0 0.210361 0 0.211146 0 
0.211931 0 0.212716 0 0.213501 0 0.214286 0 0.215071 
0 0.215856 0 0.216641 0 0.217425 0 0.21821 0 
0.218995 0 0.21978 0 0.220565 0 0.22135 0 0.222135 
0 0.22292 0 0.223705 0 0.22449 0 0.225275 0 
0.22606 0 0.226845 0 0.22763 0 0.228414 0 0.229199 
0 0.229984 0 0.230769 0 0.231554 0 0.232339 0 
0.233124 0 0.233909 0 0.234694 0 0.235479 0 0.236264 
0 0.237049 0 0.237834 0 0.238619 0 0.239403 0 
0.240188 0 0.240973 0 0.241758 0 0.242543 0 0.243328 
0 0.244113 0 0.244898 0 0.245683 0 0.246468 0 
0.247253 0 0.248038 0 0.248823 0 0.249608 0 0.250392 
0 0.251177 0 0.251962 0 0.252747 0 0.253532 0 
0.254317 0 0.255102 0 0.255887 0 0.256672 0 0.257457 
0 0.258242 0 0.259027 0 0.259812 0 0.260597 0 
0.261381 0 0.262166 0 0.262951 0 0.263736 0 0.264521 
0 0.265306 0 0.266091 0 0.266876 0 0.267661 0 
0.268446 0 0.269231 0 0.270016 0 0.270801 0 0.271586 
0 0.27237 0 0.273155 0 0.27394 0 0.274725 0 
0.27551 0 0.276295 0 0.27708 0 0.277865 0 0.27865 
0 0.279435 0 0.28022 0 0.281005 0 0.28179 0 
0.282575 0 0.283359 0 0.284144 0 0.284929 0 0.285714 
0 0.286499 0 0.287284 0 0.288069 0 0.288854 0 
0.289639 0 0.290424 0 0.291209 0 0.291994 0 0.292779 
0 0.293564 0 0.294349 0 0.295133 0 0.295918 0 
0.296703 0 0.297488 0 0.298273 0 0.299058 0 0.299843 
0 0.300628 0 0.301413 0 0.302198 0 0.302983 0 
0.303768 0 0.304553 0 0.305338 0 0.306122 0 0.306907 
0 0.307692 0 0.308477 0 0.309262 0 0.310047 0 
0.310832 0 0.311617 0 0.312402 0 0.313187 0 0.313972 
0 0.314757 0 0.315542 0 0.316327 0 0.317111 0 
0.317896 0 0.318681 0 0.319466 0 0.320251 0 0.321036 
0 0.321821 0 0.322606 0 0.323391 0 0.324176 0 
0.324961 0 0.325746 0 0.326531 0 0.327316 0 0.3281 
0 0.328885 0 0.32967 0 0.330455 0 0.33124 0 
0.332025 0 0.33281 0 0.333595 0 0.33438 0 0.335165 
0 0.33595 0 0.336735 0 0.33752 0 0.338305 0 
0.339089 0 0.339874 0 0.340659 0 0.341444 0 0.342229 
0 0.343014 0 0.343799 0 0.344584 0 0.345369 0 
0.346154 0 0.346939 0 0.347724 0 0.348509 0 0.349294 
0 0.350078 0 0.350863 0 0.351648 0 0.352433 0 
0.353218 0 0.354003 0 0.354788 0 0.355573 0 0.356358 
0 0.357143 0 0.357928 0 0.358713 0 0.359498 0 
0.360283 0 0.361068 0 0.361852 0 0.362637 0 0.363422 
0 0.364207 0 0.364992 0 0.365777 0 0.366562 0 
0.367347 0 0.368132 0 0.368917 0 0.369702 0 0.370487 
0 0.371272 0 0.372057 0 0.372841 0 0.373626 0 
0.374411 0 0.375196 0 0.375981 0 0.376766 0 0.377551 
0 0.378336 0 0.379121 0 0.379906 0 0.380691 0 
0.381476 0 0.382261 0 0.383046 0 0.38383 0 0.384615 
0 0.3854 0 0.386185 0 0.38697 0 0.387755 0 
0.38854 0 0.389325 0 0.39011 0 0.390895 0 0.39168 
0 0.392465 0 0.39325 0 0.394035 0 0.394819 0 
0.395604 0 0.396389 0 0.397174 0 0.397959 0 0.398744 
0 0.399529 0 0.400314 0 0.401099 0 0.401884 0 
0.402669 0 0.403454 0 0.404239 0 0.405024 0 0.405808 
0 0.406593 0 0.407378 0 0.408163 0 0.408948 0 
0.409733 0 0.410518 0 0.411303 0 0.412088 0 0.412873 
0 0.413658 0 0.414443 0 0.415228 0 0.416013 0 
0.416797 0 0.417582 0 0.418367 0 0.419152 0 0.419937 
0 0.420722 0 0.421507 0 0.422292 0 0.423077 0 
0.423862 0 0.424647 0 0.425432 0 0.426217 0 0.427002 
0 0.427786 0 0.428571 0 0.429356 0 0.430141 0 
0.430926 0 0.431711 0 0.432496 0 0.433281 0 0.434066 
0 0.434851 0 0.435636 0 0.436421 0 0.437206 0 
0.437991 0 0.438776 0 0.43956 0 0.440345 0 0.44113 
0 0.441915 0 0.4427 0 0.443485 0 0.44427 0 
0.445055 0 0.44584 0 0.446625 0 0.44741 0 0.448195 
0 0.44898 0 0.449765 0 0.450549 0 0.451334 0 
0.452119 0 0.452904 0 0.453689 0 0.454474 0 0.455259 
0 0.456044 0 0.456829 0 0.457614 0 0.458399 0 
0.459184 0 0.459969 0 0.460754 0 0.461538 0 0.462323 
0 0.463108 0 0.463893 0 0.464678 0 0.465463 0 
0.466248 0 0.467033 0 0.467818 0 0.468603 0 0.469388 
0 0.470173 0 0.470958 0 0.471743 0 0.472527 0 
0.473312 0 0.474097 0 0.474882 0 0.475667 0 0.476452 
0 0.477237 0 0.478022 0 0.478807 0 0.479592 0 
0.480377 0 0.481162 0 0.481947 0 0.482732 0 0.483516 
0 0.484301 0 0.485086 0 0.485871 0 0.486656 0 
0.487441 0 0.488226 0 0.489011 0 0.489796 0 0.490581 
0 0.491366 0 0.492151 0 0.492936 0 0.493721 0 
0.494505 0 0.49529 0 0.496075 0 0.49686 0 0.497645 
0 0.49843 0 0.499215 0 0.5 0 0.500785 0 
0.50157 0 0.502355 0 0.50314 0 0.503925 0 0.50471 
0 0.505495 0 0.506279 0 0.507064 0 0.507849 0 
0.508634 0 0.509419 0 0.510204 0 0.510989 0 0.511774 
0 0.512559 0 0.513344 0 0.514129 0 0.514914 0 
0.515699 0 0.516484 0 0.517268 0 0.518053 0 0.518838 
0 0.519623 0 0.520408 0 0.521193 0 0.521978 0 
0.522763 0 0.523548 0 0.524333 0 0.525118 0 0.525903 
0 0.526688 0 0.527473 0 0.528257 0 0.529042 0 
0.529827 0 0.530612 0 0.531397 0 0.532182 0 0.532967 
0 0.533752 0 0.534537 0 0.535322 0 0.536107 0 
0.536892 0 0.537677 0 0.538462 0 0.539246 0 0.540031 
0 0.540816 0 0.541601 0 0.542386 0 0.543171 0 
0.543956 0 0.544741 0 0.545526 0 0.546311 0 0.547096 
0 0.547881 0 0.548666 0 0.549451 0 0.550235 0 
0.55102 0 0.551805 0 0.55259 0 0.553375 0 0.55416 
0 0.554945 0 0.55573 0 0.556515 0 0.5573 0 
0.558085 0 0.55887 0 0.559655 0 0.56044 0 0.561224 
0 0.562009 0 0.562794 0 0.563579 0 0.564364 0 
0.565149 0 0.565934 0 0.566719 0 0.567504 0 0.568289 
0 0.569074 0 0.569859 0 0.570644 0 0.571429 0 
0.572214 0 0.572998 0 0.573783 0 0.574568 0 0.575353 
0 0.576138 0 0.576923 0 0.577708 0 0.578493 0 
0.579278 0 0.580063 0 0.580848 0 0.581633 0 0.582418 
0 0.583203 0 0.583987 0 0.584772 0 0.585557 0 
0.586342 0 0.587127 0 0.587912 0 0.588697 0 0.589482 
0 0.590267 0 0.591052 0 0.591837 0 0.592622 0 
0.593407 0 0.594192 0 0.594976 0 0.595761 0 0.596546 
0 0.597331 0 0.598116 0 0.598901 0 0.599686 0 
0.600471 0 0.601256 0 0.602041 0 0.602826 0 0.603611 
0 0.604396 0 0.605181 0 0.605965 0 0.60675 0 
0.607535 0 0.60832 0 0.609105 0 0.60989 0 0.610675 
0 0.61146 0 0.612245 0 0.61303 0 0.613815 0 
0.6146 0 0.615385 0 0.61617 0 0.616954 0 0.617739 
0 0.618524 0 0.619309 0 0.620094 0 0.620879 0 
0.621664 0 0.622449 0 0.623234 0 0.624019 0 0.624804 
0 0.625589 0 0.626374 0 0.627159 0 0.627943 0 
0.628728 0 0.629513 0 0.630298 0 0.631083 0 0.631868 
0 0.632653 0 0.633438 0 0.634223 0 0.635008 0 
0.635793 0 0.636578 0 0.637363 0 0.638148 0 0.638932 
0 0.639717 0 0.640502 0 0.641287 0 0.642072 0 
0.642857 0 0.643642 0 0.644427 0 0.645212 0 0.645997 
0 0.646782 0 0.647567 0 0.648352 0 0.649137 0 
0.649922 0 0.650706 0 0.651491 0 0.652276 0 0.653061 
0 0.653846 0 0.654631 0 0.655416 0 0.656201 0 
0.656986 0 0.657771 0 0.658556 0 0.659341 0 0.660126 
0 0.660911 0 0.661695 0 0.66248 0 0.663265 0 
0.66405 0 0.664835 0 0.66562 0 0.666405 0 0.66719 
0 0.667975 0 0.66876 0 0.669545 0 0.67033 0 
0.671115 0 0.6719 0 0.672684 0 0.673469 0 0.674254 
0 0.675039 0 0.675824 0 0.676609 0 0.677394 0 
0.678179 0 0.678964 0 0.679749 0 0.680534 0 0.681319 
0 0.682104 0 0.682889 0 0.683673 0 0.684458 0 
0.685243 0 0.686028 0 0.686813 0 0.687598 0 0.688383 
0 0.689168 0 0.689953 0 0.690738 0 0.691523 0 
0.692308 0 0.693093 0 0.693878 0 0.694662 0 0.695447 
0 0.696232 0 0.697017 0 0.697802 0 0.698587 0 