# vtk DataFile Version 4.2
vtk output
ASCII
DATASET POLYDATA
POINTS 1278 float
0 0 0 -0.00336385 0.002436 -0.000125238 -0.0131873 0.00950916 -0.00046481 
-0.0290681 0.0208672 -0.000964501 -0.0506041 0.0361579 -0.0015701 -0.0773931 0.0550289 -0.00222739 
-0.109033 0.0771281 -0.00288215 -0.145121 0.102103 -0.00348019 -0.185256 0.129602 -0.00396727 
-0.229035 0.159271 -0.00428919 -0.276056 0.19076 -0.00439173 -0.325917 0.223716 -0.00422068 
-0.378216 0.257786 -0.00372182 -0.43255 0.292618 -0.00284095 -0.488518 0.327861 -0.00152384 
-0.545716 0.363161 0.00028371 -0.603743 0.398166 0.00263592 -0.662197 0.432525 0.00558701 
-0.720676 0.465885 0.00919119 -0.778777 0.497893 0.0135027 -0.836098 0.528198 0.0185757 
-0.892237 0.556446 0.0244644 -0.946911 0.582399 0.0312005 -1.00016 0.606124 0.0387537 
-1.0521 0.627742 0.0470829 -1.10281 0.647376 0.056147 -1.15241 0.665146 0.0659051 
-1.20098 0.681173 0.0763161 -1.24864 0.69558 0.0873388 -1.29549 0.708488 0.0989324 
-1.34162 0.720018 0.111056 -1.38714 0.730292 0.123668 -1.43214 0.73943 0.136727 
-1.47674 0.747555 0.150193 -1.52102 0.754788 0.164025 -1.56509 0.76125 0.178181 
-1.60905 0.767063 0.192621 -1.653 0.772348 0.207303 -1.69705 0.777227 0.222186 
-1.74128 0.781821 0.23723 -1.78581 0.786251 0.252393 -1.83074 0.790634 0.267636 
-1.87608 0.795009 0.282941 -1.92181 0.799352 0.29831 -1.9679 0.803636 0.313744 
-2.01433 0.807837 0.329246 -2.06106 0.811929 0.344817 -2.10806 0.815884 0.360459 
-2.15531 0.819679 0.376174 -2.20277 0.823286 0.391963 -2.25042 0.82668 0.407828 
-2.29823 0.829835 0.423771 -2.34616 0.832725 0.439794 -2.3942 0.835325 0.455899 
-2.4423 0.837608 0.472086 -2.49044 0.83955 0.488359 -2.5386 0.841123 0.504718 
-2.58673 0.842302 0.521166 -2.63482 0.843062 0.537704 -2.68284 0.843376 0.554335 
-2.73075 0.843218 0.571059 -2.77852 0.842564 0.587878 -2.82614 0.841396 0.604793 
-2.8736 0.839727 0.621795 -2.92093 0.837572 0.638878 -2.96812 0.834947 0.656031 
-3.01519 0.831867 0.673249 -3.06213 0.82835 0.690522 -3.10897 0.824409 0.707842 
-3.15571 0.820062 0.725202 -3.20236 0.815323 0.742593 -3.24892 0.81021 0.760007 
-3.29541 0.804737 0.777435 -3.34183 0.79892 0.794871 -3.38819 0.792775 0.812305 
-3.4345 0.786318 0.82973 -3.48077 0.779565 0.847138 -3.527 0.772531 0.86452 
-3.57321 0.765232 0.881868 -3.61941 0.757684 0.899175 -3.66559 0.749904 0.916431 
-3.71177 0.741905 0.93363 -3.75796 0.733704 0.950763 -3.80416 0.725302 0.967829 
-3.85036 0.716699 0.984829 -3.89656 0.707894 1.00176 -3.94276 0.698886 1.01863 
-3.98896 0.689675 1.03543 -4.03515 0.68026 1.05216 -4.08134 0.670641 1.06882 
-4.12751 0.660815 1.08542 -4.17367 0.650784 1.10195 -4.21982 0.640545 1.11842 
-4.26595 0.630099 1.13482 -4.31206 0.619444 1.15115 -4.35814 0.60858 1.16742 
-4.4042 0.597506 1.18362 -4.45024 0.586221 1.19976 -4.49624 0.574724 1.21582 
-4.54221 0.563016 1.23183 -4.58815 0.551094 1.24776 -4.63405 0.538959 1.26363 
-4.67991 0.526609 1.27944 -4.72573 0.514047 1.29518 -4.77151 0.501273 1.31086 
-4.81724 0.488291 1.32647 -4.86294 0.475104 1.34203 -4.90859 0.461713 1.35753 
-4.9542 0.448122 1.37297 -4.99976 0.434333 1.38836 -5.04528 0.420348 1.4037 
-5.09076 0.40617 1.41898 -5.13619 0.391802 1.43422 -5.18158 0.377245 1.44941 
-5.22692 0.362503 1.46456 -5.27221 0.347578 1.47966 -5.31746 0.332473 1.49472 
-5.36267 0.31719 1.50974 -5.40782 0.301731 1.52473 -5.45293 0.2861 1.53967 
-5.49799 0.270298 1.55458 -5.543 0.254328 1.56946 -5.58796 0.238193 1.58431 
-5.63288 0.221895 1.59913 -5.67774 0.205436 1.61393 -5.72255 0.188816 1.62871 
-5.7673 0.172038 1.64347 -5.812 0.155103 1.65823 -5.85664 0.138013 1.67298 
-5.90123 0.120769 1.68773 -5.94575 0.103373 1.70248 -5.99021 0.0858262 1.71724 
-6.03461 0.0681303 1.73201 -6.07894 0.0502867 1.74681 -6.12321 0.0322971 1.76162 
-6.16741 0.014163 1.77646 -6.21154 -0.00411407 1.79134 -6.2556 -0.0225325 1.80625 
-6.29959 -0.0410908 1.8212 -6.3435 -0.0597874 1.8362 -6.38734 -0.0786208 1.85125 
-6.4311 -0.0975894 1.86635 -6.47478 -0.116692 1.88151 -6.51839 -0.135926 1.89674 
-6.56191 -0.15529 1.91203 -6.60535 -0.174781 1.9274 -6.64871 -0.194397 1.94285 
-6.69198 -0.214136 1.95838 -6.73516 -0.233995 1.97399 -6.77826 -0.253971 1.9897 
-6.82126 -0.274063 2.00551 -6.86418 -0.294269 2.02141 -6.907 -0.314584 2.03742 
-6.94973 -0.335008 2.05355 -6.99237 -0.355538 2.06978 -7.03491 -0.376172 2.08614 
-7.07735 -0.396906 2.10262 -7.11969 -0.417739 2.11923 -7.16193 -0.438669 2.13597 
-7.20407 -0.459692 2.15285 -7.24611 -0.480807 2.16987 -7.28804 -0.502012 2.18704 
-7.32986 -0.523303 2.20436 -7.37158 -0.544678 2.22183 -7.41319 -0.566136 2.23947 
-7.45469 -0.587674 2.25726 -7.49608 -0.609291 2.27521 -7.53737 -0.630984 2.29332 
-7.57854 -0.652752 2.31159 -7.61961 -0.674592 2.33002 -7.66057 -0.696502 2.3486 
-7.70142 -0.718482 2.36735 -7.74215 -0.740527 2.38626 -7.78278 -0.762638 2.40533 
-7.8233 -0.784811 2.42457 -7.86371 -0.807044 2.44396 -7.90401 -0.829337 2.46352 
-7.94419 -0.851686 2.48324 -7.98427 -0.87409 2.50313 -8.02424 -0.896546 2.52318 
-8.06409 -0.919054 2.54339 -8.10383 -0.94161 2.56377 -8.14346 -0.964213 2.58431 
-8.18298 -0.986861 2.60502 -8.22239 -1.00955 2.62589 -8.26169 -1.03229 2.64691 
-8.30089 -1.05507 2.66808 -8.33998 -1.07791 2.6894 -8.37897 -1.10078 2.71084 
-8.41786 -1.12371 2.73241 -8.45666 -1.14668 2.7541 -8.49537 -1.16971 2.7759 
-8.53398 -1.19279 2.79781 -8.57251 -1.21592 2.81981 -8.61095 -1.2391 2.8419 
-8.64931 -1.26233 2.86407 -8.68759 -1.28562 2.88631 -8.72579 -1.30896 2.90862 
-8.76392 -1.33236 2.931 -8.80197 -1.35582 2.95342 -8.83996 -1.37933 2.97589 
-8.87788 -1.40291 2.99839 -8.91573 -1.42654 3.02093 -8.95352 -1.45023 3.04349 
-8.99125 -1.47399 3.06606 -9.02893 -1.49781 3.08863 -9.06657 -1.52171 3.11118 
-9.10418 -1.54569 3.13369 -9.14175 -1.56977 3.15615 -9.17931 -1.59394 3.17854 
-9.21685 -1.61821 3.20084 -9.25438 -1.6426 3.22304 -9.29192 -1.6671 3.24512 
-9.32947 -1.69173 3.26706 -9.36704 -1.7165 3.28884 -9.40463 -1.7414 3.31046 
-9.44225 -1.76645 3.33189 -9.47992 -1.79165 3.35311 -9.51763 -1.81701 3.37412 
-9.5554 -1.84254 3.39488 -9.59324 -1.86824 3.4154 -9.63114 -1.89413 3.43564 
-9.66913 -1.9202 3.45559 -9.7072 -1.94647 3.47523 -9.74536 -1.97294 3.49456 
-9.78361 -1.99962 3.51352 -9.82194 -2.02652 3.53208 -9.86036 -2.05363 3.55019 
-9.89884 -2.08097 3.56782 -9.93738 -2.10853 3.58492 -9.97598 -2.13633 3.60145 
-10.0146 -2.16437 3.61737 -10.0533 -2.19266 3.63264 -10.0921 -2.2212 3.64721 
-10.1308 -2.24999 3.66105 -10.1696 -2.27905 3.6741 -10.2084 -2.30837 3.68634 
-10.2473 -2.33796 3.69772 -10.2861 -2.36784 3.70819 -10.3249 -2.39799 3.71771 
-10.3638 -2.42844 3.72625 -10.4026 -2.45918 3.73376 -10.4414 -2.49021 3.7402 
-10.4801 -2.52155 3.74553 -10.5189 -2.5532 3.7497 -10.5576 -2.58516 3.75271 
-10.5962 -2.61739 3.75456 -10.6347 -2.64989 3.75525 -10.673 -2.68263 3.7548 
-10.7112 -2.7156 3.7532 -10.7492 -2.74878 3.75047 -10.787 -2.78216 3.74662 
-10.8245 -2.8157 3.74164 -10.8617 -2.8494 3.73554 -10.8986 -2.88324 3.72833 
-10.9352 -2.91719 3.72003 -10.9714 -2.95124 3.71062 -11.0072 -2.98538 3.70012 
-11.0426 -3.01958 3.68854 -11.0776 -3.05382 3.67588 -11.112 -3.08809 3.66215 
-11.1459 -3.12237 3.64736 -11.1793 -3.15664 3.63151 -11.2122 -3.19088 3.6146 
-11.2444 -3.22507 3.59665 -11.276 -3.25921 3.57767 -11.307 -3.2933 3.5577 
-11.3374 -3.32732 3.53677 -11.3672 -3.36129 3.51491 -11.3964 -3.3952 3.49217 
-11.425 -3.42906 3.46857 -11.4529 -3.46286 3.44415 -11.4803 -3.49661 3.41895 
-11.5071 -3.5303 3.393 -11.5333 -3.56393 3.36633 -11.559 -3.59751 3.33898 
-11.584 -3.63104 3.31098 -11.6085 -3.66451 3.28237 -11.6324 -3.69792 3.25318 
-11.6557 -3.73128 3.22345 -11.6784 -3.76459 3.19321 -11.7006 -3.79784 3.1625 
-11.7222 -3.83104 3.13135 -11.7433 -3.86418 3.0998 -11.7638 -3.89727 3.06787 
-11.7837 -3.93031 3.03561 -11.8031 -3.9633 3.00301 -11.8219 -3.99624 2.9701 
-11.8402 -4.02913 2.93689 -11.858 -4.06199 2.90337 -11.8752 -4.09481 2.86958 
-11.8918 -4.12759 2.83551 -11.908 -4.16035 2.80117 -11.9236 -4.19307 2.76659 
-11.9387 -4.22577 2.73176 -11.9532 -4.25845 2.69671 -11.9673 -4.29111 2.66144 
-11.9808 -4.32376 2.62596 -11.9939 -4.35639 2.59028 -12.0064 -4.38902 2.55442 
-12.0184 -4.42164 2.51839 -12.03 -4.45426 2.48219 -12.041 -4.48687 2.44584 
-12.0515 -4.5195 2.40934 -12.0616 -4.55212 2.37272 -12.0712 -4.58476 2.33598 
-12.0803 -4.61741 2.29912 -12.0889 -4.65008 2.26216 -12.097 -4.68275 2.2251 
-12.1047 -4.71544 2.18795 -12.1119 -4.74815 2.15072 -12.1186 -4.78088 2.11342 
-12.1249 -4.81362 2.07604 -12.1307 -4.84639 2.03861 -12.1361 -4.87918 2.00112 
-12.141 -4.91198 1.96359 -12.1454 -4.94482 1.92602 -12.1495 -4.97768 1.88841 
-12.153 -5.01056 1.85078 -12.1561 -5.04347 1.81314 -12.1588 -5.07641 1.77548 
-12.1611 -5.10938 1.73782 -12.1629 -5.14238 1.70017 -12.1643 -5.17541 1.66253 
-12.1653 -5.20848 1.62491 -12.1658 -5.24158 1.58732 -12.1659 -5.27472 1.54976 
-12.1656 -5.30789 1.51223 -12.1649 -5.34111 1.47475 -12.1638 -5.37436 1.43732 
-12.1623 -5.40765 1.39994 -12.1603 -5.44098 1.36262 -12.158 -5.47436 1.32536 
-12.1553 -5.50778 1.28816 -12.1522 -5.54124 1.25104 -12.1487 -5.57475 1.214 
-12.1448 -5.6083 1.17704 -12.1405 -5.6419 1.14017 -12.1359 -5.67556 1.10339 
-12.1308 -5.70926 1.06671 -12.1254 -5.74301 1.03012 -12.1197 -5.77681 0.993651 
-12.1135 -5.81067 0.957289 -12.1071 -5.84458 0.921045 -12.1002 -5.87854 0.884922 
-12.093 -5.91257 0.848927 -12.0855 -5.94664 0.813063 -12.0776 -5.98078 0.777333 
-12.0693 -6.01498 0.741739 -12.0607 -6.04923 0.706286 -12.0518 -6.08355 0.670975 
-12.0426 -6.11793 0.63581 -12.033 -6.15237 0.600792 -12.0231 -6.18687 0.565926 
-12.0128 -6.22144 0.531214 -12.0023 -6.25608 0.496658 -11.9914 -6.29078 0.462262 
-11.9802 -6.32554 0.428028 -11.9687 -6.36038 0.39396 -11.9569 -6.39529 0.360059 
-11.9448 -6.43026 0.32633 -11.9324 -6.46531 0.292773 -11.9197 -6.50043 0.259394 
-11.9067 -6.53562 0.226194 -11.8934 -6.57088 0.193175 -11.8798 -6.60622 0.160342 
-11.8659 -6.64163 0.127698 -11.8517 -6.67713 0.0952521 -11.8373 -6.7127 0.0630137 
[...]
CELL_DATA 1
FIELD FieldData 2
Length 1 1 double
63.874396957 
Tortuosity 1 1 double
0.87346470658 
POINT_DATA 1278
SCALARS MaximumInscribedSphereRadius float
LOOKUP_TABLE default
1.2772 1.26667 1.25613 1.2456 1.23506 1.22453 1.21399 1.20346 1.19293 
1.18239 1.17186 1.16132 1.15079 1.14025 1.12972 1.11919 1.10865 1.09812 
1.08758 1.07705 1.06651 1.05723 1.05673 1.05624 1.05574 1.05524 1.05475 
1.05425 1.05375 1.05326 1.05276 1.05226 1.05177 1.05127 1.05078 1.05028 
1.04978 1.04929 1.04879 1.04829 1.0478 1.05214 1.05997 1.0678 1.07563 
1.08346 1.09129 1.09911 1.10694 1.11477 1.1226 1.13043 1.13825 1.14608 
1.15391 1.16174 1.16957 1.1774 1.18522 1.19305 1.20088 1.20786 1.20946 
1.21105 1.21265 1.21425 1.21585 1.21744 1.21904 1.22064 1.22223 1.22383 
1.22543 1.22703 1.22862 1.23022 1.23182 1.23342 1.23501 1.23661 1.23821 
1.23981 1.23644 1.2324 1.22835 1.22431 1.22026 1.21622 1.21217 1.20813 
1.20408 1.20003 1.19599 1.19194 1.1879 1.18385 1.17981 1.17576 1.17171 
1.16767 1.16362 1.15958 1.15474 1.14935 1.14397 1.13859 1.1332 1.12782 
1.12244 1.11705 1.11167 1.10629 1.1009 1.09552 1.09014 1.08476 1.07937 
1.07399 1.06861 1.06322 1.05784 1.05246 1.05051 1.05615 1.06179 1.06743 
1.07307 1.07871 1.08435 1.08999 1.09563 1.10127 1.10691 1.11255 1.11819 
1.12383 1.12947 1.13511 1.14075 1.1464 1.15204 1.15768 1.16335 1.17031 
1.17727 1.18423 1.19119 1.19816 1.20512 1.21208 1.21904 1.226 1.23296 
1.23992 1.24688 1.25384 1.2608 1.26776 1.27472 1.28168 1.28864 1.2956 
1.30256 1.30739 1.31148 1.31557 1.31967 1.32376 1.32785 1.33195 1.33604 
1.34014 1.34423 1.34832 1.35242 1.35651 1.3606 1.3647 1.36879 1.37288 
1.37698 1.38107 1.38517 1.38732 1.38721 1.3871 1.38699 1.38688 1.38677 
1.38666 1.38655 1.38644 1.38633 1.38621 1.3861 1.38599 1.38588 1.38577 
1.38566 1.38555 1.38544 1.38533 1.38522 1.38482 1.38305 1.38129 1.37953 
1.37776 1.376 1.37424 1.37247 1.37071 1.36895 1.36718 1.36542 1.36366 
1.36189 1.36013 1.35836 1.3566 1.35484 1.35307 1.35131 1.34955 1.34403 
1.33807 1.33211 1.32615 1.32019 1.31423 1.30827 1.30231 1.29635 1.29039 
1.28443 1.27847 1.27251 1.26655 1.26059 1.25463 1.24867 1.24271 1.23675 
1.23079 1.23025 1.23316 1.23607 1.23898 1.24189 1.24479 1.2477 1.25061 
1.25352 1.25643 1.25934 1.26225 1.26516 1.26807 1.27098 1.27389 1.2768 
1.2797 1.28261 1.28552 1.28973 1.29567 1.30161 1.30756 1.3135 1.31945 
1.32539 1.33133 1.33728 1.34322 1.34916 1.35511 1.36105 1.36699 1.37294 
1.37888 1.38482 1.39077 1.39671 1.40265 1.40283 1.37608 1.34933 1.32258 
1.29584 1.26909 1.24234 1.21559 1.18884 1.16209 1.13534 1.10859 1.08184 
1.05509 1.02834 1.00159 0.974845 0.948096 0.921347 0.894598 0.867849 0.867383 
0.869583 0.871784 0.873984 0.876184 0.878385 0.880585 0.882786 0.884986 0.887186 
0.889387 0.891587 0.893788 0.895988 0.898188 0.900389 0.902589 0.90479 0.90699 
0.90919 0.922504 0.942297 0.962091 0.981885 1.00168 1.02147 1.04127 1.06106 
1.08085 1.10065 1.12044 1.14024 1.16003 1.17982 1.19962 1.21941 1.2392 
1.259 1.27879 1.29859 1.32024 1.34527 1.37031 1.39534 1.42038 1.44542 
1.47045 1.49549 1.52052 1.54556 1.57059 1.59563 1.62067 1.6457 1.67074 
1.69577 1.72081 1.74584 1.77088 1.79592 1.8199 1.83094 1.84197 1.85301 
1.86405 1.87508 1.88612 1.89716 1.9082 1.91923 1.93027 1.94131 1.95234 
1.96338 1.97442 1.98545 1.99649 2.00753 2.01857 2.0296 2.04064 2.02917 
2.01178 1.99438 1.97699 1.95959 1.9422 1.9248 1.90741 1.89001 1.87262 
1.85522 1.83783 1.82043 1.80304 1.78564 1.76825 1.75085 1.73346 1.71606 
1.69867 1.68702 1.6801 1.67318 1.66626 1.65934 1.65242 1.6455 1.63858 
1.63166 1.62474 1.61783 1.61091 1.60399 1.59707 1.59015 1.58323 1.57631 
1.56939 1.56247 1.55555 1.55213 1.56286 1.57358 1.58431 1.59504 1.60577 
1.6165 1.62723 1.63796 1.64869 1.65942 1.67015 1.68088 1.69161 1.70234 
1.71307 1.7238 1.73453 1.74526 1.75599 1.76336 1.75911 1.75487 1.75063 
1.74639 1.74215 1.7379 1.73366 1.72942 1.72518 1.72094 1.71669 1.71245 
1.70821 1.70397 1.69973 1.69548 1.69124 1.687 1.68276 1.67883 1.67777 
1.67671 1.67565 1.67459 1.67354 1.67248 1.67142 1.67036 1.6693 1.66825 
1.66719 1.66613 1.66507 1.66401 1.66296 1.6619 1.66084 1.65978 1.65872 
1.65766 1.66325 1.66964 1.67602 1.68241 1.6888 1.69519 1.70158 1.70796 
1.71435 1.72074 1.72713 1.73352 1.7399 1.74629 1.75268 1.75907 1.76546 
1.77184 1.77823 1.78462 1.78418 1.77893 1.77367 1.76842 1.76317 1.75792 
1.75267 1.74742 1.74216 1.73691 1.73166 1.72641 1.72116 1.71591 1.71065 
1.7054 1.70015 1.6949 1.68965 1.6844 1.67789 1.66854 1.65919 1.64984 
1.64049 1.63115 1.6218 1.61245 1.6031 1.59375 1.5844 1.57505 1.5657 
1.55635 1.547 1.53765 1.52831 1.51896 1.50961 1.50026 1.49096 1.48408 
1.4772 1.47032 1.46344 1.45655 1.44967 1.44279 1.43591 1.42903 1.42215 
1.41526 1.40838 1.4015 1.39462 1.38774 1.38086 1.37397 1.36709 1.36021 
1.35333 1.35991 1.37119 1.38246 1.39374 1.40502 1.41629 1.42757 1.43885 
1.45012 1.4614 1.47268 1.48395 1.49523 1.50651 1.51778 1.52906 1.54033 
1.55161 1.56289 1.57416 1.58604 1.59857 1.61111 1.62365 1.63618 1.64872 
1.66126 1.67379 1.68633 1.69887 1.7114 1.72394 1.73648 1.74901 1.76155 
1.77409 1.78662 1.79916 1.8117 1.82423 1.8343 1.83558 1.83687 1.83815 
1.83943 1.84071 1.842 1.84328 1.84456 1.84584 1.84713 1.84841 1.84969 
1.85097 1.85225 1.85354 1.85482 1.8561 1.85738 1.85867 1.85995 1.85967 
1.85933 1.859 1.85866 1.85832 1.85798 1.85764 1.8573 1.85696 1.85662 
1.85628 1.85594 1.8556 1.85526 1.85492 1.85458 1.85424 1.8539 1.85357 
1.85323 1.84983 1.84504 1.84025 1.83546 1.83067 1.82588 1.8211 1.81631 
1.81152 1.80673 1.80194 1.79715 1.79237 1.78758 1.78279 1.778 1.77321 
1.76842 1.76364 1.75885 1.75389 1.7487 1.74351 1.73831 1.73312 1.72793 
1.72274 1.71754 1.71235 1.70716 1.70196 1.69677 1.69158 1.68638 1.68119 
1.676 1.6708 1.66561 1.66042 1.65522 1.65223 1.66468 1.67712 1.68957 
1.70202 1.71446 1.72691 1.73935 1.7518 1.76424 1.77669 1.78913 1.80158 
1.81402 1.82647 1.83892 1.85136 1.86381 1.87625 1.8887 1.90114 1.91506 
1.92926 1.94346 1.95765 1.97185 1.98605 2.00025 2.01445 2.02865 2.04284 
2.05704 2.07124 2.08544 2.09964 2.11384 2.12803 2.14223 2.15643 2.17063 
2.18483 2.19021 2.18852 2.18684 2.18515 2.18346 2.18177 2.18008 2.17839 
2.17671 2.17502 2.17333 2.17164 2.16995 2.16826 2.16658 2.16489 2.1632 
2.16151 2.15982 2.15813 2.15404 2.14345 2.13286 2.12227 2.11168 2.10109 
2.0905 2.07991 2.06932 2.05873 2.04814 2.03755 2.02696 2.01637 2.00578 
1.99519 1.9846 1.97401 1.96342 1.95283 1.94224 1.92796 1.91363 1.8993 
1.88496 1.87063 1.8563 1.84196 1.82763 1.8133 1.79897 1.78463 1.7703 
1.75597 1.74163 1.7273 1.71297 1.69863 1.6843 1.66997 1.65564 1.65453 
1.65907 1.6636 1.66814 1.67268 1.67721 1.68175 1.68629 1.69082 1.69536 
1.6999 1.70443 1.70897 1.71351 1.71804 1.72258 1.72712 1.73165 1.73619 
1.74073 1.74763 1.75781 1.76798 1.77816 1.78834 1.79852 1.8087 1.81887 
1.82905 1.83923 1.84941 1.85959 1.86977 1.87994 1.89012 1.9003 1.91048 
1.92066 1.93083 1.94101 1.95098 1.95964 1.9683 1.97697 1.98563 1.99429 
2.00295 2.01161 2.02028 2.02894 2.0376 2.04626 2.05492 2.06359 2.07225 
2.08091 2.08957 2.09823 2.10689 2.11556 2.12422 2.12545 2.12547 2.1255 
2.12553 2.12556 2.12559 2.12562 2.12565 2.12568 2.12571 2.12574 2.12577 
2.12579 2.12582 2.12585 2.12588 2.12591 2.12594 2.12597 2.126 2.12068 
2.11159 2.10249 2.0934 2.08431 2.07521 2.06612 2.05703 2.04793 2.03884 
2.02975 2.02065 2.01156 2.00247 1.99337 1.98428 1.97519 1.96609 1.957 
1.94791 1.93702 1.92217 1.90733 1.89248 1.87763 1.86278 1.84793 1.83309 
1.81824 1.80339 1.78854 1.77369 1.75885 1.744 1.72915 1.7143 1.69945 
1.68461 1.66976 1.65491 1.64104 1.65369 1.66634 1.67899 1.69163 1.70428 
1.71693 1.72958 1.74223 1.75488 1.76753 1.78018 1.79283 1.80547 1.81812 
1.83077 1.84342 1.85607 1.86872 1.88137 1.89402 1.90176 1.90794 1.91412 
1.9203 1.92648 1.93266 1.93884 1.94502 1.9512 1.95738 1.96356 1.96974 
1.97592 1.9821 1.98828 1.99446 2.00064 2.00682 2.013 2.01918 2.01452 
1.99794 1.98136 1.96479 1.94821 1.93163 1.91505 1.89847 1.88189 1.86531 
1.84874 1.83216 1.81558 1.799 1.78242 1.76584 1.74927 1.73269 1.71611 
1.69953 1.6849 1.67836 1.67183 1.6653 1.65876 1.65223 1.64569 1.63916 
1.63263 1.62609 1.61956 1.61303 1.60649 1.59996 1.59343 1.58689 1.58036 
1.57383 1.56729 1.56076 1.55423 1.55494 1.55639 1.55784 1.55928 1.56073 
1.56217 1.56362 1.56507 1.56651 1.56796 1.5694 1.57085 1.5723 1.57374 
1.57519 1.57663 1.57808 1.57952 1.58097 1.58242 1.59359 1.61061 1.62764 
1.64466 1.66169 1.67872 1.69574 1.71277 1.72979 1.74682 1.76384 1.78087 
1.79789 1.81492 1.83194 1.84897 1.866 1.88302 1.90005 1.91707 1.93078 
1.93803 1.94528 1.95253 1.95978 1.96703 1.97427 1.98152 1.98877 1.99602 
2.00327 2.01052 2.01777 2.02502 2.03227 2.03952 2.04677 2.05401 2.06126 
2.06851 2.07489 2.06644 2.05799 2.04954 2.04108 2.03263 2.02418 2.01573 
2.00728 1.99882 1.99037 1.98192 1.97347 1.96502 1.95656 1.94811 1.93966 
1.93121 1.92276 1.9143 1.90585 1.92018 1.94118 1.96217 1.98316 2.00416 
2.02515 2.04614 2.06713 2.08813 2.10912 2.13011 2.15111 2.1721 2.19309 
2.21408 2.23508 2.25607 2.27706 2.29806 2.31905 2.33702 2.35193 2.36685 
2.38176 2.39667 2.41158 2.42649 2.4414 2.45631 2.47122 2.48613 2.50104 
2.51595 2.53086 2.54577 2.56068 2.57559 2.5905 2.60541 2.62032 2.6258 
2.5979 2.57 2.54209 2.51419 2.48629 2.45839 2.43048 2.40258 2.37468 
2.34677 2.31887 2.29097 2.26306 2.23516 2.20726 2.17936 2.15145 2.12355 
2.09565 2.06774 2.05661 2.04644 2.03626 2.02609 2.01592 2.00574 1.99557 
1.98539 1.97522 1.96504 1.95487 1.94469 1.93452 1.92435 1.91417 1.904 
1.89382 1.88365 1.87347 1.8633 1.86 1.86 1.86 1.86 1.86 
1.86 1.86 1.86 1.86 1.86 1.86 1.86 1.86 1.86 
1.86 1.86 1.86 1.86 1.86 1.86 1.85938 1.85783 1.85628 
1.85473 1.85319 1.85164 1.85009 1.84854 1.847 1.84545 1.8439 1.84235 
1.8408 1.83926 1.83771 1.83616 1.83461 1.83307 1.83152 1.82997 1.82638 
1.80865 1.79092 1.77319 1.75546 1.73773 1.72 1.70227 1.68454 1.66681 
1.64908 1.63135 1.61362 1.59589 1.57816 1.56043 1.5427 1.52497 1.50724 
1.48951 1.47178 1.46484 1.45939 1.45394 1.44849 1.44304 1.43759 1.43215 
1.4267 1.42125 1.4158 1.41035 1.4049 1.39945 1.39401 1.38856 1.38311 
1.37766 1.37221 1.36676 1.36132 1.36165 1.37024 1.37882 1.38741 1.396 
1.40459 1.41318 1.42177 1.43036 1.43895 1.44754 1.45613 1.46472 1.47331 
1.4819 1.49048 1.49907 1.50766 1.51625 1.52484 1.52688 1.52804 1.52919 
1.53035 1.5315 1.53266 1.53382 1.53497 1.53613 1.53728 1.53844 1.5396 
1.54075 1.54191 1.54306 1.54422 1.54538 1.54653 1.54769 1.54884 1.55 

TEXTURE_COORDINATES TCoords 2 float
0 0 0.000783085 0 0.00156617 0 0.00234926 0 0.00313234 
0 0.00391543 0 0.00469851 0 0.0054816 0 0.00626468 0 
0.00704777 0 0.00783085 0 0.00861394 0 0.00939702 0 0.0101801 
0 0.0109632 0 0.0117463 0 0.0125294 0 0.0133125 0 
0.0140955 0 0.0148786 0 0.0156617 0 0.0164448 0 0.0172279 
0 0.018011 0 0.018794 0 0.0195771 0 0.0203602 0 
0.0211433 0 0.0219264 0 0.0227095 0 0.0234926 0 0.0242756 
0 0.0250587 0 0.0258418 0 0.0266249 0 0.027408 0 
0.0281911 0 0.0289742 0 0.0297572 0 0.0305403 0 0.0313234 
0 0.0321065 0 0.0328896 0 0.0336727 0 0.0344558 0 
0.0352388 0 0.0360219 0 0.036805 0 0.0375881 0 0.0383712 
0 0.0391543 0 0.0399374 0 0.0407204 0 0.0415035 0 
0.0422866 0 0.0430697 0 0.0438528 0 0.0446359 0 0.045419 
0 0.046202 0 0.0469851 0 0.0477682 0 0.0485513 0 
0.0493344 0 0.0501175 0 0.0509005 0 0.0516836 0 0.0524667 
0 0.0532498 0 0.0540329 0 0.054816 0 0.0555991 0 
0.0563821 0 0.0571652 0 0.0579483 0 0.0587314 0 0.0595145 
0 0.0602976 0 0.0610807 0 0.0618637 0 0.0626468 0 
0.0634299 0 0.064213 0 0.0649961 0 0.0657792 0 0.0665623 
0 0.0673453 0 0.0681284 0 0.0689115 0 0.0696946 0 
0.0704777 0 0.0712608 0 0.0720439 0 0.0728269 0 0.07361 
0 0.0743931 0 0.0751762 0 0.0759593 0 0.0767424 0 
0.0775255 0 0.0783085 0 0.0790916 0 0.0798747 0 0.0806578 
0 0.0814409 0 0.082224 0 0.083007 0 0.0837901 0 
0.0845732 0 0.0853563 0 0.0861394 0 0.0869225 0 0.0877056 
0 0.0884886 0 0.0892717 0 0.0900548 0 0.0908379 0 
0.091621 0 0.0924041 0 0.0931872 0 0.0939702 0 0.0947533 
0 0.0955364 0 0.0963195 0 0.0971026 0 0.0978857 0 
0.0986688 0 0.0994518 0 0.100235 0 0.101018 0 0.101801 
0 0.102584 0 0.103367 0 0.10415 0 0.104933 0 
0.105717 0 0.1065 0 0.107283 0 0.108066 0 0.108849 
0 0.109632 0 0.110415 0 0.111198 0 0.111981 0 
0.112764 0 0.113547 0 0.11433 0 0.115114 0 0.115897 
0 0.11668 0 0.117463 0 0.118246 0 0.119029 0 
0.119812 0 0.120595 0 0.121378 0 0.122161 0 0.122944 
0 0.123727 0 0.124511 0 0.125294 0 0.126077 0 
0.12686 0 0.127643 0 0.128426 0 0.129209 0 0.129992 
0 0.130775 0 0.131558 0 0.132341 0 0.133125 0 
0.133908 0 0.134691 0 0.135474 0 0.136257 0 0.13704 
0 0.137823 0 0.138606 0 0.139389 0 0.140172 0 
0.140955 0 0.141738 0 0.142522 0 0.143305 0 0.144088 
0 0.144871 0 0.145654 0 0.146437 0 0.14722 0 
0.148003 0 0.148786 0 0.149569 0 0.150352 0 0.151135 
0 0.151919 0 0.152702 0 0.153485 0 0.154268 0 
0.155051 0 0.155834 0 0.156617 0 0.1574 0 0.158183 
0 0.158966 0 0.159749 0 0.160533 0 0.161316 0 
0.162099 0 0.162882 0 0.163665 0 0.164448 0 0.165231 
0 0.166014 0 0.166797 0 0.16758 0 0.168363 0 
0.169146 0 0.16993 0 0.170713 0 0.171496 0 0.172279 
0 0.173062 0 0.173845 0 0.174628 0 0.175411 0 
0.176194 0 0.176977 0 0.17776 0 0.178543 0 0.179327 
0 0.18011 0 0.180893 0 0.181676 0 0.182459 0 
0.183242 0 0.184025 0 0.184808 0 0.185591 0 0.186374 
0 0.187157 0 0.18794 0 0.188724 0 0.189507 0 
0.19029 0 0.191073 0 0.191856 0 0.192639 0 0.193422 
0 0.194205 0 0.194988 0 0.195771 0 0.196554 0 
0.197338 0 0.198121 0 0.198904 0 0.199687 0 0.20047 
0 0.201253 0 0.202036 0 0.202819 0 0.203602 0 
0.204385 0 0.205168 0 0.205951 0 0.206735 0 0.207518 
0 0.208301 0 0.209084 0 0.209867 0 0.21065 0 
0.211433 0 0.212216 0 0.212999 0 0.213782 0 0.214565 
0 0.215348 0 0.216132 0 0.216915 0 0.217698 0 
0.218481 0 0.219264 0 0.220047 0 0.22083 0 0.221613 
0 0.222396 0 0.223179 0 0.223962 0 0.224745 0 
0.225529 0 0.226312 0 0.227095 0 0.227878 0 0.228661 
0 0.229444 0 0.230227 0 0.23101 0 0.231793 0 
0.232576 0 0.233359 0 0.234143 0 0.234926 0 0.235709 
0 0.236492 0 0.237275 0 0.238058 0 0.238841 0 
0.239624 0 0.240407 0 0.24119 0 0.241973 0 0.242756 
0 0.24354 0 0.244323 0 0.245106 0 0.245889 0 
0.246672 0 0.247455 0 0.248238 0 0.249021 0 0.249804 
0 0.250587 0 0.25137 0 0.252153 0 0.252937 0 
0.25372 0 0.254503 0 0.255286 0 0.256069 0 0.256852 
0 0.257635 0 0.258418 0 0.259201 0 0.259984 0 
0.260767 0 0.261551 0 0.262334 0 0.263117 0 0.2639 
0 0.264683 0 0.265466 0 0.266249 0 0.267032 0 
0.267815 0 0.268598 0 0.269381 0 0.270164 0 0.270948 
0 0.271731 0 0.272514 0 0.273297 0 0.27408 0 
0.274863 0 0.275646 0 0.276429 0 0.277212 0 0.277995 
0 0.278778 0 0.279561 0 0.280345 0 0.281128 0 
0.281911 0 0.282694 0 0.283477 0 0.28426 0 0.285043 
0 0.285826 0 0.286609 0 0.287392 0 0.288175 0 
0.288958 0 0.289742 0 0.290525 0 0.291308 0 0.292091 
0 0.292874 0 0.293657 0 0.29444 0 0.295223 0 
0.296006 0 0.296789 0 0.297572 0 0.298356 0 0.299139 
0 0.299922 0 0.300705 0 0.301488 0 0.302271 0 
0.303054 0 0.303837 0 0.30462 0 0.305403 0 0.306186 
0 0.306969 0 0.307753 0 0.308536 0 0.309319 0 
0.310102 0 0.310885 0 0.311668 0 0.312451 0 0.313234 
0 0.314017 0 0.3148 0 0.315583 0 0.316366 0 
0.31715 0 0.317933 0 0.318716 0 0.319499 0 0.320282 
0 0.321065 0 0.321848 0 0.322631 0 0.323414 0 
0.324197 0 0.32498 0 0.325763 0 0.326547 0 0.32733 
0 0.328113 0 0.328896 0 0.329679 0 0.330462 0 
0.331245 0 0.332028 0 0.332811 0 0.333594 0 0.334377 
0 0.335161 0 0.335944 0 0.336727 0 0.33751 0 
0.338293 0 0.339076 0 0.339859 0 0.340642 0 0.341425 
0 0.342208 0 0.342991 0 0.343774 0 0.344558 0 
0.345341 0 0.346124 0 0.346907 0 0.34769 0 0.348473 
0 0.349256 0 0.350039 0 0.350822 0 0.351605 0 
0.352388 0 0.353171 0 0.353955 0 0.354738 0 0.355521 
0 0.356304 0 0.357087 0 0.35787 0 0.358653 0 
0.359436 0 0.360219 0 0.361002 0 0.361785 0 0.362569 
0 0.363352 0 0.364135 0 0.364918 0 0.365701 0 
0.366484 0 0.367267 0 0.36805 0 0.368833 0 0.369616 
0 0.370399 0 0.371182 0 0.371966 0 0.372749 0 
0.373532 0 0.374315 0 0.375098 0 0.375881 0 0.376664 
0 0.377447 0 0.37823 0 0.379013 0 0.379796 0 
0.380579 0 0.381363 0 0.382146 0 0.382929 0 0.383712 
0 0.384495 0 0.385278 0 0.386061 0 0.386844 0 
0.387627 0 0.38841 0 0.389193 0 0.389977 0 0.39076 
0 0.391543 0 0.392326 0 0.393109 0 0.393892 0 
0.394675 0 0.395458 0 0.396241 0 0.397024 0 0.397807 
0 0.39859 0 0.399374 0 0.400157 0 0.40094 0 
0.401723 0 0.402506 0 0.403289 0 0.404072 0 0.404855 
0 0.405638 0 0.406421 0 0.407204 0 0.407987 0 
0.408771 0 0.409554 0 0.410337 0 0.41112 0 0.411903 
0 0.412686 0 0.413469 0 0.414252 0 0.415035 0 
0.415818 0 0.416601 0 0.417385 0 0.418168 0 0.418951 
0 0.419734 0 0.420517 0 0.4213 0 0.422083 0 
0.422866 0 0.423649 0 0.424432 0 0.425215 0 0.425998 
0 0.426782 0 0.427565 0 0.428348 0 0.429131 0 
0.429914 0 0.430697 0 0.43148 0 0.432263 0 0.433046 
0 0.433829 0 0.434612 0 0.435395 0 0.436179 0 
0.436962 0 0.437745 0 0.438528 0 0.439311 0 0.440094 
0 0.440877 0 0.44166 0 0.442443 0 0.443226 0 
0.444009 0 0.444792 0 0.445576 0 0.446359 0 0.447142 
0 0.447925 0 0.448708 0 0.449491 0 0.450274 0 
0.451057 0 0.45184 0 0.452623 0 0.453406 0 0.45419 
0 0.454973 0 0.455756 0 0.456539 0 0.457322 0 
0.458105 0 0.458888 0 0.459671 0 0.460454 0 0.461237 
0 0.46202 0 0.462803 0 0.463587 0 0.46437 0 
0.465153 0 0.465936 0 0.466719 0 0.467502 0 0.468285 
0 0.469068 0 0.469851 0 0.470634 0 0.471417 0 
0.4722 0 0.472984 0 0.473767 0 0.47455 0 0.475333 
0 0.476116 0 0.476899 0 0.477682 0 0.478465 0 
0.479248 0 0.480031 0 0.480814 0 0.481597 0 0.482381 
0 0.483164 0 0.483947 0 0.48473 0 0.485513 0 
0.486296 0 0.487079 0 0.487862 0 0.488645 0 0.489428 
0 0.490211 0 0.490995 0 0.491778 0 0.492561 0 
0.493344 0 0.494127 0 0.49491 0 0.495693 0 0.496476 
0 0.497259 0 0.498042 0 0.498825 0 0.499608 0 
0.500392 0 0.501175 0 0.501958 0 0.502741 0 0.503524 
0 0.504307 0 0.50509 0 0.505873 0 0.506656 0 
0.507439 0 0.508222 0 0.509005 0 0.509789 0 0.510572 
0 0.511355 0 0.512138 0 0.512921 0 0.513704 0 
0.514487 0 0.51527 0 0.516053 0 0.516836 0 0.517619 
0 0.518403 0 0.519186 0 0.519969 0 0.520752 0 
0.521535 0 0.522318 0 0.523101 0 0.523884 0 0.524667 
0 0.52545 0 0.526233 0 0.527016 0 0.5278 0 
0.528583 0 0.529366 0 0.530149 0 0.530932 0 0.531715 
0 0.532498 0 0.533281 0 0.534064 0 0.534847 0 
0.53563 0 0.536413 0 0.537197 0 0.53798 0 0.538763 
0 0.539546 0 0.540329 0 0.541112 0 0.541895 0 
0.542678 0 0.543461 0 0.544244 0 0.545027 0 0.545811 
0 0.546594 0 0.547377 0 0.54816 0 0.548943 0 
0.549726 0 0.550509 0 0.551292 0 0.552075 0 0.552858 
0 0.553641 0 0.554424 0 0.555207 0 0.555991 0 
0.556774 0 0.557557 0 0.55834 0 0.559123 0 0.559906 
0 0.560689 0 0.561472 0 0.562255 0 0.563038 0 
0.563821 0 0.564605 0 0.565388 0 0.566171 0 0.566954 
0 0.567737 0 0.56852 0 0.569303 0 0.570086 0 
0.570869 0 0.571652 0 0.572435 0 0.573218 0 0.574002 
0 0.574785 0 0.575568 0 0.576351 0 0.577134 0 
0.577917 0 0.5787 0 0.579483 0 0.580266 0 0.581049 
0 0.581832 0 0.582615 0 0.583399 0 0.584182 0 
0.584965 0 0.585748 0 0.586531 0 0.587314 0 0.588097 
0 0.58888 0 0.589663 0 0.590446 0 0.591229 0 
0.592013 0 0.592796 0 0.593579 0 0.594362 0 0.595145 
0 0.595928 0 0.596711 0 0.597494 0 0.598277 0 
0.59906 0 0.599843 0 0.600626 0 0.60141 0 0.602193 
0 0.602976 0 0.603759 0 0.604542 0 0.605325 0 
0.606108 0 0.606891 0 0.607674 0 0.608457 0 0.60924 
0 0.610023 0 0.610807 0 0.61159 0 0.612373 0 
0.613156 0 0.613939 0 0.614722 0 0.615505 0 0.616288 
0 0.617071 0 0.617854 0 0.618637 0 0.619421 0 
0.620204 0 0.620987 0 0.62177 0 0.622553 0 0.623336 
0 0.624119 0 0.624902 0 0.625685 0 0.626468 0 
0.627251 0 0.628034 0 0.628818 0 0.629601 0 0.630384 
0 0.631167 0 0.63195 0 0.632733 0 0.633516 0 
0.634299 0 0.635082 0 0.635865 0 0.636648 0 0.637432 
0 0.638215 0 0.638998 0 0.639781 0 0.640564 0 
0.641347 0 0.64213 0 0.642913 0 0.643696 0 0.644479 
0 0.645262 0 0.646045 0 0.646829 0 0.647612 0 
0.648395 0 0.649178 0 0.649961 0 0.650744 0 0.651527 
0 0.65231 0 0.653093 0 0.653876 0 0.654659 0 
0.655442 0 0.656226 0 0.657009 0 0.657792 0 0.658575 
0 0.659358 0 0.660141 0 0.660924 0 0.661707 0 
0.66249 0 0.663273 0 0.664056 0 0.664839 0 0.665623 