# vtk DataFile Version 4.2
vtk output
ASCII
DATASET POLYDATA
POINTS 1278 float
0 0 0 -0.00347655 -0.00178256 0.00121543 -0.0136188 -0.00696701 0.00477222 
-0.0299958 -0.0153085 0.0105361 -0.0521764 -0.0265622 0.0183729 -0.0797297 -0.0404833 0.0281483 
-0.112224 -0.056827 0.039728 -0.14923 -0.0753484 0.0529778 -0.190314 -0.0958026 0.0677635 
-0.235048 -0.117945 0.0839508 -0.282998 -0.14153 0.101405 -0.333735 -0.166314 0.119993 
-0.386827 -0.192052 0.13958 -0.441843 -0.218498 0.160031 -0.498353 -0.245408 0.181212 
-0.555924 -0.272537 0.20299 -0.614127 -0.29964 0.225229 -0.67253 -0.326472 0.247797 
-0.730701 -0.352789 0.270557 -0.788211 -0.378346 0.293376 -0.844627 -0.402897 0.316121 
-0.89952 -0.426199 0.338656 -0.952574 -0.448075 0.360882 -1.00384 -0.468567 0.382811 
-1.05344 -0.487757 0.404475 -1.1015 -0.50573 0.425905 -1.14814 -0.522568 0.447136 
-1.19349 -0.538356 0.468198 -1.23766 -0.553175 0.489124 -1.28077 -0.56711 0.509947 
-1.32296 -0.580244 0.530698 -1.36433 -0.592661 0.551411 -1.40503 -0.604442 0.572118 
-1.44515 -0.615673 0.59285 -1.48484 -0.626436 0.613641 -1.52421 -0.636814 0.634522 
-1.56339 -0.646892 0.655526 -1.60249 -0.656751 0.676686 -1.64164 -0.666476 0.698033 
-1.68096 -0.67615 0.7196 -1.72058 -0.685856 0.741419 -1.76061 -0.695673 0.763522 
-1.80107 -0.705626 0.785916 -1.84195 -0.715698 0.808592 -1.88321 -0.725871 0.831542 
-1.92481 -0.736127 0.854757 -1.96672 -0.74645 0.878229 -2.00891 -0.756821 0.901947 
-2.05135 -0.767222 0.925904 -2.09401 -0.777638 0.950091 -2.13684 -0.788049 0.974498 
-2.17982 -0.798438 0.999118 -2.22292 -0.808788 1.02394 -2.26611 -0.81908 1.04896 
-2.30934 -0.829299 1.07416 -2.35259 -0.839425 1.09954 -2.39583 -0.849441 1.12508 
-2.43902 -0.85933 1.15079 -2.48214 -0.869075 1.17664 -2.52513 -0.878657 1.20264 
-2.56799 -0.888059 1.22877 -2.61067 -0.897263 1.25502 -2.65314 -0.90626 1.28139 
-2.69542 -0.915055 1.30787 -2.73751 -0.923662 1.33447 -2.77942 -0.93209 1.36118 
-2.82116 -0.940352 1.388 -2.86274 -0.948459 1.41494 -2.90417 -0.956422 1.44199 
-2.94545 -0.964253 1.46915 -2.98659 -0.971962 1.49642 -3.02761 -0.979562 1.5238 
-3.06851 -0.987063 1.55129 -3.1093 -0.994476 1.57888 -3.15 -1.00181 1.60659 
-3.19059 -1.00909 1.6344 -3.23111 -1.01631 1.66232 -3.27155 -1.02349 1.69035 
-3.31192 -1.03063 1.71848 -3.35224 -1.03776 1.74672 -3.39251 -1.04488 1.77506 
-3.43274 -1.052 1.8035 -3.47293 -1.05914 1.83205 -3.5131 -1.0663 1.86069 
-3.55323 -1.07347 1.88944 -3.59333 -1.08067 1.91828 -3.63339 -1.08789 1.94721 
-3.67342 -1.09513 1.97624 -3.7134 -1.1024 2.00535 -3.75335 -1.1097 2.03455 
-3.79325 -1.11703 2.06384 -3.8331 -1.12439 2.0932 -3.87291 -1.13179 2.12264 
-3.91267 -1.13922 2.15216 -3.95239 -1.14669 2.18175 -3.99205 -1.15419 2.21141 
-4.03165 -1.16174 2.24115 -4.07121 -1.16934 2.27094 -4.11071 -1.17697 2.3008 
-4.15015 -1.18466 2.33073 -4.18953 -1.19239 2.36071 -4.22885 -1.20017 2.39074 
-4.2681 -1.208 2.42083 -4.3073 -1.21589 2.45098 -4.34643 -1.22384 2.48117 
-4.3855 -1.23185 2.5114 -4.42452 -1.23993 2.54168 -4.46348 -1.24808 2.572 
-4.50239 -1.2563 2.60236 -4.54125 -1.2646 2.63275 -4.58006 -1.27298 2.66317 
-4.61882 -1.28145 2.69362 -4.65754 -1.29001 2.7241 -4.69621 -1.29866 2.75461 
-4.73484 -1.30741 2.78513 -4.77342 -1.31626 2.81567 -4.81197 -1.32522 2.84623 
-4.85049 -1.33428 2.8768 -4.88897 -1.34346 2.90738 -4.92741 -1.35275 2.93796 
-4.96583 -1.36217 2.96856 -5.00421 -1.37171 2.99915 -5.04257 -1.38138 3.02974 
-5.08091 -1.39118 3.06033 -5.11922 -1.40111 3.09091 -5.1575 -1.41119 3.12148 
-5.19577 -1.4214 3.15203 -5.23401 -1.43176 3.18256 -5.27224 -1.44226 3.21307 
-5.31046 -1.45291 3.24355 -5.34865 -1.46371 3.27399 -5.38684 -1.47466 3.3044 
-5.42501 -1.48578 3.33477 -5.46318 -1.49705 3.36509 -5.50133 -1.50848 3.39536 
-5.53948 -1.52008 3.42558 -5.57763 -1.53184 3.45574 -5.61577 -1.54378 3.48585 
-5.6539 -1.55589 3.51588 -5.69204 -1.56817 3.54585 -5.73018 -1.58063 3.57574 
-5.76832 -1.59327 3.60556 -5.80647 -1.6061 3.63529 -5.84462 -1.61911 3.66493 
-5.88278 -1.63232 3.69449 -5.92095 -1.64571 3.72395 -5.95913 -1.65929 3.7533 
-5.99733 -1.67307 3.78255 -6.03554 -1.68704 3.81167 -6.07377 -1.70121 3.84068 
-6.11203 -1.71557 3.86956 -6.1503 -1.73014 3.89831 -6.18861 -1.74491 3.92692 
-6.22694 -1.75988 3.95539 -6.2653 -1.77506 3.98371 -6.30369 -1.79044 4.01187 
-6.34211 -1.80604 4.03987 -6.38057 -1.82184 4.0677 -6.41907 -1.83785 4.09536 
-6.45762 -1.85408 4.12284 -6.4962 -1.87053 4.15013 -6.53483 -1.88719 4.17723 
-6.57351 -1.90407 4.20414 -6.61223 -1.92117 4.23084 -6.65101 -1.93849 4.25734 
-6.68984 -1.95604 4.28361 -6.72873 -1.9738 4.30966 -6.76767 -1.99179 4.33547 
-6.80667 -2.01 4.36103 -6.84574 -2.02843 4.38634 -6.88487 -2.04709 4.41138 
-6.92406 -2.06597 4.43615 -6.96333 -2.08508 4.46064 -7.00266 -2.10441 4.48483 
-7.04206 -2.12397 4.50873 -7.08154 -2.14375 4.53232 -7.12109 -2.16376 4.55559 
-7.16072 -2.18399 4.57853 -7.20043 -2.20445 4.60114 -7.24023 -2.22514 4.6234 
-7.2801 -2.24605 4.64531 -7.32006 -2.26719 4.66686 -7.36012 -2.28857 4.68803 
-7.40026 -2.31017 4.70883 -7.44049 -2.33199 4.72923 -7.48081 -2.35404 4.74923 
-7.52122 -2.37632 4.7688 -7.56172 -2.39881 4.78795 -7.60231 -2.42152 4.80664 
-7.64299 -2.44445 4.82488 -7.68376 -2.46759 4.84264 -7.72462 -2.49093 4.8599 
-7.76557 -2.51448 4.87667 -7.80661 -2.53824 4.89291 -7.84773 -2.5622 4.90862 
-7.88894 -2.58635 4.92379 -7.93024 -2.6107 4.9384 -7.97162 -2.63525 4.95243 
-8.01309 -2.65998 4.96587 -8.05465 -2.6849 4.97871 -8.09629 -2.71001 4.99093 
-8.13802 -2.7353 5.00252 -8.17983 -2.76077 5.01347 -8.22173 -2.78642 5.02376 
-8.26371 -2.81224 5.03337 -8.30576 -2.83822 5.0423 -8.34788 -2.86435 5.05053 
-8.39006 -2.89063 5.05806 -8.43228 -2.91704 5.06486 -8.47454 -2.94357 5.07092 
-8.51683 -2.97021 5.07624 -8.55914 -2.99696 5.0808 -8.60147 -3.0238 5.08458 
-8.64379 -3.05072 5.08758 -8.68612 -3.07771 5.08979 -8.72842 -3.10476 5.09119 
-8.7707 -3.13186 5.09176 -8.81295 -3.15901 5.0915 -8.85516 -3.18619 5.0904 
-8.89732 -3.21338 5.08844 -8.93942 -3.24059 5.0856 -8.98145 -3.2678 5.08188 
-9.02341 -3.295 5.07727 -9.06528 -3.32218 5.07175 -9.10705 -3.34933 5.06531 
-9.14872 -3.37644 5.05795 -9.19026 -3.4035 5.04969 -9.23167 -3.4305 5.04052 
-9.27293 -3.45743 5.03045 -9.31402 -3.48428 5.01949 -9.35494 -3.51104 5.00764 
-9.39567 -3.5377 4.99492 -9.4362 -3.56425 4.98131 -9.4765 -3.59067 4.96684 
-9.51658 -3.61697 4.9515 -9.55641 -3.64312 4.93531 -9.59598 -3.66913 4.91826 
-9.63527 -3.69497 4.90037 -9.67428 -3.72064 4.88164 -9.71299 -3.74612 4.86208 
-9.75139 -3.77142 4.84168 -9.78945 -3.79651 4.82047 -9.82718 -3.82139 4.79843 
-9.86455 -3.84605 4.77559 -9.90155 -3.87048 4.75194 -9.93817 -3.89467 4.7275 
-9.97441 -3.91863 4.70228 -10.0103 -3.94235 4.6763 -10.0457 -3.96584 4.64958 
-10.0807 -3.98909 4.62212 -10.1154 -4.01212 4.59395 -10.1496 -4.03491 4.56508 
-10.1834 -4.05747 4.53553 -10.2167 -4.0798 4.50531 -10.2496 -4.1019 4.47443 
-10.2821 -4.12377 4.44292 -10.3141 -4.14541 4.41079 -10.3457 -4.16682 4.37805 
-10.3768 -4.188 4.34472 -10.4074 -4.20896 4.31082 -10.4376 -4.22969 4.27635 
-10.4672 -4.2502 4.24134 -10.4964 -4.27048 4.20581 -10.5251 -4.29053 4.16976 
-10.5532 -4.31036 4.13321 -10.5809 -4.32997 4.09618 -10.608 -4.34937 4.05868 
-10.6347 -4.36855 4.02072 -10.6608 -4.38754 3.98232 -10.6864 -4.40632 3.94347 
-10.7114 -4.42491 3.9042 -10.736 -4.44332 3.86452 -10.76 -4.46155 3.82444 
-10.7835 -4.47961 3.78397 -10.8065 -4.4975 3.74312 -10.8289 -4.51522 3.70191 
-10.8508 -4.5328 3.66035 -10.8722 -4.55022 3.61844 -10.893 -4.5675 3.5762 
-10.9133 -4.58464 3.53365 -10.9331 -4.60166 3.49079 -10.9523 -4.61854 3.44763 
-10.971 -4.63531 3.40419 -10.9891 -4.65197 3.36049 -11.0066 -4.66851 3.31652 
-11.0237 -4.68496 3.2723 -11.0401 -4.70132 3.22785 -11.056 -4.71758 3.18317 
-11.0714 -4.73377 3.13827 -11.0862 -4.74988 3.09316 -11.1004 -4.76593 3.04785 
-11.1141 -4.78192 3.00235 -11.1272 -4.79785 2.95666 -11.1398 -4.81374 2.91081 
-11.1518 -4.82959 2.86479 -11.1633 -4.84541 2.81862 -11.1742 -4.86121 2.77231 
-11.1845 -4.87698 2.72587 -11.1943 -4.89275 2.6793 -11.2035 -4.90851 2.63261 
-11.2122 -4.92428 2.58582 -11.2203 -4.94005 2.53893 -11.2278 -4.95584 2.49196 
-11.2348 -4.97166 2.44491 -11.2412 -4.98751 2.39779 -11.247 -5.00339 2.35061 
-11.2523 -5.01932 2.30338 -11.257 -5.03529 2.25611 -11.2612 -5.05132 2.20881 
-11.2648 -5.0674 2.16148 -11.2678 -5.08355 2.11414 -11.2704 -5.09977 2.06678 
-11.2724 -5.11607 2.01943 -11.2738 -5.13244 1.97208 -11.2747 -5.1489 1.92475 
-11.2751 -5.16545 1.87744 -11.275 -5.18209 1.83017 -11.2744 -5.19883 1.78293 
-11.2732 -5.21568 1.73575 -11.2715 -5.23264 1.68862 -11.2693 -5.24972 1.64155 
-11.2666 -5.26692 1.59456 -11.2635 -5.28424 1.54765 -11.2598 -5.3017 1.50083 
-11.2556 -5.31929 1.45411 -11.2509 -5.33703 1.40749 -11.2458 -5.35491 1.36099 
-11.2402 -5.37293 1.3146 -11.2341 -5.39111 1.26833 -11.2275 -5.40944 1.22218 
-11.2205 -5.42792 1.17615 -11.2131 -5.44655 1.13026 -11.2053 -5.46534 1.0845 
-11.197 -5.48429 1.03888 -11.1883 -5.5034 0.993406 -11.1792 -5.52266 0.948072 
-11.1697 -5.54209 0.902888 -11.1598 -5.56169 0.857856 -11.1496 -5.58145 0.812981 
-11.139 -5.60138 0.768266 -11.128 -5.62148 0.723715 -11.1166 -5.64176 0.679332 
-11.105 -5.6622 0.63512 -11.0929 -5.68282 0.591084 -11.0806 -5.70362 0.547227 
-11.068 -5.7246 0.503553 -11.055 -5.74575 0.460064 -11.0417 -5.76709 0.416759 
-11.0282 -5.7886 0.373638 -11.0143 -5.8103 0.330701 -11.0002 -5.83217 0.287945 
-10.9859 -5.85422 0.245371 -10.9712 -5.87644 0.202979 -10.9563 -5.89885 0.160766 
-10.9412 -5.92143 0.118734 -10.9259 -5.94419 0.0768803 -10.9103 -5.96712 0.0352052 
-10.8945 -5.99023 -0.00629214 -10.8785 -6.01351 -0.0476125 -10.8623 -6.03697 -0.0887564 
-10.8459 -6.0606 -0.129725 -10.8293 -6.08441 -0.170518 -10.8125 -6.10839 -0.211137 
-10.7956 -6.13254 -0.251582 -10.7785 -6.15687 -0.291854 -10.7613 -6.18137 -0.331954 
-10.7439 -6.20604 -0.371883 -10.7264 -6.23088 -0.411641 -10.7088 -6.25589 -0.451233 
-10.6911 -6.28108 -0.490659 -10.6732 -6.30643 -0.529922 -10.6552 -6.33195 -0.569024 
[...]
CELL_DATA 1
FIELD FieldData 2
Length 1 1 double
63.878055318 
Tortuosity 1 1 double
0.95480916231 
POINT_DATA 1278
SCALARS MaximumInscribedSphereRadius float
LOOKUP_TABLE default
0.93 0.93 0.93 0.93 0.93 0.93 0.93 0.93 0.93 
0.93 0.93 0.93 0.93 0.93 0.93 0.93 0.93 0.93 
0.93 0.93 0.93 0.93 0.93 0.93 0.93 0.93 0.93 
0.93 0.93 0.93 0.93 0.93 0.93 0.93 0.93 0.93 
0.93 0.93 0.93 0.93 0.93 0.930616 0.931611 0.932606 0.9336 
0.934595 0.93559 0.936585 0.93758 0.938575 0.939569 0.940564 0.941559 0.942554 
0.943549 0.944544 0.945538 0.946533 0.947528 0.948523 0.949518 0.951238 0.958536 
0.965833 0.97313 0.980427 0.987724 0.995022 1.00232 1.00962 1.01691 1.02421 
1.03151 1.0388 1.0461 1.0534 1.0607 1.06799 1.07529 1.08259 1.08989 
1.09718 1.10227 1.10702 1.11178 1.11653 1.12128 1.12603 1.13078 1.13553 
1.14029 1.14504 1.14979 1.15454 1.15929 1.16405 1.1688 1.17355 1.1783 
1.18305 1.1878 1.19256 1.18969 1.18131 1.17293 1.16456 1.15618 1.1478 
1.13943 1.13105 1.12268 1.1143 1.10592 1.09755 1.08917 1.08079 1.07242 
1.06404 1.05566 1.04729 1.03891 1.03053 1.02487 1.02568 1.02649 1.02731 
1.02812 1.02893 1.02974 1.03055 1.03137 1.03218 1.03299 1.0338 1.03461 
1.03543 1.03624 1.03705 1.03786 1.03867 1.03949 1.0403 1.0412 1.04954 
1.05787 1.06621 1.07455 1.08289 1.09123 1.09957 1.10791 1.11624 1.12458 
1.13292 1.14126 1.1496 1.15794 1.16627 1.17461 1.18295 1.19129 1.19963 
1.20797 1.21129 1.21276 1.21423 1.2157 1.21717 1.21863 1.2201 1.22157 
1.22304 1.22451 1.22598 1.22745 1.22891 1.23038 1.23185 1.23332 1.23479 
1.23626 1.23773 1.23919 1.24124 1.24398 1.24672 1.24946 1.2522 1.25495 
1.25769 1.26043 1.26317 1.26591 1.26865 1.2714 1.27414 1.27688 1.27962 
1.28236 1.28511 1.28785 1.29059 1.29333 1.29616 1.29937 1.30258 1.30579 
1.30901 1.31222 1.31543 1.31865 1.32186 1.32507 1.32828 1.3315 1.33471 
1.33792 1.34113 1.34435 1.34756 1.35077 1.35398 1.3572 1.36041 1.36043 
1.3602 1.35996 1.35973 1.3595 1.35926 1.35903 1.35879 1.35856 1.35833 
1.35809 1.35786 1.35762 1.35739 1.35715 1.35692 1.35669 1.35645 1.35622 
1.35598 1.36066 1.36761 1.37456 1.38151 1.38847 1.39542 1.40237 1.40932 
1.41627 1.42322 1.43017 1.43712 1.44407 1.45103 1.45798 1.46493 1.47188 
1.47883 1.48578 1.49273 1.49135 1.47889 1.46642 1.45396 1.44149 1.42903 
1.41657 1.4041 1.39164 1.37917 1.36671 1.35424 1.34178 1.32932 1.31685 
1.30439 1.29192 1.27946 1.267 1.25453 1.24397 1.24311 1.24225 1.24139 
1.24053 1.23967 1.23882 1.23796 1.2371 1.23624 1.23538 1.23452 1.23366 
1.2328 1.23194 1.23109 1.23023 1.22937 1.22851 1.22765 1.22679 1.24328 
1.26182 1.28036 1.2989 1.31744 1.33597 1.35451 1.37305 1.39159 1.41013 
1.42867 1.4472 1.46574 1.48428 1.50282 1.52136 1.5399 1.55843 1.57697 
1.59551 1.60447 1.60764 1.61081 1.61398 1.61715 1.62032 1.62349 1.62666 
1.62983 1.633 1.63617 1.63934 1.64251 1.64568 1.64885 1.65202 1.65519 
1.65836 1.66153 1.6647 1.66592 1.66348 1.66105 1.65861 1.65618 1.65374 
1.6513 1.64887 1.64643 1.64399 1.64156 1.63912 1.63668 1.63425 1.63181 
1.62937 1.62694 1.6245 1.62207 1.61963 1.61697 1.61122 1.60547 1.59972 
1.59397 1.58822 1.58247 1.57672 1.57097 1.56523 1.55948 1.55373 1.54798 
1.54223 1.53648 1.53073 1.52498 1.51924 1.51349 1.50774 1.50199 1.49493 
1.48752 1.4801 1.47269 1.46528 1.45786 1.45045 1.44303 1.43562 1.42821 
1.42079 1.41338 1.40596 1.39855 1.39114 1.38372 1.37631 1.3689 1.36148 
1.35407 1.35526 1.36496 1.37467 1.38438 1.39408 1.40379 1.41349 1.4232 
1.4329 1.44261 1.45231 1.46202 1.47173 1.48143 1.49114 1.50084 1.51055 
1.52025 1.52996 1.53966 1.55037 1.56458 1.57878 1.59299 1.6072 1.62141 
1.63562 1.64983 1.66404 1.67825 1.69246 1.70666 1.72087 1.73508 1.74929 
1.7635 1.77771 1.79192 1.80613 1.82034 1.83454 1.8349 1.83434 1.83378 
1.83323 1.83267 1.83211 1.83156 1.831 1.83044 1.82989 1.82933 1.82877 
1.82822 1.82766 1.8271 1.82655 1.82599 1.82543 1.82488 1.82432 1.80934 
1.78693 1.76452 1.74211 1.7197 1.69729 1.67488 1.65247 1.63006 1.60765 
1.58524 1.56283 1.54042 1.51801 1.4956 1.47319 1.45077 1.42836 1.40595 
1.38354 1.36406 1.34771 1.33136 1.31502 1.29867 1.28232 1.26597 1.24962 
1.23327 1.21692 1.20057 1.18422 1.16787 1.15152 1.13517 1.11882 1.10247 
1.08612 1.06977 1.05342 1.05098 1.05754 1.0641 1.07065 1.07721 1.08377 
1.09033 1.09688 1.10344 1.11 1.11656 1.12311 1.12967 1.13623 1.14278 
1.14934 1.1559 1.16246 1.16901 1.17557 1.1815 1.18552 1.18955 1.19357 
1.1976 1.20162 1.20565 1.20968 1.2137 1.21773 1.22175 1.22578 1.2298 
1.23383 1.23785 1.24188 1.24591 1.24993 1.25396 1.25798 1.26201 1.26054 
1.25897 1.25739 1.25582 1.25425 1.25268 1.25111 1.24954 1.24797 1.2464 
1.24483 1.24326 1.24168 1.24011 1.23854 1.23697 1.2354 1.23383 1.23226 
1.23069 1.22779 1.22434 1.22088 1.21742 1.21397 1.21051 1.20706 1.2036 
1.20014 1.19669 1.19323 1.18978 1.18632 1.18286 1.17941 1.17595 1.1725 
1.16904 1.16558 1.16213 1.15809 1.15324 1.14839 1.14355 1.1387 1.13385 
1.12901 1.12416 1.11932 1.11447 1.10962 1.10478 1.09993 1.09508 1.09024 
1.08539 1.08055 1.0757 1.07085 1.06601 1.06103 1.05525 1.04947 1.04369 
1.03791 1.03213 1.02635 1.02057 1.01479 1.00901 1.00323 0.997449 0.991669 
0.98589 0.98011 0.97433 0.968551 0.962771 0.956991 0.951212 0.945432 0.953043 
0.962578 0.972114 0.981649 0.991184 1.00072 1.01025 1.01979 1.02932 1.03886 
1.04839 1.05793 1.06746 1.077 1.08653 1.09607 1.10561 1.11514 1.12468 
1.13421 1.14098 1.14602 1.15106 1.1561 1.16115 1.16619 1.17123 1.17627 
1.18132 1.18636 1.1914 1.19644 1.20149 1.20653 1.21157 1.21661 1.22166 
1.2267 1.23174 1.23678 1.24 1.24 1.24 1.24 1.24 1.24 
1.24 1.24 1.24 1.24 1.24 1.24 1.24 1.24 1.24 
1.24 1.24 1.24 1.24 1.24 1.24 1.24 1.24 1.24 
1.24 1.24 1.24 1.24 1.24 1.24 1.24 1.24 1.24 
1.24 1.24 1.24 1.24 1.24 1.24 1.24 1.24 1.25893 
1.28199 1.30505 1.32811 1.35118 1.37424 1.3973 1.42036 1.44343 1.46649 
1.48955 1.51262 1.53568 1.55874 1.5818 1.60487 1.62793 1.65099 1.67405 
1.69712 1.71991 1.74247 1.76503 1.78759 1.81015 1.83271 1.85527 1.87783 
1.9004 1.92296 1.94552 1.96808 1.99064 2.0132 2.03576 2.05832 2.08088 
2.10344 2.126 2.14856 2.16561 2.16672 2.16782 2.16893 2.17004 2.17114 
2.17225 2.17335 2.17446 2.17556 2.17667 2.17777 2.17888 2.17998 2.18109 
2.18219 2.1833 2.1844 2.18551 2.18661 2.18772 2.18769 2.18764 2.18758 
2.18752 2.18747 2.18741 2.18735 2.18729 2.18724 2.18718 2.18712 2.18707 
2.18701 2.18695 2.18689 2.18684 2.18678 2.18672 2.18667 2.18661 2.18609 
2.18536 2.18462 2.18389 2.18316 2.18243 2.1817 2.18097 2.18024 2.17951 
2.17878 2.17805 2.17731 2.17658 2.17585 2.17512 2.17439 2.17366 2.17293 
2.1722 2.16836 2.15991 2.15146 2.14301 2.13455 2.1261 2.11765 2.10919 
2.10074 2.09229 2.08383 2.07538 2.06693 2.05847 2.05002 2.04157 2.03311 
2.02466 2.01621 2.00776 1.99881 1.98623 1.97364 1.96105 1.94846 1.93587 
1.92329 1.9107 1.89811 1.88552 1.87294 1.86035 1.84776 1.83517 1.82258 
1.81 1.79741 1.78482 1.77223 1.75964 1.74706 1.73032 1.71275 1.69519 
1.67762 1.66005 1.64249 1.62492 1.60736 1.58979 1.57222 1.55466 1.53709 
1.51952 1.50196 1.48439 1.46683 1.44926 1.43169 1.41413 1.39656 1.39324 
1.40144 1.40965 1.41786 1.42607 1.43427 1.44248 1.45069 1.4589 1.46711 
1.47531 1.48352 1.49173 1.49994 1.50815 1.51635 1.52456 1.53277 1.54098 
1.54919 1.55891 1.57269 1.58647 1.60024 1.61402 1.6278 1.64158 1.65536 
1.66914 1.68292 1.6967 1.71047 1.72425 1.73803 1.75181 1.76559 1.77937 
1.79315 1.80692 1.8207 1.83448 1.8246 1.81458 1.80457 1.79455 1.78453 
1.77452 1.7645 1.75449 1.74447 1.73445 1.72444 1.71442 1.7044 1.69439 
1.68437 1.67435 1.66434 1.65432 1.6443 1.63429 1.62857 1.62455 1.62053 
1.61652 1.6125 1.60849 1.60447 1.60045 1.59644 1.59242 1.58841 1.58439 
1.58037 1.57636 1.57234 1.56832 1.56431 1.56029 1.55628 1.55226 1.54894 
1.54651 1.54409 1.54166 1.53924 1.53681 1.53439 1.53196 1.52953 1.52711 
1.52468 1.52226 1.51983 1.51741 1.51498 1.51256 1.51013 1.5077 1.50528 
1.50285 1.49964 1.49227 1.48489 1.47751 1.47013 1.46275 1.45537 1.44799 
1.44061 1.43323 1.42585 1.41847 1.4111 1.40372 1.39634 1.38896 1.38158 
1.3742 1.36682 1.35944 1.35206 1.3521 1.35318 1.35425 1.35533 1.3564 
1.35748 1.35855 1.35963 1.3607 1.36178 1.36285 1.36393 1.365 1.36608 
1.36715 1.36823 1.3693 1.37038 1.37145 1.37253 1.37801 1.3865 1.39498 
1.40346 1.41195 1.42043 1.42892 1.4374 1.44588 1.45437 1.46285 1.47134 
1.47982 1.4883 1.49679 1.50527 1.51376 1.52224 1.53072 1.53921 1.54791 
1.55707 1.56624 1.57541 1.58457 1.59374 1.60291 1.61207 1.62124 1.63041 
1.63958 1.64874 1.65791 1.66708 1.67624 1.68541 1.69458 1.70374 1.71291 
1.72208 1.73147 1.74846 1.76545 1.78244 1.79942 1.81641 1.8334 1.85039 
1.86738 1.88436 1.90135 1.91834 1.93533 1.95232 1.9693 1.98629 2.00328 
2.02027 2.03726 2.05424 2.07123 2.09601 2.12347 2.15093 2.17838 2.20584 
2.23329 2.26075 2.28821 2.31566 2.34312 2.37057 2.39803 2.42549 2.45294 
2.4804 2.50785 2.53531 2.56277 2.59022 2.61768 2.62939 2.62258 2.61577 
2.60896 2.60215 2.59534 2.58853 2.58172 2.57491 2.5681 2.56129 2.55448 
2.54767 2.54086 2.53405 2.52724 2.52043 2.51362 2.50681 2.5 2.49188 
2.47766 2.46344 2.44922 2.435 2.42078 2.40656 2.39234 2.37812 2.3639 
2.34968 2.33546 2.32124 2.30702 2.2928 2.27858 2.26436 2.25014 2.23591 
2.22169 2.20747 2.20461 2.20315 2.2017 2.20024 2.19878 2.19732 2.19586 
2.1944 2.19295 2.19149 2.19003 2.18857 2.18711 2.18565 2.1842 2.18274 
2.18128 2.17982 2.17836 2.1769 2.1814 2.18977 2.19814 2.2065 2.21487 
2.22324 2.2316 2.23997 2.24834 2.2567 2.26507 2.27344 2.2818 2.29017 
2.29854 2.30691 2.31527 2.32364 2.33201 2.34037 2.34786 2.35351 2.35916 
2.3648 2.37045 2.3761 2.38175 2.3874 2.39305 2.39869 2.40434 2.40999 
2.41564 2.42129 2.42693 2.43258 2.43823 2.44388 2.44953 2.45518 2.46031 
2.45535 2.4504 2.44545 2.44049 2.43554 2.43058 2.42563 2.42067 2.41572 
2.41076 2.40581 2.40085 2.3959 2.39094 2.38599 2.38104 2.37608 2.37113 
2.36617 2.36122 2.3509 2.33946 2.32802 2.31658 2.30514 2.2937 2.28226 
2.27082 2.25938 2.24794 2.2365 2.22506 2.21362 2.20218 2.19074 2.1793 
2.16786 2.15642 2.14498 2.13354 2.12338 2.11528 2.10717 2.09907 2.09096 
2.08286 2.07475 2.06664 2.05854 2.05043 2.04233 2.03422 2.02612 2.01801 
2.00991 2.0018 1.99369 1.98559 1.97748 1.96938 1.96395 1.95875 1.95356 
1.94836 1.94316 1.93796 1.93277 1.92757 1.92237 1.91717 1.91198 1.90678 
1.90158 1.89638 1.89119 1.88599 1.88079 1.87559 1.8704 1.8652 1.86 

TEXTURE_COORDINATES TCoords 2 float
0 0 0.000783085 0 0.00156617 0 0.00234926 0 0.00313234 
0 0.00391543 0 0.00469851 0 0.0054816 0 0.00626468 0 
0.00704777 0 0.00783085 0 0.00861394 0 0.00939702 0 0.0101801 
0 0.0109632 0 0.0117463 0 0.0125294 0 0.0133125 0 
0.0140955 0 0.0148786 0 0.0156617 0 0.0164448 0 0.0172279 
0 0.018011 0 0.018794 0 0.0195771 0 0.0203602 0 
0.0211433 0 0.0219264 0 0.0227095 0 0.0234926 0 0.0242756 
0 0.0250587 0 0.0258418 0 0.0266249 0 0.027408 0 
0.0281911 0 0.0289742 0 0.0297572 0 0.0305403 0 0.0313234 
0 0.0321065 0 0.0328896 0 0.0336727 0 0.0344558 0 
0.0352388 0 0.0360219 0 0.036805 0 0.0375881 0 0.0383712 
0 0.0391543 0 0.0399374 0 0.0407204 0 0.0415035 0 
0.0422866 0 0.0430697 0 0.0438528 0 0.0446359 0 0.045419 
0 0.046202 0 0.0469851 0 0.0477682 0 0.0485513 0 
0.0493344 0 0.0501175 0 0.0509005 0 0.0516836 0 0.0524667 
0 0.0532498 0 0.0540329 0 0.054816 0 0.0555991 0 
0.0563821 0 0.0571652 0 0.0579483 0 0.0587314 0 0.0595145 
0 0.0602976 0 0.0610807 0 0.0618637 0 0.0626468 0 
0.0634299 0 0.064213 0 0.0649961 0 0.0657792 0 0.0665623 
0 0.0673453 0 0.0681284 0 0.0689115 0 0.0696946 0 
0.0704777 0 0.0712608 0 0.0720439 0 0.0728269 0 0.07361 
0 0.0743931 0 0.0751762 0 0.0759593 0 0.0767424 0 
0.0775255 0 0.0783085 0 0.0790916 0 0.0798747 0 0.0806578 
0 0.0814409 0 0.082224 0 0.083007 0 0.0837901 0 
0.0845732 0 0.0853563 0 0.0861394 0 0.0869225 0 0.0877056 
0 0.0884886 0 0.0892717 0 0.0900548 0 0.0908379 0 
0.091621 0 0.0924041 0 0.0931872 0 0.0939702 0 0.0947533 
0 0.0955364 0 0.0963195 0 0.0971026 0 0.0978857 0 
0.0986688 0 0.0994518 0 0.100235 0 0.101018 0 0.101801 
0 0.102584 0 0.103367 0 0.10415 0 0.104933 0 
0.105717 0 0.1065 0 0.107283 0 0.108066 0 0.108849 
0 0.109632 0 0.110415 0 0.111198 0 0.111981 0 
0.112764 0 0.113547 0 0.11433 0 0.115114 0 0.115897 
0 0.11668 0 0.117463 0 0.118246 0 0.119029 0 
0.119812 0 0.120595 0 0.121378 0 0.122161 0 0.122944 
0 0.123727 0 0.124511 0 0.125294 0 0.126077 0 
0.12686 0 0.127643 0 0.128426 0 0.129209 0 0.129992 
0 0.130775 0 0.131558 0 0.132341 0 0.133125 0 
0.133908 0 0.134691 0 0.135474 0 0.136257 0 0.13704 
0 0.137823 0 0.138606 0 0.139389 0 0.140172 0 
0.140955 0 0.141738 0 0.142522 0 0.143305 0 0.144088 
0 0.144871 0 0.145654 0 0.146437 0 0.14722 0 
0.148003 0 0.148786 0 0.149569 0 0.150352 0 0.151135 
0 0.151919 0 0.152702 0 0.153485 0 0.154268 0 
0.155051 0 0.155834 0 0.156617 0 0.1574 0 0.158183 
0 0.158966 0 0.159749 0 0.160533 0 0.161316 0 
0.162099 0 0.162882 0 0.163665 0 0.164448 0 0.165231 
0 0.166014 0 0.166797 0 0.16758 0 0.168363 0 
0.169146 0 0.16993 0 0.170713 0 0.171496 0 0.172279 
0 0.173062 0 0.173845 0 0.174628 0 0.175411 0 
0.176194 0 0.176977 0 0.17776 0 0.178543 0 0.179327 
0 0.18011 0 0.180893 0 0.181676 0 0.182459 0 
0.183242 0 0.184025 0 0.184808 0 0.185591 0 0.186374 
0 0.187157 0 0.18794 0 0.188724 0 0.189507 0 
0.19029 0 0.191073 0 0.191856 0 0.192639 0 0.193422 
0 0.194205 0 0.194988 0 0.195771 0 0.196554 0 
0.197338 0 0.198121 0 0.198904 0 0.199687 0 0.20047 
0 0.201253 0 0.202036 0 0.202819 0 0.203602 0 
0.204385 0 0.205168 0 0.205951 0 0.206735 0 0.207518 
0 0.208301 0 0.209084 0 0.209867 0 0.21065 0 
0.211433 0 0.212216 0 0.212999 0 0.213782 0 0.214565 
0 0.215348 0 0.216132 0 0.216915 0 0.217698 0 
0.218481 0 0.219264 0 0.220047 0 0.22083 0 0.221613 
0 0.222396 0 0.223179 0 0.223962 0 0.224745 0 
0.225529 0 0.226312 0 0.227095 0 0.227878 0 0.228661 
0 0.229444 0 0.230227 0 0.23101 0 0.231793 0 
0.232576 0 0.233359 0 0.234143 0 0.234926 0 0.235709 
0 0.236492 0 0.237275 0 0.238058 0 0.238841 0 
0.239624 0 0.240407 0 0.24119 0 0.241973 0 0.242756 
0 0.24354 0 0.244323 0 0.245106 0 0.245889 0 
0.246672 0 0.247455 0 0.248238 0 0.249021 0 0.249804 
0 0.250587 0 0.25137 0 0.252153 0 0.252937 0 
0.25372 0 0.254503 0 0.255286 0 0.256069 0 0.256852 
0 0.257635 0 0.258418 0 0.259201 0 0.259984 0 
0.260767 0 0.261551 0 0.262334 0 0.263117 0 0.2639 
0 0.264683 0 0.265466 0 0.266249 0 0.267032 0 
0.267815 0 0.268598 0 0.269381 0 0.270164 0 0.270948 
0 0.271731 0 0.272514 0 0.273297 0 0.27408 0 
0.274863 0 0.275646 0 0.276429 0 0.277212 0 0.277995 
0 0.278778 0 0.279561 0 0.280345 0 0.281128 0 
0.281911 0 0.282694 0 0.283477 0 0.28426 0 0.285043 
0 0.285826 0 0.286609 0 0.287392 0 0.288175 0 
0.288958 0 0.289742 0 0.290525 0 0.291308 0 0.292091 
0 0.292874 0 0.293657 0 0.29444 0 0.295223 0 
0.296006 0 0.296789 0 0.297572 0 0.298356 0 0.299139 
0 0.299922 0 0.300705 0 0.301488 0 0.302271 0 
0.303054 0 0.303837 0 0.30462 0 0.305403 0 0.306186 
0 0.306969 0 0.307753 0 0.308536 0 0.309319 0 
0.310102 0 0.310885 0 0.311668 0 0.312451 0 0.313234 
0 0.314017 0 0.3148 0 0.315583 0 0.316366 0 
0.31715 0 0.317933 0 0.318716 0 0.319499 0 0.320282 
0 0.321065 0 0.321848 0 0.322631 0 0.323414 0 
0.324197 0 0.32498 0 0.325763 0 0.326547 0 0.32733 
0 0.328113 0 0.328896 0 0.329679 0 0.330462 0 
0.331245 0 0.332028 0 0.332811 0 0.333594 0 0.334377 
0 0.335161 0 0.335944 0 0.336727 0 0.33751 0 
0.338293 0 0.339076 0 0.339859 0 0.340642 0 0.341425 
0 0.342208 0 0.342991 0 0.343774 0 0.344558 0 
0.345341 0 0.346124 0 0.346907 0 0.34769 0 0.348473 
0 0.349256 0 0.350039 0 0.350822 0 0.351605 0 
0.352388 0 0.353171 0 0.353955 0 0.354738 0 0.355521 
0 0.356304 0 0.357087 0 0.35787 0 0.358653 0 
0.359436 0 0.360219 0 0.361002 0 0.361785 0 0.362569 
0 0.363352 0 0.364135 0 0.364918 0 0.365701 0 
0.366484 0 0.367267 0 0.36805 0 0.368833 0 0.369616 
0 0.370399 0 0.371182 0 0.371966 0 0.372749 0 
0.373532 0 0.374315 0 0.375098 0 0.375881 0 0.376664 
0 0.377447 0 0.37823 0 0.379013 0 0.379796 0 
0.380579 0 0.381363 0 0.382146 0 0.382929 0 0.383712 
0 0.384495 0 0.385278 0 0.386061 0 0.386844 0 
0.387627 0 0.38841 0 0.389193 0 0.389977 0 0.39076 
0 0.391543 0 0.392326 0 0.393109 0 0.393892 0 
0.394675 0 0.395458 0 0.396241 0 0.397024 0 0.397807 
0 0.39859 0 0.399374 0 0.400157 0 0.40094 0 
0.401723 0 0.402506 0 0.403289 0 0.404072 0 0.404855 
0 0.405638 0 0.406421 0 0.407204 0 0.407987 0 
0.408771 0 0.409554 0 0.410337 0 0.41112 0 0.411903 
0 0.412686 0 0.413469 0 0.414252 0 0.415035 0 
0.415818 0 0.416601 0 0.417385 0 0.418168 0 0.418951 
0 0.419734 0 0.420517 0 0.4213 0 0.422083 0 
0.422866 0 0.423649 0 0.424432 0 0.425215 0 0.425998 
0 0.426782 0 0.427565 0 0.428348 0 0.429131 0 
0.429914 0 0.430697 0 0.43148 0 0.432263 0 0.433046 
0 0.433829 0 0.434612 0 0.435395 0 0.436179 0 
0.436962 0 0.437745 0 0.438528 0 0.439311 0 0.440094 
0 0.440877 0 0.44166 0 0.442443 0 0.443226 0 
0.444009 0 0.444792 0 0.445576 0 0.446359 0 0.447142 
0 0.447925 0 0.448708 0 0.449491 0 0.450274 0 
0.451057 0 0.45184 0 0.452623 0 0.453406 0 0.45419 
0 0.454973 0 0.455756 0 0.456539 0 0.457322 0 
0.458105 0 0.458888 0 0.459671 0 0.460454 0 0.461237 
0 0.46202 0 0.462803 0 0.463587 0 0.46437 0 
0.465153 0 0.465936 0 0.466719 0 0.467502 0 0.468285 
0 0.469068 0 0.469851 0 0.470634 0 0.471417 0 
0.4722 0 0.472984 0 0.473767 0 0.47455 0 0.475333 
0 0.476116 0 0.476899 0 0.477682 0 0.478465 0 
0.479248 0 0.480031 0 0.480814 0 0.481597 0 0.482381 
0 0.483164 0 0.483947 0 0.48473 0 0.485513 0 
0.486296 0 0.487079 0 0.487862 0 0.488645 0 0.489428 
0 0.490211 0 0.490995 0 0.491778 0 0.492561 0 
0.493344 0 0.494127 0 0.49491 0 0.495693 0 0.496476 
0 0.497259 0 0.498042 0 0.498825 0 0.499608 0 
0.500392 0 0.501175 0 0.501958 0 0.502741 0 0.503524 
0 0.504307 0 0.50509 0 0.505873 0 0.506656 0 
0.507439 0 0.508222 0 0.509005 0 0.509789 0 0.510572 
0 0.511355 0 0.512138 0 0.512921 0 0.513704 0 
0.514487 0 0.51527 0 0.516053 0 0.516836 0 0.517619 
0 0.518403 0 0.519186 0 0.519969 0 0.520752 0 
0.521535 0 0.522318 0 0.523101 0 0.523884 0 0.524667 
0 0.52545 0 0.526233 0 0.527016 0 0.5278 0 
0.528583 0 0.529366 0 0.530149 0 0.530932 0 0.531715 
0 0.532498 0 0.533281 0 0.534064 0 0.534847 0 
0.53563 0 0.536413 0 0.537197 0 0.53798 0 0.538763 
0 0.539546 0 0.540329 0 0.541112 0 0.541895 0 
0.542678 0 0.543461 0 0.544244 0 0.545027 0 0.545811 
0 0.546594 0 0.547377 0 0.54816 0 0.548943 0 
0.549726 0 0.550509 0 0.551292 0 0.552075 0 0.552858 
0 0.553641 0 0.554424 0 0.555207 0 0.555991 0 
0.556774 0 0.557557 0 0.55834 0 0.559123 0 0.559906 
0 0.560689 0 0.561472 0 0.562255 0 0.563038 0 
0.563821 0 0.564605 0 0.565388 0 0.566171 0 0.566954 
0 0.567737 0 0.56852 0 0.569303 0 0.570086 0 
0.570869 0 0.571652 0 0.572435 0 0.573218 0 0.574002 
0 0.574785 0 0.575568 0 0.576351 0 0.577134 0 
0.577917 0 0.5787 0 0.579483 0 0.580266 0 0.581049 
0 0.581832 0 0.582615 0 0.583399 0 0.584182 0 
0.584965 0 0.585748 0 0.586531 0 0.587314 0 0.588097 
0 0.58888 0 0.589663 0 0.590446 0 0.591229 0 
0.592013 0 0.592796 0 0.593579 0 0.594362 0 0.595145 
0 0.595928 0 0.596711 0 0.597494 0 0.598277 0 
0.59906 0 0.599843 0 0.600626 0 0.60141 0 0.602193 
0 0.602976 0 0.603759 0 0.604542 0 0.605325 0 
0.606108 0 0.606891 0 0.607674 0 0.608457 0 0.60924 
0 0.610023 0 0.610807 0 0.61159 0 0.612373 0 
0.613156 0 0.613939 0 0.614722 0 0.615505 0 0.616288 
0 0.617071 0 0.617854 0 0.618637 0 0.619421 0 
0.620204 0 0.620987 0 0.62177 0 0.622553 0 0.623336 
0 0.624119 0 0.624902 0 0.625685 0 0.626468 0 
0.627251 0 0.628034 0 0.628818 0 0.629601 0 0.630384 
0 0.631167 0 0.63195 0 0.632733 0 0.633516 0 
0.634299 0 0.635082 0 0.635865 0 0.636648 0 0.637432 
0 0.638215 0 0.638998 0 0.639781 0 0.640564 0 
0.641347 0 0.64213 0 0.642913 0 0.643696 0 0.644479 
0 0.645262 0 0.646045 0 0.646829 0 0.647612 0 
0.648395 0 0.649178 0 0.649961 0 0.650744 0 0.651527 
0 0.65231 0 0.653093 0 0.653876 0 0.654659 0 
0.655442 0 0.656226 0 0.657009 0 0.657792 0 0.658575 
0 0.659358 0 0.660141 0 0.660924 0 0.661707 0 
0.66249 0 0.663273 0 0.664056 0 0.664839 0 0.665623 
0 0.666406 0 0.667189 0 0.667972 0 0.668755 0 
0.669538 0 0.670321 0 0.671104 0 0.671887 0 0.67267 
0 0.673453 0 0.674236 0 0.67502 0 0.675803 0 