# vtk DataFile Version 4.2
vtk output
ASCII
DATASET POLYDATA
POINTS 1278 float
0 0 0 -0.00338546 0.000903157 0.00207842 -0.0132672 0.00352931 0.00813383 
-0.0292331 0.00775349 0.0178965 -0.0508713 0.0134507 0.0310965 -0.0777697 0.020496 0.0474642 
-0.109516 0.0287644 0.0667299 -0.145699 0.0381309 0.0886236 -0.185906 0.0484706 0.112876 
-0.229725 0.0596585 0.139216 -0.276744 0.0715695 0.167376 -0.326551 0.0840788 0.197084 
-0.378735 0.0970614 0.228071 -0.432882 0.110392 0.260069 -0.488581 0.123946 0.292805 
-0.545421 0.137599 0.326012 -0.602988 0.151225 0.359418 -0.660872 0.164699 0.392755 
-0.718659 0.177896 0.425753 -0.775939 0.190693 0.458141 -0.832298 0.202962 0.489651 
-0.887326 0.21458 0.520011 -0.94071 0.225451 0.549019 -0.992492 0.235582 0.576703 
-1.04279 0.245002 0.60314 -1.09173 0.253741 0.628409 -1.13942 0.261829 0.65259 
-1.18599 0.269295 0.67576 -1.23155 0.276169 0.697998 -1.27623 0.28248 0.719383 
-1.32013 0.288259 0.739993 -1.36339 0.293534 0.759908 -1.40612 0.298335 0.779204 
-1.44845 0.302692 0.797962 -1.49048 0.306635 0.81626 -1.53234 0.310192 0.834175 
-1.57414 0.313394 0.851788 -1.61602 0.316271 0.869176 -1.65808 0.318851 0.886418 
-1.70044 0.321165 0.903593 -1.74323 0.323241 0.920778 -1.78656 0.32511 0.938052 
-1.83048 0.326772 0.955439 -1.87494 0.328206 0.972918 -1.91992 0.329389 0.990464 
-1.96538 0.330297 1.00805 -2.01128 0.330907 1.02566 -2.05759 0.331194 1.04326 
-2.10427 0.331136 1.06083 -2.1513 0.33071 1.07834 -2.19863 0.329891 1.09578 
-2.24622 0.328656 1.1131 -2.29406 0.326982 1.1303 -2.34208 0.324846 1.14735 
-2.39028 0.322223 1.16422 -2.4386 0.319091 1.18088 -2.48701 0.315425 1.19732 
-2.53548 0.311203 1.2135 -2.58398 0.306402 1.22941 -2.63246 0.300996 1.24502 
-2.6809 0.294964 1.2603 -2.72925 0.288282 1.27523 -2.77749 0.280931 1.28979 
-2.82561 0.272906 1.30399 -2.87361 0.264204 1.31784 -2.92146 0.254823 1.33133 
-2.96917 0.244757 1.34447 -3.01673 0.234006 1.35727 -3.06413 0.222564 1.36973 
-3.11135 0.21043 1.38187 -3.15841 0.197599 1.39368 -3.20527 0.184069 1.40517 
-3.25195 0.169836 1.41635 -3.29843 0.154897 1.42723 -3.3447 0.13925 1.4378 
-3.39075 0.12289 1.44808 -3.43658 0.105815 1.45806 -3.48218 0.088021 1.46777 
-3.52753 0.0695053 1.47719 -3.57264 0.0502646 1.48635 -3.6175 0.0302956 1.49523 
-3.66209 0.00959515 1.50386 -3.70642 -0.0118376 1.51223 -3.75046 -0.0339908 1.52035 
-3.79423 -0.0568484 1.52823 -3.8377 -0.0803943 1.53588 -3.88088 -0.104612 1.54331 
-3.92376 -0.129486 1.55052 -3.96633 -0.155 1.55752 -4.00859 -0.181138 1.56431 
-4.05053 -0.207884 1.57092 -4.09215 -0.235222 1.57734 -4.13344 -0.263135 1.58358 
-4.17439 -0.291607 1.58965 -4.215 -0.320623 1.59556 -4.25526 -0.350166 1.60131 
-4.29516 -0.38022 1.60692 -4.33471 -0.41077 1.61239 -4.37389 -0.441798 1.61772 
-4.4127 -0.47329 1.62293 -4.45113 -0.505228 1.62803 -4.48918 -0.537597 1.63302 
-4.52683 -0.57038 1.6379 -4.56411 -0.603563 1.6427 -4.60101 -0.637132 1.6474 
-4.63755 -0.671071 1.65203 -4.67374 -0.705367 1.65659 -4.7096 -0.740005 1.66109 
-4.74512 -0.774971 1.66553 -4.78034 -0.810251 1.66992 -4.81525 -0.84583 1.67427 
-4.84986 -0.881693 1.67858 -4.8842 -0.917827 1.68287 -4.91827 -0.954217 1.68714 
-4.95209 -0.990849 1.6914 -4.98566 -1.02771 1.69566 -5.01899 -1.06478 1.69991 
-5.0521 -1.10205 1.70418 -5.08501 -1.13951 1.70847 -5.11771 -1.17713 1.71278 
-5.15023 -1.21491 1.71713 -5.18257 -1.25284 1.72151 -5.21475 -1.29088 1.72594 
-5.24678 -1.32905 1.73043 -5.27866 -1.36732 1.73497 -5.3104 -1.40569 1.73956 
-5.34202 -1.44416 1.74421 -5.37352 -1.48271 1.74892 -5.40492 -1.52134 1.75369 
-5.43621 -1.56005 1.75852 -5.46741 -1.59881 1.7634 -5.49854 -1.63764 1.76835 
-5.52958 -1.67651 1.77337 -5.56057 -1.71542 1.77844 -5.5915 -1.75437 1.78359 
-5.62239 -1.79335 1.7888 -5.65323 -1.83235 1.79408 -5.68405 -1.87136 1.79942 
-5.71486 -1.91037 1.80484 -5.74565 -1.94939 1.81033 -5.77644 -1.98839 1.81589 
-5.80724 -2.02738 1.82153 -5.83805 -2.06635 1.82724 -5.86889 -2.10528 1.83302 
-5.89977 -2.14418 1.83888 -5.93067 -2.18305 1.8448 -5.96163 -2.22186 1.85079 
-5.99262 -2.26064 1.85683 -6.02368 -2.29936 1.86293 -6.05479 -2.33802 1.86908 
-6.08597 -2.37663 1.87527 -6.11721 -2.41517 1.88151 -6.14854 -2.45364 1.88778 
-6.17994 -2.49204 1.89408 -6.21143 -2.53037 1.90041 -6.24302 -2.56862 1.90676 
-6.2747 -2.60678 1.91313 -6.30648 -2.64485 1.91952 -6.33838 -2.68283 1.92591 
-6.37039 -2.72071 1.93232 -6.40252 -2.75849 1.93872 -6.43478 -2.79617 1.94512 
-6.46716 -2.83374 1.95151 -6.49969 -2.87119 1.95789 -6.53236 -2.90853 1.96425 
-6.56516 -2.94576 1.97058 -6.59811 -2.98286 1.97687 -6.63121 -3.01985 1.98312 
-6.66444 -3.05671 1.9893 -6.69783 -3.09346 1.99541 -6.73137 -3.13008 2.00145 
-6.76505 -3.16657 2.0074 -6.79889 -3.20294 2.01325 -6.83288 -3.23919 2.019 
-6.86703 -3.2753 2.02463 -6.90133 -3.31128 2.03013 -6.9358 -3.34714 2.0355 
-6.97042 -3.38286 2.04073 -7.0052 -3.41844 2.04579 -7.04015 -3.4539 2.0507 
-7.07526 -3.48921 2.05543 -7.11053 -3.52439 2.05998 -7.14598 -3.55943 2.06433 
-7.18159 -3.59432 2.06849 -7.21737 -3.62908 2.07242 -7.25331 -3.6637 2.07614 
-7.28942 -3.69818 2.07962 -7.32568 -3.73252 2.08285 -7.36209 -3.76673 2.08582 
-7.39865 -3.8008 2.08853 -7.43535 -3.83473 2.09095 -7.4722 -3.86854 2.09308 
-7.50918 -3.90221 2.09491 -7.54629 -3.93575 2.09642 -7.58353 -3.96916 2.09761 
-7.6209 -4.00244 2.09845 -7.65839 -4.03559 2.09895 -7.69599 -4.06862 2.09909 
-7.73371 -4.10152 2.09886 -7.77153 -4.13429 2.09824 -7.80946 -4.16694 2.09723 
-7.84749 -4.19947 2.09582 -7.88562 -4.23188 2.09399 -7.92384 -4.26417 2.09173 
-7.96215 -4.29633 2.08903 -8.00053 -4.32838 2.08587 -8.03898 -4.36031 2.08225 
-8.07749 -4.39213 2.07814 -8.11603 -4.42382 2.07354 -8.1546 -4.4554 2.06843 
-8.1932 -4.48687 2.06279 -8.2318 -4.51822 2.05661 -8.2704 -4.54946 2.04988 
-8.30898 -4.58059 2.04258 -8.34754 -4.6116 2.03471 -8.38606 -4.6425 2.02623 
-8.42453 -4.6733 2.01715 -8.46294 -4.70398 2.00744 -8.50128 -4.73456 1.9971 
-8.53953 -4.76503 1.9861 -8.57769 -4.79539 1.97444 -8.61575 -4.82564 1.9621 
-8.65369 -4.85579 1.94906 -8.69149 -4.88584 1.93532 -8.72916 -4.91578 1.92085 
-8.76667 -4.94561 1.90566 -8.80398 -4.97533 1.88974 -8.84109 -5.00494 1.87307 
-8.87795 -5.03443 1.85567 -8.91456 -5.06381 1.83752 -8.95089 -5.09305 1.81862 
-8.98691 -5.12217 1.79896 -9.02259 -5.15116 1.77854 -9.05793 -5.18001 1.75736 
-9.09288 -5.20873 1.7354 -9.12742 -5.2373 1.71267 -9.16154 -5.26573 1.68916 
-9.19521 -5.29401 1.66487 -9.2284 -5.32214 1.63978 -9.2611 -5.35012 1.6139 
-9.29326 -5.37793 1.58722 -9.32488 -5.40559 1.55974 -9.35593 -5.43307 1.53145 
-9.38638 -5.46039 1.50235 -9.41622 -5.48754 1.47243 -9.44542 -5.51451 1.44171 
-9.47397 -5.5413 1.4102 -9.50186 -5.56792 1.37793 -9.52909 -5.59435 1.34492 
-9.55564 -5.62059 1.31119 -9.58149 -5.64665 1.27676 -9.60665 -5.67252 1.24165 
-9.63109 -5.69819 1.20589 -9.65481 -5.72367 1.16949 -9.67779 -5.74895 1.13247 
-9.70003 -5.77403 1.09486 -9.72152 -5.79891 1.05668 -9.74223 -5.82358 1.01795 
-9.76216 -5.84804 0.978682 -9.78131 -5.87229 0.93891 -9.79965 -5.89633 0.898649 
-9.81718 -5.92016 0.85792 -9.83389 -5.94376 0.816746 -9.84976 -5.96714 0.775147 
-9.86479 -5.99031 0.733144 -9.87898 -6.01324 0.690756 -9.89232 -6.03596 0.648002 
-9.90484 -6.05847 0.604899 -9.91654 -6.08075 0.561465 -9.92743 -6.10283 0.517718 
-9.93752 -6.12471 0.473675 -9.94682 -6.14638 0.429354 -9.95534 -6.16785 0.384773 
-9.96308 -6.18913 0.33995 -9.97007 -6.21021 0.294902 -9.97631 -6.23111 0.249648 
-9.9818 -6.25182 0.204204 -9.98655 -6.27235 0.158589 -9.99059 -6.2927 0.112821 
-9.99391 -6.31287 0.066917 -9.99652 -6.33288 0.020895 -9.99844 -6.35271 -0.0252272 
-9.99967 -6.37238 -0.0714318 -10.0002 -6.39189 -0.117701 -10.0001 -6.41124 -0.164017 
-9.99934 -6.43043 -0.210366 -9.99793 -6.44948 -0.256741 -9.99587 -6.46838 -0.303133 
-9.99319 -6.48714 -0.349538 -9.9899 -6.50576 -0.395949 -9.986 -6.52425 -0.442358 
-9.9815 -6.54261 -0.48876 -9.97642 -6.56085 -0.535148 -9.97077 -6.57897 -0.581515 
-9.96456 -6.59697 -0.627854 -9.95779 -6.61487 -0.67416 -9.95048 -6.63266 -0.720425 
-9.94265 -6.65035 -0.766644 -9.93429 -6.66794 -0.812808 -9.92542 -6.68544 -0.858913 
-9.91605 -6.70286 -0.90495 -9.90619 -6.72019 -0.950915 -9.89585 -6.73744 -0.996799 
-9.88505 -6.75462 -1.0426 -9.87379 -6.77173 -1.0883 -9.86208 -6.78877 -1.13391 
-9.84994 -6.80575 -1.17941 -9.83737 -6.82268 -1.22481 -9.82437 -6.83956 -1.27011 
-9.81096 -6.85639 -1.3153 -9.79715 -6.87317 -1.36038 -9.78294 -6.88993 -1.40535 
-9.76835 -6.90665 -1.45021 -9.75338 -6.92334 -1.49495 -9.73804 -6.94001 -1.53957 
-9.72234 -6.95666 -1.58408 -9.70628 -6.9733 -1.62847 -9.68988 -6.98994 -1.67274 
-9.67315 -7.00657 -1.71688 -9.65608 -7.0232 -1.7609 -9.6387 -7.03983 -1.80479 
-9.62101 -7.05648 -1.84855 -9.60302 -7.07315 -1.89218 -9.58473 -7.08983 -1.93568 
-9.56616 -7.10654 -1.97905 -9.54731 -7.12328 -2.02227 -9.5282 -7.14006 -2.06537 
-9.50882 -7.15687 -2.10832 -9.48918 -7.17373 -2.15113 -9.46929 -7.19064 -2.19381 
-9.44916 -7.2076 -2.23635 -9.42879 -7.22463 -2.27875 -9.40819 -7.24171 -2.32101 
-9.38736 -7.25887 -2.36313 -9.36631 -7.2761 -2.40511 -9.34505 -7.29341 -2.44696 
-9.32358 -7.3108 -2.48866 -9.30191 -7.32828 -2.53021 -9.28004 -7.34586 -2.57163 
-9.25798 -7.36353 -2.61291 -9.23574 -7.38131 -2.65404 -9.21332 -7.39919 -2.69503 
-9.19073 -7.41719 -2.73588 -9.16798 -7.4353 -2.77658 -9.14507 -7.45354 -2.81715 
-9.122 -7.47191 -2.85756 -9.09879 -7.49041 -2.89784 -9.07543 -7.50904 -2.93796 
-9.05194 -7.52781 -2.97794 -9.02831 -7.54673 -3.01777 -9.00455 -7.5658 -3.05745 
-8.98066 -7.58502 -3.09699 -8.95666 -7.6044 -3.13636 -8.93253 -7.62395 -3.17559 
-8.90829 -7.64365 -3.21466 -8.88395 -7.66353 -3.25358 -8.85949 -7.68359 -3.29234 
-8.83494 -7.70382 -3.33094 -8.81029 -7.72423 -3.36939 -8.78555 -7.74484 -3.40767 
-8.76072 -7.76563 -3.44579 -8.73581 -7.78662 -3.48376 -8.71081 -7.80781 -3.52155 
-8.68575 -7.82921 -3.55918 -8.66061 -7.85081 -3.59665 -8.6354 -7.87263 -3.63395 
-8.61013 -7.89467 -3.67108 -8.5848 -7.91692 -3.70804 -8.55942 -7.9394 -3.74483 
[...]
CELL_DATA 1
FIELD FieldData 2
Length 1 1 double
63.860143168 
Tortuosity 1 1 double
1.0501109766 
POINT_DATA 1278
SCALARS MaximumInscribedSphereRadius float
LOOKUP_TABLE default
1.24 1.24 1.24 1.24 1.24 1.24 1.24 1.24 1.24 
1.24 1.24 1.24 1.24 1.24 1.24 1.24 1.24 1.24 
1.24 1.24 1.24 1.24 1.24 1.24 1.24 1.24 1.24 
1.24 1.24 1.24 1.24 1.24 1.24 1.24 1.24 1.24 
1.24 1.24 1.24 1.24 1.24 1.2398 1.23939 1.23899 1.23858 
1.23818 1.23777 1.23737 1.23696 1.23656 1.23615 1.23575 1.23534 1.23494 
1.23453 1.23412 1.23372 1.23331 1.23291 1.2325 1.2321 1.23067 1.22389 
1.2171 1.21032 1.20354 1.19676 1.18998 1.1832 1.17642 1.16963 1.16285 
1.15607 1.14929 1.14251 1.13573 1.12894 1.12216 1.11538 1.1086 1.10182 
1.09504 1.08741 1.0797 1.07198 1.06427 1.05655 1.04884 1.04112 1.03341 
1.02569 1.01798 1.01026 1.00255 0.994833 0.987118 0.979403 0.971687 0.963973 
0.956257 0.948542 0.940827 0.938501 0.939109 0.939718 0.940326 0.940935 0.941543 
0.942152 0.94276 0.943369 0.943977 0.944586 0.945194 0.945803 0.946411 0.94702 
0.947628 0.948237 0.948845 0.949454 0.950062 0.953061 0.960222 0.967382 0.974543 
0.981703 0.988864 0.996025 1.00319 1.01035 1.01751 1.02467 1.03183 1.03899 
1.04615 1.05331 1.06047 1.06763 1.07479 1.08195 1.08911 1.09629 1.10368 
1.11107 1.11846 1.12585 1.13324 1.14063 1.14801 1.1554 1.16279 1.17018 
1.17757 1.18496 1.19235 1.19974 1.20713 1.21452 1.22191 1.2293 1.23669 
1.24408 1.24658 1.24774 1.24891 1.25007 1.25123 1.25239 1.25356 1.25472 
1.25588 1.25704 1.2582 1.25937 1.26053 1.26169 1.26285 1.26402 1.26518 
1.26634 1.2675 1.26866 1.27053 1.2731 1.27567 1.27824 1.28081 1.28338 
1.28594 1.28851 1.29108 1.29365 1.29622 1.29879 1.30136 1.30393 1.3065 
1.30907 1.31164 1.31421 1.31678 1.31935 1.32232 1.32675 1.33118 1.33561 
1.34003 1.34446 1.34889 1.35332 1.35775 1.36217 1.3666 1.37103 1.37546 
1.37988 1.38431 1.38874 1.39317 1.3976 1.40202 1.40645 1.41088 1.41991 
1.42922 1.43852 1.44782 1.45712 1.46642 1.47572 1.48502 1.49432 1.50362 
1.51292 1.52222 1.53152 1.54082 1.55013 1.55943 1.56873 1.57803 1.58733 
1.59663 1.59166 1.58074 1.56981 1.55888 1.54796 1.53703 1.5261 1.51518 
1.50425 1.49333 1.4824 1.47147 1.46055 1.44962 1.43869 1.42777 1.41684 
1.40591 1.39499 1.38406 1.37284 1.3613 1.34976 1.33822 1.32667 1.31513 
1.30359 1.29205 1.28051 1.26897 1.25743 1.24589 1.23435 1.22281 1.21127 
1.19973 1.18819 1.17665 1.16511 1.15356 1.14568 1.14961 1.15355 1.15748 
1.16141 1.16535 1.16928 1.17321 1.17715 1.18108 1.18501 1.18895 1.19288 
1.19681 1.20075 1.20468 1.20861 1.21255 1.21648 1.22041 1.22435 1.22522 
1.22598 1.22675 1.22751 1.22828 1.22905 1.22981 1.23058 1.23134 1.23211 
1.23287 1.23364 1.2344 1.23517 1.23593 1.2367 1.23746 1.23823 1.23899 
1.23976 1.2419 1.24467 1.24745 1.25023 1.253 1.25578 1.25855 1.26133 
1.2641 1.26688 1.26966 1.27243 1.27521 1.27798 1.28076 1.28353 1.28631 
1.28909 1.29186 1.29464 1.2998 1.30857 1.31734 1.32611 1.33488 1.34365 
1.35242 1.36119 1.36996 1.37873 1.38751 1.39628 1.40505 1.41382 1.42259 
1.43136 1.44013 1.4489 1.45767 1.46644 1.47526 1.48444 1.49362 1.5028 
1.51198 1.52116 1.53035 1.53953 1.54871 1.55789 1.56707 1.57625 1.58543 
1.59462 1.6038 1.61298 1.62216 1.63134 1.64052 1.6497 1.65888 1.66693 
1.67474 1.68255 1.69037 1.69818 1.70599 1.7138 1.72161 1.72942 1.73723 
1.74504 1.75285 1.76066 1.76847 1.77628 1.78409 1.7919 1.79972 1.80753 
1.81534 1.81918 1.81973 1.82027 1.82082 1.82137 1.82191 1.82246 1.82301 
1.82356 1.8241 1.82465 1.8252 1.82574 1.82629 1.82684 1.82738 1.82793 
1.82848 1.82903 1.82957 1.82769 1.81938 1.81108 1.80277 1.79446 1.78615 
1.77785 1.76954 1.76123 1.75292 1.74462 1.73631 1.728 1.71969 1.71139 
1.70308 1.69477 1.68646 1.67816 1.66985 1.6615 1.64743 1.63335 1.61928 
1.60521 1.59113 1.57706 1.56299 1.54892 1.53484 1.52077 1.5067 1.49262 
1.47855 1.46448 1.45041 1.43633 1.42226 1.40819 1.39411 1.38004 1.3765 
1.3732 1.36989 1.36659 1.36328 1.35998 1.35668 1.35337 1.35007 1.34676 
1.34346 1.34016 1.33685 1.33355 1.33024 1.32694 1.32364 1.32033 1.31703 
1.31372 1.32148 1.33068 1.33988 1.34908 1.35829 1.36749 1.37669 1.3859 
1.3951 1.4043 1.41351 1.42271 1.43191 1.44111 1.45032 1.45952 1.46872 
1.47793 1.48713 1.49633 1.50128 1.50376 1.50624 1.50872 1.51119 1.51367 
1.51615 1.51863 1.52111 1.52359 1.52607 1.52855 1.53103 1.5335 1.53598 
1.53846 1.54094 1.54342 1.5459 1.54838 1.55102 1.55398 1.55694 1.5599 
1.56285 1.56581 1.56877 1.57173 1.57468 1.57764 1.5806 1.58356 1.58651 
1.58947 1.59243 1.59539 1.59835 1.6013 1.60426 1.60722 1.6106 1.62069 
1.63078 1.64087 1.65096 1.66105 1.67114 1.68123 1.69132 1.7014 1.71149 
1.72158 1.73167 1.74176 1.75185 1.76194 1.77203 1.78212 1.79221 1.8023 
1.81239 1.81633 1.81857 1.8208 1.82304 1.82528 1.82751 1.82975 1.83199 
1.83423 1.83646 1.8387 1.84094 1.84317 1.84541 1.84765 1.84988 1.85212 
1.85436 1.85659 1.85883 1.85822 1.85491 1.85159 1.84828 1.84497 1.84165 
1.83834 1.83503 1.83171 1.8284 1.82508 1.82177 1.81846 1.81514 1.81183 
1.80852 1.8052 1.80189 1.79858 1.79526 1.79041 1.78063 1.77084 1.76106 
1.75128 1.7415 1.73172 1.72194 1.71216 1.70238 1.6926 1.68282 1.67304 
1.66326 1.65348 1.6437 1.63392 1.62414 1.61436 1.60458 1.59479 1.59918 
1.60421 1.60923 1.61426 1.61929 1.62432 1.62935 1.63437 1.6394 1.64443 
1.64946 1.65448 1.65951 1.66454 1.66957 1.6746 1.67962 1.68465 1.68968 
1.69471 1.70101 1.70793 1.71485 1.72178 1.7287 1.73562 1.74255 1.74947 
1.75639 1.76332 1.77024 1.77717 1.78409 1.79101 1.79794 1.80486 1.81178 
1.81871 1.82563 1.83255 1.83726 1.8384 1.83954 1.84069 1.84183 1.84297 
1.84411 1.84526 1.8464 1.84754 1.84868 1.84983 1.85097 1.85211 1.85325 
1.8544 1.85554 1.85668 1.85782 1.85897 1.8596 1.85544 1.85127 1.8471 
1.84294 1.83877 1.8346 1.83044 1.82627 1.8221 1.81794 1.81377 1.8096 
1.80544 1.80127 1.7971 1.79294 1.78877 1.7846 1.78044 1.77627 1.7681 
1.75899 1.74987 1.74075 1.73164 1.72252 1.7134 1.70428 1.69517 1.68605 
1.67693 1.66782 1.6587 1.64958 1.64047 1.63135 1.62223 1.61312 1.604 
1.59488 1.5937 1.59968 1.60566 1.61164 1.61761 1.62359 1.62957 1.63555 
1.64153 1.6475 1.65348 1.65946 1.66544 1.67141 1.67739 1.68337 1.68935 
1.69532 1.7013 1.70728 1.71427 1.72429 1.73431 1.74434 1.75436 1.76438 
1.7744 1.78443 1.79445 1.80447 1.81449 1.82451 1.83454 1.84456 1.85458 
1.8646 1.87463 1.88465 1.89467 1.90469 1.91471 1.92488 1.93506 1.94523 
1.9554 1.96557 1.97574 1.98592 1.99609 2.00626 2.01643 2.0266 2.03678 
2.04695 2.05712 2.06729 2.07746 2.08764 2.09781 2.10798 2.11815 2.12272 
2.12514 2.12756 2.12998 2.1324 2.13482 2.13724 2.13966 2.14208 2.1445 
2.14692 2.14933 2.15175 2.15417 2.15659 2.15901 2.16143 2.16385 2.16627 
2.16869 2.16737 2.16163 2.1559 2.15016 2.14443 2.13869 2.13296 2.12722 
2.12149 2.11576 2.11002 2.10429 2.09855 2.09282 2.08708 2.08135 2.07561 
2.06988 2.06414 2.05841 2.05063 2.03379 2.01696 2.00012 1.98328 1.96644 
1.94961 1.93277 1.91593 1.89909 1.88226 1.86542 1.84858 1.83174 1.81491 
1.79807 1.78123 1.76439 1.74756 1.73072 1.71388 1.70546 1.69798 1.6905 
1.68301 1.67553 1.66804 1.66056 1.65308 1.64559 1.63811 1.63062 1.62314 
1.61566 1.60817 1.60069 1.5932 1.58572 1.57824 1.57075 1.56327 1.56107 
1.56221 1.56336 1.5645 1.56565 1.56679 1.56793 1.56908 1.57022 1.57137 
1.57251 1.57365 1.5748 1.57594 1.57709 1.57823 1.57937 1.58052 1.58166 
1.58281 1.58608 1.59382 1.60157 1.60931 1.61706 1.6248 1.63255 1.64029 
1.64804 1.65578 1.66352 1.67127 1.67901 1.68676 1.6945 1.70225 1.70999 
1.71773 1.72548 1.73322 1.74092 1.74709 1.75327 1.75945 1.76563 1.77181 
1.77799 1.78417 1.79035 1.79653 1.80271 1.80889 1.81507 1.82125 1.82743 
1.8336 1.83978 1.84596 1.85214 1.85832 1.8645 1.86606 1.86602 1.86599 
1.86596 1.86593 1.8659 1.86587 1.86584 1.8658 1.86577 1.86574 1.86571 
1.86568 1.86565 1.86561 1.86558 1.86555 1.86552 1.86549 1.86546 1.86532 
1.86505 1.86478 1.86451 1.86424 1.86398 1.86371 1.86344 1.86317 1.8629 
1.86263 1.86237 1.8621 1.86183 1.86156 1.86129 1.86103 1.86076 1.86049 
1.86022 1.86164 1.87091 1.88018 1.88945 1.89872 1.90798 1.91725 1.92652 
1.93579 1.94506 1.95433 1.9636 1.97286 1.98213 1.9914 2.00067 2.00994 
2.01921 2.02848 2.03774 2.04701 2.07742 2.11038 2.14334 2.1763 2.20926 
2.24222 2.27518 2.30814 2.3411 2.37406 2.40702 2.43998 2.47294 2.5059 
2.53886 2.57182 2.60478 2.63774 2.6707 2.70366 2.72259 2.73226 2.74193 
2.7516 2.76127 2.77094 2.78061 2.79028 2.79995 2.80962 2.81928 2.82895 
2.83862 2.84829 2.85796 2.86763 2.8773 2.88697 2.89664 2.90631 2.9073 
2.88918 2.87105 2.85293 2.83481 2.81669 2.79857 2.78045 2.76233 2.74421 
2.72608 2.70796 2.68984 2.67172 2.6536 2.63548 2.61736 2.59924 2.58111 
2.56299 2.54483 2.52528 2.50573 2.48618 2.46663 2.44708 2.42753 2.40798 
2.38843 2.36888 2.34933 2.32978 2.31022 2.29067 2.27112 2.25157 2.23202 
2.21247 2.19292 2.17337 2.15382 2.14588 2.14192 2.13796 2.13401 2.13005 
2.1261 2.12214 2.11818 2.11423 2.11027 2.10632 2.10236 2.09841 2.09445 
2.09049 2.08654 2.08258 2.07863 2.07467 2.07072 2.08041 2.10532 2.13023 
2.15514 2.18005 2.20496 2.22987 2.25478 2.27969 2.30461 2.32952 2.35443 
2.37934 2.40425 2.42916 2.45407 2.47898 2.50389 2.5288 2.55371 2.57112 
2.56127 2.55142 2.54156 2.53171 2.52186 2.512 2.50215 2.4923 2.48244 
2.47259 2.46274 2.45288 2.44303 2.43318 2.42332 2.41347 2.40362 2.39376 
2.38391 2.37406 2.36894 2.36397 2.35899 2.35402 2.34905 2.34408 2.33911 
2.33413 2.32916 2.32419 2.31922 2.31424 2.30927 2.3043 2.29933 2.29436 
2.28938 2.28441 2.27944 2.27447 2.27851 2.28612 2.29372 2.30132 2.30893 
2.31653 2.32413 2.33174 2.33934 2.34695 2.35455 2.36215 2.36976 2.37736 
2.38497 2.39257 2.40017 2.40778 2.41538 2.42299 2.42115 2.40737 2.3936 
2.37983 2.36606 2.35229 2.33852 2.32475 2.31098 2.29721 2.28344 2.26967 
2.2559 2.24213 2.22835 2.21458 2.20081 2.18704 2.17327 2.1595 2.14622 
2.13554 2.12486 2.11419 2.10351 2.09283 2.08215 2.07148 2.0608 2.05012 
2.03944 2.02877 2.01809 2.00741 1.99673 1.98606 1.97538 1.9647 1.95402 
1.94335 1.93267 1.93683 1.94346 1.95008 1.95671 1.96333 1.96996 1.97658 
1.98321 1.98983 1.99646 2.00308 2.00971 2.01633 2.02296 2.02958 2.03621 
2.04283 2.04946 2.05608 2.06271 2.06035 2.04907 2.03779 2.02651 2.01523 
2.00395 1.99267 1.98139 1.97011 1.95883 1.94755 1.93627 1.92499 1.91371 
1.90243 1.89115 1.87987 1.86859 1.85731 1.84603 1.81864 1.78971 1.76078 
1.73185 1.70291 1.67398 1.64505 1.61612 1.58719 1.55825 1.52932 1.50039 
1.47146 1.44252 1.41359 1.38466 1.35573 1.3268 1.29786 1.26893 1.24 

TEXTURE_COORDINATES TCoords 2 float
0 0 0.000783085 0 0.00156617 0 0.00234926 0 0.00313234 
0 0.00391543 0 0.00469851 0 0.0054816 0 0.00626468 0 
0.00704777 0 0.00783085 0 0.00861394 0 0.00939702 0 0.0101801 
0 0.0109632 0 0.0117463 0 0.0125294 0 0.0133125 0 
0.0140955 0 0.0148786 0 0.0156617 0 0.0164448 0 0.0172279 
0 0.018011 0 0.018794 0 0.0195771 0 0.0203602 0 
0.0211433 0 0.0219264 0 0.0227095 0 0.0234926 0 0.0242756 
0 0.0250587 0 0.0258418 0 0.0266249 0 0.027408 0 
0.0281911 0 0.0289742 0 0.0297572 0 0.0305403 0 0.0313234 
0 0.0321065 0 0.0328896 0 0.0336727 0 0.0344558 0 
0.0352388 0 0.0360219 0 0.036805 0 0.0375881 0 0.0383712 
0 0.0391543 0 0.0399374 0 0.0407204 0 0.0415035 0 
0.0422866 0 0.0430697 0 0.0438528 0 0.0446359 0 0.045419 
0 0.046202 0 0.0469851 0 0.0477682 0 0.0485513 0 
0.0493344 0 0.0501175 0 0.0509005 0 0.0516836 0 0.0524667 
0 0.0532498 0 0.0540329 0 0.054816 0 0.0555991 0 
0.0563821 0 0.0571652 0 0.0579483 0 0.0587314 0 0.0595145 
0 0.0602976 0 0.0610807 0 0.0618637 0 0.0626468 0 
0.0634299 0 0.064213 0 0.0649961 0 0.0657792 0 0.0665623 
0 0.0673453 0 0.0681284 0 0.0689115 0 0.0696946 0 
0.0704777 0 0.0712608 0 0.0720439 0 0.0728269 0 0.07361 
0 0.0743931 0 0.0751762 0 0.0759593 0 0.0767424 0 
0.0775255 0 0.0783085 0 0.0790916 0 0.0798747 0 0.0806578 
0 0.0814409 0 0.082224 0 0.083007 0 0.0837901 0 
0.0845732 0 0.0853563 0 0.0861394 0 0.0869225 0 0.0877056 
0 0.0884886 0 0.0892717 0 0.0900548 0 0.0908379 0 
0.091621 0 0.0924041 0 0.0931872 0 0.0939702 0 0.0947533 
0 0.0955364 0 0.0963195 0 0.0971026 0 0.0978857 0 
0.0986688 0 0.0994518 0 0.100235 0 0.101018 0 0.101801 
0 0.102584 0 0.103367 0 0.10415 0 0.104933 0 
0.105717 0 0.1065 0 0.107283 0 0.108066 0 0.108849 
0 0.109632 0 0.110415 0 0.111198 0 0.111981 0 
0.112764 0 0.113547 0 0.11433 0 0.115114 0 0.115897 
0 0.11668 0 0.117463 0 0.118246 0 0.119029 0 
0.119812 0 0.120595 0 0.121378 0 0.122161 0 0.122944 
0 0.123727 0 0.124511 0 0.125294 0 0.126077 0 
0.12686 0 0.127643 0 0.128426 0 0.129209 0 0.129992 
0 0.130775 0 0.131558 0 0.132341 0 0.133125 0 
0.133908 0 0.134691 0 0.135474 0 0.136257 0 0.13704 
0 0.137823 0 0.138606 0 0.139389 0 0.140172 0 
0.140955 0 0.141738 0 0.142522 0 0.143305 0 0.144088 
0 0.144871 0 0.145654 0 0.146437 0 0.14722 0 
0.148003 0 0.148786 0 0.149569 0 0.150352 0 0.151135 
0 0.151919 0 0.152702 0 0.153485 0 0.154268 0 
0.155051 0 0.155834 0 0.156617 0 0.1574 0 0.158183 
0 0.158966 0 0.159749 0 0.160533 0 0.161316 0 
0.162099 0 0.162882 0 0.163665 0 0.164448 0 0.165231 
0 0.166014 0 0.166797 0 0.16758 0 0.168363 0 
0.169146 0 0.16993 0 0.170713 0 0.171496 0 0.172279 
0 0.173062 0 0.173845 0 0.174628 0 0.175411 0 
0.176194 0 0.176977 0 0.17776 0 0.178543 0 0.179327 
0 0.18011 0 0.180893 0 0.181676 0 0.182459 0 
0.183242 0 0.184025 0 0.184808 0 0.185591 0 0.186374 
0 0.187157 0 0.18794 0 0.188724 0 0.189507 0 
0.19029 0 0.191073 0 0.191856 0 0.192639 0 0.193422 
0 0.194205 0 0.194988 0 0.195771 0 0.196554 0 
0.197338 0 0.198121 0 0.198904 0 0.199687 0 0.20047 
0 0.201253 0 0.202036 0 0.202819 0 0.203602 0 
0.204385 0 0.205168 0 0.205951 0 0.206735 0 0.207518 
0 0.208301 0 0.209084 0 0.209867 0 0.21065 0 
0.211433 0 0.212216 0 0.212999 0 0.213782 0 0.214565 
0 0.215348 0 0.216132 0 0.216915 0 0.217698 0 
0.218481 0 0.219264 0 0.220047 0 0.22083 0 0.221613 
0 0.222396 0 0.223179 0 0.223962 0 0.224745 0 
0.225529 0 0.226312 0 0.227095 0 0.227878 0 0.228661 
0 0.229444 0 0.230227 0 0.23101 0 0.231793 0 
0.232576 0 0.233359 0 0.234143 0 0.234926 0 0.235709 
0 0.236492 0 0.237275 0 0.238058 0 0.238841 0 
0.239624 0 0.240407 0 0.24119 0 0.241973 0 0.242756 
0 0.24354 0 0.244323 0 0.245106 0 0.245889 0 
0.246672 0 0.247455 0 0.248238 0 0.249021 0 0.249804 
0 0.250587 0 0.25137 0 0.252153 0 0.252937 0 
0.25372 0 0.254503 0 0.255286 0 0.256069 0 0.256852 
0 0.257635 0 0.258418 0 0.259201 0 0.259984 0 
0.260767 0 0.261551 0 0.262334 0 0.263117 0 0.2639 
0 0.264683 0 0.265466 0 0.266249 0 0.267032 0 
0.267815 0 0.268598 0 0.269381 0 0.270164 0 0.270948 
0 0.271731 0 0.272514 0 0.273297 0 0.27408 0 
0.274863 0 0.275646 0 0.276429 0 0.277212 0 0.277995 
0 0.278778 0 0.279561 0 0.280345 0 0.281128 0 
0.281911 0 0.282694 0 0.283477 0 0.28426 0 0.285043 
0 0.285826 0 0.286609 0 0.287392 0 0.288175 0 
0.288958 0 0.289742 0 0.290525 0 0.291308 0 0.292091 
0 0.292874 0 0.293657 0 0.29444 0 0.295223 0 
0.296006 0 0.296789 0 0.297572 0 0.298356 0 0.299139 
0 0.299922 0 0.300705 0 0.301488 0 0.302271 0 
0.303054 0 0.303837 0 0.30462 0 0.305403 0 0.306186 
0 0.306969 0 0.307753 0 0.308536 0 0.309319 0 
0.310102 0 0.310885 0 0.311668 0 0.312451 0 0.313234 
0 0.314017 0 0.3148 0 0.315583 0 0.316366 0 
0.31715 0 0.317933 0 0.318716 0 0.319499 0 0.320282 
0 0.321065 0 0.321848 0 0.322631 0 0.323414 0 
0.324197 0 0.32498 0 0.325763 0 0.326547 0 0.32733 
0 0.328113 0 0.328896 0 0.329679 0 0.330462 0 
0.331245 0 0.332028 0 0.332811 0 0.333594 0 0.334377 
0 0.335161 0 0.335944 0 0.336727 0 0.33751 0 
0.338293 0 0.339076 0 0.339859 0 0.340642 0 0.341425 
0 0.342208 0 0.342991 0 0.343774 0 0.344558 0 
0.345341 0 0.346124 0 0.346907 0 0.34769 0 0.348473 
0 0.349256 0 0.350039 0 0.350822 0 0.351605 0 
0.352388 0 0.353171 0 0.353955 0 0.354738 0 0.355521 
0 0.356304 0 0.357087 0 0.35787 0 0.358653 0 
0.359436 0 0.360219 0 0.361002 0 0.361785 0 0.362569 
0 0.363352 0 0.364135 0 0.364918 0 0.365701 0 
0.366484 0 0.367267 0 0.36805 0 0.368833 0 0.369616 
0 0.370399 0 0.371182 0 0.371966 0 0.372749 0 
0.373532 0 0.374315 0 0.375098 0 0.375881 0 0.376664 
0 0.377447 0 0.37823 0 0.379013 0 0.379796 0 
0.380579 0 0.381363 0 0.382146 0 0.382929 0 0.383712 
0 0.384495 0 0.385278 0 0.386061 0 0.386844 0 
0.387627 0 0.38841 0 0.389193 0 0.389977 0 0.39076 
0 0.391543 0 0.392326 0 0.393109 0 0.393892 0 
0.394675 0 0.395458 0 0.396241 0 0.397024 0 0.397807 
0 0.39859 0 0.399374 0 0.400157 0 0.40094 0 
0.401723 0 0.402506 0 0.403289 0 0.404072 0 0.404855 
0 0.405638 0 0.406421 0 0.407204 0 0.407987 0 
0.408771 0 0.409554 0 0.410337 0 0.41112 0 0.411903 
0 0.412686 0 0.413469 0 0.414252 0 0.415035 0 
0.415818 0 0.416601 0 0.417385 0 0.418168 0 0.418951 
0 0.419734 0 0.420517 0 0.4213 0 0.422083 0 
0.422866 0 0.423649 0 0.424432 0 0.425215 0 0.425998 
0 0.426782 0 0.427565 0 0.428348 0 0.429131 0 
0.429914 0 0.430697 0 0.43148 0 0.432263 0 0.433046 
0 0.433829 0 0.434612 0 0.435395 0 0.436179 0 
0.436962 0 0.437745 0 0.438528 0 0.439311 0 0.440094 
0 0.440877 0 0.44166 0 0.442443 0 0.443226 0 
0.444009 0 0.444792 0 0.445576 0 0.446359 0 0.447142 
0 0.447925 0 0.448708 0 0.449491 0 0.450274 0 
0.451057 0 0.45184 0 0.452623 0 0.453406 0 0.45419 
0 0.454973 0 0.455756 0 0.456539 0 0.457322 0 
0.458105 0 0.458888 0 0.459671 0 0.460454 0 0.461237 
0 0.46202 0 0.462803 0 0.463587 0 0.46437 0 
0.465153 0 0.465936 0 0.466719 0 0.467502 0 0.468285 
0 0.469068 0 0.469851 0 0.470634 0 0.471417 0 
0.4722 0 0.472984 0 0.473767 0 0.47455 0 0.475333 
0 0.476116 0 0.476899 0 0.477682 0 0.478465 0 
0.479248 0 0.480031 0 0.480814 0 0.481597 0 0.482381 
0 0.483164 0 0.483947 0 0.48473 0 0.485513 0 
0.486296 0 0.487079 0 0.487862 0 0.488645 0 0.489428 
0 0.490211 0 0.490995 0 0.491778 0 0.492561 0 
0.493344 0 0.494127 0 0.49491 0 0.495693 0 0.496476 
0 0.497259 0 0.498042 0 0.498825 0 0.499608 0 
0.500392 0 0.501175 0 0.501958 0 0.502741 0 0.503524 
0 0.504307 0 0.50509 0 0.505873 0 0.506656 0 
0.507439 0 0.508222 0 0.509005 0 0.509789 0 0.510572 
0 0.511355 0 0.512138 0 0.512921 0 0.513704 0 
0.514487 0 0.51527 0 0.516053 0 0.516836 0 0.517619 
0 0.518403 0 0.519186 0 0.519969 0 0.520752 0 
0.521535 0 0.522318 0 0.523101 0 0.523884 0 0.524667 
0 0.52545 0 0.526233 0 0.527016 0 0.5278 0 
0.528583 0 0.529366 0 0.530149 0 0.530932 0 0.531715 
0 0.532498 0 0.533281 0 0.534064 0 0.534847 0 
0.53563 0 0.536413 0 0.537197 0 0.53798 0 0.538763 
0 0.539546 0 0.540329 0 0.541112 0 0.541895 0 
0.542678 0 0.543461 0 0.544244 0 0.545027 0 0.545811 
0 0.546594 0 0.547377 0 0.54816 0 0.548943 0 
0.549726 0 0.550509 0 0.551292 0 0.552075 0 0.552858 
0 0.553641 0 0.554424 0 0.555207 0 0.555991 0 
0.556774 0 0.557557 0 0.55834 0 0.559123 0 0.559906 
0 0.560689 0 0.561472 0 0.562255 0 0.563038 0 
0.563821 0 0.564605 0 0.565388 0 0.566171 0 0.566954 
0 0.567737 0 0.56852 0 0.569303 0 0.570086 0 
0.570869 0 0.571652 0 0.572435 0 0.573218 0 0.574002 
0 0.574785 0 0.575568 0 0.576351 0 0.577134 0 
0.577917 0 0.5787 0 0.579483 0 0.580266 0 0.581049 
0 0.581832 0 0.582615 0 0.583399 0 0.584182 0 
0.584965 0 0.585748 0 0.586531 0 0.587314 0 0.588097 
0 0.58888 0 0.589663 0 0.590446 0 0.591229 0 
0.592013 0 0.592796 0 0.593579 0 0.594362 0 0.595145 
0 0.595928 0 0.596711 0 0.597494 0 0.598277 0 
0.59906 0 0.599843 0 0.600626 0 0.60141 0 0.602193 
0 0.602976 0 0.603759 0 0.604542 0 0.605325 0 
0.606108 0 0.606891 0 0.607674 0 0.608457 0 0.60924 
0 0.610023 0 0.610807 0 0.61159 0 0.612373 0 
0.613156 0 0.613939 0 0.614722 0 0.615505 0 0.616288 
0 0.617071 0 0.617854 0 0.618637 0 0.619421 0 
0.620204 0 0.620987 0 0.62177 0 0.622553 0 0.623336 
0 0.624119 0 0.624902 0 0.625685 0 0.626468 0 
0.627251 0 0.628034 0 0.628818 0 0.629601 0 0.630384 
0 0.631167 0 0.63195 0 0.632733 0 0.633516 0 
0.634299 0 0.635082 0 0.635865 0 0.636648 0 0.637432 
0 0.638215 0 0.638998 0 0.639781 0 0.640564 0 
0.641347 0 0.64213 0 0.642913 0 0.643696 0 0.644479 
0 0.645262 0 0.646045 0 0.646829 0 0.647612 0 
0.648395 0 0.649178 0 0.649961 0 0.650744 0 0.651527 
0 0.65231 0 0.653093 0 0.653876 0 0.654659 0 
0.655442 0 0.656226 0 0.657009 0 0.657792 0 0.658575 
0 0.659358 0 0.660141 0 0.660924 0 0.661707 0 
0.66249 0 0.663273 0 0.664056 0 0.664839 0 0.665623 