# vtk DataFile Version 4.2
vtk output
ASCII
DATASET POLYDATA
POINTS 1274 float
0 0 0 -0.00381187 0.00196655 0.000562475 -0.014923 0.00764413 0.00223282 
-0.0328468 0.0166996 0.00498542 -0.0570964 0.0287999 0.00879465 -0.0871852 0.0436119 0.0136349 
-0.122627 0.0608025 0.0194806 -0.162934 0.0800385 0.026306 -0.20762 0.100987 0.0340856 
-0.256198 0.123314 0.0427937 -0.308183 0.146688 0.0524048 -0.363086 0.170775 0.0628931 
-0.420422 0.195242 0.0742332 -0.479703 0.219755 0.0863993 -0.540443 0.243982 0.0993659 
-0.602156 0.26759 0.113107 -0.664353 0.290245 0.127598 -0.72655 0.311614 0.142812 
-0.788259 0.331365 0.158724 -0.848993 0.349164 0.175309 -0.908266 0.364677 0.19254 
-0.965635 0.377606 0.210393 -1.02103 0.387932 0.228842 -1.07454 0.395773 0.247864 
-1.1263 0.401251 0.267435 -1.17639 0.404485 0.28753 -1.22495 0.405597 0.308126 
-1.27206 0.404708 0.329199 -1.31784 0.401938 0.350725 -1.3624 0.397407 0.372679 
-1.40584 0.391237 0.395038 -1.44828 0.383547 0.417777 -1.48982 0.374459 0.440873 
-1.53057 0.364093 0.464302 -1.57063 0.35257 0.48804 -1.61013 0.34001 0.512062 
-1.64916 0.326535 0.536344 -1.68783 0.312264 0.560863 -1.72626 0.297319 0.585595 
-1.76455 0.28182 0.610516 -1.8028 0.265887 0.635601 -1.84113 0.249635 0.660827 
-1.87955 0.233104 0.686182 -1.91804 0.216288 0.711657 -1.95659 0.19918 0.737247 
-1.99518 0.181775 0.762942 -2.03378 0.164065 0.788737 -2.07238 0.146045 0.814625 
-2.11094 0.127707 0.840597 -2.14946 0.109047 0.866647 -2.18791 0.0900561 0.892768 
-2.22627 0.0707295 0.918952 -2.26452 0.0510603 0.945192 -2.30264 0.0310422 0.971482 
-2.34061 0.0106687 0.997814 -2.37841 -0.0100665 1.02418 -2.41601 -0.0311698 1.05057 
-2.4534 -0.0526476 1.07699 -2.49055 -0.0745064 1.10342 -2.52745 -0.0967524 1.12985 
-2.56407 -0.119392 1.15628 -2.6004 -0.142432 1.18271 -2.63643 -0.165868 1.20912 
-2.67216 -0.189686 1.2355 -2.70761 -0.213872 1.26186 -2.74279 -0.238411 1.28819 
-2.7777 -0.263286 1.31447 -2.81237 -0.288484 1.3407 -2.8468 -0.31399 1.36687 
-2.881 -0.339788 1.39299 -2.91498 -0.365864 1.41903 -2.94876 -0.392202 1.445 
-2.98234 -0.418788 1.47089 -3.01574 -0.445607 1.49668 -3.04896 -0.472643 1.52238 
-3.08201 -0.499882 1.54798 -3.11492 -0.527309 1.57347 -3.14768 -0.554909 1.59884 
-3.18031 -0.582666 1.62409 -3.21282 -0.610567 1.6492 -3.24522 -0.638595 1.67418 
-3.27752 -0.666736 1.69902 -3.30974 -0.694983 1.72371 -3.34189 -0.723345 1.74824 
-3.37398 -0.751837 1.77262 -3.40605 -0.780472 1.79683 -3.4381 -0.809264 1.82087 
-3.47017 -0.838227 1.84475 -3.50225 -0.867374 1.86844 -3.53438 -0.896718 1.89196 
-3.56658 -0.926274 1.91529 -3.59885 -0.956056 1.93843 -3.63123 -0.986076 1.96138 
-3.66372 -1.01635 1.98413 -3.69636 -1.04689 2.00668 -3.72915 -1.0777 2.02902 
-3.76211 -1.10882 2.05115 -3.79527 -1.14023 2.07306 -3.82865 -1.17197 2.09475 
-3.86225 -1.20405 2.11622 -3.89611 -1.23647 2.13746 -3.93023 -1.26925 2.15847 
-3.96464 -1.30241 2.17923 -3.9993 -1.33591 2.19963 -4.03417 -1.36974 2.21957 
-4.06921 -1.40387 2.2389 -4.10437 -1.43826 2.25751 -4.13963 -1.47289 2.27526 
-4.17492 -1.50774 2.29204 -4.21022 -1.54277 2.30772 -4.24548 -1.57795 2.32217 
-4.28065 -1.61327 2.33527 -4.3157 -1.64868 2.34688 -4.35059 -1.68416 2.35689 
-4.38526 -1.71968 2.36517 -4.41969 -1.75523 2.37159 -4.45382 -1.79075 2.37603 
-4.48761 -1.82624 2.37836 -4.52103 -1.86165 2.37846 -4.55404 -1.89697 2.37619 
-4.58658 -1.93217 2.37144 -4.61861 -1.96721 2.36408 -4.65011 -2.00207 2.354 
-4.68105 -2.03673 2.34126 -4.71142 -2.07117 2.32597 -4.74122 -2.10539 2.30828 
-4.77045 -2.13938 2.28831 -4.7991 -2.17311 2.26618 -4.82716 -2.20657 2.24203 
-4.85463 -2.23975 2.21599 -4.88151 -2.27264 2.18819 -4.90778 -2.30522 2.15875 
-4.93344 -2.33748 2.12781 -4.95849 -2.3694 2.09549 -4.98292 -2.40098 2.06192 
-5.00672 -2.43219 2.02723 -5.0299 -2.46303 1.99156 -5.05244 -2.49349 1.95502 
-5.07434 -2.52353 1.91776 -5.09559 -2.55317 1.87989 -5.1162 -2.58237 1.84155 
-5.13614 -2.61113 1.80287 -5.15543 -2.63944 1.76396 -5.17407 -2.66731 1.72487 
-5.19211 -2.69479 1.68562 -5.20958 -2.72189 1.64621 -5.2265 -2.74867 1.60665 
-5.24292 -2.77515 1.56697 -5.25885 -2.80136 1.52716 -5.27433 -2.82735 1.48724 
-5.2894 -2.85313 1.44722 -5.30409 -2.87875 1.40711 -5.31843 -2.90424 1.36693 
-5.33244 -2.92963 1.32668 -5.34617 -2.95495 1.28639 -5.35963 -2.98025 1.24605 
-5.37288 -3.00555 1.20567 -5.38593 -3.03088 1.16529 -5.39882 -3.05629 1.12489 
-5.41158 -3.0818 1.0845 -5.42425 -3.10744 1.04412 -5.43685 -3.13326 1.00377 
-5.44941 -3.15928 0.963461 -5.46195 -3.18552 0.923197 -5.47446 -3.21197 0.882983 
-5.48693 -3.23865 0.842822 -5.49935 -3.26554 0.802719 -5.51172 -3.29264 0.762677 
-5.52402 -3.31996 0.722701 -5.53625 -3.3475 0.682794 -5.54839 -3.37524 0.642959 
-5.56045 -3.40319 0.603201 -5.57241 -3.43135 0.563523 -5.58427 -3.45972 0.52393 
-5.59601 -3.48829 0.484425 -5.60763 -3.51707 0.445011 -5.61911 -3.54606 0.405693 
-5.63046 -3.57524 0.366474 -5.64166 -3.60463 0.327358 -5.6527 -3.63422 0.28835 
-5.66358 -3.664 0.249452 -5.67429 -3.69399 0.210669 -5.68481 -3.72417 0.172004 
-5.69515 -3.75455 0.13346 -5.70528 -3.78512 0.0950369 -5.71519 -3.81589 0.0567352 
-5.72487 -3.84686 0.0185545 -5.73432 -3.87803 -0.0195053 -5.7435 -3.9094 -0.0574442 
-5.75242 -3.94097 -0.0952624 -5.76106 -3.97275 -0.13296 -5.7694 -4.00473 -0.170537 
-5.77744 -4.03692 -0.207993 -5.78516 -4.06931 -0.245329 -5.79254 -4.10191 -0.282544 
-5.79958 -4.13472 -0.319639 -5.80626 -4.16774 -0.356614 -5.81257 -4.20097 -0.393469 
-5.81849 -4.23441 -0.430204 -5.82402 -4.26806 -0.466819 -5.82913 -4.30193 -0.503314 
-5.83382 -4.33602 -0.539689 -5.83808 -4.37031 -0.575944 -5.84189 -4.40483 -0.612079 
-5.84523 -4.43955 -0.648091 -5.8481 -4.47448 -0.683977 -5.85048 -4.50959 -0.719732 
-5.85236 -4.54488 -0.755353 -5.85373 -4.58033 -0.790836 -5.85457 -4.61595 -0.826179 
-5.85488 -4.65172 -0.861376 -5.85463 -4.68763 -0.896426 -5.85382 -4.72367 -0.931323 
-5.85243 -4.75982 -0.966065 -5.85045 -4.79609 -1.00065 -5.84787 -4.83247 -1.03507 
-5.84467 -4.86893 -1.06932 -5.84085 -4.90547 -1.1034 -5.83638 -4.94209 -1.13731 
-5.83126 -4.97877 -1.17105 -5.82548 -5.0155 -1.2046 -5.81901 -5.05227 -1.23796 
-5.81185 -5.08908 -1.27114 -5.80399 -5.12591 -1.30413 -5.79543 -5.16276 -1.33693 
-5.78617 -5.19961 -1.36953 -5.77622 -5.23647 -1.40193 -5.7656 -5.27331 -1.43415 
-5.7543 -5.31013 -1.46617 -5.74235 -5.34693 -1.49799 -5.72973 -5.3837 -1.52962 
-5.71647 -5.42042 -1.56106 -5.70258 -5.4571 -1.5923 -5.68805 -5.49371 -1.62335 
-5.6729 -5.53026 -1.65419 -5.65713 -5.56674 -1.68485 -5.64076 -5.60313 -1.7153 
-5.62379 -5.63943 -1.74556 -5.60623 -5.67564 -1.77562 -5.58809 -5.71173 -1.80549 
-5.56938 -5.74772 -1.83516 -5.5501 -5.78357 -1.86463 -5.53026 -5.8193 -1.8939 
-5.50987 -5.85489 -1.92297 -5.48894 -5.89034 -1.95184 -5.4675 -5.92564 -1.98051 
-5.44556 -5.96081 -2.00896 -5.42314 -5.99584 -2.03721 -5.40025 -6.03074 -2.06524 
-5.37692 -6.06552 -2.09304 -5.35317 -6.10016 -2.12063 -5.32902 -6.13468 -2.14798 
-5.30447 -6.16908 -2.1751 -5.27956 -6.20336 -2.20198 -5.25431 -6.23752 -2.22863 
-5.22872 -6.27157 -2.25502 -5.20282 -6.3055 -2.28117 -5.17662 -6.33933 -2.30706 
-5.15016 -6.37305 -2.3327 -5.12344 -6.40666 -2.35808 -5.09648 -6.44018 -2.38319 
-5.06931 -6.47359 -2.40803 -5.04194 -6.50691 -2.43259 -5.01439 -6.54014 -2.45688 
-4.98667 -6.57328 -2.48089 -4.95878 -6.60634 -2.50464 -4.9307 -6.63936 -2.52813 
-4.90243 -6.67234 -2.55138 -4.87397 -6.70529 -2.5744 -4.8453 -6.73825 -2.5972 
-4.81642 -6.77122 -2.6198 -4.78731 -6.80423 -2.6422 -4.75797 -6.83728 -2.66443 
-4.72839 -6.8704 -2.68648 -4.69857 -6.90361 -2.70837 -4.66849 -6.93692 -2.73013 
-4.63815 -6.97035 -2.75175 -4.60753 -7.00391 -2.77324 -4.57664 -7.03763 -2.79463 
-4.54546 -7.07152 -2.81593 -4.51398 -7.1056 -2.83714 -4.4822 -7.13988 -2.85828 
-4.45011 -7.17439 -2.87936 -4.4177 -7.20914 -2.90039 -4.38497 -7.24414 -2.92137 
-4.352 -7.27942 -2.94219 -4.31886 -7.31498 -2.96271 -4.28565 -7.35084 -2.9828 
-4.25246 -7.38701 -3.00231 -4.21937 -7.42351 -3.02112 -4.18647 -7.46035 -3.03908 
-4.15385 -7.49755 -3.05606 -4.1216 -7.53511 -3.07192 -4.0898 -7.57305 -3.08652 
-4.05855 -7.61138 -3.09973 -4.02792 -7.65012 -3.11141 -3.99802 -7.68929 -3.12141 
-3.96893 -7.72889 -3.12961 -3.94073 -7.76893 -3.13587 -3.91351 -7.80944 -3.14004 
-3.88737 -7.85043 -3.142 -3.86238 -7.8919 -3.1416 -3.83864 -7.93388 -3.1387 
-3.81624 -7.97638 -3.13318 -3.79526 -8.0194 -3.1249 -3.77572 -8.06288 -3.11389 
-3.75764 -8.10671 -3.10027 -3.741 -8.15077 -3.08415 -3.7258 -8.19495 -3.06566 
-3.71205 -8.23915 -3.04492 -3.69973 -8.28325 -3.02205 -3.68884 -8.32713 -2.99716 
-3.67939 -8.37068 -2.97038 -3.67137 -8.4138 -2.94183 -3.66478 -8.45636 -2.91163 
-3.6596 -8.49827 -2.8799 -3.65585 -8.53939 -2.84675 -3.65352 -8.57963 -2.81232 
-3.65261 -8.61887 -2.77671 -3.65311 -8.657 -2.74005 -3.65502 -8.6939 -2.70247 
-3.65833 -8.72946 -2.66407 -3.66305 -8.76357 -2.62498 -3.66918 -8.79612 -2.58532 
-3.67668 -8.82706 -2.54519 -3.68551 -8.85645 -2.5046 -3.69559 -8.88434 -2.46359 
-3.70687 -8.91081 -2.4222 -3.71929 -8.93593 -2.38044 -3.73278 -8.95977 -2.33835 
-3.74728 -8.98238 -2.29595 -3.76273 -9.00384 -2.25328 -3.77908 -9.02421 -2.21036 
-3.79624 -9.04357 -2.16721 -3.81417 -9.06198 -2.12388 -3.83281 -9.0795 -2.08038 
-3.85208 -9.09621 -2.03674 -3.87194 -9.11217 -1.993 -3.89231 -9.12745 -1.94918 
-3.91314 -9.14211 -1.90531 -3.93436 -9.15623 -1.86142 -3.95591 -9.16987 -1.81753 
-3.97773 -9.18309 -1.77368 -3.99976 -9.19597 -1.72989 -4.02195 -9.20856 -1.68619 
-4.0443 -9.22085 -1.64257 -4.06682 -9.23283 -1.59905 -4.08951 -9.24447 -1.55562 
-4.11238 -9.25578 -1.51227 -4.13545 -9.26672 -1.46901 -4.15872 -9.27728 -1.42584 
-4.18219 -9.28746 -1.38275 -4.20589 -9.29722 -1.33976 -4.22981 -9.30657 -1.29684 
-4.25396 -9.31547 -1.25402 -4.27836 -9.32392 -1.21128 -4.303 -9.3319 -1.16863 
-4.32791 -9.33939 -1.12606 -4.35309 -9.34638 -1.08357 -4.37854 -9.35286 -1.04117 
-4.40427 -9.3588 -0.998855 -4.4303 -9.36419 -0.956621 -4.45663 -9.36902 -0.91447 
-4.48327 -9.37327 -0.872402 -4.51023 -9.37692 -0.830417 -4.5375 -9.37997 -0.788526 
[...]
CELL_DATA 1
FIELD FieldData 2
Length 1 1 double
63.661793444 
Tortuosity 1 1 double
1.5550788153 
POINT_DATA 1274
SCALARS MaximumInscribedSphereRadius float
LOOKUP_TABLE default
1.116 1.1223 1.1286 1.1349 1.1412 1.1475 1.1538 1.1601 1.1664 
1.1727 1.179 1.1853 1.19161 1.19791 1.20421 1.21051 1.21681 1.22311 
1.22941 1.23571 1.24201 1.24392 1.24448 1.24503 1.24559 1.24614 1.2467 
1.24725 1.24781 1.24836 1.24892 1.24947 1.25003 1.25058 1.25113 1.25169 
1.25224 1.2528 1.25335 1.25391 1.25446 1.26431 1.27849 1.29268 1.30686 
1.32105 1.33523 1.34941 1.3636 1.37778 1.39197 1.40615 1.42033 1.43452 
1.4487 1.46289 1.47707 1.49126 1.50544 1.51962 1.53381 1.55042 1.57025 
1.59009 1.60992 1.62975 1.64958 1.66941 1.68924 1.70908 1.72891 1.74874 
1.76857 1.7884 1.80823 1.82807 1.8479 1.86773 1.88756 1.90739 1.92722 
1.93994 1.91264 1.88535 1.85806 1.83076 1.80347 1.77618 1.74889 1.72159 
1.6943 1.66701 1.63971 1.61242 1.58513 1.55783 1.53054 1.50325 1.47595 
1.44866 1.42137 1.39407 1.37999 1.36776 1.35554 1.34331 1.33109 1.31887 
1.30664 1.29442 1.28219 1.26997 1.25774 1.24552 1.23329 1.22107 1.20885 
1.19662 1.1844 1.17217 1.15995 1.14772 1.16755 1.19724 1.22692 1.25661 
1.28629 1.31597 1.34566 1.37534 1.40503 1.43471 1.46439 1.49408 1.52376 
1.55344 1.58313 1.61281 1.6425 1.67218 1.70186 1.73155 1.74021 1.74358 
1.74694 1.7503 1.75366 1.75702 1.76038 1.76375 1.76711 1.77047 1.77383 
1.77719 1.78055 1.78391 1.78728 1.79064 1.794 1.79736 1.80072 1.80408 
1.80866 1.8144 1.82013 1.82586 1.83159 1.83732 1.84306 1.84879 1.85452 
1.86025 1.86598 1.87171 1.87745 1.88318 1.88891 1.89464 1.90037 1.90611 
1.91184 1.91757 1.92122 1.91792 1.91462 1.91132 1.90802 1.90471 1.90141 
1.89811 1.89481 1.89151 1.88821 1.88491 1.88161 1.87831 1.87501 1.87171 
1.8684 1.8651 1.8618 1.8585 1.8552 1.86475 1.87487 1.88499 1.89511 
1.90523 1.91535 1.92547 1.93559 1.94571 1.95583 1.96595 1.97607 1.98619 
1.99631 2.00642 2.01654 2.02666 2.03678 2.0469 2.05702 2.05932 2.05839 
2.05746 2.05653 2.05559 2.05466 2.05373 2.0528 2.05187 2.05094 2.05 
2.04907 2.04814 2.04721 2.04628 2.04535 2.04441 2.04348 2.04255 2.04162 
2.03555 2.02353 2.01152 1.99951 1.9875 1.97549 1.96348 1.95147 1.93946 
1.92745 1.91544 1.90343 1.89142 1.8794 1.86739 1.85538 1.84337 1.83136 
1.81935 1.80734 1.79609 1.788 1.7799 1.7718 1.76371 1.75561 1.74751 
1.73942 1.73132 1.72322 1.71513 1.70703 1.69893 1.69084 1.68274 1.67465 
1.66655 1.65845 1.65036 1.64226 1.63416 1.64562 1.65897 1.67231 1.68566 
1.69901 1.71236 1.7257 1.73905 1.7524 1.76574 1.77909 1.79244 1.80578 
1.81913 1.83248 1.84582 1.85917 1.87252 1.88586 1.89921 1.9099 1.91924 
1.92859 1.93794 1.94728 1.95663 1.96598 1.97532 1.98467 1.99402 2.00336 
2.01271 2.02206 2.0314 2.04075 2.0501 2.05944 2.06879 2.07814 2.09026 
2.10934 2.12841 2.14749 2.16657 2.18565 2.20472 2.2238 2.24288 2.26195 
2.28103 2.30011 2.31919 2.33826 2.35734 2.37642 2.3955 2.41457 2.43365 
2.45273 2.47074 2.47053 2.47032 2.47011 2.4699 2.46969 2.46949 2.46928 
2.46907 2.46886 2.46865 2.46844 2.46823 2.46802 2.46781 2.46761 2.4674 
2.46719 2.46698 2.46677 2.46656 2.45838 2.4482 2.43803 2.42785 2.41768 
2.4075 2.39733 2.38715 2.37697 2.3668 2.35662 2.34645 2.33627 2.3261 
2.31592 2.30574 2.29557 2.28539 2.27522 2.26504 2.25322 2.24016 2.22709 
2.21403 2.20096 2.1879 2.17484 2.16177 2.14871 2.13564 2.12258 2.10952 
2.09645 2.08339 2.07032 2.05726 2.0442 2.03113 2.01807 2.005 1.99675 
1.99618 1.9956 1.99503 1.99446 1.99388 1.99331 1.99274 1.99216 1.99159 
1.99102 1.99044 1.98987 1.9893 1.98872 1.98815 1.98758 1.987 1.98643 
1.98586 1.98634 1.9928 1.99927 2.00574 2.0122 2.01867 2.02513 2.0316 
2.03807 2.04453 2.051 2.05747 2.06393 2.0704 2.07687 2.08333 2.0898 
2.09627 2.10273 2.1092 2.11566 2.10653 2.09515 2.08376 2.07238 2.06099 
2.04961 2.03823 2.02684 2.01546 2.00407 1.99269 1.9813 1.96992 1.95854 
1.94715 1.93577 1.92438 1.913 1.90162 1.89023 1.88713 1.88948 1.89183 
1.89418 1.89653 1.89888 1.90123 1.90358 1.90593 1.90828 1.91063 1.91298 
1.91533 1.91768 1.92003 1.92238 1.92473 1.92708 1.92943 1.93178 1.93642 
1.94497 1.95353 1.96208 1.97064 1.97919 1.98774 1.9963 2.00485 2.01341 
2.02196 2.03051 2.03907 2.04762 2.05618 2.06473 2.07329 2.08184 2.09039 
2.09895 2.10588 2.10912 2.11236 2.1156 2.11884 2.12207 2.12531 2.12855 
2.13179 2.13503 2.13826 2.1415 2.14474 2.14798 2.15122 2.15445 2.15769 
2.16093 2.16417 2.16741 2.17259 2.18564 2.19869 2.21175 2.2248 2.23785 
2.2509 2.26395 2.277 2.29005 2.3031 2.31615 2.3292 2.34225 2.3553 
2.36835 2.3814 2.39445 2.4075 2.42055 2.4336 2.44563 2.45761 2.46958 
2.48155 2.49352 2.50549 2.51747 2.52944 2.54141 2.55338 2.56536 2.57733 
2.5893 2.60127 2.61324 2.62522 2.63719 2.64916 2.66113 2.67311 2.66322 
2.64251 2.62181 2.6011 2.58039 2.55969 2.53898 2.51828 2.49757 2.47686 
2.45616 2.43545 2.41474 2.39404 2.37333 2.35262 2.33192 2.31121 2.2905 
2.2698 2.26239 2.27551 2.28863 2.30176 2.31488 2.328 2.34112 2.35425 
2.36737 2.38049 2.39361 2.40674 2.41986 2.43298 2.4461 2.45923 2.47235 
2.48547 2.49859 2.51172 2.52286 2.53394 2.54502 2.5561 2.56718 2.57826 
2.58934 2.60043 2.61151 2.62259 2.63367 2.64475 2.65583 2.66691 2.67799 
2.68907 2.70015 2.71123 2.72231 2.7334 2.72559 2.71026 2.69493 2.67961 
2.66428 2.64895 2.63363 2.6183 2.60297 2.58765 2.57232 2.55699 2.54167 
2.52634 2.51101 2.49569 2.48036 2.46503 2.44971 2.43438 2.42513 2.42353 
2.42193 2.42033 2.41873 2.41713 2.41553 2.41393 2.41233 2.41072 2.40912 
2.40752 2.40592 2.40432 2.40272 2.40112 2.39952 2.39792 2.39632 2.39472 
2.39182 2.38288 2.37395 2.36501 2.35608 2.34714 2.3382 2.32927 2.32033 
2.3114 2.30246 2.29352 2.28459 2.27565 2.26672 2.25778 2.24884 2.23991 
2.23097 2.22204 2.2131 2.20127 2.18931 2.17735 2.16539 2.15343 2.14147 
2.12951 2.11755 2.10559 2.09363 2.08166 2.0697 2.05774 2.04578 2.03382 
2.02186 2.0099 1.99794 1.98598 1.97402 1.98394 1.99454 2.00514 2.01574 
2.02634 2.03693 2.04753 2.05813 2.06873 2.07933 2.08993 2.10052 2.11112 
2.12172 2.13232 2.14292 2.15352 2.16412 2.17471 2.18531 2.1975 2.21025 
2.22301 2.23576 2.24852 2.26127 2.27402 2.28678 2.29953 2.31229 2.32504 
2.3378 2.35055 2.3633 2.37606 2.38881 2.40157 2.41432 2.42708 2.43983 
2.45231 2.46446 2.47662 2.48877 2.50093 2.51308 2.52524 2.53739 2.54955 
2.5617 2.57386 2.58601 2.59817 2.61032 2.62248 2.63463 2.64679 2.65894 
2.6711 2.68325 2.68811 2.66243 2.63676 2.61109 2.58542 2.55974 2.53407 
2.5084 2.48272 2.45705 2.43138 2.40571 2.38003 2.35436 2.32869 2.30302 
2.27734 2.25167 2.226 2.20033 2.17465 2.14437 2.11378 2.08319 2.0526 
2.02201 1.99142 1.96083 1.93024 1.89964 1.86905 1.83846 1.80787 1.77728 
1.74669 1.7161 1.68551 1.65492 1.62432 1.59373 1.56314 1.5533 1.55314 
1.55297 1.5528 1.55263 1.55246 1.55229 1.55212 1.55195 1.55179 1.55162 
1.55145 1.55128 1.55111 1.55094 1.55077 1.5506 1.55043 1.55027 1.5501 
1.55048 1.55162 1.55275 1.55388 1.55501 1.55614 1.55727 1.55841 1.55954 
1.56067 1.5618 1.56293 1.56406 1.5652 1.56633 1.56746 1.56859 1.56972 
1.57086 1.57199 1.57458 1.58446 1.59434 1.60421 1.61409 1.62397 1.63384 
1.64372 1.6536 1.66348 1.67335 1.68323 1.69311 1.70298 1.71286 1.72274 
1.73261 1.74249 1.75237 1.76224 1.77212 1.78393 1.79597 1.80801 1.82005 
1.83209 1.84412 1.85616 1.8682 1.88024 1.89228 1.90432 1.91635 1.92839 
1.94043 1.95247 1.96451 1.97655 1.98858 2.00062 2.01266 2.02266 2.03137 
2.04008 2.04879 2.0575 2.06621 2.07492 2.08363 2.09234 2.10105 2.10975 
2.11846 2.12717 2.13588 2.14459 2.1533 2.16201 2.17072 2.17943 2.18814 
2.19551 2.20014 2.20476 2.20939 2.21402 2.21864 2.22327 2.22789 2.23252 
2.23714 2.24177 2.24639 2.25102 2.25565 2.26027 2.2649 2.26952 2.27415 
2.27877 2.2834 2.28809 2.29441 2.30073 2.30705 2.31336 2.31968 2.326 
2.33232 2.33863 2.34495 2.35127 2.35759 2.36391 2.37022 2.37654 2.38286 
2.38918 2.3955 2.40181 2.40813 2.41445 2.40328 2.38637 2.36947 2.35256 
2.33565 2.31875 2.30184 2.28493 2.26803 2.25112 2.23421 2.21731 2.2004 
2.18349 2.16659 2.14968 2.13278 2.11587 2.09896 2.08206 2.07505 2.07942 
2.0838 2.08818 2.09256 2.09694 2.10132 2.1057 2.11007 2.11445 2.11883 
2.12321 2.12759 2.13197 2.13635 2.14072 2.1451 2.14948 2.15386 2.15824 
2.16475 2.18115 2.19755 2.21395 2.23034 2.24674 2.26314 2.27954 2.29594 
2.31233 2.32873 2.34513 2.36153 2.37793 2.39432 2.41072 2.42712 2.44352 
2.45992 2.47631 2.49271 2.4926 2.4906 2.4886 2.48659 2.48459 2.48258 
2.48058 2.47858 2.47657 2.47457 2.47257 2.47056 2.46856 2.46655 2.46455 
2.46255 2.46054 2.45854 2.45654 2.45453 2.44575 2.43332 2.42089 2.40845 
2.39602 2.38359 2.37115 2.35872 2.34629 2.33385 2.32142 2.30899 2.29655 
2.28412 2.27169 2.25926 2.24682 2.23439 2.22196 2.20952 2.20283 2.20192 
2.20102 2.20011 2.1992 2.1983 2.19739 2.19649 2.19558 2.19467 2.19377 
2.19286 2.19196 2.19105 2.19014 2.18924 2.18833 2.18743 2.18652 2.18561 
2.18148 2.17118 2.16088 2.15058 2.14028 2.12998 2.11968 2.10938 2.09908 
2.08879 2.07849 2.06819 2.05789 2.04759 2.03729 2.02699 2.01669 2.0064 
1.9961 1.9858 1.97746 1.9837 1.98994 1.99618 2.00242 2.00866 2.0149 
2.02114 2.02738 2.03362 2.03986 2.0461 2.05234 2.05858 2.06482 2.07106 
2.0773 2.08354 2.08978 2.09602 2.10227 2.1111 2.12032 2.12954 2.13876 
2.14798 2.15719 2.16641 2.17563 2.18485 2.19407 2.20328 2.2125 2.22172 
2.23094 2.24015 2.24937 2.25859 2.26781 2.27703 2.28624 2.27785 2.25941 
2.24098 2.22255 2.20411 2.18568 2.16725 2.14881 2.13038 2.11195 2.09351 
2.07508 2.05665 2.03821 2.01978 2.00135 1.98291 1.96448 1.94605 1.92761 
1.924 1.9391 1.95419 1.96929 1.98439 1.99948 2.01458 2.02967 2.04477 
2.05986 2.07496 2.09005 2.10515 2.12024 2.13534 2.15043 2.16553 2.18062 
2.19572 2.21082 2.2218 2.22103 2.22026 2.2195 2.21873 2.21796 2.21719 
2.21642 2.21566 2.21489 2.21412 2.21335 2.21258 2.21182 2.21105 2.21028 
2.20951 2.20874 2.20798 2.20721 2.20644 2.23744 2.26845 2.29946 2.33047 
2.36148 2.39249 2.4235 2.45451 2.48553 2.51654 2.54755 2.57856 2.60957 
2.64058 2.67159 2.7026 2.73361 2.76462 2.79563 2.82664 2.83937 2.84479 
2.85022 2.85564 2.86106 2.86649 2.87191 2.87734 2.88276 2.88819 2.89361 
2.89904 2.90446 2.90989 2.91531 2.92073 2.92616 2.93158 2.93701 2.94243 
2.94211 2.93514 2.92817 2.9212 2.91423 2.90726 2.9003 2.89333 2.88636 
2.87939 2.87242 2.86545 2.85848 2.85152 2.84455 2.83758 2.83061 2.82364 
2.81667 2.8097 2.81297 2.83414 2.85531 2.87649 2.89766 2.91883 2.94 
2.96117 2.98234 3.00351 3.02469 3.04586 3.06703 3.0882 3.10937 3.13054 
3.15171 3.17289 3.19406 3.21523 3.2364 
TEXTURE_COORDINATES TCoords 2 float
0 0 0.000785546 0 0.00157109 0 0.00235664 0 0.00314218 
0 0.00392773 0 0.00471328 0 0.00549882 0 0.00628437 0 
0.00706991 0 0.00785546 0 0.00864101 0 0.00942655 0 0.0102121 
0 0.0109976 0 0.0117832 0 0.0125687 0 0.0133543 0 
0.0141398 0 0.0149254 0 0.0157109 0 0.0164965 0 0.017282 
0 0.0180676 0 0.0188531 0 0.0196386 0 0.0204242 0 
0.0212097 0 0.0219953 0 0.0227808 0 0.0235664 0 0.0243519 
0 0.0251375 0 0.025923 0 0.0267086 0 0.0274941 0 
0.0282797 0 0.0290652 0 0.0298507 0 0.0306363 0 0.0314218 
0 0.0322074 0 0.0329929 0 0.0337785 0 0.034564 0 
0.0353496 0 0.0361351 0 0.0369207 0 0.0377062 0 0.0384918 
0 0.0392773 0 0.0400628 0 0.0408484 0 0.0416339 0 
0.0424195 0 0.043205 0 0.0439906 0 0.0447761 0 0.0455617 
0 0.0463472 0 0.0471328 0 0.0479183 0 0.0487038 0 
0.0494894 0 0.0502749 0 0.0510605 0 0.051846 0 0.0526316 
0 0.0534171 0 0.0542027 0 0.0549882 0 0.0557738 0 
0.0565593 0 0.0573449 0 0.0581304 0 0.0589159 0 0.0597015 
0 0.060487 0 0.0612726 0 0.0620581 0 0.0628437 0 
0.0636292 0 0.0644148 0 0.0652003 0 0.0659859 0 0.0667714 
0 0.067557 0 0.0683425 0 0.069128 0 0.0699136 0 
0.0706991 0 0.0714847 0 0.0722702 0 0.0730558 0 0.0738413 
0 0.0746269 0 0.0754124 0 0.076198 0 0.0769835 0 
0.077769 0 0.0785546 0 0.0793401 0 0.0801257 0 0.0809112 
0 0.0816968 0 0.0824823 0 0.0832679 0 0.0840534 0 
0.084839 0 0.0856245 0 0.0864101 0 0.0871956 0 0.0879811 
0 0.0887667 0 0.0895522 0 0.0903378 0 0.0911233 0 
0.0919089 0 0.0926944 0 0.09348 0 0.0942655 0 0.0950511 
0 0.0958366 0 0.0966222 0 0.0974077 0 0.0981932 0 
0.0989788 0 0.0997643 0 0.10055 0 0.101335 0 0.102121 
0 0.102907 0 0.103692 0 0.104478 0 0.105263 0 
0.106049 0 0.106834 0 0.10762 0 0.108405 0 0.109191 
0 0.109976 0 0.110762 0 0.111548 0 0.112333 0 
0.113119 0 0.113904 0 0.11469 0 0.115475 0 0.116261 
0 0.117046 0 0.117832 0 0.118617 0 0.119403 0 
0.120189 0 0.120974 0 0.12176 0 0.122545 0 0.123331 
0 0.124116 0 0.124902 0 0.125687 0 0.126473 0 
0.127258 0 0.128044 0 0.12883 0 0.129615 0 0.130401 
0 0.131186 0 0.131972 0 0.132757 0 0.133543 0 
0.134328 0 0.135114 0 0.135899 0 0.136685 0 0.137471 
0 0.138256 0 0.139042 0 0.139827 0 0.140613 0 
0.141398 0 0.142184 0 0.142969 0 0.143755 0 0.14454 
0 0.145326 0 0.146112 0 0.146897 0 0.147683 0 
0.148468 0 0.149254 0 0.150039 0 0.150825 0 0.15161 
0 0.152396 0 0.153181 0 0.153967 0 0.154753 0 
0.155538 0 0.156324 0 0.157109 0 0.157895 0 0.15868 
0 0.159466 0 0.160251 0 0.161037 0 0.161822 0 
0.162608 0 0.163394 0 0.164179 0 0.164965 0 0.16575 
0 0.166536 0 0.167321 0 0.168107 0 0.168892 0 
0.169678 0 0.170463 0 0.171249 0 0.172035 0 0.17282 
0 0.173606 0 0.174391 0 0.175177 0 0.175962 0 
0.176748 0 0.177533 0 0.178319 0 0.179104 0 0.17989 
0 0.180676 0 0.181461 0 0.182247 0 0.183032 0 
0.183818 0 0.184603 0 0.185389 0 0.186174 0 0.18696 
0 0.187745 0 0.188531 0 0.189317 0 0.190102 0 
0.190888 0 0.191673 0 0.192459 0 0.193244 0 0.19403 
0 0.194815 0 0.195601 0 0.196386 0 0.197172 0 
0.197958 0 0.198743 0 0.199529 0 0.200314 0 0.2011 
0 0.201885 0 0.202671 0 0.203456 0 0.204242 0 
0.205027 0 0.205813 0 0.206599 0 0.207384 0 0.20817 
0 0.208955 0 0.209741 0 0.210526 0 0.211312 0 
0.212097 0 0.212883 0 0.213668 0 0.214454 0 0.21524 
0 0.216025 0 0.216811 0 0.217596 0 0.218382 0 
0.219167 0 0.219953 0 0.220738 0 0.221524 0 0.222309 
0 0.223095 0 0.223881 0 0.224666 0 0.225452 0 
0.226237 0 0.227023 0 0.227808 0 0.228594 0 0.229379 
0 0.230165 0 0.230951 0 0.231736 0 0.232522 0 
0.233307 0 0.234093 0 0.234878 0 0.235664 0 0.236449 
0 0.237235 0 0.23802 0 0.238806 0 0.239592 0 
0.240377 0 0.241163 0 0.241948 0 0.242734 0 0.243519 
0 0.244305 0 0.24509 0 0.245876 0 0.246661 0 
0.247447 0 0.248233 0 0.249018 0 0.249804 0 0.250589 
0 0.251375 0 0.25216 0 0.252946 0 0.253731 0 
0.254517 0 0.255302 0 0.256088 0 0.256874 0 0.257659 
0 0.258445 0 0.25923 0 0.260016 0 0.260801 0 
0.261587 0 0.262372 0 0.263158 0 0.263943 0 0.264729 
0 0.265515 0 0.2663 0 0.267086 0 0.267871 0 
0.268657 0 0.269442 0 0.270228 0 0.271013 0 0.271799 
0 0.272584 0 0.27337 0 0.274156 0 0.274941 0 
0.275727 0 0.276512 0 0.277298 0 0.278083 0 0.278869 
0 0.279654 0 0.28044 0 0.281225 0 0.282011 0 
0.282797 0 0.283582 0 0.284368 0 0.285153 0 0.285939 
0 0.286724 0 0.28751 0 0.288295 0 0.289081 0 
0.289866 0 0.290652 0 0.291438 0 0.292223 0 0.293009 
0 0.293794 0 0.29458 0 0.295365 0 0.296151 0 
0.296936 0 0.297722 0 0.298507 0 0.299293 0 0.300079 
0 0.300864 0 0.30165 0 0.302435 0 0.303221 0 
0.304006 0 0.304792 0 0.305577 0 0.306363 0 0.307148 
0 0.307934 0 0.30872 0 0.309505 0 0.310291 0 
0.311076 0 0.311862 0 0.312647 0 0.313433 0 0.314218 
0 0.315004 0 0.315789 0 0.316575 0 0.317361 0 
0.318146 0 0.318932 0 0.319717 0 0.320503 0 0.321288 
0 0.322074 0 0.322859 0 0.323645 0 0.32443 0 
0.325216 0 0.326002 0 0.326787 0 0.327573 0 0.328358 
0 0.329144 0 0.329929 0 0.330715 0 0.3315 0 
0.332286 0 0.333071 0 0.333857 0 0.334643 0 0.335428 
0 0.336214 0 0.336999 0 0.337785 0 0.33857 0 
0.339356 0 0.340141 0 0.340927 0 0.341713 0 0.342498 
0 0.343284 0 0.344069 0 0.344855 0 0.34564 0 
0.346426 0 0.347211 0 0.347997 0 0.348782 0 0.349568 
0 0.350354 0 0.351139 0 0.351925 0 0.35271 0 
0.353496 0 0.354281 0 0.355067 0 0.355852 0 0.356638 
0 0.357423 0 0.358209 0 0.358995 0 0.35978 0 
0.360566 0 0.361351 0 0.362137 0 0.362922 0 0.363708 
0 0.364493 0 0.365279 0 0.366064 0 0.36685 0 
0.367636 0 0.368421 0 0.369207 0 0.369992 0 0.370778 
0 0.371563 0 0.372349 0 0.373134 0 0.37392 0 
0.374705 0 0.375491 0 0.376277 0 0.377062 0 0.377848 
0 0.378633 0 0.379419 0 0.380204 0 0.38099 0 
0.381775 0 0.382561 0 0.383346 0 0.384132 0 0.384918 
0 0.385703 0 0.386489 0 0.387274 0 0.38806 0 
0.388845 0 0.389631 0 0.390416 0 0.391202 0 0.391987 
0 0.392773 0 0.393559 0 0.394344 0 0.39513 0 
0.395915 0 0.396701 0 0.397486 0 0.398272 0 0.399057 
0 0.399843 0 0.400628 0 0.401414 0 0.4022 0 
0.402985 0 0.403771 0 0.404556 0 0.405342 0 0.406127 
0 0.406913 0 0.407698 0 0.408484 0 0.409269 0 
0.410055 0 0.410841 0 0.411626 0 0.412412 0 0.413197 
0 0.413983 0 0.414768 0 0.415554 0 0.416339 0 
0.417125 0 0.41791 0 0.418696 0 0.419482 0 0.420267 
0 0.421053 0 0.421838 0 0.422624 0 0.423409 0 
0.424195 0 0.42498 0 0.425766 0 0.426551 0 0.427337 
0 0.428123 0 0.428908 0 0.429694 0 0.430479 0 
0.431265 0 0.43205 0 0.432836 0 0.433621 0 0.434407 
0 0.435192 0 0.435978 0 0.436764 0 0.437549 0 
0.438335 0 0.43912 0 0.439906 0 0.440691 0 0.441477 
0 0.442262 0 0.443048 0 0.443833 0 0.444619 0 
0.445405 0 0.44619 0 0.446976 0 0.447761 0 0.448547 
0 0.449332 0 0.450118 0 0.450903 0 0.451689 0 
0.452474 0 0.45326 0 0.454046 0 0.454831 0 0.455617 
0 0.456402 0 0.457188 0 0.457973 0 0.458759 0 
0.459544 0 0.46033 0 0.461115 0 0.461901 0 0.462687 
0 0.463472 0 0.464258 0 0.465043 0 0.465829 0 
0.466614 0 0.4674 0 0.468185 0 0.468971 0 0.469756 
0 0.470542 0 0.471328 0 0.472113 0 0.472899 0 
0.473684 0 0.47447 0 0.475255 0 0.476041 0 0.476826 
0 0.477612 0 0.478397 0 0.479183 0 0.479969 0 
0.480754 0 0.48154 0 0.482325 0 0.483111 0 0.483896 
0 0.484682 0 0.485467 0 0.486253 0 0.487038 0 
0.487824 0 0.48861 0 0.489395 0 0.490181 0 0.490966 
0 0.491752 0 0.492537 0 0.493323 0 0.494108 0 
0.494894 0 0.495679 0 0.496465 0 0.497251 0 0.498036 
0 0.498822 0 0.499607 0 0.500393 0 0.501178 0 
0.501964 0 0.502749 0 0.503535 0 0.504321 0 0.505106 
0 0.505892 0 0.506677 0 0.507463 0 0.508248 0 
0.509034 0 0.509819 0 0.510605 0 0.51139 0 0.512176 
0 0.512962 0 0.513747 0 0.514533 0 0.515318 0 
0.516104 0 0.516889 0 0.517675 0 0.51846 0 0.519246 
0 0.520031 0 0.520817 0 0.521603 0 0.522388 0 
0.523174 0 0.523959 0 0.524745 0 0.52553 0 0.526316 
0 0.527101 0 0.527887 0 0.528672 0 0.529458 0 
0.530244 0 0.531029 0 0.531815 0 0.5326 0 0.533386 
0 0.534171 0 0.534957 0 0.535742 0 0.536528 0 
0.537313 0 0.538099 0 0.538885 0 0.53967 0 0.540456 
0 0.541241 0 0.542027 0 0.542812 0 0.543598 0 
0.544383 0 0.545169 0 0.545954 0 0.54674 0 0.547526 
0 0.548311 0 0.549097 0 0.549882 0 0.550668 0 
0.551453 0 0.552239 0 0.553024 0 0.55381 0 0.554595 
0 0.555381 0 0.556167 0 0.556952 0 0.557738 0 
0.558523 0 0.559309 0 0.560094 0 0.56088 0 0.561665 
0 0.562451 0 0.563236 0 0.564022 0 0.564808 0 
0.565593 0 0.566379 0 0.567164 0 0.56795 0 0.568735 
0 0.569521 0 0.570306 0 0.571092 0 0.571877 0 
0.572663 0 0.573449 0 0.574234 0 0.57502 0 0.575805 
0 0.576591 0 0.577376 0 0.578162 0 0.578947 0 
0.579733 0 0.580518 0 0.581304 0 0.58209 0 0.582875 
0 0.583661 0 0.584446 0 0.585232 0 0.586017 0 
0.586803 0 0.587588 0 0.588374 0 0.589159 0 0.589945 
0 0.590731 0 0.591516 0 0.592302 0 0.593087 0 
0.593873 0 0.594658 0 0.595444 0 0.596229 0 0.597015 
0 0.5978 0 0.598586 0 0.599372 0 0.600157 0 
0.600943 0 0.601728 0 0.602514 0 0.603299 0 0.604085 
0 0.60487 0 0.605656 0 0.606441 0 0.607227 0 
0.608013 0 0.608798 0 0.609584 0 0.610369 0 0.611155 
0 0.61194 0 0.612726 0 0.613511 0 0.614297 0 
0.615083 0 0.615868 0 0.616654 0 0.617439 0 0.618225 
0 0.61901 0 0.619796 0 0.620581 0 0.621367 0 
0.622152 0 0.622938 0 0.623724 0 0.624509 0 0.625295 
0 0.62608 0 0.626866 0 0.627651 0 0.628437 0 
0.629222 0 0.630008 0 0.630793 0 0.631579 0 0.632365 
0 0.63315 0 0.633936 0 0.634721 0 0.635507 0 
0.636292 0 0.637078 0 0.637863 0 0.638649 0 0.639434 
0 0.64022 0 0.641006 0 0.641791 0 0.642577 0 
0.643362 0 0.644148 0 0.644933 0 0.645719 0 0.646504 
0 0.64729 0 0.648075 0 0.648861 0 0.649647 0 
0.650432 0 0.651218 0 0.652003 0 0.652789 0 0.653574 
0 0.65436 0 0.655145 0 0.655931 0 0.656716 0 
0.657502 0 0.658288 0 0.659073 0 0.659859 0 0.660644 
0 0.66143 0 0.662215 0 0.663001 0 0.663786 0 
0.664572 0 0.665357 0 0.666143 0 0.666929 0 0.667714 