# vtk DataFile Version 4.2
vtk output
ASCII
DATASET POLYDATA
POINTS 1280 float
0 0 0 -0.00423476 -0.000943995 0.00167245 -0.0165456 -0.00368206 0.00652081 
-0.0363425 -0.0080733 0.0142916 -0.0630352 -0.0139768 0.0247312 -0.0960337 -0.0212518 0.0375862 
-0.134748 -0.0297573 0.0526032 -0.178587 -0.0393524 0.0695285 -0.226962 -0.0498963 0.0881086 
-0.279283 -0.061248 0.10809 -0.334958 -0.0732668 0.12922 -0.393398 -0.0858117 0.151243 
-0.454014 -0.0987417 0.173908 -0.516214 -0.111916 0.19696 -0.579409 -0.125194 0.220146 
-0.643008 -0.138434 0.243212 -0.706422 -0.151497 0.265905 -0.76906 -0.164239 0.287971 
-0.830333 -0.176522 0.309157 -0.889842 -0.188247 0.329285 -0.947626 -0.199415 0.348349 
-1.00379 -0.210041 0.366368 -1.05844 -0.22014 0.383362 -1.11169 -0.229727 0.39935 
-1.16362 -0.238817 0.414352 -1.21436 -0.247425 0.428387 -1.26399 -0.255567 0.441474 
-1.31264 -0.263257 0.453632 -1.3604 -0.27051 0.464882 -1.40737 -0.277342 0.475242 
-1.45367 -0.283768 0.484732 -1.49939 -0.289802 0.493371 -1.54464 -0.29546 0.501179 
-1.58953 -0.300757 0.508175 -1.63415 -0.305708 0.514378 -1.67862 -0.310328 0.519808 
-1.72303 -0.314632 0.524484 -1.7675 -0.318635 0.528425 -1.81212 -0.322353 0.531651 
-1.85701 -0.325799 0.534181 -1.90225 -0.32899 0.536035 -1.94797 -0.33194 0.537232 
-1.99427 -0.334665 0.537791 -2.04118 -0.337179 0.537736 -2.08868 -0.339494 0.537096 
-2.13671 -0.341623 0.5359 -2.18525 -0.343579 0.534179 -2.23424 -0.345375 0.531961 
-2.28363 -0.347023 0.529277 -2.3334 -0.348536 0.526156 -2.38349 -0.349927 0.522628 
-2.43386 -0.351208 0.518723 -2.48446 -0.352393 0.514469 -2.53526 -0.353494 0.509898 
-2.58621 -0.354523 0.505037 -2.63726 -0.355494 0.499918 -2.68837 -0.356419 0.49457 
-2.73951 -0.357311 0.489022 -2.79062 -0.358183 0.483304 -2.84166 -0.359046 0.477446 
-2.89259 -0.359915 0.471477 -2.94337 -0.360802 0.465427 -2.99396 -0.361714 0.459313 
-3.04438 -0.362651 0.45313 -3.09464 -0.363612 0.446871 -3.14475 -0.364595 0.440529 
-3.1947 -0.365598 0.434095 -3.24453 -0.366621 0.427564 -3.29422 -0.367661 0.420928 
-3.34381 -0.368718 0.414179 -3.39328 -0.369789 0.407311 -3.44266 -0.370874 0.400315 
-3.49195 -0.371971 0.393185 -3.54116 -0.373077 0.385914 -3.59031 -0.374193 0.378494 
-3.6394 -0.375316 0.370918 -3.68844 -0.376445 0.363178 -3.73744 -0.377579 0.355268 
-3.78642 -0.378715 0.34718 -3.83537 -0.379853 0.338907 -3.88431 -0.380991 0.330441 
-3.93326 -0.382128 0.321776 -3.98221 -0.383262 0.312906 -4.03117 -0.384398 0.303833 
-4.08014 -0.38554 0.294566 -4.12912 -0.386695 0.285113 -4.17809 -0.387867 0.275481 
-4.22707 -0.389061 0.265679 -4.27605 -0.390284 0.255712 -4.32503 -0.39154 0.24559 
-4.374 -0.392835 0.23532 -4.42297 -0.394175 0.224909 -4.47192 -0.395564 0.214366 
-4.52087 -0.397008 0.203698 -4.5698 -0.398512 0.192912 -4.61872 -0.400082 0.182016 
-4.66762 -0.401723 0.171019 -4.7165 -0.403441 0.159927 -4.76536 -0.40524 0.148749 
-4.8142 -0.407126 0.137492 -4.86301 -0.409106 0.126163 -4.9118 -0.411183 0.114771 
-4.96056 -0.413363 0.103323 -5.00928 -0.415652 0.0918267 -5.05798 -0.418056 0.0802896 
-5.10665 -0.420579 0.0687193 -5.1553 -0.423229 0.0571235 -5.20393 -0.42601 0.0455097 
-5.25253 -0.428929 0.0338855 -5.30112 -0.43199 0.0222585 -5.34969 -0.4352 0.0106362 
-5.39825 -0.438564 -0.000973775 -5.44679 -0.442088 -0.0125639 -5.49532 -0.445778 -0.0241265 
-5.54384 -0.449639 -0.0356541 -5.59235 -0.453677 -0.047139 -5.64085 -0.457898 -0.0585738 
-5.68935 -0.462307 -0.0699508 -5.73785 -0.466911 -0.0812624 -5.78635 -0.471714 -0.0925011 
-5.83485 -0.476722 -0.103659 -5.88335 -0.481942 -0.114729 -5.93185 -0.487378 -0.125704 
-5.98036 -0.493037 -0.136576 -6.02888 -0.498923 -0.14734 -6.07739 -0.505041 -0.15799 
-6.12591 -0.511397 -0.168522 -6.17442 -0.517994 -0.17893 -6.22293 -0.52484 -0.189208 
-6.27144 -0.531937 -0.199351 -6.31994 -0.539292 -0.209354 -6.36843 -0.546908 -0.219211 
-6.41691 -0.554792 -0.228918 -6.46538 -0.562949 -0.238468 -6.51383 -0.571382 -0.247856 
-6.56227 -0.580098 -0.257078 -6.6107 -0.589101 -0.266127 -6.6591 -0.598396 -0.274998 
-6.70749 -0.607988 -0.283686 -6.75585 -0.617882 -0.292186 -6.80418 -0.628084 -0.300491 
-6.8525 -0.638598 -0.308598 -6.90078 -0.649428 -0.3165 -6.94904 -0.660581 -0.324191 
-6.99726 -0.672061 -0.331664 -7.04544 -0.683872 -0.33891 -7.09358 -0.696019 -0.345921 
-7.14166 -0.708506 -0.352686 -7.18969 -0.721339 -0.359199 -7.23766 -0.734521 -0.36545 
-7.28555 -0.748058 -0.371431 -7.33338 -0.761954 -0.377133 -7.38112 -0.776213 -0.382547 
-7.42879 -0.790841 -0.387664 -7.47636 -0.805841 -0.392477 -7.52383 -0.821219 -0.396976 
-7.57121 -0.836979 -0.401152 -7.61847 -0.853126 -0.404998 -7.66563 -0.869664 -0.408504 
-7.71267 -0.886597 -0.411662 -7.75958 -0.903932 -0.414462 -7.80637 -0.921671 -0.416897 
-7.85301 -0.93982 -0.418958 -7.89952 -0.958383 -0.420636 -7.94589 -0.977359 -0.421928 
-7.9921 -0.996743 -0.422833 -8.03815 -1.01653 -0.423353 -8.08404 -1.03672 -0.423485 
-8.12976 -1.0573 -0.423231 -8.17531 -1.07827 -0.422591 -8.22067 -1.09963 -0.421564 
-8.26585 -1.12137 -0.42015 -8.31083 -1.14349 -0.418349 -8.35561 -1.16598 -0.416162 
-8.40019 -1.18883 -0.413587 -8.44456 -1.21205 -0.410625 -8.48871 -1.23563 -0.407277 
-8.53264 -1.25956 -0.403541 -8.57635 -1.28383 -0.399418 -8.61981 -1.30846 -0.394907 
-8.66304 -1.33342 -0.39001 -8.70602 -1.35872 -0.384724 -8.74875 -1.38434 -0.379052 
-8.79122 -1.4103 -0.372991 -8.83343 -1.43657 -0.366545 -8.87538 -1.46316 -0.359717 
-8.91706 -1.49006 -0.352512 -8.95848 -1.51726 -0.344934 -8.99963 -1.54475 -0.336987 
-9.04051 -1.57253 -0.328676 -9.08113 -1.60059 -0.320005 -9.12148 -1.62893 -0.310979 
-9.16156 -1.65753 -0.301602 -9.20138 -1.6864 -0.291879 -9.24092 -1.71552 -0.281814 
-9.28018 -1.74489 -0.271411 -9.31918 -1.77451 -0.260674 -9.3579 -1.80435 -0.249609 
-9.39635 -1.83443 -0.23822 -9.43452 -1.86473 -0.22651 -9.47242 -1.89525 -0.214485 
-9.51003 -1.92597 -0.202148 -9.54737 -1.9569 -0.189505 -9.58443 -1.98803 -0.17656 
-9.62122 -2.01934 -0.163317 -9.65772 -2.05084 -0.149783 -9.69396 -2.08252 -0.135966 
-9.72994 -2.11437 -0.121872 -9.76565 -2.14639 -0.107509 -9.80111 -2.17857 -0.0928839 
-9.83632 -2.21091 -0.0780039 -9.87129 -2.24339 -0.0628762 -9.90602 -2.27603 -0.0475079 
-9.94051 -2.3088 -0.0319061 -9.97478 -2.34171 -0.0160781 -10.0088 -2.37475 -3.10329e-05 
-10.0427 -2.40791 0.016228 -10.0763 -2.44118 0.0326918 -10.1097 -2.47457 0.0493531 
-10.1429 -2.50807 0.066205 -10.1759 -2.54167 0.08324 -10.2087 -2.57536 0.100451 
-10.2413 -2.60915 0.117831 -10.2738 -2.64301 0.135373 -10.306 -2.67696 0.15307 
-10.3381 -2.71098 0.170915 -10.37 -2.74508 0.188904 -10.4018 -2.77925 0.20703 
-10.4334 -2.81349 0.225289 -10.4649 -2.84779 0.243674 -10.4962 -2.88216 0.262181 
-10.5274 -2.9166 0.280804 -10.5584 -2.95109 0.299538 -10.5893 -2.98564 0.318377 
-10.6201 -3.02025 0.337315 -10.6508 -3.05492 0.356348 -10.6813 -3.08963 0.375469 
-10.7118 -3.1244 0.394674 -10.7421 -3.15921 0.413957 -10.7723 -3.19407 0.433312 
-10.8025 -3.22898 0.452734 -10.8325 -3.26392 0.472218 -10.8625 -3.29891 0.491757 
-10.8924 -3.33393 0.511348 -10.9222 -3.36899 0.530984 -10.952 -3.40408 0.550659 
-10.9817 -3.4392 0.570369 -11.0113 -3.47435 0.590108 -11.0409 -3.50954 0.60987 
-11.0704 -3.54475 0.62965 -11.0999 -3.58 0.649443 -11.1294 -3.61527 0.669243 
-11.1588 -3.65057 0.689044 -11.1882 -3.6859 0.708842 -11.2175 -3.72125 0.72863 
-11.2469 -3.75663 0.748405 -11.2762 -3.79203 0.768158 -11.3055 -3.82745 0.787887 
-11.3348 -3.8629 0.807584 -11.3641 -3.89836 0.827245 -11.3935 -3.93385 0.846865 
-11.4228 -3.96935 0.866437 -11.4521 -4.00488 0.885956 -11.4815 -4.04042 0.905417 
-11.5109 -4.07598 0.924814 -11.5403 -4.11155 0.944143 -11.5697 -4.14714 0.963394 
-11.5992 -4.18275 0.982563 -11.6287 -4.21837 1.00164 -11.6583 -4.254 1.02062 
-11.6879 -4.28965 1.0395 -11.7176 -4.32531 1.05826 -11.7473 -4.36099 1.07691 
-11.7771 -4.39667 1.09543 -11.807 -4.43238 1.11382 -11.8369 -4.46809 1.13206 
-11.8669 -4.50382 1.15017 -11.897 -4.53955 1.16811 -11.9272 -4.5753 1.1859 
-11.9574 -4.61106 1.20352 -11.9877 -4.64684 1.22096 -12.0182 -4.68262 1.23823 
-12.0487 -4.71841 1.2553 -12.0793 -4.75421 1.27218 -12.1101 -4.79002 1.28885 
-12.1409 -4.82584 1.30532 -12.1719 -4.86167 1.32156 -12.203 -4.89751 1.33758 
-12.2342 -4.93335 1.35335 -12.2655 -4.96919 1.36888 -12.297 -5.00503 1.38415 
-12.3286 -5.04088 1.39914 -12.3603 -5.07672 1.41386 -12.3921 -5.11256 1.42828 
-12.4241 -5.1484 1.44241 -12.4563 -5.18423 1.45622 -12.4885 -5.22006 1.46971 
-12.5209 -5.25587 1.48288 -12.5535 -5.29168 1.4957 -12.5862 -5.32748 1.50817 
-12.6191 -5.36326 1.52028 -12.6521 -5.39903 1.53203 -12.6853 -5.43478 1.54339 
-12.7187 -5.47052 1.55435 -12.7522 -5.50623 1.56492 -12.7859 -5.54193 1.57508 
-12.8197 -5.5776 1.58481 -12.8538 -5.61325 1.59411 -12.8879 -5.64887 1.60297 
-12.9223 -5.68445 1.61136 -12.9568 -5.72 1.61929 -12.9914 -5.7555 1.62674 
-13.0262 -5.79096 1.63369 -13.0611 -5.82637 1.64014 -13.0962 -5.86173 1.64607 
-13.1314 -5.89704 1.65147 -13.1667 -5.93228 1.65633 -13.2022 -5.96746 1.66064 
-13.2378 -6.00258 1.66438 -13.2735 -6.03763 1.66755 -13.3093 -6.0726 1.67013 
-13.3452 -6.1075 1.67211 -13.3812 -6.14231 1.67348 -13.4174 -6.17704 1.67423 
-13.4536 -6.21168 1.67434 -13.49 -6.24623 1.6738 -13.5264 -6.28069 1.67261 
-13.5629 -6.31504 1.67076 -13.5995 -6.34929 1.66826 -13.6361 -6.38343 1.66509 
-13.6728 -6.41746 1.66127 -13.7096 -6.45137 1.65679 -13.7464 -6.48516 1.65164 
-13.7831 -6.51882 1.64584 -13.82 -6.55235 1.63937 -13.8568 -6.58574 1.63223 
-13.8936 -6.619 1.62444 -13.9303 -6.65211 1.61598 -13.9671 -6.68506 1.60685 
-14.0038 -6.71787 1.59706 -14.0405 -6.75052 1.5866 -14.0771 -6.783 1.57547 
-14.1137 -6.81532 1.56367 -14.1501 -6.84747 1.5512 -14.1865 -6.87944 1.53806 
-14.2228 -6.91122 1.52425 -14.259 -6.94283 1.50977 -14.2951 -6.97425 1.49463 
-14.331 -7.00548 1.47883 -14.3668 -7.03653 1.46238 -14.4025 -7.0674 1.44529 
-14.438 -7.09808 1.42757 -14.4734 -7.12858 1.40923 -14.5086 -7.15889 1.39027 
-14.5437 -7.18902 1.3707 -14.5785 -7.21897 1.35054 -14.6132 -7.24874 1.32979 
[...]
CELL_DATA 1
FIELD FieldData 2
Length 1 1 double
64.004624015 
Tortuosity 1 1 double
0.99590048047 
POINT_DATA 1280
SCALARS MaximumInscribedSphereRadius float
LOOKUP_TABLE default
1.24 1.24 1.24 1.24 1.24 1.24 1.24 1.24 1.24 
1.24 1.24 1.24 1.24 1.24 1.24 1.24 1.24 1.24 
1.24 1.24 1.24 1.24 1.24 1.24 1.24 1.24 1.24 
1.24 1.24 1.24 1.24 1.24 1.24 1.24 1.24 1.24 
1.24 1.24 1.24 1.24 1.24 1.24 1.24 1.24 1.24 
1.24 1.24 1.24 1.24 1.24 1.24 1.24 1.24 1.24 
1.24 1.24 1.24 1.24 1.24 1.24 1.24 1.24 1.24 
1.24 1.24 1.24 1.24 1.24 1.24 1.24 1.24 1.24 
1.24 1.24 1.24 1.24 1.24 1.24 1.24 1.24 1.24 
1.24 1.24078 1.24171 1.24265 1.24359 1.24453 1.24546 1.2464 1.24734 
1.24828 1.24921 1.25015 1.25109 1.25203 1.25296 1.2539 1.25484 1.25578 
1.25671 1.25765 1.25859 1.25971 1.26103 1.26235 1.26368 1.265 1.26632 
1.26765 1.26897 1.27029 1.27162 1.27294 1.27427 1.27559 1.27691 1.27824 
1.27956 1.28088 1.28221 1.28353 1.28485 1.28615 1.28735 1.28855 1.28975 
1.29095 1.29216 1.29336 1.29456 1.29576 1.29696 1.29817 1.29937 1.30057 
1.30177 1.30297 1.30417 1.30538 1.30658 1.30778 1.30898 1.31018 1.30939 
1.30845 1.30752 1.30658 1.30565 1.30472 1.30378 1.30285 1.30191 1.30098 
1.30005 1.29911 1.29818 1.29724 1.29631 1.29538 1.29444 1.29351 1.29257 
1.29164 1.29834 1.30962 1.3209 1.33218 1.34347 1.35475 1.36603 1.37731 
1.3886 1.39988 1.41116 1.42244 1.43373 1.44501 1.45629 1.46757 1.47886 
1.49014 1.50142 1.5127 1.52477 1.53844 1.5521 1.56576 1.57943 1.59309 
1.60675 1.62042 1.63408 1.64774 1.66141 1.67507 1.68874 1.7024 1.71606 
1.72973 1.74339 1.75705 1.77072 1.78438 1.79798 1.80863 1.81928 1.82994 
1.84059 1.85124 1.86189 1.87254 1.8832 1.89385 1.9045 1.91515 1.9258 
1.93646 1.94711 1.95776 1.96841 1.97907 1.98972 2.00037 2.01102 1.99574 
1.97038 1.94503 1.91968 1.89433 1.86897 1.84362 1.81827 1.79292 1.76756 
1.74221 1.71686 1.69151 1.66615 1.6408 1.61545 1.5901 1.56474 1.53939 
1.51404 1.4915 1.47253 1.45356 1.43459 1.41562 1.39665 1.37768 1.35871 
1.33974 1.32077 1.3018 1.28283 1.26386 1.2449 1.22593 1.20696 1.18799 
1.16902 1.15005 1.13108 1.11305 1.09988 1.08671 1.07355 1.06038 1.04721 
1.03404 1.02087 1.0077 0.994535 0.981366 0.968198 0.955029 0.941861 0.928692 
0.915524 0.902355 0.889187 0.876018 0.86285 0.849681 0.84202 0.835113 0.828206 
0.821299 0.814392 0.807486 0.800579 0.793672 0.786765 0.779858 0.772952 0.766045 
0.759138 0.752231 0.745324 0.738417 0.731511 0.724604 0.717697 0.71079 0.714988 
0.726823 0.738658 0.750492 0.762327 0.774161 0.785996 0.797831 0.809665 0.8215 
0.833334 0.845169 0.857003 0.868838 0.880673 0.892507 0.904342 0.916176 0.928011 
0.939846 0.949625 0.953309 0.956993 0.960678 0.964362 0.968046 0.97173 0.975414 
0.979099 0.982783 0.986467 0.990151 0.993836 0.99752 1.0012 1.00489 1.00857 
1.01226 1.01594 1.01962 1.02331 1.01975 1.01592 1.01209 1.00827 1.00444 
1.00061 0.996784 0.992957 0.989129 0.985302 0.981474 0.977647 0.973819 0.969992 
0.966165 0.962337 0.95851 0.954682 0.950855 0.947027 0.944837 0.943634 0.942431 
0.941229 0.940026 0.938823 0.93762 0.936418 0.935215 0.934012 0.932809 0.931606 
0.930404 0.929201 0.927998 0.926795 0.925593 0.92439 0.923187 0.921984 0.921853 
0.924035 0.926218 0.928401 0.930584 0.932767 0.93495 0.937132 0.939315 0.941498 
0.943681 0.945864 0.948047 0.95023 0.952412 0.954595 0.956778 0.958961 0.961144 
0.963327 0.965559 0.970501 0.975443 0.980384 0.985326 0.990268 0.995209 1.00015 
1.00509 1.01003 1.01498 1.01992 1.02486 1.0298 1.03474 1.03968 1.04463 
1.04957 1.05451 1.05945 1.06439 1.07078 1.0777 1.08462 1.09154 1.09847 
1.10539 1.11231 1.11923 1.12616 1.13308 1.14 1.14692 1.15384 1.16077 
1.16769 1.17461 1.18153 1.18845 1.19538 1.2023 1.20618 1.20622 1.20626 
1.2063 1.20634 1.20638 1.20642 1.20646 1.2065 1.20654 1.20658 1.20662 
1.20666 1.2067 1.20674 1.20678 1.20682 1.20686 1.2069 1.20694 1.20608 
1.20035 1.19462 1.18889 1.18316 1.17743 1.1717 1.16597 1.16024 1.15451 
1.14878 1.14305 1.13732 1.13159 1.12586 1.12013 1.1144 1.10867 1.10294 
1.09721 1.09148 1.08836 1.08564 1.08293 1.08021 1.07749 1.07477 1.07206 
1.06934 1.06662 1.0639 1.06118 1.05847 1.05575 1.05303 1.05031 1.0476 
1.04488 1.04216 1.03944 1.03673 1.04066 1.04936 1.05807 1.06678 1.07549 
1.0842 1.0929 1.10161 1.11032 1.11903 1.12773 1.13644 1.14515 1.15386 
1.16256 1.17127 1.17998 1.18869 1.1974 1.2061 1.21576 1.22769 1.23963 
1.25156 1.26349 1.27543 1.28736 1.29929 1.31123 1.32316 1.33509 1.34703 
1.35896 1.37089 1.38283 1.39476 1.40669 1.41862 1.43056 1.44249 1.4544 
1.46095 1.46751 1.47406 1.48061 1.48716 1.49371 1.50026 1.50681 1.51336 
1.51991 1.52646 1.53301 1.53956 1.54611 1.55266 1.55921 1.56576 1.57231 
1.57886 1.58541 1.58884 1.59114 1.59345 1.59575 1.59805 1.60036 1.60266 
1.60496 1.60727 1.60957 1.61187 1.61417 1.61648 1.61878 1.62108 1.62339 
1.62569 1.62799 1.6303 1.6326 1.63453 1.63597 1.6374 1.63883 1.64026 
1.64169 1.64313 1.64456 1.64599 1.64742 1.64886 1.65029 1.65172 1.65315 
1.65458 1.65602 1.65745 1.65888 1.66031 1.66174 1.66304 1.66336 1.66368 
1.66401 1.66433 1.66465 1.66497 1.66529 1.66562 1.66594 1.66626 1.66658 
1.66691 1.66723 1.66755 1.66787 1.66819 1.66852 1.66884 1.66916 1.66968 
1.67279 1.67589 1.67899 1.6821 1.6852 1.68831 1.69141 1.69451 1.69762 
1.70072 1.70383 1.70693 1.71003 1.71314 1.71624 1.71935 1.72245 1.72555 
1.72866 1.73176 1.73512 1.74159 1.74806 1.75452 1.76099 1.76746 1.77393 
1.78039 1.78686 1.79333 1.7998 1.80627 1.81273 1.8192 1.82567 1.83214 
1.83861 1.84507 1.85154 1.85801 1.86343 1.86554 1.86765 1.86976 1.87187 
1.87398 1.87609 1.8782 1.88031 1.88242 1.88453 1.88664 1.88875 1.89086 
1.89297 1.89508 1.89719 1.8993 1.90141 1.90352 1.90563 1.9113 1.91885 
1.92639 1.93394 1.94148 1.94903 1.95658 1.96412 1.97167 1.97921 1.98676 
1.99431 2.00185 2.0094 2.01694 2.02449 2.03203 2.03958 2.04713 2.05467 
2.06015 2.05866 2.05718 2.05569 2.0542 2.05272 2.05123 2.04974 2.04826 
2.04677 2.04529 2.0438 2.04231 2.04083 2.03934 2.03785 2.03637 2.03488 
2.03339 2.03191 2.03042 2.01828 2.00396 1.98964 1.97533 1.96101 1.94669 
1.93237 1.91805 1.90374 1.88942 1.8751 1.86078 1.84647 1.83215 1.81783 
1.80351 1.78919 1.77488 1.76056 1.74624 1.73827 1.73478 1.7313 1.72781 
1.72433 1.72084 1.71736 1.71387 1.71039 1.7069 1.70342 1.69993 1.69645 
1.69296 1.68948 1.68599 1.68251 1.67902 1.67554 1.67205 1.67077 1.6745 
1.67824 1.68197 1.68571 1.68944 1.69317 1.69691 1.70064 1.70438 1.70811 
1.71185 1.71558 1.71932 1.72305 1.72679 1.73052 1.73426 1.73799 1.74173 
1.74548 1.75251 1.75953 1.76656 1.77359 1.78062 1.78765 1.79468 1.8017 
1.80873 1.81576 1.82279 1.82982 1.83685 1.84387 1.8509 1.85793 1.86496 
1.87199 1.87902 1.88604 1.89315 1.90028 1.90742 1.91455 1.92169 1.92882 
1.93596 1.94309 1.95023 1.95736 1.9645 1.97163 1.97877 1.9859 1.99303 
2.00017 2.0073 2.01444 2.02157 2.02871 2.03269 2.03252 2.03236 2.03219 
2.03203 2.03186 2.03169 2.03153 2.03136 2.0312 2.03103 2.03087 2.0307 
2.03054 2.03037 2.0302 2.03004 2.02987 2.02971 2.02954 2.02818 2.01955 
2.01092 2.00229 1.99366 1.98503 1.9764 1.96777 1.95913 1.9505 1.94187 
1.93324 1.92461 1.91598 1.90735 1.89872 1.89009 1.88146 1.87282 1.86419 
1.85556 1.84499 1.83409 1.82319 1.81228 1.80138 1.79048 1.77958 1.76867 
1.75777 1.74687 1.73597 1.72506 1.71416 1.70326 1.69236 1.68145 1.67055 
1.65965 1.64875 1.63784 1.63518 1.63886 1.64253 1.64621 1.64989 1.65357 
1.65725 1.66092 1.6646 1.66828 1.67196 1.67564 1.67931 1.68299 1.68667 
1.69035 1.69403 1.6977 1.70138 1.70506 1.70846 1.71116 1.71385 1.71654 
1.71924 1.72193 1.72462 1.72731 1.73001 1.7327 1.73539 1.73809 1.74078 
1.74347 1.74616 1.74886 1.75155 1.75424 1.75694 1.75963 1.76232 1.76011 
1.75785 1.75559 1.75333 1.75106 1.7488 1.74654 1.74428 1.74201 1.73975 
1.73749 1.73523 1.73297 1.7307 1.72844 1.72618 1.72392 1.72166 1.71939 
1.71713 1.71218 1.70603 1.69987 1.69372 1.68756 1.68141 1.67525 1.6691 
1.66294 1.65679 1.65063 1.64448 1.63832 1.63217 1.62601 1.61986 1.6137 
1.60755 1.60139 1.59524 1.59614 1.60809 1.62004 1.632 1.64395 1.6559 
1.66786 1.67981 1.69176 1.70372 1.71567 1.72762 1.73958 1.75153 1.76348 
1.77544 1.78739 1.79935 1.8113 1.82325 1.835 1.84381 1.85263 1.86145 
1.87026 1.87908 1.88789 1.89671 1.90552 1.91434 1.92315 1.93197 1.94078 
1.9496 1.95841 1.96723 1.97604 1.98486 1.99367 2.00249 2.0113 2.01749 
2.02288 2.02827 2.03365 2.03904 2.04442 2.04981 2.0552 2.06058 2.06597 
2.07135 2.07674 2.08213 2.08751 2.0929 2.09829 2.10367 2.10906 2.11444 
2.11983 2.12338 2.12471 2.12605 2.12738 2.12871 2.13004 2.13137 2.1327 
2.13404 2.13537 2.1367 2.13803 2.13936 2.14069 2.14203 2.14336 2.14469 
2.14602 2.14735 2.14868 2.14875 2.14193 2.13511 2.1283 2.12148 2.11466 
2.10784 2.10102 2.0942 2.08738 2.08056 2.07374 2.06693 2.06011 2.05329 
2.04647 2.03965 2.03283 2.02601 2.01919 2.01237 2.00729 2.00246 1.99762 
1.99279 1.98796 1.98312 1.97829 1.97346 1.96863 1.96379 1.95896 1.95413 
1.94929 1.94446 1.93963 1.93479 1.92996 1.92513 1.9203 1.91546 1.91193 
1.90929 1.90665 1.90401 1.90138 1.89874 1.8961 1.89346 1.89082 1.88818 
1.88555 1.88291 1.88027 1.87763 1.87499 1.87236 1.86972 1.86708 1.86444 
1.8618 1.86 1.86 1.86 1.86 1.86 1.86 1.86 1.86 
1.86 1.86 1.86 1.86 1.86 1.86 1.86 1.86 1.86 
1.86 1.86 1.86 1.86037 1.86985 1.87933 1.88882 1.8983 1.90778 
1.91727 1.92675 1.93623 1.94572 1.9552 1.96468 1.97416 1.98365 1.99313 
2.00261 2.0121 2.02158 2.03106 2.04055 2.05003 2.06126 2.07312 2.08497 
2.09682 2.10867 2.12053 2.13238 2.14423 2.15608 2.16794 2.17979 2.19164 
2.20349 2.21535 2.2272 2.23905 2.2509 2.26276 2.27461 2.28646 2.29839 
2.31039 2.3224 2.3344 2.3464 2.3584 2.37041 2.38241 2.39441 2.40641 
2.41841 2.43042 2.44242 2.45442 2.46642 2.47843 2.49043 2.50243 2.51443 
2.52644 2.53778 2.54525 2.55272 2.5602 2.56767 2.57514 2.58261 2.59009 
2.59756 2.60503 2.6125 2.61997 2.62745 2.63492 2.64239 2.64986 2.65734 
2.66481 2.67228 2.67975 2.68723 2.69246 2.69661 2.70076 2.7049 2.70905 
2.71319 2.71734 2.72149 2.72563 2.72978 2.73392 2.73807 2.74222 2.74636 
2.75051 2.75465 2.7588 2.76295 2.76709 2.7691 2.77035 2.77161 2.77286 
2.77411 2.77536 2.77661 2.77787 2.77912 2.78037 2.78162 2.78287 2.78412 
2.78538 2.78663 2.78788 2.78913 2.79038 2.79163 2.79289 2.79414 2.79539 
2.79664 2.79789 2.79786 2.7974 2.79694 2.79648 2.79601 2.79555 2.79509 
2.79463 2.79416 2.7937 2.79324 2.79278 2.79231 2.79185 2.79139 2.79093 
2.79046 2.79 
TEXTURE_COORDINATES TCoords 2 float
0 0 0.000781861 0 0.00156372 0 0.00234558 0 0.00312744 
0 0.0039093 0 0.00469116 0 0.00547303 0 0.00625489 0 
0.00703675 0 0.00781861 0 0.00860047 0 0.00938233 0 0.0101642 
0 0.0109461 0 0.0117279 0 0.0125098 0 0.0132916 0 
0.0140735 0 0.0148554 0 0.0156372 0 0.0164191 0 0.0172009 
0 0.0179828 0 0.0187647 0 0.0195465 0 0.0203284 0 
0.0211102 0 0.0218921 0 0.022674 0 0.0234558 0 0.0242377 
0 0.0250195 0 0.0258014 0 0.0265833 0 0.0273651 0 
0.028147 0 0.0289288 0 0.0297107 0 0.0304926 0 0.0312744 
0 0.0320563 0 0.0328382 0 0.03362 0 0.0344019 0 
0.0351837 0 0.0359656 0 0.0367475 0 0.0375293 0 0.0383112 
0 0.039093 0 0.0398749 0 0.0406568 0 0.0414386 0 
0.0422205 0 0.0430023 0 0.0437842 0 0.0445661 0 0.0453479 
0 0.0461298 0 0.0469116 0 0.0476935 0 0.0484754 0 
0.0492572 0 0.0500391 0 0.050821 0 0.0516028 0 0.0523847 
0 0.0531665 0 0.0539484 0 0.0547303 0 0.0555121 0 
0.056294 0 0.0570758 0 0.0578577 0 0.0586396 0 0.0594214 
0 0.0602033 0 0.0609851 0 0.061767 0 0.0625489 0 
0.0633307 0 0.0641126 0 0.0648944 0 0.0656763 0 0.0664582 
0 0.06724 0 0.0680219 0 0.0688037 0 0.0695856 0 
0.0703675 0 0.0711493 0 0.0719312 0 0.0727131 0 0.0734949 
0 0.0742768 0 0.0750586 0 0.0758405 0 0.0766224 0 
0.0774042 0 0.0781861 0 0.0789679 0 0.0797498 0 0.0805317 
0 0.0813135 0 0.0820954 0 0.0828772 0 0.0836591 0 
0.084441 0 0.0852228 0 0.0860047 0 0.0867866 0 0.0875684 
0 0.0883503 0 0.0891321 0 0.089914 0 0.0906959 0 
0.0914777 0 0.0922596 0 0.0930414 0 0.0938233 0 0.0946052 
0 0.095387 0 0.0961689 0 0.0969507 0 0.0977326 0 
0.0985145 0 0.0992963 0 0.100078 0 0.10086 0 0.101642 
0 0.102424 0 0.103206 0 0.103987 0 0.104769 0 
0.105551 0 0.106333 0 0.107115 0 0.107897 0 0.108679 
0 0.109461 0 0.110242 0 0.111024 0 0.111806 0 
0.112588 0 0.11337 0 0.114152 0 0.114934 0 0.115715 
0 0.116497 0 0.117279 0 0.118061 0 0.118843 0 
0.119625 0 0.120407 0 0.121188 0 0.12197 0 0.122752 
0 0.123534 0 0.124316 0 0.125098 0 0.12588 0 
0.126661 0 0.127443 0 0.128225 0 0.129007 0 0.129789 
0 0.130571 0 0.131353 0 0.132134 0 0.132916 0 
0.133698 0 0.13448 0 0.135262 0 0.136044 0 0.136826 
0 0.137607 0 0.138389 0 0.139171 0 0.139953 0 
0.140735 0 0.141517 0 0.142299 0 0.143081 0 0.143862 
0 0.144644 0 0.145426 0 0.146208 0 0.14699 0 
0.147772 0 0.148554 0 0.149335 0 0.150117 0 0.150899 
0 0.151681 0 0.152463 0 0.153245 0 0.154027 0 
0.154808 0 0.15559 0 0.156372 0 0.157154 0 0.157936 
0 0.158718 0 0.1595 0 0.160281 0 0.161063 0 
0.161845 0 0.162627 0 0.163409 0 0.164191 0 0.164973 
0 0.165754 0 0.166536 0 0.167318 0 0.1681 0 
0.168882 0 0.169664 0 0.170446 0 0.171228 0 0.172009 
0 0.172791 0 0.173573 0 0.174355 0 0.175137 0 
0.175919 0 0.176701 0 0.177482 0 0.178264 0 0.179046 
0 0.179828 0 0.18061 0 0.181392 0 0.182174 0 
0.182955 0 0.183737 0 0.184519 0 0.185301 0 0.186083 
0 0.186865 0 0.187647 0 0.188428 0 0.18921 0 
0.189992 0 0.190774 0 0.191556 0 0.192338 0 0.19312 
0 0.193901 0 0.194683 0 0.195465 0 0.196247 0 
0.197029 0 0.197811 0 0.198593 0 0.199375 0 0.200156 
0 0.200938 0 0.20172 0 0.202502 0 0.203284 0 
0.204066 0 0.204848 0 0.205629 0 0.206411 0 0.207193 
0 0.207975 0 0.208757 0 0.209539 0 0.210321 0 
0.211102 0 0.211884 0 0.212666 0 0.213448 0 0.21423 
0 0.215012 0 0.215794 0 0.216575 0 0.217357 0 
0.218139 0 0.218921 0 0.219703 0 0.220485 0 0.221267 
0 0.222048 0 0.22283 0 0.223612 0 0.224394 0 
0.225176 0 0.225958 0 0.22674 0 0.227521 0 0.228303 
0 0.229085 0 0.229867 0 0.230649 0 0.231431 0 
0.232213 0 0.232995 0 0.233776 0 0.234558 0 0.23534 
0 0.236122 0 0.236904 0 0.237686 0 0.238468 0 
0.239249 0 0.240031 0 0.240813 0 0.241595 0 0.242377 
0 0.243159 0 0.243941 0 0.244722 0 0.245504 0 
0.246286 0 0.247068 0 0.24785 0 0.248632 0 0.249414 
0 0.250195 0 0.250977 0 0.251759 0 0.252541 0 
0.253323 0 0.254105 0 0.254887 0 0.255668 0 0.25645 
0 0.257232 0 0.258014 0 0.258796 0 0.259578 0 
0.26036 0 0.261142 0 0.261923 0 0.262705 0 0.263487 
0 0.264269 0 0.265051 0 0.265833 0 0.266615 0 
0.267396 0 0.268178 0 0.26896 0 0.269742 0 0.270524 
0 0.271306 0 0.272088 0 0.272869 0 0.273651 0 
0.274433 0 0.275215 0 0.275997 0 0.276779 0 0.277561 
0 0.278342 0 0.279124 0 0.279906 0 0.280688 0 
0.28147 0 0.282252 0 0.283034 0 0.283815 0 0.284597 
0 0.285379 0 0.286161 0 0.286943 0 0.287725 0 
0.288507 0 0.289289 0 0.29007 0 0.290852 0 0.291634 
0 0.292416 0 0.293198 0 0.29398 0 0.294762 0 
0.295543 0 0.296325 0 0.297107 0 0.297889 0 0.298671 
0 0.299453 0 0.300235 0 0.301016 0 0.301798 0 
0.30258 0 0.303362 0 0.304144 0 0.304926 0 0.305708 
0 0.306489 0 0.307271 0 0.308053 0 0.308835 0 
0.309617 0 0.310399 0 0.311181 0 0.311962 0 0.312744 
0 0.313526 0 0.314308 0 0.31509 0 0.315872 0 
0.316654 0 0.317436 0 0.318217 0 0.318999 0 0.319781 
0 0.320563 0 0.321345 0 0.322127 0 0.322909 0 
0.32369 0 0.324472 0 0.325254 0 0.326036 0 0.326818 
0 0.3276 0 0.328382 0 0.329163 0 0.329945 0 
0.330727 0 0.331509 0 0.332291 0 0.333073 0 0.333855 
0 0.334636 0 0.335418 0 0.3362 0 0.336982 0 
0.337764 0 0.338546 0 0.339328 0 0.340109 0 0.340891 
0 0.341673 0 0.342455 0 0.343237 0 0.344019 0 
0.344801 0 0.345582 0 0.346364 0 0.347146 0 0.347928 
0 0.34871 0 0.349492 0 0.350274 0 0.351056 0 
0.351837 0 0.352619 0 0.353401 0 0.354183 0 0.354965 
0 0.355747 0 0.356529 0 0.35731 0 0.358092 0 
0.358874 0 0.359656 0 0.360438 0 0.36122 0 0.362002 
0 0.362783 0 0.363565 0 0.364347 0 0.365129 0 
0.365911 0 0.366693 0 0.367475 0 0.368256 0 0.369038 
0 0.36982 0 0.370602 0 0.371384 0 0.372166 0 
0.372948 0 0.373729 0 0.374511 0 0.375293 0 0.376075 
0 0.376857 0 0.377639 0 0.378421 0 0.379203 0 
0.379984 0 0.380766 0 0.381548 0 0.38233 0 0.383112 
0 0.383894 0 0.384676 0 0.385457 0 0.386239 0 
0.387021 0 0.387803 0 0.388585 0 0.389367 0 0.390149 
0 0.39093 0 0.391712 0 0.392494 0 0.393276 0 
0.394058 0 0.39484 0 0.395622 0 0.396403 0 0.397185 
0 0.397967 0 0.398749 0 0.399531 0 0.400313 0 
0.401095 0 0.401876 0 0.402658 0 0.40344 0 0.404222 
0 0.405004 0 0.405786 0 0.406568 0 0.407349 0 
0.408131 0 0.408913 0 0.409695 0 0.410477 0 0.411259 
0 0.412041 0 0.412823 0 0.413604 0 0.414386 0 
0.415168 0 0.41595 0 0.416732 0 0.417514 0 0.418296 
0 0.419077 0 0.419859 0 0.420641 0 0.421423 0 
0.422205 0 0.422987 0 0.423769 0 0.42455 0 0.425332 
0 0.426114 0 0.426896 0 0.427678 0 0.42846 0 
0.429242 0 0.430023 0 0.430805 0 0.431587 0 0.432369 
0 0.433151 0 0.433933 0 0.434715 0 0.435496 0 
0.436278 0 0.43706 0 0.437842 0 0.438624 0 0.439406 
0 0.440188 0 0.440969 0 0.441751 0 0.442533 0 
0.443315 0 0.444097 0 0.444879 0 0.445661 0 0.446443 
0 0.447224 0 0.448006 0 0.448788 0 0.44957 0 
0.450352 0 0.451134 0 0.451916 0 0.452697 0 0.453479 
0 0.454261 0 0.455043 0 0.455825 0 0.456607 0 
0.457389 0 0.45817 0 0.458952 0 0.459734 0 0.460516 
0 0.461298 0 0.46208 0 0.462862 0 0.463643 0 
0.464425 0 0.465207 0 0.465989 0 0.466771 0 0.467553 
0 0.468335 0 0.469117 0 0.469898 0 0.47068 0 
0.471462 0 0.472244 0 0.473026 0 0.473808 0 0.47459 
0 0.475371 0 0.476153 0 0.476935 0 0.477717 0 
0.478499 0 0.479281 0 0.480063 0 0.480844 0 0.481626 
0 0.482408 0 0.48319 0 0.483972 0 0.484754 0 
0.485536 0 0.486317 0 0.487099 0 0.487881 0 0.488663 
0 0.489445 0 0.490227 0 0.491009 0 0.49179 0 
0.492572 0 0.493354 0 0.494136 0 0.494918 0 0.4957 
0 0.496482 0 0.497263 0 0.498045 0 0.498827 0 
0.499609 0 0.500391 0 0.501173 0 0.501955 0 0.502737 
0 0.503518 0 0.5043 0 0.505082 0 0.505864 0 
0.506646 0 0.507428 0 0.50821 0 0.508991 0 0.509773 
0 0.510555 0 0.511337 0 0.512119 0 0.512901 0 
0.513683 0 0.514464 0 0.515246 0 0.516028 0 0.51681 
0 0.517592 0 0.518374 0 0.519156 0 0.519937 0 
0.520719 0 0.521501 0 0.522283 0 0.523065 0 0.523847 
0 0.524629 0 0.52541 0 0.526192 0 0.526974 0 
0.527756 0 0.528538 0 0.52932 0 0.530102 0 0.530883 
0 0.531665 0 0.532447 0 0.533229 0 0.534011 0 
0.534793 0 0.535575 0 0.536357 0 0.537138 0 0.53792 
0 0.538702 0 0.539484 0 0.540266 0 0.541048 0 
0.54183 0 0.542611 0 0.543393 0 0.544175 0 0.544957 
0 0.545739 0 0.546521 0 0.547303 0 0.548084 0 
0.548866 0 0.549648 0 0.55043 0 0.551212 0 0.551994 
0 0.552776 0 0.553557 0 0.554339 0 0.555121 0 
0.555903 0 0.556685 0 0.557467 0 0.558249 0 0.55903 
0 0.559812 0 0.560594 0 0.561376 0 0.562158 0 
0.56294 0 0.563722 0 0.564503 0 0.565285 0 0.566067 
0 0.566849 0 0.567631 0 0.568413 0 0.569195 0 
0.569977 0 0.570758 0 0.57154 0 0.572322 0 0.573104 
0 0.573886 0 0.574668 0 0.57545 0 0.576231 0 
0.577013 0 0.577795 0 0.578577 0 0.579359 0 0.580141 
0 0.580923 0 0.581704 0 0.582486 0 0.583268 0 
0.58405 0 0.584832 0 0.585614 0 0.586396 0 0.587177 
0 0.587959 0 0.588741 0 0.589523 0 0.590305 0 
0.591087 0 0.591869 0 0.592651 0 0.593432 0 0.594214 
0 0.594996 0 0.595778 0 0.59656 0 0.597342 0 
0.598124 0 0.598905 0 0.599687 0 0.600469 0 0.601251 
0 0.602033 0 0.602815 0 0.603597 0 0.604378 0 
0.60516 0 0.605942 0 0.606724 0 0.607506 0 0.608288 
0 0.60907 0 0.609851 0 0.610633 0 0.611415 0 
0.612197 0 0.612979 0 0.613761 0 0.614543 0 0.615324 
0 0.616106 0 0.616888 0 0.61767 0 0.618452 0 
0.619234 0 0.620016 0 0.620798 0 0.621579 0 0.622361 
0 0.623143 0 0.623925 0 0.624707 0 0.625489 0 
0.626271 0 0.627052 0 0.627834 0 0.628616 0 0.629398 
0 0.63018 0 0.630962 0 0.631744 0 0.632525 0 
0.633307 0 0.634089 0 0.634871 0 0.635653 0 0.636435 
0 0.637217 0 0.637998 0 0.63878 0 0.639562 0 
0.640344 0 0.641126 0 0.641908 0 0.64269 0 0.643471 
0 0.644253 0 0.645035 0 0.645817 0 0.646599 0 
0.647381 0 0.648163 0 0.648944 0 0.649726 0 0.650508 
0 0.65129 0 0.652072 0 0.652854 0 0.653636 0 
0.654418 0 0.655199 0 0.655981 0 0.656763 0 0.657545 
0 0.658327 0 0.659109 0 0.659891 0 0.660672 0 
0.661454 0 0.662236 0 0.663018 0 0.6638 0 0.664582 
0 0.665364 0 0.666145 0 0.666927 0 0.667709 0 
0.668491 0 0.669273 0 0.670055 0 0.670837 0 0.671618 