# vtk DataFile Version 4.2
vtk output
ASCII
DATASET POLYDATA
POINTS 1280 float
0 0 0 -0.00442472 0.00102799 -0.00127917 -0.0172764 0.00400984 -0.00499439 
-0.0379213 0.0087924 -0.0109622 -0.0657258 0.0152225 -0.0189992 -0.100056 0.0231469 -0.0289218 
-0.140279 0.0324126 -0.0405468 -0.18576 0.0428663 -0.0536905 -0.235865 0.0543548 -0.0681696 
-0.289962 0.0667251 -0.0838006 -0.347416 0.0798239 -0.1004 -0.407594 0.093498 -0.117785 
-0.469861 0.107594 -0.135771 -0.533585 0.12196 -0.154175 -0.598131 0.136441 -0.172814 
-0.662867 0.150885 -0.191504 -0.727157 0.165138 -0.210062 -0.790369 0.179048 -0.228304 
-0.851882 0.192464 -0.246051 -0.911423 0.205311 -0.263223 -0.969086 0.217595 -0.279846 
-1.02498 0.229322 -0.29595 -1.07922 0.240502 -0.311567 -1.13192 0.251143 -0.326726 
-1.18318 0.261254 -0.341459 -1.23312 0.270842 -0.355796 -1.28185 0.279917 -0.369768 
-1.32948 0.288487 -0.383406 -1.37612 0.29656 -0.39674 -1.42188 0.304144 -0.409801 
-1.46687 0.311249 -0.422619 -1.51121 0.317881 -0.435227 -1.55501 0.324051 -0.447653 
-1.59837 0.329766 -0.45993 -1.64141 0.335035 -0.472086 -1.68424 0.339866 -0.484155 
-1.72697 0.344267 -0.496165 -1.76971 0.348247 -0.508148 -1.81257 0.351815 -0.520134 
-1.85567 0.354978 -0.532155 -1.89911 0.357745 -0.54424 -1.943 0.360126 -0.55642 
-1.98747 0.362127 -0.568727 -2.03257 0.363756 -0.58118 -2.07828 0.365016 -0.59377 
-2.12455 0.365911 -0.606484 -2.17134 0.366442 -0.619309 -2.21861 0.366613 -0.632234 
-2.26631 0.366426 -0.645244 -2.3144 0.365885 -0.658327 -2.36283 0.364991 -0.67147 
-2.41155 0.363749 -0.684661 -2.46053 0.36216 -0.697886 -2.50971 0.360227 -0.711133 
-2.55906 0.357953 -0.724388 -2.60853 0.355342 -0.73764 -2.65807 0.352394 -0.750875 
-2.70764 0.349115 -0.76408 -2.75719 0.345505 -0.777242 -2.80669 0.341569 -0.790349 
-2.85608 0.337308 -0.803388 -2.90532 0.332726 -0.816346 -2.95438 0.327821 -0.829215 
-3.00328 0.322587 -0.841994 -3.05201 0.317015 -0.854683 -3.10058 0.311099 -0.867283 
-3.14899 0.304829 -0.879794 -3.19726 0.298199 -0.892217 -3.24539 0.2912 -0.90455 
-3.29338 0.283825 -0.916796 -3.34125 0.276066 -0.928953 -3.38899 0.267916 -0.941023 
-3.43662 0.259366 -0.953005 -3.48414 0.250408 -0.9649 -3.53155 0.241036 -0.976707 
-3.57887 0.23124 -0.988428 -3.62609 0.221014 -1.00006 -3.67323 0.21035 -1.01161 
-3.7203 0.19924 -1.02307 -3.76729 0.187675 -1.03445 -3.81421 0.175649 -1.04574 
-3.86107 0.163154 -1.05694 -3.90788 0.150182 -1.06806 -3.95463 0.136733 -1.07909 
-4.00131 0.122808 -1.09003 -4.04792 0.108409 -1.10088 -4.09444 0.0935349 -1.11163 
-4.14087 0.0781889 -1.12228 -4.18719 0.0623715 -1.13282 -4.23341 0.0460839 -1.14326 
-4.27951 0.0293275 -1.15358 -4.32549 0.0121032 -1.1638 -4.37133 -0.00558762 -1.17389 
-4.41703 -0.0237438 -1.18387 -4.46258 -0.0423643 -1.19372 -4.50798 -0.0614478 -1.20345 
-4.5532 -0.0809931 -1.21305 -4.59826 -0.100999 -1.22251 -4.64313 -0.121464 -1.23184 
-4.68781 -0.142388 -1.24103 -4.73229 -0.163769 -1.25007 -4.77656 -0.185606 -1.25897 
-4.82062 -0.207897 -1.26772 -4.86446 -0.230639 -1.27632 -4.90808 -0.253823 -1.28478 
-4.95148 -0.277441 -1.29308 -4.99467 -0.301485 -1.30123 -5.03764 -0.325946 -1.30923 
-5.08039 -0.350816 -1.31709 -5.12293 -0.376087 -1.32479 -5.16526 -0.401751 -1.33235 
-5.20738 -0.427799 -1.33977 -5.24929 -0.454223 -1.34703 -5.29099 -0.481014 -1.35416 
-5.33248 -0.508165 -1.36113 -5.37376 -0.535667 -1.36796 -5.41483 -0.563511 -1.37465 
-5.4557 -0.59169 -1.38119 -5.49637 -0.620195 -1.38759 -5.53683 -0.649019 -1.39384 
-5.57709 -0.678151 -1.39996 -5.61715 -0.707585 -1.40593 -5.65701 -0.737312 -1.41176 
-5.69666 -0.767324 -1.41744 -5.73612 -0.797616 -1.42299 -5.77539 -0.828184 -1.4284 
-5.81446 -0.85902 -1.43367 -5.85333 -0.890121 -1.4388 -5.89202 -0.921481 -1.44379 
-5.93051 -0.953094 -1.44864 -5.96882 -0.984956 -1.45336 -6.00694 -1.01706 -1.45795 
-6.04488 -1.0494 -1.46239 -6.08263 -1.08198 -1.46671 -6.1202 -1.11478 -1.47089 
-6.15759 -1.14781 -1.47494 -6.1948 -1.18105 -1.47885 -6.23184 -1.21451 -1.48264 
-6.26869 -1.24817 -1.48629 -6.30538 -1.28203 -1.48981 -6.34189 -1.31609 -1.49321 
-6.37824 -1.35034 -1.49647 -6.41441 -1.38477 -1.49961 -6.45042 -1.41939 -1.50262 
-6.48626 -1.45418 -1.5055 -6.52194 -1.48914 -1.50826 -6.55747 -1.52426 -1.51089 
-6.59284 -1.55955 -1.51341 -6.62807 -1.59499 -1.5158 -6.66315 -1.63059 -1.51807 
-6.69809 -1.66633 -1.52023 -6.73289 -1.70221 -1.52227 -6.76756 -1.73822 -1.5242 
-6.80209 -1.77437 -1.52601 -6.83651 -1.81064 -1.52771 -6.8708 -1.84704 -1.5293 
-6.90497 -1.88355 -1.53079 -6.93903 -1.92017 -1.53216 -6.97298 -1.9569 -1.53343 
-7.00682 -1.99373 -1.53459 -7.04056 -2.03066 -1.53566 -7.07419 -2.06768 -1.53662 
-7.10774 -2.10478 -1.53747 -7.14119 -2.14197 -1.53824 -7.17455 -2.17924 -1.5389 
-7.20783 -2.21658 -1.53947 -7.24103 -2.25399 -1.53994 -7.27415 -2.29147 -1.54031 
-7.3072 -2.32901 -1.5406 -7.34017 -2.36662 -1.54079 -7.37308 -2.40429 -1.5409 
-7.40593 -2.44201 -1.54091 -7.43871 -2.47978 -1.54084 -7.47144 -2.5176 -1.54068 
-7.50412 -2.55546 -1.54043 -7.53675 -2.59337 -1.5401 -7.56933 -2.63132 -1.53968 
-7.60187 -2.6693 -1.53919 -7.63437 -2.70731 -1.53861 -7.66684 -2.74535 -1.53796 
-7.69927 -2.78342 -1.53722 -7.73168 -2.82151 -1.53641 -7.76406 -2.85962 -1.53552 
-7.79642 -2.89775 -1.53456 -7.82876 -2.93589 -1.53352 -7.86109 -2.97403 -1.53241 
-7.8934 -3.01219 -1.53123 -7.92571 -3.05035 -1.52998 -7.95801 -3.08852 -1.52866 
-7.9903 -3.12668 -1.52727 -8.02259 -3.16484 -1.52581 -8.05489 -3.203 -1.52429 
-8.08719 -3.24115 -1.5227 -8.1195 -3.2793 -1.52104 -8.15182 -3.31743 -1.51932 
-8.18415 -3.35555 -1.51754 -8.2165 -3.39365 -1.5157 -8.24886 -3.43173 -1.5138 
-8.28125 -3.46979 -1.51183 -8.31366 -3.50783 -1.50981 -8.3461 -3.54584 -1.50773 
-8.37857 -3.58383 -1.5056 -8.41107 -3.62178 -1.50341 -8.44361 -3.6597 -1.50116 
-8.47618 -3.69758 -1.49886 -8.5088 -3.73543 -1.49651 -8.54146 -3.77323 -1.4941 
-8.57416 -3.811 -1.49165 -8.60691 -3.84872 -1.48915 -8.63971 -3.88639 -1.4866 
-8.67257 -3.92401 -1.484 -8.70547 -3.96159 -1.48136 -8.73844 -3.99911 -1.47867 
-8.77146 -4.03657 -1.47594 -8.80454 -4.07398 -1.47317 -8.83769 -4.11133 -1.47036 
-8.8709 -4.14862 -1.46751 -8.90418 -4.18584 -1.46462 -8.93753 -4.223 -1.46169 
-8.97096 -4.26009 -1.45873 -9.00445 -4.29711 -1.45573 -9.03803 -4.33406 -1.4527 
-9.07168 -4.37094 -1.44963 -9.10542 -4.40774 -1.44654 -9.13924 -4.44446 -1.44341 
-9.17314 -4.4811 -1.44026 -9.20713 -4.51765 -1.43707 -9.24121 -4.55413 -1.43387 
-9.27538 -4.59051 -1.43064 -9.30965 -4.62681 -1.42739 -9.344 -4.66302 -1.42411 
-9.37845 -4.69913 -1.42082 -9.413 -4.73515 -1.41752 -9.44765 -4.77108 -1.41419 
-9.4824 -4.8069 -1.41086 -9.51725 -4.84263 -1.40751 -9.5522 -4.87825 -1.40416 
-9.58726 -4.91377 -1.40079 -9.62243 -4.94918 -1.39742 -9.6577 -4.98448 -1.39404 
-9.69309 -5.01967 -1.39066 -9.72859 -5.05475 -1.38728 -9.7642 -5.08972 -1.3839 
-9.79992 -5.12457 -1.38052 -9.83576 -5.1593 -1.37715 -9.87173 -5.19391 -1.37378 
-9.9078 -5.2284 -1.37042 -9.94401 -5.26277 -1.36707 -9.98033 -5.297 -1.36374 
-10.0168 -5.33112 -1.36042 -10.0533 -5.3651 -1.35713 -10.09 -5.39894 -1.35385 
-10.1268 -5.43266 -1.35061 -10.1638 -5.46624 -1.34739 -10.2009 -5.49968 -1.34421 
-10.238 -5.53298 -1.34106 -10.2754 -5.56614 -1.33794 -10.3128 -5.59916 -1.33487 
-10.3504 -5.63203 -1.33184 -10.3881 -5.66476 -1.32886 -10.426 -5.69733 -1.32593 
-10.464 -5.72976 -1.32305 -10.5021 -5.76203 -1.32023 -10.5404 -5.79415 -1.31746 
-10.5788 -5.82611 -1.31475 -10.6173 -5.85791 -1.31211 -10.656 -5.88955 -1.30954 
-10.6948 -5.92102 -1.30704 -10.7337 -5.95234 -1.30461 -10.7728 -5.98349 -1.30227 
-10.812 -6.01447 -1.30001 -10.8514 -6.04528 -1.29784 -10.8909 -6.07592 -1.29576 
-10.9305 -6.10639 -1.29378 -10.9703 -6.13669 -1.2919 -11.0102 -6.1668 -1.29013 
-11.0503 -6.19675 -1.28847 -11.0904 -6.22651 -1.28692 -11.1308 -6.25609 -1.28549 
-11.1712 -6.28549 -1.28418 -11.2118 -6.31471 -1.283 -11.2526 -6.34374 -1.28195 
-11.2935 -6.37258 -1.28103 -11.3345 -6.40123 -1.28025 -11.3756 -6.42969 -1.27962 
-11.4169 -6.45796 -1.27913 -11.4584 -6.48603 -1.2788 -11.4999 -6.51392 -1.27862 
-11.5416 -6.5416 -1.27862 -11.5834 -6.5691 -1.27878 -11.6254 -6.5964 -1.27913 
-11.6675 -6.6235 -1.27967 -11.7096 -6.65041 -1.28041 -11.752 -6.67712 -1.28134 
-11.7944 -6.70364 -1.28249 -11.8369 -6.72996 -1.28385 -11.8796 -6.75609 -1.28543 
-11.9224 -6.78202 -1.28725 -11.9652 -6.80775 -1.2893 -12.0082 -6.83329 -1.29159 
-12.0513 -6.85862 -1.29414 -12.0945 -6.88376 -1.29694 -12.1378 -6.9087 -1.30001 
-12.1811 -6.93345 -1.30335 -12.2246 -6.95799 -1.30697 -12.2681 -6.98234 -1.31087 
-12.3118 -7.00648 -1.31507 -12.3555 -7.03044 -1.31956 -12.3993 -7.05419 -1.32434 
-12.4432 -7.07776 -1.32943 -12.4871 -7.10115 -1.33483 -12.5311 -7.12435 -1.34053 
-12.5751 -7.14736 -1.34654 -12.6192 -7.1702 -1.35287 -12.6634 -7.19286 -1.35951 
-12.7076 -7.21535 -1.36648 -12.7518 -7.23767 -1.37377 -12.796 -7.25981 -1.3814 
-12.8403 -7.2818 -1.38935 -12.8846 -7.30362 -1.39764 -12.9289 -7.32528 -1.40628 
-12.9732 -7.34678 -1.41525 -13.0175 -7.36813 -1.42457 -13.0618 -7.38932 -1.43424 
-13.1061 -7.41037 -1.44427 -13.1504 -7.43127 -1.45465 -13.1947 -7.45202 -1.46539 
-13.2389 -7.47264 -1.47649 -13.2832 -7.49312 -1.48795 -13.3273 -7.51347 -1.49977 
-13.3715 -7.5337 -1.51195 -13.4156 -7.55381 -1.52449 -13.4596 -7.57381 -1.53738 
-13.5036 -7.5937 -1.55064 -13.5476 -7.61348 -1.56425 -13.5914 -7.63316 -1.57822 
-13.6352 -7.65275 -1.59255 -13.6789 -7.67225 -1.60723 -13.7225 -7.69167 -1.62227 
-13.7661 -7.711 -1.63767 -13.8095 -7.73026 -1.65343 -13.8529 -7.74945 -1.66954 
-13.8961 -7.76857 -1.68601 -13.9392 -7.78764 -1.70283 -13.9822 -7.80665 -1.72001 
-14.0251 -7.82561 -1.73754 -14.0678 -7.84452 -1.75543 -14.1104 -7.86339 -1.77367 
-14.1529 -7.88223 -1.79226 -14.1953 -7.90104 -1.81119 -14.2375 -7.91982 -1.83045 
-14.2795 -7.93859 -1.85004 -14.3215 -7.95734 -1.86995 -14.3632 -7.97608 -1.89019 
-14.4048 -7.99482 -1.91073 -14.4463 -8.01356 -1.93159 -14.4876 -8.0323 -1.95276 
-14.5288 -8.05106 -1.97422 -14.5697 -8.06984 -1.99597 -14.6106 -8.08864 -2.01801 
[...]
CELL_DATA 1
FIELD FieldData 2
Length 1 1 double
63.973106457 
Tortuosity 1 1 double
0.75921212307 
POINT_DATA 1280
SCALARS MaximumInscribedSphereRadius float
LOOKUP_TABLE default
0.9796 0.983576 0.987552 0.991527 0.995503 0.999479 1.00345 1.00743 1.01141 
1.01538 1.01936 1.02333 1.02731 1.03129 1.03526 1.03924 1.04321 1.04719 
1.05077 1.05393 1.05708 1.06024 1.06339 1.06655 1.0697 1.07286 1.07601 
1.07917 1.08232 1.08548 1.08863 1.09179 1.09494 1.09809 1.10125 1.1044 
1.10756 1.11071 1.11387 1.11702 1.12018 1.12333 1.1266 1.13042 1.13425 
1.13808 1.14191 1.14574 1.14957 1.1534 1.15723 1.16105 1.16488 1.16871 
1.17254 1.17637 1.1802 1.18403 1.18785 1.19168 1.19551 1.19871 1.20041 
1.20212 1.20382 1.20553 1.20723 1.20894 1.21064 1.21235 1.21405 1.21576 
1.21746 1.21917 1.22087 1.22258 1.22428 1.22599 1.22769 1.2294 1.2311 
1.23281 1.23333 1.23367 1.23402 1.23436 1.2347 1.23504 1.23538 1.23572 
1.23606 1.2364 1.23674 1.23708 1.23742 1.23776 1.2381 1.23844 1.23878 
1.23912 1.23946 1.2398 1.24106 1.24362 1.24617 1.24873 1.25128 1.25384 
1.25639 1.25895 1.2615 1.26406 1.26661 1.26917 1.27172 1.27428 1.27683 
1.27939 1.28194 1.28449 1.28705 1.2896 1.29282 1.29915 1.30547 1.3118 
1.31812 1.32445 1.33077 1.3371 1.34342 1.34975 1.35607 1.3624 1.36872 
1.37505 1.38137 1.3877 1.39402 1.40035 1.40667 1.413 1.41932 1.42705 
1.43501 1.44298 1.45094 1.4589 1.46686 1.47483 1.48279 1.49075 1.49872 
1.50668 1.51464 1.5226 1.53057 1.53853 1.54649 1.55446 1.56242 1.57038 
1.57834 1.58085 1.5791 1.57735 1.57561 1.57386 1.57211 1.57037 1.56862 
1.56687 1.56513 1.56338 1.56163 1.55988 1.55814 1.55639 1.55464 1.5529 
1.55115 1.5494 1.54766 1.54405 1.53553 1.52702 1.51851 1.51 1.50148 
1.49297 1.48446 1.47594 1.46743 1.45892 1.45041 1.44189 1.43338 1.42487 
1.41635 1.40784 1.39933 1.39082 1.3823 1.37379 1.36397 1.35413 1.3443 
1.33446 1.32462 1.31479 1.30495 1.29511 1.28527 1.27544 1.2656 1.25576 
1.24593 1.23609 1.22625 1.21641 1.20658 1.19674 1.1869 1.17707 1.17106 
1.16671 1.16235 1.158 1.15364 1.14928 1.14493 1.14057 1.13622 1.13186 
1.1275 1.12315 1.11879 1.11444 1.11008 1.10573 1.10137 1.09701 1.09266 
1.0883 1.08468 1.0821 1.07953 1.07695 1.07438 1.07181 1.06923 1.06666 
1.06408 1.06151 1.05894 1.05636 1.05379 1.05121 1.04864 1.04607 1.04349 
1.04092 1.03834 1.03577 1.03327 1.03129 1.02931 1.02733 1.02535 1.02337 
1.02139 1.01941 1.01743 1.01545 1.01347 1.01149 1.00951 1.00753 1.00555 
1.00357 1.00159 0.999608 0.997628 0.995648 0.993668 0.999071 1.00605 1.01304 
1.02002 1.027 1.03399 1.04097 1.04795 1.05494 1.06192 1.0689 1.07589 
1.08287 1.08985 1.09684 1.10382 1.11081 1.11779 1.12477 1.13176 1.13664 
1.13958 1.14252 1.14546 1.1484 1.15134 1.15428 1.15722 1.16016 1.1631 
1.16604 1.16899 1.17193 1.17487 1.17781 1.18075 1.18369 1.18663 1.18957 
1.19251 1.19441 1.19267 1.19093 1.18919 1.18745 1.18571 1.18397 1.18223 
1.18049 1.17875 1.17701 1.17527 1.17353 1.17179 1.17005 1.16831 1.16657 
1.16482 1.16308 1.16134 1.1596 1.15071 1.14117 1.13163 1.12209 1.11256 
1.10302 1.09348 1.08395 1.07441 1.06487 1.05533 1.0458 1.03626 1.02672 
1.01719 1.00765 0.998112 0.988574 0.979037 0.9695 0.968985 0.974144 0.979303 
0.984461 0.98962 0.994779 0.999938 1.0051 1.01026 1.01541 1.02057 1.02573 
1.03089 1.03605 1.04121 1.04637 1.05153 1.05668 1.06184 1.067 1.07381 
1.08417 1.09453 1.10489 1.11525 1.12561 1.13597 1.14633 1.15669 1.16705 
1.17741 1.18777 1.19813 1.20849 1.21885 1.22921 1.23957 1.24993 1.26029 
1.27065 1.28105 1.29359 1.30612 1.31866 1.3312 1.34373 1.35627 1.36881 
1.38134 1.39388 1.40642 1.41895 1.43149 1.44403 1.45656 1.4691 1.48164 
1.49417 1.50671 1.51925 1.53178 1.53597 1.53703 1.53809 1.53915 1.54022 
1.54128 1.54234 1.5434 1.54446 1.54552 1.54658 1.54764 1.5487 1.54976 
1.55083 1.55189 1.55295 1.55401 1.55507 1.55613 1.55704 1.55776 1.55848 
1.5592 1.55992 1.56064 1.56135 1.56207 1.56279 1.56351 1.56423 1.56495 
1.56566 1.56638 1.5671 1.56782 1.56854 1.56926 1.56998 1.57069 1.57124 
1.57072 1.57021 1.56969 1.56918 1.56867 1.56815 1.56764 1.56712 1.56661 
1.5661 1.56558 1.56507 1.56456 1.56404 1.56353 1.56301 1.5625 1.56199 
1.56147 1.56096 1.55667 1.55171 1.54675 1.54179 1.53683 1.53187 1.5269 
1.52194 1.51698 1.51202 1.50706 1.5021 1.49714 1.49218 1.48722 1.48226 
1.4773 1.47234 1.46738 1.46242 1.45722 1.45184 1.44646 1.44108 1.4357 
1.43032 1.42494 1.41956 1.41418 1.4088 1.40342 1.39804 1.39266 1.38728 
1.3819 1.37652 1.37114 1.36576 1.36038 1.355 1.35004 1.34635 1.34266 
1.33897 1.33528 1.33159 1.32789 1.3242 1.32051 1.31682 1.31313 1.30944 
1.30575 1.30206 1.29837 1.29468 1.29099 1.2873 1.2836 1.27991 1.27622 
1.27519 1.27432 1.27344 1.27257 1.2717 1.27082 1.26995 1.26907 1.2682 
1.26732 1.26645 1.26558 1.2647 1.26383 1.26295 1.26208 1.2612 1.26033 
1.25945 1.25858 1.25803 1.25766 1.25729 1.25692 1.25655 1.25619 1.25582 
1.25545 1.25508 1.25471 1.25434 1.25398 1.25361 1.25324 1.25287 1.2525 
1.25213 1.25177 1.2514 1.25103 1.25127 1.25278 1.25429 1.25581 1.25732 
1.25884 1.26035 1.26187 1.26338 1.2649 1.26641 1.26793 1.26944 1.27096 
1.27247 1.27399 1.2755 1.27702 1.27853 1.28005 1.28157 1.28424 1.28692 
1.2896 1.29227 1.29495 1.29763 1.3003 1.30298 1.30566 1.30833 1.31101 
1.31369 1.31636 1.31904 1.32171 1.32439 1.32707 1.32974 1.33242 1.3351 
1.33742 1.33958 1.34175 1.34391 1.34608 1.34824 1.3504 1.35257 1.35473 
1.3569 1.35906 1.36122 1.36339 1.36555 1.36772 1.36988 1.37204 1.37421 
1.37637 1.37854 1.38005 1.38049 1.38092 1.38136 1.3818 1.38224 1.38268 
1.38312 1.38356 1.384 1.38444 1.38487 1.38531 1.38575 1.38619 1.38663 
1.38707 1.38751 1.38795 1.38839 1.38888 1.3904 1.39191 1.39343 1.39495 
1.39646 1.39798 1.39949 1.40101 1.40252 1.40404 1.40555 1.40707 1.40858 
1.4101 1.41162 1.41313 1.41465 1.41616 1.41768 1.41919 1.42237 1.42619 
1.43002 1.43384 1.43767 1.44149 1.44532 1.44914 1.45297 1.45679 1.46062 
1.46444 1.46827 1.47209 1.47591 1.47974 1.48356 1.48739 1.49121 1.49504 
1.50116 1.51098 1.5208 1.53062 1.54044 1.55026 1.56008 1.56989 1.57971 
1.58953 1.59935 1.60917 1.61899 1.62881 1.63863 1.64845 1.65827 1.66809 
1.67791 1.68773 1.69747 1.70333 1.7092 1.71506 1.72093 1.72679 1.73266 
1.73852 1.74439 1.75025 1.75612 1.76198 1.76785 1.77371 1.77957 1.78544 
1.7913 1.79717 1.80303 1.8089 1.81476 1.81841 1.82114 1.82387 1.8266 
1.82932 1.83205 1.83478 1.83751 1.84023 1.84296 1.84569 1.84842 1.85114 
1.85387 1.8566 1.85933 1.86205 1.86478 1.86751 1.87024 1.87215 1.87263 
1.87311 1.87359 1.87407 1.87454 1.87502 1.8755 1.87598 1.87646 1.87694 
1.87741 1.87789 1.87837 1.87885 1.87933 1.87981 1.88028 1.88076 1.88124 
1.88194 1.88598 1.89002 1.89406 1.8981 1.90214 1.90619 1.91023 1.91427 
1.91831 1.92235 1.92639 1.93043 1.93447 1.93852 1.94256 1.9466 1.95064 
1.95468 1.95872 1.96276 1.96751 1.97247 1.97743 1.98239 1.98735 1.99231 
1.99727 2.00223 2.00719 2.01215 2.01711 2.02207 2.02704 2.032 2.03696 
2.04192 2.04688 2.05184 2.0568 2.06176 2.06673 2.0717 2.07668 2.08166 
2.08663 2.09161 2.09659 2.10156 2.10654 2.11152 2.11649 2.12147 2.12645 
2.13142 2.1364 2.14138 2.14635 2.15133 2.15631 2.16128 2.16433 2.15888 
2.15344 2.14799 2.14254 2.13709 2.13164 2.12619 2.12074 2.11529 2.10984 
2.10439 2.09895 2.0935 2.08805 2.0826 2.07715 2.0717 2.06625 2.0608 
2.05535 2.05043 2.04558 2.04073 2.03587 2.03102 2.02616 2.02131 2.01646 
2.0116 2.00675 2.0019 1.99704 1.99219 1.98734 1.98248 1.97763 1.97278 
1.96792 1.96307 1.95822 1.95415 1.95063 1.94711 1.94359 1.94008 1.93656 
1.93304 1.92952 1.926 1.92248 1.91896 1.91544 1.91192 1.90841 1.90489 
1.90137 1.89785 1.89433 1.89081 1.88729 1.8848 1.8848 1.8848 1.8848 
1.8848 1.8848 1.8848 1.8848 1.8848 1.8848 1.8848 1.8848 1.8848 
1.8848 1.8848 1.8848 1.8848 1.8848 1.8848 1.8848 1.8848 1.88605 
1.8873 1.88855 1.8898 1.89105 1.8923 1.89355 1.8948 1.89606 1.89731 
1.89856 1.89981 1.90106 1.90231 1.90356 1.90481 1.90606 1.90731 1.90857 
1.90982 1.91234 1.91539 1.91844 1.92149 1.92454 1.92759 1.93064 1.93369 
1.93674 1.93979 1.94284 1.94589 1.94894 1.95199 1.95504 1.95809 1.96113 
1.96418 1.96723 1.97028 1.97423 1.9794 1.98458 1.98975 1.99493 2.0001 
2.00528 2.01045 2.01563 2.0208 2.02598 2.03115 2.03633 2.0415 2.04668 
2.05186 2.05703 2.06221 2.06738 2.07256 2.07718 2.07824 2.0793 2.08036 
2.08142 2.08248 2.08354 2.0846 2.08566 2.08672 2.08778 2.08884 2.0899 
2.09096 2.09202 2.09308 2.09413 2.09519 2.09625 2.09731 2.09837 2.09587 
2.0927 2.08953 2.08636 2.08319 2.08002 2.07685 2.07367 2.0705 2.06733 
2.06416 2.06099 2.05782 2.05465 2.05148 2.04831 2.04514 2.04197 2.0388 
2.03563 2.03058 2.02402 2.01746 2.0109 2.00434 1.99778 1.99122 1.98466 
1.9781 1.97154 1.96498 1.95841 1.95185 1.94529 1.93873 1.93217 1.92561 
1.91905 1.91249 1.90593 1.8987 1.88961 1.88052 1.87142 1.86233 1.85324 
1.84415 1.83505 1.82596 1.81687 1.80777 1.79868 1.78959 1.78049 1.7714 
1.76231 1.75322 1.74412 1.73503 1.72594 1.71684 1.70567 1.69443 1.6832 
1.67196 1.66073 1.64949 1.63826 1.62702 1.61579 1.60456 1.59332 1.58209 
1.57085 1.55962 1.54838 1.53715 1.52591 1.51468 1.50344 1.49221 1.48282 
1.47429 1.46576 1.45723 1.44871 1.44018 1.43165 1.42312 1.41459 1.40606 
1.39753 1.389 1.38047 1.37195 1.36342 1.35489 1.34636 1.33783 1.3293 
1.32077 1.31416 1.31043 1.3067 1.30297 1.29925 1.29552 1.29179 1.28806 
1.28433 1.2806 1.27688 1.27315 1.26942 1.26569 1.26196 1.25823 1.25451 
1.25078 1.24705 1.24332 1.24 1.24 1.24 1.24 1.24 1.24 
1.24 1.24 1.24 1.24 1.24 1.24 1.24 1.24 1.24 
1.24 1.24 1.24 1.24 1.24 1.24 1.24 1.24 1.24 
1.24 1.24 1.24 1.24 1.24 1.24 1.24 1.24 1.24 
1.24 1.24 1.24 1.24 1.24 1.24 1.24 1.24 1.24 
1.24 1.24 1.24 1.24 1.24 1.24 1.24 1.24 1.24 
1.24 1.24 1.24 1.24 1.24 1.24 1.24 1.24 1.24 
1.24 1.24 1.24 1.24 1.24 1.24 1.24 1.24 1.24 
1.24 1.24 1.24 1.24 1.24 1.24 1.24 1.24 1.24 
1.24 1.24 1.24 1.24 1.24 1.24 1.24 1.24 1.24 
1.24 1.24 1.24 1.24 1.24 1.24 1.24 1.24 1.24 
1.24 1.24 1.24 1.24 1.24 1.24 1.24 1.24 1.24 
1.24 1.24 1.24 1.24 1.24 1.24 1.24 1.24 1.24 
1.24 1.24 1.24 1.24 1.24 1.24 1.24 1.24 1.24 
1.24 1.24 1.24 1.24 1.24 1.24 1.24 1.24 1.24 
1.24 1.24 1.24 1.24 1.24 1.24 1.24 1.24 1.24 
1.24 1.24 
TEXTURE_COORDINATES TCoords 2 float
0 0 0.000781861 0 0.00156372 0 0.00234558 0 0.00312744 
0 0.0039093 0 0.00469116 0 0.00547303 0 0.00625489 0 
0.00703675 0 0.00781861 0 0.00860047 0 0.00938233 0 0.0101642 
0 0.0109461 0 0.0117279 0 0.0125098 0 0.0132916 0 
0.0140735 0 0.0148554 0 0.0156372 0 0.0164191 0 0.0172009 
0 0.0179828 0 0.0187647 0 0.0195465 0 0.0203284 0 
0.0211102 0 0.0218921 0 0.022674 0 0.0234558 0 0.0242377 
0 0.0250195 0 0.0258014 0 0.0265833 0 0.0273651 0 
0.028147 0 0.0289288 0 0.0297107 0 0.0304926 0 0.0312744 
0 0.0320563 0 0.0328382 0 0.03362 0 0.0344019 0 
0.0351837 0 0.0359656 0 0.0367475 0 0.0375293 0 0.0383112 
0 0.039093 0 0.0398749 0 0.0406568 0 0.0414386 0 
0.0422205 0 0.0430023 0 0.0437842 0 0.0445661 0 0.0453479 
0 0.0461298 0 0.0469116 0 0.0476935 0 0.0484754 0 
0.0492572 0 0.0500391 0 0.050821 0 0.0516028 0 0.0523847 
0 0.0531665 0 0.0539484 0 0.0547303 0 0.0555121 0 
0.056294 0 0.0570758 0 0.0578577 0 0.0586396 0 0.0594214 
0 0.0602033 0 0.0609851 0 0.061767 0 0.0625489 0 
0.0633307 0 0.0641126 0 0.0648944 0 0.0656763 0 0.0664582 
0 0.06724 0 0.0680219 0 0.0688037 0 0.0695856 0 
0.0703675 0 0.0711493 0 0.0719312 0 0.0727131 0 0.0734949 
0 0.0742768 0 0.0750586 0 0.0758405 0 0.0766224 0 
0.0774042 0 0.0781861 0 0.0789679 0 0.0797498 0 0.0805317 
0 0.0813135 0 0.0820954 0 0.0828772 0 0.0836591 0 
0.084441 0 0.0852228 0 0.0860047 0 0.0867866 0 0.0875684 
0 0.0883503 0 0.0891321 0 0.089914 0 0.0906959 0 
0.0914777 0 0.0922596 0 0.0930414 0 0.0938233 0 0.0946052 
0 0.095387 0 0.0961689 0 0.0969507 0 0.0977326 0 
0.0985145 0 0.0992963 0 0.100078 0 0.10086 0 0.101642 
0 0.102424 0 0.103206 0 0.103987 0 0.104769 0 
0.105551 0 0.106333 0 0.107115 0 0.107897 0 0.108679 
0 0.109461 0 0.110242 0 0.111024 0 0.111806 0 
0.112588 0 0.11337 0 0.114152 0 0.114934 0 0.115715 
0 0.116497 0 0.117279 0 0.118061 0 0.118843 0 
0.119625 0 0.120407 0 0.121188 0 0.12197 0 0.122752 
0 0.123534 0 0.124316 0 0.125098 0 0.12588 0 
0.126661 0 0.127443 0 0.128225 0 0.129007 0 0.129789 
0 0.130571 0 0.131353 0 0.132134 0 0.132916 0 
0.133698 0 0.13448 0 0.135262 0 0.136044 0 0.136826 
0 0.137607 0 0.138389 0 0.139171 0 0.139953 0 
0.140735 0 0.141517 0 0.142299 0 0.143081 0 0.143862 
0 0.144644 0 0.145426 0 0.146208 0 0.14699 0 
0.147772 0 0.148554 0 0.149335 0 0.150117 0 0.150899 
0 0.151681 0 0.152463 0 0.153245 0 0.154027 0 
0.154808 0 0.15559 0 0.156372 0 0.157154 0 0.157936 
0 0.158718 0 0.1595 0 0.160281 0 0.161063 0 
0.161845 0 0.162627 0 0.163409 0 0.164191 0 0.164973 
0 0.165754 0 0.166536 0 0.167318 0 0.1681 0 
0.168882 0 0.169664 0 0.170446 0 0.171228 0 0.172009 
0 0.172791 0 0.173573 0 0.174355 0 0.175137 0 
0.175919 0 0.176701 0 0.177482 0 0.178264 0 0.179046 
0 0.179828 0 0.18061 0 0.181392 0 0.182174 0 
0.182955 0 0.183737 0 0.184519 0 0.185301 0 0.186083 
0 0.186865 0 0.187647 0 0.188428 0 0.18921 0 
0.189992 0 0.190774 0 0.191556 0 0.192338 0 0.19312 
0 0.193901 0 0.194683 0 0.195465 0 0.196247 0 
0.197029 0 0.197811 0 0.198593 0 0.199375 0 0.200156 
0 0.200938 0 0.20172 0 0.202502 0 0.203284 0 
0.204066 0 0.204848 0 0.205629 0 0.206411 0 0.207193 
0 0.207975 0 0.208757 0 0.209539 0 0.210321 0 
0.211102 0 0.211884 0 0.212666 0 0.213448 0 0.21423 
0 0.215012 0 0.215794 0 0.216575 0 0.217357 0 
0.218139 0 0.218921 0 0.219703 0 0.220485 0 0.221267 
0 0.222048 0 0.22283 0 0.223612 0 0.224394 0 
0.225176 0 0.225958 0 0.22674 0 0.227521 0 0.228303 
0 0.229085 0 0.229867 0 0.230649 0 0.231431 0 
0.232213 0 0.232995 0 0.233776 0 0.234558 0 0.23534 
0 0.236122 0 0.236904 0 0.237686 0 0.238468 0 
0.239249 0 0.240031 0 0.240813 0 0.241595 0 0.242377 
0 0.243159 0 0.243941 0 0.244722 0 0.245504 0 
0.246286 0 0.247068 0 0.24785 0 0.248632 0 0.249414 
0 0.250195 0 0.250977 0 0.251759 0 0.252541 0 
0.253323 0 0.254105 0 0.254887 0 0.255668 0 0.25645 
0 0.257232 0 0.258014 0 0.258796 0 0.259578 0 
0.26036 0 0.261142 0 0.261923 0 0.262705 0 0.263487 
0 0.264269 0 0.265051 0 0.265833 0 0.266615 0 
0.267396 0 0.268178 0 0.26896 0 0.269742 0 0.270524 
0 0.271306 0 0.272088 0 0.272869 0 0.273651 0 
0.274433 0 0.275215 0 0.275997 0 0.276779 0 0.277561 
0 0.278342 0 0.279124 0 0.279906 0 0.280688 0 
0.28147 0 0.282252 0 0.283034 0 0.283815 0 0.284597 
0 0.285379 0 0.286161 0 0.286943 0 0.287725 0 
0.288507 0 0.289289 0 0.29007 0 0.290852 0 0.291634 
0 0.292416 0 0.293198 0 0.29398 0 0.294762 0 
0.295543 0 0.296325 0 0.297107 0 0.297889 0 0.298671 
0 0.299453 0 0.300235 0 0.301016 0 0.301798 0 
0.30258 0 0.303362 0 0.304144 0 0.304926 0 0.305708 
0 0.306489 0 0.307271 0 0.308053 0 0.308835 0 
0.309617 0 0.310399 0 0.311181 0 0.311962 0 0.312744 
0 0.313526 0 0.314308 0 0.31509 0 0.315872 0 
0.316654 0 0.317436 0 0.318217 0 0.318999 0 0.319781 
0 0.320563 0 0.321345 0 0.322127 0 0.322909 0 
0.32369 0 0.324472 0 0.325254 0 0.326036 0 0.326818 
0 0.3276 0 0.328382 0 0.329163 0 0.329945 0 
0.330727 0 0.331509 0 0.332291 0 0.333073 0 0.333855 
0 0.334636 0 0.335418 0 0.3362 0 0.336982 0 
0.337764 0 0.338546 0 0.339328 0 0.340109 0 0.340891 
0 0.341673 0 0.342455 0 0.343237 0 0.344019 0 
0.344801 0 0.345582 0 0.346364 0 0.347146 0 0.347928 
0 0.34871 0 0.349492 0 0.350274 0 0.351056 0 
0.351837 0 0.352619 0 0.353401 0 0.354183 0 0.354965 
0 0.355747 0 0.356529 0 0.35731 0 0.358092 0 
0.358874 0 0.359656 0 0.360438 0 0.36122 0 0.362002 
0 0.362783 0 0.363565 0 0.364347 0 0.365129 0 
0.365911 0 0.366693 0 0.367475 0 0.368256 0 0.369038 
0 0.36982 0 0.370602 0 0.371384 0 0.372166 0 
0.372948 0 0.373729 0 0.374511 0 0.375293 0 0.376075 
0 0.376857 0 0.377639 0 0.378421 0 0.379203 0 
0.379984 0 0.380766 0 0.381548 0 0.38233 0 0.383112 
0 0.383894 0 0.384676 0 0.385457 0 0.386239 0 
0.387021 0 0.387803 0 0.388585 0 0.389367 0 0.390149 
0 0.39093 0 0.391712 0 0.392494 0 0.393276 0 
0.394058 0 0.39484 0 0.395622 0 0.396403 0 0.397185 
0 0.397967 0 0.398749 0 0.399531 0 0.400313 0 
0.401095 0 0.401876 0 0.402658 0 0.40344 0 0.404222 
0 0.405004 0 0.405786 0 0.406568 0 0.407349 0 
0.408131 0 0.408913 0 0.409695 0 0.410477 0 0.411259 
0 0.412041 0 0.412823 0 0.413604 0 0.414386 0 
0.415168 0 0.41595 0 0.416732 0 0.417514 0 0.418296 
0 0.419077 0 0.419859 0 0.420641 0 0.421423 0 
0.422205 0 0.422987 0 0.423769 0 0.42455 0 0.425332 
0 0.426114 0 0.426896 0 0.427678 0 0.42846 0 
0.429242 0 0.430023 0 0.430805 0 0.431587 0 0.432369 
0 0.433151 0 0.433933 0 0.434715 0 0.435496 0 
0.436278 0 0.43706 0 0.437842 0 0.438624 0 0.439406 
0 0.440188 0 0.440969 0 0.441751 0 0.442533 0 
0.443315 0 0.444097 0 0.444879 0 0.445661 0 0.446443 
0 0.447224 0 0.448006 0 0.448788 0 0.44957 0 
0.450352 0 0.451134 0 0.451916 0 0.452697 0 0.453479 
0 0.454261 0 0.455043 0 0.455825 0 0.456607 0 
0.457389 0 0.45817 0 0.458952 0 0.459734 0 0.460516 
0 0.461298 0 0.46208 0 0.462862 0 0.463643 0 
0.464425 0 0.465207 0 0.465989 0 0.466771 0 0.467553 
0 0.468335 0 0.469117 0 0.469898 0 0.47068 0 
0.471462 0 0.472244 0 0.473026 0 0.473808 0 0.47459 
0 0.475371 0 0.476153 0 0.476935 0 0.477717 0 
0.478499 0 0.479281 0 0.480063 0 0.480844 0 0.481626 
0 0.482408 0 0.48319 0 0.483972 0 0.484754 0 
0.485536 0 0.486317 0 0.487099 0 0.487881 0 0.488663 
0 0.489445 0 0.490227 0 0.491009 0 0.49179 0 
0.492572 0 0.493354 0 0.494136 0 0.494918 0 0.4957 
0 0.496482 0 0.497263 0 0.498045 0 0.498827 0 
0.499609 0 0.500391 0 0.501173 0 0.501955 0 0.502737 
0 0.503518 0 0.5043 0 0.505082 0 0.505864 0 
0.506646 0 0.507428 0 0.50821 0 0.508991 0 0.509773 
0 0.510555 0 0.511337 0 0.512119 0 0.512901 0 
0.513683 0 0.514464 0 0.515246 0 0.516028 0 0.51681 
0 0.517592 0 0.518374 0 0.519156 0 0.519937 0 
0.520719 0 0.521501 0 0.522283 0 0.523065 0 0.523847 
0 0.524629 0 0.52541 0 0.526192 0 0.526974 0 
0.527756 0 0.528538 0 0.52932 0 0.530102 0 0.530883 
0 0.531665 0 0.532447 0 0.533229 0 0.534011 0 
0.534793 0 0.535575 0 0.536357 0 0.537138 0 0.53792 
0 0.538702 0 0.539484 0 0.540266 0 0.541048 0 
0.54183 0 0.542611 0 0.543393 0 0.544175 0 0.544957 
0 0.545739 0 0.546521 0 0.547303 0 0.548084 0 
0.548866 0 0.549648 0 0.55043 0 0.551212 0 0.551994 
0 0.552776 0 0.553557 0 0.554339 0 0.555121 0 
0.555903 0 0.556685 0 0.557467 0 0.558249 0 0.55903 
0 0.559812 0 0.560594 0 0.561376 0 0.562158 0 
0.56294 0 0.563722 0 0.564503 0 0.565285 0 0.566067 
0 0.566849 0 0.567631 0 0.568413 0 0.569195 0 
0.569977 0 0.570758 0 0.57154 0 0.572322 0 0.573104 
0 0.573886 0 0.574668 0 0.57545 0 0.576231 0 
0.577013 0 0.577795 0 0.578577 0 0.579359 0 0.580141 
0 0.580923 0 0.581704 0 0.582486 0 0.583268 0 
0.58405 0 0.584832 0 0.585614 0 0.586396 0 0.587177 
0 0.587959 0 0.588741 0 0.589523 0 0.590305 0 
0.591087 0 0.591869 0 0.592651 0 0.593432 0 0.594214 
0 0.594996 0 0.595778 0 0.59656 0 0.597342 0 
0.598124 0 0.598905 0 0.599687 0 0.600469 0 0.601251 
0 0.602033 0 0.602815 0 0.603597 0 0.604378 0 
0.60516 0 0.605942 0 0.606724 0 0.607506 0 0.608288 
0 0.60907 0 0.609851 0 0.610633 0 0.611415 0 
0.612197 0 0.612979 0 0.613761 0 0.614543 0 0.615324 
0 0.616106 0 0.616888 0 0.61767 0 0.618452 0 
0.619234 0 0.620016 0 0.620798 0 0.621579 0 0.622361 
0 0.623143 0 0.623925 0 0.624707 0 0.625489 0 
0.626271 0 0.627052 0 0.627834 0 0.628616 0 0.629398 
0 0.63018 0 0.630962 0 0.631744 0 0.632525 0 
0.633307 0 0.634089 0 0.634871 0 0.635653 0 0.636435 
0 0.637217 0 0.637998 0 0.63878 0 0.639562 0 
0.640344 0 0.641126 0 0.641908 0 0.64269 0 0.643471 
0 0.644253 0 0.645035 0 0.645817 0 0.646599 0 
0.647381 0 0.648163 0 0.648944 0 0.649726 0 0.650508 
0 0.65129 0 0.652072 0 0.652854 0 0.653636 0 
0.654418 0 0.655199 0 0.655981 0 0.656763 0 0.657545 
0 0.658327 0 0.659109 0 0.659891 0 0.660672 0 
0.661454 0 0.662236 0 0.663018 0 0.6638 0 0.664582 
0 0.665364 0 0.666145 0 0.666927 0 0.667709 0 
0.668491 0 0.669273 0 0.670055 0 0.670837 0 0.671618 
0 0.6724 0 0.673182 0 0.673964 0 0.674746 0 
0.675528 0 0.67631 0 0.677091 0 0.677873 0 0.678655 
0 0.679437 0 0.680219 0 0.681001 0 0.681783 0 
0.682564 0 0.683346 0 0.684128 0 0.68491 0 0.685692 
0 0.686474 0 0.687256 0 0.688038 0 0.688819 0 