# vtk DataFile Version 4.2
vtk output
ASCII
DATASET POLYDATA
POINTS 1275 float
0 0 0 -0.0028777 -0.000967853 0.00297219 -0.0112975 -0.00378167 0.0115888 
-0.0249396 -0.00830683 0.0253997 -0.043484 -0.0144087 0.043955 -0.066611 -0.0219527 0.0668047 
-0.0940005 -0.0308042 0.0934987 -0.125333 -0.0408286 0.123587 -0.160288 -0.0518912 0.15662 
-0.198546 -0.0638575 0.192147 -0.239787 -0.0765928 0.229718 -0.283691 -0.0899625 0.268883 
-0.329938 -0.103832 0.309193 -0.378209 -0.118067 0.350197 -0.428184 -0.132532 0.391446 
-0.479542 -0.147093 0.432488 -0.531963 -0.161616 0.472875 -0.585129 -0.175965 0.512156 
-0.638718 -0.190006 0.549881 -0.692412 -0.203605 0.585601 -0.74589 -0.216627 0.618864 
-0.798836 -0.228938 0.649228 -0.851086 -0.240479 0.676493 -0.902676 -0.251283 0.700782 
-0.953656 -0.261389 0.722237 -1.00407 -0.270838 0.741003 -1.05398 -0.279669 0.757224 
-1.10342 -0.287922 0.771043 -1.15245 -0.295637 0.782603 -1.20112 -0.302854 0.792049 
-1.24947 -0.309614 0.799525 -1.29755 -0.315955 0.805174 -1.34542 -0.321917 0.809139 
-1.39312 -0.327541 0.811565 -1.4407 -0.332867 0.812595 -1.48822 -0.337934 0.812374 
-1.53571 -0.342782 0.811044 -1.58323 -0.347451 0.808749 -1.63084 -0.351981 0.805634 
-1.67857 -0.356412 0.801841 -1.72648 -0.360783 0.797515 -1.77461 -0.365135 0.792796 
-1.82298 -0.369484 0.787751 -1.87157 -0.37383 0.782381 -1.92035 -0.378172 0.776686 
-1.96931 -0.382508 0.770664 -2.01842 -0.386838 0.764314 -2.06766 -0.39116 0.757636 
-2.117 -0.395472 0.750628 -2.16644 -0.399774 0.743289 -2.21594 -0.404064 0.735618 
-2.26548 -0.408341 0.727615 -2.31505 -0.412603 0.719278 -2.36462 -0.41685 0.710606 
-2.41416 -0.42108 0.701598 -2.46367 -0.425291 0.692253 -2.51311 -0.429483 0.68257 
-2.56246 -0.433654 0.672549 -2.61171 -0.437803 0.662187 -2.66083 -0.441928 0.651484 
-2.7098 -0.446029 0.64044 -2.7586 -0.450103 0.629052 -2.80722 -0.454155 0.61733 
-2.85567 -0.458196 0.605299 -2.90398 -0.462238 0.592984 -2.95215 -0.466292 0.580413 
-3.00021 -0.470372 0.567612 -3.04818 -0.474488 0.554608 -3.09607 -0.478654 0.541426 
-3.14389 -0.482881 0.528094 -3.19167 -0.487181 0.514638 -3.23942 -0.491567 0.501085 
-3.28716 -0.496051 0.48746 -3.33491 -0.500644 0.473791 -3.38268 -0.505359 0.460105 
-3.43049 -0.510208 0.446426 -3.47836 -0.515202 0.432783 -3.52631 -0.520355 0.419202 
-3.57435 -0.525679 0.405708 -3.62249 -0.531184 0.39233 -3.67077 -0.536884 0.379092 
-3.71918 -0.54279 0.366022 -3.76775 -0.548916 0.353153 -3.81646 -0.555282 0.340546 
-3.86529 -0.561907 0.328268 -3.91422 -0.568813 0.316386 -3.96322 -0.576021 0.304968 
-4.01227 -0.583549 0.294081 -4.06135 -0.591421 0.283793 -4.11045 -0.599655 0.27417 
-4.15953 -0.608273 0.265281 -4.20858 -0.617295 0.257191 -4.25758 -0.626742 0.24997 
-4.3065 -0.636635 0.243683 -4.35533 -0.646994 0.238399 -4.40404 -0.657839 0.234184 
-4.4526 -0.669192 0.231107 -4.50101 -0.681073 0.229234 -4.54924 -0.693502 0.228632 
-4.59726 -0.706501 0.229369 -4.64505 -0.72009 0.231513 -4.6926 -0.734289 0.23513 
-4.73988 -0.749115 0.24028 -4.78687 -0.764554 0.246955 -4.83353 -0.780575 0.255115 
-4.87984 -0.797149 0.264721 -4.92578 -0.814247 0.275734 -4.9713 -0.831838 0.288115 
-5.0164 -0.849893 0.301823 -5.06102 -0.868382 0.316821 -5.10516 -0.887275 0.333067 
-5.14878 -0.906543 0.350524 -5.19185 -0.926156 0.369152 -5.23435 -0.946084 0.38891 
-5.27624 -0.966298 0.409761 -5.3175 -0.986768 0.431664 -5.3581 -1.00746 0.45458 
-5.39801 -1.02836 0.47847 -5.43721 -1.04941 0.503294 -5.47566 -1.07061 0.529013 
-5.51335 -1.09191 0.555588 -5.55023 -1.11329 0.58298 -5.58629 -1.13472 0.611148 
-5.62154 -1.15619 0.640055 -5.65602 -1.17769 0.669664 -5.68978 -1.19922 0.699936 
-5.72284 -1.22079 0.730835 -5.75526 -1.24238 0.762322 -5.78708 -1.26399 0.794361 
-5.81833 -1.28563 0.826913 -5.84905 -1.30729 0.859942 -5.87928 -1.32897 0.893409 
-5.90907 -1.35066 0.927277 -5.93845 -1.37236 0.961509 -5.96747 -1.39407 0.996067 
-5.99616 -1.4158 1.03091 -6.02457 -1.43752 1.06601 -6.05273 -1.45925 1.10132 
-6.08069 -1.48098 1.13681 -6.10848 -1.50271 1.17243 -6.13615 -1.52443 1.20816 
-6.16374 -1.54615 1.24395 -6.19128 -1.56785 1.27976 -6.21881 -1.58955 1.31558 
-6.24632 -1.61124 1.35139 -6.27384 -1.63293 1.38718 -6.30137 -1.65462 1.42294 
-6.32893 -1.67633 1.45866 -6.35651 -1.69804 1.49434 -6.38413 -1.71976 1.52996 
-6.41181 -1.74151 1.56552 -6.43954 -1.76327 1.601 -6.46734 -1.78507 1.6364 
-6.49522 -1.8069 1.67171 -6.52318 -1.82876 1.70691 -6.55125 -1.85066 1.742 
-6.57941 -1.8726 1.77697 -6.6077 -1.89459 1.81181 -6.63611 -1.91663 1.84651 
-6.66465 -1.93873 1.88107 -6.69334 -1.96089 1.91546 -6.72218 -1.98311 1.94968 
-6.75118 -2.00539 1.98373 -6.78035 -2.02775 2.01759 -6.80972 -2.05019 2.05124 
-6.83928 -2.07272 2.08466 -6.86905 -2.09535 2.11782 -6.89905 -2.11809 2.15071 
-6.92928 -2.14094 2.18331 -6.95977 -2.16392 2.21559 -6.99052 -2.18703 2.24753 
-7.02155 -2.21029 2.27911 -7.05287 -2.23369 2.3103 -7.08449 -2.25726 2.3411 
-7.11644 -2.281 2.37147 -7.14871 -2.30491 2.40139 -7.18132 -2.32902 2.43084 
-7.2143 -2.35332 2.4598 -7.24764 -2.37782 2.48826 -7.28136 -2.40254 2.51618 
-7.31549 -2.42748 2.54354 -7.35002 -2.45265 2.57033 -7.38497 -2.47806 2.59652 
-7.42035 -2.50372 2.62209 -7.45615 -2.52964 2.64699 -7.49233 -2.55584 2.67117 
-7.52886 -2.58231 2.69457 -7.56571 -2.60908 2.71713 -7.60286 -2.63616 2.73882 
-7.64028 -2.66355 2.75956 -7.67792 -2.69127 2.77931 -7.71578 -2.71934 2.79801 
-7.75381 -2.74775 2.8156 -7.79198 -2.77652 2.83205 -7.83028 -2.80567 2.84728 
-7.86866 -2.83521 2.86124 -7.9071 -2.86514 2.87389 -7.94557 -2.89548 2.88516 
-7.98404 -2.92624 2.89501 -8.02248 -2.95743 2.90337 -8.06086 -2.98906 2.9102 
-8.09915 -3.02115 2.91544 -8.13733 -3.0537 2.91903 -8.17535 -3.08672 2.92094 
-8.21317 -3.12021 2.92115 -8.25073 -3.15413 2.9197 -8.28796 -3.18847 2.91662 
-8.3248 -3.22319 2.91195 -8.36118 -3.25827 2.90572 -8.39705 -3.29368 2.89795 
-8.43233 -3.32941 2.88868 -8.46696 -3.36542 2.87795 -8.50088 -3.40169 2.86578 
-8.53403 -3.43819 2.8522 -8.56635 -3.4749 2.83726 -8.59776 -3.5118 2.82097 
-8.62821 -3.54885 2.80338 -8.65763 -3.58603 2.78451 -8.68595 -3.62332 2.7644 
-8.71313 -3.6607 2.74308 -8.73908 -3.69813 2.72057 -8.76375 -3.73559 2.69692 
-8.78707 -3.77306 2.67215 -8.80899 -3.81051 2.6463 -8.8295 -3.84792 2.61941 
-8.84861 -3.88528 2.59153 -8.86636 -3.92257 2.5627 -8.88276 -3.95979 2.53298 
-8.89785 -3.99691 2.5024 -8.91164 -4.03392 2.47103 -8.92415 -4.07081 2.43891 
-8.93542 -4.10756 2.40609 -8.94545 -4.14416 2.37261 -8.95429 -4.18059 2.33853 
-8.96195 -4.21685 2.30389 -8.96845 -4.25291 2.26875 -8.97383 -4.28876 2.23314 
-8.97809 -4.32439 2.19712 -8.98127 -4.35979 2.16073 -8.98339 -4.39493 2.12403 
-8.98447 -4.42981 2.08707 -8.98453 -4.4644 2.04988 -8.98361 -4.49871 2.01253 
-8.98172 -4.5327 1.97505 -8.97889 -4.56639 1.93748 -8.97513 -4.59976 1.89981 
-8.97049 -4.63282 1.86206 -8.96497 -4.66557 1.82424 -8.95862 -4.69801 1.78635 
-8.95144 -4.73015 1.74839 -8.94346 -4.76198 1.71037 -8.93471 -4.79351 1.6723 
-8.92522 -4.82474 1.63419 -8.915 -4.85566 1.59603 -8.90409 -4.88629 1.55785 
-8.8925 -4.91663 1.51964 -8.88027 -4.94667 1.4814 -8.8674 -4.97641 1.44316 
-8.85394 -5.00586 1.40491 -8.83991 -5.03503 1.36665 -8.82532 -5.0639 1.32841 
-8.8102 -5.09249 1.29017 -8.79459 -5.12079 1.25195 -8.77849 -5.14881 1.21376 
-8.76194 -5.17654 1.1756 -8.74494 -5.204 1.13746 -8.72751 -5.2312 1.09934 
-8.70965 -5.25813 1.06125 -8.69138 -5.2848 1.02318 -8.6727 -5.31123 0.985134 
-8.65363 -5.33741 0.947102 -8.63418 -5.36336 0.909086 -8.61436 -5.38908 0.871084 
-8.59418 -5.41457 0.833094 -8.57365 -5.43985 0.795115 -8.55278 -5.46491 0.757145 
-8.53159 -5.48977 0.719182 -8.51007 -5.51443 0.681224 -8.48826 -5.5389 0.64327 
-8.46614 -5.56318 0.605317 -8.44374 -5.58729 0.567364 -8.42107 -5.61122 0.52941 
-8.39814 -5.63498 0.491451 -8.37495 -5.65858 0.453487 -8.35153 -5.68203 0.415518 
-8.32787 -5.70533 0.377554 -8.304 -5.72849 0.339607 -8.27993 -5.75151 0.301688 
-8.25567 -5.77439 0.263809 -8.23124 -5.79715 0.225981 -8.20664 -5.81978 0.188217 
-8.1819 -5.84229 0.150527 -8.15702 -5.86469 0.112925 -8.13202 -5.88698 0.075421 
-8.10691 -5.90916 0.0380273 -8.08171 -5.93125 0.000755472 -8.05642 -5.95324 -0.0363827 
-8.03106 -5.97514 -0.0733755 -8.00565 -5.99696 -0.110211 -7.9802 -6.0187 -0.146878 
-7.95471 -6.04037 -0.183365 -7.92921 -6.06197 -0.219659 -7.90371 -6.0835 -0.25575 
-7.87822 -6.10498 -0.291624 -7.85275 -6.1264 -0.327275 -7.82729 -6.14779 -0.36272 
-7.80183 -6.16918 -0.397994 -7.77633 -6.1906 -0.43313 -7.75079 -6.21207 -0.468161 
-7.72518 -6.23363 -0.503123 -7.69948 -6.25529 -0.538047 -7.67368 -6.2771 -0.572969 
-7.64775 -6.29908 -0.607921 -7.62167 -6.32126 -0.642938 -7.59542 -6.34367 -0.678053 
-7.56899 -6.36633 -0.713301 -7.54234 -6.38927 -0.748714 -7.51547 -6.41253 -0.784327 
-7.48835 -6.43614 -0.820172 -7.46097 -6.46011 -0.856285 -7.4333 -6.48449 -0.892699 
-7.40531 -6.50929 -0.929447 -7.37701 -6.53455 -0.966564 -7.34835 -6.5603 -1.00408 
-7.31933 -6.58656 -1.04203 -7.28999 -6.61337 -1.08031 -7.26043 -6.64074 -1.1187 
-7.23077 -6.66872 -1.15697 -7.20112 -6.69733 -1.19489 -7.17159 -6.72659 -1.23222 
-7.14229 -6.75655 -1.26874 -7.11332 -6.78721 -1.30422 -7.0848 -6.81862 -1.33843 
-7.05684 -6.8508 -1.37113 -7.02955 -6.88378 -1.4021 -7.00303 -6.91758 -1.43111 
-6.9774 -6.95225 -1.45793 -6.95277 -6.98779 -1.48232 -6.92925 -7.02425 -1.50406 
-6.90695 -7.06166 -1.52292 -6.88598 -7.10003 -1.53867 -6.86644 -7.1394 -1.55107 
-6.84846 -7.1798 -1.5599 -6.83213 -7.22126 -1.56493 -6.81757 -7.26379 -1.56593 
-6.80481 -7.30734 -1.56287 -6.79381 -7.35173 -1.55596 -6.78453 -7.39679 -1.54538 
-6.77692 -7.44233 -1.53135 -6.77093 -7.48819 -1.51407 -6.76652 -7.53419 -1.49373 
-6.76363 -7.58015 -1.47054 -6.76224 -7.62589 -1.44471 -6.76228 -7.67125 -1.41643 
-6.76371 -7.71603 -1.38591 -6.76649 -7.76007 -1.35335 -6.77057 -7.80319 -1.31896 
-6.7759 -7.84522 -1.28293 -6.78244 -7.88598 -1.24547 -6.79014 -7.92528 -1.20678 
-6.79896 -7.96296 -1.16707 -6.80885 -7.99884 -1.12653 -6.81976 -8.03275 -1.08537 
[...]
CELL_DATA 1
FIELD FieldData 2
Length 1 1 double
63.710005034 
Tortuosity 1 1 double
1.0174803399 
POINT_DATA 1275
SCALARS MaximumInscribedSphereRadius float
LOOKUP_TABLE default
0.93 0.93906 0.94812 0.95718 0.96624 0.9753 0.98436 0.99342 1.00248 
1.01154 1.0206 1.02966 1.03872 1.04778 1.05684 1.0659 1.07496 1.08402 
1.09308 1.10214 1.1112 1.12086 1.13142 1.14198 1.15255 1.16311 1.17367 
1.18423 1.1948 1.20536 1.21592 1.22649 1.23705 1.24761 1.25818 1.26874 
1.2793 1.28986 1.30043 1.31099 1.32155 1.3316 1.34119 1.35078 1.36038 
1.36997 1.37956 1.38916 1.39875 1.40834 1.41794 1.42753 1.43713 1.44672 
1.45631 1.46591 1.4755 1.48509 1.49469 1.50428 1.51387 1.51822 1.5098 
1.50139 1.49298 1.48457 1.47615 1.46774 1.45933 1.45092 1.4425 1.43409 
1.42568 1.41727 1.40885 1.40044 1.39203 1.38362 1.3752 1.36679 1.35838 
1.34999 1.34455 1.33911 1.33367 1.32823 1.32279 1.31735 1.31191 1.30647 
1.30103 1.29559 1.29015 1.28471 1.27927 1.27383 1.26839 1.26295 1.25751 
1.25207 1.24663 1.24119 1.24 1.24 1.24 1.24 1.24 1.24 
1.24 1.24 1.24 1.24 1.24 1.24 1.24 1.24 1.24 
1.24 1.24 1.24 1.24 1.24 1.24 1.24 1.24 1.24 
1.24 1.24 1.24 1.24 1.24 1.24 1.24 1.24 1.24 
1.24 1.24 1.24 1.24 1.24 1.24 1.24 1.24 1.24 
1.24 1.24 1.24 1.24 1.24 1.24 1.24 1.24 1.24 
1.24 1.24 1.24 1.24 1.24 1.24 1.24 1.24 1.24 
1.24127 1.25068 1.26008 1.26949 1.27889 1.28829 1.2977 1.3071 1.3165 
1.32591 1.33531 1.34472 1.35412 1.36352 1.37293 1.38233 1.39174 1.40114 
1.41054 1.41995 1.42935 1.43112 1.43175 1.43238 1.43301 1.43364 1.43427 
1.4349 1.43553 1.43617 1.4368 1.43743 1.43806 1.43869 1.43932 1.43995 
1.44058 1.44121 1.44184 1.44247 1.4431 1.43288 1.41815 1.40343 1.3887 
1.37397 1.35924 1.34451 1.32978 1.31505 1.30033 1.2856 1.27087 1.25614 
1.24141 1.22668 1.21196 1.19723 1.1825 1.16777 1.15304 1.14398 1.13758 
1.13118 1.12478 1.11838 1.11198 1.10558 1.09918 1.09278 1.08638 1.07998 
1.07358 1.06718 1.06078 1.05438 1.04798 1.04158 1.03518 1.02878 1.02238 
1.03206 1.05569 1.07931 1.10294 1.12656 1.15019 1.17381 1.19744 1.22106 
1.24469 1.26831 1.29194 1.31556 1.33919 1.36282 1.38644 1.41007 1.43369 
1.45732 1.48094 1.4957 1.48953 1.48336 1.47719 1.47102 1.46484 1.45867 
1.4525 1.44633 1.44016 1.43399 1.42781 1.42164 1.41547 1.4093 1.40313 
1.39695 1.39078 1.38461 1.37844 1.37234 1.36892 1.3655 1.36208 1.35866 
1.35524 1.35182 1.3484 1.34498 1.34156 1.33814 1.33472 1.3313 1.32788 
1.32446 1.32104 1.31762 1.31421 1.31079 1.30737 1.30395 1.31174 1.32347 
1.3352 1.34692 1.35865 1.37038 1.3821 1.39383 1.40556 1.41728 1.42901 
1.44074 1.45246 1.46419 1.47591 1.48764 1.49937 1.51109 1.52282 1.53455 
1.55409 1.58155 1.609 1.63645 1.6639 1.69135 1.7188 1.74625 1.7737 
1.80115 1.8286 1.85605 1.8835 1.91095 1.9384 1.96586 1.99331 2.02076 
2.04821 2.07566 2.09059 2.09079 2.09099 2.09119 2.09139 2.09159 2.09179 
2.09199 2.09219 2.09239 2.09259 2.09279 2.09299 2.09319 2.09339 2.09359 
2.09379 2.09399 2.09418 2.08229 2.06136 2.04044 2.01951 1.99858 1.97766 
1.95673 1.93581 1.91488 1.89396 1.87303 1.85211 1.83118 1.81025 1.78933 
1.7684 1.74748 1.72655 1.70563 1.6847 1.66062 1.6305 1.60038 1.57026 
1.54014 1.51002 1.4799 1.44978 1.41966 1.38955 1.35943 1.32931 1.29919 
1.26907 1.23895 1.20883 1.17871 1.14859 1.11847 1.08835 1.06147 1.06566 
1.06984 1.07402 1.0782 1.08238 1.08656 1.09074 1.09492 1.0991 1.10328 
1.10746 1.11164 1.11582 1.12 1.12419 1.12837 1.13255 1.13673 1.14091 
1.14509 1.14967 1.15433 1.15898 1.16363 1.16829 1.17294 1.17759 1.18225 
1.1869 1.19155 1.19621 1.20086 1.20552 1.21017 1.21482 1.21948 1.22413 
1.22878 1.23344 1.23809 1.24273 1.24736 1.25199 1.25662 1.26125 1.26588 
1.27052 1.27515 1.27978 1.28441 1.28904 1.29367 1.2983 1.30293 1.30756 
1.3122 1.31683 1.32146 1.32609 1.33072 1.33708 1.34682 1.35657 1.36632 
1.37607 1.38582 1.39556 1.40531 1.41506 1.42481 1.43455 1.4443 1.45405 
1.4638 1.47355 1.48329 1.49304 1.50279 1.51254 1.52228 1.53076 1.53275 
1.53473 1.53671 1.53869 1.54067 1.54265 1.54463 1.54662 1.5486 1.55058 
1.55256 1.55454 1.55652 1.5585 1.56049 1.56247 1.56445 1.56643 1.56841 
1.5705 1.58121 1.59192 1.60263 1.61334 1.62405 1.63476 1.64548 1.65619 
1.6669 1.67761 1.68832 1.69903 1.70974 1.72045 1.73116 1.74187 1.75258 
1.76329 1.77401 1.78472 1.78427 1.78085 1.77743 1.77401 1.7706 1.76718 
1.76376 1.76034 1.75692 1.7535 1.75008 1.74667 1.74325 1.73983 1.73641 
1.73299 1.72957 1.72615 1.72273 1.71932 1.71336 1.70523 1.6971 1.68897 
1.68084 1.67271 1.66457 1.65644 1.64831 1.64018 1.63205 1.62392 1.61579 
1.60766 1.59953 1.5914 1.58327 1.57514 1.56701 1.55888 1.55307 1.55302 
1.55297 1.55292 1.55288 1.55283 1.55278 1.55273 1.55269 1.55264 1.55259 
1.55254 1.5525 1.55245 1.5524 1.55236 1.55231 1.55226 1.55221 1.55217 
1.55244 1.56015 1.56786 1.57557 1.58329 1.591 1.59871 1.60642 1.61413 
1.62184 1.62955 1.63726 1.64497 1.65268 1.66039 1.6681 1.67581 1.68352 
1.69123 1.69894 1.70665 1.7138 1.72079 1.72778 1.73478 1.74177 1.74876 
1.75576 1.76275 1.76975 1.77674 1.78373 1.79073 1.79772 1.80471 1.81171 
1.8187 1.8257 1.83269 1.83968 1.84668 1.85071 1.85198 1.85325 1.85452 
1.85579 1.85705 1.85832 1.85959 1.86086 1.86213 1.86339 1.86466 1.86593 
1.8672 1.86847 1.86973 1.871 1.87227 1.87354 1.87481 1.87775 1.88596 
1.89418 1.90239 1.91061 1.91882 1.92704 1.93526 1.94347 1.95169 1.9599 
1.96812 1.97633 1.98455 1.99277 2.00098 2.0092 2.01741 2.02563 2.03384 
2.04206 2.03652 2.03084 2.02516 2.01948 2.0138 2.00812 2.00244 1.99676 
1.99108 1.9854 1.97973 1.97405 1.96837 1.96269 1.95701 1.95133 1.94565 
1.93997 1.93429 1.92861 1.91509 1.89961 1.88413 1.86865 1.85317 1.83769 
1.82221 1.80673 1.79125 1.77577 1.76029 1.74481 1.72933 1.71385 1.69837 
1.68289 1.66741 1.65193 1.63646 1.62098 1.62102 1.63194 1.64286 1.65379 
1.66471 1.67563 1.68655 1.69747 1.70839 1.71931 1.73023 1.74115 1.75207 
1.76299 1.77392 1.78484 1.79576 1.80668 1.8176 1.82852 1.83648 1.83851 
1.84054 1.84257 1.8446 1.84663 1.84866 1.85069 1.85272 1.85475 1.85678 
1.85881 1.86084 1.86287 1.8649 1.86693 1.86896 1.87099 1.87302 1.87505 
1.87682 1.87537 1.87392 1.87246 1.87101 1.86956 1.86811 1.86665 1.8652 
1.86375 1.8623 1.86084 1.85939 1.85794 1.85649 1.85504 1.85358 1.85213 
1.85068 1.84923 1.84777 1.84222 1.83576 1.8293 1.82284 1.81638 1.80992 
1.80345 1.79699 1.79053 1.78407 1.77761 1.77115 1.76468 1.75822 1.75176 
1.7453 1.73884 1.73238 1.72592 1.71945 1.70962 1.69697 1.68433 1.67169 
1.65904 1.6464 1.63375 1.62111 1.60846 1.59582 1.58317 1.57053 1.55789 
1.54524 1.5326 1.51995 1.50731 1.49466 1.48202 1.46938 1.46032 1.46134 
1.46236 1.46339 1.46441 1.46543 1.46646 1.46748 1.4685 1.46952 1.47055 
1.47157 1.47259 1.47362 1.47464 1.47566 1.47668 1.47771 1.47873 1.47975 
1.48078 1.48793 1.49524 1.50254 1.50984 1.51715 1.52445 1.53175 1.53906 
1.54636 1.55366 1.56097 1.56827 1.57557 1.58288 1.59018 1.59748 1.60479 
1.61209 1.61939 1.6267 1.63618 1.64663 1.65709 1.66754 1.67799 1.68844 
1.69889 1.70935 1.7198 1.73025 1.7407 1.75115 1.7616 1.77206 1.78251 
1.79296 1.80341 1.81386 1.82431 1.83477 1.83746 1.82895 1.82044 1.81193 
1.80342 1.79491 1.7864 1.77789 1.76938 1.76087 1.75236 1.74385 1.73534 
1.72683 1.71832 1.70981 1.7013 1.6928 1.68429 1.67578 1.66766 1.66229 
1.65692 1.65155 1.64618 1.64081 1.63543 1.63006 1.62469 1.61932 1.61395 
1.60858 1.60321 1.59784 1.59247 1.5871 1.58173 1.57636 1.57099 1.56562 
1.56025 1.56227 1.56569 1.5691 1.57251 1.57592 1.57934 1.58275 1.58616 
1.58957 1.59298 1.5964 1.59981 1.60322 1.60663 1.61005 1.61346 1.61687 
1.62028 1.62369 1.62711 1.6395 1.65864 1.67778 1.69692 1.71606 1.7352 
1.75435 1.77349 1.79263 1.81177 1.83091 1.85005 1.86919 1.88833 1.90747 
1.92661 1.94575 1.96489 1.98404 2.00318 2.0188 2.02705 2.0353 2.04355 
2.0518 2.06005 2.0683 2.07655 2.0848 2.09305 2.1013 2.10955 2.1178 
2.12605 2.1343 2.14255 2.1508 2.15905 2.16731 2.17556 2.18232 2.1741 
2.16588 2.15766 2.14944 2.14122 2.133 2.12478 2.11656 2.10834 2.10012 
2.0919 2.08368 2.07546 2.06723 2.05902 2.05079 2.04257 2.03435 2.02613 
2.01791 2.00122 1.98301 1.96479 1.94657 1.92835 1.91014 1.89192 1.8737 
1.85548 1.83727 1.81905 1.80083 1.78261 1.76439 1.74618 1.72796 1.70974 
1.69152 1.67331 1.65509 1.65672 1.67195 1.68719 1.70243 1.71766 1.7329 
1.74813 1.76337 1.7786 1.79384 1.80908 1.82431 1.83955 1.85478 1.87002 
1.88525 1.90049 1.91573 1.93096 1.9462 1.95669 1.95766 1.95864 1.95962 
1.96059 1.96157 1.96255 1.96353 1.9645 1.96548 1.96646 1.96744 1.96841 
1.96939 1.97037 1.97134 1.97232 1.9733 1.97428 1.97525 1.97582 1.9701 
1.96439 1.95867 1.95296 1.94725 1.94153 1.93582 1.9301 1.92439 1.91868 
1.91296 1.90725 1.90153 1.89582 1.8901 1.88439 1.87868 1.87296 1.86725 
1.86153 1.86032 1.86039 1.86046 1.86053 1.8606 1.86067 1.86074 1.86081 
1.86088 1.86094 1.86101 1.86108 1.86115 1.86122 1.86129 1.86136 1.86143 
1.8615 1.86157 1.86164 1.86546 1.87311 1.88077 1.88843 1.89609 1.90375 
1.91141 1.91907 1.92673 1.93439 1.94205 1.94971 1.95737 1.96503 1.97269 
1.98035 1.988 1.99566 2.00332 2.01098 2.01925 2.02981 2.04038 2.05095 
2.06152 2.07208 2.08265 2.09322 2.10379 2.11435 2.12492 2.13549 2.14606 
2.15662 2.16719 2.17776 2.18833 2.19889 2.20946 2.22003 2.23059 2.24005 
2.24941 2.25878 2.26814 2.2775 2.28687 2.29623 2.30559 2.31495 2.32432 
2.33368 2.34304 2.35241 2.36177 2.37113 2.38049 2.38986 2.39922 2.40858 
2.41795 2.41767 2.41201 2.40635 2.4007 2.39504 2.38938 2.38373 2.37807 
2.37241 2.36676 2.3611 2.35544 2.34978 2.34413 2.33847 2.33281 2.32716 
2.3215 2.31584 2.31018 2.30579 2.30354 2.30128 2.29903 2.29677 2.29452 
2.29226 2.29001 2.28775 2.2855 2.28324 2.28099 2.27873 2.27648 2.27422 
2.27197 2.26971 2.26746 2.2652 2.26295 2.26195 2.27156 2.28118 2.2908 
2.30042 2.31004 2.31965 2.32927 2.33889 2.34851 2.35813 2.36775 2.37736 
2.38698 2.3966 2.40622 2.41584 2.42545 2.43507 2.44469 2.45431 2.45691 
2.4581 2.45929 2.46048 2.46167 2.46286 2.46405 2.46524 2.46643 2.46762 
2.46881 2.47 2.47119 2.47238 2.47356 2.47475 2.47594 2.47713 2.47832 
2.47951 2.47696 2.4718 2.46665 2.46149 2.45634 2.45119 2.44603 2.44088 
2.43572 2.43057 2.42542 2.42026 2.41511 2.40995 2.4048 2.39964 2.39449 
2.38934 2.38418 2.37903 2.37035 2.36033 2.35031 2.34029 2.33028 2.32026 
2.31024 2.30023 2.29021 2.28019 2.27017 2.26016 2.25014 2.24012 2.2301 
2.22009 2.21007 2.20005 2.19003 2.18002 2.17 
TEXTURE_COORDINATES TCoords 2 float
0 0 0.000784929 0 0.00156986 0 0.00235479 0 0.00313972 
0 0.00392465 0 0.00470958 0 0.00549451 0 0.00627944 0 
0.00706436 0 0.00784929 0 0.00863422 0 0.00941915 0 0.0102041 
0 0.010989 0 0.0117739 0 0.0125589 0 0.0133438 0 
0.0141287 0 0.0149137 0 0.0156986 0 0.0164835 0 0.0172684 
0 0.0180534 0 0.0188383 0 0.0196232 0 0.0204082 0 
0.0211931 0 0.021978 0 0.022763 0 0.0235479 0 0.0243328 
0 0.0251177 0 0.0259027 0 0.0266876 0 0.0274725 0 
0.0282575 0 0.0290424 0 0.0298273 0 0.0306122 0 0.0313972 
0 0.0321821 0 0.032967 0 0.033752 0 0.0345369 0 
0.0353218 0 0.0361068 0 0.0368917 0 0.0376766 0 0.0384615 
0 0.0392465 0 0.0400314 0 0.0408163 0 0.0416013 0 
0.0423862 0 0.0431711 0 0.043956 0 0.044741 0 0.0455259 
0 0.0463108 0 0.0470958 0 0.0478807 0 0.0486656 0 
0.0494506 0 0.0502355 0 0.0510204 0 0.0518053 0 0.0525903 
0 0.0533752 0 0.0541601 0 0.0549451 0 0.05573 0 
0.0565149 0 0.0572998 0 0.0580848 0 0.0588697 0 0.0596546 
0 0.0604396 0 0.0612245 0 0.0620094 0 0.0627944 0 
0.0635793 0 0.0643642 0 0.0651491 0 0.0659341 0 0.066719 
0 0.0675039 0 0.0682889 0 0.0690738 0 0.0698587 0 
0.0706436 0 0.0714286 0 0.0722135 0 0.0729984 0 0.0737834 
0 0.0745683 0 0.0753532 0 0.0761381 0 0.0769231 0 
0.077708 0 0.0784929 0 0.0792779 0 0.0800628 0 0.0808477 
0 0.0816327 0 0.0824176 0 0.0832025 0 0.0839874 0 
0.0847724 0 0.0855573 0 0.0863422 0 0.0871272 0 0.0879121 
0 0.088697 0 0.0894819 0 0.0902669 0 0.0910518 0 
0.0918367 0 0.0926217 0 0.0934066 0 0.0941915 0 0.0949765 
0 0.0957614 0 0.0965463 0 0.0973312 0 0.0981162 0 
0.0989011 0 0.099686 0 0.100471 0 0.101256 0 0.102041 
0 0.102826 0 0.103611 0 0.104396 0 0.105181 0 
0.105965 0 0.10675 0 0.107535 0 0.10832 0 0.109105 
0 0.10989 0 0.110675 0 0.11146 0 0.112245 0 
0.11303 0 0.113815 0 0.1146 0 0.115385 0 0.11617 
0 0.116954 0 0.117739 0 0.118524 0 0.119309 0 
0.120094 0 0.120879 0 0.121664 0 0.122449 0 0.123234 
0 0.124019 0 0.124804 0 0.125589 0 0.126374 0 
0.127159 0 0.127943 0 0.128728 0 0.129513 0 0.130298 
0 0.131083 0 0.131868 0 0.132653 0 0.133438 0 
0.134223 0 0.135008 0 0.135793 0 0.136578 0 0.137363 
0 0.138148 0 0.138932 0 0.139717 0 0.140502 0 
0.141287 0 0.142072 0 0.142857 0 0.143642 0 0.144427 
0 0.145212 0 0.145997 0 0.146782 0 0.147567 0 
0.148352 0 0.149137 0 0.149922 0 0.150706 0 0.151491 
0 0.152276 0 0.153061 0 0.153846 0 0.154631 0 
0.155416 0 0.156201 0 0.156986 0 0.157771 0 0.158556 
0 0.159341 0 0.160126 0 0.160911 0 0.161695 0 
0.16248 0 0.163265 0 0.16405 0 0.164835 0 0.16562 
0 0.166405 0 0.16719 0 0.167975 0 0.16876 0 
0.169545 0 0.17033 0 0.171115 0 0.1719 0 0.172684 
0 0.173469 0 0.174254 0 0.175039 0 0.175824 0 
0.176609 0 0.177394 0 0.178179 0 0.178964 0 0.179749 
0 0.180534 0 0.181319 0 0.182104 0 0.182889 0 
0.183673 0 0.184458 0 0.185243 0 0.186028 0 0.186813 
0 0.187598 0 0.188383 0 0.189168 0 0.189953 0 
0.190738 0 0.191523 0 0.192308 0 0.193093 0 0.193878 
0 0.194662 0 0.195447 0 0.196232 0 0.197017 0 
0.197802 0 0.198587 0 0.199372 0 0.200157 0 0.200942 
0 0.201727 0 0.202512 0 0.203297 0 0.204082 0 
0.204867 0 0.205651 0 0.206436 0 0.207221 0 0.208006 
0 0.208791 0 0.209576 0 0.210361 0 0.211146 0 
0.211931 0 0.212716 0 0.213501 0 0.214286 0 0.215071 
0 0.215856 0 0.216641 0 0.217425 0 0.21821 0 
0.218995 0 0.21978 0 0.220565 0 0.22135 0 0.222135 
0 0.22292 0 0.223705 0 0.22449 0 0.225275 0 
0.22606 0 0.226845 0 0.22763 0 0.228414 0 0.229199 
0 0.229984 0 0.230769 0 0.231554 0 0.232339 0 
0.233124 0 0.233909 0 0.234694 0 0.235479 0 0.236264 
0 0.237049 0 0.237834 0 0.238619 0 0.239403 0 
0.240188 0 0.240973 0 0.241758 0 0.242543 0 0.243328 
0 0.244113 0 0.244898 0 0.245683 0 0.246468 0 
0.247253 0 0.248038 0 0.248823 0 0.249608 0 0.250392 
0 0.251177 0 0.251962 0 0.252747 0 0.253532 0 
0.254317 0 0.255102 0 0.255887 0 0.256672 0 0.257457 
0 0.258242 0 0.259027 0 0.259812 0 0.260597 0 
0.261381 0 0.262166 0 0.262951 0 0.263736 0 0.264521 
0 0.265306 0 0.266091 0 0.266876 0 0.267661 0 
0.268446 0 0.269231 0 0.270016 0 0.270801 0 0.271586 
0 0.27237 0 0.273155 0 0.27394 0 0.274725 0 
0.27551 0 0.276295 0 0.27708 0 0.277865 0 0.27865 
0 0.279435 0 0.28022 0 0.281005 0 0.28179 0 
0.282575 0 0.283359 0 0.284144 0 0.284929 0 0.285714 
0 0.286499 0 0.287284 0 0.288069 0 0.288854 0 
0.289639 0 0.290424 0 0.291209 0 0.291994 0 0.292779 
0 0.293564 0 0.294349 0 0.295133 0 0.295918 0 
0.296703 0 0.297488 0 0.298273 0 0.299058 0 0.299843 
0 0.300628 0 0.301413 0 0.302198 0 0.302983 0 
0.303768 0 0.304553 0 0.305338 0 0.306122 0 0.306907 
0 0.307692 0 0.308477 0 0.309262 0 0.310047 0 
0.310832 0 0.311617 0 0.312402 0 0.313187 0 0.313972 
0 0.314757 0 0.315542 0 0.316327 0 0.317111 0 
0.317896 0 0.318681 0 0.319466 0 0.320251 0 0.321036 
0 0.321821 0 0.322606 0 0.323391 0 0.324176 0 
0.324961 0 0.325746 0 0.326531 0 0.327316 0 0.3281 
0 0.328885 0 0.32967 0 0.330455 0 0.33124 0 
0.332025 0 0.33281 0 0.333595 0 0.33438 0 0.335165 
0 0.33595 0 0.336735 0 0.33752 0 0.338305 0 
0.339089 0 0.339874 0 0.340659 0 0.341444 0 0.342229 
0 0.343014 0 0.343799 0 0.344584 0 0.345369 0 
0.346154 0 0.346939 0 0.347724 0 0.348509 0 0.349294 
0 0.350078 0 0.350863 0 0.351648 0 0.352433 0 
0.353218 0 0.354003 0 0.354788 0 0.355573 0 0.356358 
0 0.357143 0 0.357928 0 0.358713 0 0.359498 0 
0.360283 0 0.361068 0 0.361852 0 0.362637 0 0.363422 
0 0.364207 0 0.364992 0 0.365777 0 0.366562 0 
0.367347 0 0.368132 0 0.368917 0 0.369702 0 0.370487 
0 0.371272 0 0.372057 0 0.372841 0 0.373626 0 
0.374411 0 0.375196 0 0.375981 0 0.376766 0 0.377551 
0 0.378336 0 0.379121 0 0.379906 0 0.380691 0 
0.381476 0 0.382261 0 0.383046 0 0.38383 0 0.384615 
0 0.3854 0 0.386185 0 0.38697 0 0.387755 0 
0.38854 0 0.389325 0 0.39011 0 0.390895 0 0.39168 
0 0.392465 0 0.39325 0 0.394035 0 0.394819 0 
0.395604 0 0.396389 0 0.397174 0 0.397959 0 0.398744 
0 0.399529 0 0.400314 0 0.401099 0 0.401884 0 
0.402669 0 0.403454 0 0.404239 0 0.405024 0 0.405808 
0 0.406593 0 0.407378 0 0.408163 0 0.408948 0 
0.409733 0 0.410518 0 0.411303 0 0.412088 0 0.412873 
0 0.413658 0 0.414443 0 0.415228 0 0.416013 0 
0.416797 0 0.417582 0 0.418367 0 0.419152 0 0.419937 
0 0.420722 0 0.421507 0 0.422292 0 0.423077 0 
0.423862 0 0.424647 0 0.425432 0 0.426217 0 0.427002 
0 0.427786 0 0.428571 0 0.429356 0 0.430141 0 
0.430926 0 0.431711 0 0.432496 0 0.433281 0 0.434066 
0 0.434851 0 0.435636 0 0.436421 0 0.437206 0 
0.437991 0 0.438776 0 0.43956 0 0.440345 0 0.44113 
0 0.441915 0 0.4427 0 0.443485 0 0.44427 0 
0.445055 0 0.44584 0 0.446625 0 0.44741 0 0.448195 
0 0.44898 0 0.449765 0 0.450549 0 0.451334 0 
0.452119 0 0.452904 0 0.453689 0 0.454474 0 0.455259 
0 0.456044 0 0.456829 0 0.457614 0 0.458399 0 
0.459184 0 0.459969 0 0.460754 0 0.461538 0 0.462323 
0 0.463108 0 0.463893 0 0.464678 0 0.465463 0 
0.466248 0 0.467033 0 0.467818 0 0.468603 0 0.469388 
0 0.470173 0 0.470958 0 0.471743 0 0.472527 0 
0.473312 0 0.474097 0 0.474882 0 0.475667 0 0.476452 
0 0.477237 0 0.478022 0 0.478807 0 0.479592 0 
0.480377 0 0.481162 0 0.481947 0 0.482732 0 0.483516 
0 0.484301 0 0.485086 0 0.485871 0 0.486656 0 
0.487441 0 0.488226 0 0.489011 0 0.489796 0 0.490581 
0 0.491366 0 0.492151 0 0.492936 0 0.493721 0 
0.494505 0 0.49529 0 0.496075 0 0.49686 0 0.497645 
0 0.49843 0 0.499215 0 0.5 0 0.500785 0 
0.50157 0 0.502355 0 0.50314 0 0.503925 0 0.50471 
0 0.505495 0 0.506279 0 0.507064 0 0.507849 0 
0.508634 0 0.509419 0 0.510204 0 0.510989 0 0.511774 
0 0.512559 0 0.513344 0 0.514129 0 0.514914 0 
0.515699 0 0.516484 0 0.517268 0 0.518053 0 0.518838 
0 0.519623 0 0.520408 0 0.521193 0 0.521978 0 
0.522763 0 0.523548 0 0.524333 0 0.525118 0 0.525903 
0 0.526688 0 0.527473 0 0.528257 0 0.529042 0 
0.529827 0 0.530612 0 0.531397 0 0.532182 0 0.532967 
0 0.533752 0 0.534537 0 0.535322 0 0.536107 0 
0.536892 0 0.537677 0 0.538462 0 0.539246 0 0.540031 
0 0.540816 0 0.541601 0 0.542386 0 0.543171 0 
0.543956 0 0.544741 0 0.545526 0 0.546311 0 0.547096 
0 0.547881 0 0.548666 0 0.549451 0 0.550235 0 
0.55102 0 0.551805 0 0.55259 0 0.553375 0 0.55416 
0 0.554945 0 0.55573 0 0.556515 0 0.5573 0 
0.558085 0 0.55887 0 0.559655 0 0.56044 0 0.561224 
0 0.562009 0 0.562794 0 0.563579 0 0.564364 0 
0.565149 0 0.565934 0 0.566719 0 0.567504 0 0.568289 
0 0.569074 0 0.569859 0 0.570644 0 0.571429 0 
0.572214 0 0.572998 0 0.573783 0 0.574568 0 0.575353 
0 0.576138 0 0.576923 0 0.577708 0 0.578493 0 
0.579278 0 0.580063 0 0.580848 0 0.581633 0 0.582418 
0 0.583203 0 0.583987 0 0.584772 0 0.585557 0 
0.586342 0 0.587127 0 0.587912 0 0.588697 0 0.589482 
0 0.590267 0 0.591052 0 0.591837 0 0.592622 0 
0.593407 0 0.594192 0 0.594976 0 0.595761 0 0.596546 
0 0.597331 0 0.598116 0 0.598901 0 0.599686 0 
0.600471 0 0.601256 0 0.602041 0 0.602826 0 0.603611 
0 0.604396 0 0.605181 0 0.605965 0 0.60675 0 
0.607535 0 0.60832 0 0.609105 0 0.60989 0 0.610675 
0 0.61146 0 0.612245 0 0.61303 0 0.613815 0 
0.6146 0 0.615385 0 0.61617 0 0.616954 0 0.617739 
0 0.618524 0 0.619309 0 0.620094 0 0.620879 0 
0.621664 0 0.622449 0 0.623234 0 0.624019 0 0.624804 
0 0.625589 0 0.626374 0 0.627159 0 0.627943 0 
0.628728 0 0.629513 0 0.630298 0 0.631083 0 0.631868 
0 0.632653 0 0.633438 0 0.634223 0 0.635008 0 
0.635793 0 0.636578 0 0.637363 0 0.638148 0 0.638932 
0 0.639717 0 0.640502 0 0.641287 0 0.642072 0 
0.642857 0 0.643642 0 0.644427 0 0.645212 0 0.645997 
0 0.646782 0 0.647567 0 0.648352 0 0.649137 0 
0.649922 0 0.650706 0 0.651491 0 0.652276 0 0.653061 
0 0.653846 0 0.654631 0 0.655416 0 0.656201 0 
0.656986 0 0.657771 0 0.658556 0 0.659341 0 0.660126 
0 0.660911 0 0.661695 0 0.66248 0 0.663265 0 
0.66405 0 0.664835 0 0.66562 0 0.666405 0 0.66719 
0 0.667975 0 0.66876 0 0.669545 0 0.67033 0 
0.671115 0 0.6719 0 0.672684 0 0.673469 0 0.674254 
0 0.675039 0 0.675824 0 0.676609 0 0.677394 0 