# vtk DataFile Version 4.2
vtk output
ASCII
DATASET POLYDATA
POINTS 1279 float
0 0 0 -0.00394126 -0.00133394 0.000431654 -0.0154307 -0.00521807 0.00169059 
-0.0339669 -0.0114759 0.00372276 -0.0590482 -0.0199308 0.00647414 -0.0901733 -0.0304064 0.00989067 
-0.126841 -0.0427261 0.0139183 -0.168549 -0.0567133 0.018503 -0.214796 -0.0721916 0.0235908 
-0.265081 -0.0889844 0.0291275 -0.318902 -0.106915 0.0350592 -0.375759 -0.125808 0.0413318 
-0.435148 -0.145485 0.0478913 -0.496569 -0.16577 0.0546835 -0.559521 -0.186488 0.0616546 
-0.623501 -0.207461 0.0687504 -0.688009 -0.228513 0.0759169 -0.752542 -0.249467 0.0831001 
-0.8166 -0.270147 0.0902459 -0.879681 -0.290376 0.0973002 -0.941283 -0.309978 0.104209 
-1.00094 -0.32879 0.110923 -1.05858 -0.346786 0.117434 -1.11433 -0.364015 0.123757 
-1.16833 -0.380526 0.129908 -1.22069 -0.396368 0.135903 -1.27157 -0.411593 0.141757 
-1.32109 -0.426248 0.147486 -1.36938 -0.440385 0.153106 -1.41658 -0.454052 0.158633 
-1.46282 -0.4673 0.164082 -1.50824 -0.480178 0.169468 -1.55296 -0.492736 0.174808 
-1.59713 -0.505023 0.180117 -1.64087 -0.51709 0.18541 -1.68431 -0.528986 0.190705 
-1.7276 -0.54076 0.196015 -1.77086 -0.552462 0.201357 -1.81423 -0.564143 0.206746 
-1.85783 -0.575851 0.212199 -1.90181 -0.587637 0.217731 -1.9463 -0.599549 0.223356 
-1.99134 -0.611611 0.229084 -2.03692 -0.623815 0.234911 -2.08299 -0.636152 0.240835 
-2.12951 -0.648611 0.246853 -2.17646 -0.661183 0.252962 -2.22379 -0.673858 0.25916 
-2.27146 -0.686626 0.265443 -2.31944 -0.699479 0.271809 -2.36769 -0.712406 0.278256 
-2.41618 -0.725397 0.28478 -2.46487 -0.738443 0.291378 -2.51371 -0.751534 0.298049 
-2.56268 -0.76466 0.304789 -2.61173 -0.777813 0.311594 -2.66084 -0.790981 0.318464 
-2.70996 -0.804156 0.325394 -2.75905 -0.817327 0.332383 -2.80808 -0.830485 0.339426 
-2.85702 -0.843621 0.346523 -2.90582 -0.856724 0.353669 -2.95446 -0.86979 0.360863 
-3.00294 -0.882823 0.368107 -3.05127 -0.89583 0.375403 -3.09946 -0.908818 0.382753 
-3.14752 -0.921795 0.39016 -3.19545 -0.934767 0.397625 -3.24327 -0.947742 0.405151 
-3.29098 -0.960725 0.41274 -3.33859 -0.973726 0.420394 -3.38611 -0.98675 0.428116 
-3.43355 -0.999804 0.435907 -3.48091 -1.0129 0.44377 -3.52821 -1.02603 0.451707 
-3.57545 -1.03922 0.459719 -3.62264 -1.05246 0.467811 -3.66978 -1.06578 0.475982 
-3.7169 -1.07916 0.484236 -3.76399 -1.09262 0.492576 -3.81106 -1.10617 0.501002 
-3.85813 -1.11982 0.509517 -3.90519 -1.13356 0.518124 -3.95225 -1.14741 0.526822 
-3.99931 -1.16136 0.535612 -4.04636 -1.17541 0.544495 -4.09339 -1.18958 0.553469 
-4.1404 -1.20385 0.562536 -4.18739 -1.21823 0.571696 -4.23436 -1.23273 0.580948 
-4.2813 -1.24734 0.590293 -4.3282 -1.26206 0.59973 -4.37506 -1.27691 0.609261 
-4.42189 -1.29186 0.618885 -4.46866 -1.30694 0.628602 -4.51539 -1.32215 0.638413 
-4.56206 -1.33747 0.648317 -4.60868 -1.35292 0.658315 -4.65523 -1.36849 0.668407 
-4.70172 -1.38419 0.678593 -4.74814 -1.40002 0.688873 -4.79448 -1.41598 0.699247 
-4.84075 -1.43208 0.709715 -4.88693 -1.4483 0.720278 -4.93304 -1.46466 0.730934 
-4.97907 -1.48116 0.741683 -5.02502 -1.49779 0.752525 -5.07089 -1.51455 0.763459 
-5.11668 -1.53145 0.774485 -5.16239 -1.54848 0.785601 -5.20802 -1.56565 0.796808 
-5.25357 -1.58296 0.808105 -5.29904 -1.6004 0.819492 -5.34443 -1.61799 0.830967 
-5.38974 -1.63571 0.842531 -5.43497 -1.65356 0.854183 -5.48012 -1.67156 0.865923 
-5.52519 -1.6897 0.877749 -5.57018 -1.70797 0.889661 -5.61509 -1.72639 0.90166 
-5.65992 -1.74495 0.913743 -5.70468 -1.76365 0.925912 -5.74934 -1.78249 0.938165 
-5.79393 -1.80147 0.950501 -5.83844 -1.82059 0.96292 -5.88288 -1.83984 0.975419 
-5.92723 -1.85923 0.987998 -5.97151 -1.87876 1.00065 -6.0157 -1.89841 1.01339 
-6.05983 -1.91819 1.0262 -6.10387 -1.9381 1.03908 -6.14784 -1.95813 1.05203 
-6.19174 -1.97828 1.06506 -6.23557 -1.99854 1.07816 -6.27932 -2.01893 1.09132 
-6.32299 -2.03943 1.10455 -6.3666 -2.06004 1.11785 -6.41013 -2.08076 1.13121 
-6.4536 -2.10158 1.14463 -6.49699 -2.12252 1.15812 -6.54032 -2.14355 1.17166 
-6.58357 -2.16468 1.18527 -6.62676 -2.18592 1.19893 -6.66988 -2.20725 1.21264 
-6.71294 -2.22867 1.22641 -6.75593 -2.25018 1.24024 -6.79886 -2.27178 1.25411 
-6.84173 -2.29346 1.26804 -6.88454 -2.31523 1.28201 -6.9273 -2.33707 1.29603 
-6.97 -2.35899 1.3101 -7.01264 -2.38099 1.32421 -7.05524 -2.40306 1.33836 
-7.09779 -2.42519 1.35256 -7.14028 -2.44739 1.36679 -7.18274 -2.46966 1.38106 
-7.22515 -2.49198 1.39537 -7.26751 -2.51436 1.40972 -7.30984 -2.5368 1.4241 
-7.35213 -2.55929 1.43851 -7.39438 -2.58183 1.45295 -7.43659 -2.60441 1.46742 
-7.47877 -2.62704 1.48192 -7.52092 -2.64971 1.49645 -7.56304 -2.67242 1.511 
-7.60514 -2.69517 1.52557 -7.6472 -2.71795 1.54017 -7.68925 -2.74076 1.55479 
-7.73126 -2.7636 1.56943 -7.77326 -2.78646 1.58409 -7.81524 -2.80936 1.59876 
-7.8572 -2.83227 1.61345 -7.89914 -2.85521 1.62816 -7.94107 -2.87816 1.64288 
-7.98299 -2.90113 1.65762 -8.02489 -2.92411 1.67236 -8.06679 -2.9471 1.68711 
-8.10868 -2.9701 1.70188 -8.15056 -2.9931 1.71665 -8.19243 -3.01611 1.73142 
-8.23431 -3.03912 1.7462 -8.27618 -3.06213 1.76099 -8.31806 -3.08514 1.77577 
-8.35993 -3.10814 1.79056 -8.40181 -3.13114 1.80535 -8.4437 -3.15412 1.82013 
-8.48559 -3.1771 1.83491 -8.52749 -3.20006 1.84969 -8.5694 -3.22301 1.86446 
-8.61132 -3.24595 1.87922 -8.65325 -3.26887 1.89397 -8.69519 -3.29178 1.90871 
-8.73715 -3.31467 1.92344 -8.77912 -3.33754 1.93815 -8.82111 -3.36039 1.95285 
-8.86312 -3.38321 1.96753 -8.90515 -3.40602 1.98219 -8.9472 -3.4288 1.99684 
-8.98927 -3.45156 2.01146 -9.03137 -3.47429 2.02605 -9.07349 -3.49699 2.04062 
-9.11563 -3.51967 2.05517 -9.15781 -3.54231 2.06969 -9.20001 -3.56493 2.08418 
-9.24224 -3.58751 2.09863 -9.28451 -3.61006 2.11306 -9.3268 -3.63258 2.12744 
-9.36913 -3.65507 2.14178 -9.41148 -3.67753 2.15607 -9.45387 -3.69995 2.17031 
-9.4963 -3.72235 2.1845 -9.53875 -3.74473 2.19863 -9.58124 -3.76707 2.2127 
-9.62376 -3.78939 2.2267 -9.66632 -3.81168 2.24062 -9.70892 -3.83394 2.25448 
-9.75155 -3.85618 2.26826 -9.79421 -3.8784 2.28195 -9.83691 -3.90059 2.29556 
-9.87965 -3.92276 2.30908 -9.92243 -3.9449 2.32251 -9.96524 -3.96702 2.33584 
-10.0081 -3.98912 2.34907 -10.051 -4.0112 2.36219 -10.0939 -4.03326 2.3752 
-10.1369 -4.0553 2.3881 -10.1799 -4.07732 2.40088 -10.2229 -4.09934 2.41353 
-10.266 -4.12134 2.42604 -10.3092 -4.14333 2.43842 -10.3524 -4.16532 2.45066 
-10.3956 -4.18731 2.46275 -10.4389 -4.2093 2.47468 -10.4822 -4.23129 2.48645 
-10.5256 -4.25328 2.49806 -10.569 -4.27529 2.50949 -10.6125 -4.29731 2.52074 
-10.656 -4.31934 2.53181 -10.6996 -4.34139 2.54269 -10.7433 -4.36346 2.55337 
-10.787 -4.38555 2.56385 -10.8307 -4.40766 2.57413 -10.8746 -4.42981 2.58419 
-10.9184 -4.45198 2.59403 -10.9624 -4.47419 2.60364 -11.0064 -4.49644 2.61301 
-11.0504 -4.51873 2.62209 -11.0945 -4.54109 2.63085 -11.1386 -4.56353 2.63925 
-11.1827 -4.58604 2.64725 -11.2269 -4.60865 2.65482 -11.271 -4.63136 2.66191 
-11.3152 -4.65418 2.6685 -11.3594 -4.67713 2.67454 -11.4035 -4.70021 2.68 
-11.4476 -4.72344 2.68484 -11.4917 -4.74682 2.68902 -11.5358 -4.77037 2.6925 
-11.5798 -4.7941 2.69526 -11.6238 -4.81801 2.69724 -11.6677 -4.84213 2.69842 
-11.7115 -4.86645 2.69876 -11.7552 -4.89099 2.69821 -11.7989 -4.91575 2.69675 
-11.8425 -4.94076 2.69433 -11.886 -4.96601 2.69094 -11.9293 -4.99149 2.68655 
-11.9725 -5.01719 2.68118 -12.0154 -5.04309 2.67482 -12.0582 -5.06917 2.66746 
-12.1006 -5.09543 2.6591 -12.1428 -5.12185 2.64974 -12.1846 -5.14842 2.63937 
-12.2261 -5.17512 2.62799 -12.2671 -5.20193 2.61561 -12.3078 -5.22886 2.60221 
-12.3479 -5.25587 2.58778 -12.3876 -5.28296 2.57234 -12.4268 -5.31011 2.55588 
-12.4654 -5.33731 2.53838 -12.5034 -5.36454 2.51985 -12.5407 -5.3918 2.50029 
-12.5775 -5.41907 2.47969 -12.6135 -5.44632 2.45805 -12.6488 -5.47356 2.43537 
-12.6834 -5.50076 2.41164 -12.7172 -5.52793 2.38692 -12.7504 -5.55506 2.36123 
-12.7828 -5.58214 2.33462 -12.8146 -5.60918 2.30715 -12.8458 -5.63617 2.27884 
-12.8764 -5.66311 2.24975 -12.9063 -5.68999 2.21992 -12.9358 -5.71681 2.18939 
-12.9647 -5.74358 2.1582 -12.993 -5.77028 2.12641 -13.0209 -5.79691 2.09405 
-13.0484 -5.82348 2.06117 -13.0754 -5.84997 2.02782 -13.1019 -5.87639 1.99402 
-13.1281 -5.90273 1.95984 -13.154 -5.92898 1.92531 -13.1795 -5.95516 1.89048 
-13.2046 -5.98125 1.85539 -13.2295 -6.00724 1.82009 -13.2541 -6.03315 1.78461 
-13.2785 -6.05896 1.74897 -13.3026 -6.08469 1.71318 -13.3265 -6.11034 1.67725 
-13.3502 -6.1359 1.64118 -13.3736 -6.16139 1.60496 -13.3968 -6.18681 1.56862 
-13.4199 -6.21216 1.53215 -13.4427 -6.23745 1.49555 -13.4654 -6.26268 1.45883 
-13.4879 -6.28785 1.422 -13.5103 -6.31296 1.38506 -13.5325 -6.33803 1.34801 
-13.5545 -6.36306 1.31086 -13.5764 -6.38804 1.27361 -13.5982 -6.41298 1.23627 
-13.6199 -6.4379 1.19885 -13.6415 -6.46278 1.16134 -13.663 -6.48763 1.12375 
-13.6844 -6.51247 1.08608 -13.7057 -6.53728 1.04835 -13.7269 -6.56208 1.01055 
-13.7481 -6.58686 0.972686 -13.7692 -6.61164 0.934759 -13.7903 -6.6364 0.896771 
-13.8112 -6.66114 0.858724 -13.8321 -6.68588 0.820621 -13.8529 -6.71062 0.782463 
-13.8737 -6.73534 0.744252 -13.8943 -6.76006 0.70599 -13.9149 -6.78478 0.667679 
-13.9355 -6.80949 0.629321 -13.9559 -6.83421 0.590918 -13.9763 -6.85892 0.552472 
-13.9966 -6.88363 0.513984 -14.0168 -6.90835 0.475457 -14.037 -6.93306 0.436893 
-14.0571 -6.95779 0.398294 -14.0771 -6.98252 0.35966 -14.097 -7.00726 0.320996 
-14.1169 -7.032 0.282302 -14.1367 -7.05676 0.243579 -14.1564 -7.08153 0.204828 
-14.176 -7.10631 0.166049 -14.1955 -7.13111 0.127242 -14.215 -7.15592 0.0884056 
-14.2344 -7.18076 0.0495403 -14.2536 -7.20561 0.0106458 -14.2728 -7.23048 -0.0282781 
-14.2919 -7.25538 -0.0672315 -14.3109 -7.2803 -0.106215 -14.3298 -7.30525 -0.145228 
-14.3486 -7.33023 -0.184271 -14.3673 -7.35523 -0.223345 -14.3858 -7.38027 -0.26245 
-14.4043 -7.40534 -0.301585 -14.4227 -7.43044 -0.340751 -14.4409 -7.45559 -0.379948 
-14.459 -7.48076 -0.419177 -14.477 -7.50598 -0.458438 -14.4949 -7.53124 -0.49773 
-14.5127 -7.55655 -0.537054 -14.5303 -7.58189 -0.576411 -14.5478 -7.60728 -0.615799 
[...]
CELL_DATA 1
FIELD FieldData 2
Length 1 1 double
63.923705458 
Tortuosity 1 1 double
1.1939049669 
POINT_DATA 1279
SCALARS MaximumInscribedSphereRadius float
LOOKUP_TABLE default
1.116 1.11918 1.12235 1.12553 1.1287 1.13188 1.13505 1.13823 1.1414 
1.14458 1.14775 1.15093 1.1541 1.15728 1.16045 1.16363 1.1668 1.16998 
1.17315 1.17633 1.1795 1.18282 1.18619 1.18956 1.19293 1.1963 1.19967 
1.20304 1.20641 1.20978 1.21315 1.21652 1.2199 1.22327 1.22664 1.23001 
1.23338 1.23675 1.24012 1.24349 1.24686 1.25112 1.2566 1.26208 1.26755 
1.27303 1.27851 1.28398 1.28946 1.29494 1.30041 1.30589 1.31137 1.31684 
1.32232 1.3278 1.33327 1.33875 1.34423 1.3497 1.35518 1.36087 1.36788 
1.37488 1.38188 1.38889 1.39589 1.40289 1.4099 1.4169 1.4239 1.43091 
1.43791 1.44491 1.45191 1.45892 1.46592 1.47292 1.47993 1.48693 1.49393 
1.50094 1.50346 1.50522 1.50698 1.50874 1.51051 1.51227 1.51403 1.51579 
1.51756 1.51932 1.52108 1.52284 1.52461 1.52637 1.52813 1.52989 1.53165 
1.53342 1.53518 1.53694 1.53511 1.53058 1.52604 1.52151 1.51697 1.51243 
1.5079 1.50336 1.49882 1.49429 1.48975 1.48521 1.48068 1.47614 1.4716 
1.46707 1.46253 1.45799 1.45346 1.44892 1.44419 1.43898 1.43376 1.42855 
1.42333 1.41811 1.4129 1.40768 1.40247 1.39725 1.39204 1.38682 1.38161 
1.37639 1.37118 1.36596 1.36074 1.35553 1.35031 1.3451 1.33988 1.33369 
1.3275 1.32131 1.31512 1.30893 1.30273 1.29654 1.29035 1.28416 1.27797 
1.27177 1.26558 1.25939 1.2532 1.24701 1.24081 1.23462 1.22843 1.22224 
1.21605 1.21085 1.20607 1.20128 1.19649 1.1917 1.18692 1.18213 1.17734 
1.17255 1.16777 1.16298 1.15819 1.1534 1.14862 1.14383 1.13904 1.13425 
1.12947 1.12468 1.11989 1.11712 1.11706 1.117 1.11695 1.11689 1.11684 
1.11678 1.11672 1.11667 1.11661 1.11655 1.1165 1.11644 1.11639 1.11633 
1.11627 1.11622 1.11616 1.1161 1.11605 1.11604 1.1163 1.11656 1.11682 
1.11708 1.11734 1.1176 1.11786 1.11812 1.11838 1.11864 1.1189 1.11917 
1.11943 1.11969 1.11995 1.12021 1.12047 1.12073 1.12099 1.12125 1.13054 
1.14139 1.15224 1.16309 1.17394 1.18479 1.19564 1.20649 1.21734 1.22819 
1.23904 1.24989 1.26074 1.27159 1.28244 1.29329 1.30413 1.31498 1.32583 
1.33668 1.34581 1.35362 1.36143 1.36924 1.37706 1.38487 1.39268 1.40049 
1.4083 1.41612 1.42393 1.43174 1.43955 1.44736 1.45518 1.46299 1.4708 
1.47861 1.48643 1.49424 1.49664 1.48516 1.47368 1.4622 1.45072 1.43924 
1.42776 1.41627 1.40479 1.39331 1.38183 1.37035 1.35887 1.34739 1.33591 
1.32443 1.31294 1.30146 1.28998 1.2785 1.26702 1.26567 1.26434 1.26302 
1.26169 1.26037 1.25904 1.25771 1.25639 1.25506 1.25374 1.25241 1.25109 
1.24976 1.24843 1.24711 1.24578 1.24446 1.24313 1.24181 1.24048 1.2401 
1.24009 1.24009 1.24008 1.24008 1.24007 1.24007 1.24006 1.24006 1.24005 
1.24005 1.24004 1.24004 1.24003 1.24003 1.24002 1.24002 1.24001 1.24001 
1.24 1.24 1.24 1.24 1.24 1.24 1.24 1.24 1.24 
1.24 1.24 1.24 1.24 1.24 1.24 1.24 1.24 1.24 
1.24 1.24 1.24 1.24028 1.24225 1.24423 1.2462 1.24818 1.25015 
1.25213 1.2541 1.25608 1.25805 1.26003 1.262 1.26397 1.26595 1.26792 
1.2699 1.27187 1.27385 1.27582 1.2778 1.27977 1.28589 1.29272 1.29955 
1.30637 1.3132 1.32003 1.32685 1.33368 1.3405 1.34733 1.35416 1.36098 
1.36781 1.37464 1.38146 1.38829 1.39511 1.40194 1.40877 1.41559 1.42187 
1.42773 1.43359 1.43944 1.4453 1.45116 1.45702 1.46288 1.46873 1.47459 
1.48045 1.48631 1.49217 1.49803 1.50388 1.50974 1.5156 1.52146 1.52732 
1.53317 1.53538 1.52828 1.52118 1.51408 1.50698 1.49988 1.49279 1.48569 
1.47859 1.47149 1.46439 1.45729 1.4502 1.4431 1.436 1.4289 1.4218 
1.4147 1.40761 1.40051 1.39341 1.38613 1.37886 1.37159 1.36431 1.35704 
1.34976 1.34249 1.33522 1.32794 1.32067 1.31339 1.30612 1.29885 1.29157 
1.2843 1.27702 1.26975 1.26248 1.2552 1.24793 1.25056 1.25723 1.2639 
1.27057 1.27724 1.28391 1.29058 1.29725 1.30392 1.31059 1.31726 1.32393 
1.3306 1.33727 1.34394 1.35061 1.35728 1.36395 1.37062 1.37729 1.38399 
1.39072 1.39745 1.40418 1.41091 1.41764 1.42437 1.4311 1.43783 1.44456 
1.45129 1.45802 1.46475 1.47148 1.47821 1.48494 1.49167 1.4984 1.50513 
1.51186 1.51843 1.524 1.52957 1.53514 1.54071 1.54628 1.55185 1.55742 
1.56299 1.56856 1.57413 1.5797 1.58526 1.59083 1.5964 1.60197 1.60754 
1.61311 1.61868 1.62425 1.62982 1.635 1.6401 1.64521 1.65032 1.65543 
1.66053 1.66564 1.67075 1.67586 1.68097 1.68607 1.69118 1.69629 1.7014 
1.7065 1.71161 1.71672 1.72183 1.72693 1.73204 1.7356 1.73797 1.74034 
1.74271 1.74508 1.74745 1.74982 1.75218 1.75455 1.75692 1.75929 1.76166 
1.76403 1.7664 1.76877 1.77114 1.77351 1.77588 1.77825 1.78061 1.78088 
1.77573 1.77058 1.76543 1.76028 1.75512 1.74997 1.74482 1.73967 1.73452 
1.72937 1.72422 1.71907 1.71392 1.70877 1.70362 1.69847 1.69332 1.68817 
1.68302 1.67787 1.67214 1.66641 1.66068 1.65494 1.64921 1.64348 1.63775 
1.63202 1.62629 1.62055 1.61482 1.60909 1.60336 1.59763 1.5919 1.58616 
1.58043 1.5747 1.56897 1.56324 1.56644 1.57335 1.58026 1.58716 1.59407 
1.60097 1.60788 1.61478 1.62169 1.62859 1.6355 1.6424 1.64931 1.65621 
1.66312 1.67003 1.67693 1.68384 1.69074 1.69765 1.70388 1.70919 1.7145 
1.71981 1.72512 1.73043 1.73574 1.74105 1.74636 1.75167 1.75698 1.76229 
1.76761 1.77292 1.77823 1.78354 1.78885 1.79416 1.79947 1.80478 1.80768 
1.79757 1.78746 1.77735 1.76724 1.75713 1.74703 1.73692 1.72681 1.7167 
1.70659 1.69648 1.68637 1.67626 1.66616 1.65605 1.64594 1.63583 1.62572 
1.61561 1.6055 1.59236 1.57872 1.56509 1.55145 1.53782 1.52419 1.51055 
1.49692 1.48328 1.46965 1.45601 1.44238 1.42875 1.41511 1.40148 1.38784 
1.37421 1.36057 1.34694 1.3333 1.31926 1.30492 1.29058 1.27624 1.26189 
1.24755 1.23321 1.21887 1.20453 1.19019 1.17585 1.16151 1.14717 1.13282 
1.11848 1.10414 1.0898 1.07546 1.06112 1.04678 1.04006 1.05155 1.06305 
1.07454 1.08603 1.09752 1.10902 1.12051 1.132 1.14349 1.15499 1.16648 
1.17797 1.18947 1.20096 1.21245 1.22394 1.23544 1.24693 1.25842 1.27004 
1.29462 1.3192 1.34377 1.36835 1.39293 1.41751 1.44208 1.46666 1.49124 
1.51582 1.54039 1.56497 1.58955 1.61412 1.6387 1.66328 1.68786 1.71243 
1.73701 1.76159 1.7743 1.78247 1.79065 1.79882 1.80699 1.81517 1.82334 
1.83152 1.83969 1.84787 1.85604 1.86422 1.87239 1.88057 1.88874 1.89692 
1.90509 1.91327 1.92144 1.92962 1.93242 1.92835 1.92427 1.92019 1.91611 
1.91204 1.90796 1.90388 1.8998 1.89573 1.89165 1.88757 1.88349 1.87942 
1.87534 1.87126 1.86718 1.86311 1.85903 1.85495 1.85081 1.84633 1.84184 
1.83736 1.83288 1.82839 1.82391 1.81943 1.81494 1.81046 1.80597 1.80149 
1.79701 1.79252 1.78804 1.78355 1.77907 1.77459 1.7701 1.76562 1.76113 
1.75629 1.75138 1.74648 1.74157 1.73666 1.73176 1.72685 1.72195 1.71704 
1.71214 1.70723 1.70233 1.69742 1.69252 1.68761 1.6827 1.6778 1.67289 
1.66799 1.66308 1.65944 1.65672 1.65399 1.65127 1.64854 1.64582 1.64309 
1.64037 1.63764 1.63492 1.63219 1.62947 1.62674 1.62402 1.62129 1.61857 
1.61584 1.61312 1.61039 1.60767 1.60761 1.61398 1.62035 1.62672 1.63309 
1.63946 1.64583 1.6522 1.65857 1.66494 1.67131 1.67768 1.68405 1.69042 
1.69679 1.70316 1.70953 1.7159 1.72227 1.72864 1.73501 1.74158 1.74815 
1.75472 1.7613 1.76787 1.77444 1.78101 1.78758 1.79416 1.80073 1.8073 
1.81387 1.82044 1.82702 1.83359 1.84016 1.84673 1.8533 1.85987 1.86645 
1.87704 1.88918 1.90133 1.91348 1.92562 1.93777 1.94991 1.96206 1.97421 
1.98635 1.9985 2.01065 2.02279 2.03494 2.04708 2.05923 2.07138 2.08352 
2.09567 2.10782 2.12047 2.13378 2.1471 2.16041 2.17372 2.18703 2.20035 
2.21366 2.22697 2.24029 2.2536 2.26691 2.28022 2.29354 2.30685 2.32016 
2.33348 2.34679 2.3601 2.37341 2.38394 2.37861 2.37328 2.36794 2.36261 
2.35728 2.35194 2.34661 2.34128 2.33594 2.33061 2.32528 2.31994 2.31461 
2.30928 2.30394 2.29861 2.29328 2.28794 2.28261 2.27728 2.26398 2.24941 
2.23485 2.22029 2.20573 2.19117 2.17661 2.16204 2.14748 2.13292 2.11836 
2.1038 2.08924 2.07468 2.06011 2.04555 2.03099 2.01643 2.00187 1.98731 
1.9777 1.97173 1.96576 1.95979 1.95381 1.94784 1.94187 1.9359 1.92993 
1.92395 1.91798 1.91201 1.90604 1.90007 1.89409 1.88812 1.88215 1.87618 
1.87021 1.86423 1.86 1.86 1.86 1.86 1.86 1.86 1.86 
1.86 1.86 1.86 1.86 1.86 1.86 1.86 1.86 1.86 
1.86 1.86 1.86 1.86 1.86 1.86 1.86 1.86 1.86 
1.86 1.86 1.86 1.86 1.86 1.86 1.86 1.86 1.86 
1.86 1.86 1.86 1.86 1.86 1.86 1.86 1.85999 1.85997 
1.85996 1.85995 1.85993 1.85992 1.8599 1.85989 1.85987 1.85986 1.85984 
1.85983 1.85981 1.8598 1.85978 1.85977 1.85975 1.85974 1.85972 1.85971 
1.85923 1.85815 1.85707 1.856 1.85492 1.85384 1.85276 1.85168 1.8506 
1.84952 1.84844 1.84736 1.84628 1.8452 1.84413 1.84305 1.84197 1.84089 
1.83981 1.83873 1.83682 1.83006 1.8233 1.81654 1.80978 1.80303 1.79627 
1.78951 1.78275 1.77599 1.76924 1.76248 1.75572 1.74896 1.74221 1.73545 
1.72869 1.72193 1.71517 1.70842 1.70166 1.69485 1.68803 1.68121 1.67439 
1.66757 1.66075 1.65393 1.64711 1.64029 1.63347 1.62665 1.61983 1.61301 
1.6062 1.59938 1.59256 1.58574 1.57892 1.5721 1.56528 1.56012 1.55619 
1.55226 1.54833 1.5444 1.54047 1.53655 1.53262 1.52869 1.52476 1.52083 
1.5169 1.51297 1.50904 1.50511 1.50118 1.49725 1.49332 1.48939 1.48546 
1.4816 1.4779 1.4742 1.47049 1.46679 1.46309 1.45939 1.45568 1.45198 
1.44828 1.44458 1.44087 1.43717 1.43347 1.42976 1.42606 1.42236 1.41866 
1.41495 1.41125 1.40754 1.39891 1.39029 1.38167 1.37305 1.36443 1.3558 
1.34718 1.33856 1.32994 1.32132 1.31269 1.30407 1.29545 1.28683 1.27821 
1.26959 1.26096 1.25234 1.24372 1.2351 1.22523 1.21488 1.20452 1.19417 
1.18382 1.17346 1.16311 1.15275 1.1424 1.13204 1.12169 1.11134 1.10098 
1.09063 1.08027 1.06992 1.05956 1.04921 1.03886 1.0285 1.02064 1.01607 
1.01151 1.00694 1.00238 0.997812 0.993247 0.988682 0.984117 0.979552 0.974987 
0.970422 0.965857 0.961292 0.956727 0.952162 0.947597 0.943032 0.938467 0.933902 
0.929999 0.929992 0.929985 0.929977 0.92997 0.929963 0.929956 0.929949 0.929941 
0.929934 0.929927 0.92992 0.929913 0.929905 0.929898 0.929891 0.929884 0.929877 
0.929869 0.929862 0.929855 0.927967 0.925766 0.923565 0.921364 0.919163 0.916962 
0.914761 0.91256 0.910359 0.908158 0.905957 0.903756 0.901555 0.899354 0.897153 
0.894952 0.892751 0.89055 0.888348 0.886147 0.8814 0.874773 0.868147 0.86152 
0.854894 0.848267 0.841641 0.835014 0.828388 0.821761 0.815135 0.808508 0.801882 
0.795255 0.788629 0.782002 0.775376 0.768749 0.762123 0.755497 0.748921 0.742475 
0.736029 0.729583 0.723137 0.716691 0.710245 0.703798 0.697352 0.690906 0.68446 
0.678014 0.671568 0.665122 0.658676 0.65223 0.645784 0.639338 0.632892 0.626446 
0.62 
TEXTURE_COORDINATES TCoords 2 float
0 0 0.000782473 0 0.00156495 0 0.00234742 0 0.00312989 
0 0.00391236 0 0.00469484 0 0.00547731 0 0.00625978 0 
0.00704225 0 0.00782473 0 0.0086072 0 0.00938967 0 0.0101721 
0 0.0109546 0 0.0117371 0 0.0125196 0 0.013302 0 
0.0140845 0 0.014867 0 0.0156495 0 0.0164319 0 0.0172144 
0 0.0179969 0 0.0187793 0 0.0195618 0 0.0203443 0 
0.0211268 0 0.0219092 0 0.0226917 0 0.0234742 0 0.0242567 
0 0.0250391 0 0.0258216 0 0.0266041 0 0.0273865 0 
0.028169 0 0.0289515 0 0.029734 0 0.0305164 0 0.0312989 
0 0.0320814 0 0.0328638 0 0.0336463 0 0.0344288 0 
0.0352113 0 0.0359937 0 0.0367762 0 0.0375587 0 0.0383412 
0 0.0391236 0 0.0399061 0 0.0406886 0 0.041471 0 
0.0422535 0 0.043036 0 0.0438185 0 0.0446009 0 0.0453834 
0 0.0461659 0 0.0469484 0 0.0477308 0 0.0485133 0 
0.0492958 0 0.0500782 0 0.0508607 0 0.0516432 0 0.0524257 
0 0.0532081 0 0.0539906 0 0.0547731 0 0.0555556 0 
0.056338 0 0.0571205 0 0.057903 0 0.0586854 0 0.0594679 
0 0.0602504 0 0.0610329 0 0.0618153 0 0.0625978 0 
0.0633803 0 0.0641628 0 0.0649452 0 0.0657277 0 0.0665102 
0 0.0672926 0 0.0680751 0 0.0688576 0 0.0696401 0 
0.0704225 0 0.071205 0 0.0719875 0 0.07277 0 0.0735524 
0 0.0743349 0 0.0751174 0 0.0758998 0 0.0766823 0 
0.0774648 0 0.0782473 0 0.0790297 0 0.0798122 0 0.0805947 
0 0.0813771 0 0.0821596 0 0.0829421 0 0.0837246 0 
0.084507 0 0.0852895 0 0.086072 0 0.0868545 0 0.0876369 
0 0.0884194 0 0.0892019 0 0.0899843 0 0.0907668 0 
0.0915493 0 0.0923318 0 0.0931142 0 0.0938967 0 0.0946792 
0 0.0954617 0 0.0962441 0 0.0970266 0 0.0978091 0 
0.0985916 0 0.099374 0 0.100156 0 0.100939 0 0.101721 
0 0.102504 0 0.103286 0 0.104069 0 0.104851 0 
0.105634 0 0.106416 0 0.107199 0 0.107981 0 0.108764 
0 0.109546 0 0.110329 0 0.111111 0 0.111894 0 
0.112676 0 0.113459 0 0.114241 0 0.115023 0 0.115806 
0 0.116588 0 0.117371 0 0.118153 0 0.118936 0 
0.119718 0 0.120501 0 0.121283 0 0.122066 0 0.122848 
0 0.123631 0 0.124413 0 0.125196 0 0.125978 0 
0.126761 0 0.127543 0 0.128326 0 0.129108 0 0.12989 
0 0.130673 0 0.131455 0 0.132238 0 0.13302 0 
0.133803 0 0.134585 0 0.135368 0 0.13615 0 0.136933 
0 0.137715 0 0.138498 0 0.13928 0 0.140063 0 
0.140845 0 0.141628 0 0.14241 0 0.143192 0 0.143975 
0 0.144757 0 0.14554 0 0.146322 0 0.147105 0 
0.147887 0 0.14867 0 0.149452 0 0.150235 0 0.151017 
0 0.1518 0 0.152582 0 0.153365 0 0.154147 0 
0.15493 0 0.155712 0 0.156495 0 0.157277 0 0.158059 
0 0.158842 0 0.159624 0 0.160407 0 0.161189 0 
0.161972 0 0.162754 0 0.163537 0 0.164319 0 0.165102 
0 0.165884 0 0.166667 0 0.167449 0 0.168232 0 
0.169014 0 0.169797 0 0.170579 0 0.171362 0 0.172144 
0 0.172926 0 0.173709 0 0.174491 0 0.175274 0 
0.176056 0 0.176839 0 0.177621 0 0.178404 0 0.179186 
0 0.179969 0 0.180751 0 0.181534 0 0.182316 0 
0.183099 0 0.183881 0 0.184664 0 0.185446 0 0.186228 
0 0.187011 0 0.187793 0 0.188576 0 0.189358 0 
0.190141 0 0.190923 0 0.191706 0 0.192488 0 0.193271 
0 0.194053 0 0.194836 0 0.195618 0 0.196401 0 
0.197183 0 0.197966 0 0.198748 0 0.199531 0 0.200313 
0 0.201095 0 0.201878 0 0.20266 0 0.203443 0 
0.204225 0 0.205008 0 0.20579 0 0.206573 0 0.207355 
0 0.208138 0 0.20892 0 0.209703 0 0.210485 0 
0.211268 0 0.21205 0 0.212833 0 0.213615 0 0.214397 
0 0.21518 0 0.215962 0 0.216745 0 0.217527 0 
0.21831 0 0.219092 0 0.219875 0 0.220657 0 0.22144 
0 0.222222 0 0.223005 0 0.223787 0 0.22457 0 
0.225352 0 0.226135 0 0.226917 0 0.2277 0 0.228482 
0 0.229264 0 0.230047 0 0.230829 0 0.231612 0 
0.232394 0 0.233177 0 0.233959 0 0.234742 0 0.235524 
0 0.236307 0 0.237089 0 0.237872 0 0.238654 0 
0.239437 0 0.240219 0 0.241002 0 0.241784 0 0.242567 
0 0.243349 0 0.244131 0 0.244914 0 0.245696 0 
0.246479 0 0.247261 0 0.248044 0 0.248826 0 0.249609 
0 0.250391 0 0.251174 0 0.251956 0 0.252739 0 
0.253521 0 0.254304 0 0.255086 0 0.255869 0 0.256651 
0 0.257434 0 0.258216 0 0.258998 0 0.259781 0 
0.260563 0 0.261346 0 0.262128 0 0.262911 0 0.263693 
0 0.264476 0 0.265258 0 0.266041 0 0.266823 0 
0.267606 0 0.268388 0 0.269171 0 0.269953 0 0.270736 
0 0.271518 0 0.2723 0 0.273083 0 0.273865 0 
0.274648 0 0.27543 0 0.276213 0 0.276995 0 0.277778 
0 0.27856 0 0.279343 0 0.280125 0 0.280908 0 
0.28169 0 0.282473 0 0.283255 0 0.284038 0 0.28482 
0 0.285603 0 0.286385 0 0.287167 0 0.28795 0 
0.288732 0 0.289515 0 0.290297 0 0.29108 0 0.291862 
0 0.292645 0 0.293427 0 0.29421 0 0.294992 0 
0.295775 0 0.296557 0 0.29734 0 0.298122 0 0.298905 
0 0.299687 0 0.300469 0 0.301252 0 0.302034 0 
0.302817 0 0.303599 0 0.304382 0 0.305164 0 0.305947 
0 0.306729 0 0.307512 0 0.308294 0 0.309077 0 
0.309859 0 0.310642 0 0.311424 0 0.312207 0 0.312989 
0 0.313772 0 0.314554 0 0.315336 0 0.316119 0 
0.316901 0 0.317684 0 0.318466 0 0.319249 0 0.320031 
0 0.320814 0 0.321596 0 0.322379 0 0.323161 0 
0.323944 0 0.324726 0 0.325509 0 0.326291 0 0.327074 
0 0.327856 0 0.328638 0 0.329421 0 0.330203 0 
0.330986 0 0.331768 0 0.332551 0 0.333333 0 0.334116 
0 0.334898 0 0.335681 0 0.336463 0 0.337246 0 
0.338028 0 0.338811 0 0.339593 0 0.340376 0 0.341158 
0 0.341941 0 0.342723 0 0.343505 0 0.344288 0 
0.34507 0 0.345853 0 0.346635 0 0.347418 0 0.3482 
0 0.348983 0 0.349765 0 0.350548 0 0.35133 0 
0.352113 0 0.352895 0 0.353678 0 0.35446 0 0.355243 
0 0.356025 0 0.356808 0 0.35759 0 0.358372 0 
0.359155 0 0.359937 0 0.36072 0 0.361502 0 0.362285 
0 0.363067 0 0.36385 0 0.364632 0 0.365415 0 
0.366197 0 0.36698 0 0.367762 0 0.368545 0 0.369327 
0 0.37011 0 0.370892 0 0.371674 0 0.372457 0 
0.373239 0 0.374022 0 0.374804 0 0.375587 0 0.376369 
0 0.377152 0 0.377934 0 0.378717 0 0.379499 0 
0.380282 0 0.381064 0 0.381847 0 0.382629 0 0.383412 
0 0.384194 0 0.384977 0 0.385759 0 0.386541 0 
0.387324 0 0.388106 0 0.388889 0 0.389671 0 0.390454 
0 0.391236 0 0.392019 0 0.392801 0 0.393584 0 
0.394366 0 0.395149 0 0.395931 0 0.396714 0 0.397496 
0 0.398279 0 0.399061 0 0.399844 0 0.400626 0 
0.401408 0 0.402191 0 0.402973 0 0.403756 0 0.404538 
0 0.405321 0 0.406103 0 0.406886 0 0.407668 0 
0.408451 0 0.409233 0 0.410016 0 0.410798 0 0.411581 
0 0.412363 0 0.413146 0 0.413928 0 0.41471 0 
0.415493 0 0.416275 0 0.417058 0 0.41784 0 0.418623 
0 0.419405 0 0.420188 0 0.42097 0 0.421753 0 
0.422535 0 0.423318 0 0.4241 0 0.424883 0 0.425665 
0 0.426448 0 0.42723 0 0.428013 0 0.428795 0 
0.429577 0 0.43036 0 0.431142 0 0.431925 0 0.432707 
0 0.43349 0 0.434272 0 0.435055 0 0.435837 0 
0.43662 0 0.437402 0 0.438185 0 0.438967 0 0.43975 
0 0.440532 0 0.441315 0 0.442097 0 0.442879 0 
0.443662 0 0.444444 0 0.445227 0 0.446009 0 0.446792 
0 0.447574 0 0.448357 0 0.449139 0 0.449922 0 
0.450704 0 0.451487 0 0.452269 0 0.453052 0 0.453834 
0 0.454617 0 0.455399 0 0.456182 0 0.456964 0 
0.457746 0 0.458529 0 0.459311 0 0.460094 0 0.460876 
0 0.461659 0 0.462441 0 0.463224 0 0.464006 0 
0.464789 0 0.465571 0 0.466354 0 0.467136 0 0.467919 
0 0.468701 0 0.469484 0 0.470266 0 0.471049 0 
0.471831 0 0.472613 0 0.473396 0 0.474178 0 0.474961 
0 0.475743 0 0.476526 0 0.477308 0 0.478091 0 
0.478873 0 0.479656 0 0.480438 0 0.481221 0 0.482003 
0 0.482786 0 0.483568 0 0.484351 0 0.485133 0 
0.485915 0 0.486698 0 0.48748 0 0.488263 0 0.489045 
0 0.489828 0 0.49061 0 0.491393 0 0.492175 0 
0.492958 0 0.49374 0 0.494523 0 0.495305 0 0.496088 
0 0.49687 0 0.497653 0 0.498435 0 0.499218 0 
0.5 0 0.500782 0 0.501565 0 0.502347 0 0.50313 
0 0.503912 0 0.504695 0 0.505477 0 0.50626 0 
0.507042 0 0.507825 0 0.508607 0 0.50939 0 0.510172 
0 0.510955 0 0.511737 0 0.51252 0 0.513302 0 
0.514085 0 0.514867 0 0.515649 0 0.516432 0 0.517214 
0 0.517997 0 0.518779 0 0.519562 0 0.520344 0 
0.521127 0 0.521909 0 0.522692 0 0.523474 0 0.524257 
0 0.525039 0 0.525822 0 0.526604 0 0.527387 0 
0.528169 0 0.528951 0 0.529734 0 0.530516 0 0.531299 
0 0.532081 0 0.532864 0 0.533646 0 0.534429 0 
0.535211 0 0.535994 0 0.536776 0 0.537559 0 0.538341 
0 0.539124 0 0.539906 0 0.540689 0 0.541471 0 
0.542253 0 0.543036 0 0.543818 0 0.544601 0 0.545383 
0 0.546166 0 0.546948 0 0.547731 0 0.548513 0 
0.549296 0 0.550078 0 0.550861 0 0.551643 0 0.552426 
0 0.553208 0 0.553991 0 0.554773 0 0.555556 0 
0.556338 0 0.557121 0 0.557903 0 0.558685 0 0.559468 
0 0.56025 0 0.561033 0 0.561815 0 0.562598 0 
0.56338 0 0.564163 0 0.564945 0 0.565728 0 0.56651 
0 0.567293 0 0.568075 0 0.568858 0 0.56964 0 
0.570423 0 0.571205 0 0.571988 0 0.57277 0 0.573552 
0 0.574335 0 0.575117 0 0.5759 0 0.576682 0 
0.577465 0 0.578247 0 0.57903 0 0.579812 0 0.580595 
0 0.581377 0 0.58216 0 0.582942 0 0.583725 0 
0.584507 0 0.58529 0 0.586072 0 0.586854 0 0.587637 
0 0.588419 0 0.589202 0 0.589984 0 0.590767 0 
0.591549 0 0.592332 0 0.593114 0 0.593897 0 0.594679 
0 0.595462 0 0.596244 0 0.597027 0 0.597809 0 
0.598592 0 0.599374 0 0.600156 0 0.600939 0 0.601721 
0 0.602504 0 0.603286 0 0.604069 0 0.604851 0 
0.605634 0 0.606416 0 0.607199 0 0.607981 0 0.608764 
0 0.609546 0 0.610329 0 0.611111 0 0.611894 0 
0.612676 0 0.613459 0 0.614241 0 0.615023 0 0.615806 
0 0.616588 0 0.617371 0 0.618153 0 0.618936 0 
0.619718 0 0.620501 0 0.621283 0 0.622066 0 0.622848 
0 0.623631 0 0.624413 0 0.625196 0 0.625978 0 
0.626761 0 0.627543 0 0.628326 0 0.629108 0 0.62989 
0 0.630673 0 0.631455 0 0.632238 0 0.63302 0 
0.633803 0 0.634585 0 0.635368 0 0.63615 0 0.636933 
0 0.637715 0 0.638498 0 0.63928 0 0.640063 0 
0.640845 0 0.641628 0 0.64241 0 0.643192 0 0.643975 
0 0.644757 0 0.64554 0 0.646322 0 0.647105 0 
0.647887 0 0.64867 0 0.649452 0 0.650235 0 0.651017 
0 0.6518 0 0.652582 0 0.653365 0 0.654147 0 
0.65493 0 0.655712 0 0.656494 0 0.657277 0 0.658059 
0 0.658842 0 0.659624 0 0.660407 0 0.661189 0 
0.661972 0 0.662754 0 0.663537 0 0.664319 0 0.665102 
0 0.665884 0 0.666667 0 0.667449 0 0.668232 0 