# vtk DataFile Version 4.2
vtk output
ASCII
DATASET POLYDATA
POINTS 1278 float
0 0 0 -0.00379019 0.00098008 -0.00121934 -0.0148516 0.00382166 -0.00476219 
-0.0327203 0.00837673 -0.0104558 -0.0569326 0.0144973 -0.0181273 -0.0870246 0.0220354 -0.027604 
-0.122532 0.030843 -0.038713 -0.162992 0.0407721 -0.0512817 -0.207941 0.0516747 -0.0651372 
-0.256913 0.0634029 -0.0801068 -0.309447 0.0758086 -0.0960177 -0.365077 0.0887438 -0.112697 
-0.42334 0.10206 -0.129972 -0.483773 0.115611 -0.14767 -0.54591 0.129247 -0.165618 
-0.60929 0.14282 -0.183644 -0.673447 0.156183 -0.201574 -0.737917 0.169187 -0.219236 
-0.802239 0.181685 -0.236457 -0.865946 0.193529 -0.253065 -0.928576 0.20457 -0.268886 
-0.989664 0.214661 -0.283747 -1.04889 0.223697 -0.297529 -1.1063 0.231698 -0.310254 
-1.16203 0.238706 -0.321973 -1.21622 0.244761 -0.332736 -1.26898 0.249905 -0.342592 
-1.32045 0.25418 -0.351591 -1.37076 0.257626 -0.359783 -1.42003 0.260284 -0.367218 
-1.46839 0.262197 -0.373946 -1.51597 0.263405 -0.380016 -1.5629 0.263949 -0.385478 
-1.6093 0.263872 -0.390383 -1.65532 0.263213 -0.394779 -1.70106 0.262015 -0.398718 
-1.74667 0.260319 -0.402247 -1.79227 0.258165 -0.405419 -1.83799 0.255596 -0.408281 
-1.88396 0.252652 -0.410884 -1.9303 0.249374 -0.413278 -1.97714 0.245803 -0.41551 
-2.02451 0.241946 -0.417592 -2.07236 0.237789 -0.41951 -2.12066 0.233318 -0.421248 
-2.16935 0.228517 -0.422791 -2.2184 0.223374 -0.424126 -2.26776 0.217872 -0.425236 
-2.3174 0.211998 -0.426107 -2.36726 0.205736 -0.426724 -2.41731 0.199073 -0.427072 
-2.4675 0.191994 -0.427137 -2.51779 0.184484 -0.426903 -2.56814 0.176529 -0.426355 
-2.6185 0.168114 -0.425479 -2.66883 0.159224 -0.42426 -2.7191 0.149846 -0.422682 
-2.76925 0.139964 -0.420731 -2.81925 0.129564 -0.418392 -2.86904 0.118632 -0.41565 
-2.9186 0.107153 -0.41249 -2.96787 0.0951113 -0.408898 -3.01683 0.0825006 -0.404864 
-3.06547 0.0693305 -0.400399 -3.11381 0.055614 -0.395514 -3.16185 0.0413643 -0.390221 
-3.20959 0.0265945 -0.384534 -3.25705 0.0113178 -0.378465 -3.30423 -0.00445274 -0.372025 
-3.35114 -0.020704 -0.365227 -3.39778 -0.0374229 -0.358084 -3.44417 -0.0545962 -0.350607 
-3.4903 -0.0722108 -0.34281 -3.53619 -0.0902537 -0.334703 -3.58185 -0.108712 -0.326301 
-3.62727 -0.127572 -0.317614 -3.67247 -0.14682 -0.308656 -3.71745 -0.166445 -0.299438 
-3.76223 -0.186432 -0.289973 -3.8068 -0.206768 -0.280273 -3.85117 -0.227441 -0.270351 
-3.89536 -0.248437 -0.260218 -3.93936 -0.269745 -0.249887 -3.98318 -0.291356 -0.239363 
-4.02683 -0.313265 -0.22865 -4.07029 -0.335467 -0.217752 -4.11357 -0.357957 -0.206674 
-4.15666 -0.380729 -0.195419 -4.19958 -0.403777 -0.183992 -4.24232 -0.427096 -0.172396 
-4.28488 -0.450681 -0.160636 -4.32725 -0.474527 -0.148715 -4.36945 -0.498627 -0.136638 
-4.41146 -0.522976 -0.12441 -4.4533 -0.547569 -0.112033 -4.49496 -0.572401 -0.0995121 
-4.53643 -0.597465 -0.0868514 -4.57773 -0.622757 -0.074055 -4.61884 -0.648271 -0.0611268 
-4.65978 -0.674001 -0.0480711 -4.70053 -0.699943 -0.0348917 -4.74111 -0.72609 -0.0215929 
-4.78151 -0.752438 -0.00817869 -4.82173 -0.77898 0.00534656 -4.86177 -0.805712 0.0189783 
-4.90166 -0.832627 0.0327121 -4.94138 -0.859721 0.0465432 -4.98094 -0.886987 0.0604673 
-5.02036 -0.914421 0.0744798 -5.05962 -0.942017 0.0885762 -5.09875 -0.96977 0.102752 
-5.13774 -0.997673 0.117002 -5.17659 -1.02572 0.131323 -5.21532 -1.05391 0.145709 
-5.25393 -1.08224 0.160157 -5.29243 -1.11069 0.174661 -5.33081 -1.13927 0.189218 
-5.36909 -1.16796 0.203821 -5.40726 -1.19677 0.218468 -5.44534 -1.22568 0.233154 
-5.48333 -1.2547 0.247873 -5.52123 -1.28381 0.262622 -5.55905 -1.31302 0.277396 
-5.59679 -1.34231 0.292191 -5.63446 -1.37168 0.307004 -5.67206 -1.40114 0.321832 
-5.70959 -1.43067 0.336672 -5.74706 -1.46028 0.351521 -5.78447 -1.48996 0.366376 
-5.82182 -1.5197 0.381235 -5.85912 -1.54952 0.396093 -5.89638 -1.5794 0.41095 
-5.93358 -1.60933 0.4258 -5.97074 -1.63933 0.440643 -6.00787 -1.66938 0.455473 
-6.04496 -1.69948 0.47029 -6.08201 -1.72963 0.485089 -6.11904 -1.75982 0.499867 
-6.15604 -1.79006 0.514623 -6.19302 -1.82034 0.529352 -6.22998 -1.85066 0.544053 
-6.26693 -1.88101 0.558721 -6.30386 -1.91139 0.573355 -6.34078 -1.9418 0.58795 
-6.3777 -1.97223 0.602505 -6.41462 -2.0027 0.617015 -6.45153 -2.03318 0.631478 
-6.48844 -2.06369 0.645891 -6.52536 -2.09422 0.66025 -6.56228 -2.12477 0.674553 
-6.59922 -2.15534 0.688797 -6.63616 -2.18592 0.702977 -6.67311 -2.21652 0.717092 
-6.71008 -2.24714 0.731137 -6.74706 -2.27776 0.745111 -6.78407 -2.30839 0.759009 
-6.8211 -2.33904 0.772829 -6.85815 -2.36969 0.786568 -6.89523 -2.40035 0.800222 
-6.93233 -2.43101 0.813788 -6.96947 -2.46167 0.827264 -7.00664 -2.49234 0.840646 
-7.04385 -2.523 0.853931 -7.0811 -2.55366 0.867116 -7.11838 -2.58433 0.880198 
-7.15571 -2.61499 0.893172 -7.19307 -2.64564 0.906036 -7.23048 -2.6763 0.918785 
-7.26792 -2.70696 0.931417 -7.30541 -2.73761 0.943928 -7.34294 -2.76827 0.956313 
-7.38051 -2.79892 0.96857 -7.41813 -2.82958 0.980696 -7.45578 -2.86023 0.992685 
-7.49348 -2.89089 1.00454 -7.53123 -2.92155 1.01624 -7.56902 -2.95221 1.02781 
-7.60685 -2.98287 1.03922 -7.64473 -3.01353 1.05048 -7.68266 -3.04419 1.06158 
-7.72063 -3.07486 1.07252 -7.75864 -3.10552 1.08329 -7.79671 -3.13619 1.0939 
-7.83482 -3.16687 1.10434 -7.87298 -3.19755 1.1146 -7.91118 -3.22823 1.12469 
-7.94942 -3.25893 1.13459 -7.98771 -3.28963 1.14429 -8.02602 -3.32036 1.15381 
-8.06437 -3.3511 1.16313 -8.10276 -3.38187 1.17224 -8.14117 -3.41266 1.18115 
-8.17961 -3.44347 1.18984 -8.21807 -3.47432 1.19832 -8.25655 -3.5052 1.20657 
-8.29505 -3.53612 1.2146 -8.33356 -3.56707 1.22239 -8.37209 -3.59807 1.22996 
-8.41063 -3.62911 1.23728 -8.44918 -3.6602 1.24435 -8.48773 -3.69135 1.25118 
-8.52628 -3.72254 1.25775 -8.56484 -3.75379 1.26407 -8.60339 -3.7851 1.27011 
-8.64194 -3.81648 1.2759 -8.68047 -3.84792 1.2814 -8.71899 -3.87944 1.28663 
-8.75747 -3.91104 1.29156 -8.79592 -3.94273 1.29621 -8.83433 -3.97451 1.30055 
-8.87268 -4.0064 1.30459 -8.91098 -4.03839 1.30831 -8.94921 -4.0705 1.31171 
-8.98736 -4.10273 1.31479 -9.02544 -4.13509 1.31754 -9.06343 -4.16758 1.31995 
-9.10132 -4.20021 1.32201 -9.13911 -4.23299 1.32372 -9.17678 -4.26592 1.32508 
-9.21434 -4.29902 1.32607 -9.25177 -4.33227 1.32669 -9.28907 -4.3657 1.32693 
-9.32623 -4.39931 1.32679 -9.36323 -4.43311 1.32627 -9.40008 -4.46709 1.32534 
-9.43676 -4.50128 1.32402 -9.47324 -4.53567 1.32228 -9.50951 -4.57027 1.32013 
-9.54555 -4.60508 1.31755 -9.58134 -4.64012 1.31455 -9.61685 -4.67539 1.31111 
-9.65208 -4.71089 1.30723 -9.68701 -4.74664 1.3029 -9.7216 -4.78263 1.29811 
-9.75585 -4.81887 1.29285 -9.78973 -4.85538 1.28713 -9.82323 -4.89215 1.28093 
-9.85633 -4.92919 1.27424 -9.889 -4.96651 1.26707 -9.92124 -5.00411 1.2594 
-9.95301 -5.042 1.25122 -9.9843 -5.08019 1.24253 -10.0151 -5.11868 1.23333 
-10.0454 -5.15748 1.2236 -10.0751 -5.1966 1.21333 -10.1043 -5.23602 1.20254 
-10.1329 -5.27574 1.19123 -10.161 -5.31576 1.1794 -10.1884 -5.35605 1.16705 
-10.2152 -5.39662 1.1542 -10.2414 -5.43744 1.14086 -10.267 -5.4785 1.12702 
-10.2919 -5.51981 1.1127 -10.3161 -5.56134 1.09789 -10.3397 -5.60309 1.08262 
-10.3625 -5.64505 1.06688 -10.3847 -5.6872 1.05067 -10.4061 -5.72953 1.03402 
-10.4267 -5.77204 1.01692 -10.4466 -5.81471 0.999372 -10.4658 -5.85754 0.981395 
-10.4841 -5.90051 0.962989 -10.5016 -5.94361 0.944161 -10.5184 -5.98684 0.924919 
-10.5342 -6.03017 0.905267 -10.5493 -6.07361 0.885216 -10.5635 -6.11714 0.864776 
-10.5769 -6.16075 0.84396 -10.5896 -6.20442 0.822781 -10.6014 -6.24816 0.801251 
-10.6124 -6.29194 0.779382 -10.6227 -6.33576 0.757185 -10.6323 -6.37961 0.734675 
-10.641 -6.42347 0.711862 -10.6491 -6.46733 0.688759 -10.6564 -6.51119 0.665378 
-10.6631 -6.55504 0.641732 -10.669 -6.59885 0.617833 -10.6743 -6.64263 0.593692 
-10.6789 -6.68636 0.569323 -10.6828 -6.73004 0.544738 -10.6861 -6.77364 0.519948 
-10.6888 -6.81716 0.494967 -10.6908 -6.86059 0.469805 -10.6922 -6.90391 0.444477 
-10.693 -6.94713 0.418991 -10.6933 -6.99024 0.393356 -10.693 -7.03323 0.367576 
-10.6921 -7.07612 0.341658 -10.6906 -7.11889 0.315606 -10.6886 -7.16155 0.289427 
-10.6861 -7.2041 0.263127 -10.6831 -7.24654 0.236711 -10.6796 -7.28887 0.210184 
-10.6756 -7.33109 0.183554 -10.6711 -7.3732 0.156824 -10.6661 -7.4152 0.130002 
-10.6607 -7.45708 0.103092 -10.6549 -7.49886 0.0761011 -10.6486 -7.54053 0.049034 
-10.6419 -7.58209 0.0218968 -10.6348 -7.62354 -0.00530489 -10.6273 -7.66488 -0.0325653 
-10.6194 -7.70611 -0.0598786 -10.6112 -7.74723 -0.0872393 -10.6026 -7.78824 -0.114642 
-10.5937 -7.82914 -0.142085 -10.5844 -7.86993 -0.169568 -10.5748 -7.91062 -0.197091 
-10.5648 -7.95119 -0.224652 -10.5546 -7.99166 -0.252253 -10.544 -8.03202 -0.279892 
-10.5331 -8.07227 -0.30757 -10.522 -8.11241 -0.335285 -10.5105 -8.15245 -0.363038 
-10.4988 -8.19237 -0.390828 -10.4868 -8.23219 -0.418655 -10.4745 -8.2719 -0.446518 
-10.462 -8.3115 -0.474418 -10.4492 -8.351 -0.502353 -10.4362 -8.39039 -0.530324 
-10.4229 -8.42967 -0.55833 -10.4094 -8.46885 -0.586371 -10.3957 -8.50791 -0.614446 
-10.3818 -8.54688 -0.642555 -10.3677 -8.58573 -0.670698 -10.3534 -8.62448 -0.698869 
-10.3388 -8.66314 -0.727056 -10.3241 -8.70171 -0.755251 -10.3092 -8.7402 -0.783441 
-10.294 -8.77861 -0.811618 -10.2786 -8.81696 -0.839769 -10.2631 -8.85525 -0.867884 
-10.2473 -8.89349 -0.895953 -10.2313 -8.93169 -0.923965 -10.215 -8.96985 -0.951909 
-10.1986 -9.00798 -0.979776 -10.1819 -9.04609 -1.00755 -10.165 -9.08418 -1.03523 
-10.1479 -9.12227 -1.0628 -10.1305 -9.16035 -1.09025 -10.113 -9.19845 -1.11757 
-10.0952 -9.23656 -1.14474 -10.0771 -9.27469 -1.17176 -10.0588 -9.31285 -1.19862 
-10.0403 -9.35105 -1.22531 -10.0216 -9.38928 -1.25182 -10.0026 -9.42754 -1.27818 
-9.98345 -9.46582 -1.30439 -9.9641 -9.50409 -1.33049 -9.94458 -9.54235 -1.35649 
-9.9249 -9.58058 -1.3824 -9.90509 -9.61876 -1.40826 -9.88515 -9.6569 -1.43408 
-9.8651 -9.69496 -1.45987 -9.84497 -9.73294 -1.48566 -9.82476 -9.77083 -1.51147 
-9.80449 -9.80861 -1.53731 -9.78418 -9.84627 -1.56321 -9.76384 -9.88379 -1.58918 
[...]
CELL_DATA 1
FIELD FieldData 2
Length 1 1 double
63.851770632 
Tortuosity 1 1 double
0.75949970606 
POINT_DATA 1278
SCALARS MaximumInscribedSphereRadius float
LOOKUP_TABLE default
1.24 1.24 1.24 1.24 1.24 1.24 1.24 1.24 1.24 
1.24 1.24 1.24 1.24 1.24 1.24 1.24 1.24 1.24 
1.24 1.24 1.24 1.24 1.24 1.24 1.24 1.24 1.24 
1.24 1.24 1.24 1.24 1.24 1.24 1.24 1.24 1.24 
1.24 1.24 1.24 1.24 1.24 1.24 1.24 1.24 1.24 
1.24 1.24 1.24 1.24 1.24 1.24 1.24 1.24 1.24 
1.24 1.24 1.24 1.24 1.24 1.24 1.24 1.24043 1.24373 
1.24703 1.25033 1.25363 1.25693 1.26023 1.26352 1.26682 1.27012 1.27342 
1.27672 1.28002 1.28332 1.28662 1.28991 1.29321 1.29651 1.29981 1.30311 
1.30641 1.314 1.3221 1.3302 1.33831 1.34641 1.35451 1.36261 1.37071 
1.37882 1.38692 1.39502 1.40312 1.41123 1.41933 1.42743 1.43553 1.44364 
1.45174 1.45984 1.46794 1.47349 1.47738 1.48127 1.48516 1.48904 1.49293 
1.49682 1.5007 1.50459 1.50848 1.51237 1.51625 1.52014 1.52403 1.52792 
1.5318 1.53569 1.53958 1.54346 1.54735 1.55 1.55 1.55 1.55 
1.55 1.55 1.55 1.55 1.55 1.55 1.55 1.55 1.55 
1.55 1.55 1.55 1.55 1.55 1.55 1.55 1.55 1.55 
1.55 1.55 1.55 1.55 1.55 1.55 1.55 1.55 1.55 
1.55 1.55 1.55 1.55 1.55 1.55 1.55 1.55 1.55 
1.55 1.5492 1.54813 1.54705 1.54597 1.5449 1.54382 1.54275 1.54167 
1.5406 1.53952 1.53845 1.53737 1.53629 1.53522 1.53414 1.53307 1.53199 
1.53092 1.52984 1.52877 1.52529 1.51895 1.5126 1.50626 1.49991 1.49357 
1.48723 1.48088 1.47454 1.46819 1.46185 1.4555 1.44916 1.44282 1.43647 
1.43013 1.42378 1.41744 1.4111 1.40475 1.39841 1.39207 1.38573 1.37939 
1.37306 1.36672 1.36038 1.35404 1.34771 1.34137 1.33503 1.32869 1.32236 
1.31602 1.30968 1.30334 1.297 1.29067 1.28433 1.27799 1.27165 1.27241 
1.27407 1.27574 1.2774 1.27907 1.28073 1.2824 1.28406 1.28573 1.28739 
1.28906 1.29072 1.29239 1.29405 1.29572 1.29738 1.29905 1.30071 1.30238 
1.30404 1.31554 1.33329 1.35105 1.3688 1.38655 1.40431 1.42206 1.43981 
1.45756 1.47532 1.49307 1.51082 1.52858 1.54633 1.56408 1.58184 1.59959 
1.61734 1.63509 1.65285 1.66955 1.68443 1.69932 1.7142 1.72909 1.74398 
1.75886 1.77375 1.78864 1.80352 1.81841 1.8333 1.84818 1.86307 1.87795 
1.89284 1.90773 1.92261 1.9375 1.95239 1.96535 1.96153 1.95772 1.95391 
1.9501 1.94628 1.94247 1.93866 1.93484 1.93103 1.92722 1.92341 1.91959 
1.91578 1.91197 1.90816 1.90434 1.90053 1.89672 1.8929 1.88909 1.87997 
1.8697 1.85943 1.84916 1.83889 1.82862 1.81835 1.80808 1.79781 1.78754 
1.77727 1.767 1.75672 1.74645 1.73618 1.72591 1.71564 1.70537 1.6951 
1.68483 1.67265 1.65883 1.64501 1.63119 1.61737 1.60355 1.58973 1.57591 
1.56209 1.54826 1.53444 1.52062 1.5068 1.49298 1.47916 1.46534 1.45152 
1.4377 1.42388 1.41006 1.39769 1.38981 1.38194 1.37406 1.36618 1.3583 
1.35042 1.34254 1.33466 1.32678 1.3189 1.31102 1.30314 1.29526 1.28738 
1.2795 1.27162 1.26374 1.25586 1.24798 1.2401 1.24094 1.24189 1.24284 
1.24379 1.24474 1.24569 1.24665 1.2476 1.24855 1.2495 1.25045 1.2514 
1.25235 1.2533 1.25425 1.25521 1.25616 1.25711 1.25806 1.25901 1.26389 
1.27116 1.27843 1.2857 1.29297 1.30024 1.30751 1.31478 1.32205 1.32933 
1.3366 1.34387 1.35114 1.35841 1.36568 1.37295 1.38022 1.38749 1.39476 
1.40203 1.40982 1.41812 1.42643 1.43473 1.44304 1.45134 1.45964 1.46795 
1.47625 1.48456 1.49286 1.50116 1.50947 1.51777 1.52608 1.53438 1.54268 
1.55099 1.55929 1.5676 1.57666 1.58601 1.59537 1.60473 1.61408 1.62344 
1.6328 1.64215 1.65151 1.66087 1.67022 1.67958 1.68894 1.69829 1.70765 
1.717 1.72636 1.73572 1.74507 1.75443 1.75914 1.76015 1.76117 1.76218 
1.76319 1.7642 1.76521 1.76622 1.76724 1.76825 1.76926 1.77027 1.77128 
1.7723 1.77331 1.77432 1.77533 1.77634 1.77735 1.77837 1.77748 1.76924 
1.761 1.75276 1.74452 1.73628 1.72804 1.71979 1.71155 1.70331 1.69507 
1.68683 1.67859 1.67034 1.6621 1.65386 1.64562 1.63738 1.62914 1.6209 
1.61265 1.62014 1.62874 1.63733 1.64593 1.65453 1.66313 1.67173 1.68032 
1.68892 1.69752 1.70612 1.71471 1.72331 1.73191 1.74051 1.7491 1.7577 
1.7663 1.7749 1.78349 1.79873 1.81765 1.83657 1.85549 1.87441 1.89333 
1.91225 1.93117 1.95009 1.96901 1.98793 2.00685 2.02577 2.04469 2.06361 
2.08253 2.10145 2.12037 2.13929 2.15821 2.16331 2.14424 2.12516 2.10609 
2.08702 2.06794 2.04887 2.02979 2.01072 1.99165 1.97257 1.9535 1.93442 
1.91535 1.89628 1.8772 1.85813 1.83906 1.81998 1.80091 1.78268 1.77111 
1.75954 1.74797 1.7364 1.72483 1.71326 1.70169 1.69013 1.67856 1.66699 
1.65542 1.64385 1.63228 1.62071 1.60914 1.59757 1.586 1.57443 1.56287 
1.5513 1.55 1.55 1.55 1.55 1.55 1.55 1.55 1.55 
1.55 1.55 1.55 1.55 1.55 1.55 1.55 1.55 1.55 
1.55 1.55 1.55 1.55 1.55 1.55 1.55 1.55 1.55 
1.55 1.55 1.55 1.55 1.55 1.55 1.55 1.55 1.55 
1.55 1.55 1.55 1.55 1.55 1.55113 1.5545 1.55787 1.56124 
1.5646 1.56797 1.57134 1.57471 1.57807 1.58144 1.58481 1.58818 1.59154 
1.59491 1.59828 1.60165 1.60501 1.60838 1.61175 1.61511 1.61868 1.62582 
1.63296 1.64011 1.64725 1.65439 1.66154 1.66868 1.67582 1.68297 1.69011 
1.69725 1.7044 1.71154 1.71869 1.72583 1.73297 1.74012 1.74726 1.7544 
1.76155 1.7612 1.75857 1.75593 1.75329 1.75066 1.74802 1.74539 1.74275 
1.74011 1.73748 1.73484 1.73221 1.72957 1.72693 1.7243 1.72166 1.71903 
1.71639 1.71375 1.71112 1.70223 1.68651 1.67079 1.65507 1.63935 1.62363 
1.60791 1.59219 1.57647 1.56075 1.54503 1.52931 1.51359 1.49787 1.48215 
1.46643 1.45071 1.43499 1.41927 1.40355 1.38946 1.38235 1.37523 1.36812 
1.36101 1.35389 1.34678 1.33967 1.33255 1.32544 1.31833 1.31121 1.3041 
1.29699 1.28988 1.28276 1.27565 1.26854 1.26142 1.25431 1.2472 1.24622 
1.2459 1.24558 1.24526 1.24494 1.24462 1.24429 1.24397 1.24365 1.24333 
1.24301 1.24269 1.24237 1.24205 1.24173 1.24141 1.24108 1.24076 1.24044 
1.24012 1.24095 1.24249 1.24403 1.24557 1.24711 1.24865 1.25019 1.25173 
1.25327 1.25481 1.25635 1.25788 1.25942 1.26096 1.2625 1.26404 1.26558 
1.26712 1.26866 1.2702 1.27288 1.27776 1.28264 1.28753 1.29241 1.29729 
1.30217 1.30705 1.31194 1.31682 1.3217 1.32658 1.33146 1.33635 1.34123 
1.34611 1.35099 1.35588 1.36076 1.36564 1.37122 1.38606 1.4009 1.41573 
1.43057 1.44541 1.46025 1.47509 1.48992 1.50476 1.5196 1.53444 1.54928 
1.56412 1.57895 1.59379 1.60863 1.62347 1.63831 1.65314 1.66798 1.67832 
1.68752 1.69672 1.70592 1.71512 1.72433 1.73353 1.74273 1.75193 1.76113 
1.77034 1.77954 1.78874 1.79794 1.80714 1.81635 1.82555 1.83475 1.84395 
1.85315 1.85772 1.85808 1.85843 1.85879 1.85915 1.85951 1.85986 1.86022 
1.86058 1.86094 1.86129 1.86165 1.86201 1.86237 1.86272 1.86308 1.86344 
1.8638 1.86415 1.86451 1.86472 1.86449 1.86425 1.86402 1.86378 1.86354 
1.86331 1.86307 1.86284 1.8626 1.86237 1.86213 1.86189 1.86166 1.86142 
1.86119 1.86095 1.86072 1.86048 1.86024 1.86001 1.86008 1.86017 1.86026 
1.86035 1.86044 1.86052 1.86061 1.8607 1.86079 1.86087 1.86096 1.86105 
1.86114 1.86123 1.86131 1.8614 1.86149 1.86158 1.86166 1.86175 1.86214 
1.86268 1.86322 1.86375 1.86429 1.86482 1.86536 1.8659 1.86643 1.86697 
1.86751 1.86804 1.86858 1.86912 1.86965 1.87019 1.87072 1.87126 1.8718 
1.87233 1.87372 1.87642 1.87913 1.88184 1.88454 1.88725 1.88996 1.89267 
1.89537 1.89808 1.90079 1.90349 1.9062 1.90891 1.91162 1.91432 1.91703 
1.91974 1.92244 1.92515 1.92828 1.9351 1.94191 1.94873 1.95555 1.96237 
1.96918 1.976 1.98282 1.98963 1.99645 2.00327 2.01009 2.0169 2.02372 
2.03054 2.03735 2.04417 2.05099 2.05781 2.06462 2.06753 2.06954 2.07155 
2.07357 2.07558 2.07759 2.0796 2.08162 2.08363 2.08564 2.08765 2.08967 
2.09168 2.09369 2.0957 2.09772 2.09973 2.10174 2.10375 2.10577 2.10252 
2.09454 2.08656 2.07858 2.0706 2.06261 2.05463 2.04665 2.03867 2.03069 
2.0227 2.01472 2.00674 1.99876 1.99078 1.98279 1.97481 1.96683 1.95885 
1.95087 1.94379 1.93961 1.93543 1.93125 1.92708 1.9229 1.91872 1.91454 
1.91036 1.90618 1.902 1.89782 1.89364 1.88946 1.88528 1.8811 1.87692 
1.87275 1.86857 1.86439 1.86021 1.86 1.86 1.86 1.86 1.86 
1.86 1.86 1.86 1.86 1.86 1.86 1.86 1.86 1.86 
1.86 1.86 1.86 1.86 1.86 1.86 1.86 1.86 1.86 
1.86 1.86 1.86 1.86 1.86 1.86 1.86 1.86 1.86 
1.86 1.86 1.86 1.86 1.86 1.86 1.86 1.86 1.86 
1.86 1.86 1.86 1.86 1.86 1.86 1.86 1.86 1.86 
1.86 1.86 1.86 1.86 1.86 1.86 1.86 1.86 1.86 
1.86 1.86002 1.86022 1.86043 1.86063 1.86084 1.86104 1.86124 1.86145 
1.86165 1.86186 1.86206 1.86226 1.86247 1.86267 1.86288 1.86308 1.86329 
1.86349 1.86369 1.8639 1.8641 1.86745 1.87149 1.87554 1.87959 1.88363 
1.88768 1.89172 1.89577 1.89982 1.90386 1.90791 1.91195 1.916 1.92004 
1.92409 1.92814 1.93218 1.93623 1.94027 1.94432 1.95188 1.96232 1.97277 
1.98321 1.99365 2.00409 2.01453 2.02498 2.03542 2.04586 2.0563 2.06674 
2.07719 2.08763 2.09807 2.10851 2.11895 2.12939 2.13984 2.15028 2.16199 
2.17704 2.19208 2.20713 2.22217 2.23722 2.25227 2.26731 2.28236 2.2974 
2.31245 2.3275 2.34254 2.35759 2.37263 2.38768 2.40273 2.41777 2.43282 
2.44786 2.46291 2.47366 2.48439 2.49512 2.50585 2.51658 2.52731 2.53804 
2.54876 2.55949 2.57022 2.58095 2.59168 2.60241 2.61314 2.62386 2.63459 
2.64532 2.65605 2.66678 2.67751 2.66513 2.64344 2.62175 2.60005 2.57836 
2.55667 2.53498 2.51328 2.49159 2.4699 2.4482 2.42651 2.40482 2.38313 
2.36143 2.33974 2.31805 2.29636 2.27466 2.25297 2.23471 2.22101 2.20731 
2.19361 2.17991 2.16621 2.15251 2.13881 2.12511 2.11141 2.09771 2.08402 
2.07032 2.05662 2.04292 2.02922 2.01552 2.00182 1.98812 1.97442 1.96503 
1.98257 2.00012 2.01767 2.03521 2.05276 2.07031 2.08786 2.1054 2.12295 
2.1405 2.15804 2.17559 2.19314 2.21068 2.22823 2.24578 2.26332 2.28087 
2.29842 2.31597 2.32478 2.33269 2.3406 2.34851 2.35642 2.36433 2.37223 
2.38014 2.38805 2.39596 2.40387 2.41178 2.41969 2.42759 2.4355 2.44341 
2.45132 2.45923 2.46714 2.47504 2.48231 2.48849 2.49467 2.50086 2.50704 
2.51322 2.5194 2.52558 2.53177 2.53795 2.54413 2.55031 2.5565 2.56268 
2.56886 2.57504 2.58122 2.58741 2.59359 2.59977 2.62165 2.64557 2.66949 
2.69341 2.71732 2.74124 2.76516 2.78908 2.81299 2.83691 2.86083 2.88474 
2.90866 2.93258 2.9565 2.98041 3.00433 3.02825 3.05217 3.07608 3.1 

TEXTURE_COORDINATES TCoords 2 float
0 0 0.000783085 0 0.00156617 0 0.00234926 0 0.00313234 
0 0.00391543 0 0.00469851 0 0.0054816 0 0.00626468 0 
0.00704777 0 0.00783085 0 0.00861394 0 0.00939702 0 0.0101801 
0 0.0109632 0 0.0117463 0 0.0125294 0 0.0133125 0 
0.0140955 0 0.0148786 0 0.0156617 0 0.0164448 0 0.0172279 
0 0.018011 0 0.018794 0 0.0195771 0 0.0203602 0 
0.0211433 0 0.0219264 0 0.0227095 0 0.0234926 0 0.0242756 
0 0.0250587 0 0.0258418 0 0.0266249 0 0.027408 0 
0.0281911 0 0.0289742 0 0.0297572 0 0.0305403 0 0.0313234 
0 0.0321065 0 0.0328896 0 0.0336727 0 0.0344558 0 
0.0352388 0 0.0360219 0 0.036805 0 0.0375881 0 0.0383712 
0 0.0391543 0 0.0399374 0 0.0407204 0 0.0415035 0 
0.0422866 0 0.0430697 0 0.0438528 0 0.0446359 0 0.045419 
0 0.046202 0 0.0469851 0 0.0477682 0 0.0485513 0 
0.0493344 0 0.0501175 0 0.0509005 0 0.0516836 0 0.0524667 
0 0.0532498 0 0.0540329 0 0.054816 0 0.0555991 0 
0.0563821 0 0.0571652 0 0.0579483 0 0.0587314 0 0.0595145 
0 0.0602976 0 0.0610807 0 0.0618637 0 0.0626468 0 
0.0634299 0 0.064213 0 0.0649961 0 0.0657792 0 0.0665623 
0 0.0673453 0 0.0681284 0 0.0689115 0 0.0696946 0 
0.0704777 0 0.0712608 0 0.0720439 0 0.0728269 0 0.07361 
0 0.0743931 0 0.0751762 0 0.0759593 0 0.0767424 0 
0.0775255 0 0.0783085 0 0.0790916 0 0.0798747 0 0.0806578 
0 0.0814409 0 0.082224 0 0.083007 0 0.0837901 0 
0.0845732 0 0.0853563 0 0.0861394 0 0.0869225 0 0.0877056 
0 0.0884886 0 0.0892717 0 0.0900548 0 0.0908379 0 
0.091621 0 0.0924041 0 0.0931872 0 0.0939702 0 0.0947533 
0 0.0955364 0 0.0963195 0 0.0971026 0 0.0978857 0 
0.0986688 0 0.0994518 0 0.100235 0 0.101018 0 0.101801 
0 0.102584 0 0.103367 0 0.10415 0 0.104933 0 
0.105717 0 0.1065 0 0.107283 0 0.108066 0 0.108849 
0 0.109632 0 0.110415 0 0.111198 0 0.111981 0 
0.112764 0 0.113547 0 0.11433 0 0.115114 0 0.115897 
0 0.11668 0 0.117463 0 0.118246 0 0.119029 0 
0.119812 0 0.120595 0 0.121378 0 0.122161 0 0.122944 
0 0.123727 0 0.124511 0 0.125294 0 0.126077 0 
0.12686 0 0.127643 0 0.128426 0 0.129209 0 0.129992 
0 0.130775 0 0.131558 0 0.132341 0 0.133125 0 
0.133908 0 0.134691 0 0.135474 0 0.136257 0 0.13704 
0 0.137823 0 0.138606 0 0.139389 0 0.140172 0 
0.140955 0 0.141738 0 0.142522 0 0.143305 0 0.144088 
0 0.144871 0 0.145654 0 0.146437 0 0.14722 0 
0.148003 0 0.148786 0 0.149569 0 0.150352 0 0.151135 
0 0.151919 0 0.152702 0 0.153485 0 0.154268 0 
0.155051 0 0.155834 0 0.156617 0 0.1574 0 0.158183 
0 0.158966 0 0.159749 0 0.160533 0 0.161316 0 
0.162099 0 0.162882 0 0.163665 0 0.164448 0 0.165231 
0 0.166014 0 0.166797 0 0.16758 0 0.168363 0 
0.169146 0 0.16993 0 0.170713 0 0.171496 0 0.172279 
0 0.173062 0 0.173845 0 0.174628 0 0.175411 0 
0.176194 0 0.176977 0 0.17776 0 0.178543 0 0.179327 
0 0.18011 0 0.180893 0 0.181676 0 0.182459 0 
0.183242 0 0.184025 0 0.184808 0 0.185591 0 0.186374 
0 0.187157 0 0.18794 0 0.188724 0 0.189507 0 
0.19029 0 0.191073 0 0.191856 0 0.192639 0 0.193422 
0 0.194205 0 0.194988 0 0.195771 0 0.196554 0 
0.197338 0 0.198121 0 0.198904 0 0.199687 0 0.20047 
0 0.201253 0 0.202036 0 0.202819 0 0.203602 0 
0.204385 0 0.205168 0 0.205951 0 0.206735 0 0.207518 
0 0.208301 0 0.209084 0 0.209867 0 0.21065 0 
0.211433 0 0.212216 0 0.212999 0 0.213782 0 0.214565 
0 0.215348 0 0.216132 0 0.216915 0 0.217698 0 
0.218481 0 0.219264 0 0.220047 0 0.22083 0 0.221613 
0 0.222396 0 0.223179 0 0.223962 0 0.224745 0 
0.225529 0 0.226312 0 0.227095 0 0.227878 0 0.228661 
0 0.229444 0 0.230227 0 0.23101 0 0.231793 0 
0.232576 0 0.233359 0 0.234143 0 0.234926 0 0.235709 
0 0.236492 0 0.237275 0 0.238058 0 0.238841 0 
0.239624 0 0.240407 0 0.24119 0 0.241973 0 0.242756 
0 0.24354 0 0.244323 0 0.245106 0 0.245889 0 
0.246672 0 0.247455 0 0.248238 0 0.249021 0 0.249804 
0 0.250587 0 0.25137 0 0.252153 0 0.252937 0 
0.25372 0 0.254503 0 0.255286 0 0.256069 0 0.256852 
0 0.257635 0 0.258418 0 0.259201 0 0.259984 0 
0.260767 0 0.261551 0 0.262334 0 0.263117 0 0.2639 
0 0.264683 0 0.265466 0 0.266249 0 0.267032 0 
0.267815 0 0.268598 0 0.269381 0 0.270164 0 0.270948 
0 0.271731 0 0.272514 0 0.273297 0 0.27408 0 
0.274863 0 0.275646 0 0.276429 0 0.277212 0 0.277995 
0 0.278778 0 0.279561 0 0.280345 0 0.281128 0 
0.281911 0 0.282694 0 0.283477 0 0.28426 0 0.285043 
0 0.285826 0 0.286609 0 0.287392 0 0.288175 0 
0.288958 0 0.289742 0 0.290525 0 0.291308 0 0.292091 
0 0.292874 0 0.293657 0 0.29444 0 0.295223 0 
0.296006 0 0.296789 0 0.297572 0 0.298356 0 0.299139 
0 0.299922 0 0.300705 0 0.301488 0 0.302271 0 
0.303054 0 0.303837 0 0.30462 0 0.305403 0 0.306186 
0 0.306969 0 0.307753 0 0.308536 0 0.309319 0 
0.310102 0 0.310885 0 0.311668 0 0.312451 0 0.313234 
0 0.314017 0 0.3148 0 0.315583 0 0.316366 0 
0.31715 0 0.317933 0 0.318716 0 0.319499 0 0.320282 
0 0.321065 0 0.321848 0 0.322631 0 0.323414 0 
0.324197 0 0.32498 0 0.325763 0 0.326547 0 0.32733 
0 0.328113 0 0.328896 0 0.329679 0 0.330462 0 
0.331245 0 0.332028 0 0.332811 0 0.333594 0 0.334377 
0 0.335161 0 0.335944 0 0.336727 0 0.33751 0 
0.338293 0 0.339076 0 0.339859 0 0.340642 0 0.341425 
0 0.342208 0 0.342991 0 0.343774 0 0.344558 0 
0.345341 0 0.346124 0 0.346907 0 0.34769 0 0.348473 
0 0.349256 0 0.350039 0 0.350822 0 0.351605 0 
0.352388 0 0.353171 0 0.353955 0 0.354738 0 0.355521 
0 0.356304 0 0.357087 0 0.35787 0 0.358653 0 
0.359436 0 0.360219 0 0.361002 0 0.361785 0 0.362569 
0 0.363352 0 0.364135 0 0.364918 0 0.365701 0 
0.366484 0 0.367267 0 0.36805 0 0.368833 0 0.369616 
0 0.370399 0 0.371182 0 0.371966 0 0.372749 0 
0.373532 0 0.374315 0 0.375098 0 0.375881 0 0.376664 
0 0.377447 0 0.37823 0 0.379013 0 0.379796 0 
0.380579 0 0.381363 0 0.382146 0 0.382929 0 0.383712 
0 0.384495 0 0.385278 0 0.386061 0 0.386844 0 
0.387627 0 0.38841 0 0.389193 0 0.389977 0 0.39076 
0 0.391543 0 0.392326 0 0.393109 0 0.393892 0 
0.394675 0 0.395458 0 0.396241 0 0.397024 0 0.397807 
0 0.39859 0 0.399374 0 0.400157 0 0.40094 0 
0.401723 0 0.402506 0 0.403289 0 0.404072 0 0.404855 
0 0.405638 0 0.406421 0 0.407204 0 0.407987 0 
0.408771 0 0.409554 0 0.410337 0 0.41112 0 0.411903 
0 0.412686 0 0.413469 0 0.414252 0 0.415035 0 
0.415818 0 0.416601 0 0.417385 0 0.418168 0 0.418951 
0 0.419734 0 0.420517 0 0.4213 0 0.422083 0 
0.422866 0 0.423649 0 0.424432 0 0.425215 0 0.425998 
0 0.426782 0 0.427565 0 0.428348 0 0.429131 0 
0.429914 0 0.430697 0 0.43148 0 0.432263 0 0.433046 
0 0.433829 0 0.434612 0 0.435395 0 0.436179 0 
0.436962 0 0.437745 0 0.438528 0 0.439311 0 0.440094 
0 0.440877 0 0.44166 0 0.442443 0 0.443226 0 
0.444009 0 0.444792 0 0.445576 0 0.446359 0 0.447142 
0 0.447925 0 0.448708 0 0.449491 0 0.450274 0 
0.451057 0 0.45184 0 0.452623 0 0.453406 0 0.45419 
0 0.454973 0 0.455756 0 0.456539 0 0.457322 0 
0.458105 0 0.458888 0 0.459671 0 0.460454 0 0.461237 
0 0.46202 0 0.462803 0 0.463587 0 0.46437 0 
0.465153 0 0.465936 0 0.466719 0 0.467502 0 0.468285 
0 0.469068 0 0.469851 0 0.470634 0 0.471417 0 
0.4722 0 0.472984 0 0.473767 0 0.47455 0 0.475333 
0 0.476116 0 0.476899 0 0.477682 0 0.478465 0 
0.479248 0 0.480031 0 0.480814 0 0.481597 0 0.482381 
0 0.483164 0 0.483947 0 0.48473 0 0.485513 0 
0.486296 0 0.487079 0 0.487862 0 0.488645 0 0.489428 
0 0.490211 0 0.490995 0 0.491778 0 0.492561 0 
0.493344 0 0.494127 0 0.49491 0 0.495693 0 0.496476 
0 0.497259 0 0.498042 0 0.498825 0 0.499608 0 
0.500392 0 0.501175 0 0.501958 0 0.502741 0 0.503524 
0 0.504307 0 0.50509 0 0.505873 0 0.506656 0 
0.507439 0 0.508222 0 0.509005 0 0.509789 0 0.510572 
0 0.511355 0 0.512138 0 0.512921 0 0.513704 0 
0.514487 0 0.51527 0 0.516053 0 0.516836 0 0.517619 
0 0.518403 0 0.519186 0 0.519969 0 0.520752 0 
0.521535 0 0.522318 0 0.523101 0 0.523884 0 0.524667 
0 0.52545 0 0.526233 0 0.527016 0 0.5278 0 
0.528583 0 0.529366 0 0.530149 0 0.530932 0 0.531715 
0 0.532498 0 0.533281 0 0.534064 0 0.534847 0 
0.53563 0 0.536413 0 0.537197 0 0.53798 0 0.538763 
0 0.539546 0 0.540329 0 0.541112 0 0.541895 0 
0.542678 0 0.543461 0 0.544244 0 0.545027 0 0.545811 
0 0.546594 0 0.547377 0 0.54816 0 0.548943 0 
0.549726 0 0.550509 0 0.551292 0 0.552075 0 0.552858 
0 0.553641 0 0.554424 0 0.555207 0 0.555991 0 
0.556774 0 0.557557 0 0.55834 0 0.559123 0 0.559906 
0 0.560689 0 0.561472 0 0.562255 0 0.563038 0 
0.563821 0 0.564605 0 0.565388 0 0.566171 0 0.566954 
0 0.567737 0 0.56852 0 0.569303 0 0.570086 0 
0.570869 0 0.571652 0 0.572435 0 0.573218 0 0.574002 
0 0.574785 0 0.575568 0 0.576351 0 0.577134 0 
0.577917 0 0.5787 0 0.579483 0 0.580266 0 0.581049 
0 0.581832 0 0.582615 0 0.583399 0 0.584182 0 
0.584965 0 0.585748 0 0.586531 0 0.587314 0 0.588097 
0 0.58888 0 0.589663 0 0.590446 0 0.591229 0 
0.592013 0 0.592796 0 0.593579 0 0.594362 0 0.595145 
0 0.595928 0 0.596711 0 0.597494 0 0.598277 0 
0.59906 0 0.599843 0 0.600626 0 0.60141 0 0.602193 
0 0.602976 0 0.603759 0 0.604542 0 0.605325 0 
0.606108 0 0.606891 0 0.607674 0 0.608457 0 0.60924 
0 0.610023 0 0.610807 0 0.61159 0 0.612373 0 
0.613156 0 0.613939 0 0.614722 0 0.615505 0 0.616288 
0 0.617071 0 0.617854 0 0.618637 0 0.619421 0 
0.620204 0 0.620987 0 0.62177 0 0.622553 0 0.623336 
0 0.624119 0 0.624902 0 0.625685 0 0.626468 0 
0.627251 0 0.628034 0 0.628818 0 0.629601 0 0.630384 
0 0.631167 0 0.63195 0 0.632733 0 0.633516 0 
0.634299 0 0.635082 0 0.635865 0 0.636648 0 0.637432 
0 0.638215 0 0.638998 0 0.639781 0 0.640564 0 
0.641347 0 0.64213 0 0.642913 0 0.643696 0 0.644479 
0 0.645262 0 0.646045 0 0.646829 0 0.647612 0 
0.648395 0 0.649178 0 0.649961 0 0.650744 0 0.651527 
0 0.65231 0 0.653093 0 0.653876 0 0.654659 0 
0.655442 0 0.656226 0 0.657009 0 0.657792 0 0.658575 
0 0.659358 0 0.660141 0 0.660924 0 0.661707 0 
0.66249 0 0.663273 0 0.664056 0 0.664839 0 0.665623 
0 0.666406 0 0.667189 0 0.667972 0 0.668755 0 
0.669538 0 0.670321 0 0.671104 0 0.671887 0 0.67267 
0 0.673453 0 0.674236 0 0.67502 0 0.675803 0 
0.676586 0 0.677369 0 0.678152 0 0.678935 0 0.679718 
0 0.680501 0 0.681284 0 0.682067 0 0.68285 0 
0.683634 0 0.684417 0 0.6852 0 0.685983 0 0.686766 
0 0.687549 0 0.688332 0 0.689115 0 0.689898 0 
0.690681 0 0.691464 0 0.692247 0 0.693031 0 0.693814 
0 0.694597 0 0.69538 0 0.696163 0 0.696946 0 
0.697729 0 0.698512 0 0.699295 0 0.700078 0 0.700861 
0 0.701644 0 0.702428 0 0.703211 0 0.703994 0 