# vtk DataFile Version 4.2
vtk output
ASCII
DATASET POLYDATA
POINTS 1278 float
0 0 0 -0.00325536 0.0023997 -0.000807111 -0.0127567 0.00939019 -0.00314106 
-0.0281069 0.0206586 -0.00687077 -0.048909 0.0358919 -0.0118652 -0.0747657 0.0547774 -0.0179932 
-0.10528 0.077002 -0.0251237 -0.140055 0.102253 -0.0331257 -0.178693 0.130217 -0.041868 
-0.220798 0.160582 -0.0512196 -0.265971 0.193034 -0.0610495 -0.313817 0.227261 -0.0712265 
-0.363938 0.26295 -0.0816195 -0.415937 0.299787 -0.0920976 -0.469416 0.33746 -0.10253 
-0.52398 0.375657 -0.112784 -0.57923 0.414063 -0.122731 -0.634769 0.452367 -0.132238 
-0.690201 0.490255 -0.141175 -0.745128 0.527415 -0.14941 -0.799154 0.563533 -0.156813 
-0.851882 0.598297 -0.163253 -0.903087 0.631528 -0.168653 -0.952847 0.663276 -0.173035 
-1.00127 0.69362 -0.176432 -1.04847 0.722637 -0.178873 -1.09456 0.750402 -0.180392 
-1.13964 0.776995 -0.181019 -1.18382 0.802492 -0.180787 -1.22722 0.826969 -0.179726 
-1.26994 0.850505 -0.177869 -1.3121 0.873176 -0.175248 -1.3538 0.89506 -0.171893 
-1.39516 0.916233 -0.167837 -1.43628 0.936773 -0.16311 -1.47728 0.956757 -0.157746 
-1.51826 0.976262 -0.151775 -1.55934 0.995365 -0.145229 -1.60062 1.01414 -0.13814 
-1.64222 1.03268 -0.130539 -1.68424 1.05104 -0.122458 -1.72679 1.0693 -0.113927 
-1.76989 1.08748 -0.104957 -1.81351 1.10554 -0.0955453 -1.85761 1.12346 -0.0856862 
-1.90215 1.14119 -0.0753761 -1.94709 1.15871 -0.0646106 -1.99239 1.17598 -0.0533854 
-2.03802 1.19297 -0.0416965 -2.08394 1.20965 -0.0295395 -2.1301 1.22597 -0.0169102 
-2.17647 1.24192 -0.0038044 -2.22302 1.25745 0.0097822 -2.26969 1.27254 0.0238538 
-2.31647 1.28714 0.0384146 -2.36329 1.30123 0.053469 -2.41014 1.31478 0.069021 
-2.45696 1.32775 0.085075 -2.50373 1.3401 0.101635 -2.5504 1.35181 0.118706 
-2.59693 1.36284 0.136291 -2.64329 1.37315 0.154395 -2.68945 1.38274 0.173016 
-2.73541 1.3916 0.192134 -2.78118 1.39976 0.211727 -2.82676 1.40724 0.231772 
-2.87217 1.41405 0.252247 -2.91742 1.42021 0.27313 -2.9625 1.42573 0.294399 
-3.00744 1.43065 0.31603 -3.05223 1.43497 0.338002 -3.09688 1.4387 0.360292 
-3.14141 1.44188 0.382879 -3.18582 1.44452 0.405738 -3.23011 1.44663 0.428849 
-3.27431 1.44824 0.452189 -3.3184 1.44935 0.475736 -3.36241 1.45 0.499466 
-3.40634 1.45019 0.523358 -3.45019 1.44994 0.54739 -3.49398 1.44927 0.571539 
-3.53771 1.44821 0.595782 -3.5814 1.44676 0.6201 -3.62503 1.44494 0.644484 
-3.66862 1.44274 0.668931 -3.71216 1.44018 0.693437 -3.75565 1.43727 0.717998 
-3.79909 1.434 0.742609 -3.84248 1.43039 0.767268 -3.88582 1.42643 0.79197 
-3.92911 1.42215 0.816711 -3.97236 1.41753 0.841488 -4.01555 1.41259 0.866296 
-4.0587 1.40734 0.891131 -4.1018 1.40178 0.915991 -4.14484 1.39591 0.94087 
-4.18784 1.38974 0.965765 -4.23079 1.38328 0.990672 -4.27368 1.37653 1.01559 
-4.31653 1.36951 1.04051 -4.35933 1.36221 1.06543 -4.40207 1.35464 1.09034 
-4.44477 1.3468 1.11525 -4.48742 1.33871 1.14015 -4.53001 1.33037 1.16504 
-4.57256 1.32179 1.18992 -4.61507 1.31296 1.21479 -4.65753 1.30391 1.23964 
-4.69994 1.29463 1.26448 -4.74232 1.28513 1.28932 -4.78465 1.27542 1.31413 
-4.82694 1.26551 1.33893 -4.86919 1.25539 1.36372 -4.91141 1.24508 1.3885 
-4.95359 1.23459 1.41325 -4.99573 1.22391 1.43799 -5.03784 1.21306 1.46272 
-5.07992 1.20205 1.48742 -5.12196 1.19087 1.51211 -5.16397 1.17953 1.53678 
-5.20596 1.16805 1.56142 -5.24791 1.15642 1.58605 -5.28984 1.14466 1.61066 
-5.33175 1.13277 1.63525 -5.37362 1.12075 1.65982 -5.41547 1.1086 1.68437 
-5.45729 1.09633 1.70891 -5.49908 1.08394 1.73344 -5.54084 1.07144 1.75796 
-5.58257 1.05882 1.78247 -5.62427 1.04609 1.80698 -5.66593 1.03324 1.83149 
-5.70756 1.0203 1.856 -5.74916 1.00725 1.88051 -5.79072 0.994096 1.90503 
-5.83225 0.980846 1.92955 -5.87374 0.967501 1.95408 -5.9152 0.954064 1.97863 
-5.95661 0.940537 2.00318 -5.99799 0.926923 2.02776 -6.03933 0.913224 2.05235 
-6.08063 0.899444 2.07697 -6.12189 0.885585 2.10161 -6.16311 0.87165 2.12627 
-6.20428 0.85764 2.15096 -6.24541 0.843558 2.17568 -6.28651 0.829404 2.20043 
-6.32755 0.81518 2.22521 -6.36856 0.800888 2.25002 -6.40952 0.78653 2.27486 
-6.45044 0.772107 2.29974 -6.49132 0.757621 2.32465 -6.53215 0.743074 2.34959 
-6.57294 0.728466 2.37458 -6.61368 0.7138 2.3996 -6.65438 0.699077 2.42466 
-6.69504 0.6843 2.44977 -6.73565 0.669469 2.47491 -6.77621 0.654586 2.5001 
-6.81673 0.639652 2.52533 -6.8572 0.62467 2.55061 -6.89763 0.609642 2.57594 
-6.93801 0.594567 2.60131 -6.97834 0.579449 2.62673 -7.01863 0.564288 2.6522 
-7.05886 0.549085 2.67772 -7.09906 0.533839 2.70329 -7.1392 0.518552 2.72891 
-7.1793 0.503224 2.75458 -7.21935 0.487856 2.7803 -7.25935 0.472447 2.80606 
-7.2993 0.456998 2.83188 -7.3392 0.441511 2.85775 -7.37906 0.425984 2.88367 
-7.41887 0.41042 2.90964 -7.45863 0.394817 2.93566 -7.49834 0.379178 2.96174 
-7.538 0.363501 2.98786 -7.57761 0.347789 3.01403 -7.61718 0.33204 3.04026 
-7.65669 0.316256 3.06654 -7.69616 0.300438 3.09286 -7.73557 0.284584 3.11924 
-7.77493 0.268697 3.14568 -7.81425 0.252776 3.17216 -7.85352 0.236818 3.19869 
-7.89273 0.220822 3.22527 -7.93191 0.204786 3.25189 -7.97103 0.188708 3.27856 
-8.01011 0.172587 3.30526 -8.04915 0.156421 3.33201 -8.08815 0.140209 3.35879 
-8.1271 0.123947 3.3856 -8.16601 0.107635 3.41245 -8.20488 0.0912706 3.43932 
-8.24371 0.0748522 3.46622 -8.2825 0.058378 3.49315 -8.32126 0.0418462 3.5201 
-8.35998 0.025255 3.54707 -8.39866 0.0086027 3.57406 -8.43731 -0.00811254 3.60107 
-8.47592 -0.0248925 3.62809 -8.51451 -0.0417389 3.65513 -8.55306 -0.0586536 3.68217 
-8.59158 -0.0756384 3.70922 -8.63006 -0.0926953 3.73628 -8.66852 -0.109826 3.76334 
-8.70695 -0.127034 3.79039 -8.74535 -0.144319 3.81744 -8.78371 -0.161685 3.84447 
-8.82205 -0.179133 3.87149 -8.86036 -0.196665 3.89849 -8.89864 -0.214284 3.92547 
-8.93689 -0.231992 3.95243 -8.97512 -0.249789 3.97935 -9.01331 -0.26768 4.00624 
-9.05148 -0.285664 4.03309 -9.08962 -0.303746 4.05991 -9.12773 -0.321926 4.08668 
-9.16581 -0.340206 4.1134 -9.20387 -0.35859 4.14006 -9.2419 -0.377078 4.16667 
-9.27991 -0.395673 4.19323 -9.31789 -0.414377 4.21971 -9.35584 -0.433193 4.24613 
-9.39378 -0.452136 4.27247 -9.4317 -0.471223 4.29869 -9.46962 -0.490471 4.32479 
-9.50755 -0.509899 4.35074 -9.54549 -0.529523 4.37653 -9.58345 -0.549362 4.40212 
-9.62144 -0.569431 4.4275 -9.65947 -0.58975 4.45266 -9.69755 -0.610335 4.47756 
-9.73568 -0.631205 4.50219 -9.77387 -0.652375 4.52653 -9.81213 -0.673865 4.55056 
-9.85046 -0.695691 4.57425 -9.88888 -0.717872 4.59759 -9.9274 -0.740423 4.62055 
-9.96602 -0.763364 4.64312 -10.0047 -0.786711 4.66528 -10.0436 -0.810482 4.68699 
-10.0826 -0.834695 4.70825 -10.1217 -0.859366 4.72903 -10.1609 -0.884504 4.74929 
-10.2002 -0.910113 4.76897 -10.2396 -0.936195 4.78803 -10.279 -0.962751 4.80639 
-10.3184 -0.989785 4.824 -10.3578 -1.0173 4.84081 -10.3972 -1.04529 4.85675 
-10.4365 -1.07378 4.87178 -10.4756 -1.10274 4.88583 -10.5147 -1.1322 4.89885 
-10.5535 -1.16215 4.91078 -10.5922 -1.19259 4.92156 -10.6307 -1.22353 4.93114 
-10.6689 -1.25497 4.93945 -10.7068 -1.28691 4.94645 -10.7445 -1.31935 4.95207 
-10.7818 -1.3523 4.95626 -10.8187 -1.38576 4.95896 -10.8552 -1.41973 4.96011 
-10.8914 -1.45422 4.95966 -10.9271 -1.4892 4.95759 -10.9623 -1.52465 4.95392 
-10.997 -1.56052 4.9487 -11.0312 -1.59677 4.94197 -11.0649 -1.63337 4.93377 
-11.0981 -1.67028 4.92412 -11.1306 -1.70746 4.91308 -11.1625 -1.74486 4.90069 
-11.1939 -1.78246 4.88697 -11.2245 -1.82021 4.87196 -11.2546 -1.85806 4.85572 
-11.2839 -1.896 4.83827 -11.3125 -1.93396 4.81966 -11.3403 -1.97192 4.79992 
-11.3674 -2.00984 4.77909 -11.3937 -2.04767 4.75721 -11.4193 -2.08538 4.73432 
-11.444 -2.12293 4.71045 -11.4678 -2.16027 4.68566 -11.4908 -2.19738 4.65996 
-11.5128 -2.23423 4.63341 -11.5341 -2.27082 4.60604 -11.5545 -2.30716 4.57789 
-11.5741 -2.34327 4.54899 -11.5929 -2.37915 4.51938 -11.611 -2.41481 4.48909 
-11.6283 -2.45026 4.45817 -11.6449 -2.48552 4.42664 -11.6609 -2.52059 4.39455 
-11.6762 -2.55548 4.36193 -11.6909 -2.5902 4.32882 -11.705 -2.62477 4.29525 
-11.7185 -2.65918 4.26127 -11.7315 -2.69346 4.2269 -11.7439 -2.72761 4.19219 
-11.7559 -2.76164 4.15716 -11.7674 -2.79555 4.12187 -11.7784 -2.82937 4.08634 
-11.7891 -2.8631 4.05061 -11.7993 -2.89675 4.01472 -11.8092 -2.93033 3.97869 
-11.8187 -2.96384 3.94255 -11.8279 -2.99729 3.90629 -11.8367 -3.03067 3.86993 
-11.8451 -3.064 3.83346 -11.8532 -3.09728 3.79688 -11.861 -3.1305 3.76021 
-11.8684 -3.16367 3.72345 -11.8754 -3.1968 3.6866 -11.8822 -3.22988 3.64966 
-11.8885 -3.26293 3.61265 -11.8945 -3.29593 3.57556 -11.9002 -3.3289 3.5384 
-11.9056 -3.36185 3.50117 -11.9106 -3.39476 3.46387 -11.9152 -3.42764 3.42652 
-11.9196 -3.46051 3.38912 -11.9236 -3.49335 3.35166 -11.9273 -3.52618 3.31416 
-11.9306 -3.559 3.27662 -11.9336 -3.5918 3.23904 -11.9363 -3.62459 3.20143 
-11.9387 -3.65739 3.16379 -11.9407 -3.69018 3.12612 -11.9425 -3.72297 3.08844 
-11.9439 -3.75577 3.05074 -11.9449 -3.78858 3.01303 -11.9457 -3.8214 2.97532 
-11.9461 -3.85424 2.9376 -11.9463 -3.8871 2.89989 -11.9461 -3.91999 2.86219 
-11.9455 -3.9529 2.82449 -11.9447 -3.98584 2.78682 -11.9436 -4.01881 2.74916 
-11.9421 -4.05182 2.71153 -11.9403 -4.08488 2.67394 -11.9382 -4.11797 2.63637 
-11.9358 -4.15112 2.59885 -11.9331 -4.18431 2.56137 -11.9301 -4.21756 2.52393 
-11.9268 -4.25087 2.48655 -11.9231 -4.28424 2.44923 -11.9192 -4.31767 2.41198 
-11.9149 -4.35116 2.37481 -11.9103 -4.38471 2.33772 -11.9054 -4.41833 2.30073 
-11.9002 -4.452 2.26385 -11.8947 -4.48573 2.22709 -11.8889 -4.51953 2.19045 
-11.8827 -4.55338 2.15396 -11.8762 -4.5873 2.1176 -11.8695 -4.62128 2.08141 
-11.8623 -4.65532 2.04538 -11.8549 -4.68942 2.00952 -11.8472 -4.72358 1.97385 
-11.8391 -4.75781 1.93838 -11.8307 -4.79209 1.90311 -11.822 -4.82644 1.86805 
-11.8129 -4.86085 1.83322 -11.8036 -4.89532 1.79863 -11.7939 -4.92985 1.76427 
-11.7839 -4.96445 1.73017 -11.7735 -4.99912 1.69632 -11.7628 -5.03387 1.66271 
-11.7518 -5.06872 1.62934 -11.7404 -5.10368 1.5962 -11.7286 -5.13876 1.5633 
-11.7164 -5.17396 1.53063 -11.7039 -5.20931 1.49817 -11.691 -5.24481 1.46594 
[...]
CELL_DATA 1
FIELD FieldData 2
Length 1 1 double
63.864148511 
Tortuosity 1 1 double
1.0713196799 
POINT_DATA 1278
SCALARS MaximumInscribedSphereRadius float
LOOKUP_TABLE default
1.2772 1.27631 1.27541 1.27452 1.27362 1.27273 1.27183 1.27094 1.27004 
1.26915 1.26825 1.26736 1.26646 1.26557 1.26467 1.26378 1.26288 1.26199 
1.2611 1.2602 1.25931 1.25848 1.25782 1.25716 1.2565 1.25584 1.25518 
1.25452 1.25386 1.2532 1.25254 1.25188 1.25122 1.25056 1.2499 1.24924 
1.24858 1.24792 1.24726 1.2466 1.24594 1.24695 1.24905 1.25116 1.25326 
1.25537 1.25747 1.25958 1.26168 1.26378 1.26589 1.26799 1.2701 1.2722 
1.2743 1.27641 1.27851 1.28062 1.28272 1.28483 1.28693 1.28962 1.29603 
1.30243 1.30884 1.31525 1.32166 1.32807 1.33447 1.34088 1.34729 1.3537 
1.36011 1.36651 1.37292 1.37933 1.38574 1.39215 1.39856 1.40496 1.41137 
1.41778 1.42096 1.42377 1.42658 1.4294 1.43221 1.43502 1.43784 1.44065 
1.44346 1.44627 1.44909 1.4519 1.45471 1.45753 1.46034 1.46315 1.46597 
1.46878 1.47159 1.4744 1.47212 1.46649 1.46086 1.45523 1.4496 1.44397 
1.43834 1.43271 1.42708 1.42145 1.41581 1.41018 1.40455 1.39892 1.39329 
1.38766 1.38203 1.3764 1.37077 1.36514 1.36101 1.36011 1.35921 1.35831 
1.3574 1.3565 1.3556 1.3547 1.35379 1.35289 1.35199 1.35109 1.35018 
1.34928 1.34838 1.34748 1.34657 1.34567 1.34477 1.34387 1.34305 1.34494 
1.34684 1.34873 1.35063 1.35252 1.35442 1.35631 1.35821 1.3601 1.362 
1.36389 1.36578 1.36768 1.36957 1.37147 1.37336 1.37526 1.37715 1.37905 
1.38094 1.38465 1.38898 1.39331 1.39765 1.40198 1.40631 1.41065 1.41498 
1.41931 1.42364 1.42798 1.43231 1.43664 1.44097 1.44531 1.44964 1.45397 
1.45831 1.46264 1.46697 1.47183 1.47732 1.48281 1.4883 1.49379 1.49928 
1.50477 1.51026 1.51575 1.52124 1.52673 1.53222 1.53771 1.5432 1.54869 
1.55418 1.55967 1.56516 1.57065 1.57614 1.58274 1.59487 1.607 1.61912 
1.63125 1.64338 1.65551 1.66763 1.67976 1.69189 1.70402 1.71614 1.72827 
1.7404 1.75253 1.76466 1.77678 1.78891 1.80104 1.81317 1.82529 1.82698 
1.8273 1.82763 1.82795 1.82827 1.8286 1.82892 1.82925 1.82957 1.8299 
1.83022 1.83055 1.83087 1.83119 1.83152 1.83184 1.83217 1.83249 1.83282 
1.83314 1.81772 1.79036 1.763 1.73564 1.70828 1.68093 1.65357 1.62621 
1.59885 1.57149 1.54413 1.51678 1.48942 1.46206 1.4347 1.40734 1.37999 
1.35263 1.32527 1.29791 1.28192 1.2893 1.29668 1.30405 1.31143 1.31881 
1.32618 1.33356 1.34094 1.34831 1.35569 1.36307 1.37044 1.37782 1.3852 
1.39257 1.39995 1.40732 1.4147 1.42208 1.42857 1.43239 1.43621 1.44003 
1.44385 1.44767 1.45149 1.45532 1.45914 1.46296 1.46678 1.4706 1.47442 
1.47824 1.48207 1.48589 1.48971 1.49353 1.49735 1.50117 1.50499 1.49686 
1.48715 1.47744 1.46772 1.45801 1.4483 1.43859 1.42888 1.41916 1.40945 
1.39974 1.39003 1.38032 1.3706 1.36089 1.35118 1.34147 1.33176 1.32205 
1.31233 1.30703 1.30449 1.30196 1.29942 1.29688 1.29434 1.29181 1.28927 
1.28673 1.2842 1.28166 1.27912 1.27658 1.27405 1.27151 1.26897 1.26644 
1.2639 1.26136 1.25882 1.25729 1.25781 1.25832 1.25884 1.25935 1.25987 
1.26039 1.2609 1.26142 1.26193 1.26245 1.26297 1.26348 1.264 1.26452 
1.26503 1.26555 1.26606 1.26658 1.2671 1.26795 1.27634 1.28473 1.29312 
1.30151 1.3099 1.31829 1.32668 1.33507 1.34346 1.35185 1.36024 1.36863 
1.37702 1.38541 1.3938 1.40219 1.41058 1.41897 1.42736 1.43575 1.43803 
1.43825 1.43847 1.43869 1.43891 1.43913 1.43935 1.43957 1.43979 1.44001 
1.44023 1.44045 1.44067 1.44089 1.44111 1.44133 1.44155 1.44177 1.44199 
1.44221 1.44567 1.45365 1.46163 1.46961 1.47758 1.48556 1.49354 1.50152 
1.5095 1.51748 1.52546 1.53343 1.54141 1.54939 1.55737 1.56535 1.57333 
1.58131 1.58928 1.6034 1.62763 1.65187 1.6761 1.70033 1.72457 1.7488 
1.77303 1.79727 1.8215 1.84573 1.86997 1.8942 1.91843 1.94267 1.9669 
1.99113 2.01536 2.0396 2.06383 2.08806 2.10956 2.12751 2.14546 2.16341 
2.18136 2.19931 2.21726 2.23521 2.25316 2.27111 2.28906 2.30701 2.32496 
2.34291 2.36086 2.37881 2.39676 2.41471 2.43266 2.45061 2.46607 2.47648 
2.48689 2.4973 2.50772 2.51813 2.52854 2.53896 2.54937 2.55978 2.5702 
2.58061 2.59102 2.60144 2.61185 2.62226 2.63267 2.64309 2.6535 2.66391 
2.67429 2.67603 2.67777 2.67951 2.68125 2.683 2.68474 2.68648 2.68822 
2.68996 2.6917 2.69345 2.69519 2.69693 2.69867 2.70041 2.70215 2.7039 
2.70564 2.70738 2.70912 2.70416 2.69666 2.68916 2.68166 2.67415 2.66665 
2.65915 2.65164 2.64414 2.63664 2.62914 2.62163 2.61413 2.60663 2.59912 
2.59162 2.58412 2.57662 2.56911 2.56161 2.55087 2.53594 2.52102 2.50609 
2.49117 2.47624 2.46131 2.44639 2.43146 2.41654 2.40161 2.38668 2.37176 
2.35683 2.3419 2.32698 2.31205 2.29713 2.2822 2.26727 2.25191 2.23408 
2.21625 2.19842 2.18059 2.16275 2.14492 2.12709 2.10926 2.09143 2.0736 
2.05576 2.03793 2.0201 2.00227 1.98444 1.96661 1.94877 1.93094 1.91311 
1.89528 1.89067 1.88813 1.88558 1.88303 1.88048 1.87793 1.87538 1.87283 
1.87028 1.86774 1.86519 1.86264 1.86009 1.85754 1.85499 1.85244 1.8499 
1.84735 1.8448 1.84225 1.83764 1.83169 1.82574 1.81978 1.81383 1.80788 
1.80192 1.79597 1.79002 1.78406 1.77811 1.77216 1.7662 1.76025 1.7543 
1.74834 1.74239 1.73644 1.73048 1.72453 1.71914 1.7149 1.71066 1.70642 
1.70219 1.69795 1.69371 1.68947 1.68523 1.68099 1.67675 1.67252 1.66828 
1.66404 1.6598 1.65556 1.65132 1.64708 1.64284 1.63861 1.63484 1.6411 
1.64736 1.65362 1.65988 1.66614 1.6724 1.67865 1.68491 1.69117 1.69743 
1.70369 1.70995 1.71621 1.72246 1.72872 1.73498 1.74124 1.7475 1.75376 
1.76002 1.75779 1.75294 1.7481 1.74326 1.73842 1.73357 1.72873 1.72389 
1.71905 1.7142 1.70936 1.70452 1.69967 1.69483 1.68999 1.68515 1.6803 
1.67546 1.67062 1.66577 1.65511 1.6382 1.62129 1.60438 1.58747 1.57056 
1.55365 1.53674 1.51984 1.50293 1.48602 1.46911 1.4522 1.43529 1.41838 
1.40147 1.38456 1.36766 1.35075 1.33384 1.32261 1.3333 1.34398 1.35467 
1.36535 1.37604 1.38672 1.39741 1.40809 1.41878 1.42946 1.44015 1.45083 
1.46152 1.47221 1.48289 1.49358 1.50426 1.51495 1.52563 1.53632 1.55106 
1.56608 1.5811 1.59612 1.61114 1.62617 1.64119 1.65621 1.67123 1.68625 
1.70127 1.71629 1.73132 1.74634 1.76136 1.77638 1.7914 1.80642 1.82144 
1.83647 1.83611 1.82775 1.81939 1.81103 1.80267 1.7943 1.78594 1.77758 
1.76922 1.76086 1.7525 1.74414 1.73577 1.72741 1.71905 1.71069 1.70233 
1.69397 1.6856 1.67724 1.67071 1.66725 1.66379 1.66032 1.65686 1.6534 
1.64994 1.64648 1.64302 1.63955 1.63609 1.63263 1.62917 1.62571 1.62224 
1.61878 1.61532 1.61186 1.6084 1.60494 1.60241 1.60995 1.61749 1.62502 
1.63256 1.6401 1.64764 1.65517 1.66271 1.67025 1.67778 1.68532 1.69286 
1.70039 1.70793 1.71547 1.72301 1.73054 1.73808 1.74562 1.75315 1.75058 
1.74545 1.74031 1.73518 1.73004 1.7249 1.71977 1.71463 1.7095 1.70436 
1.69922 1.69409 1.68895 1.68381 1.67868 1.67354 1.66841 1.66327 1.65813 
1.653 1.64334 1.62941 1.61548 1.60155 1.58762 1.57369 1.55975 1.54582 
1.53189 1.51796 1.50403 1.4901 1.47616 1.46223 1.4483 1.43437 1.42044 
1.40651 1.39257 1.37864 1.36889 1.37116 1.37344 1.37571 1.37799 1.38026 
1.38254 1.38481 1.38709 1.38936 1.39164 1.39391 1.39619 1.39846 1.40074 
1.40301 1.40529 1.40756 1.40984 1.41211 1.41439 1.42022 1.42611 1.432 
1.4379 1.44379 1.44968 1.45557 1.46147 1.46736 1.47325 1.47914 1.48503 
1.49093 1.49682 1.50271 1.5086 1.5145 1.52039 1.52628 1.53217 1.53452 
1.53531 1.5361 1.53689 1.53768 1.53847 1.53926 1.54005 1.54084 1.54163 
1.54242 1.54321 1.544 1.54479 1.54558 1.54637 1.54716 1.54795 1.54874 
1.54953 1.55094 1.55324 1.55554 1.55784 1.56014 1.56244 1.56474 1.56704 
1.56934 1.57164 1.57393 1.57623 1.57853 1.58083 1.58313 1.58543 1.58773 
1.59003 1.59233 1.59463 1.59757 1.60517 1.61276 1.62035 1.62795 1.63554 
1.64314 1.65073 1.65832 1.66592 1.67351 1.6811 1.6887 1.69629 1.70389 
1.71148 1.71907 1.72667 1.73426 1.74186 1.74945 1.75216 1.75392 1.75567 
1.75743 1.75919 1.76094 1.7627 1.76446 1.76622 1.76797 1.76973 1.77149 
1.77324 1.775 1.77676 1.77851 1.78027 1.78203 1.78378 1.78554 1.78135 
1.77233 1.7633 1.75427 1.74524 1.73622 1.72719 1.71816 1.70914 1.70011 
1.69108 1.68205 1.67303 1.664 1.65497 1.64595 1.63692 1.62789 1.61886 
1.60984 1.60092 1.59227 1.58363 1.57498 1.56634 1.5577 1.54905 1.54041 
1.53176 1.52312 1.51447 1.50583 1.49719 1.48854 1.4799 1.47125 1.46261 
1.45397 1.44532 1.43668 1.42808 1.42406 1.42004 1.41602 1.412 1.40798 
1.40396 1.39994 1.39592 1.39189 1.38787 1.38385 1.37983 1.37581 1.37179 
1.36777 1.36375 1.35973 1.3557 1.35168 1.34766 1.34976 1.35417 1.35859 
1.363 1.36741 1.37182 1.37623 1.38064 1.38505 1.38946 1.39388 1.39829 
1.4027 1.40711 1.41152 1.41593 1.42034 1.42475 1.42917 1.43358 1.4393 
1.44669 1.45408 1.46147 1.46886 1.47625 1.48364 1.49104 1.49843 1.50582 
1.51321 1.5206 1.52799 1.53538 1.54277 1.55016 1.55755 1.56495 1.57234 
1.57973 1.58719 1.59502 1.60286 1.61069 1.61852 1.62636 1.63419 1.64203 
1.64986 1.6577 1.66553 1.67336 1.6812 1.68903 1.69687 1.7047 1.71254 
1.72037 1.72821 1.73604 1.74387 1.74586 1.74693 1.748 1.74907 1.75014 
1.75122 1.75229 1.75336 1.75443 1.7555 1.75657 1.75765 1.75872 1.75979 
1.76086 1.76193 1.763 1.76408 1.76515 1.76622 1.75751 1.74168 1.72585 
1.71003 1.6942 1.67837 1.66254 1.64671 1.63088 1.61505 1.59922 1.58339 
1.56757 1.55174 1.53591 1.52008 1.50425 1.48842 1.47259 1.45676 1.4426 
1.43247 1.42233 1.4122 1.40207 1.39193 1.3818 1.37167 1.36154 1.3514 
1.34127 1.33114 1.321 1.31087 1.30074 1.29061 1.28047 1.27034 1.26021 
1.25007 1.24 1.24027 1.24053 1.24079 1.24106 1.24132 1.24159 1.24185 
1.24212 1.24238 1.24264 1.24291 1.24317 1.24344 1.2437 1.24396 1.24423 
1.24449 1.24476 1.24502 1.24529 1.24692 1.24909 1.25126 1.25343 1.2556 
1.25778 1.25995 1.26212 1.26429 1.26646 1.26863 1.2708 1.27297 1.27514 
1.27731 1.27948 1.28166 1.28383 1.286 1.28817 1.29167 1.29689 1.3021 
1.30732 1.31253 1.31775 1.32297 1.32818 1.3334 1.33861 1.34383 1.34905 
1.35426 1.35948 1.36469 1.36991 1.37513 1.38034 1.38556 1.39078 1.39686 
1.40864 1.42042 1.43221 1.44399 1.45577 1.46755 1.47933 1.49112 1.5029 
1.51468 1.52646 1.53824 1.55003 1.56181 1.57359 1.58537 1.59715 1.60894 
1.62072 1.6325 1.64642 1.66052 1.67462 1.68873 1.70283 1.71694 1.73104 
1.74515 1.75925 1.77335 1.78746 1.80156 1.81567 1.82977 1.84387 1.85798 
1.87208 1.88619 1.90029 1.91439 1.92641 1.93517 1.94393 1.95269 1.96144 
1.9702 1.97896 1.98772 1.99647 2.00523 2.01399 2.02275 2.0315 2.04026 
2.04902 2.05778 2.06653 2.07529 2.08405 2.09281 2.10022 2.10712 2.11402 
2.12092 2.12781 2.13471 2.14161 2.14851 2.15541 2.16231 2.16921 2.17611 
2.18301 2.18991 2.19681 2.2037 2.2106 2.2175 2.2244 2.2313 2.2382 

TEXTURE_COORDINATES TCoords 2 float
0 0 0.000783085 0 0.00156617 0 0.00234926 0 0.00313234 
0 0.00391543 0 0.00469851 0 0.0054816 0 0.00626468 0 
0.00704777 0 0.00783085 0 0.00861394 0 0.00939702 0 0.0101801 
0 0.0109632 0 0.0117463 0 0.0125294 0 0.0133125 0 
0.0140955 0 0.0148786 0 0.0156617 0 0.0164448 0 0.0172279 
0 0.018011 0 0.018794 0 0.0195771 0 0.0203602 0 
0.0211433 0 0.0219264 0 0.0227095 0 0.0234926 0 0.0242756 
0 0.0250587 0 0.0258418 0 0.0266249 0 0.027408 0 
0.0281911 0 0.0289742 0 0.0297572 0 0.0305403 0 0.0313234 
0 0.0321065 0 0.0328896 0 0.0336727 0 0.0344558 0 
0.0352388 0 0.0360219 0 0.036805 0 0.0375881 0 0.0383712 
0 0.0391543 0 0.0399374 0 0.0407204 0 0.0415035 0 
0.0422866 0 0.0430697 0 0.0438528 0 0.0446359 0 0.045419 
0 0.046202 0 0.0469851 0 0.0477682 0 0.0485513 0 
0.0493344 0 0.0501175 0 0.0509005 0 0.0516836 0 0.0524667 
0 0.0532498 0 0.0540329 0 0.054816 0 0.0555991 0 
0.0563821 0 0.0571652 0 0.0579483 0 0.0587314 0 0.0595145 
0 0.0602976 0 0.0610807 0 0.0618637 0 0.0626468 0 
0.0634299 0 0.064213 0 0.0649961 0 0.0657792 0 0.0665623 
0 0.0673453 0 0.0681284 0 0.0689115 0 0.0696946 0 
0.0704777 0 0.0712608 0 0.0720439 0 0.0728269 0 0.07361 
0 0.0743931 0 0.0751762 0 0.0759593 0 0.0767424 0 
0.0775255 0 0.0783085 0 0.0790916 0 0.0798747 0 0.0806578 
0 0.0814409 0 0.082224 0 0.083007 0 0.0837901 0 
0.0845732 0 0.0853563 0 0.0861394 0 0.0869225 0 0.0877056 
0 0.0884886 0 0.0892717 0 0.0900548 0 0.0908379 0 
0.091621 0 0.0924041 0 0.0931872 0 0.0939702 0 0.0947533 
0 0.0955364 0 0.0963195 0 0.0971026 0 0.0978857 0 
0.0986688 0 0.0994518 0 0.100235 0 0.101018 0 0.101801 
0 0.102584 0 0.103367 0 0.10415 0 0.104933 0 
0.105717 0 0.1065 0 0.107283 0 0.108066 0 0.108849 
0 0.109632 0 0.110415 0 0.111198 0 0.111981 0 
0.112764 0 0.113547 0 0.11433 0 0.115114 0 0.115897 
0 0.11668 0 0.117463 0 0.118246 0 0.119029 0 
0.119812 0 0.120595 0 0.121378 0 0.122161 0 0.122944 
0 0.123727 0 0.124511 0 0.125294 0 0.126077 0 
0.12686 0 0.127643 0 0.128426 0 0.129209 0 0.129992 
0 0.130775 0 0.131558 0 0.132341 0 0.133125 0 
0.133908 0 0.134691 0 0.135474 0 0.136257 0 0.13704 
0 0.137823 0 0.138606 0 0.139389 0 0.140172 0 
0.140955 0 0.141738 0 0.142522 0 0.143305 0 0.144088 
0 0.144871 0 0.145654 0 0.146437 0 0.14722 0 
0.148003 0 0.148786 0 0.149569 0 0.150352 0 0.151135 
0 0.151919 0 0.152702 0 0.153485 0 0.154268 0 
0.155051 0 0.155834 0 0.156617 0 0.1574 0 0.158183 
0 0.158966 0 0.159749 0 0.160533 0 0.161316 0 
0.162099 0 0.162882 0 0.163665 0 0.164448 0 0.165231 
0 0.166014 0 0.166797 0 0.16758 0 0.168363 0 
0.169146 0 0.16993 0 0.170713 0 0.171496 0 0.172279 
0 0.173062 0 0.173845 0 0.174628 0 0.175411 0 
0.176194 0 0.176977 0 0.17776 0 0.178543 0 0.179327 
0 0.18011 0 0.180893 0 0.181676 0 0.182459 0 
0.183242 0 0.184025 0 0.184808 0 0.185591 0 0.186374 
0 0.187157 0 0.18794 0 0.188724 0 0.189507 0 
0.19029 0 0.191073 0 0.191856 0 0.192639 0 0.193422 
0 0.194205 0 0.194988 0 0.195771 0 0.196554 0 
0.197338 0 0.198121 0 0.198904 0 0.199687 0 0.20047 
0 0.201253 0 0.202036 0 0.202819 0 0.203602 0 
0.204385 0 0.205168 0 0.205951 0 0.206735 0 0.207518 
0 0.208301 0 0.209084 0 0.209867 0 0.21065 0 
0.211433 0 0.212216 0 0.212999 0 0.213782 0 0.214565 
0 0.215348 0 0.216132 0 0.216915 0 0.217698 0 
0.218481 0 0.219264 0 0.220047 0 0.22083 0 0.221613 
0 0.222396 0 0.223179 0 0.223962 0 0.224745 0 
0.225529 0 0.226312 0 0.227095 0 0.227878 0 0.228661 
0 0.229444 0 0.230227 0 0.23101 0 0.231793 0 
0.232576 0 0.233359 0 0.234143 0 0.234926 0 0.235709 
0 0.236492 0 0.237275 0 0.238058 0 0.238841 0 
0.239624 0 0.240407 0 0.24119 0 0.241973 0 0.242756 
0 0.24354 0 0.244323 0 0.245106 0 0.245889 0 
0.246672 0 0.247455 0 0.248238 0 0.249021 0 0.249804 
0 0.250587 0 0.25137 0 0.252153 0 0.252937 0 
0.25372 0 0.254503 0 0.255286 0 0.256069 0 0.256852 
0 0.257635 0 0.258418 0 0.259201 0 0.259984 0 
0.260767 0 0.261551 0 0.262334 0 0.263117 0 0.2639 
0 0.264683 0 0.265466 0 0.266249 0 0.267032 0 
0.267815 0 0.268598 0 0.269381 0 0.270164 0 0.270948 
0 0.271731 0 0.272514 0 0.273297 0 0.27408 0 
0.274863 0 0.275646 0 0.276429 0 0.277212 0 0.277995 
0 0.278778 0 0.279561 0 0.280345 0 0.281128 0 
0.281911 0 0.282694 0 0.283477 0 0.28426 0 0.285043 
0 0.285826 0 0.286609 0 0.287392 0 0.288175 0 
0.288958 0 0.289742 0 0.290525 0 0.291308 0 0.292091 
0 0.292874 0 0.293657 0 0.29444 0 0.295223 0 
0.296006 0 0.296789 0 0.297572 0 0.298356 0 0.299139 
0 0.299922 0 0.300705 0 0.301488 0 0.302271 0 
0.303054 0 0.303837 0 0.30462 0 0.305403 0 0.306186 
0 0.306969 0 0.307753 0 0.308536 0 0.309319 0 
0.310102 0 0.310885 0 0.311668 0 0.312451 0 0.313234 
0 0.314017 0 0.3148 0 0.315583 0 0.316366 0 
0.31715 0 0.317933 0 0.318716 0 0.319499 0 0.320282 
0 0.321065 0 0.321848 0 0.322631 0 0.323414 0 
0.324197 0 0.32498 0 0.325763 0 0.326547 0 0.32733 
0 0.328113 0 0.328896 0 0.329679 0 0.330462 0 
0.331245 0 0.332028 0 0.332811 0 0.333594 0 0.334377 
0 0.335161 0 0.335944 0 0.336727 0 0.33751 0 
0.338293 0 0.339076 0 0.339859 0 0.340642 0 0.341425 
0 0.342208 0 0.342991 0 0.343774 0 0.344558 0 
0.345341 0 0.346124 0 0.346907 0 0.34769 0 0.348473 
0 0.349256 0 0.350039 0 0.350822 0 0.351605 0 
0.352388 0 0.353171 0 0.353955 0 0.354738 0 0.355521 
0 0.356304 0 0.357087 0 0.35787 0 0.358653 0 
0.359436 0 0.360219 0 0.361002 0 0.361785 0 0.362569 
0 0.363352 0 0.364135 0 0.364918 0 0.365701 0 
0.366484 0 0.367267 0 0.36805 0 0.368833 0 0.369616 
0 0.370399 0 0.371182 0 0.371966 0 0.372749 0 
0.373532 0 0.374315 0 0.375098 0 0.375881 0 0.376664 
0 0.377447 0 0.37823 0 0.379013 0 0.379796 0 
0.380579 0 0.381363 0 0.382146 0 0.382929 0 0.383712 
0 0.384495 0 0.385278 0 0.386061 0 0.386844 0 
0.387627 0 0.38841 0 0.389193 0 0.389977 0 0.39076 
0 0.391543 0 0.392326 0 0.393109 0 0.393892 0 
0.394675 0 0.395458 0 0.396241 0 0.397024 0 0.397807 
0 0.39859 0 0.399374 0 0.400157 0 0.40094 0 
0.401723 0 0.402506 0 0.403289 0 0.404072 0 0.404855 
0 0.405638 0 0.406421 0 0.407204 0 0.407987 0 
0.408771 0 0.409554 0 0.410337 0 0.41112 0 0.411903 
0 0.412686 0 0.413469 0 0.414252 0 0.415035 0 
0.415818 0 0.416601 0 0.417385 0 0.418168 0 0.418951 
0 0.419734 0 0.420517 0 0.4213 0 0.422083 0 
0.422866 0 0.423649 0 0.424432 0 0.425215 0 0.425998 
0 0.426782 0 0.427565 0 0.428348 0 0.429131 0 
0.429914 0 0.430697 0 0.43148 0 0.432263 0 0.433046 
0 0.433829 0 0.434612 0 0.435395 0 0.436179 0 
0.436962 0 0.437745 0 0.438528 0 0.439311 0 0.440094 
0 0.440877 0 0.44166 0 0.442443 0 0.443226 0 
0.444009 0 0.444792 0 0.445576 0 0.446359 0 0.447142 
0 0.447925 0 0.448708 0 0.449491 0 0.450274 0 
0.451057 0 0.45184 0 0.452623 0 0.453406 0 0.45419 
0 0.454973 0 0.455756 0 0.456539 0 0.457322 0 
0.458105 0 0.458888 0 0.459671 0 0.460454 0 0.461237 
0 0.46202 0 0.462803 0 0.463587 0 0.46437 0 
0.465153 0 0.465936 0 0.466719 0 0.467502 0 0.468285 
0 0.469068 0 0.469851 0 0.470634 0 0.471417 0 
0.4722 0 0.472984 0 0.473767 0 0.47455 0 0.475333 
0 0.476116 0 0.476899 0 0.477682 0 0.478465 0 
0.479248 0 0.480031 0 0.480814 0 0.481597 0 0.482381 
0 0.483164 0 0.483947 0 0.48473 0 0.485513 0 
0.486296 0 0.487079 0 0.487862 0 0.488645 0 0.489428 
0 0.490211 0 0.490995 0 0.491778 0 0.492561 0 
0.493344 0 0.494127 0 0.49491 0 0.495693 0 0.496476 
0 0.497259 0 0.498042 0 0.498825 0 0.499608 0 
0.500392 0 0.501175 0 0.501958 0 0.502741 0 0.503524 
0 0.504307 0 0.50509 0 0.505873 0 0.506656 0 
0.507439 0 0.508222 0 0.509005 0 0.509789 0 0.510572 
0 0.511355 0 0.512138 0 0.512921 0 0.513704 0 
0.514487 0 0.51527 0 0.516053 0 0.516836 0 0.517619 
0 0.518403 0 0.519186 0 0.519969 0 0.520752 0 
0.521535 0 0.522318 0 0.523101 0 0.523884 0 0.524667 
0 0.52545 0 0.526233 0 0.527016 0 0.5278 0 
0.528583 0 0.529366 0 0.530149 0 0.530932 0 0.531715 
0 0.532498 0 0.533281 0 0.534064 0 0.534847 0 
0.53563 0 0.536413 0 0.537197 0 0.53798 0 0.538763 
0 0.539546 0 0.540329 0 0.541112 0 0.541895 0 
0.542678 0 0.543461 0 0.544244 0 0.545027 0 0.545811 
0 0.546594 0 0.547377 0 0.54816 0 0.548943 0 
0.549726 0 0.550509 0 0.551292 0 0.552075 0 0.552858 
0 0.553641 0 0.554424 0 0.555207 0 0.555991 0 
0.556774 0 0.557557 0 0.55834 0 0.559123 0 0.559906 
0 0.560689 0 0.561472 0 0.562255 0 0.563038 0 
0.563821 0 0.564605 0 0.565388 0 0.566171 0 0.566954 
0 0.567737 0 0.56852 0 0.569303 0 0.570086 0 
0.570869 0 0.571652 0 0.572435 0 0.573218 0 0.574002 
0 0.574785 0 0.575568 0 0.576351 0 0.577134 0 
0.577917 0 0.5787 0 0.579483 0 0.580266 0 0.581049 
0 0.581832 0 0.582615 0 0.583399 0 0.584182 0 
0.584965 0 0.585748 0 0.586531 0 0.587314 0 0.588097 
0 0.58888 0 0.589663 0 0.590446 0 0.591229 0 
0.592013 0 0.592796 0 0.593579 0 0.594362 0 0.595145 
0 0.595928 0 0.596711 0 0.597494 0 0.598277 0 
0.59906 0 0.599843 0 0.600626 0 0.60141 0 0.602193 
0 0.602976 0 0.603759 0 0.604542 0 0.605325 0 
0.606108 0 0.606891 0 0.607674 0 0.608457 0 0.60924 
0 0.610023 0 0.610807 0 0.61159 0 0.612373 0 
0.613156 0 0.613939 0 0.614722 0 0.615505 0 0.616288 
0 0.617071 0 0.617854 0 0.618637 0 0.619421 0 
0.620204 0 0.620987 0 0.62177 0 0.622553 0 0.623336 
0 0.624119 0 0.624902 0 0.625685 0 0.626468 0 
0.627251 0 0.628034 0 0.628818 0 0.629601 0 0.630384 
0 0.631167 0 0.63195 0 0.632733 0 0.633516 0 
0.634299 0 0.635082 0 0.635865 0 0.636648 0 0.637432 
0 0.638215 0 0.638998 0 0.639781 0 0.640564 0 
0.641347 0 0.64213 0 0.642913 0 0.643696 0 0.644479 
0 0.645262 0 0.646045 0 0.646829 0 0.647612 0 
0.648395 0 0.649178 0 0.649961 0 0.650744 0 0.651527 
0 0.65231 0 0.653093 0 0.653876 0 0.654659 0 
0.655442 0 0.656226 0 0.657009 0 0.657792 0 0.658575 
0 0.659358 0 0.660141 0 0.660924 0 0.661707 0 