# vtk DataFile Version 4.2
vtk output
ASCII
DATASET POLYDATA
POINTS 1276 float
0 0 0 -0.00301085 0.00085311 -0.00279361 -0.0118158 0.00329678 -0.0109058 
-0.0260734 0.00715753 -0.0239336 -0.0454423 0.0122619 -0.041474 -0.0695809 0.0184363 -0.0631241 
-0.098148 0.0255074 -0.0884809 -0.130802 0.0333016 -0.117142 -0.167202 0.0416455 -0.148703 
-0.207006 0.0503655 -0.182762 -0.249872 0.0592882 -0.218916 -0.29546 0.0682401 -0.256762 
-0.343428 0.0770477 -0.295897 -0.393434 0.0855376 -0.335918 -0.445137 0.0935361 -0.376422 
-0.498196 0.10087 -0.417006 -0.552269 0.107366 -0.457267 -0.607015 0.112849 -0.496803 
-0.662093 0.117148 -0.535209 -0.71716 0.120088 -0.572084 -0.771876 0.121496 -0.607024 
-0.825899 0.121198 -0.639626 -0.878968 0.119071 -0.669592 -0.931076 0.115147 -0.696949 
-0.982261 0.109487 -0.721787 -1.03256 0.102153 -0.744193 -1.08202 0.0932062 -0.76426 
-1.13068 0.0827091 -0.782075 -1.17858 0.0707232 -0.797728 -1.22575 0.0573101 -0.81131 
-1.27224 0.0425316 -0.822908 -1.31808 0.0264495 -0.832614 -1.36332 0.00912528 -0.840517 
-1.408 -0.00937915 -0.846705 -1.45215 -0.0290021 -0.851269 -1.49582 -0.0496819 -0.854299 
-1.53904 -0.0713568 -0.855883 -1.58186 -0.0939651 -0.856111 -1.62432 -0.117445 -0.855074 
-1.66645 -0.141735 -0.852859 -1.70829 -0.166773 -0.849558 -1.74989 -0.192499 -0.845255 
-1.79124 -0.218871 -0.839994 -1.83232 -0.245859 -0.833787 -1.87309 -0.273433 -0.826646 
-1.91355 -0.301564 -0.818582 -1.95365 -0.330223 -0.809609 -1.99338 -0.359379 -0.799737 
-2.03272 -0.389003 -0.788979 -2.07162 -0.419067 -0.777346 -2.11007 -0.449539 -0.764851 
-2.14805 -0.480391 -0.751506 -2.18553 -0.511594 -0.737322 -2.22248 -0.543116 -0.722311 
-2.25888 -0.57493 -0.706486 -2.29469 -0.607005 -0.689859 -2.32991 -0.639313 -0.672441 
-2.3645 -0.671822 -0.654244 -2.39843 -0.704504 -0.63528 -2.43168 -0.73733 -0.615561 
-2.46423 -0.770269 -0.5951 -2.49605 -0.803293 -0.573908 -2.52714 -0.836381 -0.552004 
-2.55752 -0.869524 -0.529413 -2.58723 -0.902715 -0.506162 -2.6163 -0.935944 -0.482278 
-2.64475 -0.969203 -0.457787 -2.67262 -1.00248 -0.432716 -2.69993 -1.03578 -0.40709 
-2.72672 -1.06908 -0.380936 -2.75301 -1.10238 -0.354282 -2.77883 -1.13566 -0.327152 
-2.80422 -1.16893 -0.299575 -2.8292 -1.20217 -0.271575 -2.8538 -1.23537 -0.24318 
-2.87805 -1.26852 -0.214416 -2.90198 -1.30163 -0.185309 -2.92562 -1.33467 -0.155886 
-2.949 -1.36764 -0.126173 -2.97215 -1.40054 -0.0961975 -2.9951 -1.43335 -0.0659849 
-3.01788 -1.46606 -0.0355619 -3.04051 -1.49867 -0.00494937 -3.063 -1.53119 0.0258457 
-3.08536 -1.5636 0.0568187 -3.10759 -1.59591 0.0879648 -3.1297 -1.62813 0.119279 
-3.15169 -1.66025 0.150757 -3.17358 -1.69227 0.182394 -3.19536 -1.72419 0.214186 
-3.21705 -1.75603 0.246126 -3.23864 -1.78776 0.278212 -3.26016 -1.81941 0.310437 
-3.28159 -1.85096 0.342798 -3.30296 -1.88242 0.375289 -3.32426 -1.9138 0.407906 
-3.3455 -1.94508 0.440644 -3.36669 -1.97627 0.473498 -3.38783 -2.00738 0.506464 
-3.40893 -2.0384 0.539537 -3.43 -2.06933 0.572711 -3.45104 -2.10018 0.605983 
-3.47206 -2.13094 0.639348 -3.49306 -2.16162 0.6728 -3.51405 -2.19222 0.706332 
-3.53505 -2.22274 0.73994 -3.55604 -2.25319 0.773617 -3.57705 -2.28356 0.807358 
-3.59808 -2.31386 0.841156 -3.61913 -2.34409 0.875006 -3.64021 -2.37424 0.908903 
-3.66133 -2.40434 0.942839 -3.68249 -2.43436 0.97681 -3.7037 -2.46432 1.01081 
-3.72497 -2.49423 1.04483 -3.74631 -2.52407 1.07887 -3.76771 -2.55385 1.11292 
-3.78919 -2.58358 1.14697 -3.81075 -2.61326 1.18103 -3.83241 -2.64288 1.21507 
-3.85416 -2.67245 1.24911 -3.87601 -2.70198 1.28312 -3.89797 -2.73146 1.31711 
-3.92005 -2.7609 1.35108 -3.94224 -2.7903 1.385 -3.96455 -2.81966 1.41887 
-3.98699 -2.849 1.45269 -4.00955 -2.87831 1.48644 -4.03224 -2.9076 1.52013 
-4.05506 -2.93688 1.55373 -4.07802 -2.96614 1.58725 -4.10111 -2.99539 1.62067 
-4.12435 -3.02465 1.65399 -4.14773 -3.0539 1.68719 -4.17126 -3.08316 1.72028 
-4.19494 -3.11242 1.75324 -4.21877 -3.14171 1.78606 -4.24276 -3.17101 1.81874 
-4.2669 -3.20033 1.85127 -4.29121 -3.22968 1.88364 -4.31569 -3.25906 1.91584 
-4.34033 -3.28848 1.94786 -4.36514 -3.31794 1.97971 -4.39013 -3.34745 2.01136 
-4.4153 -3.377 2.0428 -4.44066 -3.40662 2.07404 -4.4662 -3.4363 2.10506 
-4.49193 -3.46605 2.13585 -4.51787 -3.49589 2.1664 -4.54401 -3.52581 2.1967 
-4.57036 -3.55582 2.22674 -4.59692 -3.58593 2.25652 -4.6237 -3.61615 2.28602 
-4.6507 -3.64648 2.31524 -4.67793 -3.67693 2.34416 -4.70539 -3.70751 2.37278 
-4.73309 -3.73822 2.40109 -4.76103 -3.76908 2.42907 -4.78921 -3.80007 2.45672 
-4.81765 -3.83123 2.48403 -4.84635 -3.86254 2.51099 -4.8753 -3.89402 2.53759 
-4.90452 -3.92567 2.56383 -4.93401 -3.95751 2.58967 -4.96374 -3.98955 2.61508 
-4.99371 -4.02181 2.63999 -5.02389 -4.05431 2.66435 -5.05426 -4.08707 2.6881 
-5.08481 -4.12012 2.71118 -5.11551 -4.15346 2.73354 -5.14635 -4.18713 2.75513 
-5.1773 -4.22113 2.77587 -5.20836 -4.2555 2.79572 -5.23949 -4.29025 2.81462 
-5.27068 -4.3254 2.83251 -5.30191 -4.36097 2.84934 -5.33317 -4.39698 2.86505 
-5.36443 -4.43345 2.87957 -5.39568 -4.47041 2.89286 -5.42689 -4.50786 2.90486 
-5.45804 -4.54584 2.91551 -5.48913 -4.58435 2.92475 -5.52012 -4.62343 2.93253 
-5.551 -4.66308 2.93879 -5.58171 -4.70327 2.94353 -5.6122 -4.74397 2.94674 
-5.6424 -4.78513 2.94845 -5.67225 -4.82669 2.94865 -5.70168 -4.86861 2.94735 
-5.73064 -4.91085 2.94457 -5.75906 -4.95335 2.9403 -5.78688 -4.99607 2.93456 
-5.81404 -5.03897 2.92735 -5.84047 -5.082 2.91869 -5.86611 -5.12511 2.90857 
-5.8909 -5.16825 2.89701 -5.91478 -5.21138 2.88401 -5.93769 -5.25445 2.86958 
-5.95955 -5.29742 2.85373 -5.98032 -5.34023 2.83647 -5.99992 -5.38284 2.8178 
-6.01829 -5.42521 2.79774 -6.03538 -5.46729 2.77628 -6.05113 -5.50902 2.75344 
-6.06553 -5.55041 2.72927 -6.07862 -5.59144 2.70383 -6.09043 -5.63212 2.67719 
-6.10099 -5.67244 2.64941 -6.11034 -5.7124 2.62055 -6.1185 -5.752 2.59069 
-6.12552 -5.79124 2.55988 -6.13142 -5.83012 2.5282 -6.13623 -5.86863 2.49571 
-6.13999 -5.90678 2.46247 -6.14272 -5.94456 2.42855 -6.14447 -5.98197 2.39401 
-6.14526 -6.01901 2.35892 -6.14512 -6.05568 2.32335 -6.1441 -6.09198 2.28736 
-6.14221 -6.12791 2.25101 -6.1395 -6.16346 2.21437 -6.13599 -6.19863 2.17751 
-6.13171 -6.23343 2.14049 -6.12671 -6.26784 2.10338 -6.12099 -6.30189 2.0662 
-6.11458 -6.33556 2.02897 -6.1075 -6.36888 1.99168 -6.09974 -6.40184 1.95435 
-6.09134 -6.43447 1.91697 -6.08229 -6.46677 1.87955 -6.07263 -6.49874 1.8421 
-6.06235 -6.53039 1.80461 -6.05148 -6.56174 1.76709 -6.04003 -6.5928 1.72955 
-6.02802 -6.62356 1.69198 -6.01545 -6.65405 1.6544 -6.00234 -6.68426 1.61681 
-5.98871 -6.71422 1.5792 -5.97457 -6.74391 1.54159 -5.95993 -6.77337 1.50398 
-5.94482 -6.80258 1.46637 -5.92923 -6.83157 1.42877 -5.9132 -6.86035 1.39118 
-5.89672 -6.88891 1.3536 -5.87982 -6.91726 1.31604 -5.86249 -6.94542 1.2785 
-5.84476 -6.97338 1.24099 -5.82661 -7.00114 1.20351 -5.80806 -7.0287 1.16606 
-5.78911 -7.05608 1.12866 -5.76977 -7.08326 1.09131 -5.75005 -7.11026 1.05401 
-5.72995 -7.13707 1.01676 -5.70947 -7.1637 0.979572 -5.68863 -7.19014 0.942451 
-5.66742 -7.21641 0.905399 -5.64586 -7.2425 0.868422 -5.62395 -7.26842 0.831525 
-5.60169 -7.29416 0.794712 -5.5791 -7.31974 0.757988 -5.55618 -7.34514 0.721357 
-5.53293 -7.37038 0.684825 -5.50936 -7.39546 0.648396 -5.48547 -7.42037 0.612075 
-5.46128 -7.44513 0.575866 -5.43678 -7.46973 0.539769 -5.41198 -7.49417 0.503784 
-5.38689 -7.51846 0.467912 -5.3615 -7.5426 0.432153 -5.33582 -7.56659 0.396505 
-5.30986 -7.59043 0.36097 -5.28361 -7.61413 0.325547 -5.25709 -7.63769 0.290236 
-5.2303 -7.6611 0.255037 -5.20324 -7.68437 0.21995 -5.17591 -7.70751 0.184975 
-5.14831 -7.73051 0.150111 -5.12046 -7.75338 0.11536 -5.09236 -7.77612 0.0807198 
-5.064 -7.79872 0.0461915 -5.0354 -7.8212 0.0117748 -5.00656 -7.84356 -0.0225304 
-4.97747 -7.86579 -0.0567242 -4.94816 -7.8879 -0.0908065 -4.91861 -7.90989 -0.124777 
-4.88883 -7.93176 -0.158632 -4.85883 -7.95353 -0.192363 -4.8286 -7.9752 -0.225966 
-4.79815 -7.99677 -0.259432 -4.76749 -8.01824 -0.292756 -4.73661 -8.03964 -0.32593 
-4.70551 -8.06096 -0.358948 -4.67421 -8.0822 -0.391804 -4.6427 -8.10338 -0.424491 
-4.61099 -8.12451 -0.457002 -4.57907 -8.14557 -0.489331 -4.54695 -8.1666 -0.52147 
-4.51464 -8.18758 -0.553414 -4.48213 -8.20852 -0.585156 -4.44943 -8.22944 -0.616688 
-4.41654 -8.25033 -0.648005 -4.38346 -8.27121 -0.6791 -4.3502 -8.29208 -0.709966 
-4.31676 -8.31294 -0.740597 -4.28314 -8.3338 -0.770986 -4.24934 -8.35467 -0.801132 
-4.21536 -8.37555 -0.831042 -4.18121 -8.39644 -0.86072 -4.14687 -8.41734 -0.890174 
-4.11235 -8.43826 -0.919409 -4.07765 -8.45919 -0.94843 -4.04276 -8.48013 -0.977246 
-4.00769 -8.5011 -1.00586 -3.97244 -8.52209 -1.03428 -3.937 -8.5431 -1.06251 
-3.90137 -8.56413 -1.09056 -3.86556 -8.5852 -1.11843 -3.82956 -8.60629 -1.14613 
-3.79337 -8.62741 -1.17366 -3.75698 -8.64856 -1.20104 -3.72041 -8.66975 -1.22826 
-3.68365 -8.69097 -1.25534 -3.64669 -8.71224 -1.28228 -3.60954 -8.73354 -1.30908 
-3.57219 -8.75488 -1.33575 -3.53465 -8.77628 -1.36228 -3.49692 -8.79778 -1.38857 
-3.45902 -8.81943 -1.41453 -3.42094 -8.84127 -1.44008 -3.38269 -8.86335 -1.46512 
-3.34429 -8.88571 -1.48957 -3.30574 -8.90842 -1.51331 -3.26704 -8.9315 -1.53627 
-3.22821 -8.95502 -1.55836 -3.18924 -8.97902 -1.57947 -3.15016 -9.00354 -1.59953 
-3.11096 -9.02863 -1.61842 -3.07165 -9.05434 -1.63608 -3.03224 -9.08072 -1.65239 
-2.99274 -9.10781 -1.66727 -2.95315 -9.13567 -1.68063 -2.91348 -9.16433 -1.69238 
-2.87374 -9.19385 -1.70241 -2.83393 -9.22427 -1.71065 -2.79407 -9.25565 -1.717 
-2.75417 -9.288 -1.72137 -2.71434 -9.32127 -1.72376 -2.67469 -9.35536 -1.72416 
-2.63536 -9.39017 -1.72259 -2.59647 -9.42559 -1.71905 -2.55815 -9.46153 -1.71355 
-2.52052 -9.49789 -1.70609 -2.48372 -9.53458 -1.69667 -2.44786 -9.57149 -1.68532 
-2.41307 -9.60852 -1.67202 -2.37949 -9.64557 -1.6568 -2.34723 -9.68255 -1.63965 
-2.31643 -9.71936 -1.62058 -2.2872 -9.75589 -1.59959 -2.25968 -9.79206 -1.5767 
-2.234 -9.82775 -1.55191 -2.21027 -9.86287 -1.52523 -2.18862 -9.89733 -1.49666 
[...]
CELL_DATA 1
FIELD FieldData 2
Length 1 1 double
63.798462557 
Tortuosity 1 1 double
1.0196944653 
POINT_DATA 1276
SCALARS MaximumInscribedSphereRadius float
LOOKUP_TABLE default
0.9796 0.997078 1.01456 1.03203 1.04951 1.06699 1.08447 1.10195 1.11943 
1.1369 1.15438 1.17186 1.18934 1.20682 1.2243 1.24177 1.25925 1.27673 
1.29421 1.31169 1.32916 1.34524 1.34621 1.34718 1.34815 1.34912 1.35009 
1.35106 1.35203 1.353 1.35397 1.35494 1.35591 1.35688 1.35785 1.35882 
1.35979 1.36077 1.36174 1.36271 1.36368 1.36071 1.35558 1.35044 1.34531 
1.34018 1.33505 1.32991 1.32478 1.31965 1.31451 1.30938 1.30425 1.29912 
1.29398 1.28885 1.28372 1.27859 1.27345 1.26832 1.26319 1.26144 1.2643 
1.26716 1.27002 1.27288 1.27574 1.2786 1.28146 1.28432 1.28718 1.29004 
1.2929 1.29576 1.29862 1.30148 1.30434 1.3072 1.31006 1.31292 1.31578 
1.31949 1.32772 1.33594 1.34417 1.3524 1.36063 1.36885 1.37708 1.38531 
1.39354 1.40177 1.40999 1.41822 1.42645 1.43468 1.44291 1.45113 1.45936 
1.46759 1.47582 1.48405 1.47899 1.47211 1.46523 1.45835 1.45147 1.44458 
1.4377 1.43082 1.42394 1.41706 1.41018 1.4033 1.39641 1.38953 1.38265 
1.37577 1.36889 1.36201 1.35513 1.34825 1.33738 1.32386 1.31034 1.29682 
1.28331 1.26979 1.25627 1.24275 1.22924 1.21572 1.2022 1.18869 1.17517 
1.16165 1.14813 1.13462 1.1211 1.10758 1.09406 1.08055 1.07773 1.0973 
1.11687 1.13644 1.15601 1.17558 1.19515 1.21472 1.23429 1.25386 1.27343 
1.293 1.31257 1.33214 1.35171 1.37128 1.39085 1.41042 1.42999 1.44956 
1.46843 1.47627 1.4841 1.49193 1.49977 1.5076 1.51543 1.52327 1.5311 
1.53893 1.54677 1.5546 1.56243 1.57026 1.5781 1.58593 1.59376 1.6016 
1.60943 1.61726 1.6251 1.61899 1.60918 1.59937 1.58957 1.57976 1.56995 
1.56014 1.55033 1.54052 1.53072 1.52091 1.5111 1.50129 1.49148 1.48168 
1.47187 1.46206 1.45225 1.44244 1.43263 1.43298 1.43713 1.44128 1.44542 
1.44957 1.45372 1.45787 1.46202 1.46617 1.47032 1.47447 1.47862 1.48277 
1.48691 1.49106 1.49521 1.49936 1.50351 1.50766 1.51181 1.51165 1.50753 
1.5034 1.49927 1.49514 1.49102 1.48689 1.48276 1.47863 1.47451 1.47038 
1.46625 1.46212 1.458 1.45387 1.44974 1.44562 1.44149 1.43736 1.43323 
1.42898 1.42439 1.4198 1.41521 1.41062 1.40603 1.40144 1.39685 1.39226 
1.38767 1.38308 1.37849 1.3739 1.36931 1.36472 1.36013 1.35554 1.35095 
1.34636 1.34177 1.33719 1.33343 1.32966 1.3259 1.32214 1.31838 1.31462 
1.31086 1.30709 1.30333 1.29957 1.29581 1.29205 1.28829 1.28452 1.28076 
1.277 1.27324 1.26948 1.26572 1.26195 1.26019 1.25915 1.25812 1.25709 
1.25605 1.25502 1.25399 1.25296 1.25192 1.25089 1.24986 1.24882 1.24779 
1.24676 1.24573 1.24469 1.24366 1.24263 1.24159 1.24056 1.24245 1.24779 
1.25314 1.25848 1.26383 1.26917 1.27452 1.27987 1.28521 1.29056 1.2959 
1.30125 1.3066 1.31194 1.31729 1.32263 1.32798 1.33333 1.33867 1.34402 
1.35201 1.3723 1.3926 1.4129 1.4332 1.45349 1.47379 1.49409 1.51439 
1.53469 1.55498 1.57528 1.59558 1.61588 1.63617 1.65647 1.67677 1.69707 
1.71737 1.73766 1.75796 1.76523 1.77088 1.77653 1.78217 1.78782 1.79347 
1.79912 1.80477 1.81042 1.81607 1.82172 1.82737 1.83302 1.83867 1.84432 
1.84997 1.85562 1.86127 1.86692 1.87671 1.89095 1.90519 1.91943 1.93367 
1.94791 1.96215 1.97639 1.99063 2.00487 2.01911 2.03335 2.04759 2.06183 
2.07607 2.09031 2.10455 2.11879 2.13303 2.14727 2.15664 2.13981 2.12298 
2.10615 2.08932 2.07249 2.05566 2.03883 2.022 2.00517 1.98834 1.97151 
1.95467 1.93784 1.92101 1.90418 1.88735 1.87052 1.85369 1.83686 1.82003 
1.81942 1.82 1.82059 1.82118 1.82176 1.82235 1.82294 1.82352 1.82411 
1.8247 1.82528 1.82587 1.82645 1.82704 1.82763 1.82821 1.8288 1.82939 
1.82997 1.83056 1.84848 1.87402 1.89957 1.92511 1.95066 1.97621 2.00175 
2.0273 2.05284 2.07839 2.10393 2.12948 2.15502 2.18057 2.20612 2.23166 
2.25721 2.28275 2.3083 2.33384 2.34743 2.34581 2.3442 2.34258 2.34097 
2.33935 2.33774 2.33612 2.33451 2.3329 2.33128 2.32967 2.32805 2.32644 
2.32482 2.32321 2.32159 2.31998 2.31836 2.31675 2.31349 2.30199 2.29049 
2.27899 2.26749 2.25599 2.24449 2.23299 2.22149 2.20999 2.19849 2.18699 
2.17549 2.164 2.1525 2.141 2.1295 2.118 2.1065 2.095 2.0835 
2.0647 2.04497 2.02523 2.00549 1.98576 1.96602 1.94629 1.92655 1.90682 
1.88708 1.86734 1.84761 1.82787 1.80814 1.7884 1.76867 1.74893 1.72919 
1.70946 1.68972 1.67818 1.67164 1.6651 1.65856 1.65202 1.64548 1.63894 
1.6324 1.62586 1.61932 1.61278 1.60624 1.5997 1.59317 1.58663 1.58009 
1.57355 1.56701 1.56047 1.55393 1.5529 1.56017 1.56744 1.57471 1.58198 
1.58925 1.59652 1.60379 1.61106 1.61833 1.6256 1.63287 1.64014 1.64741 
1.65468 1.66195 1.66922 1.67649 1.68376 1.69103 1.69725 1.70081 1.70437 
1.70792 1.71148 1.71504 1.71859 1.72215 1.72571 1.72926 1.73282 1.73638 
1.73994 1.74349 1.74705 1.75061 1.75416 1.75772 1.76128 1.76483 1.76759 
1.75929 1.75099 1.74269 1.73439 1.72609 1.71779 1.7095 1.7012 1.6929 
1.6846 1.6763 1.668 1.6597 1.6514 1.64311 1.63481 1.62651 1.61821 
1.60991 1.60161 1.60578 1.61283 1.61989 1.62694 1.634 1.64105 1.64811 
1.65516 1.66222 1.66927 1.67633 1.68338 1.69044 1.69749 1.70455 1.7116 
1.71865 1.72571 1.73276 1.73982 1.74634 1.7524 1.75847 1.76453 1.77059 
1.77666 1.78272 1.78879 1.79485 1.80091 1.80698 1.81304 1.81911 1.82517 
1.83123 1.8373 1.84336 1.84942 1.85549 1.86155 1.86619 1.8669 1.86762 
1.86833 1.86905 1.86976 1.87047 1.87119 1.8719 1.87262 1.87333 1.87404 
1.87476 1.87547 1.87619 1.8769 1.87762 1.87833 1.87904 1.87976 1.88047 
1.87991 1.87935 1.8788 1.87824 1.87768 1.87712 1.87656 1.87601 1.87545 
1.87489 1.87433 1.87378 1.87322 1.87266 1.8721 1.87154 1.87099 1.87043 
1.86987 1.86931 1.88016 1.89456 1.90897 1.92338 1.93779 1.9522 1.96661 
1.98102 1.99543 2.00984 2.02425 2.03866 2.05307 2.06748 2.08189 2.0963 
2.11071 2.12512 2.13953 2.15394 2.16293 2.16869 2.17445 2.18022 2.18598 
2.19174 2.1975 2.20326 2.20902 2.21479 2.22055 2.22631 2.23207 2.23783 
2.24359 2.24936 2.25512 2.26088 2.26664 2.2724 2.26919 2.2498 2.23041 
2.21102 2.19163 2.17223 2.15284 2.13345 2.11406 2.09467 2.07528 2.05588 
2.03649 2.0171 1.99771 1.97832 1.95892 1.93953 1.92014 1.90075 1.88133 
1.86162 1.84191 1.82219 1.80248 1.78277 1.76306 1.74334 1.72363 1.70392 
1.6842 1.66449 1.64478 1.62507 1.60535 1.58564 1.56593 1.54622 1.5265 
1.50679 1.48708 1.48095 1.47803 1.47511 1.4722 1.46928 1.46636 1.46344 
1.46052 1.45761 1.45469 1.45177 1.44885 1.44593 1.44302 1.4401 1.43718 
1.43426 1.43134 1.42843 1.42551 1.43549 1.45594 1.47639 1.49684 1.51729 
1.53774 1.5582 1.57865 1.5991 1.61955 1.64 1.66045 1.6809 1.70135 
1.7218 1.74225 1.7627 1.78315 1.8036 1.82406 1.84157 1.85338 1.86519 
1.87699 1.8888 1.90061 1.91242 1.92422 1.93603 1.94784 1.95964 1.97145 
1.98326 1.99506 2.00687 2.01868 2.03048 2.04229 2.0541 2.0659 2.07691 
2.08153 2.08615 2.09077 2.09539 2.10001 2.10463 2.10926 2.11388 2.1185 
2.12312 2.12774 2.13236 2.13698 2.1416 2.14623 2.15085 2.15547 2.16009 
2.16471 2.16933 2.1687 2.16717 2.16564 2.16412 2.16259 2.16107 2.15954 
2.15802 2.15649 2.15497 2.15344 2.15191 2.15039 2.14886 2.14734 2.14581 
2.14429 2.14276 2.14124 2.13971 2.13443 2.1265 2.11857 2.11064 2.10272 
2.09479 2.08686 2.07894 2.07101 2.06308 2.05515 2.04723 2.0393 2.03137 
2.02344 2.01552 2.00759 1.99966 1.99173 1.98381 1.97775 1.97576 1.97376 
1.97176 1.96977 1.96777 1.96578 1.96378 1.96179 1.95979 1.9578 1.9558 
1.9538 1.95181 1.94981 1.94782 1.94582 1.94383 1.94183 1.93983 1.93839 
1.9484 1.95842 1.96843 1.97845 1.98847 1.99848 2.0085 2.01852 2.02853 
2.03855 2.04857 2.05858 2.0686 2.07861 2.08863 2.09865 2.10866 2.11868 
2.1287 2.13871 2.14896 2.15928 2.16959 2.17991 2.19023 2.20054 2.21086 
2.22117 2.23149 2.2418 2.25212 2.26244 2.27275 2.28307 2.29338 2.3037 
2.31401 2.32433 2.33465 2.34496 2.35126 2.35368 2.3561 2.35853 2.36095 
2.36337 2.36579 2.36821 2.37063 2.37306 2.37548 2.3779 2.38032 2.38274 
2.38516 2.38758 2.39001 2.39243 2.39485 2.39727 2.39774 2.39188 2.38603 
2.38017 2.37432 2.36846 2.36261 2.35676 2.3509 2.34505 2.33919 2.33334 
2.32748 2.32163 2.31577 2.30992 2.30407 2.29821 2.29236 2.2865 2.28065 
2.29294 2.30601 2.31907 2.33214 2.3452 2.35827 2.37133 2.3844 2.39746 
2.41053 2.42359 2.43666 2.44972 2.46278 2.47585 2.48891 2.50198 2.51504 
2.52811 2.54117 2.54795 2.5518 2.55565 2.5595 2.56335 2.5672 2.57105 
2.5749 2.57875 2.5826 2.58645 2.5903 2.59415 2.598 2.60185 2.6057 
2.60955 2.6134 2.61725 2.6211 2.61638 2.5991 2.58182 2.56454 2.54726 
2.52998 2.5127 2.49542 2.47814 2.46086 2.44358 2.4263 2.40902 2.39174 
2.37446 2.35718 2.33989 2.32261 2.30533 2.28805 2.27233 2.26725 2.26217 
2.2571 2.25202 2.24694 2.24186 2.23678 2.2317 2.22662 2.22154 2.21647 
2.21139 2.20631 2.20123 2.19615 2.19107 2.18599 2.18092 2.17584 2.17076 
2.17297 2.17646 2.17995 2.18344 2.18693 2.19042 2.1939 2.19739 2.20088 
2.20437 2.20786 2.21135 2.21484 2.21833 2.22182 2.22531 2.2288 2.23229 
2.23578 2.23927 2.24574 2.25443 2.26311 2.27179 2.28047 2.28916 2.29784 
2.30652 2.3152 2.32388 2.33257 2.34125 2.34993 2.35861 2.3673 2.37598 
2.38466 2.39334 2.40202 2.41071 2.41616 2.41421 2.41227 2.41032 2.40838 
2.40643 2.40449 2.40254 2.4006 2.39865 2.39671 2.39476 2.39282 2.39087 
2.38893 2.38698 2.38504 2.38309 2.38115 2.3792 2.37734 2.37748 2.37762 
2.37776 2.37791 2.37805 2.37819 2.37833 2.37848 2.37862 2.37876 2.3789 
2.37905 2.37919 2.37933 2.37947 2.37962 2.37976 2.3799 2.38004 2.38019 
2.39348 2.41063 2.42778 2.44492 2.46207 2.47922 2.49636 2.51351 2.53066 
2.5478 2.56495 2.5821 2.59924 2.61639 2.63354 2.65068 2.66783 2.68498 
2.70212 2.71927 2.72989 2.73448 2.73908 2.74368 2.74827 2.75287 2.75746 
2.76206 2.76665 2.77125 2.77584 2.78044 2.78503 2.78963 2.79422 2.79882 
2.80341 2.80801 2.8126 2.8172 2.81744 2.8068 2.79615 2.78551 2.77487 
2.76423 2.75359 2.74295 2.73231 2.72166 2.71102 2.70038 2.68974 2.6791 
2.66846 2.65782 2.64718 2.63653 2.62589 2.61525 2.60412 2.58586 2.56759 
2.54933 2.53106 2.5128 2.49453 2.47627 2.458 2.43974 2.42147 2.40321 
2.38494 2.36668 2.34841 2.33014 2.31188 2.29361 2.27535 2.25708 2.23882 
2.24041 2.2465 2.25259 2.25868 2.26476 2.27085 2.27694 2.28303 2.28911 
2.2952 2.30129 2.30737 2.31346 2.31955 2.32564 2.33172 2.33781 2.3439 
2.34999 2.35607 2.36201 2.36777 2.37353 2.37929 2.38506 2.39082 2.39658 
2.40234 2.4081 2.41386 2.41962 2.42538 2.43115 2.43691 2.44267 2.44843 
2.45419 2.45995 2.46571 2.47147 2.47275 2.47311 2.47348 2.47384 2.4742 
2.47456 2.47493 2.47529 2.47565 2.47601 2.47638 2.47674 2.4771 2.47746 
2.47783 2.47819 2.47855 2.47891 2.47928 2.47964 2.48 
TEXTURE_COORDINATES TCoords 2 float
0 0 0.000784314 0 0.00156863 0 0.00235294 0 0.00313725 
0 0.00392157 0 0.00470588 0 0.0054902 0 0.00627451 0 
0.00705882 0 0.00784314 0 0.00862745 0 0.00941176 0 0.0101961 
0 0.0109804 0 0.0117647 0 0.012549 0 0.0133333 0 
0.0141176 0 0.014902 0 0.0156863 0 0.0164706 0 0.0172549 
0 0.0180392 0 0.0188235 0 0.0196078 0 0.0203922 0 
0.0211765 0 0.0219608 0 0.0227451 0 0.0235294 0 0.0243137 
0 0.025098 0 0.0258824 0 0.0266667 0 0.027451 0 
0.0282353 0 0.0290196 0 0.0298039 0 0.0305882 0 0.0313726 
0 0.0321569 0 0.0329412 0 0.0337255 0 0.0345098 0 
0.0352941 0 0.0360784 0 0.0368627 0 0.0376471 0 0.0384314 
0 0.0392157 0 0.04 0 0.0407843 0 0.0415686 0 
0.0423529 0 0.0431373 0 0.0439216 0 0.0447059 0 0.0454902 
0 0.0462745 0 0.0470588 0 0.0478431 0 0.0486275 0 
0.0494118 0 0.0501961 0 0.0509804 0 0.0517647 0 0.052549 
0 0.0533333 0 0.0541176 0 0.054902 0 0.0556863 0 
0.0564706 0 0.0572549 0 0.0580392 0 0.0588235 0 0.0596078 
0 0.0603922 0 0.0611765 0 0.0619608 0 0.0627451 0 
0.0635294 0 0.0643137 0 0.065098 0 0.0658824 0 0.0666667 
0 0.067451 0 0.0682353 0 0.0690196 0 0.0698039 0 
0.0705882 0 0.0713725 0 0.0721569 0 0.0729412 0 0.0737255 
0 0.0745098 0 0.0752941 0 0.0760784 0 0.0768627 0 
0.0776471 0 0.0784314 0 0.0792157 0 0.08 0 0.0807843 
0 0.0815686 0 0.0823529 0 0.0831373 0 0.0839216 0 
0.0847059 0 0.0854902 0 0.0862745 0 0.0870588 0 0.0878431 
0 0.0886275 0 0.0894118 0 0.0901961 0 0.0909804 0 
0.0917647 0 0.092549 0 0.0933333 0 0.0941176 0 0.094902 
0 0.0956863 0 0.0964706 0 0.0972549 0 0.0980392 0 
0.0988235 0 0.0996078 0 0.100392 0 0.101176 0 0.101961 
0 0.102745 0 0.103529 0 0.104314 0 0.105098 0 
0.105882 0 0.106667 0 0.107451 0 0.108235 0 0.10902 
0 0.109804 0 0.110588 0 0.111373 0 0.112157 0 
0.112941 0 0.113725 0 0.11451 0 0.115294 0 0.116078 
0 0.116863 0 0.117647 0 0.118431 0 0.119216 0 
0.12 0 0.120784 0 0.121569 0 0.122353 0 0.123137 
0 0.123922 0 0.124706 0 0.12549 0 0.126275 0 
0.127059 0 0.127843 0 0.128627 0 0.129412 0 0.130196 
0 0.13098 0 0.131765 0 0.132549 0 0.133333 0 
0.134118 0 0.134902 0 0.135686 0 0.136471 0 0.137255 
0 0.138039 0 0.138824 0 0.139608 0 0.140392 0 
0.141176 0 0.141961 0 0.142745 0 0.143529 0 0.144314 
0 0.145098 0 0.145882 0 0.146667 0 0.147451 0 
0.148235 0 0.14902 0 0.149804 0 0.150588 0 0.151373 
0 0.152157 0 0.152941 0 0.153725 0 0.15451 0 
0.155294 0 0.156078 0 0.156863 0 0.157647 0 0.158431 
0 0.159216 0 0.16 0 0.160784 0 0.161569 0 
0.162353 0 0.163137 0 0.163922 0 0.164706 0 0.16549 
0 0.166275 0 0.167059 0 0.167843 0 0.168627 0 
0.169412 0 0.170196 0 0.17098 0 0.171765 0 0.172549 
0 0.173333 0 0.174118 0 0.174902 0 0.175686 0 
0.176471 0 0.177255 0 0.178039 0 0.178824 0 0.179608 
0 0.180392 0 0.181176 0 0.181961 0 0.182745 0 
0.183529 0 0.184314 0 0.185098 0 0.185882 0 0.186667 
0 0.187451 0 0.188235 0 0.18902 0 0.189804 0 
0.190588 0 0.191373 0 0.192157 0 0.192941 0 0.193725 
0 0.19451 0 0.195294 0 0.196078 0 0.196863 0 
0.197647 0 0.198431 0 0.199216 0 0.2 0 0.200784 
0 0.201569 0 0.202353 0 0.203137 0 0.203922 0 
0.204706 0 0.20549 0 0.206275 0 0.207059 0 0.207843 
0 0.208627 0 0.209412 0 0.210196 0 0.21098 0 
0.211765 0 0.212549 0 0.213333 0 0.214118 0 0.214902 
0 0.215686 0 0.216471 0 0.217255 0 0.218039 0 
0.218824 0 0.219608 0 0.220392 0 0.221176 0 0.221961 
0 0.222745 0 0.223529 0 0.224314 0 0.225098 0 
0.225882 0 0.226667 0 0.227451 0 0.228235 0 0.22902 
0 0.229804 0 0.230588 0 0.231373 0 0.232157 0 
0.232941 0 0.233725 0 0.23451 0 0.235294 0 0.236078 
0 0.236863 0 0.237647 0 0.238431 0 0.239216 0 
0.24 0 0.240784 0 0.241569 0 0.242353 0 0.243137 
0 0.243922 0 0.244706 0 0.24549 0 0.246275 0 
0.247059 0 0.247843 0 0.248627 0 0.249412 0 0.250196 
0 0.25098 0 0.251765 0 0.252549 0 0.253333 0 
0.254118 0 0.254902 0 0.255686 0 0.256471 0 0.257255 
0 0.258039 0 0.258824 0 0.259608 0 0.260392 0 
0.261176 0 0.261961 0 0.262745 0 0.263529 0 0.264314 
0 0.265098 0 0.265882 0 0.266667 0 0.267451 0 
0.268235 0 0.26902 0 0.269804 0 0.270588 0 0.271373 
0 0.272157 0 0.272941 0 0.273725 0 0.27451 0 
0.275294 0 0.276078 0 0.276863 0 0.277647 0 0.278431 
0 0.279216 0 0.28 0 0.280784 0 0.281569 0 
0.282353 0 0.283137 0 0.283922 0 0.284706 0 0.28549 
0 0.286275 0 0.287059 0 0.287843 0 0.288627 0 
0.289412 0 0.290196 0 0.29098 0 0.291765 0 0.292549 
0 0.293333 0 0.294118 0 0.294902 0 0.295686 0 
0.296471 0 0.297255 0 0.298039 0 0.298824 0 0.299608 
0 0.300392 0 0.301176 0 0.301961 0 0.302745 0 
0.303529 0 0.304314 0 0.305098 0 0.305882 0 0.306667 
0 0.307451 0 0.308235 0 0.30902 0 0.309804 0 
0.310588 0 0.311373 0 0.312157 0 0.312941 0 0.313726 
0 0.31451 0 0.315294 0 0.316078 0 0.316863 0 
0.317647 0 0.318431 0 0.319216 0 0.32 0 0.320784 
0 0.321569 0 0.322353 0 0.323137 0 0.323922 0 
0.324706 0 0.32549 0 0.326275 0 0.327059 0 0.327843 
0 0.328627 0 0.329412 0 0.330196 0 0.33098 0 
0.331765 0 0.332549 0 0.333333 0 0.334118 0 0.334902 
0 0.335686 0 0.336471 0 0.337255 0 0.338039 0 
0.338824 0 0.339608 0 0.340392 0 0.341176 0 0.341961 
0 0.342745 0 0.343529 0 0.344314 0 0.345098 0 
0.345882 0 0.346667 0 0.347451 0 0.348235 0 0.34902 
0 0.349804 0 0.350588 0 0.351373 0 0.352157 0 
0.352941 0 0.353725 0 0.35451 0 0.355294 0 0.356078 
0 0.356863 0 0.357647 0 0.358431 0 0.359216 0 
0.36 0 0.360784 0 0.361569 0 0.362353 0 0.363137 
0 0.363922 0 0.364706 0 0.36549 0 0.366275 0 
0.367059 0 0.367843 0 0.368627 0 0.369412 0 0.370196 
0 0.37098 0 0.371765 0 0.372549 0 0.373333 0 
0.374118 0 0.374902 0 0.375686 0 0.376471 0 0.377255 
0 0.378039 0 0.378824 0 0.379608 0 0.380392 0 
0.381176 0 0.381961 0 0.382745 0 0.383529 0 0.384314 
0 0.385098 0 0.385882 0 0.386667 0 0.387451 0 
0.388235 0 0.38902 0 0.389804 0 0.390588 0 0.391373 
0 0.392157 0 0.392941 0 0.393725 0 0.39451 0 
0.395294 0 0.396078 0 0.396863 0 0.397647 0 0.398431 
0 0.399216 0 0.4 0 0.400784 0 0.401569 0 
0.402353 0 0.403137 0 0.403922 0 0.404706 0 0.40549 
0 0.406274 0 0.407059 0 0.407843 0 0.408627 0 
0.409412 0 0.410196 0 0.41098 0 0.411765 0 0.412549 
0 0.413333 0 0.414118 0 0.414902 0 0.415686 0 
0.416471 0 0.417255 0 0.418039 0 0.418824 0 0.419608 
0 0.420392 0 0.421176 0 0.421961 0 0.422745 0 
0.423529 0 0.424314 0 0.425098 0 0.425882 0 0.426667 
0 0.427451 0 0.428235 0 0.42902 0 0.429804 0 
0.430588 0 0.431373 0 0.432157 0 0.432941 0 0.433725 
0 0.43451 0 0.435294 0 0.436078 0 0.436863 0 
0.437647 0 0.438431 0 0.439216 0 0.44 0 0.440784 
0 0.441569 0 0.442353 0 0.443137 0 0.443922 0 
0.444706 0 0.44549 0 0.446275 0 0.447059 0 0.447843 
0 0.448627 0 0.449412 0 0.450196 0 0.45098 0 
0.451765 0 0.452549 0 0.453333 0 0.454118 0 0.454902 
0 0.455686 0 0.456471 0 0.457255 0 0.458039 0 
0.458824 0 0.459608 0 0.460392 0 0.461176 0 0.461961 
0 0.462745 0 0.463529 0 0.464314 0 0.465098 0 
0.465882 0 0.466667 0 0.467451 0 0.468235 0 0.46902 
0 0.469804 0 0.470588 0 0.471373 0 0.472157 0 
0.472941 0 0.473725 0 0.47451 0 0.475294 0 0.476078 
0 0.476863 0 0.477647 0 0.478431 0 0.479216 0 
0.48 0 0.480784 0 0.481569 0 0.482353 0 0.483137 
0 0.483922 0 0.484706 0 0.48549 0 0.486275 0 
0.487059 0 0.487843 0 0.488627 0 0.489412 0 0.490196 
0 0.49098 0 0.491765 0 0.492549 0 0.493333 0 
0.494118 0 0.494902 0 0.495686 0 0.496471 0 0.497255 
0 0.498039 0 0.498824 0 0.499608 0 0.500392 0 
0.501176 0 0.501961 0 0.502745 0 0.503529 0 0.504314 
0 0.505098 0 0.505882 0 0.506667 0 0.507451 0 
0.508235 0 0.50902 0 0.509804 0 0.510588 0 0.511373 
0 0.512157 0 0.512941 0 0.513726 0 0.51451 0 
0.515294 0 0.516078 0 0.516863 0 0.517647 0 0.518431 
0 0.519216 0 0.52 0 0.520784 0 0.521569 0 
0.522353 0 0.523137 0 0.523922 0 0.524706 0 0.52549 
0 0.526275 0 0.527059 0 0.527843 0 0.528627 0 
0.529412 0 0.530196 0 0.53098 0 0.531765 0 0.532549 
0 0.533333 0 0.534118 0 0.534902 0 0.535686 0 
0.536471 0 0.537255 0 0.538039 0 0.538824 0 0.539608 
0 0.540392 0 0.541176 0 0.541961 0 0.542745 0 
0.543529 0 0.544314 0 0.545098 0 0.545882 0 0.546667 
0 0.547451 0 0.548235 0 0.54902 0 0.549804 0 
0.550588 0 0.551373 0 0.552157 0 0.552941 0 0.553725 
0 0.55451 0 0.555294 0 0.556078 0 0.556863 0 
0.557647 0 0.558431 0 0.559216 0 0.56 0 0.560784 
0 0.561569 0 0.562353 0 0.563137 0 0.563922 0 
0.564706 0 0.56549 0 0.566275 0 0.567059 0 0.567843 
0 0.568627 0 0.569412 0 0.570196 0 0.57098 0 
0.571765 0 0.572549 0 0.573333 0 0.574118 0 0.574902 
0 0.575686 0 0.576471 0 0.577255 0 0.578039 0 
0.578824 0 0.579608 0 0.580392 0 0.581176 0 0.581961 
0 0.582745 0 0.583529 0 0.584314 0 0.585098 0 
0.585882 0 0.586667 0 0.587451 0 0.588235 0 0.58902 
0 0.589804 0 0.590588 0 0.591373 0 0.592157 0 
0.592941 0 0.593726 0 0.59451 0 0.595294 0 0.596078 
0 0.596863 0 0.597647 0 0.598431 0 0.599216 0 
0.6 0 0.600784 0 0.601569 0 0.602353 0 0.603137 
0 0.603922 0 0.604706 0 0.60549 0 0.606274 0 
0.607059 0 0.607843 0 0.608627 0 0.609412 0 0.610196 
0 0.61098 0 0.611765 0 0.612549 0 0.613333 0 
0.614118 0 0.614902 0 0.615686 0 0.616471 0 0.617255 
0 0.618039 0 0.618824 0 0.619608 0 0.620392 0 
0.621176 0 0.621961 0 0.622745 0 0.623529 0 0.624314 
0 0.625098 0 0.625882 0 0.626667 0 0.627451 0 
0.628235 0 0.62902 0 0.629804 0 0.630588 0 0.631373 
0 0.632157 0 0.632941 0 0.633725 0 0.63451 0 
0.635294 0 0.636078 0 0.636863 0 0.637647 0 0.638431 
0 0.639216 0 0.64 0 0.640784 0 0.641569 0 
0.642353 0 0.643137 0 0.643922 0 0.644706 0 0.64549 
0 0.646275 0 0.647059 0 0.647843 0 0.648627 0 
0.649412 0 0.650196 0 0.65098 0 0.651765 0 0.652549 
0 0.653333 0 0.654118 0 0.654902 0 0.655686 0 
0.656471 0 0.657255 0 0.658039 0 0.658824 0 0.659608 
0 0.660392 0 0.661176 0 0.661961 0 0.662745 0 
0.663529 0 0.664314 0 0.665098 0 0.665882 0 0.666667 
0 0.667451 0 0.668235 0 0.66902 0 0.669804 0 