# vtk DataFile Version 4.2
vtk output
ASCII
DATASET POLYDATA
POINTS 1278 float
0 0 0 -0.00350309 0.00150508 0.00150224 -0.0137274 0.00587936 0.00587967 
-0.0302454 0.0129114 0.0129384 -0.0526297 0.0223899 0.0224845 -0.0804529 0.0341033 0.034324 
-0.113287 0.0478402 0.048263 -0.150706 0.0633893 0.0641077 -0.192281 0.0805391 0.0816641 
-0.237585 0.0990781 0.100738 -0.28619 0.118795 0.121136 -0.33767 0.139478 0.142664 
-0.391596 0.160917 0.165128 -0.447542 0.182899 0.188334 -0.505079 0.205213 0.212089 
-0.56378 0.227648 0.236197 -0.623219 0.249992 0.260466 -0.682966 0.272035 0.284702 
-0.742596 0.293563 0.30871 -0.80168 0.314367 0.332296 -0.859791 0.334235 0.355268 
-0.916502 0.352955 0.37743 -0.97152 0.370383 0.398652 -1.02491 0.38655 0.418966 
-1.07678 0.401515 0.438433 -1.12727 0.41534 0.457112 -1.17648 0.428083 0.475064 
-1.22454 0.439806 0.492347 -1.27156 0.450566 0.509023 -1.31768 0.460425 0.525151 
-1.36299 0.469443 0.54079 -1.40764 0.477679 0.556002 -1.45173 0.485193 0.570845 
-1.49539 0.492045 0.585379 -1.53873 0.498295 0.599665 -1.58187 0.504003 0.613763 
-1.62494 0.509228 0.627731 -1.66805 0.514032 0.641631 -1.71133 0.518473 0.655522 
-1.75489 0.522611 0.669463 -1.79885 0.526507 0.683516 -1.84332 0.530217 0.697736 
-1.88834 0.53375 0.71214 -1.93387 0.537083 0.726716 -1.97986 0.540191 0.741452 
-2.02629 0.54305 0.756333 -2.07311 0.545635 0.771347 -2.12029 0.547923 0.786483 
-2.16779 0.549888 0.801725 -2.21558 0.551507 0.817063 -2.26362 0.552755 0.832482 
-2.31187 0.553607 0.847971 -2.36029 0.55404 0.863515 -2.40885 0.554029 0.879104 
-2.45751 0.553549 0.894722 -2.50623 0.552577 0.910359 -2.55498 0.551087 0.926 
-2.60373 0.549056 0.941633 -2.65242 0.546458 0.957245 -2.70103 0.543271 0.972824 
-2.74953 0.539468 0.988356 -2.79786 0.535027 1.00383 -2.84601 0.52993 1.01923 
-2.89397 0.524182 1.03458 -2.94175 0.517794 1.04986 -2.98933 0.510773 1.0651 
-3.03673 0.503129 1.0803 -3.08395 0.494872 1.09546 -3.13098 0.486011 1.1106 
-3.17783 0.476554 1.12572 -3.2245 0.466511 1.14083 -3.27099 0.455891 1.15593 
-3.3173 0.444703 1.17103 -3.36343 0.432957 1.18615 -3.40938 0.420661 1.20128 
-3.45516 0.407826 1.21643 -3.50076 0.394459 1.23162 -3.54618 0.38057 1.24685 
-3.59143 0.366169 1.26212 -3.63651 0.351264 1.27744 -3.68141 0.335865 1.29283 
-3.72615 0.319981 1.30828 -3.77071 0.303621 1.3238 -3.8151 0.286791 1.33941 
-3.85932 0.269498 1.35508 -3.90335 0.251747 1.37083 -3.94719 0.233545 1.38665 
-3.99084 0.214898 1.40254 -4.0343 0.195812 1.41851 -4.07756 0.176293 1.43454 
-4.12061 0.156346 1.45065 -4.16345 0.13598 1.46682 -4.20608 0.115198 1.48306 
-4.2485 0.0940073 1.49937 -4.29069 0.0724142 1.51575 -4.33265 0.0504246 1.53219 
-4.37439 0.0280446 1.5487 -4.41589 0.00528017 1.56527 -4.45715 -0.0178625 1.5819 
-4.49816 -0.0413774 1.5986 -4.53893 -0.0652585 1.61536 -4.57945 -0.0894995 1.63218 
-4.61971 -0.114094 1.64906 -4.65971 -0.139036 1.666 -4.69946 -0.164314 1.683 
-4.73897 -0.189922 1.70005 -4.77823 -0.215849 1.71717 -4.81725 -0.242087 1.73434 
-4.85604 -0.268628 1.75156 -4.89459 -0.295463 1.76884 -4.93292 -0.322582 1.78618 
-4.97103 -0.349978 1.80356 -5.00892 -0.377641 1.821 -5.0466 -0.405562 1.83849 
-5.08406 -0.433734 1.85603 -5.12133 -0.462146 1.87362 -5.15839 -0.490791 1.89125 
-5.19525 -0.51966 1.90894 -5.23192 -0.548743 1.92667 -5.26841 -0.578032 1.94445 
-5.30471 -0.607519 1.96227 -5.34083 -0.637194 1.98013 -5.37677 -0.667049 1.99804 
-5.41255 -0.697076 2.016 -5.44815 -0.727271 2.03399 -5.4836 -0.757629 2.05201 
-5.51889 -0.788146 2.07008 -5.55402 -0.818817 2.08817 -5.58901 -0.849637 2.1063 
-5.62386 -0.880602 2.12445 -5.65857 -0.911707 2.14262 -5.69314 -0.942948 2.16082 
-5.72759 -0.974319 2.17904 -5.76191 -1.00582 2.19728 -5.79611 -1.03744 2.21553 
-5.8302 -1.06917 2.23379 -5.86418 -1.10102 2.25207 -5.89805 -1.13298 2.27035 
-5.93182 -1.16504 2.28864 -5.96549 -1.1972 2.30693 -5.99908 -1.22945 2.32523 
-6.03257 -1.2618 2.34352 -6.06599 -1.29423 2.3618 -6.09933 -1.32673 2.38008 
-6.13259 -1.35932 2.39835 -6.16579 -1.39199 2.4166 -6.19892 -1.42472 2.43484 
-6.23199 -1.45753 2.45305 -6.26501 -1.49041 2.47124 -6.29797 -1.52336 2.48939 
-6.33089 -1.55637 2.50751 -6.36376 -1.58945 2.5256 -6.3966 -1.62258 2.54363 
-6.4294 -1.65578 2.56163 -6.46218 -1.68903 2.57957 -6.49493 -1.72234 2.59746 
-6.52766 -1.7557 2.61528 -6.56037 -1.7891 2.63305 -6.59307 -1.82256 2.65075 
-6.62576 -1.85607 2.66838 -6.65845 -1.88961 2.68593 -6.69114 -1.9232 2.7034 
-6.72383 -1.95683 2.72079 -6.75653 -1.9905 2.7381 -6.78925 -2.0242 2.75531 
-6.82198 -2.05794 2.77242 -6.85474 -2.09172 2.78943 -6.88751 -2.12553 2.80632 
-6.92031 -2.15937 2.8231 -6.95313 -2.19325 2.83974 -6.98599 -2.22717 2.85626 
-7.01888 -2.26112 2.87263 -7.05181 -2.2951 2.88886 -7.08478 -2.32911 2.90494 
-7.11779 -2.36316 2.92086 -7.15085 -2.39724 2.93661 -7.18395 -2.43136 2.95219 
-7.21711 -2.4655 2.96758 -7.25032 -2.49968 2.9828 -7.2836 -2.53388 2.99782 
-7.31693 -2.56812 3.01264 -7.35032 -2.60239 3.02725 -7.38378 -2.63668 3.04165 
-7.41732 -2.67101 3.05584 -7.45092 -2.70537 3.06979 -7.4846 -2.73975 3.0835 
-7.51835 -2.77417 3.09697 -7.55217 -2.80861 3.11017 -7.58606 -2.84309 3.1231 
-7.62003 -2.87761 3.13574 -7.65408 -2.91215 3.14809 -7.6882 -2.94673 3.16014 
-7.72239 -2.98134 3.17186 -7.75666 -3.01598 3.18326 -7.79101 -3.05066 3.19432 
-7.82544 -3.08538 3.20502 -7.85994 -3.12013 3.21536 -7.89452 -3.15492 3.22533 
-7.92918 -3.18975 3.23492 -7.96392 -3.22461 3.2441 -7.99874 -3.25951 3.25288 
-8.03364 -3.29445 3.26125 -8.06862 -3.32943 3.26918 -8.10369 -3.36445 3.27667 
-8.13883 -3.39951 3.28371 -8.17404 -3.43461 3.29028 -8.20932 -3.46975 3.29636 
-8.24466 -3.50491 3.30193 -8.28004 -3.54012 3.30697 -8.31547 -3.57535 3.31148 
-8.35093 -3.61061 3.31542 -8.38641 -3.6459 3.31878 -8.42192 -3.68121 3.32155 
-8.45744 -3.71654 3.3237 -8.49296 -3.7519 3.32522 -8.52847 -3.78728 3.32609 
-8.56397 -3.82267 3.32629 -8.59946 -3.85808 3.3258 -8.63491 -3.8935 3.32462 
-8.67033 -3.92894 3.3227 -8.70571 -3.96438 3.32005 -8.74103 -3.99983 3.31664 
-8.7763 -4.03529 3.31246 -8.8115 -4.07075 3.30748 -8.84662 -4.10622 3.30169 
-8.88165 -4.14168 3.29508 -8.91657 -4.17712 3.28766 -8.95135 -4.21254 3.2794 
-8.98598 -4.24793 3.27032 -9.02043 -4.28328 3.2604 -9.05469 -4.31858 3.24965 
-9.08873 -4.35382 3.23805 -9.12253 -4.38899 3.22561 -9.15608 -4.42409 3.21231 
-9.18935 -4.4591 3.19816 -9.22232 -4.49402 3.18315 -9.25497 -4.52883 3.16728 
-9.28729 -4.56354 3.15053 -9.31924 -4.59813 3.13292 -9.35081 -4.63258 3.11443 
-9.38199 -4.6669 3.09505 -9.41274 -4.70108 3.0748 -9.44305 -4.7351 3.05365 
-9.4729 -4.76895 3.03161 -9.50227 -4.80264 3.00867 -9.53115 -4.83614 2.98485 
-9.55952 -4.86947 2.96016 -9.58737 -4.9026 2.93462 -9.6147 -4.93555 2.90826 
-9.6415 -4.9683 2.8811 -9.66776 -5.00085 2.85315 -9.69347 -5.03319 2.82443 
-9.71862 -5.06533 2.79498 -9.74319 -5.09725 2.76479 -9.76719 -5.12896 2.73391 
-9.7906 -5.16045 2.70234 -9.81342 -5.1917 2.6701 -9.83562 -5.22273 2.63723 
-9.85721 -5.25353 2.60373 -9.87818 -5.28408 2.56963 -9.8985 -5.31439 2.53494 
-9.91819 -5.34446 2.49969 -9.93722 -5.37427 2.4639 -9.95559 -5.40382 2.42759 
-9.97329 -5.43311 2.39078 -9.99031 -5.46215 2.35348 -10.0067 -5.49092 2.31572 
-10.0224 -5.51944 2.27751 -10.0374 -5.54772 2.23887 -10.0518 -5.57575 2.19982 
-10.0655 -5.60355 2.16037 -10.0786 -5.63111 2.12054 -10.0911 -5.65845 2.08035 
-10.1029 -5.68556 2.03981 -10.1141 -5.71245 1.99894 -10.1247 -5.73913 1.95777 
-10.1347 -5.7656 1.9163 -10.1441 -5.79186 1.87456 -10.1529 -5.81793 1.83256 
-10.1611 -5.8438 1.79032 -10.1687 -5.86948 1.74785 -10.1758 -5.89497 1.70518 
-10.1823 -5.92029 1.66231 -10.1882 -5.94542 1.61928 -10.1935 -5.97039 1.57609 
-10.1983 -5.99519 1.53276 -10.2025 -6.01983 1.4893 -10.2062 -6.04431 1.44571 
-10.2094 -6.06865 1.40201 -10.212 -6.09284 1.35821 -10.2141 -6.11689 1.31431 
-10.2157 -6.1408 1.27031 -10.2168 -6.16459 1.22624 -10.2174 -6.18826 1.18209 
-10.2175 -6.21181 1.13787 -10.2171 -6.23524 1.09359 -10.2162 -6.25857 1.04927 
-10.2148 -6.2818 1.0049 -10.213 -6.30493 0.960505 -10.2106 -6.32797 0.91608 
-10.2079 -6.35093 0.871638 -10.2046 -6.37381 0.827187 -10.2009 -6.39661 0.782734 
-10.1968 -6.41935 0.738289 -10.1923 -6.44202 0.693859 -10.1873 -6.46464 0.649452 
-10.1819 -6.4872 0.605073 -10.176 -6.50971 0.560728 -10.1698 -6.53218 0.51642 
-10.1631 -6.55461 0.472156 -10.1561 -6.57701 0.42794 -10.1486 -6.59938 0.383776 
-10.1407 -6.62172 0.33967 -10.1324 -6.64405 0.295626 -10.1238 -6.66636 0.251649 
-10.1147 -6.68865 0.207744 -10.1053 -6.71095 0.163916 -10.0955 -6.73324 0.120169 
-10.0853 -6.75553 0.0765094 -10.0748 -6.77783 0.0329406 -10.0638 -6.80015 -0.010532 
-10.0526 -6.82248 -0.0539037 -10.0409 -6.84484 -0.0971697 -10.0289 -6.86722 -0.140325 
-10.0166 -6.88963 -0.183365 -10.0039 -6.91208 -0.226285 -9.99091 -6.93457 -0.26908 
-9.97755 -6.95711 -0.311746 -9.96386 -6.97969 -0.35428 -9.94983 -7.00232 -0.396676 
-9.93548 -7.02502 -0.438932 -9.92081 -7.04777 -0.481042 -9.90581 -7.07059 -0.523003 
-9.89049 -7.09347 -0.564811 -9.87486 -7.11643 -0.606461 -9.85892 -7.13947 -0.64795 
-9.84267 -7.16258 -0.689274 -9.82611 -7.18578 -0.730427 -9.80925 -7.20907 -0.771407 
-9.7921 -7.23245 -0.812209 -9.77464 -7.25593 -0.852828 -9.7569 -7.27951 -0.893262 
-9.73886 -7.30319 -0.933505 -9.72054 -7.32698 -0.973554 -9.70193 -7.35088 -1.01341 
-9.68305 -7.3749 -1.05305 -9.66389 -7.39904 -1.09249 -9.64445 -7.42331 -1.13172 
-9.62474 -7.44771 -1.17073 -9.60476 -7.47224 -1.20952 -9.58451 -7.49692 -1.24807 
-9.564 -7.52174 -1.28639 -9.54322 -7.54671 -1.32447 -9.52218 -7.57184 -1.3623 
-9.50088 -7.59714 -1.39988 -9.47932 -7.6226 -1.4372 -9.4575 -7.64823 -1.47426 
-9.43543 -7.67404 -1.51105 -9.41311 -7.70003 -1.54756 -9.39054 -7.72621 -1.58379 
-9.36773 -7.75259 -1.61974 -9.34466 -7.77916 -1.65539 -9.32136 -7.80593 -1.69074 
-9.29781 -7.83292 -1.72579 -9.27402 -7.86012 -1.76054 -9.25 -7.88753 -1.79496 
-9.22574 -7.91517 -1.82907 -9.20125 -7.94304 -1.86284 -9.17654 -7.97113 -1.89628 
-9.15161 -7.99945 -1.92936 -9.12647 -8.028 -1.96209 -9.10111 -8.05679 -1.99445 
[...]
CELL_DATA 1
FIELD FieldData 2
Length 1 1 double
63.87858027 
Tortuosity 1 1 double
0.83949926053 
POINT_DATA 1278
SCALARS MaximumInscribedSphereRadius float
LOOKUP_TABLE default
1.581 1.56516 1.54932 1.53348 1.51763 1.50179 1.48595 1.47011 1.45427 
1.43843 1.42259 1.40675 1.39091 1.37506 1.35922 1.34338 1.32754 1.3117 
1.29586 1.28002 1.26418 1.24889 1.23698 1.22507 1.21316 1.20125 1.18934 
1.17743 1.16552 1.15361 1.1417 1.12979 1.11788 1.10597 1.09406 1.08215 
1.07024 1.05833 1.04642 1.03451 1.0226 1.02181 1.02754 1.03327 1.039 
1.04473 1.05045 1.05618 1.06191 1.06764 1.07337 1.0791 1.08482 1.09055 
1.09628 1.10201 1.10774 1.11346 1.11919 1.12492 1.13065 1.1358 1.13653 
1.13727 1.138 1.13874 1.13947 1.14021 1.14094 1.14168 1.14241 1.14315 
1.14388 1.14462 1.14535 1.14609 1.14683 1.14756 1.1483 1.14903 1.14977 
1.1505 1.14414 1.13692 1.12971 1.12249 1.11528 1.10807 1.10085 1.09364 
1.08642 1.07921 1.07199 1.06478 1.05757 1.05035 1.04314 1.03592 1.02871 
1.0215 1.01428 1.00707 1.00797 1.01405 1.02013 1.02621 1.03228 1.03836 
1.04444 1.05052 1.0566 1.06268 1.06875 1.07483 1.08091 1.08699 1.09307 
1.09914 1.10522 1.1113 1.11738 1.12346 1.13025 1.13851 1.14677 1.15502 
1.16328 1.17153 1.17979 1.18804 1.1963 1.20456 1.21281 1.22107 1.22932 
1.23758 1.24584 1.25409 1.26235 1.2706 1.27886 1.28711 1.29537 1.30354 
1.31171 1.31988 1.32806 1.33623 1.3444 1.35257 1.36075 1.36892 1.37709 
1.38526 1.39344 1.40161 1.40978 1.41795 1.42613 1.4343 1.44247 1.45064 
1.45882 1.45931 1.45739 1.45548 1.45356 1.45164 1.44972 1.4478 1.44589 
1.44397 1.44205 1.44013 1.43822 1.4363 1.43438 1.43246 1.43055 1.42863 
1.42671 1.42479 1.42287 1.41344 1.39573 1.37802 1.36031 1.3426 1.32488 
1.30717 1.28946 1.27175 1.25404 1.23633 1.21862 1.20091 1.1832 1.16549 
1.14778 1.13007 1.11236 1.09465 1.07694 1.06351 1.06763 1.07176 1.07588 
1.08001 1.08413 1.08826 1.09238 1.0965 1.10063 1.10475 1.10888 1.113 
1.11713 1.12125 1.12538 1.1295 1.13363 1.13775 1.14187 1.146 1.16499 
1.18518 1.20538 1.22558 1.24578 1.26598 1.28618 1.30638 1.32658 1.34678 
1.36698 1.38717 1.40737 1.42757 1.44777 1.46797 1.48817 1.50837 1.52857 
1.54877 1.54816 1.5375 1.52685 1.51619 1.50553 1.49487 1.48421 1.47355 
1.46289 1.45223 1.44157 1.43091 1.42025 1.40959 1.39893 1.38827 1.37761 
1.36695 1.35629 1.34563 1.33555 1.32627 1.31698 1.30769 1.2984 1.28911 
1.27982 1.27054 1.26125 1.25196 1.24267 1.23338 1.22409 1.21481 1.20552 
1.19623 1.18694 1.17765 1.16836 1.15908 1.15033 1.14447 1.13862 1.13277 
1.12691 1.12106 1.1152 1.10935 1.10349 1.09764 1.09179 1.08593 1.08008 
1.07422 1.06837 1.06252 1.05666 1.05081 1.04495 1.0391 1.03325 1.03529 
1.03839 1.0415 1.0446 1.04771 1.05081 1.05392 1.05703 1.06013 1.06324 
1.06634 1.06945 1.07255 1.07566 1.07876 1.08187 1.08498 1.08808 1.09119 
1.09429 1.09952 1.10615 1.11278 1.11941 1.12604 1.13267 1.1393 1.14594 
1.15257 1.1592 1.16583 1.17246 1.17909 1.18572 1.19235 1.19898 1.20561 
1.21225 1.21888 1.22551 1.23509 1.25091 1.26673 1.28255 1.29837 1.31419 
1.33001 1.34583 1.36165 1.37747 1.39329 1.40911 1.42493 1.44075 1.45657 
1.47239 1.48821 1.50404 1.51986 1.53568 1.55133 1.56326 1.57519 1.58712 
1.59904 1.61097 1.6229 1.63482 1.64675 1.65868 1.67061 1.68253 1.69446 
1.70639 1.71831 1.73024 1.74217 1.75409 1.76602 1.77795 1.78988 1.78776 
1.78131 1.77486 1.7684 1.76195 1.7555 1.74905 1.7426 1.73614 1.72969 
1.72324 1.71679 1.71034 1.70388 1.69743 1.69098 1.68453 1.67808 1.67162 
1.66517 1.66296 1.66468 1.66641 1.66814 1.66987 1.6716 1.67333 1.67505 
1.67678 1.67851 1.68024 1.68197 1.6837 1.68542 1.68715 1.68888 1.69061 
1.69234 1.69407 1.69579 1.69848 1.70606 1.71363 1.72121 1.72879 1.73636 
1.74394 1.75152 1.75909 1.76667 1.77425 1.78182 1.7894 1.79698 1.80455 
1.81213 1.81971 1.82728 1.83486 1.84244 1.84849 1.8513 1.85411 1.85692 
1.85973 1.86253 1.86534 1.86815 1.87096 1.87377 1.87658 1.87939 1.8822 
1.88501 1.88782 1.89063 1.89344 1.89625 1.89906 1.90187 1.9051 1.91298 
1.92085 1.92873 1.93661 1.94449 1.95237 1.96025 1.96813 1.97601 1.98389 
1.99176 1.99964 2.00752 2.0154 2.02328 2.03116 2.03904 2.04692 2.0548 
2.06267 2.05832 2.0512 2.04407 2.03695 2.02983 2.0227 2.01558 2.00845 
2.00133 1.9942 1.98708 1.97996 1.97283 1.96571 1.95858 1.95146 1.94434 
1.93721 1.93009 1.92296 1.91326 1.90125 1.88924 1.87724 1.86523 1.85323 
1.84122 1.82922 1.81721 1.8052 1.7932 1.78119 1.76919 1.75718 1.74517 
1.73317 1.72116 1.70916 1.69715 1.68514 1.67753 1.68316 1.68879 1.69442 
1.70005 1.70568 1.71131 1.71694 1.72257 1.7282 1.73383 1.73946 1.74508 
1.75071 1.75634 1.76197 1.7676 1.77323 1.77886 1.78449 1.79012 1.79357 
1.79695 1.80033 1.80371 1.8071 1.81048 1.81386 1.81724 1.82062 1.824 
1.82738 1.83076 1.83414 1.83752 1.8409 1.84428 1.84766 1.85104 1.85443 
1.85781 1.85292 1.84546 1.838 1.83054 1.82308 1.81562 1.80816 1.8007 
1.79324 1.78578 1.77831 1.77085 1.76339 1.75593 1.74847 1.74101 1.73355 
1.72609 1.71863 1.71117 1.69919 1.68269 1.66618 1.64967 1.63316 1.61666 
1.60015 1.58364 1.56713 1.55063 1.53412 1.51761 1.5011 1.4846 1.46809 
1.45158 1.43507 1.41857 1.40206 1.38555 1.37199 1.36865 1.36531 1.36198 
1.35864 1.3553 1.35197 1.34863 1.34529 1.34196 1.33862 1.33528 1.33195 
1.32861 1.32527 1.32194 1.3186 1.31526 1.31193 1.30859 1.30526 1.30742 
1.30992 1.31243 1.31493 1.31743 1.31994 1.32244 1.32495 1.32745 1.32996 
1.33246 1.33496 1.33747 1.33997 1.34248 1.34498 1.34749 1.34999 1.35249 
1.355 1.35423 1.35178 1.34933 1.34688 1.34442 1.34197 1.33952 1.33707 
1.33462 1.33216 1.32971 1.32726 1.32481 1.32236 1.3199 1.31745 1.315 
1.31255 1.3101 1.30764 1.30574 1.30474 1.30374 1.30274 1.30174 1.30073 
1.29973 1.29873 1.29773 1.29673 1.29573 1.29473 1.29373 1.29272 1.29172 
1.29072 1.28972 1.28872 1.28772 1.28672 1.28669 1.29601 1.30532 1.31464 
1.32395 1.33326 1.34258 1.35189 1.36121 1.37052 1.37983 1.38915 1.39846 
1.40778 1.41709 1.42641 1.43572 1.44503 1.45435 1.46366 1.47298 1.48194 
1.49082 1.49971 1.50859 1.51747 1.52636 1.53524 1.54413 1.55301 1.56189 
1.57078 1.57966 1.58854 1.59743 1.60631 1.61519 1.62408 1.63296 1.64184 
1.65073 1.65808 1.66407 1.67005 1.67604 1.68202 1.688 1.69399 1.69997 
1.70595 1.71194 1.71792 1.7239 1.72989 1.73587 1.74185 1.74784 1.75382 
1.7598 1.76579 1.77177 1.77431 1.76591 1.75751 1.74911 1.7407 1.7323 
1.7239 1.7155 1.7071 1.6987 1.6903 1.6819 1.6735 1.6651 1.6567 
1.6483 1.6399 1.6315 1.6231 1.6147 1.6063 1.59149 1.57639 1.56128 
1.54617 1.53107 1.51596 1.50085 1.48575 1.47064 1.45553 1.44043 1.42532 
1.41021 1.39511 1.38 1.36489 1.34979 1.33468 1.31957 1.30447 1.30318 
1.30871 1.31424 1.31977 1.3253 1.33083 1.33635 1.34188 1.34741 1.35294 
1.35847 1.364 1.36952 1.37505 1.38058 1.38611 1.39164 1.39717 1.40269 
1.40822 1.41584 1.42679 1.43775 1.4487 1.45965 1.4706 1.48156 1.49251 
1.50346 1.51441 1.52537 1.53632 1.54727 1.55822 1.56918 1.58013 1.59108 
1.60203 1.61299 1.62394 1.63553 1.65268 1.66983 1.68697 1.70412 1.72127 
1.73841 1.75556 1.77271 1.78986 1.807 1.82415 1.8413 1.85844 1.87559 
1.89274 1.90989 1.92703 1.94418 1.96133 1.97847 1.98448 1.98812 1.99175 
1.99539 1.99902 2.00265 2.00629 2.00992 2.01355 2.01719 2.02082 2.02446 
2.02809 2.03172 2.03536 2.03899 2.04262 2.04626 2.04989 2.05352 2.0498 
2.03997 2.03015 2.02033 2.01051 2.00068 1.99086 1.98104 1.97122 1.96139 
1.95157 1.94175 1.93193 1.92211 1.91228 1.90246 1.89264 1.88282 1.87299 
1.86317 1.85503 1.85147 1.8479 1.84434 1.84078 1.83722 1.83366 1.8301 
1.82654 1.82298 1.81942 1.81585 1.81229 1.80873 1.80517 1.80161 1.79805 
1.79449 1.79093 1.78737 1.7838 1.78316 1.78255 1.78194 1.78133 1.78072 
1.78011 1.77949 1.77888 1.77827 1.77766 1.77705 1.77644 1.77583 1.77522 
1.77461 1.774 1.77339 1.77278 1.77217 1.77156 1.77944 1.79086 1.80228 
1.8137 1.82512 1.83654 1.84796 1.85938 1.8708 1.88222 1.89364 1.90506 
1.91648 1.92791 1.93933 1.95075 1.96217 1.97359 1.98501 1.99643 2.00636 
2.01425 2.02215 2.03004 2.03794 2.04583 2.05373 2.06162 2.06951 2.07741 
2.0853 2.0932 2.10109 2.10899 2.11688 2.12477 2.13267 2.14056 2.14846 
2.15635 2.16318 2.16352 2.16386 2.16419 2.16453 2.16487 2.16521 2.16555 
2.16589 2.16623 2.16657 2.1669 2.16724 2.16758 2.16792 2.16826 2.1686 
2.16894 2.16927 2.16961 2.16995 2.17 2.17 2.17 2.17 2.17 
2.17 2.17 2.17 2.17 2.17 2.17 2.17 2.17 2.17 
2.17 2.17 2.17 2.17 2.17 2.17 2.17 2.17 2.17 
2.17 2.17 2.17 2.17 2.17 2.17 2.17 2.17 2.17 
2.17 2.17 2.17 2.17 2.17 2.17 2.17 2.17 2.17 
2.17 2.17 2.17 2.17 2.17 2.17 2.17 2.17 2.17 
2.17 2.17 2.17 2.17 2.17 2.17 2.17 2.17 2.17 
2.17 2.17 2.17 2.17 2.17 2.17 2.17 2.17 2.17 
2.17 2.17 2.17 2.17 2.17 2.17 2.17 2.17 2.17 
2.17 2.17 2.17 2.17 2.17 2.17 2.17 2.17 2.17 
2.17 2.17 2.17 2.17 2.17 2.17 2.17 2.17 2.17 
2.17 2.17 2.17 2.17 2.17 2.17 2.16457 2.1522 2.13983 
2.12746 2.11509 2.10272 2.09035 2.07798 2.06561 2.05324 2.04087 2.0285 
2.01613 2.00377 1.9914 1.97903 1.96666 1.95429 1.94192 1.92955 1.91511 
1.88939 1.86368 1.83796 1.81224 1.78653 1.76081 1.73509 1.70938 1.68366 
1.65794 1.63222 1.60651 1.58079 1.55507 1.52936 1.50364 1.47792 1.4522 
1.42649 1.40077 1.41262 1.43001 1.44741 1.4648 1.4822 1.49959 1.51699 
1.53438 1.55178 1.56917 1.58657 1.60396 1.62136 1.63875 1.65615 1.67354 
1.69094 1.70833 1.72573 1.74312 1.76785 1.79763 1.82741 1.8572 1.88698 
1.91676 1.94655 1.97633 2.00611 2.0359 2.06568 2.09546 2.12525 2.15503 
2.18481 2.2146 2.24438 2.27416 2.30394 2.33373 2.34561 2.31952 2.29343 
2.26734 2.24124 2.21515 2.18906 2.16297 2.13687 2.11078 2.08469 2.0586 
2.03251 2.00641 1.98032 1.95423 1.92814 1.90205 1.87595 1.84986 1.82456 
1.81093 1.79731 1.78368 1.77005 1.75642 1.74279 1.72916 1.71553 1.70191 
1.68828 1.67465 1.66102 1.64739 1.63376 1.62013 1.6065 1.59288 1.57925 
1.56562 1.55199 1.55 1.55 1.55 1.55 1.55 1.55 1.55 
1.55 1.55 1.55 1.55 1.55 1.55 1.55 1.55 1.55 
1.55 1.55 1.55 1.55 1.55 1.55 1.55 1.55 1.55 
1.55 1.55 1.55 1.55 1.55 1.55 1.55 1.55 1.55 
1.55 1.55 1.55 1.55 1.55 1.55 1.55 1.55 1.55 
1.55 1.55 1.55 1.55 1.55 1.55 1.55 1.55 1.55 
1.55 1.55 1.55 1.55 1.55 1.55 1.55 1.55 1.55 

TEXTURE_COORDINATES TCoords 2 float
0 0 0.000783085 0 0.00156617 0 0.00234926 0 0.00313234 
0 0.00391543 0 0.00469851 0 0.0054816 0 0.00626468 0 
0.00704777 0 0.00783085 0 0.00861394 0 0.00939702 0 0.0101801 
0 0.0109632 0 0.0117463 0 0.0125294 0 0.0133125 0 
0.0140955 0 0.0148786 0 0.0156617 0 0.0164448 0 0.0172279 
0 0.018011 0 0.018794 0 0.0195771 0 0.0203602 0 
0.0211433 0 0.0219264 0 0.0227095 0 0.0234926 0 0.0242756 
0 0.0250587 0 0.0258418 0 0.0266249 0 0.027408 0 
0.0281911 0 0.0289742 0 0.0297572 0 0.0305403 0 0.0313234 
0 0.0321065 0 0.0328896 0 0.0336727 0 0.0344558 0 
0.0352388 0 0.0360219 0 0.036805 0 0.0375881 0 0.0383712 
0 0.0391543 0 0.0399374 0 0.0407204 0 0.0415035 0 
0.0422866 0 0.0430697 0 0.0438528 0 0.0446359 0 0.045419 
0 0.046202 0 0.0469851 0 0.0477682 0 0.0485513 0 
0.0493344 0 0.0501175 0 0.0509005 0 0.0516836 0 0.0524667 
0 0.0532498 0 0.0540329 0 0.054816 0 0.0555991 0 
0.0563821 0 0.0571652 0 0.0579483 0 0.0587314 0 0.0595145 
0 0.0602976 0 0.0610807 0 0.0618637 0 0.0626468 0 
0.0634299 0 0.064213 0 0.0649961 0 0.0657792 0 0.0665623 
0 0.0673453 0 0.0681284 0 0.0689115 0 0.0696946 0 
0.0704777 0 0.0712608 0 0.0720439 0 0.0728269 0 0.07361 
0 0.0743931 0 0.0751762 0 0.0759593 0 0.0767424 0 
0.0775255 0 0.0783085 0 0.0790916 0 0.0798747 0 0.0806578 
0 0.0814409 0 0.082224 0 0.083007 0 0.0837901 0 
0.0845732 0 0.0853563 0 0.0861394 0 0.0869225 0 0.0877056 
0 0.0884886 0 0.0892717 0 0.0900548 0 0.0908379 0 
0.091621 0 0.0924041 0 0.0931872 0 0.0939702 0 0.0947533 
0 0.0955364 0 0.0963195 0 0.0971026 0 0.0978857 0 
0.0986688 0 0.0994518 0 0.100235 0 0.101018 0 0.101801 
0 0.102584 0 0.103367 0 0.10415 0 0.104933 0 
0.105717 0 0.1065 0 0.107283 0 0.108066 0 0.108849 
0 0.109632 0 0.110415 0 0.111198 0 0.111981 0 
0.112764 0 0.113547 0 0.11433 0 0.115114 0 0.115897 
0 0.11668 0 0.117463 0 0.118246 0 0.119029 0 
0.119812 0 0.120595 0 0.121378 0 0.122161 0 0.122944 
0 0.123727 0 0.124511 0 0.125294 0 0.126077 0 
0.12686 0 0.127643 0 0.128426 0 0.129209 0 0.129992 
0 0.130775 0 0.131558 0 0.132341 0 0.133125 0 
0.133908 0 0.134691 0 0.135474 0 0.136257 0 0.13704 
0 0.137823 0 0.138606 0 0.139389 0 0.140172 0 
0.140955 0 0.141738 0 0.142522 0 0.143305 0 0.144088 
0 0.144871 0 0.145654 0 0.146437 0 0.14722 0 
0.148003 0 0.148786 0 0.149569 0 0.150352 0 0.151135 
0 0.151919 0 0.152702 0 0.153485 0 0.154268 0 
0.155051 0 0.155834 0 0.156617 0 0.1574 0 0.158183 
0 0.158966 0 0.159749 0 0.160533 0 0.161316 0 
0.162099 0 0.162882 0 0.163665 0 0.164448 0 0.165231 
0 0.166014 0 0.166797 0 0.16758 0 0.168363 0 
0.169146 0 0.16993 0 0.170713 0 0.171496 0 0.172279 
0 0.173062 0 0.173845 0 0.174628 0 0.175411 0 
0.176194 0 0.176977 0 0.17776 0 0.178543 0 0.179327 
0 0.18011 0 0.180893 0 0.181676 0 0.182459 0 
0.183242 0 0.184025 0 0.184808 0 0.185591 0 0.186374 
0 0.187157 0 0.18794 0 0.188724 0 0.189507 0 
0.19029 0 0.191073 0 0.191856 0 0.192639 0 0.193422 
0 0.194205 0 0.194988 0 0.195771 0 0.196554 0 
0.197338 0 0.198121 0 0.198904 0 0.199687 0 0.20047 
0 0.201253 0 0.202036 0 0.202819 0 0.203602 0 
0.204385 0 0.205168 0 0.205951 0 0.206735 0 0.207518 
0 0.208301 0 0.209084 0 0.209867 0 0.21065 0 
0.211433 0 0.212216 0 0.212999 0 0.213782 0 0.214565 
0 0.215348 0 0.216132 0 0.216915 0 0.217698 0 
0.218481 0 0.219264 0 0.220047 0 0.22083 0 0.221613 
0 0.222396 0 0.223179 0 0.223962 0 0.224745 0 
0.225529 0 0.226312 0 0.227095 0 0.227878 0 0.228661 
0 0.229444 0 0.230227 0 0.23101 0 0.231793 0 
0.232576 0 0.233359 0 0.234143 0 0.234926 0 0.235709 
0 0.236492 0 0.237275 0 0.238058 0 0.238841 0 
0.239624 0 0.240407 0 0.24119 0 0.241973 0 0.242756 
0 0.24354 0 0.244323 0 0.245106 0 0.245889 0 
0.246672 0 0.247455 0 0.248238 0 0.249021 0 0.249804 
0 0.250587 0 0.25137 0 0.252153 0 0.252937 0 
0.25372 0 0.254503 0 0.255286 0 0.256069 0 0.256852 
0 0.257635 0 0.258418 0 0.259201 0 0.259984 0 
0.260767 0 0.261551 0 0.262334 0 0.263117 0 0.2639 
0 0.264683 0 0.265466 0 0.266249 0 0.267032 0 
0.267815 0 0.268598 0 0.269381 0 0.270164 0 0.270948 
0 0.271731 0 0.272514 0 0.273297 0 0.27408 0 
0.274863 0 0.275646 0 0.276429 0 0.277212 0 0.277995 
0 0.278778 0 0.279561 0 0.280345 0 0.281128 0 
0.281911 0 0.282694 0 0.283477 0 0.28426 0 0.285043 
0 0.285826 0 0.286609 0 0.287392 0 0.288175 0 
0.288958 0 0.289742 0 0.290525 0 0.291308 0 0.292091 
0 0.292874 0 0.293657 0 0.29444 0 0.295223 0 
0.296006 0 0.296789 0 0.297572 0 0.298356 0 0.299139 
0 0.299922 0 0.300705 0 0.301488 0 0.302271 0 
0.303054 0 0.303837 0 0.30462 0 0.305403 0 0.306186 
0 0.306969 0 0.307753 0 0.308536 0 0.309319 0 
0.310102 0 0.310885 0 0.311668 0 0.312451 0 0.313234 
0 0.314017 0 0.3148 0 0.315583 0 0.316366 0 
0.31715 0 0.317933 0 0.318716 0 0.319499 0 0.320282 
0 0.321065 0 0.321848 0 0.322631 0 0.323414 0 
0.324197 0 0.32498 0 0.325763 0 0.326547 0 0.32733 
0 0.328113 0 0.328896 0 0.329679 0 0.330462 0 
0.331245 0 0.332028 0 0.332811 0 0.333594 0 0.334377 
0 0.335161 0 0.335944 0 0.336727 0 0.33751 0 
0.338293 0 0.339076 0 0.339859 0 0.340642 0 0.341425 
0 0.342208 0 0.342991 0 0.343774 0 0.344558 0 
0.345341 0 0.346124 0 0.346907 0 0.34769 0 0.348473 
0 0.349256 0 0.350039 0 0.350822 0 0.351605 0 
0.352388 0 0.353171 0 0.353955 0 0.354738 0 0.355521 
0 0.356304 0 0.357087 0 0.35787 0 0.358653 0 
0.359436 0 0.360219 0 0.361002 0 0.361785 0 0.362569 
0 0.363352 0 0.364135 0 0.364918 0 0.365701 0 
0.366484 0 0.367267 0 0.36805 0 0.368833 0 0.369616 
0 0.370399 0 0.371182 0 0.371966 0 0.372749 0 
0.373532 0 0.374315 0 0.375098 0 0.375881 0 0.376664 
0 0.377447 0 0.37823 0 0.379013 0 0.379796 0 
0.380579 0 0.381363 0 0.382146 0 0.382929 0 0.383712 
0 0.384495 0 0.385278 0 0.386061 0 0.386844 0 
0.387627 0 0.38841 0 0.389193 0 0.389977 0 0.39076 
0 0.391543 0 0.392326 0 0.393109 0 0.393892 0 
0.394675 0 0.395458 0 0.396241 0 0.397024 0 0.397807 
0 0.39859 0 0.399374 0 0.400157 0 0.40094 0 
0.401723 0 0.402506 0 0.403289 0 0.404072 0 0.404855 
0 0.405638 0 0.406421 0 0.407204 0 0.407987 0 
0.408771 0 0.409554 0 0.410337 0 0.41112 0 0.411903 
0 0.412686 0 0.413469 0 0.414252 0 0.415035 0 
0.415818 0 0.416601 0 0.417385 0 0.418168 0 0.418951 
0 0.419734 0 0.420517 0 0.4213 0 0.422083 0 
0.422866 0 0.423649 0 0.424432 0 0.425215 0 0.425998 
0 0.426782 0 0.427565 0 0.428348 0 0.429131 0 
0.429914 0 0.430697 0 0.43148 0 0.432263 0 0.433046 
0 0.433829 0 0.434612 0 0.435395 0 0.436179 0 
0.436962 0 0.437745 0 0.438528 0 0.439311 0 0.440094 
0 0.440877 0 0.44166 0 0.442443 0 0.443226 0 
0.444009 0 0.444792 0 0.445576 0 0.446359 0 0.447142 
0 0.447925 0 0.448708 0 0.449491 0 0.450274 0 
0.451057 0 0.45184 0 0.452623 0 0.453406 0 0.45419 
0 0.454973 0 0.455756 0 0.456539 0 0.457322 0 
0.458105 0 0.458888 0 0.459671 0 0.460454 0 0.461237 
0 0.46202 0 0.462803 0 0.463587 0 0.46437 0 
0.465153 0 0.465936 0 0.466719 0 0.467502 0 0.468285 
0 0.469068 0 0.469851 0 0.470634 0 0.471417 0 
0.4722 0 0.472984 0 0.473767 0 0.47455 0 0.475333 
0 0.476116 0 0.476899 0 0.477682 0 0.478465 0 
0.479248 0 0.480031 0 0.480814 0 0.481597 0 0.482381 
0 0.483164 0 0.483947 0 0.48473 0 0.485513 0 
0.486296 0 0.487079 0 0.487862 0 0.488645 0 0.489428 
0 0.490211 0 0.490995 0 0.491778 0 0.492561 0 
0.493344 0 0.494127 0 0.49491 0 0.495693 0 0.496476 
0 0.497259 0 0.498042 0 0.498825 0 0.499608 0 
0.500392 0 0.501175 0 0.501958 0 0.502741 0 0.503524 
0 0.504307 0 0.50509 0 0.505873 0 0.506656 0 
0.507439 0 0.508222 0 0.509005 0 0.509789 0 0.510572 
0 0.511355 0 0.512138 0 0.512921 0 0.513704 0 
0.514487 0 0.51527 0 0.516053 0 0.516836 0 0.517619 
0 0.518403 0 0.519186 0 0.519969 0 0.520752 0 
0.521535 0 0.522318 0 0.523101 0 0.523884 0 0.524667 
0 0.52545 0 0.526233 0 0.527016 0 0.5278 0 
0.528583 0 0.529366 0 0.530149 0 0.530932 0 0.531715 
0 0.532498 0 0.533281 0 0.534064 0 0.534847 0 
0.53563 0 0.536413 0 0.537197 0 0.53798 0 0.538763 
0 0.539546 0 0.540329 0 0.541112 0 0.541895 0 
0.542678 0 0.543461 0 0.544244 0 0.545027 0 0.545811 
0 0.546594 0 0.547377 0 0.54816 0 0.548943 0 
0.549726 0 0.550509 0 0.551292 0 0.552075 0 0.552858 
0 0.553641 0 0.554424 0 0.555207 0 0.555991 0 
0.556774 0 0.557557 0 0.55834 0 0.559123 0 0.559906 
0 0.560689 0 0.561472 0 0.562255 0 0.563038 0 
0.563821 0 0.564605 0 0.565388 0 0.566171 0 0.566954 
0 0.567737 0 0.56852 0 0.569303 0 0.570086 0 
0.570869 0 0.571652 0 0.572435 0 0.573218 0 0.574002 
0 0.574785 0 0.575568 0 0.576351 0 0.577134 0 
0.577917 0 0.5787 0 0.579483 0 0.580266 0 0.581049 
0 0.581832 0 0.582615 0 0.583399 0 0.584182 0 
0.584965 0 0.585748 0 0.586531 0 0.587314 0 0.588097 
0 0.58888 0 0.589663 0 0.590446 0 0.591229 0 
0.592013 0 0.592796 0 0.593579 0 0.594362 0 0.595145 
0 0.595928 0 0.596711 0 0.597494 0 0.598277 0 
0.59906 0 0.599843 0 0.600626 0 0.60141 0 0.602193 
0 0.602976 0 0.603759 0 0.604542 0 0.605325 0 
0.606108 0 0.606891 0 0.607674 0 0.608457 0 0.60924 
0 0.610023 0 0.610807 0 0.61159 0 0.612373 0 
0.613156 0 0.613939 0 0.614722 0 0.615505 0 0.616288 
0 0.617071 0 0.617854 0 0.618637 0 0.619421 0 
0.620204 0 0.620987 0 0.62177 0 0.622553 0 0.623336 
0 0.624119 0 0.624902 0 0.625685 0 0.626468 0 
0.627251 0 0.628034 0 0.628818 0 0.629601 0 0.630384 
0 0.631167 0 0.63195 0 0.632733 0 0.633516 0 
0.634299 0 0.635082 0 0.635865 0 0.636648 0 0.637432 
0 0.638215 0 0.638998 0 0.639781 0 0.640564 0 
0.641347 0 0.64213 0 0.642913 0 0.643696 0 0.644479 
0 0.645262 0 0.646045 0 0.646829 0 0.647612 0 
0.648395 0 0.649178 0 0.649961 0 0.650744 0 0.651527 
0 0.65231 0 0.653093 0 0.653876 0 0.654659 0 
0.655442 0 0.656226 0 0.657009 0 0.657792 0 0.658575 
0 0.659358 0 0.660141 0 0.660924 0 0.661707 0 
0.66249 0 0.663273 0 0.664056 0 0.664839 0 0.665623 
0 0.666406 0 0.667189 0 0.667972 0 0.668755 0 
0.669538 0 0.670321 0 0.671104 0 0.671887 0 0.67267 
0 0.673453 0 0.674236 0 0.67502 0 0.675803 0 
0.676586 0 0.677369 0 0.678152 0 0.678935 0 0.679718 
0 0.680501 0 0.681284 0 0.682067 0 0.68285 0 
0.683634 0 0.684417 0 0.6852 0 0.685983 0 0.686766 
0 0.687549 0 0.688332 0 0.689115 0 0.689898 0 
0.690681 0 0.691464 0 0.692247 0 0.693031 0 0.693814 
0 0.694597 0 0.69538 0 0.696163 0 0.696946 0 