# vtk DataFile Version 4.2
vtk output
ASCII
DATASET POLYDATA
POINTS 1278 float
0 0 0 -0.00282866 -0.000646654 0.00286419 -0.0110886 -0.00253605 0.0112088 
-0.0244408 -0.00559235 0.024662 -0.0425461 -0.00973971 0.0428518 -0.0650656 -0.0149023 0.0654063 
-0.0916601 -0.0210042 0.0919537 -0.121991 -0.0279697 0.122122 -0.155718 -0.0357228 0.155539 
-0.192504 -0.0441878 0.191834 -0.232008 -0.0532888 0.230633 -0.273892 -0.0629499 0.271566 
-0.317817 -0.0730954 0.314261 -0.363444 -0.0836493 0.358344 -0.410433 -0.0945358 0.403446 
-0.458446 -0.105679 0.449193 -0.507144 -0.117003 0.495214 -0.556187 -0.128433 0.541137 
-0.605237 -0.139891 0.586589 -0.653954 -0.151303 0.6312 -0.701999 -0.162593 0.674597 
-0.749034 -0.173684 0.716408 -0.794799 -0.184519 0.756353 -0.839325 -0.195102 0.794473 
-0.882706 -0.205453 0.830884 -0.925034 -0.215591 0.865701 -0.966404 -0.225535 0.899041 
-1.00691 -0.235304 0.931016 -1.04665 -0.244917 0.961744 -1.08571 -0.254394 0.991339 
-1.12418 -0.263753 1.01992 -1.16217 -0.273014 1.04759 -1.19977 -0.282196 1.07448 
-1.23706 -0.291317 1.1007 -1.27415 -0.300398 1.12636 -1.31112 -0.309457 1.15157 
-1.34808 -0.318514 1.17647 -1.38511 -0.327587 1.20115 -1.42231 -0.336696 1.22573 
-1.45977 -0.345859 1.25034 -1.49759 -0.355097 1.27508 -1.53586 -0.364427 1.30006 
-1.5746 -0.373854 1.32533 -1.61379 -0.383372 1.35085 -1.6534 -0.392975 1.37661 
-1.69342 -0.402655 1.40257 -1.73381 -0.412406 1.42871 -1.77455 -0.422221 1.455 
-1.81561 -0.432095 1.48141 -1.85698 -0.442019 1.50792 -1.89861 -0.451988 1.5345 
-1.94049 -0.461994 1.56112 -1.98259 -0.472032 1.58776 -2.02489 -0.482094 1.61439 
-2.06735 -0.492175 1.64098 -2.10996 -0.502266 1.66751 -2.15269 -0.512362 1.69395 
-2.19552 -0.522456 1.72027 -2.23841 -0.532541 1.74644 -2.28134 -0.542611 1.77245 
-2.32429 -0.552658 1.79826 -2.36723 -0.562678 1.82384 -2.41015 -0.572663 1.84918 
-2.45304 -0.582614 1.87429 -2.49591 -0.592531 1.89918 -2.53876 -0.602412 1.92385 
-2.5816 -0.612259 1.94833 -2.62444 -0.622071 1.97261 -2.66727 -0.631848 1.99672 
-2.7101 -0.641589 2.02067 -2.75294 -0.651295 2.04447 -2.79579 -0.660965 2.06812 
-2.83865 -0.670599 2.09164 -2.88154 -0.680198 2.11505 -2.92445 -0.68976 2.13834 
-2.96739 -0.699287 2.16155 -3.01036 -0.708776 2.18467 -3.05337 -0.71823 2.20771 
-3.09642 -0.727647 2.2307 -3.13951 -0.737027 2.25364 -3.18266 -0.74637 2.27654 
-3.22587 -0.755676 2.29942 -3.26913 -0.764944 2.32228 -3.31245 -0.774175 2.34513 
-3.35583 -0.783366 2.36796 -3.39926 -0.792518 2.39079 -3.44274 -0.801628 2.4136 
-3.48626 -0.810696 2.4364 -3.52983 -0.81972 2.45919 -3.57345 -0.828701 2.48197 
-3.61709 -0.837636 2.50474 -3.66078 -0.846525 2.5275 -3.7045 -0.855367 2.55025 
-3.74824 -0.86416 2.57299 -3.79202 -0.872904 2.59572 -3.83581 -0.881598 2.61844 
-3.87963 -0.890241 2.64116 -3.92347 -0.898831 2.66386 -3.96732 -0.907368 2.68656 
-4.01118 -0.91585 2.70924 -4.05505 -0.924277 2.73192 -4.09893 -0.932648 2.7546 
-4.14281 -0.940961 2.77726 -4.1867 -0.949216 2.79992 -4.23058 -0.957414 2.82257 
-4.27447 -0.965555 2.84522 -4.31836 -0.973638 2.86787 -4.36226 -0.981664 2.89052 
-4.40615 -0.989634 2.91317 -4.45005 -0.997546 2.93583 -4.49394 -1.0054 2.95849 
-4.53784 -1.0132 2.98115 -4.58174 -1.02095 3.00382 -4.62564 -1.02863 3.0265 
-4.66954 -1.03627 3.0492 -4.71345 -1.04384 3.0719 -4.75735 -1.05136 3.09462 
-4.80125 -1.05883 3.11735 -4.84515 -1.06624 3.14011 -4.88905 -1.07359 3.16288 
-4.93296 -1.08089 3.18567 -4.97686 -1.08814 3.20848 -5.02076 -1.09533 3.23131 
-5.06466 -1.10247 3.25417 -5.10856 -1.10955 3.27705 -5.15246 -1.11659 3.29996 
-5.19636 -1.12356 3.32288 -5.24026 -1.13049 3.34583 -5.28416 -1.13736 3.3688 
-5.32806 -1.14419 3.39179 -5.37196 -1.15096 3.4148 -5.41585 -1.15768 3.43782 
-5.45975 -1.16435 3.46087 -5.50365 -1.17097 3.48393 -5.54755 -1.17755 3.50701 
-5.59144 -1.18407 3.5301 -5.63534 -1.19055 3.55321 -5.67923 -1.19697 3.57633 
-5.72313 -1.20336 3.59947 -5.76703 -1.20969 3.62262 -5.81092 -1.21598 3.64578 
-5.85482 -1.22222 3.66895 -5.89871 -1.22842 3.69214 -5.94261 -1.23457 3.71533 
-5.98651 -1.24068 3.73853 -6.0304 -1.24675 3.76174 -6.0743 -1.25277 3.78496 
-6.11821 -1.25875 3.80817 -6.16212 -1.26469 3.83139 -6.20603 -1.27058 3.85461 
-6.24995 -1.27644 3.87783 -6.29388 -1.28226 3.90104 -6.33781 -1.28803 3.92425 
-6.38175 -1.29377 3.94745 -6.4257 -1.29948 3.97064 -6.46966 -1.30514 3.99382 
-6.51364 -1.31077 4.01699 -6.55762 -1.31636 4.04015 -6.60162 -1.32192 4.06328 
-6.64563 -1.32744 4.08641 -6.68965 -1.33293 4.10951 -6.73369 -1.33839 4.13259 
-6.77775 -1.34381 4.15565 -6.82182 -1.34921 4.17869 -6.86591 -1.35457 4.20169 
-6.91002 -1.3599 4.22467 -6.95415 -1.3652 4.24762 -6.9983 -1.37048 4.27054 
-7.04247 -1.37573 4.29342 -7.08667 -1.38096 4.31627 -7.13088 -1.38616 4.33908 
-7.17512 -1.39134 4.36184 -7.21939 -1.39651 4.38456 -7.26368 -1.40165 4.40724 
-7.30799 -1.40677 4.42987 -7.35234 -1.41188 4.45245 -7.39671 -1.41698 4.47498 
-7.44111 -1.42206 4.49745 -7.48554 -1.42713 4.51987 -7.53 -1.43218 4.54223 
-7.57449 -1.43723 4.56453 -7.61902 -1.44227 4.58676 -7.66358 -1.4473 4.60894 
-7.70817 -1.45232 4.63104 -7.75279 -1.45735 4.65308 -7.79746 -1.46237 4.67505 
-7.84215 -1.46739 4.69694 -7.88689 -1.47241 4.71876 -7.93165 -1.47744 4.74051 
-7.97646 -1.48249 4.76218 -8.0213 -1.48754 4.78377 -8.06618 -1.49261 4.80528 
-8.1111 -1.4977 4.82671 -8.15605 -1.5028 4.84806 -8.20104 -1.50793 4.86932 
-8.24607 -1.51309 4.89049 -8.29113 -1.51827 4.91157 -8.33624 -1.52349 4.93256 
-8.38138 -1.52874 4.95347 -8.42657 -1.53402 4.97427 -8.47179 -1.53935 4.99498 
-8.51706 -1.54471 5.0156 -8.56236 -1.55012 5.03612 -8.6077 -1.55558 5.05653 
-8.65309 -1.56109 5.07684 -8.69851 -1.56665 5.09705 -8.74398 -1.57228 5.11716 
-8.78948 -1.57796 5.13716 -8.83502 -1.58372 5.15706 -8.8806 -1.58954 5.17684 
-8.92621 -1.59544 5.19652 -8.97187 -1.60142 5.21609 -9.01755 -1.60749 5.23556 
-9.06328 -1.61365 5.25491 -9.10903 -1.61989 5.27414 -9.15482 -1.62624 5.29327 
-9.20065 -1.63269 5.31228 -9.2465 -1.63924 5.33118 -9.29239 -1.64591 5.34996 
-9.33831 -1.65269 5.36863 -9.38426 -1.65959 5.38717 -9.43024 -1.66661 5.4056 
-9.47625 -1.67376 5.42391 -9.52229 -1.68105 5.4421 -9.56835 -1.68847 5.46017 
-9.61445 -1.69603 5.47811 -9.66056 -1.70374 5.49593 -9.7067 -1.7116 5.51363 
-9.75286 -1.71963 5.53121 -9.79904 -1.72781 5.54866 -9.84524 -1.73617 5.56598 
-9.89145 -1.7447 5.58318 -9.93767 -1.75342 5.60025 -9.98391 -1.76232 5.61719 
-10.0301 -1.77142 5.634 -10.0764 -1.78071 5.65068 -10.1227 -1.79021 5.66724 
-10.1689 -1.79993 5.68366 -10.2152 -1.80985 5.69995 -10.2614 -1.82 5.71611 
-10.3077 -1.83038 5.73214 -10.3539 -1.84098 5.74803 -10.4002 -1.85183 5.76379 
-10.4464 -1.86292 5.77942 -10.4926 -1.87427 5.7949 -10.5389 -1.88587 5.81026 
-10.5851 -1.89773 5.82547 -10.6312 -1.90986 5.84054 -10.6774 -1.92226 5.85547 
-10.7235 -1.93495 5.87025 -10.7696 -1.94792 5.88489 -10.8156 -1.96119 5.89937 
-10.8616 -1.97475 5.91371 -10.9076 -1.98863 5.92789 -10.9535 -2.00281 5.94192 
-10.9994 -2.01732 5.95579 -11.0452 -2.03215 5.9695 -11.0909 -2.04731 5.98304 
-11.1366 -2.06281 5.99643 -11.1822 -2.07865 6.00965 -11.2278 -2.09484 6.0227 
-11.2732 -2.11139 6.03559 -11.3186 -2.1283 6.0483 -11.3639 -2.14557 6.06084 
-11.4091 -2.16323 6.07321 -11.4543 -2.18126 6.08539 -11.4993 -2.19968 6.09739 
-11.5442 -2.2185 6.1092 -11.589 -2.2377 6.12082 -11.6337 -2.25732 6.13223 
-11.6782 -2.27734 6.14343 -11.7227 -2.29777 6.15442 -11.7669 -2.31863 6.16519 
-11.8111 -2.3399 6.17573 -11.855 -2.36161 6.18603 -11.8988 -2.38376 6.1961 
-11.9425 -2.40634 6.20593 -11.9859 -2.42937 6.2155 -12.0292 -2.45286 6.22482 
-12.0723 -2.4768 6.23388 -12.1152 -2.5012 6.24266 -12.1578 -2.52607 6.25117 
-12.2003 -2.55142 6.25941 -12.2425 -2.57724 6.26735 -12.2846 -2.60355 6.275 
-12.3263 -2.63035 6.28235 -12.3679 -2.65763 6.28938 -12.4092 -2.68537 6.29607 
-12.4502 -2.71358 6.30238 -12.491 -2.74224 6.30831 -12.5316 -2.77134 6.31382 
-12.5719 -2.80088 6.3189 -12.6119 -2.83083 6.32353 -12.6517 -2.8612 6.32767 
-12.6912 -2.89197 6.33131 -12.7304 -2.92314 6.33443 -12.7693 -2.95469 6.337 
-12.808 -2.98662 6.33901 -12.8464 -3.01891 6.34042 -12.8845 -3.05156 6.34121 
-12.9223 -3.08455 6.34137 -12.9598 -3.11788 6.34087 -12.997 -3.15154 6.33969 
-13.0339 -3.18552 6.3378 -13.0705 -3.21981 6.33519 -13.1067 -3.25439 6.33183 
-13.1427 -3.28924 6.32771 -13.1784 -3.32434 6.32283 -13.2138 -3.35964 6.31718 
-13.2488 -3.39513 6.31075 -13.2836 -3.43076 6.30355 -13.3181 -3.46651 6.29555 
-13.3524 -3.50234 6.28676 -13.3863 -3.53823 6.27717 -13.42 -3.57414 6.26678 
-13.4534 -3.61005 6.25557 -13.4866 -3.64591 6.24355 -13.5195 -3.68171 6.2307 
-13.5522 -3.7174 6.21703 -13.5846 -3.75297 6.20252 -13.6168 -3.78837 6.18717 
-13.6487 -3.82357 6.17098 -13.6804 -3.85856 6.15393 -13.7119 -3.89328 6.13602 
-13.7432 -3.92772 6.11725 -13.7743 -3.96184 6.09761 -13.8051 -3.99563 6.07712 
-13.8358 -4.02907 6.05579 -13.8662 -4.06216 6.03365 -13.8965 -4.0949 6.01073 
-13.9266 -4.12728 5.98705 -13.9566 -4.15928 5.96263 -13.9863 -4.19091 5.93751 
-14.016 -4.22215 5.9117 -14.0455 -4.25301 5.88523 -14.0748 -4.28346 5.85813 
-14.1041 -4.31351 5.83042 -14.1332 -4.34315 5.80213 -14.1622 -4.37237 5.77328 
-14.1911 -4.40117 5.74389 -14.2199 -4.42953 5.71399 -14.2486 -4.45745 5.68361 
-14.2773 -4.48493 5.65276 -14.3059 -4.51195 5.62149 -14.3344 -4.53852 5.5898 
-14.3629 -4.56462 5.55772 -14.3913 -4.59024 5.52528 -14.4197 -4.61542 5.49249 
-14.448 -4.64014 5.45936 -14.4763 -4.66443 5.42589 -14.5046 -4.68829 5.39211 
-14.5328 -4.71174 5.35802 -14.561 -4.73478 5.32364 -14.5892 -4.75742 5.28897 
-14.6173 -4.77969 5.25403 -14.6454 -4.80157 5.21882 -14.6734 -4.8231 5.18337 
-14.7015 -4.84427 5.14768 -14.7294 -4.8651 5.11177 -14.7574 -4.8856 5.07564 
-14.7853 -4.90578 5.03931 -14.8132 -4.92565 5.00279 -14.8411 -4.94522 4.96608 
-14.869 -4.9645 4.92921 -14.8968 -4.9835 4.89218 -14.9246 -5.00223 4.85501 
-14.9524 -5.0207 4.8177 -14.9802 -5.03893 4.78026 -15.008 -5.0569 4.74269 
-15.0357 -5.07465 4.70499 -15.0634 -5.09216 4.66716 -15.091 -5.10945 4.6292 
[...]
CELL_DATA 1
FIELD FieldData 2
Length 1 1 double
63.879262975 
Tortuosity 1 1 double
1.0423847038 
POINT_DATA 1278
SCALARS MaximumInscribedSphereRadius float
LOOKUP_TABLE default
1.24 1.23118 1.22236 1.21355 1.20473 1.19591 1.18709 1.17828 1.16946 
1.16064 1.15182 1.14301 1.13419 1.12537 1.11655 1.10774 1.09892 1.0901 
1.08128 1.07247 1.06365 1.05508 1.05297 1.05086 1.04875 1.04664 1.04453 
1.04242 1.04031 1.0382 1.03609 1.03398 1.03187 1.02975 1.02764 1.02553 
1.02342 1.02131 1.0192 1.01709 1.01498 1.01883 1.02719 1.03556 1.04393 
1.05229 1.06066 1.06903 1.07739 1.08576 1.09413 1.10249 1.11086 1.11923 
1.12759 1.13596 1.14433 1.15269 1.16106 1.16943 1.17779 1.1843 1.18024 
1.17618 1.17212 1.16805 1.16399 1.15993 1.15586 1.1518 1.14774 1.14368 
1.13961 1.13555 1.13149 1.12743 1.12336 1.1193 1.11524 1.11117 1.10711 
1.10305 1.09834 1.09354 1.08874 1.08394 1.07913 1.07433 1.06953 1.06473 
1.05992 1.05512 1.05032 1.04552 1.04071 1.03591 1.03111 1.02631 1.0215 
1.0167 1.0119 1.0071 1.00917 1.01607 1.02296 1.02985 1.03674 1.04363 
1.05053 1.05742 1.06431 1.0712 1.0781 1.08499 1.09188 1.09877 1.10566 
1.11256 1.11945 1.12634 1.13323 1.14013 1.14487 1.14471 1.14455 1.14439 
1.14423 1.14406 1.1439 1.14374 1.14358 1.14342 1.14326 1.1431 1.14294 
1.14278 1.14261 1.14245 1.14229 1.14213 1.14197 1.14181 1.1415 1.13458 
1.12767 1.12075 1.11383 1.10691 1.09999 1.09307 1.08615 1.07923 1.07231 
1.06539 1.05847 1.05155 1.04463 1.03771 1.03079 1.02387 1.01695 1.01003 
1.00311 1.00491 1.00981 1.01471 1.01961 1.0245 1.0294 1.0343 1.03919 
1.04409 1.04899 1.05388 1.05878 1.06368 1.06858 1.07347 1.07837 1.08327 
1.08817 1.09306 1.09796 1.10151 1.10346 1.1054 1.10735 1.10929 1.11124 
1.11318 1.11513 1.11707 1.11901 1.12096 1.1229 1.12485 1.12679 1.12874 
1.13068 1.13263 1.13457 1.13652 1.13846 1.13702 1.11926 1.10149 1.08373 
1.06597 1.04821 1.03044 1.01268 0.994918 0.977156 0.959393 0.941631 0.923868 
0.906106 0.888343 0.870581 0.852818 0.835056 0.817293 0.799531 0.781768 0.795016 
0.81211 0.829204 0.846298 0.863392 0.880486 0.897581 0.914675 0.931769 0.948863 
0.965957 0.983051 1.00015 1.01724 1.03433 1.05143 1.06852 1.08562 1.10271 
1.1198 1.14849 1.18462 1.22075 1.25688 1.293 1.32913 1.36526 1.40139 
1.43752 1.47365 1.50978 1.54591 1.58203 1.61816 1.65429 1.69042 1.72655 
1.76268 1.79881 1.83494 1.85815 1.85547 1.85279 1.85012 1.84744 1.84476 
1.84209 1.83941 1.83673 1.83405 1.83138 1.8287 1.82602 1.82334 1.82067 
1.81799 1.81531 1.81264 1.80996 1.80728 1.80311 1.77773 1.75235 1.72697 
1.70159 1.67621 1.65083 1.62545 1.60007 1.57469 1.54931 1.52393 1.49855 
1.47317 1.44779 1.42241 1.39703 1.37165 1.34627 1.32089 1.29551 1.28877 
1.2864 1.28403 1.28167 1.2793 1.27694 1.27457 1.27221 1.26984 1.26748 
1.26511 1.26275 1.26038 1.25802 1.25565 1.25328 1.25092 1.24855 1.24619 
1.24382 1.25447 1.27471 1.29495 1.31518 1.33542 1.35565 1.37589 1.39613 
1.41636 1.4366 1.45684 1.47707 1.49731 1.51754 1.53778 1.55802 1.57825 
1.59849 1.61872 1.63896 1.65576 1.66547 1.67518 1.68489 1.6946 1.70431 
1.71401 1.72372 1.73343 1.74314 1.75285 1.76255 1.77226 1.78197 1.79168 
1.80139 1.81109 1.8208 1.83051 1.84022 1.85009 1.86302 1.87596 1.88889 
1.90182 1.91475 1.92768 1.94061 1.95354 1.96647 1.9794 1.99233 2.00526 
2.0182 2.03113 2.04406 2.05699 2.06992 2.08285 2.09578 2.10871 2.10309 
2.092 2.0809 2.0698 2.05871 2.04761 2.03651 2.02542 2.01432 2.00322 
1.99213 1.98103 1.96993 1.95884 1.94774 1.93665 1.92555 1.91445 1.90336 
1.89226 1.87417 1.8488 1.82344 1.79807 1.77271 1.74734 1.72198 1.69661 
1.67124 1.64588 1.62051 1.59515 1.56978 1.54441 1.51905 1.49368 1.46832 
1.44295 1.41758 1.39222 1.37103 1.36494 1.35885 1.35275 1.34666 1.34057 
1.33448 1.32839 1.32229 1.3162 1.31011 1.30402 1.29793 1.29183 1.28574 
1.27965 1.27356 1.26747 1.26137 1.25528 1.24919 1.2494 1.24979 1.25018 
1.25057 1.25097 1.25136 1.25175 1.25214 1.25253 1.25292 1.25331 1.2537 
1.2541 1.25449 1.25488 1.25527 1.25566 1.25605 1.25644 1.25683 1.25757 
1.25843 1.25929 1.26016 1.26102 1.26188 1.26274 1.26361 1.26447 1.26533 
1.26619 1.26706 1.26792 1.26878 1.26964 1.27051 1.27137 1.27223 1.27309 
1.27396 1.27448 1.27462 1.27476 1.27489 1.27503 1.27517 1.27531 1.27544 
1.27558 1.27572 1.27585 1.27599 1.27613 1.27627 1.2764 1.27654 1.27668 
1.27681 1.27695 1.27709 1.27863 1.28644 1.29425 1.30206 1.30987 1.31768 
1.32549 1.3333 1.34111 1.34892 1.35673 1.36454 1.37235 1.38016 1.38797 
1.39578 1.40359 1.4114 1.41921 1.42702 1.43483 1.45203 1.47021 1.48839 
1.50657 1.52474 1.54292 1.5611 1.57928 1.59746 1.61563 1.63381 1.65199 
1.67017 1.68835 1.70652 1.7247 1.74288 1.76106 1.77924 1.79742 1.81417 
1.83017 1.84617 1.86217 1.87817 1.89418 1.91018 1.92618 1.94218 1.95818 
1.97418 1.99018 2.00618 2.02218 2.03818 2.05418 2.07019 2.08619 2.10219 
2.11819 2.11539 2.08627 2.05716 2.02804 1.99893 1.96982 1.9407 1.91159 
1.88248 1.85336 1.82425 1.79513 1.76602 1.73691 1.70779 1.67868 1.64957 
1.62045 1.59134 1.56222 1.53465 1.50923 1.4838 1.45838 1.43295 1.40753 
1.38211 1.35668 1.33126 1.30583 1.28041 1.25499 1.22956 1.20414 1.17872 
1.15329 1.12787 1.10244 1.07702 1.0516 1.03161 1.04266 1.05372 1.06477 
1.07582 1.08688 1.09793 1.10899 1.12004 1.1311 1.14215 1.15321 1.16426 
1.17532 1.18637 1.19742 1.20848 1.21953 1.23059 1.24164 1.2527 1.27003 
1.28818 1.30633 1.32449 1.34264 1.36079 1.37894 1.3971 1.41525 1.4334 
1.45156 1.46971 1.48786 1.50602 1.52417 1.54232 1.56048 1.57863 1.59678 
1.61494 1.62676 1.63438 1.642 1.64961 1.65723 1.66485 1.67246 1.68008 
1.6877 1.69531 1.70293 1.71054 1.71816 1.72578 1.73339 1.74101 1.74863 
1.75624 1.76386 1.77148 1.77354 1.7638 1.75405 1.7443 1.73455 1.7248 
1.71505 1.7053 1.69555 1.6858 1.67605 1.6663 1.65655 1.6468 1.63705 
1.6273 1.61755 1.6078 1.59805 1.5883 1.57892 1.57749 1.57606 1.57463 
1.5732 1.57177 1.57034 1.56891 1.56748 1.56605 1.56462 1.56319 1.56176 
1.56033 1.5589 1.55748 1.55605 1.55462 1.55319 1.55176 1.55033 1.55 
1.55 1.55 1.55 1.55 1.55 1.55 1.55 1.55 1.55 
1.55 1.55 1.55 1.55 1.55 1.55 1.55 1.55 1.55 
1.55 1.5511 1.55334 1.55559 1.55783 1.56007 1.56231 1.56455 1.56679 
1.56903 1.57127 1.57351 1.57575 1.578 1.58024 1.58248 1.58472 1.58696 
1.5892 1.59144 1.59368 1.59736 1.60636 1.61537 1.62437 1.63338 1.64238 
1.65139 1.66039 1.66939 1.6784 1.6874 1.69641 1.70541 1.71442 1.72342 
1.73243 1.74143 1.75044 1.75944 1.76845 1.77745 1.77251 1.76653 1.76056 
1.75459 1.74861 1.74264 1.73666 1.73069 1.72472 1.71874 1.71277 1.70679 
1.70082 1.69485 1.68887 1.6829 1.67692 1.67095 1.66498 1.659 1.64576 
1.62856 1.61137 1.59417 1.57697 1.55978 1.54258 1.52539 1.50819 1.49099 
1.4738 1.4566 1.43941 1.42221 1.40502 1.38782 1.37062 1.35343 1.33623 
1.31904 1.30692 1.30357 1.30023 1.29688 1.29354 1.2902 1.28685 1.28351 
1.28017 1.27682 1.27348 1.27013 1.26679 1.26345 1.2601 1.25676 1.25342 
1.25007 1.24673 1.24339 1.24061 1.24405 1.24748 1.25092 1.25436 1.2578 
1.26124 1.26468 1.26812 1.27156 1.275 1.27843 1.28187 1.28531 1.28875 
1.29219 1.29563 1.29907 1.30251 1.30595 1.30938 1.31785 1.32754 1.33724 
1.34694 1.35663 1.36633 1.37602 1.38572 1.39541 1.40511 1.4148 1.4245 
1.43419 1.44389 1.45358 1.46328 1.47297 1.48267 1.49236 1.50206 1.51186 
1.52174 1.53163 1.54152 1.55141 1.5613 1.57119 1.58107 1.59096 1.60085 
1.61074 1.62063 1.63052 1.6404 1.65029 1.66018 1.67007 1.67996 1.68985 
1.69973 1.70776 1.71017 1.71258 1.715 1.71741 1.71982 1.72223 1.72464 
1.72706 1.72947 1.73188 1.73429 1.7367 1.73912 1.74153 1.74394 1.74635 
1.74876 1.75118 1.75359 1.756 1.73737 1.71828 1.6992 1.68012 1.66104 
1.64196 1.62287 1.60379 1.58471 1.56563 1.54655 1.52746 1.50838 1.4893 
1.47022 1.45114 1.43206 1.41297 1.39389 1.37481 1.37566 1.3846 1.39353 
1.40247 1.41141 1.42035 1.42929 1.43823 1.44717 1.4561 1.46504 1.47398 
1.48292 1.49186 1.5008 1.50973 1.51867 1.52761 1.53655 1.54549 1.55789 
1.57465 1.59142 1.60818 1.62494 1.64171 1.65847 1.67523 1.692 1.70876 
1.72553 1.74229 1.75905 1.77582 1.79258 1.80934 1.82611 1.84287 1.85963 
1.8764 1.89074 1.89309 1.89544 1.89779 1.90013 1.90248 1.90483 1.90718 
1.90952 1.91187 1.91422 1.91656 1.91891 1.92126 1.92361 1.92595 1.9283 
1.93065 1.933 1.93534 1.93769 1.93308 1.9276 1.92212 1.91664 1.91116 
1.90569 1.90021 1.89473 1.88925 1.88378 1.8783 1.87282 1.86734 1.86186 
1.85639 1.85091 1.84543 1.83995 1.83447 1.829 1.82036 1.8097 1.79904 
1.78838 1.77772 1.76706 1.75641 1.74575 1.73509 1.72443 1.71377 1.70311 
1.69245 1.68179 1.67113 1.66048 1.64982 1.63916 1.6285 1.61784 1.60997 
1.60775 1.60553 1.60332 1.6011 1.59888 1.59667 1.59445 1.59223 1.59002 
1.5878 1.58558 1.58336 1.58115 1.57893 1.57671 1.5745 1.57228 1.57006 
1.56785 1.56589 1.56888 1.57186 1.57485 1.57784 1.58083 1.58382 1.5868 
1.58979 1.59278 1.59577 1.59875 1.60174 1.60473 1.60772 1.6107 1.61369 
1.61668 1.61967 1.62266 1.62564 1.63248 1.64047 1.64845 1.65644 1.66443 
1.67241 1.6804 1.68839 1.69637 1.70436 1.71235 1.72033 1.72832 1.73631 
1.74429 1.75228 1.76027 1.76825 1.77624 1.78423 1.7928 1.80199 1.81117 
1.82036 1.82954 1.83873 1.84792 1.8571 1.86629 1.87547 1.88466 1.89384 
1.90303 1.91222 1.9214 1.93059 1.93977 1.94896 1.95815 1.96733 1.97641 
1.9851 1.99378 2.00247 2.01115 2.01984 2.02853 2.03721 2.0459 2.05458 
2.06327 2.07195 2.08064 2.08933 2.09801 2.1067 2.11538 2.12407 2.13276 
2.14144 2.15013 2.15428 2.15809 2.1619 2.16571 2.16953 2.17334 2.17715 
2.18096 2.18478 2.18859 2.1924 2.19621 2.20002 2.20384 2.20765 2.21146 
2.21527 2.21909 2.2229 2.22671 2.2341 2.2434 2.25271 2.26201 2.27132 
2.28062 2.28993 2.29923 2.30853 2.31784 2.32714 2.33645 2.34575 2.35506 
2.36436 2.37366 2.38297 2.39227 2.40158 2.41088 2.42286 2.43931 2.45576 
2.47222 2.48867 2.50513 2.52158 2.53803 2.55449 2.57094 2.5874 2.60385 
2.6203 2.63676 2.65321 2.66966 2.68612 2.70257 2.71903 2.73548 2.74824 
2.72632 2.7044 2.68248 2.66055 2.63863 2.61671 2.59479 2.57287 2.55095 
2.52903 2.5071 2.48518 2.46326 2.44134 2.41942 2.3975 2.37557 2.35365 
2.33173 2.30981 2.29115 2.27321 2.25528 2.23734 2.21941 2.20147 2.18354 
2.1656 2.14767 2.12973 2.1118 2.09386 2.07593 2.05799 2.04006 2.02212 
2.00419 1.98625 1.96832 1.95038 1.94319 1.94661 1.95002 1.95344 1.95686 
1.96028 1.96369 1.96711 1.97053 1.97394 1.97736 1.98078 1.9842 1.98761 
1.99103 1.99445 1.99786 2.00128 2.0047 2.00812 1.99492 1.97267 1.95042 
1.92818 1.90593 1.88369 1.86144 1.8392 1.81695 1.7947 1.77246 1.75021 
1.72797 1.70572 1.68347 1.66123 1.63898 1.61674 1.59449 1.57225 1.55 

TEXTURE_COORDINATES TCoords 2 float
0 0 0.000783085 0 0.00156617 0 0.00234926 0 0.00313234 
0 0.00391543 0 0.00469851 0 0.0054816 0 0.00626468 0 
0.00704777 0 0.00783085 0 0.00861394 0 0.00939702 0 0.0101801 
0 0.0109632 0 0.0117463 0 0.0125294 0 0.0133125 0 
0.0140955 0 0.0148786 0 0.0156617 0 0.0164448 0 0.0172279 
0 0.018011 0 0.018794 0 0.0195771 0 0.0203602 0 
0.0211433 0 0.0219264 0 0.0227095 0 0.0234926 0 0.0242756 
0 0.0250587 0 0.0258418 0 0.0266249 0 0.027408 0 
0.0281911 0 0.0289742 0 0.0297572 0 0.0305403 0 0.0313234 
0 0.0321065 0 0.0328896 0 0.0336727 0 0.0344558 0 
0.0352388 0 0.0360219 0 0.036805 0 0.0375881 0 0.0383712 
0 0.0391543 0 0.0399374 0 0.0407204 0 0.0415035 0 
0.0422866 0 0.0430697 0 0.0438528 0 0.0446359 0 0.045419 
0 0.046202 0 0.0469851 0 0.0477682 0 0.0485513 0 
0.0493344 0 0.0501175 0 0.0509005 0 0.0516836 0 0.0524667 
0 0.0532498 0 0.0540329 0 0.054816 0 0.0555991 0 
0.0563821 0 0.0571652 0 0.0579483 0 0.0587314 0 0.0595145 
0 0.0602976 0 0.0610807 0 0.0618637 0 0.0626468 0 
0.0634299 0 0.064213 0 0.0649961 0 0.0657792 0 0.0665623 
0 0.0673453 0 0.0681284 0 0.0689115 0 0.0696946 0 
0.0704777 0 0.0712608 0 0.0720439 0 0.0728269 0 0.07361 
0 0.0743931 0 0.0751762 0 0.0759593 0 0.0767424 0 
0.0775255 0 0.0783085 0 0.0790916 0 0.0798747 0 0.0806578 
0 0.0814409 0 0.082224 0 0.083007 0 0.0837901 0 
0.0845732 0 0.0853563 0 0.0861394 0 0.0869225 0 0.0877056 
0 0.0884886 0 0.0892717 0 0.0900548 0 0.0908379 0 
0.091621 0 0.0924041 0 0.0931872 0 0.0939702 0 0.0947533 
0 0.0955364 0 0.0963195 0 0.0971026 0 0.0978857 0 
0.0986688 0 0.0994518 0 0.100235 0 0.101018 0 0.101801 
0 0.102584 0 0.103367 0 0.10415 0 0.104933 0 
0.105717 0 0.1065 0 0.107283 0 0.108066 0 0.108849 
0 0.109632 0 0.110415 0 0.111198 0 0.111981 0 
0.112764 0 0.113547 0 0.11433 0 0.115114 0 0.115897 
0 0.11668 0 0.117463 0 0.118246 0 0.119029 0 
0.119812 0 0.120595 0 0.121378 0 0.122161 0 0.122944 
0 0.123727 0 0.124511 0 0.125294 0 0.126077 0 
0.12686 0 0.127643 0 0.128426 0 0.129209 0 0.129992 
0 0.130775 0 0.131558 0 0.132341 0 0.133125 0 
0.133908 0 0.134691 0 0.135474 0 0.136257 0 0.13704 
0 0.137823 0 0.138606 0 0.139389 0 0.140172 0 
0.140955 0 0.141738 0 0.142522 0 0.143305 0 0.144088 
0 0.144871 0 0.145654 0 0.146437 0 0.14722 0 
0.148003 0 0.148786 0 0.149569 0 0.150352 0 0.151135 
0 0.151919 0 0.152702 0 0.153485 0 0.154268 0 
0.155051 0 0.155834 0 0.156617 0 0.1574 0 0.158183 
0 0.158966 0 0.159749 0 0.160533 0 0.161316 0 
0.162099 0 0.162882 0 0.163665 0 0.164448 0 0.165231 
0 0.166014 0 0.166797 0 0.16758 0 0.168363 0 
0.169146 0 0.16993 0 0.170713 0 0.171496 0 0.172279 
0 0.173062 0 0.173845 0 0.174628 0 0.175411 0 
0.176194 0 0.176977 0 0.17776 0 0.178543 0 0.179327 
0 0.18011 0 0.180893 0 0.181676 0 0.182459 0 
0.183242 0 0.184025 0 0.184808 0 0.185591 0 0.186374 
0 0.187157 0 0.18794 0 0.188724 0 0.189507 0 
0.19029 0 0.191073 0 0.191856 0 0.192639 0 0.193422 
0 0.194205 0 0.194988 0 0.195771 0 0.196554 0 
0.197338 0 0.198121 0 0.198904 0 0.199687 0 0.20047 
0 0.201253 0 0.202036 0 0.202819 0 0.203602 0 
0.204385 0 0.205168 0 0.205951 0 0.206735 0 0.207518 
0 0.208301 0 0.209084 0 0.209867 0 0.21065 0 
0.211433 0 0.212216 0 0.212999 0 0.213782 0 0.214565 
0 0.215348 0 0.216132 0 0.216915 0 0.217698 0 
0.218481 0 0.219264 0 0.220047 0 0.22083 0 0.221613 
0 0.222396 0 0.223179 0 0.223962 0 0.224745 0 
0.225529 0 0.226312 0 0.227095 0 0.227878 0 0.228661 
0 0.229444 0 0.230227 0 0.23101 0 0.231793 0 
0.232576 0 0.233359 0 0.234143 0 0.234926 0 0.235709 
0 0.236492 0 0.237275 0 0.238058 0 0.238841 0 
0.239624 0 0.240407 0 0.24119 0 0.241973 0 0.242756 
0 0.24354 0 0.244323 0 0.245106 0 0.245889 0 
0.246672 0 0.247455 0 0.248238 0 0.249021 0 0.249804 
0 0.250587 0 0.25137 0 0.252153 0 0.252937 0 
0.25372 0 0.254503 0 0.255286 0 0.256069 0 0.256852 
0 0.257635 0 0.258418 0 0.259201 0 0.259984 0 
0.260767 0 0.261551 0 0.262334 0 0.263117 0 0.2639 
0 0.264683 0 0.265466 0 0.266249 0 0.267032 0 
0.267815 0 0.268598 0 0.269381 0 0.270164 0 0.270948 
0 0.271731 0 0.272514 0 0.273297 0 0.27408 0 
0.274863 0 0.275646 0 0.276429 0 0.277212 0 0.277995 
0 0.278778 0 0.279561 0 0.280345 0 0.281128 0 
0.281911 0 0.282694 0 0.283477 0 0.28426 0 0.285043 
0 0.285826 0 0.286609 0 0.287392 0 0.288175 0 
0.288958 0 0.289742 0 0.290525 0 0.291308 0 0.292091 
0 0.292874 0 0.293657 0 0.29444 0 0.295223 0 
0.296006 0 0.296789 0 0.297572 0 0.298356 0 0.299139 
0 0.299922 0 0.300705 0 0.301488 0 0.302271 0 
0.303054 0 0.303837 0 0.30462 0 0.305403 0 0.306186 
0 0.306969 0 0.307753 0 0.308536 0 0.309319 0 
0.310102 0 0.310885 0 0.311668 0 0.312451 0 0.313234 
0 0.314017 0 0.3148 0 0.315583 0 0.316366 0 
0.31715 0 0.317933 0 0.318716 0 0.319499 0 0.320282 
0 0.321065 0 0.321848 0 0.322631 0 0.323414 0 
0.324197 0 0.32498 0 0.325763 0 0.326547 0 0.32733 
0 0.328113 0 0.328896 0 0.329679 0 0.330462 0 
0.331245 0 0.332028 0 0.332811 0 0.333594 0 0.334377 
0 0.335161 0 0.335944 0 0.336727 0 0.33751 0 
0.338293 0 0.339076 0 0.339859 0 0.340642 0 0.341425 
0 0.342208 0 0.342991 0 0.343774 0 0.344558 0 
0.345341 0 0.346124 0 0.346907 0 0.34769 0 0.348473 
0 0.349256 0 0.350039 0 0.350822 0 0.351605 0 
0.352388 0 0.353171 0 0.353955 0 0.354738 0 0.355521 
0 0.356304 0 0.357087 0 0.35787 0 0.358653 0 
0.359436 0 0.360219 0 0.361002 0 0.361785 0 0.362569 
0 0.363352 0 0.364135 0 0.364918 0 0.365701 0 
0.366484 0 0.367267 0 0.36805 0 0.368833 0 0.369616 
0 0.370399 0 0.371182 0 0.371966 0 0.372749 0 
0.373532 0 0.374315 0 0.375098 0 0.375881 0 0.376664 
0 0.377447 0 0.37823 0 0.379013 0 0.379796 0 
0.380579 0 0.381363 0 0.382146 0 0.382929 0 0.383712 
0 0.384495 0 0.385278 0 0.386061 0 0.386844 0 
0.387627 0 0.38841 0 0.389193 0 0.389977 0 0.39076 
0 0.391543 0 0.392326 0 0.393109 0 0.393892 0 
0.394675 0 0.395458 0 0.396241 0 0.397024 0 0.397807 
0 0.39859 0 0.399374 0 0.400157 0 0.40094 0 
0.401723 0 0.402506 0 0.403289 0 0.404072 0 0.404855 
0 0.405638 0 0.406421 0 0.407204 0 0.407987 0 
0.408771 0 0.409554 0 0.410337 0 0.41112 0 0.411903 
0 0.412686 0 0.413469 0 0.414252 0 0.415035 0 
0.415818 0 0.416601 0 0.417385 0 0.418168 0 0.418951 
0 0.419734 0 0.420517 0 0.4213 0 0.422083 0 
0.422866 0 0.423649 0 0.424432 0 0.425215 0 0.425998 
0 0.426782 0 0.427565 0 0.428348 0 0.429131 0 
0.429914 0 0.430697 0 0.43148 0 0.432263 0 0.433046 
0 0.433829 0 0.434612 0 0.435395 0 0.436179 0 
0.436962 0 0.437745 0 0.438528 0 0.439311 0 0.440094 
0 0.440877 0 0.44166 0 0.442443 0 0.443226 0 
0.444009 0 0.444792 0 0.445576 0 0.446359 0 0.447142 
0 0.447925 0 0.448708 0 0.449491 0 0.450274 0 
0.451057 0 0.45184 0 0.452623 0 0.453406 0 0.45419 
0 0.454973 0 0.455756 0 0.456539 0 0.457322 0 
0.458105 0 0.458888 0 0.459671 0 0.460454 0 0.461237 
0 0.46202 0 0.462803 0 0.463587 0 0.46437 0 
0.465153 0 0.465936 0 0.466719 0 0.467502 0 0.468285 
0 0.469068 0 0.469851 0 0.470634 0 0.471417 0 
0.4722 0 0.472984 0 0.473767 0 0.47455 0 0.475333 
0 0.476116 0 0.476899 0 0.477682 0 0.478465 0 
0.479248 0 0.480031 0 0.480814 0 0.481597 0 0.482381 
0 0.483164 0 0.483947 0 0.48473 0 0.485513 0 
0.486296 0 0.487079 0 0.487862 0 0.488645 0 0.489428 
0 0.490211 0 0.490995 0 0.491778 0 0.492561 0 
0.493344 0 0.494127 0 0.49491 0 0.495693 0 0.496476 
0 0.497259 0 0.498042 0 0.498825 0 0.499608 0 
0.500392 0 0.501175 0 0.501958 0 0.502741 0 0.503524 
0 0.504307 0 0.50509 0 0.505873 0 0.506656 0 
0.507439 0 0.508222 0 0.509005 0 0.509789 0 0.510572 
0 0.511355 0 0.512138 0 0.512921 0 0.513704 0 
0.514487 0 0.51527 0 0.516053 0 0.516836 0 0.517619 
0 0.518403 0 0.519186 0 0.519969 0 0.520752 0 
0.521535 0 0.522318 0 0.523101 0 0.523884 0 0.524667 
0 0.52545 0 0.526233 0 0.527016 0 0.5278 0 
0.528583 0 0.529366 0 0.530149 0 0.530932 0 0.531715 
0 0.532498 0 0.533281 0 0.534064 0 0.534847 0 
0.53563 0 0.536413 0 0.537197 0 0.53798 0 0.538763 
0 0.539546 0 0.540329 0 0.541112 0 0.541895 0 
0.542678 0 0.543461 0 0.544244 0 0.545027 0 0.545811 
0 0.546594 0 0.547377 0 0.54816 0 0.548943 0 
0.549726 0 0.550509 0 0.551292 0 0.552075 0 0.552858 
0 0.553641 0 0.554424 0 0.555207 0 0.555991 0 
0.556774 0 0.557557 0 0.55834 0 0.559123 0 0.559906 
0 0.560689 0 0.561472 0 0.562255 0 0.563038 0 
0.563821 0 0.564605 0 0.565388 0 0.566171 0 0.566954 
0 0.567737 0 0.56852 0 0.569303 0 0.570086 0 
0.570869 0 0.571652 0 0.572435 0 0.573218 0 0.574002 
0 0.574785 0 0.575568 0 0.576351 0 0.577134 0 
0.577917 0 0.5787 0 0.579483 0 0.580266 0 0.581049 
0 0.581832 0 0.582615 0 0.583399 0 0.584182 0 
0.584965 0 0.585748 0 0.586531 0 0.587314 0 0.588097 
0 0.58888 0 0.589663 0 0.590446 0 0.591229 0 
0.592013 0 0.592796 0 0.593579 0 0.594362 0 0.595145 
0 0.595928 0 0.596711 0 0.597494 0 0.598277 0 
0.59906 0 0.599843 0 0.600626 0 0.60141 0 0.602193 
0 0.602976 0 0.603759 0 0.604542 0 0.605325 0 
0.606108 0 0.606891 0 0.607674 0 0.608457 0 0.60924 
0 0.610023 0 0.610807 0 0.61159 0 0.612373 0 
0.613156 0 0.613939 0 0.614722 0 0.615505 0 0.616288 
0 0.617071 0 0.617854 0 0.618637 0 0.619421 0 
0.620204 0 0.620987 0 0.62177 0 0.622553 0 0.623336 
0 0.624119 0 0.624902 0 0.625685 0 0.626468 0 
0.627251 0 0.628034 0 0.628818 0 0.629601 0 0.630384 
0 0.631167 0 0.63195 0 0.632733 0 0.633516 0 
0.634299 0 0.635082 0 0.635865 0 0.636648 0 0.637432 
0 0.638215 0 0.638998 0 0.639781 0 0.640564 0 
0.641347 0 0.64213 0 0.642913 0 0.643696 0 0.644479 
0 0.645262 0 0.646045 0 0.646829 0 0.647612 0 
0.648395 0 0.649178 0 0.649961 0 0.650744 0 0.651527 
0 0.65231 0 0.653093 0 0.653876 0 0.654659 0 
0.655442 0 0.656226 0 0.657009 0 0.657792 0 0.658575 
0 0.659358 0 0.660141 0 0.660924 0 0.661707 0 
0.66249 0 0.663273 0 0.664056 0 0.664839 0 0.665623 