# vtk DataFile Version 4.2
vtk output
ASCII
DATASET POLYDATA
POINTS 1277 float
0 0 0 -0.00396648 0.000615154 0.00101183 -0.015529 0.0024095 0.00397106 
-0.0341822 0.00530638 0.00876328 -0.0594205 0.00922913 0.0152741 -0.0907388 0.0141011 0.023389 
-0.127631 0.0198455 0.0329938 -0.169593 0.0263859 0.0439739 -0.216118 0.0336454 0.0562149 
-0.266702 0.0415475 0.0696025 -0.320838 0.0500154 0.0840222 -0.378022 0.0589725 0.0993596 
-0.437748 0.0683422 0.1155 -0.499511 0.0780477 0.13233 -0.562804 0.0880124 0.149734 
-0.627124 0.0981597 0.167598 -0.691964 0.108413 0.185808 -0.756819 0.118695 0.20425 
-0.821184 0.12893 0.222808 -0.884553 0.139041 0.241368 -0.946421 0.148951 0.259817 
-1.00629 0.158584 0.278041 -1.06395 0.167908 0.29599 -1.11953 0.176934 0.313685 
-1.17317 0.185682 0.331153 -1.22501 0.194166 0.348419 -1.2752 0.202404 0.365509 
-1.32387 0.210412 0.382448 -1.37118 0.218207 0.399263 -1.41727 0.225807 0.41598 
-1.46228 0.233227 0.432623 -1.50635 0.240484 0.449219 -1.54963 0.247596 0.465794 
-1.59226 0.254579 0.482373 -1.63439 0.261449 0.498983 -1.67615 0.268223 0.515649 
-1.71769 0.274919 0.532396 -1.75916 0.281552 0.549251 -1.8007 0.28814 0.56624 
-1.84245 0.294699 0.583388 -1.88456 0.301246 0.600721 -1.92716 0.307797 0.618264 
-1.9703 0.314355 0.636024 -2.01394 0.320912 0.653994 -2.05805 0.327459 0.672166 
-2.10259 0.333989 0.690531 -2.14753 0.340493 0.709083 -2.19283 0.346963 0.727813 
-2.23845 0.35339 0.746713 -2.28435 0.359766 0.765775 -2.33051 0.366083 0.784992 
-2.37688 0.372332 0.804356 -2.42342 0.378505 0.823858 -2.4701 0.384594 0.84349 
-2.51689 0.390591 0.863246 -2.56374 0.396486 0.883116 -2.61063 0.402272 0.903094 
-2.65751 0.407941 0.92317 -2.70434 0.413484 0.943338 -2.7511 0.418892 0.963589 
-2.79774 0.424158 0.983916 -2.84423 0.429273 1.00431 -2.89054 0.43423 1.02477 
-2.93668 0.439027 1.04528 -2.98265 0.44366 1.06586 -3.02848 0.448127 1.08649 
-3.07416 0.452427 1.10719 -3.11971 0.456557 1.12795 -3.16513 0.460514 1.14877 
-3.21045 0.464297 1.16964 -3.25567 0.467903 1.19058 -3.3008 0.47133 1.21158 
-3.34585 0.474575 1.23264 -3.39083 0.477636 1.25376 -3.43575 0.480511 1.27494 
-3.48063 0.483197 1.29618 -3.52547 0.485693 1.31749 -3.57028 0.487996 1.33885 
-3.61507 0.490104 1.36027 -3.65986 0.492014 1.38176 -3.70465 0.493724 1.4033 
-3.74946 0.495232 1.4249 -3.79429 0.496535 1.44657 -3.83915 0.497629 1.46829 
-3.88403 0.498507 1.49008 -3.92892 0.499164 1.51192 -3.97382 0.499595 1.53382 
-4.01872 0.499794 1.55577 -4.06364 0.499755 1.57778 -4.10855 0.499473 1.59984 
-4.15345 0.498942 1.62195 -4.19835 0.498157 1.64412 -4.24323 0.497111 1.66634 
-4.2881 0.4958 1.6886 -4.33294 0.494218 1.71092 -4.37776 0.492359 1.73328 
-4.42255 0.490217 1.75569 -4.46731 0.487788 1.77814 -4.51203 0.485064 1.80064 
-4.55671 0.482042 1.82318 -4.60134 0.478715 1.84576 -4.64592 0.475077 1.86839 
-4.69045 0.471124 1.89105 -4.73493 0.466849 1.91376 -4.77934 0.462247 1.9365 
-4.8237 0.457312 1.95927 -4.86799 0.45204 1.98208 -4.91221 0.446425 2.00493 
-4.95636 0.44046 2.0278 -5.00044 0.434142 2.05071 -5.04444 0.427465 2.07364 
-5.08837 0.420422 2.0966 -5.13222 0.413009 2.11958 -5.17598 0.40522 2.14259 
-5.21966 0.39705 2.16562 -5.26326 0.388493 2.18866 -5.30676 0.379544 2.21173 
-5.35017 0.370197 2.23481 -5.39348 0.360447 2.25791 -5.4367 0.350289 2.28103 
-5.47981 0.339717 2.30415 -5.52282 0.328726 2.32729 -5.56573 0.31731 2.35043 
-5.60852 0.305465 2.37358 -5.6512 0.293188 2.39673 -5.69376 0.280478 2.41989 
-5.7362 0.267332 2.44305 -5.7785 0.253748 2.46619 -5.82067 0.239724 2.48934 
-5.8627 0.225257 2.51247 -5.90458 0.210346 2.53559 -5.94631 0.194987 2.55869 
-5.98787 0.17918 2.58177 -6.02928 0.162921 2.60483 -6.07052 0.146209 2.62787 
-6.11159 0.12904 2.65087 -6.15247 0.111414 2.67385 -6.19317 0.0933277 2.69679 
-6.23369 0.0747789 2.7197 -6.274 0.0557654 2.74256 -6.31412 0.0362851 2.76539 
-6.35403 0.0163357 2.78817 -6.39373 -0.0040849 2.8109 -6.43321 -0.0249778 2.83357 
-6.47248 -0.0463396 2.8562 -6.51152 -0.0681657 2.87876 -6.55034 -0.0904517 2.90126 
-6.58894 -0.113193 2.9237 -6.62731 -0.136385 2.94607 -6.66545 -0.160024 2.96837 
-6.70336 -0.184104 2.99059 -6.74104 -0.208622 3.01273 -6.77848 -0.233572 3.03479 
-6.81569 -0.258951 3.05676 -6.85266 -0.284754 3.07864 -6.88938 -0.310976 3.10043 
-6.92586 -0.337613 3.12213 -6.9621 -0.36466 3.14372 -6.99809 -0.392114 3.16521 
-7.03383 -0.419968 3.18659 -7.06932 -0.44822 3.20786 -7.10456 -0.476863 3.22902 
-7.13954 -0.505895 3.25006 -7.17426 -0.53531 3.27098 -7.20873 -0.565101 3.29177 
-7.24295 -0.595263 3.31244 -7.27692 -0.625787 3.33298 -7.31064 -0.656666 3.35338 
-7.34413 -0.687894 3.37365 -7.37737 -0.719462 3.39378 -7.41039 -0.751365 3.41377 
-7.44318 -0.783594 3.43362 -7.47574 -0.816142 3.45332 -7.50807 -0.849004 3.47287 
-7.54019 -0.88217 3.49227 -7.5721 -0.915634 3.51152 -7.60379 -0.949389 3.5306 
-7.63528 -0.983428 3.54953 -7.66657 -1.01774 3.56829 -7.69765 -1.05233 3.58689 
-7.72854 -1.08718 3.60531 -7.75924 -1.12228 3.62357 -7.78975 -1.15763 3.64165 
-7.82007 -1.19322 3.65955 -7.85022 -1.22904 3.67727 -7.88019 -1.2651 3.69481 
-7.90999 -1.30137 3.71216 -7.93964 -1.33787 3.72932 -7.96913 -1.37457 3.74629 
-7.99847 -1.41149 3.76305 -8.02768 -1.4486 3.77961 -8.05675 -1.48591 3.79597 
-8.08569 -1.52341 3.81212 -8.11451 -1.56109 3.82806 -8.14322 -1.59895 3.84378 
-8.17182 -1.63699 3.85928 -8.20032 -1.67519 3.87455 -8.22873 -1.71355 3.8896 
-8.25705 -1.75207 3.90442 -8.28528 -1.79074 3.919 -8.31344 -1.82956 3.93334 
-8.34153 -1.86852 3.94745 -8.36957 -1.90761 3.96131 -8.39754 -1.94683 3.97492 
-8.42547 -1.98617 3.98827 -8.45335 -2.02563 4.00137 -8.4812 -2.0652 4.0142 
-8.50902 -2.10488 4.02676 -8.53681 -2.14467 4.03904 -8.56459 -2.18455 4.05103 
-8.59235 -2.22452 4.06272 -8.62011 -2.26459 4.07412 -8.64788 -2.30474 4.08521 
-8.67564 -2.34496 4.09599 -8.70343 -2.38526 4.10645 -8.73123 -2.42563 4.11658 
-8.75906 -2.46606 4.12637 -8.78692 -2.50655 4.13583 -8.81482 -2.5471 4.14493 
-8.84277 -2.58769 4.15369 -8.87077 -2.62832 4.16208 -8.89882 -2.669 4.1701 
-8.92694 -2.70971 4.17775 -8.95513 -2.75044 4.18502 -8.98339 -2.79121 4.19191 
-9.01173 -2.83199 4.1984 -9.04015 -2.87278 4.20449 -9.06864 -2.91358 4.21018 
-9.09721 -2.95439 4.21546 -9.12586 -2.9952 4.22033 -9.15458 -3.03601 4.22479 
-9.18337 -3.0768 4.22882 -9.21224 -3.11758 4.23244 -9.24119 -3.15834 4.23562 
-9.2702 -3.19908 4.23836 -9.2993 -3.23979 4.24067 -9.32846 -3.28047 4.24254 
-9.3577 -3.32111 4.24395 -9.38702 -3.36171 4.24491 -9.4164 -3.40226 4.24542 
-9.44586 -3.44276 4.24546 -9.47539 -3.4832 4.24504 -9.50499 -3.52358 4.24415 
-9.53467 -3.5639 4.24278 -9.56441 -3.60414 4.24093 -9.59423 -3.64431 4.23859 
-9.6241 -3.68441 4.23579 -9.65404 -3.72443 4.2325 -9.68402 -3.76438 4.22875 
-9.71405 -3.80424 4.22453 -9.74412 -3.84403 4.21984 -9.77422 -3.88374 4.21469 
-9.80435 -3.92337 4.20908 -9.8345 -3.96291 4.20301 -9.86468 -4.00237 4.19649 
-9.89486 -4.04175 4.18953 -9.92505 -4.08104 4.18211 -9.95524 -4.12025 4.17425 
-9.98542 -4.15937 4.16595 -10.0156 -4.19839 4.15721 -10.0457 -4.23733 4.14804 
-10.0759 -4.27618 4.13843 -10.106 -4.31493 4.1284 -10.1361 -4.35359 4.11794 
-10.1661 -4.39216 4.10705 -10.1961 -4.43063 4.09575 -10.226 -4.46902 4.08404 
-10.2559 -4.50731 4.07192 -10.2857 -4.54553 4.05941 -10.3155 -4.58366 4.04651 
-10.3452 -4.62173 4.03323 -10.3747 -4.65972 4.01957 -10.4043 -4.69765 4.00555 
-10.4337 -4.73552 3.99117 -10.463 -4.77333 3.97643 -10.4922 -4.81108 3.96135 
-10.5213 -4.84879 3.94594 -10.5503 -4.88645 3.93019 -10.5792 -4.92407 3.91412 
-10.6079 -4.96165 3.89774 -10.6365 -4.9992 3.88104 -10.665 -5.03672 3.86405 
-10.6933 -5.07421 3.84676 -10.7215 -5.11169 3.82919 -10.7495 -5.14914 3.81134 
-10.7774 -5.18659 3.79322 -10.8051 -5.22402 3.77483 -10.8326 -5.26146 3.75618 
-10.8599 -5.2989 3.73728 -10.8871 -5.33635 3.71813 -10.914 -5.37381 3.69874 
-10.9407 -5.4113 3.67911 -10.9672 -5.44882 3.65924 -10.9935 -5.48637 3.63916 
-11.0196 -5.52395 3.61885 -11.0454 -5.56159 3.59832 -11.071 -5.59927 3.57759 
-11.0964 -5.63701 3.55666 -11.1215 -5.67482 3.53552 -11.1463 -5.71269 3.5142 
-11.1708 -5.75063 3.49269 -11.1951 -5.78866 3.471 -11.2191 -5.82677 3.44913 
-11.2428 -5.86497 3.42709 -11.2662 -5.90327 3.4049 -11.2893 -5.94168 3.38254 
-11.3121 -5.98019 3.36003 -11.3345 -6.0188 3.33736 -11.3566 -6.05753 3.31455 
-11.3784 -6.09637 3.29159 -11.3998 -6.13532 3.26848 -11.4208 -6.17438 3.24524 
-11.4415 -6.21357 3.22185 -11.4617 -6.25287 3.19833 -11.4816 -6.2923 3.17468 
-11.5011 -6.33185 3.15089 -11.5201 -6.37152 3.12698 -11.5387 -6.41132 3.10294 
-11.5569 -6.45126 3.07878 -11.5746 -6.49132 3.0545 -11.5918 -6.53151 3.0301 
-11.6086 -6.57184 3.00558 -11.6249 -6.61231 2.98096 -11.6407 -6.65292 2.95622 
-11.656 -6.69366 2.93138 -11.6708 -6.73455 2.90643 -11.6851 -6.77558 2.88138 
-11.6988 -6.81675 2.85623 -11.712 -6.85804 2.83098 -11.7246 -6.89945 2.80564 
-11.7367 -6.94097 2.78019 -11.7482 -6.9826 2.75466 -11.7591 -7.02432 2.72903 
-11.7695 -7.06614 2.70331 -11.7792 -7.10804 2.6775 -11.7884 -7.15002 2.6516 
-11.7969 -7.19207 2.62561 -11.8048 -7.23418 2.59954 -11.812 -7.27635 2.57339 
-11.8187 -7.31857 2.54715 -11.8246 -7.36083 2.52084 -11.8299 -7.40312 2.49444 
-11.8345 -7.44544 2.46797 -11.8385 -7.48779 2.44142 -11.8417 -7.53015 2.4148 
-11.8443 -7.57251 2.38811 -11.8461 -7.61487 2.36134 -11.8473 -7.65723 2.33451 
-11.8477 -7.69956 2.30761 -11.8475 -7.74186 2.28065 -11.8465 -7.78412 2.25362 
-11.8449 -7.82632 2.22653 -11.8426 -7.86846 2.19938 -11.8396 -7.91053 2.17217 
-11.836 -7.95251 2.1449 -11.8317 -7.99439 2.11759 -11.8267 -8.03617 2.09022 
-11.821 -8.07784 2.0628 -11.8147 -8.11937 2.03533 -11.8078 -8.16077 2.00782 
-11.8002 -8.20203 1.98026 -11.7919 -8.24312 1.95265 -11.783 -8.28404 1.92501 
-11.7735 -8.32479 1.89733 -11.7634 -8.36535 1.86961 -11.7526 -8.4057 1.84186 
-11.7412 -8.44585 1.81407 -11.7292 -8.48578 1.78625 -11.7166 -8.5255 1.7584 
-11.7034 -8.56499 1.73051 -11.6896 -8.60427 1.7026 -11.6753 -8.64333 1.67466 
-11.6604 -8.68216 1.64669 -11.645 -8.72076 1.61869 -11.629 -8.75913 1.59067 
[...]
CELL_DATA 1
FIELD FieldData 2
Length 1 1 double
63.805102421 
Tortuosity 1 1 double
0.9185496083 
POINT_DATA 1277
SCALARS MaximumInscribedSphereRadius float
LOOKUP_TABLE default
0.98 0.978706 0.977412 0.976118 0.974824 0.97353 0.972236 0.970942 0.969648 
0.968354 0.967059 0.965765 0.964471 0.963177 0.961883 0.960589 0.959295 0.958001 
0.956707 0.955413 0.954119 0.95262 0.95086 0.949099 0.947338 0.945578 0.943817 
0.942056 0.940296 0.938535 0.936775 0.935014 0.933253 0.931493 0.929732 0.927971 
0.926211 0.92445 0.922689 0.920929 0.919168 0.915301 0.909802 0.904304 0.898805 
0.893306 0.887808 0.882309 0.876811 0.871312 0.865814 0.860315 0.854816 0.849318 
0.843819 0.838321 0.832822 0.827324 0.821825 0.816326 0.810828 0.805377 0.800345 
0.795312 0.79028 0.785247 0.780215 0.775182 0.77015 0.765117 0.760085 0.755052 
0.75002 0.744987 0.739955 0.734922 0.72989 0.724857 0.719825 0.714792 0.70976 
0.704727 0.702006 0.699602 0.697198 0.694794 0.69239 0.689986 0.687582 0.685178 
0.682774 0.68037 0.677966 0.675562 0.673158 0.670754 0.66835 0.665946 0.663542 
0.661138 0.658734 0.65633 0.657613 0.66159 0.665567 0.669544 0.673521 0.677498 
0.681475 0.685451 0.689428 0.693405 0.697382 0.701359 0.705336 0.709313 0.71329 
0.717267 0.721244 0.725221 0.729198 0.733174 0.741609 0.760392 0.779174 0.797957 
0.81674 0.835522 0.854305 0.873088 0.891871 0.910653 0.929436 0.948219 0.967001 
0.985784 1.00457 1.02335 1.04213 1.06091 1.0797 1.09848 1.11718 1.13196 
1.14674 1.16152 1.17629 1.19107 1.20585 1.22063 1.23541 1.25019 1.26497 
1.27975 1.29452 1.3093 1.32408 1.33886 1.35364 1.36842 1.3832 1.39798 
1.41275 1.41462 1.41203 1.40944 1.40686 1.40427 1.40169 1.3991 1.39651 
1.39393 1.39134 1.38876 1.38617 1.38358 1.381 1.37841 1.37583 1.37324 
1.37065 1.36807 1.36548 1.36175 1.35668 1.35161 1.34653 1.34146 1.33639 
1.33132 1.32625 1.32118 1.31611 1.31104 1.30597 1.3009 1.29583 1.29076 
1.28569 1.28062 1.27555 1.27047 1.2654 1.26105 1.26001 1.25896 1.25791 
1.25686 1.25582 1.25477 1.25372 1.25268 1.25163 1.25058 1.24953 1.24849 
1.24744 1.24639 1.24535 1.2443 1.24325 1.2422 1.24116 1.24011 1.24776 
1.25645 1.26513 1.27381 1.28249 1.29118 1.29986 1.30854 1.31722 1.3259 
1.33459 1.34327 1.35195 1.36063 1.36931 1.378 1.38668 1.39536 1.40404 
1.41272 1.42635 1.44308 1.4598 1.47652 1.49325 1.50997 1.5267 1.54342 
1.56014 1.57687 1.59359 1.61032 1.62704 1.64377 1.66049 1.67721 1.69394 
1.71066 1.72739 1.74411 1.75525 1.75535 1.75546 1.75556 1.75567 1.75577 
1.75588 1.75598 1.75609 1.75619 1.7563 1.7564 1.75651 1.75661 1.75672 
1.75682 1.75693 1.75703 1.75714 1.75724 1.75692 1.74929 1.74166 1.73404 
1.72641 1.71878 1.71115 1.70353 1.6959 1.68827 1.68064 1.67301 1.66539 
1.65776 1.65013 1.6425 1.63487 1.62725 1.61962 1.61199 1.60436 1.59563 
1.58656 1.57749 1.56843 1.55936 1.55029 1.54123 1.53216 1.52309 1.51403 
1.50496 1.49589 1.48683 1.47776 1.4687 1.45963 1.45056 1.4415 1.43243 
1.42336 1.41474 1.40658 1.39842 1.39025 1.38209 1.37393 1.36577 1.3576 
1.34944 1.34128 1.33312 1.32495 1.31679 1.30863 1.30047 1.2923 1.28414 
1.27598 1.26782 1.25965 1.25563 1.2668 1.27797 1.28914 1.30032 1.31149 
1.32266 1.33383 1.345 1.35617 1.36734 1.37851 1.38968 1.40085 1.41202 
1.4232 1.43437 1.44554 1.45671 1.46788 1.47905 1.48785 1.4965 1.50515 
1.51379 1.52244 1.53108 1.53973 1.54838 1.55702 1.56567 1.57432 1.58296 
1.59161 1.60026 1.6089 1.61755 1.6262 1.63484 1.64349 1.65214 1.65359 
1.65131 1.64904 1.64676 1.64448 1.64221 1.63993 1.63765 1.63537 1.6331 
1.63082 1.62854 1.62627 1.62399 1.62171 1.61943 1.61716 1.61488 1.6126 
1.61033 1.60809 1.60591 1.60374 1.60156 1.59939 1.59722 1.59504 1.59287 
1.59069 1.58852 1.58634 1.58417 1.58199 1.57982 1.57765 1.57547 1.5733 
1.57112 1.56895 1.56677 1.56475 1.56402 1.5633 1.56257 1.56184 1.56111 
1.56038 1.55965 1.55892 1.5582 1.55747 1.55674 1.55601 1.55528 1.55455 
1.55383 1.5531 1.55237 1.55164 1.55091 1.55018 1.5506 1.55139 1.55219 
1.55299 1.55379 1.55458 1.55538 1.55618 1.55698 1.55777 1.55857 1.55937 
1.56016 1.56096 1.56176 1.56256 1.56335 1.56415 1.56495 1.56574 1.5704 
1.57614 1.58188 1.58762 1.59336 1.5991 1.60484 1.61058 1.61632 1.62206 
1.6278 1.63355 1.63929 1.64503 1.65077 1.65651 1.66225 1.66799 1.67373 
1.67947 1.68521 1.69165 1.70018 1.70872 1.71725 1.72579 1.73432 1.74286 
1.75139 1.75993 1.76846 1.777 1.78553 1.79407 1.8026 1.81114 1.81967 
1.82821 1.83674 1.83511 1.83044 1.82577 1.82109 1.81642 1.81175 1.80708 
1.8024 1.79773 1.79306 1.78838 1.78371 1.77904 1.77436 1.76969 1.76502 
1.76034 1.75567 1.751 1.74632 1.73988 1.732 1.72413 1.71625 1.70838 
1.7005 1.69263 1.68475 1.67687 1.669 1.66112 1.65325 1.64537 1.6375 
1.62962 1.62174 1.61387 1.60599 1.59812 1.59024 1.58244 1.57513 1.56781 
1.5605 1.55318 1.54586 1.53855 1.53123 1.52392 1.5166 1.50928 1.50197 
1.49465 1.48734 1.48002 1.47271 1.46539 1.45807 1.45076 1.44344 1.43613 
1.42905 1.42201 1.41496 1.40792 1.40088 1.39383 1.38679 1.37975 1.3727 
1.36566 1.35862 1.35157 1.34453 1.33749 1.33044 1.3234 1.31635 1.30931 
1.30227 1.29522 1.29361 1.29566 1.29772 1.29978 1.30184 1.3039 1.30595 
1.30801 1.31007 1.31213 1.31419 1.31624 1.3183 1.32036 1.32242 1.32448 
1.32653 1.32859 1.33065 1.33271 1.33645 1.34386 1.35127 1.35869 1.3661 
1.37352 1.38093 1.38835 1.39576 1.40318 1.41059 1.418 1.42542 1.43283 
1.44025 1.44766 1.45508 1.46249 1.46991 1.47732 1.4846 1.48783 1.49106 
1.49429 1.49752 1.50075 1.50398 1.50721 1.51044 1.51367 1.5169 1.52013 
1.52336 1.52659 1.52982 1.53305 1.53627 1.5395 1.54273 1.54596 1.54919 
1.55087 1.55204 1.55321 1.55437 1.55554 1.55671 1.55787 1.55904 1.5602 
1.56137 1.56254 1.5637 1.56487 1.56603 1.5672 1.56837 1.56953 1.5707 
1.57186 1.57303 1.5772 1.58455 1.59189 1.59924 1.60658 1.61393 1.62128 
1.62862 1.63597 1.64331 1.65066 1.65801 1.66535 1.6727 1.68004 1.68739 
1.69474 1.70208 1.70943 1.71677 1.72392 1.73028 1.73664 1.74301 1.74937 
1.75574 1.7621 1.76846 1.77483 1.78119 1.78755 1.79392 1.80028 1.80665 
1.81301 1.81937 1.82574 1.8321 1.83847 1.84483 1.85119 1.85206 1.85247 
1.85288 1.85329 1.8537 1.85411 1.85452 1.85493 1.85534 1.85575 1.85616 
1.85657 1.85698 1.85739 1.8578 1.85821 1.85862 1.85903 1.85944 1.85985 
1.86 1.86 1.86 1.86 1.86 1.86 1.86 1.86 1.86 
1.86 1.86 1.86 1.86 1.86 1.86 1.86 1.86 1.86 
1.86 1.86 1.86 1.86 1.86 1.86 1.86 1.86 1.86 
1.86 1.86 1.86 1.86 1.86 1.86 1.86 1.86 1.86 
1.86 1.86 1.86 1.86 1.86019 1.86269 1.8652 1.86771 1.87021 
1.87272 1.87522 1.87773 1.88023 1.88274 1.88525 1.88775 1.89026 1.89276 
1.89527 1.89778 1.90028 1.90279 1.90529 1.9078 1.91031 1.9159 1.92232 
1.92874 1.93516 1.94158 1.948 1.95442 1.96083 1.96725 1.97367 1.98009 
1.98651 1.99293 1.99935 2.00576 2.01218 2.0186 2.02502 2.03144 2.03786 
2.04242 2.0452 2.04798 2.05075 2.05353 2.05631 2.05908 2.06186 2.06464 
2.06741 2.07019 2.07297 2.07575 2.07852 2.0813 2.08408 2.08685 2.08963 
2.09241 2.09518 2.09615 2.09097 2.08578 2.0806 2.07541 2.07022 2.06504 
2.05985 2.05467 2.04948 2.04429 2.03911 2.03392 2.02874 2.02355 2.01836 
2.01318 2.00799 2.00281 1.99762 1.99244 1.98324 1.9738 1.96437 1.95494 
1.9455 1.93607 1.92663 1.9172 1.90777 1.89833 1.8889 1.87947 1.87003 
1.8606 1.85117 1.84173 1.8323 1.82287 1.81343 1.804 1.79157 1.77761 
1.76365 1.74968 1.73572 1.72176 1.70779 1.69383 1.67987 1.6659 1.65194 
1.63798 1.62402 1.61005 1.59609 1.58213 1.56816 1.5542 1.54024 1.52627 
1.51363 1.50315 1.49268 1.4822 1.47173 1.46125 1.45078 1.4403 1.42982 
1.41935 1.40887 1.3984 1.38792 1.37745 1.36697 1.3565 1.34602 1.33555 
1.32507 1.3146 1.30626 1.31817 1.33009 1.342 1.35392 1.36583 1.37774 
1.38966 1.40157 1.41349 1.4254 1.43732 1.44923 1.46115 1.47306 1.48497 
1.49689 1.5088 1.52072 1.53263 1.54455 1.55656 1.5686 1.58063 1.59267 
1.6047 1.61674 1.62878 1.64081 1.65285 1.66488 1.67692 1.68896 1.70099 
1.71303 1.72506 1.7371 1.74914 1.76117 1.77321 1.78524 1.78435 1.77199 
1.75963 1.74727 1.73491 1.72255 1.71019 1.69783 1.68547 1.67311 1.66075 
1.64839 1.63603 1.62367 1.61131 1.59895 1.58659 1.57423 1.56187 1.54951 
1.53798 1.52895 1.51992 1.5109 1.50187 1.49284 1.48382 1.47479 1.46577 
1.45674 1.44771 1.43869 1.42966 1.42064 1.41161 1.40258 1.39356 1.38453 
1.37551 1.36648 1.35745 1.36756 1.37835 1.38914 1.39993 1.41072 1.42152 
1.43231 1.4431 1.45389 1.46468 1.47548 1.48627 1.49706 1.50785 1.51864 
1.52944 1.54023 1.55102 1.56181 1.5726 1.57873 1.58268 1.58663 1.59059 
1.59454 1.59849 1.60244 1.6064 1.61035 1.6143 1.61825 1.62221 1.62616 
1.63011 1.63406 1.63802 1.64197 1.64592 1.64987 1.65383 1.64729 1.62499 
1.6027 1.5804 1.55811 1.53582 1.51352 1.49123 1.46893 1.44664 1.42434 
1.40205 1.37975 1.35746 1.33516 1.31287 1.29057 1.26828 1.24599 1.22369 
1.20179 1.18291 1.16403 1.14515 1.12627 1.10739 1.08851 1.06963 1.05075 
1.03187 1.01298 0.994104 0.975223 0.956342 0.937462 0.918581 0.8997 0.880819 
0.861938 0.843057 0.824176 0.825263 0.83036 0.835457 0.840555 0.845652 0.85075 
0.855847 0.860944 0.866042 0.871139 0.876237 0.881334 0.886431 0.891529 0.896626 
0.901724 0.906821 0.911918 0.917016 0.922113 0.929954 0.940044 0.950134 0.960225 
0.970315 0.980406 0.990496 1.00059 1.01068 1.02077 1.03086 1.04095 1.05104 
1.06113 1.07122 1.08131 1.0914 1.10149 1.11158 1.12167 1.12855 1.12657 
1.1246 1.12262 1.12064 1.11866 1.11668 1.1147 1.11272 1.11074 1.10876 
1.10678 1.10481 1.10283 1.10085 1.09887 1.09689 1.09491 1.09293 1.09095 
1.08897 1.08447 1.07992 1.07538 1.07083 1.06628 1.06174 1.05719 1.05264 
1.0481 1.04355 1.03901 1.03446 1.02991 1.02537 1.02082 1.01627 1.01173 
1.00718 1.00263 0.998088 0.999633 1.00381 1.00798 1.01216 1.01633 1.0205 
1.02468 1.02885 1.03303 1.0372 1.04137 1.04555 1.04972 1.0539 1.05807 
1.06224 1.06642 1.07059 1.07477 1.07894 1.08431 1.09133 1.09835 1.10537 
1.11239 1.1194 1.12642 1.13344 1.14046 1.14748 1.1545 1.16151 1.16853 
1.17555 1.18257 1.18959 1.19661 1.20362 1.21064 1.21766 1.22437 1.22878 
1.23319 1.23761 1.24202 1.24643 1.25085 1.25526 1.25967 1.26409 1.2685 
1.27291 1.27733 1.28174 1.28615 1.29057 1.29498 1.29939 1.3038 1.30822 
1.31263 1.3164 1.3201 1.3238 1.3275 1.3312 1.3349 1.3386 1.3423 
1.34599 1.34969 1.35339 1.35709 1.36079 1.36449 1.36819 1.37189 1.37558 
1.37928 1.38298 1.38668 1.39053 1.39457 1.3986 1.40264 1.40668 1.41072 
1.41475 1.41879 1.42283 1.42687 1.43091 1.43494 1.43898 1.44302 1.44706 
1.4511 1.45513 1.45917 1.46321 1.46725 1.47123 1.47517 1.47911 1.48305 
1.48698 1.49092 1.49486 1.4988 1.50274 1.50668 1.51061 1.51455 1.51849 
1.52243 1.52637 1.53031 1.53425 1.53818 1.54212 1.54606 1.55 
TEXTURE_COORDINATES TCoords 2 float
0 0 0.000783699 0 0.0015674 0 0.0023511 0 0.0031348 
0 0.0039185 0 0.00470219 0 0.00548589 0 0.00626959 0 
0.00705329 0 0.00783699 0 0.00862069 0 0.00940439 0 0.0101881 
0 0.0109718 0 0.0117555 0 0.0125392 0 0.0133229 0 
0.0141066 0 0.0148903 0 0.015674 0 0.0164577 0 0.0172414 
0 0.0180251 0 0.0188088 0 0.0195925 0 0.0203762 0 
0.0211599 0 0.0219436 0 0.0227273 0 0.023511 0 0.0242947 
0 0.0250784 0 0.0258621 0 0.0266458 0 0.0274295 0 
0.0282132 0 0.0289969 0 0.0297806 0 0.0305643 0 0.031348 
0 0.0321317 0 0.0329154 0 0.0336991 0 0.0344828 0 
0.0352665 0 0.0360502 0 0.0368339 0 0.0376176 0 0.0384013 
0 0.039185 0 0.0399687 0 0.0407524 0 0.0415361 0 
0.0423197 0 0.0431034 0 0.0438871 0 0.0446708 0 0.0454545 
0 0.0462382 0 0.0470219 0 0.0478056 0 0.0485893 0 
0.049373 0 0.0501567 0 0.0509404 0 0.0517241 0 0.0525078 
0 0.0532915 0 0.0540752 0 0.0548589 0 0.0556426 0 
0.0564263 0 0.05721 0 0.0579937 0 0.0587774 0 0.0595611 
0 0.0603448 0 0.0611285 0 0.0619122 0 0.0626959 0 
0.0634796 0 0.0642633 0 0.065047 0 0.0658307 0 0.0666144 
0 0.0673981 0 0.0681818 0 0.0689655 0 0.0697492 0 
0.0705329 0 0.0713166 0 0.0721003 0 0.072884 0 0.0736677 
0 0.0744514 0 0.0752351 0 0.0760188 0 0.0768025 0 
0.0775862 0 0.0783699 0 0.0791536 0 0.0799373 0 0.080721 
0 0.0815047 0 0.0822884 0 0.0830721 0 0.0838558 0 
0.0846395 0 0.0854232 0 0.0862069 0 0.0869906 0 0.0877743 
0 0.088558 0 0.0893417 0 0.0901254 0 0.0909091 0 
0.0916928 0 0.0924765 0 0.0932602 0 0.0940439 0 0.0948276 
0 0.0956113 0 0.096395 0 0.0971787 0 0.0979624 0 
0.0987461 0 0.0995298 0 0.100313 0 0.101097 0 0.101881 
0 0.102665 0 0.103448 0 0.104232 0 0.105016 0 
0.105799 0 0.106583 0 0.107367 0 0.10815 0 0.108934 
0 0.109718 0 0.110502 0 0.111285 0 0.112069 0 
0.112853 0 0.113636 0 0.11442 0 0.115204 0 0.115987 
0 0.116771 0 0.117555 0 0.118339 0 0.119122 0 
0.119906 0 0.12069 0 0.121473 0 0.122257 0 0.123041 
0 0.123824 0 0.124608 0 0.125392 0 0.126176 0 
0.126959 0 0.127743 0 0.128527 0 0.12931 0 0.130094 
0 0.130878 0 0.131661 0 0.132445 0 0.133229 0 
0.134013 0 0.134796 0 0.13558 0 0.136364 0 0.137147 
0 0.137931 0 0.138715 0 0.139498 0 0.140282 0 
0.141066 0 0.14185 0 0.142633 0 0.143417 0 0.144201 
0 0.144984 0 0.145768 0 0.146552 0 0.147335 0 
0.148119 0 0.148903 0 0.149687 0 0.15047 0 0.151254 
0 0.152038 0 0.152821 0 0.153605 0 0.154389 0 
0.155172 0 0.155956 0 0.15674 0 0.157524 0 0.158307 
0 0.159091 0 0.159875 0 0.160658 0 0.161442 0 
0.162226 0 0.163009 0 0.163793 0 0.164577 0 0.16536 
0 0.166144 0 0.166928 0 0.167712 0 0.168495 0 
0.169279 0 0.170063 0 0.170846 0 0.17163 0 0.172414 
0 0.173197 0 0.173981 0 0.174765 0 0.175549 0 
0.176332 0 0.177116 0 0.1779 0 0.178683 0 0.179467 
0 0.180251 0 0.181034 0 0.181818 0 0.182602 0 
0.183386 0 0.184169 0 0.184953 0 0.185737 0 0.18652 
0 0.187304 0 0.188088 0 0.188871 0 0.189655 0 
0.190439 0 0.191223 0 0.192006 0 0.19279 0 0.193574 
0 0.194357 0 0.195141 0 0.195925 0 0.196708 0 
0.197492 0 0.198276 0 0.19906 0 0.199843 0 0.200627 
0 0.201411 0 0.202194 0 0.202978 0 0.203762 0 
0.204545 0 0.205329 0 0.206113 0 0.206897 0 0.20768 
0 0.208464 0 0.209248 0 0.210031 0 0.210815 0 
0.211599 0 0.212382 0 0.213166 0 0.21395 0 0.214734 
0 0.215517 0 0.216301 0 0.217085 0 0.217868 0 
0.218652 0 0.219436 0 0.220219 0 0.221003 0 0.221787 
0 0.222571 0 0.223354 0 0.224138 0 0.224922 0 
0.225705 0 0.226489 0 0.227273 0 0.228056 0 0.22884 
0 0.229624 0 0.230408 0 0.231191 0 0.231975 0 
0.232759 0 0.233542 0 0.234326 0 0.23511 0 0.235893 
0 0.236677 0 0.237461 0 0.238245 0 0.239028 0 
0.239812 0 0.240596 0 0.241379 0 0.242163 0 0.242947 
0 0.24373 0 0.244514 0 0.245298 0 0.246082 0 
0.246865 0 0.247649 0 0.248433 0 0.249216 0 0.25 
0 0.250784 0 0.251567 0 0.252351 0 0.253135 0 
0.253918 0 0.254702 0 0.255486 0 0.25627 0 0.257053 
0 0.257837 0 0.258621 0 0.259404 0 0.260188 0 
0.260972 0 0.261755 0 0.262539 0 0.263323 0 0.264107 
0 0.26489 0 0.265674 0 0.266458 0 0.267241 0 
0.268025 0 0.268809 0 0.269592 0 0.270376 0 0.27116 
0 0.271944 0 0.272727 0 0.273511 0 0.274295 0 
0.275078 0 0.275862 0 0.276646 0 0.277429 0 0.278213 
0 0.278997 0 0.279781 0 0.280564 0 0.281348 0 
0.282132 0 0.282915 0 0.283699 0 0.284483 0 0.285266 
0 0.28605 0 0.286834 0 0.287618 0 0.288401 0 
0.289185 0 0.289969 0 0.290752 0 0.291536 0 0.29232 
0 0.293103 0 0.293887 0 0.294671 0 0.295455 0 
0.296238 0 0.297022 0 0.297806 0 0.298589 0 0.299373 
0 0.300157 0 0.30094 0 0.301724 0 0.302508 0 
0.303292 0 0.304075 0 0.304859 0 0.305643 0 0.306426 
0 0.30721 0 0.307994 0 0.308777 0 0.309561 0 
0.310345 0 0.311129 0 0.311912 0 0.312696 0 0.31348 
0 0.314263 0 0.315047 0 0.315831 0 0.316614 0 
0.317398 0 0.318182 0 0.318966 0 0.319749 0 0.320533 
0 0.321317 0 0.3221 0 0.322884 0 0.323668 0 
0.324451 0 0.325235 0 0.326019 0 0.326803 0 0.327586 
0 0.32837 0 0.329154 0 0.329937 0 0.330721 0 
0.331505 0 0.332288 0 0.333072 0 0.333856 0 0.334639 
0 0.335423 0 0.336207 0 0.336991 0 0.337774 0 
0.338558 0 0.339342 0 0.340125 0 0.340909 0 0.341693 
0 0.342476 0 0.34326 0 0.344044 0 0.344828 0 
0.345611 0 0.346395 0 0.347179 0 0.347962 0 0.348746 
0 0.34953 0 0.350313 0 0.351097 0 0.351881 0 
0.352665 0 0.353448 0 0.354232 0 0.355016 0 0.355799 
0 0.356583 0 0.357367 0 0.35815 0 0.358934 0 
0.359718 0 0.360502 0 0.361285 0 0.362069 0 0.362853 
0 0.363636 0 0.36442 0 0.365204 0 0.365987 0 
0.366771 0 0.367555 0 0.368339 0 0.369122 0 0.369906 
0 0.37069 0 0.371473 0 0.372257 0 0.373041 0 
0.373824 0 0.374608 0 0.375392 0 0.376176 0 0.376959 
0 0.377743 0 0.378527 0 0.37931 0 0.380094 0 
0.380878 0 0.381661 0 0.382445 0 0.383229 0 0.384013 
0 0.384796 0 0.38558 0 0.386364 0 0.387147 0 
0.387931 0 0.388715 0 0.389498 0 0.390282 0 0.391066 
0 0.39185 0 0.392633 0 0.393417 0 0.394201 0 
0.394984 0 0.395768 0 0.396552 0 0.397335 0 0.398119 
0 0.398903 0 0.399687 0 0.40047 0 0.401254 0 
0.402038 0 0.402821 0 0.403605 0 0.404389 0 0.405172 
0 0.405956 0 0.40674 0 0.407524 0 0.408307 0 
0.409091 0 0.409875 0 0.410658 0 0.411442 0 0.412226 
0 0.413009 0 0.413793 0 0.414577 0 0.415361 0 
0.416144 0 0.416928 0 0.417712 0 0.418495 0 0.419279 
0 0.420063 0 0.420846 0 0.42163 0 0.422414 0 
0.423197 0 0.423981 0 0.424765 0 0.425549 0 0.426332 
0 0.427116 0 0.4279 0 0.428683 0 0.429467 0 
0.430251 0 0.431034 0 0.431818 0 0.432602 0 0.433386 
0 0.434169 0 0.434953 0 0.435737 0 0.43652 0 
0.437304 0 0.438088 0 0.438871 0 0.439655 0 0.440439 
0 0.441223 0 0.442006 0 0.44279 0 0.443574 0 
0.444357 0 0.445141 0 0.445925 0 0.446708 0 0.447492 
0 0.448276 0 0.44906 0 0.449843 0 0.450627 0 
0.451411 0 0.452194 0 0.452978 0 0.453762 0 0.454545 
0 0.455329 0 0.456113 0 0.456897 0 0.45768 0 
0.458464 0 0.459248 0 0.460031 0 0.460815 0 0.461599 
0 0.462382 0 0.463166 0 0.46395 0 0.464734 0 
0.465517 0 0.466301 0 0.467085 0 0.467868 0 0.468652 
0 0.469436 0 0.470219 0 0.471003 0 0.471787 0 
0.472571 0 0.473354 0 0.474138 0 0.474922 0 0.475705 
0 0.476489 0 0.477273 0 0.478056 0 0.47884 0 
0.479624 0 0.480408 0 0.481191 0 0.481975 0 0.482759 
0 0.483542 0 0.484326 0 0.48511 0 0.485893 0 
0.486677 0 0.487461 0 0.488245 0 0.489028 0 0.489812 
0 0.490596 0 0.491379 0 0.492163 0 0.492947 0 
0.49373 0 0.494514 0 0.495298 0 0.496082 0 0.496865 
0 0.497649 0 0.498433 0 0.499216 0 0.5 0 
0.500784 0 0.501567 0 0.502351 0 0.503135 0 0.503918 
0 0.504702 0 0.505486 0 0.50627 0 0.507053 0 
0.507837 0 0.508621 0 0.509404 0 0.510188 0 0.510972 
0 0.511755 0 0.512539 0 0.513323 0 0.514107 0 
0.51489 0 0.515674 0 0.516458 0 0.517241 0 0.518025 
0 0.518809 0 0.519592 0 0.520376 0 0.52116 0 
0.521944 0 0.522727 0 0.523511 0 0.524295 0 0.525078 
0 0.525862 0 0.526646 0 0.527429 0 0.528213 0 
0.528997 0 0.529781 0 0.530564 0 0.531348 0 0.532132 
0 0.532915 0 0.533699 0 0.534483 0 0.535266 0 
0.53605 0 0.536834 0 0.537618 0 0.538401 0 0.539185 
0 0.539969 0 0.540752 0 0.541536 0 0.54232 0 
0.543103 0 0.543887 0 0.544671 0 0.545455 0 0.546238 
0 0.547022 0 0.547806 0 0.548589 0 0.549373 0 
0.550157 0 0.55094 0 0.551724 0 0.552508 0 0.553292 
0 0.554075 0 0.554859 0 0.555643 0 0.556426 0 
0.55721 0 0.557994 0 0.558777 0 0.559561 0 0.560345 
0 0.561128 0 0.561912 0 0.562696 0 0.56348 0 
0.564263 0 0.565047 0 0.565831 0 0.566614 0 0.567398 
0 0.568182 0 0.568965 0 0.569749 0 0.570533 0 
0.571317 0 0.5721 0 0.572884 0 0.573668 0 0.574451 
0 0.575235 0 0.576019 0 0.576802 0 0.577586 0 
0.57837 0 0.579154 0 0.579937 0 0.580721 0 0.581505 
0 0.582288 0 0.583072 0 0.583856 0 0.584639 0 
0.585423 0 0.586207 0 0.586991 0 0.587774 0 0.588558 
0 0.589342 0 0.590125 0 0.590909 0 0.591693 0 
0.592476 0 0.59326 0 0.594044 0 0.594828 0 0.595611 
0 0.596395 0 0.597179 0 0.597962 0 0.598746 0 
0.59953 0 0.600313 0 0.601097 0 0.601881 0 0.602665 
0 0.603448 0 0.604232 0 0.605016 0 0.605799 0 
0.606583 0 0.607367 0 0.60815 0 0.608934 0 0.609718 
0 0.610502 0 0.611285 0 0.612069 0 0.612853 0 
0.613636 0 0.61442 0 0.615204 0 0.615987 0 0.616771 
0 0.617555 0 0.618339 0 0.619122 0 0.619906 0 
0.62069 0 0.621473 0 0.622257 0 0.623041 0 0.623824 
0 0.624608 0 0.625392 0 0.626176 0 0.626959 0 
0.627743 0 0.628527 0 0.62931 0 0.630094 0 0.630878 
0 0.631661 0 0.632445 0 0.633229 0 0.634013 0 
0.634796 0 0.63558 0 0.636364 0 0.637147 0 0.637931 
0 0.638715 0 0.639498 0 0.640282 0 0.641066 0 
0.64185 0 0.642633 0 0.643417 0 0.644201 0 0.644984 
0 0.645768 0 0.646552 0 0.647335 0 0.648119 0 
0.648903 0 0.649687 0 0.65047 0 0.651254 0 0.652038 
0 0.652821 0 0.653605 0 0.654389 0 0.655172 0 
0.655956 0 0.65674 0 0.657524 0 0.658307 0 0.659091 
0 0.659875 0 0.660658 0 0.661442 0 0.662226 0 