# vtk DataFile Version 4.2
vtk output
ASCII
DATASET POLYDATA
POINTS 1278 float
0 0 0 -0.00333281 0.000587206 0.00233629 -0.0130624 0.00227783 0.00913768 
-0.0287853 0.00496536 0.0200929 -0.0500984 0.0085433 0.0348908 -0.0765983 0.0129052 0.0532201 
-0.107882 0.0179444 0.0747695 -0.143545 0.0235546 0.0992279 -0.183185 0.0296292 0.126284 
-0.226399 0.0360617 0.155626 -0.272783 0.0427457 0.186944 -0.321934 0.0495745 0.219926 
-0.373449 0.0564418 0.254261 -0.426924 0.063241 0.289637 -0.481955 0.0698656 0.325743 
-0.538141 0.0762091 0.362268 -0.595076 0.0821651 0.398902 -0.652359 0.0876269 0.435332 
-0.709585 0.0924882 0.471247 -0.766352 0.0966424 0.506336 -0.822256 0.0999831 0.540289 
-0.876894 0.102404 0.572793 -0.92999 0.103832 0.603636 -0.981601 0.104281 0.63286 
-1.03183 0.10378 0.660546 -1.0808 0.102356 0.686777 -1.1286 0.100039 0.711633 
-1.17535 0.0968557 0.735198 -1.22116 0.0928346 0.757553 -1.26613 0.0880039 0.77878 
-1.31037 0.0823918 0.798961 -1.354 0.0760263 0.818177 -1.39711 0.0689356 0.836511 
-1.43982 0.0611479 0.854045 -1.48224 0.0526913 0.87086 -1.52446 0.0435941 0.887039 
-1.56662 0.0338842 0.902664 -1.6088 0.02359 0.917815 -1.65112 0.0127395 0.932576 
-1.69369 0.00136084 0.947028 -1.73661 -0.0105178 0.961253 -1.77999 -0.0228694 0.975328 
-1.82384 -0.0356843 0.989272 -1.86814 -0.0489646 1.00306 -1.91283 -0.0627125 1.01666 
-1.95788 -0.0769305 1.03006 -2.00324 -0.091621 1.04322 -2.04888 -0.106786 1.05612 
-2.09476 -0.122429 1.06874 -2.14083 -0.138551 1.08104 -2.18706 -0.155155 1.09301 
-2.2334 -0.172243 1.10462 -2.27982 -0.189818 1.11584 -2.32627 -0.207882 1.12664 
-2.37271 -0.226438 1.13701 -2.41911 -0.245487 1.14691 -2.46542 -0.265033 1.15632 
-2.51161 -0.285077 1.16521 -2.55762 -0.305622 1.17356 -2.60343 -0.32667 1.18134 
-2.64899 -0.348224 1.18853 -2.69426 -0.370286 1.1951 -2.73921 -0.392852 1.20103 
-2.78386 -0.415907 1.20635 -2.82821 -0.439432 1.21108 -2.87227 -0.463407 1.21523 
-2.91605 -0.487815 1.21882 -2.95957 -0.512636 1.22188 -3.00283 -0.537853 1.22443 
-3.04585 -0.563445 1.22649 -3.08863 -0.589396 1.22808 -3.13119 -0.615686 1.22921 
-3.17353 -0.642296 1.22992 -3.21568 -0.669209 1.23021 -3.25763 -0.696404 1.23012 
-3.29941 -0.723865 1.22966 -3.34102 -0.751572 1.22885 -3.38246 -0.779506 1.22771 
-3.42376 -0.807649 1.22627 -3.46493 -0.835982 1.22455 -3.50596 -0.864487 1.22256 
-3.54688 -0.893145 1.22032 -3.5877 -0.921939 1.21787 -3.62841 -0.950863 1.21519 
-3.66903 -0.97991 1.2123 -3.70955 -1.00908 1.20921 -3.74997 -1.03836 1.20592 
-3.7903 -1.06775 1.20242 -3.83055 -1.09725 1.19874 -3.8707 -1.12685 1.19487 
-3.91078 -1.15655 1.19082 -3.95076 -1.18634 1.1866 -3.99067 -1.21622 1.1822 
-4.03051 -1.24618 1.17764 -4.07026 -1.27622 1.17292 -4.10995 -1.30633 1.16804 
-4.14956 -1.33652 1.16301 -4.18911 -1.36677 1.15784 -4.22859 -1.39707 1.15252 
-4.26801 -1.42744 1.14707 -4.30737 -1.45785 1.1415 -4.34667 -1.48832 1.13579 
-4.38592 -1.51882 1.12997 -4.42511 -1.54936 1.12403 -4.46426 -1.57994 1.11799 
-4.50336 -1.61055 1.11183 -4.54242 -1.64118 1.10558 -4.58145 -1.67184 1.09924 
-4.62044 -1.70251 1.0928 -4.65941 -1.7332 1.08628 -4.69835 -1.7639 1.07968 
-4.73727 -1.79461 1.073 -4.77617 -1.82533 1.06626 -4.81507 -1.85604 1.05945 
-4.85395 -1.88675 1.05258 -4.89283 -1.91745 1.04566 -4.93171 -1.94814 1.03868 
-4.9706 -1.97882 1.03166 -5.00949 -2.00947 1.0246 -5.04839 -2.04011 1.01751 
-5.08731 -2.07072 1.01039 -5.12625 -2.10129 1.00324 -5.16522 -2.13184 0.996068 
-5.20421 -2.16234 0.988882 -5.24322 -2.19281 0.98168 -5.28227 -2.22324 0.974461 
-5.32135 -2.25362 0.967226 -5.36045 -2.28397 0.959975 -5.39959 -2.31427 0.952708 
-5.43876 -2.34453 0.945426 -5.47796 -2.37474 0.938128 -5.51719 -2.40491 0.930816 
-5.55646 -2.43502 0.923489 -5.59577 -2.46509 0.916147 -5.63511 -2.4951 0.908791 
-5.67449 -2.52507 0.901421 -5.7139 -2.55498 0.894037 -5.75336 -2.58483 0.886639 
-5.79286 -2.61463 0.879228 -5.83239 -2.64437 0.871804 -5.87197 -2.67406 0.864366 
-5.91159 -2.70368 0.856916 -5.95126 -2.73324 0.849453 -5.99096 -2.76274 0.841977 
-6.03072 -2.79218 0.834486 -6.07051 -2.82155 0.826976 -6.11035 -2.85087 0.819444 
-6.15023 -2.88011 0.811887 -6.19015 -2.90929 0.804303 -6.23012 -2.93841 0.796687 
-6.27012 -2.96746 0.789038 -6.31017 -2.99644 0.781352 -6.35026 -3.02536 0.773626 
-6.39039 -3.05421 0.765856 -6.43056 -3.08299 0.758041 -6.47076 -3.1117 0.750176 
-6.51101 -3.14034 0.742259 -6.5513 -3.16891 0.734287 -6.59162 -3.19741 0.726257 
-6.63198 -3.22584 0.718165 -6.67238 -3.2542 0.710009 -6.71281 -3.28249 0.701786 
-6.75329 -3.31071 0.693492 -6.7938 -3.33885 0.685124 -6.83434 -3.36692 0.676675 
-6.87491 -3.39491 0.668137 -6.91552 -3.42284 0.659502 -6.95615 -3.45069 0.65076 
-6.9968 -3.47847 0.641904 -7.03748 -3.50618 0.632925 -7.07817 -3.53382 0.623814 
-7.11888 -3.56139 0.614565 -7.1596 -3.58889 0.605166 -7.20033 -3.61632 0.595612 
-7.24108 -3.64369 0.585893 -7.28182 -3.67098 0.576 -7.32257 -3.69821 0.565926 
-7.36333 -3.72537 0.555661 -7.40407 -3.75247 0.545199 -7.44482 -3.77949 0.534529 
-7.48556 -3.80646 0.523644 -7.52628 -3.83335 0.512536 -7.567 -3.86018 0.501195 
-7.6077 -3.88695 0.489614 -7.64838 -3.91365 0.47778 -7.68902 -3.94029 0.465676 
-7.72963 -3.96687 0.453288 -7.77018 -3.99339 0.440599 -7.81067 -4.01985 0.427592 
-7.85108 -4.04625 0.414252 -7.89141 -4.0726 0.400562 -7.93165 -4.09889 0.386507 
-7.97179 -4.12512 0.37207 -8.01181 -4.15131 0.357235 -8.05171 -4.17744 0.341987 
-8.09147 -4.20352 0.326308 -8.13109 -4.22955 0.310183 -8.17055 -4.25553 0.293597 
-8.20985 -4.28147 0.276532 -8.24897 -4.30736 0.258972 -8.2879 -4.3332 0.240902 
-8.32664 -4.359 0.222306 -8.36518 -4.38476 0.203167 -8.40349 -4.41048 0.183469 
-8.44158 -4.43616 0.1632 -8.47941 -4.46179 0.142355 -8.51698 -4.48739 0.12093 
-8.55425 -4.51294 0.0989212 -8.59121 -4.53845 0.0763238 -8.62783 -4.56391 0.0531341 
-8.6641 -4.58933 0.0293478 -8.7 -4.61471 0.0049611 -8.73549 -4.64003 -0.0200303 
-8.77057 -4.66531 -0.0456304 -8.80521 -4.69054 -0.0718433 -8.83939 -4.71573 -0.0986731 
-8.87309 -4.74086 -0.126124 -8.90629 -4.76594 -0.1542 -8.93896 -4.79097 -0.182905 
-8.9711 -4.81595 -0.212243 -9.00266 -4.84088 -0.242219 -9.03365 -4.86575 -0.272836 
-9.06402 -4.89057 -0.304099 -9.09377 -4.91533 -0.336011 -9.12288 -4.94004 -0.368574 
-9.15133 -4.96469 -0.401772 -9.17912 -4.98928 -0.435587 -9.20624 -5.01382 -0.47 
-9.2327 -5.0383 -0.504992 -9.25848 -5.06273 -0.540546 -9.28358 -5.0871 -0.576642 
-9.308 -5.11141 -0.613262 -9.33172 -5.13566 -0.650388 -9.35475 -5.15985 -0.688 
-9.37707 -5.18399 -0.72608 -9.39869 -5.20807 -0.76461 -9.41959 -5.23209 -0.80357 
-9.43977 -5.25606 -0.842943 -9.45924 -5.27996 -0.88271 -9.47797 -5.30381 -0.922852 
-9.49596 -5.32759 -0.96335 -9.51322 -5.35132 -1.00419 -9.52973 -5.37499 -1.04534 
-9.54549 -5.3986 -1.0868 -9.5605 -5.42215 -1.12854 -9.57475 -5.44564 -1.17055 
-9.58827 -5.46908 -1.21281 -9.60105 -5.49247 -1.25531 -9.61313 -5.51581 -1.29804 
-9.62449 -5.5391 -1.34098 -9.63516 -5.56235 -1.38412 -9.64515 -5.58556 -1.42745 
-9.65446 -5.60873 -1.47095 -9.66311 -5.63187 -1.51462 -9.67111 -5.65497 -1.55843 
-9.67847 -5.67805 -1.60237 -9.6852 -5.70111 -1.64643 -9.69132 -5.72414 -1.6906 
-9.69682 -5.74715 -1.73487 -9.70173 -5.77015 -1.77921 -9.70605 -5.79314 -1.82362 
-9.7098 -5.81611 -1.86808 -9.71299 -5.83908 -1.91258 -9.71562 -5.86204 -1.95711 
-9.71771 -5.885 -2.00165 -9.71927 -5.90796 -2.04619 -9.7203 -5.93092 -2.09073 
-9.72082 -5.9539 -2.13526 -9.72084 -5.97688 -2.17979 -9.72035 -5.99987 -2.2243 
-9.71938 -6.02288 -2.26878 -9.71792 -6.0459 -2.31324 -9.71599 -6.06894 -2.35767 
-9.7136 -6.09201 -2.40207 -9.71075 -6.1151 -2.44642 -9.70745 -6.13822 -2.49074 
-9.70371 -6.16136 -2.535 -9.69954 -6.18454 -2.5792 -9.69495 -6.20775 -2.62335 
-9.68995 -6.231 -2.66743 -9.68453 -6.25429 -2.71145 -9.67873 -6.27763 -2.75539 
-9.67253 -6.30101 -2.79925 -9.66595 -6.32443 -2.84303 -9.659 -6.34791 -2.88672 
-9.65168 -6.37144 -2.93032 -9.64401 -6.39502 -2.97382 -9.63598 -6.41866 -3.01723 
-9.62761 -6.44236 -3.06053 -9.61889 -6.46613 -3.10374 -9.60983 -6.48995 -3.14683 
-9.60045 -6.51384 -3.18982 -9.59073 -6.5378 -3.2327 -9.5807 -6.56182 -3.27546 
-9.57035 -6.58592 -3.31811 -9.55969 -6.61009 -3.36064 -9.54873 -6.63433 -3.40305 
-9.53746 -6.65866 -3.44534 -9.5259 -6.68306 -3.48749 -9.51406 -6.70755 -3.52952 
-9.50193 -6.73211 -3.57142 -9.48953 -6.75677 -3.61318 -9.47685 -6.78151 -3.65481 
-9.46391 -6.80634 -3.69629 -9.4507 -6.83127 -3.73764 -9.43724 -6.85628 -3.77884 
-9.42353 -6.8814 -3.81989 -9.40956 -6.90661 -3.86079 -9.39536 -6.93193 -3.90154 
-9.38091 -6.95735 -3.94214 -9.36621 -6.98288 -3.98259 -9.35129 -7.00853 -4.02287 
-9.33613 -7.03428 -4.063 -9.32073 -7.06016 -4.10297 -9.30511 -7.08615 -4.14277 
-9.28927 -7.11227 -4.18241 -9.2732 -7.13851 -4.22189 -9.25692 -7.16488 -4.26119 
-9.24042 -7.19139 -4.30033 -9.22371 -7.21803 -4.33929 -9.20679 -7.2448 -4.37807 
-9.18967 -7.27172 -4.41668 -9.17234 -7.29878 -4.45511 -9.15481 -7.32598 -4.49336 
-9.13709 -7.35334 -4.53143 -9.11917 -7.38085 -4.56931 -9.10106 -7.40851 -4.60701 
-9.08277 -7.43633 -4.64451 -9.06429 -7.46431 -4.6818 -9.04564 -7.49245 -4.71889 
-9.02682 -7.52075 -4.75577 -9.00783 -7.54922 -4.79242 -8.98867 -7.57785 -4.82885 
-8.96935 -7.60666 -4.86505 -8.94988 -7.63564 -4.90101 -8.93025 -7.66479 -4.93672 
-8.91048 -7.69412 -4.97219 -8.89056 -7.72363 -5.0074 -8.87051 -7.75332 -5.04234 
-8.85031 -7.78319 -5.07702 -8.82999 -7.81325 -5.11142 -8.80954 -7.8435 -5.14554 
-8.78897 -7.87393 -5.17938 -8.76828 -7.90456 -5.21292 -8.74747 -7.93539 -5.24616 
-8.72655 -7.96641 -5.27909 -8.70553 -7.99763 -5.31172 -8.6844 -8.02907 -5.34403 
-8.66315 -8.06074 -5.37601 -8.6418 -8.09266 -5.40766 -8.62033 -8.12483 -5.43897 
-8.59875 -8.15727 -5.46994 -8.57706 -8.19 -5.50055 -8.55525 -8.22303 -5.53081 
-8.53332 -8.25637 -5.5607 -8.51128 -8.29004 -5.59023 -8.48912 -8.32405 -5.61937 
-8.46684 -8.35841 -5.64813 -8.44444 -8.39314 -5.6765 -8.42192 -8.42825 -5.70448 
-8.39928 -8.46376 -5.73204 -8.37651 -8.49967 -5.7592 -8.35362 -8.53601 -5.78594 
[...]
CELL_DATA 1
FIELD FieldData 2
Length 1 1 double
63.88693353 
Tortuosity 1 1 double
0.72707830236 
POINT_DATA 1278
SCALARS MaximumInscribedSphereRadius float
LOOKUP_TABLE default
0.93 0.94439 0.958781 0.973171 0.987561 1.00195 1.01634 1.03073 1.04512 
1.05951 1.0739 1.08829 1.10268 1.11707 1.13146 1.14585 1.16024 1.17464 
1.18903 1.20342 1.21781 1.23181 1.24362 1.25542 1.26722 1.27902 1.29082 
1.30263 1.31443 1.32623 1.33803 1.34983 1.36164 1.37344 1.38524 1.39704 
1.40884 1.42064 1.43245 1.44425 1.45605 1.4573 1.4524 1.44751 1.44262 
1.43772 1.43283 1.42794 1.42305 1.41815 1.41326 1.40837 1.40347 1.39858 
1.39369 1.3888 1.3839 1.37901 1.37412 1.36922 1.36433 1.3595 1.35493 
1.35037 1.34581 1.34124 1.33668 1.33212 1.32755 1.32299 1.31843 1.31386 
1.3093 1.30474 1.30017 1.29561 1.29105 1.28648 1.28192 1.27736 1.27279 
1.26823 1.26675 1.26549 1.26423 1.26297 1.26171 1.26045 1.25919 1.25793 
1.25666 1.2554 1.25414 1.25288 1.25162 1.25036 1.2491 1.24784 1.24658 
1.24532 1.24405 1.24279 1.24228 1.24216 1.24205 1.24194 1.24182 1.24171 
1.2416 1.24148 1.24137 1.24126 1.24114 1.24103 1.24092 1.2408 1.24069 
1.24058 1.24046 1.24035 1.24024 1.24012 1.24119 1.24431 1.24743 1.25054 
1.25366 1.25678 1.25989 1.26301 1.26612 1.26924 1.27236 1.27547 1.27859 
1.2817 1.28482 1.28794 1.29105 1.29417 1.29729 1.3004 1.30465 1.32094 
1.33723 1.35351 1.3698 1.38609 1.40238 1.41866 1.43495 1.45124 1.46752 
1.48381 1.5001 1.51639 1.53267 1.54896 1.56525 1.58154 1.59782 1.61411 
1.6304 1.63735 1.64204 1.64673 1.65141 1.6561 1.66079 1.66547 1.67016 
1.67485 1.67954 1.68422 1.68891 1.6936 1.69829 1.70297 1.70766 1.71235 
1.71703 1.72172 1.72641 1.7245 1.71659 1.70868 1.70078 1.69287 1.68496 
1.67706 1.66915 1.66125 1.65334 1.64543 1.63753 1.62962 1.62171 1.61381 
1.6059 1.598 1.59009 1.58218 1.57428 1.56679 1.56061 1.55442 1.54823 
1.54205 1.53586 1.52967 1.52349 1.5173 1.51111 1.50493 1.49874 1.49255 
1.48637 1.48018 1.47399 1.4678 1.46162 1.45543 1.44924 1.44306 1.44323 
1.44349 1.44374 1.444 1.44425 1.44451 1.44476 1.44502 1.44527 1.44552 
1.44578 1.44603 1.44629 1.44654 1.4468 1.44705 1.44731 1.44756 1.44782 
1.44807 1.4513 1.45559 1.45988 1.46416 1.46845 1.47274 1.47703 1.48132 
1.4856 1.48989 1.49418 1.49847 1.50276 1.50704 1.51133 1.51562 1.51991 
1.5242 1.52848 1.53277 1.53539 1.53613 1.53686 1.5376 1.53834 1.53908 
1.53982 1.54055 1.54129 1.54203 1.54277 1.5435 1.54424 1.54498 1.54572 
1.54646 1.54719 1.54793 1.54867 1.54941 1.54886 1.54307 1.53729 1.53151 
1.52573 1.51994 1.51416 1.50838 1.50259 1.49681 1.49103 1.48524 1.47946 
1.47368 1.46789 1.46211 1.45633 1.45054 1.44476 1.43898 1.43319 1.41943 
1.40497 1.39051 1.37605 1.36159 1.34713 1.33267 1.31821 1.30376 1.2893 
1.27484 1.26038 1.24592 1.23146 1.217 1.20254 1.18808 1.17362 1.15916 
1.1447 1.13749 1.1343 1.13112 1.12794 1.12476 1.12157 1.11839 1.11521 
1.11203 1.10885 1.10566 1.10248 1.0993 1.09612 1.09293 1.08975 1.08657 
1.08339 1.08021 1.07702 1.08115 1.09804 1.11493 1.13182 1.14871 1.1656 
1.18249 1.19938 1.21627 1.23315 1.25004 1.26693 1.28382 1.30071 1.3176 
1.33449 1.35138 1.36827 1.38516 1.40205 1.4174 1.41581 1.41422 1.41263 
1.41104 1.40945 1.40786 1.40627 1.40467 1.40308 1.40149 1.3999 1.39831 
1.39672 1.39513 1.39354 1.39195 1.39036 1.38877 1.38718 1.38559 1.37938 
1.372 1.36463 1.35725 1.34987 1.34249 1.33512 1.32774 1.32036 1.31298 
1.30561 1.29823 1.29085 1.28348 1.2761 1.26872 1.26134 1.25397 1.24659 
1.24065 1.24668 1.25271 1.25874 1.26477 1.2708 1.27684 1.28287 1.2889 
1.29493 1.30096 1.307 1.31303 1.31906 1.32509 1.33112 1.33715 1.34319 
1.34922 1.35525 1.36128 1.36793 1.3749 1.38188 1.38886 1.39584 1.40282 
1.4098 1.41678 1.42376 1.43074 1.43772 1.44469 1.45167 1.45865 1.46563 
1.47261 1.47959 1.48657 1.49355 1.50053 1.50182 1.4944 1.48698 1.47956 
1.47214 1.46472 1.4573 1.44988 1.44246 1.43504 1.42762 1.4202 1.41278 
1.40536 1.39794 1.39052 1.38311 1.37569 1.36827 1.36085 1.35404 1.35216 
1.35028 1.3484 1.34652 1.34464 1.34276 1.34088 1.339 1.33712 1.33524 
1.33336 1.33148 1.3296 1.32772 1.32584 1.32396 1.32208 1.3202 1.31832 
1.31644 1.32211 1.32932 1.33652 1.34373 1.35093 1.35814 1.36534 1.37255 
1.37975 1.38696 1.39416 1.40137 1.40857 1.41578 1.42298 1.43019 1.43739 
1.4446 1.4518 1.45901 1.46045 1.45732 1.45419 1.45105 1.44792 1.44479 
1.44165 1.43852 1.43539 1.43225 1.42912 1.42598 1.42285 1.41972 1.41658 
1.41345 1.41032 1.40718 1.40405 1.40091 1.39764 1.39402 1.39039 1.38676 
1.38314 1.37951 1.37589 1.37226 1.36864 1.36501 1.36139 1.35776 1.35414 
1.35051 1.34688 1.34326 1.33963 1.33601 1.33238 1.32876 1.32522 1.33325 
1.34128 1.34931 1.35734 1.36536 1.37339 1.38142 1.38945 1.39748 1.4055 
1.41353 1.42156 1.42959 1.43762 1.44564 1.45367 1.4617 1.46973 1.47776 
1.48578 1.49462 1.50376 1.5129 1.52204 1.53118 1.54032 1.54946 1.5586 
1.56774 1.57688 1.58602 1.59516 1.6043 1.61344 1.62258 1.63171 1.64085 
1.64999 1.65913 1.66827 1.67596 1.68184 1.68773 1.69361 1.6995 1.70538 
1.71127 1.71716 1.72304 1.72893 1.73481 1.7407 1.74658 1.75247 1.75836 
1.76424 1.77013 1.77601 1.7819 1.78779 1.7919 1.78715 1.7824 1.77765 
1.7729 1.76815 1.7634 1.75865 1.7539 1.74915 1.7444 1.73965 1.7349 
1.73015 1.7254 1.72065 1.7159 1.71115 1.7064 1.70165 1.6969 1.69623 
1.69609 1.69595 1.69581 1.69567 1.69552 1.69538 1.69524 1.6951 1.69496 
1.69481 1.69467 1.69453 1.69439 1.69425 1.6941 1.69396 1.69382 1.69368 
1.69354 1.70238 1.7171 1.73181 1.74652 1.76123 1.77594 1.79065 1.80536 
1.82007 1.83478 1.8495 1.86421 1.87892 1.89363 1.90834 1.92305 1.93776 
1.95247 1.96719 1.9819 1.99311 1.99705 2.00098 2.00491 2.00884 2.01278 
2.01671 2.02064 2.02457 2.02851 2.03244 2.03637 2.0403 2.04423 2.04817 
2.0521 2.05603 2.05996 2.0639 2.06783 2.07122 2.06276 2.0543 2.04584 
2.03738 2.02892 2.02047 2.01201 2.00355 1.99509 1.98663 1.97817 1.96971 
1.96125 1.95279 1.94433 1.93587 1.92742 1.91896 1.9105 1.90204 1.89342 
1.88474 1.87607 1.86739 1.85872 1.85005 1.84137 1.8327 1.82403 1.81535 
1.80668 1.798 1.78933 1.78066 1.77198 1.76331 1.75464 1.74596 1.73729 
1.72861 1.72173 1.71678 1.71183 1.70687 1.70192 1.69697 1.69201 1.68706 
1.68211 1.67716 1.6722 1.66725 1.6623 1.65734 1.65239 1.64744 1.64248 
1.63753 1.63258 1.62762 1.62467 1.62956 1.63444 1.63933 1.64421 1.6491 
1.65398 1.65887 1.66375 1.66864 1.67352 1.67841 1.68329 1.68818 1.69306 
1.69795 1.70283 1.70772 1.7126 1.71748 1.72237 1.72371 1.72476 1.72581 
1.72686 1.72791 1.72896 1.73001 1.73106 1.73211 1.73316 1.73421 1.73526 
1.73631 1.73736 1.73841 1.73946 1.74051 1.74156 1.74261 1.74366 1.73435 
1.71938 1.70442 1.68945 1.67448 1.65951 1.64454 1.62957 1.6146 1.59963 
1.58467 1.5697 1.55473 1.53976 1.52479 1.50982 1.49485 1.47989 1.46492 
1.44995 1.43966 1.43734 1.43501 1.43269 1.43036 1.42804 1.42572 1.42339 
1.42107 1.41874 1.41642 1.41409 1.41177 1.40945 1.40712 1.4048 1.40247 
1.40015 1.39783 1.3955 1.39489 1.4105 1.42611 1.44172 1.45733 1.47294 
1.48855 1.50416 1.51977 1.53538 1.55099 1.5666 1.58221 1.59782 1.61343 
1.62904 1.64465 1.66026 1.67587 1.69148 1.70709 1.71282 1.71641 1.72 
1.72358 1.72717 1.73076 1.73435 1.73794 1.74153 1.74511 1.7487 1.75229 
1.75588 1.75947 1.76306 1.76664 1.77023 1.77382 1.77741 1.781 1.77982 
1.7747 1.76959 1.76447 1.75936 1.75424 1.74913 1.74401 1.7389 1.73378 
1.72867 1.72355 1.71844 1.71332 1.70821 1.70309 1.69798 1.69286 1.68774 
1.68263 1.67791 1.67425 1.67058 1.66692 1.66326 1.6596 1.65593 1.65227 
1.64861 1.64494 1.64128 1.63762 1.63395 1.63029 1.62663 1.62296 1.6193 
1.61564 1.61198 1.60831 1.60465 1.60195 1.59926 1.59656 1.59387 1.59118 
1.58848 1.58579 1.58309 1.5804 1.57771 1.57501 1.57232 1.56962 1.56693 
1.56424 1.56154 1.55885 1.55616 1.55346 1.55077 1.55002 1.55005 1.55007 
1.5501 1.55013 1.55015 1.55018 1.55021 1.55023 1.55026 1.55029 1.55031 
1.55034 1.55037 1.55039 1.55042 1.55045 1.55047 1.5505 1.55052 1.55295 
1.55849 1.56404 1.56958 1.57512 1.58067 1.58621 1.59176 1.5973 1.60285 
1.60839 1.61394 1.61948 1.62502 1.63057 1.63611 1.64166 1.6472 1.65275 
1.65829 1.66556 1.68236 1.69917 1.71597 1.73278 1.74958 1.76639 1.78319 
1.8 1.8168 1.83361 1.85041 1.86722 1.88402 1.90083 1.91763 1.93444 
1.95125 1.96805 1.98486 2.00166 1.99794 1.9912 1.98446 1.97772 1.97098 
1.96424 1.95749 1.95075 1.94401 1.93727 1.93053 1.92379 1.91705 1.9103 
1.90356 1.89682 1.89008 1.88334 1.8766 1.86985 1.85177 1.82593 1.8001 
1.77427 1.74844 1.72261 1.69678 1.67094 1.64511 1.61928 1.59345 1.56762 
1.54179 1.51596 1.49012 1.46429 1.43846 1.41263 1.3868 1.36097 1.34776 
1.36138 1.375 1.38863 1.40225 1.41587 1.4295 1.44312 1.45674 1.47036 
1.48399 1.49761 1.51123 1.52486 1.53848 1.5521 1.56572 1.57935 1.59297 
1.60659 1.6203 1.63547 1.65064 1.66581 1.68098 1.69615 1.71132 1.7265 
1.74167 1.75684 1.77201 1.78718 1.80235 1.81752 1.83269 1.84786 1.86303 
1.87821 1.89338 1.90855 1.92372 1.93064 1.93532 1.94 1.94469 1.94937 
1.95406 1.95874 1.96342 1.96811 1.97279 1.97748 1.98216 1.98684 1.99153 
1.99621 2.0009 2.00558 2.01026 2.01495 2.01963 2.02074 2.01851 2.01629 
2.01406 2.01183 2.00961 2.00738 2.00516 2.00293 2.0007 1.99848 1.99625 
1.99403 1.9918 1.98958 1.98735 1.98512 1.9829 1.98067 1.97845 1.97555 
1.97058 1.9656 1.96062 1.95565 1.95067 1.9457 1.94072 1.93574 1.93077 
1.92579 1.92081 1.91584 1.91086 1.90589 1.90091 1.89593 1.89096 1.88598 
1.881 1.87603 1.8751 1.87431 1.87353 1.87275 1.87197 1.87119 1.87041 
1.86963 1.86884 1.86806 1.86728 1.8665 1.86572 1.86494 1.86415 1.86337 
1.86259 1.86181 1.86103 1.86025 1.86 1.86 1.86 1.86 1.86 
1.86 1.86 1.86 1.86 1.86 1.86 1.86 1.86 1.86 
1.86 1.86 1.86 1.86 1.86 1.86 1.86 1.86 1.86 
1.86 1.86 1.86 1.86 1.86 1.86 1.86 1.86 1.86 
1.86 1.86 1.86 1.86 1.86 1.86 1.86 1.86 1.86 
1.86 1.86 1.86 1.86 1.86 1.86 1.86 1.86 1.86 
1.86 1.86 1.86 1.86 1.86 1.86 1.86 1.86 1.86 
1.86 1.86 1.86004 1.86008 1.86012 1.86017 1.86021 1.86025 1.8603 
1.86034 1.86038 1.86042 1.86047 1.86051 1.86055 1.8606 1.86064 1.86068 
1.86072 1.86077 1.86081 1.86085 1.86316 1.86955 1.87594 1.88233 1.88872 
1.89511 1.9015 1.90789 1.91427 1.92066 1.92705 1.93344 1.93983 1.94622 
1.95261 1.95899 1.96538 1.97177 1.97816 1.98455 1.99305 2.0019 2.01075 
2.0196 2.02844 2.03729 2.04614 2.05499 2.06383 2.07268 2.08153 2.09037 
2.09922 2.10807 2.11692 2.12576 2.13461 2.14346 2.15231 2.16115 2.17 

TEXTURE_COORDINATES TCoords 2 float
0 0 0.000783085 0 0.00156617 0 0.00234926 0 0.00313234 
0 0.00391543 0 0.00469851 0 0.0054816 0 0.00626468 0 
0.00704777 0 0.00783085 0 0.00861394 0 0.00939702 0 0.0101801 
0 0.0109632 0 0.0117463 0 0.0125294 0 0.0133125 0 
0.0140955 0 0.0148786 0 0.0156617 0 0.0164448 0 0.0172279 
0 0.018011 0 0.018794 0 0.0195771 0 0.0203602 0 
0.0211433 0 0.0219264 0 0.0227095 0 0.0234926 0 0.0242756 
0 0.0250587 0 0.0258418 0 0.0266249 0 0.027408 0 
0.0281911 0 0.0289742 0 0.0297572 0 0.0305403 0 0.0313234 
0 0.0321065 0 0.0328896 0 0.0336727 0 0.0344558 0 
0.0352388 0 0.0360219 0 0.036805 0 0.0375881 0 0.0383712 
0 0.0391543 0 0.0399374 0 0.0407204 0 0.0415035 0 
0.0422866 0 0.0430697 0 0.0438528 0 0.0446359 0 0.045419 
0 0.046202 0 0.0469851 0 0.0477682 0 0.0485513 0 
0.0493344 0 0.0501175 0 0.0509005 0 0.0516836 0 0.0524667 
0 0.0532498 0 0.0540329 0 0.054816 0 0.0555991 0 
0.0563821 0 0.0571652 0 0.0579483 0 0.0587314 0 0.0595145 
0 0.0602976 0 0.0610807 0 0.0618637 0 0.0626468 0 
0.0634299 0 0.064213 0 0.0649961 0 0.0657792 0 0.0665623 
0 0.0673453 0 0.0681284 0 0.0689115 0 0.0696946 0 
0.0704777 0 0.0712608 0 0.0720439 0 0.0728269 0 0.07361 
0 0.0743931 0 0.0751762 0 0.0759593 0 0.0767424 0 
0.0775255 0 0.0783085 0 0.0790916 0 0.0798747 0 0.0806578 
0 0.0814409 0 0.082224 0 0.083007 0 0.0837901 0 
0.0845732 0 0.0853563 0 0.0861394 0 0.0869225 0 0.0877056 
0 0.0884886 0 0.0892717 0 0.0900548 0 0.0908379 0 
0.091621 0 0.0924041 0 0.0931872 0 0.0939702 0 0.0947533 
0 0.0955364 0 0.0963195 0 0.0971026 0 0.0978857 0 
0.0986688 0 0.0994518 0 0.100235 0 0.101018 0 0.101801 
0 0.102584 0 0.103367 0 0.10415 0 0.104933 0 
0.105717 0 0.1065 0 0.107283 0 0.108066 0 0.108849 
0 0.109632 0 0.110415 0 0.111198 0 0.111981 0 
0.112764 0 0.113547 0 0.11433 0 0.115114 0 0.115897 
0 0.11668 0 0.117463 0 0.118246 0 0.119029 0 
0.119812 0 0.120595 0 0.121378 0 0.122161 0 0.122944 
0 0.123727 0 0.124511 0 0.125294 0 0.126077 0 
0.12686 0 0.127643 0 0.128426 0 0.129209 0 0.129992 
0 0.130775 0 0.131558 0 0.132341 0 0.133125 0 
0.133908 0 0.134691 0 0.135474 0 0.136257 0 0.13704 
0 0.137823 0 0.138606 0 0.139389 0 0.140172 0 
0.140955 0 0.141738 0 0.142522 0 0.143305 0 0.144088 
0 0.144871 0 0.145654 0 0.146437 0 0.14722 0 
0.148003 0 0.148786 0 0.149569 0 0.150352 0 0.151135 
0 0.151919 0 0.152702 0 0.153485 0 0.154268 0 
0.155051 0 0.155834 0 0.156617 0 0.1574 0 0.158183 
0 0.158966 0 0.159749 0 0.160533 0 0.161316 0 
0.162099 0 0.162882 0 0.163665 0 0.164448 0 0.165231 
0 0.166014 0 0.166797 0 0.16758 0 0.168363 0 
0.169146 0 0.16993 0 0.170713 0 0.171496 0 0.172279 
0 0.173062 0 0.173845 0 0.174628 0 0.175411 0 
0.176194 0 0.176977 0 0.17776 0 0.178543 0 0.179327 
0 0.18011 0 0.180893 0 0.181676 0 0.182459 0 
0.183242 0 0.184025 0 0.184808 0 0.185591 0 0.186374 
0 0.187157 0 0.18794 0 0.188724 0 0.189507 0 
0.19029 0 0.191073 0 0.191856 0 0.192639 0 0.193422 
0 0.194205 0 0.194988 0 0.195771 0 0.196554 0 
0.197338 0 0.198121 0 0.198904 0 0.199687 0 0.20047 
0 0.201253 0 0.202036 0 0.202819 0 0.203602 0 
0.204385 0 0.205168 0 0.205951 0 0.206735 0 0.207518 
0 0.208301 0 0.209084 0 0.209867 0 0.21065 0 
0.211433 0 0.212216 0 0.212999 0 0.213782 0 0.214565 
0 0.215348 0 0.216132 0 0.216915 0 0.217698 0 
0.218481 0 0.219264 0 0.220047 0 0.22083 0 0.221613 
0 0.222396 0 0.223179 0 0.223962 0 0.224745 0 
0.225529 0 0.226312 0 0.227095 0 0.227878 0 0.228661 
0 0.229444 0 0.230227 0 0.23101 0 0.231793 0 
0.232576 0 0.233359 0 0.234143 0 0.234926 0 0.235709 
0 0.236492 0 0.237275 0 0.238058 0 0.238841 0 
0.239624 0 0.240407 0 0.24119 0 0.241973 0 0.242756 
0 0.24354 0 0.244323 0 0.245106 0 0.245889 0 
0.246672 0 0.247455 0 0.248238 0 0.249021 0 0.249804 
0 0.250587 0 0.25137 0 0.252153 0 0.252937 0 
0.25372 0 0.254503 0 0.255286 0 0.256069 0 0.256852 
0 0.257635 0 0.258418 0 0.259201 0 0.259984 0 
0.260767 0 0.261551 0 0.262334 0 0.263117 0 0.2639 
0 0.264683 0 0.265466 0 0.266249 0 0.267032 0 
0.267815 0 0.268598 0 0.269381 0 0.270164 0 0.270948 
0 0.271731 0 0.272514 0 0.273297 0 0.27408 0 
0.274863 0 0.275646 0 0.276429 0 0.277212 0 0.277995 
0 0.278778 0 0.279561 0 0.280345 0 0.281128 0 
0.281911 0 0.282694 0 0.283477 0 0.28426 0 0.285043 
0 0.285826 0 0.286609 0 0.287392 0 0.288175 0 
0.288958 0 0.289742 0 0.290525 0 0.291308 0 0.292091 
0 0.292874 0 0.293657 0 0.29444 0 0.295223 0 
0.296006 0 0.296789 0 0.297572 0 0.298356 0 0.299139 
0 0.299922 0 0.300705 0 0.301488 0 0.302271 0 
0.303054 0 0.303837 0 0.30462 0 0.305403 0 0.306186 
0 0.306969 0 0.307753 0 0.308536 0 0.309319 0 
0.310102 0 0.310885 0 0.311668 0 0.312451 0 0.313234 
0 0.314017 0 0.3148 0 0.315583 0 0.316366 0 
0.31715 0 0.317933 0 0.318716 0 0.319499 0 0.320282 
0 0.321065 0 0.321848 0 0.322631 0 0.323414 0 
0.324197 0 0.32498 0 0.325763 0 0.326547 0 0.32733 
0 0.328113 0 0.328896 0 0.329679 0 0.330462 0 
0.331245 0 0.332028 0 0.332811 0 0.333594 0 0.334377 
0 0.335161 0 0.335944 0 0.336727 0 0.33751 0 
0.338293 0 0.339076 0 0.339859 0 0.340642 0 0.341425 
0 0.342208 0 0.342991 0 0.343774 0 0.344558 0 
0.345341 0 0.346124 0 0.346907 0 0.34769 0 0.348473 
0 0.349256 0 0.350039 0 0.350822 0 0.351605 0 
0.352388 0 0.353171 0 0.353955 0 0.354738 0 0.355521 
0 0.356304 0 0.357087 0 0.35787 0 0.358653 0 
0.359436 0 0.360219 0 0.361002 0 0.361785 0 0.362569 
0 0.363352 0 0.364135 0 0.364918 0 0.365701 0 
0.366484 0 0.367267 0 0.36805 0 0.368833 0 0.369616 
0 0.370399 0 0.371182 0 0.371966 0 0.372749 0 
0.373532 0 0.374315 0 0.375098 0 0.375881 0 0.376664 
0 0.377447 0 0.37823 0 0.379013 0 0.379796 0 
0.380579 0 0.381363 0 0.382146 0 0.382929 0 0.383712 
0 0.384495 0 0.385278 0 0.386061 0 0.386844 0 
0.387627 0 0.38841 0 0.389193 0 0.389977 0 0.39076 
0 0.391543 0 0.392326 0 0.393109 0 0.393892 0 
0.394675 0 0.395458 0 0.396241 0 0.397024 0 0.397807 
0 0.39859 0 0.399374 0 0.400157 0 0.40094 0 
0.401723 0 0.402506 0 0.403289 0 0.404072 0 0.404855 
0 0.405638 0 0.406421 0 0.407204 0 0.407987 0 
0.408771 0 0.409554 0 0.410337 0 0.41112 0 0.411903 
0 0.412686 0 0.413469 0 0.414252 0 0.415035 0 
0.415818 0 0.416601 0 0.417385 0 0.418168 0 0.418951 
0 0.419734 0 0.420517 0 0.4213 0 0.422083 0 
0.422866 0 0.423649 0 0.424432 0 0.425215 0 0.425998 
0 0.426782 0 0.427565 0 0.428348 0 0.429131 0 
0.429914 0 0.430697 0 0.43148 0 0.432263 0 0.433046 
0 0.433829 0 0.434612 0 0.435395 0 0.436179 0 
0.436962 0 0.437745 0 0.438528 0 0.439311 0 0.440094 
0 0.440877 0 0.44166 0 0.442443 0 0.443226 0 
0.444009 0 0.444792 0 0.445576 0 0.446359 0 0.447142 
0 0.447925 0 0.448708 0 0.449491 0 0.450274 0 
0.451057 0 0.45184 0 0.452623 0 0.453406 0 0.45419 
0 0.454973 0 0.455756 0 0.456539 0 0.457322 0 
0.458105 0 0.458888 0 0.459671 0 0.460454 0 0.461237 
0 0.46202 0 0.462803 0 0.463587 0 0.46437 0 
0.465153 0 0.465936 0 0.466719 0 0.467502 0 0.468285 
0 0.469068 0 0.469851 0 0.470634 0 0.471417 0 
0.4722 0 0.472984 0 0.473767 0 0.47455 0 0.475333 
0 0.476116 0 0.476899 0 0.477682 0 0.478465 0 
0.479248 0 0.480031 0 0.480814 0 0.481597 0 0.482381 
0 0.483164 0 0.483947 0 0.48473 0 0.485513 0 
0.486296 0 0.487079 0 0.487862 0 0.488645 0 0.489428 
0 0.490211 0 0.490995 0 0.491778 0 0.492561 0 
0.493344 0 0.494127 0 0.49491 0 0.495693 0 0.496476 
0 0.497259 0 0.498042 0 0.498825 0 0.499608 0 
0.500392 0 0.501175 0 0.501958 0 0.502741 0 0.503524 
0 0.504307 0 0.50509 0 0.505873 0 0.506656 0 
0.507439 0 0.508222 0 0.509005 0 0.509789 0 0.510572 
0 0.511355 0 0.512138 0 0.512921 0 0.513704 0 
0.514487 0 0.51527 0 0.516053 0 0.516836 0 0.517619 
0 0.518403 0 0.519186 0 0.519969 0 0.520752 0 
0.521535 0 0.522318 0 0.523101 0 0.523884 0 0.524667 
0 0.52545 0 0.526233 0 0.527016 0 0.5278 0 
0.528583 0 0.529366 0 0.530149 0 0.530932 0 0.531715 
0 0.532498 0 0.533281 0 0.534064 0 0.534847 0 
0.53563 0 0.536413 0 0.537197 0 0.53798 0 0.538763 
0 0.539546 0 0.540329 0 0.541112 0 0.541895 0 
0.542678 0 0.543461 0 0.544244 0 0.545027 0 0.545811 
0 0.546594 0 0.547377 0 0.54816 0 0.548943 0 
0.549726 0 0.550509 0 0.551292 0 0.552075 0 0.552858 
0 0.553641 0 0.554424 0 0.555207 0 0.555991 0 
0.556774 0 0.557557 0 0.55834 0 0.559123 0 0.559906 
0 0.560689 0 0.561472 0 0.562255 0 0.563038 0 
0.563821 0 0.564605 0 0.565388 0 0.566171 0 0.566954 
0 0.567737 0 0.56852 0 0.569303 0 0.570086 0 
0.570869 0 0.571652 0 0.572435 0 0.573218 0 0.574002 
0 0.574785 0 0.575568 0 0.576351 0 0.577134 0 
0.577917 0 0.5787 0 0.579483 0 0.580266 0 0.581049 
0 0.581832 0 0.582615 0 0.583399 0 0.584182 0 
0.584965 0 0.585748 0 0.586531 0 0.587314 0 0.588097 
0 0.58888 0 0.589663 0 0.590446 0 0.591229 0 
0.592013 0 0.592796 0 0.593579 0 0.594362 0 0.595145 
0 0.595928 0 0.596711 0 0.597494 0 0.598277 0 
0.59906 0 0.599843 0 0.600626 0 0.60141 0 0.602193 
0 0.602976 0 0.603759 0 0.604542 0 0.605325 0 
0.606108 0 0.606891 0 0.607674 0 0.608457 0 0.60924 
0 0.610023 0 0.610807 0 0.61159 0 0.612373 0 
0.613156 0 0.613939 0 0.614722 0 0.615505 0 0.616288 
0 0.617071 0 0.617854 0 0.618637 0 0.619421 0 
0.620204 0 0.620987 0 0.62177 0 0.622553 0 0.623336 
0 0.624119 0 0.624902 0 0.625685 0 0.626468 0 
0.627251 0 0.628034 0 0.628818 0 0.629601 0 0.630384 
0 0.631167 0 0.63195 0 0.632733 0 0.633516 0 
0.634299 0 0.635082 0 0.635865 0 0.636648 0 0.637432 
0 0.638215 0 0.638998 0 0.639781 0 0.640564 0 
0.641347 0 0.64213 0 0.642913 0 0.643696 0 0.644479 
0 0.645262 0 0.646045 0 0.646829 0 0.647612 0 
0.648395 0 0.649178 0 0.649961 0 0.650744 0 0.651527 
0 0.65231 0 0.653093 0 0.653876 0 0.654659 0 
0.655442 0 0.656226 0 0.657009 0 0.657792 0 0.658575 
0 0.659358 0 0.660141 0 0.660924 0 0.661707 0 
0.66249 0 0.663273 0 0.664056 0 0.664839 0 0.665623 
0 0.666406 0 0.667189 0 0.667972 0 0.668755 0 
0.669538 0 0.670321 0 0.671104 0 0.671887 0 0.67267 
0 0.673453 0 0.674236 0 0.67502 0 0.675803 0 