# vtk DataFile Version 4.2
vtk output
ASCII
DATASET POLYDATA
POINTS 1280 float
0 0 0 -0.00419454 0.00103546 0.0017902 -0.0163818 0.00404265 0.0069884 
-0.0359672 0.00887277 0.015336 -0.0623561 0.015377 0.0265743 -0.094954 0.0234066 0.0404447 
-0.133166 0.0328127 0.0566887 -0.176399 0.0434465 0.0750476 -0.224056 0.0551592 0.0952627 
-0.275544 0.0678021 0.117076 -0.330269 0.0812262 0.140227 -0.387635 0.0952829 0.16446 
-0.447048 0.109823 0.189514 -0.507914 0.124699 0.215131 -0.569637 0.13976 0.241053 
-0.631624 0.154859 0.267021 -0.693279 0.169846 0.292776 -0.754009 0.184573 0.318059 
-0.813221 0.198892 0.342614 -0.870559 0.21271 0.366281 -0.92609 0.226038 0.389077 
-0.979925 0.238897 0.411036 -1.03217 0.251305 0.432195 -1.08295 0.263284 0.452589 
-1.13236 0.274855 0.472252 -1.18052 0.286036 0.49122 -1.22754 0.29685 0.509528 
-1.27353 0.307315 0.527212 -1.3186 0.317453 0.544307 -1.36285 0.327284 0.560847 
-1.40641 0.336828 0.576869 -1.44939 0.346105 0.592407 -1.49189 0.355136 0.607497 
-1.53402 0.363941 0.622174 -1.5759 0.37254 0.636473 -1.61763 0.380955 0.650429 
-1.65933 0.389204 0.664078 -1.70111 0.397309 0.677455 -1.74308 0.405289 0.690595 
-1.78535 0.413166 0.703533 -1.82804 0.42096 0.716305 -1.87124 0.42869 0.728946 
-1.91507 0.436377 0.741491 -1.95961 0.444033 0.753962 -2.00481 0.451649 0.766355 
-2.05064 0.459217 0.77866 -2.09704 0.466725 0.790868 -2.14399 0.474163 0.80297 
-2.19142 0.481522 0.814959 -2.23931 0.48879 0.826823 -2.2876 0.495959 0.838556 
-2.33625 0.503016 0.850147 -2.38522 0.509954 0.861588 -2.43447 0.51676 0.87287 
-2.48394 0.523425 0.883984 -2.53361 0.529939 0.894922 -2.58341 0.536292 0.905673 
-2.63332 0.542473 0.91623 -2.68328 0.548473 0.926583 -2.73325 0.55428 0.936724 
-2.78319 0.559886 0.946643 -2.83305 0.565279 0.956332 -2.88282 0.57045 0.965783 
-2.9325 0.575392 0.974989 -2.9821 0.580097 0.983943 -3.03164 0.584557 0.992639 
-3.08111 0.588764 1.00107 -3.13053 0.59271 1.00923 -3.17991 0.596389 1.01711 
-3.22927 0.599791 1.02471 -3.2786 0.602909 1.03202 -3.32792 0.605736 1.03903 
-3.37725 0.608263 1.04573 -3.42658 0.610483 1.05213 -3.47593 0.612388 1.05821 
-3.52531 0.613971 1.06396 -3.57473 0.615222 1.06938 -3.6242 0.616136 1.07447 
-3.67373 0.616703 1.07921 -3.72333 0.616917 1.08361 -3.773 0.616768 1.08764 
-3.82277 0.616251 1.09132 -3.87263 0.615354 1.09462 -3.92257 0.614058 1.09756 
-3.97258 0.612339 1.10012 -4.02264 0.610172 1.10232 -4.07273 0.607533 1.10415 
-4.12284 0.604399 1.10562 -4.17294 0.600745 1.10673 -4.22302 0.596548 1.10747 
-4.27307 0.591782 1.10785 -4.32306 0.586425 1.10787 -4.37298 0.580452 1.10754 
-4.4228 0.573839 1.10684 -4.47252 0.566562 1.10579 -4.52212 0.558596 1.10438 
-4.57157 0.549919 1.10262 -4.62086 0.540505 1.10051 -4.66998 0.530331 1.09805 
-4.7189 0.519372 1.09523 -4.76761 0.507605 1.09207 -4.81609 0.495005 1.08856 
-4.86433 0.481549 1.0847 -4.9123 0.467225 1.0805 -4.95999 0.452038 1.07598 
-5.00739 0.435995 1.07115 -5.05448 0.419104 1.06603 -5.10124 0.401372 1.06063 
-5.14765 0.382805 1.05497 -5.19371 0.363411 1.04907 -5.2394 0.343197 1.04295 
-5.2847 0.32217 1.03661 -5.32959 0.300338 1.03008 -5.37407 0.277706 1.02337 
-5.4181 0.254284 1.01649 -5.46169 0.230076 1.00947 -5.5048 0.205092 1.00232 
-5.54744 0.179337 0.995062 -5.58957 0.152819 0.987702 -5.63119 0.125545 0.980261 
-5.67228 0.0975221 0.972755 -5.71282 0.0687575 0.9652 -5.7528 0.0392583 0.957612 
-5.79221 0.00903485 0.950007 -5.83105 -0.021895 0.942402 -5.86932 -0.0535125 0.934814 
-5.90704 -0.0857987 0.927258 -5.94419 -0.118735 0.919751 -5.9808 -0.152302 0.912309 
-6.01686 -0.186482 0.904949 -6.05237 -0.221256 0.897687 -6.08734 -0.256604 0.89054 
-6.12178 -0.292508 0.883523 -6.15569 -0.328949 0.876653 -6.18907 -0.365909 0.869947 
-6.22193 -0.403368 0.863421 -6.25427 -0.441308 0.857091 -6.28609 -0.47971 0.850974 
-6.31741 -0.518555 0.845085 -6.34823 -0.557824 0.839442 -6.37854 -0.597499 0.834061 
-6.40835 -0.637561 0.828957 -6.43767 -0.67799 0.824149 -6.46651 -0.718769 0.819649 
-6.49487 -0.759881 0.815463 -6.52278 -0.801313 0.811589 -6.55025 -0.843048 0.808025 
-6.57729 -0.885072 0.804769 -6.60393 -0.927371 0.80182 -6.63019 -0.96993 0.799175 
-6.65607 -1.01273 0.796834 -6.68161 -1.05577 0.794795 -6.70681 -1.09902 0.793056 
-6.73169 -1.14247 0.791615 -6.75627 -1.18611 0.79047 -6.78057 -1.22992 0.78962 
-6.8046 -1.27388 0.789064 -6.82839 -1.31799 0.788799 -6.85195 -1.36223 0.788823 
-6.87529 -1.40658 0.789136 -6.89844 -1.45103 0.789735 -6.92141 -1.49556 0.790619 
-6.94422 -1.54016 0.791786 -6.96688 -1.58481 0.793235 -6.98942 -1.62951 0.794962 
-7.01183 -1.67425 0.796966 -7.03413 -1.71902 0.799243 -7.05632 -1.76383 0.801791 
-7.07841 -1.80866 0.804607 -7.10041 -1.85351 0.807688 -7.12232 -1.89838 0.81103 
-7.14417 -1.94326 0.814632 -7.16594 -1.98815 0.818491 -7.18765 -2.03305 0.822602 
-7.20931 -2.07794 0.826965 -7.23092 -2.12283 0.831576 -7.2525 -2.16771 0.836431 
-7.27405 -2.21257 0.841529 -7.29558 -2.25742 0.846866 -7.31709 -2.30225 0.85244 
-7.3386 -2.34704 0.858247 -7.36011 -2.39181 0.864285 -7.38163 -2.43654 0.870552 
-7.40316 -2.48123 0.877043 -7.42473 -2.52587 0.883756 -7.44631 -2.57047 0.890687 
-7.46794 -2.61502 0.897831 -7.48959 -2.65952 0.905184 -7.51128 -2.70396 0.912741 
-7.53302 -2.74836 0.920498 -7.5548 -2.7927 0.928451 -7.57662 -2.83698 0.936594 
-7.5985 -2.8812 0.944924 -7.62043 -2.92536 0.953436 -7.64242 -2.96946 0.962127 
-7.66447 -3.0135 0.97099 -7.68659 -3.05747 0.980022 -7.70877 -3.10137 0.989219 
-7.73102 -3.1452 0.998576 -7.75335 -3.18897 1.00809 -7.77575 -3.23266 1.01775 
-7.79824 -3.27627 1.02756 -7.82081 -3.31981 1.03751 -7.84346 -3.36327 1.0476 
-7.86621 -3.40665 1.05783 -7.88905 -3.44995 1.06818 -7.91199 -3.49316 1.07866 
-7.93502 -3.5363 1.08925 -7.95815 -3.57935 1.09996 -7.98138 -3.62233 1.11078 
-8.00472 -3.66521 1.12171 -8.02816 -3.70802 1.13274 -8.05171 -3.75074 1.14386 
-8.07537 -3.79337 1.15507 -8.09914 -3.83592 1.16637 -8.12303 -3.87838 1.17776 
-8.14703 -3.92076 1.18922 -8.17115 -3.96305 1.20075 -8.1954 -4.00525 1.21235 
-8.21976 -4.04736 1.22401 -8.24425 -4.08938 1.23574 -8.26887 -4.13132 1.24751 
-8.29361 -4.17316 1.25934 -8.31849 -4.21491 1.27121 -8.3435 -4.25658 1.28312 
-8.36864 -4.29815 1.29506 -8.39392 -4.33963 1.30704 -8.41934 -4.38102 1.31903 
-8.44489 -4.42232 1.33105 -8.47057 -4.46354 1.34309 -8.4964 -4.50466 1.35513 
-8.52236 -4.5457 1.36717 -8.54846 -4.58665 1.37922 -8.5747 -4.62751 1.39126 
-8.60107 -4.66829 1.40329 -8.62759 -4.70898 1.4153 -8.65425 -4.74959 1.42729 
-8.68104 -4.79011 1.43925 -8.70798 -4.83055 1.45119 -8.73506 -4.87091 1.46308 
-8.76228 -4.91118 1.47494 -8.78964 -4.95137 1.48674 -8.81715 -4.99148 1.4985 
-8.8448 -5.03151 1.5102 -8.87259 -5.07146 1.52183 -8.90053 -5.11132 1.5334 
-8.92861 -5.15111 1.54489 -8.95684 -5.19082 1.55631 -8.98521 -5.23045 1.56764 
-9.01372 -5.27 1.57889 -9.04238 -5.30947 1.59004 -9.07118 -5.34887 1.60109 
-9.10013 -5.38819 1.61203 -9.12923 -5.42743 1.62287 -9.15846 -5.46659 1.63359 
-9.18785 -5.50568 1.64419 -9.21738 -5.54469 1.65466 -9.24705 -5.58363 1.665 
-9.27687 -5.6225 1.6752 -9.30683 -5.66128 1.68526 -9.33694 -5.7 1.69518 
-9.3672 -5.73864 1.70493 -9.3976 -5.77721 1.71453 -9.42814 -5.8157 1.72397 
-9.45884 -5.85413 1.73324 -9.48967 -5.89248 1.74233 -9.52066 -5.93076 1.75124 
-9.55178 -5.96896 1.75997 -9.58305 -6.00709 1.76851 -9.61446 -6.04516 1.77685 
-9.64601 -6.08314 1.785 -9.67771 -6.12106 1.79293 -9.70954 -6.1589 1.80066 
-9.74151 -6.19667 1.80817 -9.77361 -6.23436 1.81546 -9.80585 -6.27198 1.82252 
-9.83823 -6.30953 1.82936 -9.87074 -6.34701 1.83595 -9.90339 -6.38441 1.84231 
-9.93616 -6.42173 1.84842 -9.96907 -6.45898 1.85427 -10.0021 -6.49616 1.85987 
-10.0353 -6.53326 1.86521 -10.0686 -6.57029 1.87028 -10.102 -6.60724 1.87508 
-10.1356 -6.64412 1.8796 -10.1692 -6.68092 1.88384 -10.203 -6.71764 1.8878 
-10.2369 -6.75429 1.89146 -10.271 -6.79085 1.89483 -10.3051 -6.82734 1.89789 
-10.3394 -6.86375 1.90066 -10.3738 -6.90007 1.90311 -10.4083 -6.93631 1.90526 
-10.4428 -6.97246 1.90708 -10.4775 -7.00853 1.90858 -10.5123 -7.04451 1.90976 
-10.5472 -7.0804 1.9106 -10.5822 -7.11621 1.91111 -10.6173 -7.15193 1.91128 
-10.6525 -7.18755 1.91111 -10.6877 -7.22308 1.91059 -10.7231 -7.25852 1.90971 
-10.7585 -7.29386 1.90848 -10.794 -7.32911 1.90688 -10.8296 -7.36426 1.90492 
-10.8653 -7.39932 1.90259 -10.901 -7.43428 1.89989 -10.9369 -7.46913 1.89682 
-10.9727 -7.50389 1.89338 -11.0087 -7.53854 1.88957 -11.0447 -7.5731 1.88538 
-11.0807 -7.60755 1.88083 -11.1168 -7.64189 1.8759 -11.153 -7.67614 1.87059 
-11.1892 -7.71027 1.86492 -11.2254 -7.7443 1.85887 -11.2617 -7.77822 1.85244 
-11.298 -7.81203 1.84564 -11.3344 -7.84573 1.83847 -11.3707 -7.87933 1.83091 
-11.4071 -7.91281 1.82298 -11.4435 -7.94618 1.81468 -11.4799 -7.97943 1.80599 
-11.5164 -8.01257 1.79693 -11.5528 -8.0456 1.78749 -11.5892 -8.07851 1.77767 
-11.6257 -8.1113 1.76747 -11.6621 -8.14398 1.7569 -11.6985 -8.17654 1.74596 
-11.735 -8.20898 1.73465 -11.7714 -8.24131 1.72297 -11.8078 -8.27352 1.71092 
-11.8441 -8.30562 1.69851 -11.8805 -8.3376 1.68574 -11.9168 -8.36946 1.67262 
-11.9531 -8.40121 1.65913 -11.9894 -8.43284 1.6453 -12.0256 -8.46435 1.63111 
-12.0618 -8.49575 1.61657 -12.098 -8.52703 1.60169 -12.1341 -8.55819 1.58646 
-12.1702 -8.58924 1.57089 -12.2062 -8.62017 1.55498 -12.2421 -8.65098 1.53873 
-12.2781 -8.68168 1.52215 -12.3139 -8.71225 1.50523 -12.3497 -8.74272 1.48799 
-12.3854 -8.77306 1.47042 -12.4211 -8.8033 1.45252 -12.4567 -8.83342 1.43431 
-12.4922 -8.86343 1.41579 -12.5276 -8.89333 1.39695 -12.563 -8.92313 1.37781 
-12.5983 -8.95281 1.35836 -12.6335 -8.9824 1.33861 -12.6687 -9.01187 1.31857 
-12.7038 -9.04125 1.29823 -12.7387 -9.07052 1.2776 -12.7736 -9.09969 1.25669 
-12.8085 -9.12876 1.2355 -12.8432 -9.15773 1.21403 -12.8778 -9.18661 1.19229 
-12.9123 -9.21539 1.17028 -12.9468 -9.24408 1.148 -12.9811 -9.27268 1.12546 
-13.0154 -9.30118 1.10265 -13.0495 -9.32959 1.0796 -13.0836 -9.35792 1.05629 
-13.1175 -9.38616 1.03273 -13.1514 -9.41431 1.00892 -13.1851 -9.44238 0.98487 
[...]
CELL_DATA 1
FIELD FieldData 2
Length 1 1 double
63.986065458 
Tortuosity 1 1 double
0.80664847745 
POINT_DATA 1280
SCALARS MaximumInscribedSphereRadius float
LOOKUP_TABLE default
1.24 1.24 1.24 1.24 1.24 1.24 1.24 1.24 1.24 
1.24 1.24 1.24 1.24 1.24 1.24 1.24 1.24 1.24 
1.24 1.24 1.24 1.24 1.24 1.24 1.24 1.24 1.24 
1.24 1.24 1.24 1.24 1.24 1.24 1.24 1.24 1.24 
1.24 1.24 1.24 1.24 1.24 1.24 1.24016 1.24092 1.24168 
1.24244 1.2432 1.24396 1.24473 1.24549 1.24625 1.24701 1.24777 1.24853 
1.24929 1.25005 1.25081 1.25158 1.25234 1.2531 1.25386 1.25537 1.25809 
1.26082 1.26354 1.26626 1.26899 1.27171 1.27444 1.27716 1.27989 1.28261 
1.28534 1.28806 1.29078 1.29351 1.29623 1.29896 1.30168 1.30441 1.30713 
1.30985 1.31639 1.32345 1.3305 1.33756 1.34461 1.35167 1.35872 1.36578 
1.37283 1.37989 1.38695 1.394 1.40106 1.40811 1.41517 1.42222 1.42928 
1.43633 1.44339 1.45044 1.45346 1.44891 1.44436 1.43981 1.43527 1.43072 
1.42617 1.42162 1.41708 1.41253 1.40798 1.40343 1.39889 1.39434 1.38979 
1.38525 1.3807 1.37615 1.3716 1.36706 1.36066 1.34678 1.3329 1.31902 
1.30515 1.29127 1.27739 1.26351 1.24963 1.23576 1.22188 1.208 1.19412 
1.18024 1.16637 1.15249 1.13861 1.12473 1.11085 1.09697 1.0831 1.07511 
1.06898 1.06284 1.0567 1.05056 1.04442 1.03829 1.03215 1.02601 1.01987 
1.01373 1.0076 1.00146 0.995319 0.989181 0.983043 0.976905 0.970767 0.964629 
0.958491 0.95505 0.954751 0.954452 0.954153 0.953854 0.953555 0.953256 0.952957 
0.952658 0.952359 0.95206 0.951761 0.951462 0.951163 0.950864 0.950565 0.950266 
0.949967 0.949668 0.949369 0.949886 0.954576 0.959266 0.963956 0.968647 0.973337 
0.978027 0.982717 0.987407 0.992097 0.996788 1.00148 1.00617 1.01086 1.01555 
1.02024 1.02493 1.02962 1.03431 1.039 1.04369 1.05232 1.06149 1.07066 
1.07983 1.089 1.09817 1.10734 1.11651 1.12568 1.13485 1.14402 1.15318 
1.16235 1.17152 1.18069 1.18986 1.19903 1.2082 1.21737 1.22654 1.23317 
1.23806 1.24294 1.24783 1.25272 1.2576 1.26249 1.26738 1.27227 1.27715 
1.28204 1.28693 1.29182 1.2967 1.30159 1.30648 1.31136 1.31625 1.32114 
1.32603 1.32928 1.32886 1.32844 1.32802 1.3276 1.32718 1.32676 1.32633 
1.32591 1.32549 1.32507 1.32465 1.32423 1.32381 1.32339 1.32297 1.32255 
1.32213 1.3217 1.32128 1.32086 1.32043 1.32 1.31957 1.31915 1.31872 
1.31829 1.31786 1.31743 1.317 1.31657 1.31614 1.31571 1.31528 1.31485 
1.31442 1.31399 1.31357 1.31314 1.31271 1.31228 1.31582 1.32087 1.32592 
1.33096 1.33601 1.34106 1.34611 1.35115 1.3562 1.36125 1.3663 1.37134 
1.37639 1.38144 1.38649 1.39153 1.39658 1.40163 1.40668 1.41172 1.41995 
1.43239 1.44483 1.45727 1.46972 1.48216 1.4946 1.50704 1.51948 1.53192 
1.54436 1.5568 1.56925 1.58169 1.59413 1.60657 1.61901 1.63145 1.64389 
1.65633 1.66877 1.68117 1.69357 1.70597 1.71837 1.73077 1.74318 1.75558 
1.76798 1.78038 1.79278 1.80518 1.81758 1.82998 1.84238 1.85478 1.86718 
1.87958 1.89198 1.90438 1.91679 1.92876 1.94065 1.95254 1.96443 1.97632 
1.98821 2.0001 2.01199 2.02388 2.03577 2.04766 2.05955 2.07144 2.08333 
2.09522 2.10711 2.119 2.13089 2.14278 2.15467 2.16632 2.17774 2.18917 
2.2006 2.21202 2.22345 2.23488 2.2463 2.25773 2.26916 2.28058 2.29201 
2.30344 2.31486 2.32629 2.33771 2.34914 2.36057 2.37199 2.38342 2.39187 
2.39111 2.39034 2.38958 2.38881 2.38804 2.38728 2.38651 2.38575 2.38498 
2.38421 2.38345 2.38268 2.38192 2.38115 2.38038 2.37962 2.37885 2.37809 
2.37732 2.37655 2.37215 2.36757 2.36299 2.35841 2.35383 2.34925 2.34468 
2.3401 2.33552 2.33094 2.32636 2.32179 2.31721 2.31263 2.30805 2.30347 
2.29889 2.29432 2.28974 2.28516 2.2798 2.27405 2.26829 2.26254 2.25679 
2.25103 2.24528 2.23953 2.23377 2.22802 2.22227 2.21651 2.21076 2.205 
2.19925 2.1935 2.18774 2.18199 2.17624 2.17048 2.16614 2.16416 2.16218 
2.1602 2.15822 2.15625 2.15427 2.15229 2.15031 2.14833 2.14635 2.14437 
2.14239 2.14041 2.13843 2.13646 2.13448 2.1325 2.13052 2.12854 2.12643 
2.12263 2.11882 2.11502 2.11122 2.10741 2.10361 2.09981 2.096 2.0922 
2.08839 2.08459 2.08079 2.07698 2.07318 2.06937 2.06557 2.06177 2.05796 
2.05416 2.05036 2.04482 2.03871 2.0326 2.02649 2.02038 2.01426 2.00815 
2.00204 1.99593 1.98982 1.98371 1.97759 1.97148 1.96537 1.95926 1.95315 
1.94703 1.94092 1.93481 1.9287 1.92127 1.91222 1.90317 1.89412 1.88506 
1.87601 1.86696 1.85791 1.84886 1.83981 1.83076 1.82171 1.81266 1.8036 
1.79455 1.7855 1.77645 1.7674 1.75835 1.7493 1.74083 1.73656 1.73229 
1.72803 1.72376 1.71949 1.71522 1.71095 1.70669 1.70242 1.69815 1.69388 
1.68961 1.68534 1.68108 1.67681 1.67254 1.66827 1.664 1.65974 1.65547 
1.65229 1.64934 1.64639 1.64344 1.64049 1.63754 1.6346 1.63165 1.6287 
1.62575 1.6228 1.61986 1.61691 1.61396 1.61101 1.60806 1.60511 1.60217 
1.59922 1.59627 1.59348 1.59082 1.58817 1.58552 1.58286 1.58021 1.57756 
1.5749 1.57225 1.5696 1.56694 1.56429 1.56164 1.55899 1.55633 1.55368 
1.55103 1.54837 1.54572 1.54307 1.54005 1.53585 1.53165 1.52746 1.52326 
1.51906 1.51487 1.51067 1.50647 1.50227 1.49808 1.49388 1.48968 1.48549 
1.48129 1.47709 1.4729 1.4687 1.4645 1.4603 1.45611 1.45148 1.44684 
1.44219 1.43754 1.43289 1.42825 1.4236 1.41895 1.4143 1.40966 1.40501 
1.40036 1.39572 1.39107 1.38642 1.38177 1.37713 1.37248 1.36783 1.36318 
1.365 1.37005 1.37511 1.38017 1.38523 1.39028 1.39534 1.4004 1.40546 
1.41051 1.41557 1.42063 1.42569 1.43074 1.4358 1.44086 1.44592 1.45097 
1.45603 1.46109 1.47025 1.48656 1.50287 1.51918 1.53548 1.55179 1.5681 
1.58441 1.60072 1.61703 1.63334 1.64964 1.66595 1.68226 1.69857 1.71488 
1.73119 1.74749 1.7638 1.78011 1.79725 1.82265 1.84806 1.87347 1.89888 
1.92429 1.9497 1.97511 2.00052 2.02593 2.05133 2.07674 2.10215 2.12756 
2.15297 2.17838 2.20379 2.2292 2.25461 2.28001 2.30542 2.3063 2.30188 
2.29746 2.29305 2.28863 2.28421 2.2798 2.27538 2.27096 2.26655 2.26213 
2.25771 2.2533 2.24888 2.24446 2.24004 2.23563 2.23121 2.22679 2.22238 
2.2163 2.20496 2.19362 2.18228 2.17093 2.15959 2.14825 2.13691 2.12557 
2.11423 2.10289 2.09155 2.0802 2.06886 2.05752 2.04618 2.03484 2.0235 
2.01216 2.00081 1.98997 1.98361 1.97725 1.97089 1.96453 1.95817 1.95181 
1.94545 1.93909 1.93273 1.92637 1.92001 1.91365 1.90729 1.90093 1.89457 
1.88821 1.88185 1.87549 1.86913 1.86277 1.86 1.86 1.86 1.86 
1.86 1.86 1.86 1.86 1.86 1.86 1.86 1.86 1.86 
1.86 1.86 1.86 1.86 1.86 1.86 1.86 1.86 1.86 
1.86 1.86 1.86 1.86 1.86 1.86 1.86 1.86 1.86 
1.86 1.86 1.86 1.86 1.86 1.86 1.86 1.86 1.86 
1.86 1.86135 1.8629 1.86444 1.86599 1.86754 1.86909 1.87064 1.87219 
1.87373 1.87528 1.87683 1.87838 1.87993 1.88148 1.88302 1.88457 1.88612 
1.88767 1.88922 1.89077 1.89431 1.89911 1.90391 1.90871 1.9135 1.9183 
1.9231 1.92789 1.93269 1.93749 1.94228 1.94708 1.95188 1.95667 1.96147 
1.96627 1.97106 1.97586 1.98066 1.98546 1.99062 1.99653 2.00244 2.00835 
2.01427 2.02018 2.02609 2.03201 2.03792 2.04383 2.04974 2.05566 2.06157 
2.06748 2.0734 2.07931 2.08522 2.09113 2.09705 2.10296 2.10874 2.11148 
2.11421 2.11695 2.11968 2.12242 2.12516 2.12789 2.13063 2.13336 2.1361 
2.13883 2.14157 2.1443 2.14704 2.14978 2.15251 2.15525 2.15798 2.16072 
2.16345 2.16424 2.1644 2.16457 2.16474 2.16491 2.16507 2.16524 2.16541 
2.16557 2.16574 2.16591 2.16608 2.16624 2.16641 2.16658 2.16674 2.16691 
2.16708 2.16725 2.16741 2.16721 2.16661 2.16601 2.16541 2.16481 2.1642 
2.1636 2.163 2.1624 2.1618 2.16119 2.16059 2.15999 2.15939 2.15879 
2.15818 2.15758 2.15698 2.15638 2.15578 2.15426 2.14889 2.14352 2.13815 
2.13278 2.12741 2.12204 2.11667 2.1113 2.10593 2.10055 2.09518 2.08981 
2.08444 2.07907 2.0737 2.06833 2.06296 2.05759 2.05222 2.04685 2.04243 
2.03813 2.03382 2.02951 2.0252 2.02089 2.01659 2.01228 2.00797 2.00366 
1.99935 1.99505 1.99074 1.98643 1.98212 1.97781 1.97351 1.9692 1.96489 
1.96058 1.95818 1.95699 1.9558 1.95461 1.95342 1.95223 1.95104 1.94985 
1.94866 1.94748 1.94629 1.9451 1.94391 1.94272 1.94153 1.94034 1.93915 
1.93796 1.93677 1.93558 1.93683 1.94327 1.94972 1.95616 1.9626 1.96904 
1.97548 1.98193 1.98837 1.99481 2.00125 2.00769 2.01414 2.02058 2.02702 
2.03346 2.03991 2.04635 2.05279 2.05923 2.0656 2.06916 2.07272 2.07628 
2.07985 2.08341 2.08697 2.09053 2.09409 2.09765 2.10121 2.10477 2.10833 
2.1119 2.11546 2.11902 2.12258 2.12614 2.1297 2.13326 2.13682 2.13894 
2.14052 2.14211 2.1437 2.14529 2.14688 2.14847 2.15006 2.15164 2.15323 
2.15482 2.15641 2.158 2.15959 2.16117 2.16276 2.16435 2.16594 2.16753 
2.16912 2.17 2.17 2.17 2.17 2.17 2.17 2.17 2.17 
2.17 2.17 2.17 2.17 2.17 2.17 2.17 2.17 2.17 
2.17 2.17 2.17 2.17 2.17 2.17 2.17 2.17 2.17 
2.17 2.17 2.17 2.17 2.17 2.17 2.17 2.17 2.17 
2.17 2.17 2.17 2.17 2.17 2.17 2.17 2.17 2.17 
2.17 2.17 2.17 2.17 2.17 2.17 2.17 2.17 2.17 
2.17 2.17 2.17 2.17 2.17 2.17 2.17 2.17 2.17 
2.17 2.17 2.17 2.17 2.17 2.17 2.17 2.17 2.17 
2.17 2.17 2.17 2.17 2.17 2.17 2.17 2.17 2.17 
2.17 2.17 2.17 2.17 2.17 2.17 2.17 2.17 2.17 
2.17 2.17 2.17 2.17 2.17 2.17 2.17 2.17 2.17 
2.17 2.17 2.17 2.17 2.17 2.17 2.17 2.17 2.17 
2.17 2.17 2.17 2.17 2.17 2.17 2.17 2.17 2.17 
2.17 2.17 2.17 2.17 2.17 2.17 2.17153 2.17369 2.17585 
2.178 2.18016 2.18232 2.18448 2.18664 2.1888 2.19095 2.19311 2.19527 
2.19743 2.19959 2.20175 2.2039 2.20606 2.20822 2.21038 2.21254 2.2159 
2.22045 2.22501 2.22956 2.23411 2.23867 2.24322 2.24777 2.25233 2.25688 
2.26143 2.26598 2.27054 2.27509 2.27964 2.2842 2.28875 2.2933 2.29786 
2.30241 2.3071 2.31284 2.31859 2.32433 2.33008 2.33582 2.34157 2.34731 
2.35306 2.3588 2.36454 2.37029 2.37603 2.38178 2.38752 2.39327 2.39901 
2.40476 2.4105 2.41625 2.42199 2.42307 2.42137 2.41968 2.41798 2.41629 
2.4146 2.4129 2.41121 2.40951 2.40782 2.40612 2.40443 2.40274 2.40104 
2.39935 2.39765 2.39596 2.39426 2.39257 2.38902 2.38492 2.38082 2.37671 
2.37261 2.36851 2.3644 2.3603 2.3562 2.35209 2.34799 2.34389 2.33979 
2.33568 2.33158 2.32748 2.32337 2.31927 2.31517 2.31106 2.30696 2.30286 
2.29875 2.29465 2.28843 2.28147 2.2745 2.26753 2.26057 2.2536 2.24663 
2.23967 2.2327 2.22573 2.21877 2.2118 2.20483 2.19787 2.1909 2.18393 
2.17697 2.17 
TEXTURE_COORDINATES TCoords 2 float
0 0 0.000781861 0 0.00156372 0 0.00234558 0 0.00312744 
0 0.0039093 0 0.00469116 0 0.00547303 0 0.00625489 0 
0.00703675 0 0.00781861 0 0.00860047 0 0.00938233 0 0.0101642 
0 0.0109461 0 0.0117279 0 0.0125098 0 0.0132916 0 
0.0140735 0 0.0148554 0 0.0156372 0 0.0164191 0 0.0172009 
0 0.0179828 0 0.0187647 0 0.0195465 0 0.0203284 0 
0.0211102 0 0.0218921 0 0.022674 0 0.0234558 0 0.0242377 
0 0.0250195 0 0.0258014 0 0.0265833 0 0.0273651 0 
0.028147 0 0.0289288 0 0.0297107 0 0.0304926 0 0.0312744 
0 0.0320563 0 0.0328382 0 0.03362 0 0.0344019 0 
0.0351837 0 0.0359656 0 0.0367475 0 0.0375293 0 0.0383112 
0 0.039093 0 0.0398749 0 0.0406568 0 0.0414386 0 
0.0422205 0 0.0430023 0 0.0437842 0 0.0445661 0 0.0453479 
0 0.0461298 0 0.0469116 0 0.0476935 0 0.0484754 0 
0.0492572 0 0.0500391 0 0.050821 0 0.0516028 0 0.0523847 
0 0.0531665 0 0.0539484 0 0.0547303 0 0.0555121 0 
0.056294 0 0.0570758 0 0.0578577 0 0.0586396 0 0.0594214 
0 0.0602033 0 0.0609851 0 0.061767 0 0.0625489 0 
0.0633307 0 0.0641126 0 0.0648944 0 0.0656763 0 0.0664582 
0 0.06724 0 0.0680219 0 0.0688037 0 0.0695856 0 
0.0703675 0 0.0711493 0 0.0719312 0 0.0727131 0 0.0734949 
0 0.0742768 0 0.0750586 0 0.0758405 0 0.0766224 0 
0.0774042 0 0.0781861 0 0.0789679 0 0.0797498 0 0.0805317 
0 0.0813135 0 0.0820954 0 0.0828772 0 0.0836591 0 
0.084441 0 0.0852228 0 0.0860047 0 0.0867866 0 0.0875684 
0 0.0883503 0 0.0891321 0 0.089914 0 0.0906959 0 
0.0914777 0 0.0922596 0 0.0930414 0 0.0938233 0 0.0946052 
0 0.095387 0 0.0961689 0 0.0969507 0 0.0977326 0 
0.0985145 0 0.0992963 0 0.100078 0 0.10086 0 0.101642 
0 0.102424 0 0.103206 0 0.103987 0 0.104769 0 
0.105551 0 0.106333 0 0.107115 0 0.107897 0 0.108679 
0 0.109461 0 0.110242 0 0.111024 0 0.111806 0 
0.112588 0 0.11337 0 0.114152 0 0.114934 0 0.115715 
0 0.116497 0 0.117279 0 0.118061 0 0.118843 0 
0.119625 0 0.120407 0 0.121188 0 0.12197 0 0.122752 
0 0.123534 0 0.124316 0 0.125098 0 0.12588 0 
0.126661 0 0.127443 0 0.128225 0 0.129007 0 0.129789 
0 0.130571 0 0.131353 0 0.132134 0 0.132916 0 
0.133698 0 0.13448 0 0.135262 0 0.136044 0 0.136826 
0 0.137607 0 0.138389 0 0.139171 0 0.139953 0 
0.140735 0 0.141517 0 0.142299 0 0.143081 0 0.143862 
0 0.144644 0 0.145426 0 0.146208 0 0.14699 0 
0.147772 0 0.148554 0 0.149335 0 0.150117 0 0.150899 
0 0.151681 0 0.152463 0 0.153245 0 0.154027 0 
0.154808 0 0.15559 0 0.156372 0 0.157154 0 0.157936 
0 0.158718 0 0.1595 0 0.160281 0 0.161063 0 
0.161845 0 0.162627 0 0.163409 0 0.164191 0 0.164973 
0 0.165754 0 0.166536 0 0.167318 0 0.1681 0 
0.168882 0 0.169664 0 0.170446 0 0.171228 0 0.172009 
0 0.172791 0 0.173573 0 0.174355 0 0.175137 0 
0.175919 0 0.176701 0 0.177482 0 0.178264 0 0.179046 
0 0.179828 0 0.18061 0 0.181392 0 0.182174 0 
0.182955 0 0.183737 0 0.184519 0 0.185301 0 0.186083 
0 0.186865 0 0.187647 0 0.188428 0 0.18921 0 
0.189992 0 0.190774 0 0.191556 0 0.192338 0 0.19312 
0 0.193901 0 0.194683 0 0.195465 0 0.196247 0 
0.197029 0 0.197811 0 0.198593 0 0.199375 0 0.200156 
0 0.200938 0 0.20172 0 0.202502 0 0.203284 0 
0.204066 0 0.204848 0 0.205629 0 0.206411 0 0.207193 
0 0.207975 0 0.208757 0 0.209539 0 0.210321 0 
0.211102 0 0.211884 0 0.212666 0 0.213448 0 0.21423 
0 0.215012 0 0.215794 0 0.216575 0 0.217357 0 
0.218139 0 0.218921 0 0.219703 0 0.220485 0 0.221267 
0 0.222048 0 0.22283 0 0.223612 0 0.224394 0 
0.225176 0 0.225958 0 0.22674 0 0.227521 0 0.228303 
0 0.229085 0 0.229867 0 0.230649 0 0.231431 0 
0.232213 0 0.232995 0 0.233776 0 0.234558 0 0.23534 
0 0.236122 0 0.236904 0 0.237686 0 0.238468 0 
0.239249 0 0.240031 0 0.240813 0 0.241595 0 0.242377 
0 0.243159 0 0.243941 0 0.244722 0 0.245504 0 
0.246286 0 0.247068 0 0.24785 0 0.248632 0 0.249414 
0 0.250195 0 0.250977 0 0.251759 0 0.252541 0 
0.253323 0 0.254105 0 0.254887 0 0.255668 0 0.25645 
0 0.257232 0 0.258014 0 0.258796 0 0.259578 0 
0.26036 0 0.261142 0 0.261923 0 0.262705 0 0.263487 
0 0.264269 0 0.265051 0 0.265833 0 0.266615 0 
0.267396 0 0.268178 0 0.26896 0 0.269742 0 0.270524 
0 0.271306 0 0.272088 0 0.272869 0 0.273651 0 
0.274433 0 0.275215 0 0.275997 0 0.276779 0 0.277561 
0 0.278342 0 0.279124 0 0.279906 0 0.280688 0 
0.28147 0 0.282252 0 0.283034 0 0.283815 0 0.284597 
0 0.285379 0 0.286161 0 0.286943 0 0.287725 0 
0.288507 0 0.289289 0 0.29007 0 0.290852 0 0.291634 
0 0.292416 0 0.293198 0 0.29398 0 0.294762 0 
0.295543 0 0.296325 0 0.297107 0 0.297889 0 0.298671 
0 0.299453 0 0.300235 0 0.301016 0 0.301798 0 
0.30258 0 0.303362 0 0.304144 0 0.304926 0 0.305708 
0 0.306489 0 0.307271 0 0.308053 0 0.308835 0 
0.309617 0 0.310399 0 0.311181 0 0.311962 0 0.312744 
0 0.313526 0 0.314308 0 0.31509 0 0.315872 0 
0.316654 0 0.317436 0 0.318217 0 0.318999 0 0.319781 
0 0.320563 0 0.321345 0 0.322127 0 0.322909 0 
0.32369 0 0.324472 0 0.325254 0 0.326036 0 0.326818 
0 0.3276 0 0.328382 0 0.329163 0 0.329945 0 
0.330727 0 0.331509 0 0.332291 0 0.333073 0 0.333855 
0 0.334636 0 0.335418 0 0.3362 0 0.336982 0 
0.337764 0 0.338546 0 0.339328 0 0.340109 0 0.340891 
0 0.341673 0 0.342455 0 0.343237 0 0.344019 0 
0.344801 0 0.345582 0 0.346364 0 0.347146 0 0.347928 
0 0.34871 0 0.349492 0 0.350274 0 0.351056 0 
0.351837 0 0.352619 0 0.353401 0 0.354183 0 0.354965 
0 0.355747 0 0.356529 0 0.35731 0 0.358092 0 
0.358874 0 0.359656 0 0.360438 0 0.36122 0 0.362002 
0 0.362783 0 0.363565 0 0.364347 0 0.365129 0 
0.365911 0 0.366693 0 0.367475 0 0.368256 0 0.369038 
0 0.36982 0 0.370602 0 0.371384 0 0.372166 0 
0.372948 0 0.373729 0 0.374511 0 0.375293 0 0.376075 
0 0.376857 0 0.377639 0 0.378421 0 0.379203 0 
0.379984 0 0.380766 0 0.381548 0 0.38233 0 0.383112 
0 0.383894 0 0.384676 0 0.385457 0 0.386239 0 
0.387021 0 0.387803 0 0.388585 0 0.389367 0 0.390149 
0 0.39093 0 0.391712 0 0.392494 0 0.393276 0 
0.394058 0 0.39484 0 0.395622 0 0.396403 0 0.397185 
0 0.397967 0 0.398749 0 0.399531 0 0.400313 0 
0.401095 0 0.401876 0 0.402658 0 0.40344 0 0.404222 
0 0.405004 0 0.405786 0 0.406568 0 0.407349 0 
0.408131 0 0.408913 0 0.409695 0 0.410477 0 0.411259 
0 0.412041 0 0.412823 0 0.413604 0 0.414386 0 
0.415168 0 0.41595 0 0.416732 0 0.417514 0 0.418296 
0 0.419077 0 0.419859 0 0.420641 0 0.421423 0 
0.422205 0 0.422987 0 0.423769 0 0.42455 0 0.425332 
0 0.426114 0 0.426896 0 0.427678 0 0.42846 0 
0.429242 0 0.430023 0 0.430805 0 0.431587 0 0.432369 
0 0.433151 0 0.433933 0 0.434715 0 0.435496 0 
0.436278 0 0.43706 0 0.437842 0 0.438624 0 0.439406 
0 0.440188 0 0.440969 0 0.441751 0 0.442533 0 
0.443315 0 0.444097 0 0.444879 0 0.445661 0 0.446443 
0 0.447224 0 0.448006 0 0.448788 0 0.44957 0 
0.450352 0 0.451134 0 0.451916 0 0.452697 0 0.453479 
0 0.454261 0 0.455043 0 0.455825 0 0.456607 0 
0.457389 0 0.45817 0 0.458952 0 0.459734 0 0.460516 
0 0.461298 0 0.46208 0 0.462862 0 0.463643 0 
0.464425 0 0.465207 0 0.465989 0 0.466771 0 0.467553 
0 0.468335 0 0.469117 0 0.469898 0 0.47068 0 
0.471462 0 0.472244 0 0.473026 0 0.473808 0 0.47459 
0 0.475371 0 0.476153 0 0.476935 0 0.477717 0 
0.478499 0 0.479281 0 0.480063 0 0.480844 0 0.481626 
0 0.482408 0 0.48319 0 0.483972 0 0.484754 0 
0.485536 0 0.486317 0 0.487099 0 0.487881 0 0.488663 
0 0.489445 0 0.490227 0 0.491009 0 0.49179 0 
0.492572 0 0.493354 0 0.494136 0 0.494918 0 0.4957 
0 0.496482 0 0.497263 0 0.498045 0 0.498827 0 
0.499609 0 0.500391 0 0.501173 0 0.501955 0 0.502737 
0 0.503518 0 0.5043 0 0.505082 0 0.505864 0 
0.506646 0 0.507428 0 0.50821 0 0.508991 0 0.509773 
0 0.510555 0 0.511337 0 0.512119 0 0.512901 0 
0.513683 0 0.514464 0 0.515246 0 0.516028 0 0.51681 
0 0.517592 0 0.518374 0 0.519156 0 0.519937 0 
0.520719 0 0.521501 0 0.522283 0 0.523065 0 0.523847 
0 0.524629 0 0.52541 0 0.526192 0 0.526974 0 
0.527756 0 0.528538 0 0.52932 0 0.530102 0 0.530883 
0 0.531665 0 0.532447 0 0.533229 0 0.534011 0 
0.534793 0 0.535575 0 0.536357 0 0.537138 0 0.53792 
0 0.538702 0 0.539484 0 0.540266 0 0.541048 0 
0.54183 0 0.542611 0 0.543393 0 0.544175 0 0.544957 
0 0.545739 0 0.546521 0 0.547303 0 0.548084 0 
0.548866 0 0.549648 0 0.55043 0 0.551212 0 0.551994 
0 0.552776 0 0.553557 0 0.554339 0 0.555121 0 
0.555903 0 0.556685 0 0.557467 0 0.558249 0 0.55903 
0 0.559812 0 0.560594 0 0.561376 0 0.562158 0 
0.56294 0 0.563722 0 0.564503 0 0.565285 0 0.566067 
0 0.566849 0 0.567631 0 0.568413 0 0.569195 0 
0.569977 0 0.570758 0 0.57154 0 0.572322 0 0.573104 
0 0.573886 0 0.574668 0 0.57545 0 0.576231 0 
0.577013 0 0.577795 0 0.578577 0 0.579359 0 0.580141 
0 0.580923 0 0.581704 0 0.582486 0 0.583268 0 
0.58405 0 0.584832 0 0.585614 0 0.586396 0 0.587177 
0 0.587959 0 0.588741 0 0.589523 0 0.590305 0 
0.591087 0 0.591869 0 0.592651 0 0.593432 0 0.594214 
0 0.594996 0 0.595778 0 0.59656 0 0.597342 0 
0.598124 0 0.598905 0 0.599687 0 0.600469 0 0.601251 
0 0.602033 0 0.602815 0 0.603597 0 0.604378 0 
0.60516 0 0.605942 0 0.606724 0 0.607506 0 0.608288 
0 0.60907 0 0.609851 0 0.610633 0 0.611415 0 
0.612197 0 0.612979 0 0.613761 0 0.614543 0 0.615324 
0 0.616106 0 0.616888 0 0.61767 0 0.618452 0 
0.619234 0 0.620016 0 0.620798 0 0.621579 0 0.622361 
0 0.623143 0 0.623925 0 0.624707 0 0.625489 0 
0.626271 0 0.627052 0 0.627834 0 0.628616 0 0.629398 
0 0.63018 0 0.630962 0 0.631744 0 0.632525 0 
0.633307 0 0.634089 0 0.634871 0 0.635653 0 0.636435 
0 0.637217 0 0.637998 0 0.63878 0 0.639562 0 
0.640344 0 0.641126 0 0.641908 0 0.64269 0 0.643471 
0 0.644253 0 0.645035 0 0.645817 0 0.646599 0 
0.647381 0 0.648163 0 0.648944 0 0.649726 0 0.650508 
0 0.65129 0 0.652072 0 0.652854 0 0.653636 0 
0.654418 0 0.655199 0 0.655981 0 0.656763 0 0.657545 
0 0.658327 0 0.659109 0 0.659891 0 0.660672 0 
0.661454 0 0.662236 0 0.663018 0 0.6638 0 0.664582 
0 0.665364 0 0.666145 0 0.666927 0 0.667709 0 
0.668491 0 0.669273 0 0.670055 0 0.670837 0 0.671618 
0 0.6724 0 0.673182 0 0.673964 0 0.674746 0 
0.675528 0 0.67631 0 0.677091 0 0.677873 0 0.678655 
0 0.679437 0 0.680219 0 0.681001 0 0.681783 0 
0.682564 0 0.683346 0 0.684128 0 0.68491 0 0.685692 
0 0.686474 0 0.687256 0 0.688038 0 0.688819 0 
0.689601 0 0.690383 0 0.691165 0 0.691947 0 0.692729 
0 0.693511 0 0.694292 0 0.695074 0 0.695856 0 
0.696638 0 0.69742 0 0.698202 0 0.698984 0 0.699765 