# vtk DataFile Version 4.2
vtk output
ASCII
DATASET POLYDATA
POINTS 1278 float
0 0 0 -0.00394246 -0.000489018 0.00104568 -0.0154421 -0.00189696 0.00409274 
-0.0340074 -0.00413518 0.00900616 -0.0591468 -0.007115 0.015651 -0.0903687 -0.0107478 0.0238922 
-0.127181 -0.0149448 0.0335948 -0.169094 -0.0196175 0.0446238 -0.215614 -0.0246771 0.0568442 
-0.26625 -0.0300351 0.070121 -0.320511 -0.0356027 0.0843193 -0.377905 -0.0412912 0.0993039 
-0.43794 -0.0470121 0.11494 -0.500126 -0.0526766 0.131093 -0.563969 -0.0581962 0.147627 
-0.62898 -0.0634821 0.164407 -0.694666 -0.0684456 0.181299 -0.760536 -0.0729982 0.198167 
-0.826097 -0.0770511 0.214877 -0.89086 -0.0805157 0.231294 -0.954331 -0.0833034 0.247281 
-1.01602 -0.0853255 0.262706 -1.07561 -0.0865287 0.27748 -1.13317 -0.0869431 0.291628 
-1.18885 -0.0866109 0.305193 -1.24279 -0.0855746 0.318217 -1.29513 -0.0838763 0.330742 
-1.34601 -0.0815586 0.34281 -1.39557 -0.0786635 0.354462 -1.44395 -0.0752336 0.365741 
-1.49129 -0.0713111 0.376689 -1.53774 -0.0669382 0.387348 -1.58342 -0.0621575 0.39776 
-1.62849 -0.057011 0.407966 -1.67308 -0.0515412 0.418009 -1.71733 -0.0457904 0.427931 
-1.76139 -0.0398009 0.437774 -1.80539 -0.0336151 0.44758 -1.84948 -0.0272751 0.45739 
-1.89379 -0.0208234 0.467247 -1.93846 -0.0143023 0.477193 -1.98364 -0.00775196 0.487268 
-2.02934 -0.00118481 0.497482 -2.07555 0.00540579 0.507826 -2.12221 0.0120269 0.518291 
-2.16931 0.0186855 0.528867 -2.21679 0.0253888 0.539546 -2.26463 0.0321438 0.550316 
-2.31279 0.0389575 0.561169 -2.36124 0.0458369 0.572096 -2.40993 0.0527893 0.583086 
-2.45883 0.0598215 0.59413 -2.50792 0.0669408 0.605219 -2.55714 0.074154 0.616343 
-2.60647 0.0814683 0.627493 -2.65587 0.0888908 0.638659 -2.70531 0.0964285 0.649832 
-2.75474 0.104088 0.661001 -2.80414 0.111878 0.672159 -2.85347 0.119803 0.683294 
-2.90268 0.127872 0.694398 -2.95176 0.136092 0.705461 -3.00066 0.144465 0.716476 
-3.04941 0.152985 0.727448 -3.098 0.161642 0.738379 -3.14645 0.170426 0.749276 
-3.19476 0.179329 0.760142 -3.24296 0.188341 0.770982 -3.29104 0.197452 0.781802 
-3.33903 0.206654 0.792604 -3.38692 0.215937 0.803395 -3.43474 0.225291 0.814179 
-3.48248 0.234708 0.82496 -3.53017 0.244177 0.835743 -3.57781 0.25369 0.846532 
-3.62542 0.263237 0.857333 -3.673 0.272809 0.868149 -3.72056 0.282397 0.878986 
-3.76812 0.29199 0.889849 -3.81568 0.301581 0.900741 -3.86326 0.311159 0.911667 
-3.91087 0.320715 0.922632 -3.95851 0.33024 0.933641 -4.00619 0.33973 0.944694 
-4.0539 0.34918 0.955792 -4.10164 0.358587 0.966937 -4.14941 0.367946 0.978128 
-4.19721 0.377253 0.989367 -4.24504 0.386505 1.00065 -4.29289 0.395698 1.01199 
-4.34076 0.404827 1.02337 -4.38865 0.41389 1.03481 -4.43656 0.422881 1.04629 
-4.48449 0.431797 1.05783 -4.53242 0.440635 1.06942 -4.58037 0.449389 1.08106 
-4.62833 0.458057 1.09275 -4.67629 0.466633 1.1045 -4.72426 0.475116 1.1163 
-4.77223 0.483499 1.12816 -4.8202 0.49178 1.14008 -4.86817 0.499955 1.15205 
-4.91613 0.508018 1.16407 -4.96409 0.515965 1.17616 -5.01205 0.523786 1.18831 
-5.06 0.531473 1.20052 -5.10796 0.539016 1.2128 -5.15591 0.546407 1.22514 
-5.20385 0.553638 1.23755 -5.2518 0.5607 1.25004 -5.29975 0.567585 1.2626 
-5.3477 0.574283 1.27523 -5.39565 0.580785 1.28795 -5.4436 0.587085 1.30074 
-5.49156 0.593171 1.31362 -5.53951 0.599037 1.32658 -5.58748 0.604673 1.33963 
-5.63544 0.610071 1.35277 -5.68341 0.615222 1.366 -5.73139 0.620117 1.37932 
-5.77937 0.624748 1.39274 -5.82736 0.629106 1.40626 -5.87536 0.633183 1.41987 
-5.92336 0.636967 1.43359 -5.97137 0.640446 1.44741 -6.01938 0.643605 1.46134 
-6.06738 0.64643 1.47537 -6.11537 0.648907 1.48951 -6.16335 0.651024 1.50375 
-6.21131 0.652765 1.5181 -6.25925 0.654117 1.53256 -6.30717 0.655065 1.54712 
-6.35506 0.655597 1.5618 -6.40292 0.655698 1.57659 -6.45074 0.655354 1.59149 
-6.49852 0.654551 1.60651 -6.54626 0.653276 1.62164 -6.59395 0.651515 1.63688 
-6.64159 0.649253 1.65224 -6.68918 0.646477 1.66772 -6.73671 0.643172 1.68331 
-6.78417 0.639326 1.69903 -6.83157 0.634924 1.71486 -6.87889 0.629953 1.73081 
-6.92614 0.624403 1.74688 -6.97329 0.618266 1.76305 -7.02033 0.611532 1.77933 
-7.06725 0.604192 1.79571 -7.11404 0.596238 1.81218 -7.1607 0.58766 1.82874 
-7.20719 0.57845 1.84538 -7.25352 0.568598 1.86209 -7.29968 0.558095 1.87887 
-7.34564 0.546932 1.89572 -7.39141 0.535101 1.91263 -7.43696 0.522592 1.92959 
-7.48228 0.509396 1.9466 -7.52737 0.495504 1.96365 -7.57221 0.480908 1.98073 
-7.61678 0.465597 1.99785 -7.66109 0.449564 2.01499 -7.70511 0.432799 2.03216 
-7.74884 0.415293 2.04933 -7.79225 0.397039 2.06652 -7.83536 0.378044 2.08371 
-7.87814 0.35832 2.10088 -7.92061 0.337881 2.11805 -7.96276 0.316739 2.13519 
-8.00458 0.294908 2.15229 -8.04607 0.2724 2.16935 -8.08723 0.249229 2.18637 
-8.12805 0.225407 2.20332 -8.16854 0.200947 2.22021 -8.20868 0.175864 2.23702 
-8.24849 0.150168 2.25375 -8.28794 0.123874 2.27039 -8.32704 0.0969941 2.28693 
-8.36579 0.0695416 2.30335 -8.40418 0.0415295 2.31966 -8.44221 0.0129707 2.33585 
-8.47988 -0.0161218 2.3519 -8.51718 -0.045735 2.3678 -8.55411 -0.075856 2.38356 
-8.59067 -0.106472 2.39915 -8.62686 -0.137569 2.41458 -8.66269 -0.169133 2.42984 
-8.69817 -0.20115 2.44493 -8.73331 -0.233607 2.45985 -8.76812 -0.266489 2.47458 
-8.8026 -0.299783 2.48914 -8.83678 -0.333474 2.50351 -8.87066 -0.367548 2.5177 
-8.90424 -0.401992 2.53169 -8.93754 -0.436791 2.54549 -8.97056 -0.471932 2.55909 
-9.00333 -0.5074 2.5725 -9.03584 -0.543182 2.5857 -9.0681 -0.579263 2.5987 
-9.10013 -0.61563 2.61148 -9.13193 -0.652269 2.62406 -9.16352 -0.689165 2.63642 
-9.1949 -0.726305 2.64856 -9.22608 -0.763674 2.66048 -9.25708 -0.80126 2.67217 
-9.2879 -0.839049 2.68364 -9.31855 -0.877036 2.69488 -9.34903 -0.915213 2.70588 
-9.37936 -0.953575 2.71665 -9.40953 -0.992114 2.72719 -9.43957 -1.03083 2.73749 
-9.46946 -1.0697 2.74755 -9.49922 -1.10873 2.75737 -9.52887 -1.14792 2.76694 
-9.55839 -1.18725 2.77627 -9.58781 -1.22672 2.78535 -9.61712 -1.26632 2.79418 
-9.64634 -1.30605 2.80276 -9.67546 -1.3459 2.81108 -9.70451 -1.38586 2.81915 
-9.73348 -1.42593 2.82695 -9.76238 -1.46609 2.8345 -9.79123 -1.50636 2.84179 
-9.82001 -1.5467 2.84881 -9.84875 -1.58713 2.85557 -9.87745 -1.62763 2.86205 
-9.90611 -1.66821 2.86827 -9.93474 -1.70884 2.87421 -9.96334 -1.74954 2.87987 
-9.99191 -1.7903 2.88525 -10.0205 -1.83111 2.89035 -10.049 -1.87197 2.89516 
-10.0775 -1.91287 2.89968 -10.106 -1.95381 2.9039 -10.1345 -1.99479 2.90783 
-10.1629 -2.0358 2.91147 -10.1914 -2.07684 2.9148 -10.2199 -2.1179 2.91782 
-10.2484 -2.15898 2.92054 -10.2769 -2.20008 2.92294 -10.3054 -2.24118 2.92503 
-10.3339 -2.28229 2.9268 -10.3624 -2.32341 2.92825 -10.391 -2.36452 2.92938 
-10.4195 -2.40563 2.93018 -10.4482 -2.44672 2.93065 -10.4768 -2.48781 2.93079 
-10.5054 -2.52887 2.93059 -10.5341 -2.56991 2.93005 -10.5629 -2.61093 2.92916 
-10.5916 -2.65192 2.92793 -10.6204 -2.69288 2.92635 -10.6492 -2.7338 2.92441 
-10.678 -2.77469 2.92212 -10.7069 -2.81553 2.91946 -10.7358 -2.85633 2.91643 
-10.7647 -2.89708 2.91304 -10.7936 -2.93777 2.90928 -10.8226 -2.97841 2.90513 
-10.8516 -3.01899 2.90061 -10.8806 -3.05951 2.89571 -10.9096 -3.09996 2.89042 
-10.9387 -3.14034 2.88473 -10.9678 -3.18065 2.87866 -10.9969 -3.22088 2.87218 
-11.026 -3.26104 2.86531 -11.0552 -3.3011 2.85803 -11.0844 -3.34108 2.85034 
-11.1136 -3.38098 2.84224 -11.1428 -3.42078 2.83373 -11.172 -3.46048 2.8248 
-11.2013 -3.50009 2.81545 -11.2305 -3.53959 2.80569 -11.2597 -3.57899 2.79549 
-11.2889 -3.61828 2.78487 -11.3181 -3.65747 2.77382 -11.3473 -3.69654 2.76234 
-11.3765 -3.73549 2.75042 -11.4056 -3.77433 2.73807 -11.4347 -3.81304 2.72527 
-11.4638 -3.85163 2.71202 -11.4928 -3.89009 2.69833 -11.5218 -3.92842 2.68419 
-11.5508 -3.96662 2.6696 -11.5797 -4.00468 2.65455 -11.6085 -4.0426 2.63905 
-11.6373 -4.08038 2.62308 -11.6661 -4.11801 2.60665 -11.6947 -4.1555 2.58975 
-11.7233 -4.19284 2.57239 -11.7518 -4.23002 2.55457 -11.7802 -4.26705 2.53628 
-11.8085 -4.30392 2.51751 -11.8367 -4.34064 2.49828 -11.8648 -4.37719 2.47858 
-11.8928 -4.41358 2.4584 -11.9206 -4.44979 2.43775 -11.9483 -4.48584 2.41663 
-11.9758 -4.52172 2.39502 -12.0032 -4.55743 2.37294 -12.0304 -4.59295 2.35038 
-12.0575 -4.6283 2.32734 -12.0843 -4.66347 2.30382 -12.111 -4.69845 2.27981 
-12.1375 -4.73324 2.25532 -12.1638 -4.76785 2.23035 -12.1899 -4.80227 2.20488 
-12.2158 -4.83649 2.17894 -12.2415 -4.87051 2.15251 -12.2669 -4.90435 2.1256 
-12.2921 -4.93798 2.09821 -12.317 -4.97142 2.07035 -12.3417 -5.00466 2.04202 
-12.3661 -5.0377 2.01322 -12.3902 -5.07054 1.98395 -12.414 -5.10317 1.95422 
-12.4375 -5.1356 1.92404 -12.4606 -5.16783 1.89339 -12.4835 -5.19985 1.86229 
-12.506 -5.23166 1.83073 -12.5282 -5.26327 1.79873 -12.55 -5.29466 1.76628 
-12.5715 -5.32584 1.73339 -12.5926 -5.35682 1.70005 -12.6133 -5.38757 1.66628 
-12.6336 -5.41812 1.63207 -12.6535 -5.44844 1.59743 -12.6729 -5.47856 1.56236 
-12.692 -5.50845 1.52687 -12.7106 -5.53814 1.49098 -12.7288 -5.56761 1.45468 
-12.7466 -5.59688 1.418 -12.7639 -5.62593 1.38093 -12.7807 -5.65478 1.34348 
-12.7971 -5.68342 1.30567 -12.8129 -5.71186 1.26751 -12.8283 -5.7401 1.229 
-12.8433 -5.76813 1.19015 -12.8577 -5.79596 1.15097 -12.8716 -5.8236 1.11146 
-12.8849 -5.85103 1.07165 -12.8978 -5.87827 1.03153 -12.9101 -5.90532 0.991119 
-12.9219 -5.93217 0.95042 -12.9331 -5.95883 0.909445 -12.9438 -5.98529 0.868201 
-12.9539 -6.01157 0.826697 -12.9635 -6.03766 0.784944 -12.9724 -6.06357 0.742952 
-12.9808 -6.0893 0.700732 -12.9887 -6.11485 0.658295 -12.9959 -6.14023 0.615653 
-13.0026 -6.16544 0.572815 -13.0088 -6.19049 0.529795 -13.0143 -6.21538 0.486602 
-13.0193 -6.24011 0.443247 -13.0237 -6.26469 0.399743 -13.0276 -6.28912 0.356099 
-13.0309 -6.31341 0.312326 -13.0336 -6.33755 0.268437 -13.0357 -6.36156 0.224442 
-13.0373 -6.38543 0.180351 -13.0383 -6.40918 0.136177 -13.0387 -6.4328 0.0919304 
-13.0386 -6.4563 0.0476217 -13.0379 -6.47967 0.00326235 -13.0366 -6.50294 -0.0411366 
-13.0348 -6.5261 -0.0855649 -13.0324 -6.54915 -0.130015 -13.0295 -6.5721 -0.174479 
[...]
CELL_DATA 1
FIELD FieldData 2
Length 1 1 double
63.895168133 
Tortuosity 1 1 double
0.87076156785 
POINT_DATA 1278
SCALARS MaximumInscribedSphereRadius float
LOOKUP_TABLE default
0.62 0.635982 0.651964 0.667947 0.683929 0.699911 0.715894 0.731876 0.747858 
0.76384 0.779822 0.795805 0.811787 0.827769 0.843751 0.859734 0.875716 0.891698 
0.907681 0.923663 0.939645 0.954453 0.963788 0.973123 0.982458 0.991793 1.00113 
1.01046 1.0198 1.02913 1.03847 1.0478 1.05714 1.06647 1.07581 1.08514 
1.09448 1.10381 1.11315 1.12248 1.13182 1.1278 1.11628 1.10475 1.09322 
1.0817 1.07017 1.05864 1.04711 1.03559 1.02406 1.01253 1.00101 0.989479 
0.977952 0.966425 0.954898 0.943371 0.931844 0.920317 0.90879 0.897971 0.892829 
0.887686 0.882544 0.877401 0.872259 0.867116 0.861973 0.856831 0.851688 0.846546 
0.841403 0.836261 0.831118 0.825976 0.820833 0.815691 0.810548 0.805406 0.800263 
0.795121 0.809974 0.827201 0.844428 0.861655 0.878881 0.896108 0.913335 0.930562 
0.947789 0.965015 0.982242 0.999469 1.0167 1.03392 1.05115 1.06838 1.0856 
1.10283 1.12006 1.13728 1.15567 1.17482 1.19397 1.21312 1.23227 1.25142 
1.27057 1.28972 1.30887 1.32802 1.34717 1.36632 1.38547 1.40462 1.42377 
1.44292 1.46207 1.48122 1.50037 1.51952 1.53269 1.53356 1.53443 1.5353 
1.53616 1.53703 1.5379 1.53877 1.53963 1.5405 1.54137 1.54224 1.54311 
1.54397 1.54484 1.54571 1.54658 1.54744 1.54831 1.54918 1.55 1.55 
1.55 1.55 1.55 1.55 1.55 1.55 1.55 1.55 1.55 
1.55 1.55 1.55 1.55 1.55 1.55 1.55 1.55 1.55 
1.55 1.55 1.55 1.55 1.55 1.55 1.55 1.55 1.55 
1.55 1.55 1.55 1.55 1.55 1.55 1.55 1.55 1.55 
1.55 1.55 1.55 1.55 1.55 1.55 1.55 1.55 1.55 
1.55 1.55 1.55 1.55 1.55 1.55 1.55 1.55 1.55 
1.55 1.55 1.55 1.55 1.55 1.54902 1.5453 1.54158 1.53787 
1.53415 1.53043 1.52671 1.52299 1.51927 1.51556 1.51184 1.50812 1.5044 
1.50068 1.49697 1.49325 1.48953 1.48581 1.48209 1.47838 1.47466 1.46687 
1.45903 1.45119 1.44335 1.43551 1.42767 1.41983 1.41199 1.40415 1.39631 
1.38847 1.38063 1.37279 1.36495 1.3571 1.34926 1.34142 1.33358 1.32574 
1.3179 1.3146 1.31315 1.31169 1.31023 1.30878 1.30732 1.30586 1.3044 
1.30295 1.30149 1.30003 1.29858 1.29712 1.29566 1.29421 1.29275 1.29129 
1.28983 1.28838 1.28692 1.28755 1.29086 1.29418 1.2975 1.30081 1.30413 
1.30744 1.31076 1.31408 1.31739 1.32071 1.32402 1.32734 1.33065 1.33397 
1.33729 1.3406 1.34392 1.34723 1.35055 1.35304 1.35133 1.34963 1.34792 
1.34621 1.34451 1.3428 1.34109 1.33939 1.33768 1.33597 1.33427 1.33256 
1.33085 1.32915 1.32744 1.32574 1.32403 1.32232 1.32062 1.31891 1.32075 
1.32301 1.32527 1.32753 1.32979 1.33205 1.33431 1.33658 1.33884 1.3411 
1.34336 1.34562 1.34788 1.35014 1.3524 1.35466 1.35692 1.35918 1.36144 
1.3637 1.37429 1.38981 1.40534 1.42086 1.43638 1.4519 1.46742 1.48294 
1.49846 1.51398 1.5295 1.54502 1.56054 1.57606 1.59158 1.6071 1.62262 
1.63814 1.65366 1.66918 1.67852 1.67706 1.6756 1.67414 1.67268 1.67122 
1.66976 1.6683 1.66684 1.66538 1.66392 1.66246 1.661 1.65954 1.65808 
1.65662 1.65516 1.6537 1.65224 1.65078 1.64792 1.63233 1.61674 1.60116 
1.58557 1.56999 1.5544 1.53882 1.52323 1.50765 1.49206 1.47648 1.46089 
1.44531 1.42972 1.41414 1.39855 1.38297 1.36738 1.35179 1.33621 1.33856 
1.34461 1.35065 1.3567 1.36274 1.36879 1.37483 1.38087 1.38692 1.39296 
1.39901 1.40505 1.4111 1.41714 1.42319 1.42923 1.43528 1.44132 1.44737 
1.45341 1.46075 1.46912 1.47749 1.48586 1.49423 1.5026 1.51097 1.51934 
1.52771 1.53608 1.54444 1.55281 1.56118 1.56955 1.57792 1.58629 1.59466 
1.60303 1.6114 1.61977 1.62636 1.62844 1.63051 1.63258 1.63466 1.63673 
1.6388 1.64087 1.64295 1.64502 1.64709 1.64917 1.65124 1.65331 1.65538 
1.65746 1.65953 1.6616 1.66367 1.66575 1.66779 1.66692 1.66605 1.66518 
1.66431 1.66344 1.66257 1.6617 1.66083 1.65996 1.65909 1.65822 1.65735 
1.65648 1.65561 1.65474 1.65387 1.653 1.65213 1.65126 1.65039 1.6479 
1.64482 1.64174 1.63865 1.63557 1.63249 1.62941 1.62632 1.62324 1.62016 
1.61707 1.61399 1.61091 1.60782 1.60474 1.60166 1.59857 1.59549 1.59241 
1.58932 1.59458 1.60759 1.62059 1.6336 1.6466 1.65961 1.67262 1.68562 
1.69863 1.71163 1.72464 1.73764 1.75065 1.76366 1.77666 1.78967 1.80267 
1.81568 1.82868 1.84169 1.85402 1.86465 1.87528 1.88592 1.89655 1.90718 
1.91781 1.92844 1.93907 1.9497 1.96033 1.97096 1.9816 1.99223 2.00286 
2.01349 2.02412 2.03475 2.04538 2.05601 2.06378 2.05359 2.04341 2.03322 
2.02304 2.01285 2.00266 1.99248 1.98229 1.97211 1.96192 1.95174 1.94155 
1.93137 1.92118 1.911 1.90081 1.89063 1.88044 1.87026 1.86007 1.85124 
1.84256 1.83388 1.82521 1.81653 1.80785 1.79917 1.79049 1.78181 1.77313 
1.76445 1.75577 1.7471 1.73842 1.72974 1.72106 1.71238 1.7037 1.69502 
1.68634 1.68302 1.68291 1.6828 1.68269 1.68258 1.68247 1.68236 1.68225 
1.68214 1.68203 1.68192 1.68181 1.6817 1.68158 1.68147 1.68136 1.68125 
1.68114 1.68103 1.68092 1.68559 1.69925 1.71292 1.72658 1.74025 1.75391 
1.76758 1.78124 1.79491 1.80857 1.82224 1.8359 1.84957 1.86324 1.8769 
1.89057 1.90423 1.9179 1.93156 1.94523 1.95871 1.9697 1.9807 1.9917 
2.00269 2.01369 2.02468 2.03568 2.04668 2.05767 2.06867 2.07967 2.09066 
2.10166 2.11265 2.12365 2.13465 2.14564 2.15664 2.16764 2.17863 2.18039 
2.17973 2.17906 2.1784 2.17773 2.17707 2.1764 2.17573 2.17507 2.1744 
2.17374 2.17307 2.17241 2.17174 2.17108 2.17041 2.16975 2.16908 2.16842 
2.16775 2.16423 2.15807 2.15191 2.14574 2.13958 2.13342 2.12725 2.12109 
2.11493 2.10876 2.1026 2.09644 2.09028 2.08411 2.07795 2.07179 2.06562 
2.05946 2.0533 2.04713 2.04066 2.03325 2.02584 2.01843 2.01102 2.00361 
1.9962 1.9888 1.98139 1.97398 1.96657 1.95916 1.95175 1.94434 1.93693 
1.92952 1.92212 1.91471 1.9073 1.89989 1.89248 1.8908 1.8892 1.8876 
1.88601 1.88441 1.88281 1.88122 1.87962 1.87802 1.87643 1.87483 1.87323 
1.87164 1.87004 1.86844 1.86685 1.86525 1.86365 1.86206 1.86046 1.86 
1.86 1.86 1.86 1.86 1.86 1.86 1.86 1.86 1.86 
1.86 1.86 1.86 1.86 1.86 1.86 1.86 1.86 1.86 
1.86 1.86 1.86 1.86 1.86 1.86 1.86 1.86 1.86 
1.86 1.86 1.86 1.86 1.86 1.86 1.86 1.86 1.86 
1.86 1.86 1.86 1.8591 1.85338 1.84767 1.84195 1.83624 1.83052 
1.82481 1.81909 1.81338 1.80767 1.80195 1.79624 1.79052 1.78481 1.77909 
1.77338 1.76766 1.76195 1.75623 1.75052 1.7448 1.74001 1.73534 1.73067 
1.726 1.72133 1.71666 1.71199 1.70732 1.70265 1.69798 1.69331 1.68864 
1.68397 1.6793 1.67463 1.66996 1.6653 1.66063 1.65596 1.65129 1.65873 
1.67409 1.68944 1.7048 1.72016 1.73552 1.75088 1.76624 1.7816 1.79695 
1.81231 1.82767 1.84303 1.85839 1.87375 1.88911 1.90446 1.91982 1.93518 
1.95054 1.96598 1.98158 1.99718 2.01278 2.02838 2.04398 2.05958 2.07518 
2.09078 2.10638 2.12198 2.13757 2.15317 2.16877 2.18437 2.19997 2.21557 
2.23117 2.24677 2.26237 2.27662 2.26519 2.25376 2.24234 2.23091 2.21949 
2.20806 2.19663 2.18521 2.17378 2.16236 2.15093 2.1395 2.12808 2.11665 
2.10523 2.0938 2.08238 2.07095 2.05952 2.0481 2.02979 2.00943 1.98908 
1.96872 1.94836 1.928 1.90764 1.88728 1.86693 1.84657 1.82621 1.80585 
1.78549 1.76513 1.74478 1.72442 1.70406 1.6837 1.66334 1.64298 1.63836 
1.64995 1.66154 1.67313 1.68473 1.69632 1.70791 1.7195 1.73109 1.74269 
1.75428 1.76587 1.77746 1.78905 1.80065 1.81224 1.82383 1.83542 1.84701 
1.85861 1.87045 1.8832 1.89594 1.90869 1.92144 1.93418 1.94693 1.95968 
1.97243 1.98517 1.99792 2.01067 2.02341 2.03616 2.04891 2.06166 2.0744 
2.08715 2.0999 2.11265 2.12539 2.11195 2.09687 2.0818 2.06672 2.05164 
2.03657 2.02149 2.00642 1.99134 1.97626 1.96119 1.94611 1.93104 1.91596 
1.90088 1.88581 1.87073 1.85566 1.84058 1.8255 1.81644 1.81034 1.80423 
1.79813 1.79202 1.78592 1.77981 1.77371 1.7676 1.76149 1.75539 1.74928 
1.74318 1.73707 1.73097 1.72486 1.71875 1.71265 1.70654 1.70044 1.7025 
1.71668 1.73087 1.74505 1.75923 1.77341 1.7876 1.80178 1.81596 1.83014 
1.84433 1.85851 1.87269 1.88687 1.90106 1.91524 1.92942 1.94361 1.95779 
1.97197 1.98542 1.99412 2.00282 2.01153 2.02023 2.02893 2.03763 2.04633 
2.05503 2.06374 2.07244 2.08114 2.08984 2.09854 2.10724 2.11594 2.12465 
2.13335 2.14205 2.15075 2.15945 2.16189 2.1633 2.16471 2.16612 2.16753 
2.16894 2.17035 2.17176 2.17317 2.17458 2.17599 2.17739 2.1788 2.18021 
2.18162 2.18303 2.18444 2.18585 2.18726 2.18867 2.1945 2.20351 2.21252 
2.22152 2.23053 2.23954 2.24855 2.25756 2.26656 2.27557 2.28458 2.29359 
2.30259 2.3116 2.32061 2.32962 2.33863 2.34763 2.35664 2.36565 2.37572 
2.38822 2.40072 2.41321 2.42571 2.43821 2.45071 2.46321 2.4757 2.4882 
2.5007 2.5132 2.5257 2.53819 2.55069 2.56319 2.57569 2.58819 2.60068 
2.61318 2.6252 2.61949 2.61377 2.60806 2.60235 2.59663 2.59092 2.58521 
2.5795 2.57378 2.56807 2.56236 2.55664 2.55093 2.54522 2.5395 2.53379 
2.52808 2.52237 2.51665 2.51094 2.49503 2.47568 2.45634 2.43699 2.41765 
2.3983 2.37896 2.35961 2.34027 2.32092 2.30158 2.28223 2.26289 2.24355 
2.2242 2.20486 2.18551 2.16617 2.14682 2.12748 2.1184 2.12089 2.12338 
2.12586 2.12835 2.13084 2.13333 2.13582 2.1383 2.14079 2.14328 2.14577 
2.14826 2.15074 2.15323 2.15572 2.15821 2.1607 2.16318 2.16567 2.17037 
2.18432 2.19826 2.2122 2.22615 2.24009 2.25403 2.26798 2.28192 2.29586 
2.30981 2.32375 2.33769 2.35164 2.36558 2.37952 2.39347 2.40741 2.42135 
2.4353 2.44924 2.4587 2.46775 2.47681 2.48586 2.49491 2.50397 2.51302 
2.52207 2.53113 2.54018 2.54923 2.55829 2.56734 2.57639 2.58545 2.5945 
2.60355 2.61261 2.62166 2.63071 2.63672 2.64102 2.64532 2.64962 2.65391 
2.65821 2.66251 2.66681 2.67111 2.6754 2.6797 2.684 2.6883 2.6926 
2.6969 2.70119 2.70549 2.70979 2.71409 2.71839 2.71516 2.69876 2.68237 
2.66598 2.64958 2.63319 2.6168 2.6004 2.58401 2.56761 2.55122 2.53483 
2.51843 2.50204 2.48565 2.46925 2.45286 2.43647 2.42007 2.40368 2.3881 
2.38167 2.37523 2.36879 2.36236 2.35592 2.34948 2.34305 2.33661 2.33017 
2.32374 2.3173 2.31087 2.30443 2.29799 2.29156 2.28512 2.27868 2.27225 
2.26581 2.25937 2.26528 2.27326 2.28123 2.28921 2.29719 2.30516 2.31314 
2.32112 2.32909 2.33707 2.34505 2.35303 2.361 2.36898 2.37696 2.38493 
2.39291 2.40089 2.40886 2.41684 2.4178 2.40665 2.3955 2.38435 2.37321 
2.36206 2.35091 2.33976 2.32861 2.31746 2.30631 2.29516 2.28402 2.27287 
2.26172 2.25057 2.23942 2.22827 2.21712 2.20597 2.19042 2.1739 2.15738 
2.14086 2.12434 2.10782 2.0913 2.07477 2.05825 2.04173 2.02521 2.00869 
1.99217 1.97565 1.95913 1.94261 1.92608 1.90956 1.89304 1.87652 1.86 

TEXTURE_COORDINATES TCoords 2 float
0 0 0.000783085 0 0.00156617 0 0.00234926 0 0.00313234 
0 0.00391543 0 0.00469851 0 0.0054816 0 0.00626468 0 
0.00704777 0 0.00783085 0 0.00861394 0 0.00939702 0 0.0101801 
0 0.0109632 0 0.0117463 0 0.0125294 0 0.0133125 0 
0.0140955 0 0.0148786 0 0.0156617 0 0.0164448 0 0.0172279 
0 0.018011 0 0.018794 0 0.0195771 0 0.0203602 0 
0.0211433 0 0.0219264 0 0.0227095 0 0.0234926 0 0.0242756 
0 0.0250587 0 0.0258418 0 0.0266249 0 0.027408 0 
0.0281911 0 0.0289742 0 0.0297572 0 0.0305403 0 0.0313234 
0 0.0321065 0 0.0328896 0 0.0336727 0 0.0344558 0 
0.0352388 0 0.0360219 0 0.036805 0 0.0375881 0 0.0383712 
0 0.0391543 0 0.0399374 0 0.0407204 0 0.0415035 0 
0.0422866 0 0.0430697 0 0.0438528 0 0.0446359 0 0.045419 
0 0.046202 0 0.0469851 0 0.0477682 0 0.0485513 0 
0.0493344 0 0.0501175 0 0.0509005 0 0.0516836 0 0.0524667 
0 0.0532498 0 0.0540329 0 0.054816 0 0.0555991 0 
0.0563821 0 0.0571652 0 0.0579483 0 0.0587314 0 0.0595145 
0 0.0602976 0 0.0610807 0 0.0618637 0 0.0626468 0 
0.0634299 0 0.064213 0 0.0649961 0 0.0657792 0 0.0665623 
0 0.0673453 0 0.0681284 0 0.0689115 0 0.0696946 0 
0.0704777 0 0.0712608 0 0.0720439 0 0.0728269 0 0.07361 
0 0.0743931 0 0.0751762 0 0.0759593 0 0.0767424 0 
0.0775255 0 0.0783085 0 0.0790916 0 0.0798747 0 0.0806578 
0 0.0814409 0 0.082224 0 0.083007 0 0.0837901 0 
0.0845732 0 0.0853563 0 0.0861394 0 0.0869225 0 0.0877056 
0 0.0884886 0 0.0892717 0 0.0900548 0 0.0908379 0 
0.091621 0 0.0924041 0 0.0931872 0 0.0939702 0 0.0947533 
0 0.0955364 0 0.0963195 0 0.0971026 0 0.0978857 0 
0.0986688 0 0.0994518 0 0.100235 0 0.101018 0 0.101801 
0 0.102584 0 0.103367 0 0.10415 0 0.104933 0 
0.105717 0 0.1065 0 0.107283 0 0.108066 0 0.108849 
0 0.109632 0 0.110415 0 0.111198 0 0.111981 0 
0.112764 0 0.113547 0 0.11433 0 0.115114 0 0.115897 
0 0.11668 0 0.117463 0 0.118246 0 0.119029 0 
0.119812 0 0.120595 0 0.121378 0 0.122161 0 0.122944 
0 0.123727 0 0.124511 0 0.125294 0 0.126077 0 
0.12686 0 0.127643 0 0.128426 0 0.129209 0 0.129992 
0 0.130775 0 0.131558 0 0.132341 0 0.133125 0 
0.133908 0 0.134691 0 0.135474 0 0.136257 0 0.13704 
0 0.137823 0 0.138606 0 0.139389 0 0.140172 0 
0.140955 0 0.141738 0 0.142522 0 0.143305 0 0.144088 
0 0.144871 0 0.145654 0 0.146437 0 0.14722 0 
0.148003 0 0.148786 0 0.149569 0 0.150352 0 0.151135 
0 0.151919 0 0.152702 0 0.153485 0 0.154268 0 
0.155051 0 0.155834 0 0.156617 0 0.1574 0 0.158183 
0 0.158966 0 0.159749 0 0.160533 0 0.161316 0 
0.162099 0 0.162882 0 0.163665 0 0.164448 0 0.165231 
0 0.166014 0 0.166797 0 0.16758 0 0.168363 0 
0.169146 0 0.16993 0 0.170713 0 0.171496 0 0.172279 
0 0.173062 0 0.173845 0 0.174628 0 0.175411 0 
0.176194 0 0.176977 0 0.17776 0 0.178543 0 0.179327 
0 0.18011 0 0.180893 0 0.181676 0 0.182459 0 
0.183242 0 0.184025 0 0.184808 0 0.185591 0 0.186374 
0 0.187157 0 0.18794 0 0.188724 0 0.189507 0 
0.19029 0 0.191073 0 0.191856 0 0.192639 0 0.193422 
0 0.194205 0 0.194988 0 0.195771 0 0.196554 0 
0.197338 0 0.198121 0 0.198904 0 0.199687 0 0.20047 
0 0.201253 0 0.202036 0 0.202819 0 0.203602 0 
0.204385 0 0.205168 0 0.205951 0 0.206735 0 0.207518 
0 0.208301 0 0.209084 0 0.209867 0 0.21065 0 
0.211433 0 0.212216 0 0.212999 0 0.213782 0 0.214565 
0 0.215348 0 0.216132 0 0.216915 0 0.217698 0 
0.218481 0 0.219264 0 0.220047 0 0.22083 0 0.221613 
0 0.222396 0 0.223179 0 0.223962 0 0.224745 0 
0.225529 0 0.226312 0 0.227095 0 0.227878 0 0.228661 
0 0.229444 0 0.230227 0 0.23101 0 0.231793 0 
0.232576 0 0.233359 0 0.234143 0 0.234926 0 0.235709 
0 0.236492 0 0.237275 0 0.238058 0 0.238841 0 
0.239624 0 0.240407 0 0.24119 0 0.241973 0 0.242756 
0 0.24354 0 0.244323 0 0.245106 0 0.245889 0 
0.246672 0 0.247455 0 0.248238 0 0.249021 0 0.249804 
0 0.250587 0 0.25137 0 0.252153 0 0.252937 0 
0.25372 0 0.254503 0 0.255286 0 0.256069 0 0.256852 
0 0.257635 0 0.258418 0 0.259201 0 0.259984 0 
0.260767 0 0.261551 0 0.262334 0 0.263117 0 0.2639 
0 0.264683 0 0.265466 0 0.266249 0 0.267032 0 
0.267815 0 0.268598 0 0.269381 0 0.270164 0 0.270948 
0 0.271731 0 0.272514 0 0.273297 0 0.27408 0 
0.274863 0 0.275646 0 0.276429 0 0.277212 0 0.277995 
0 0.278778 0 0.279561 0 0.280345 0 0.281128 0 
0.281911 0 0.282694 0 0.283477 0 0.28426 0 0.285043 
0 0.285826 0 0.286609 0 0.287392 0 0.288175 0 
0.288958 0 0.289742 0 0.290525 0 0.291308 0 0.292091 
0 0.292874 0 0.293657 0 0.29444 0 0.295223 0 
0.296006 0 0.296789 0 0.297572 0 0.298356 0 0.299139 
0 0.299922 0 0.300705 0 0.301488 0 0.302271 0 
0.303054 0 0.303837 0 0.30462 0 0.305403 0 0.306186 
0 0.306969 0 0.307753 0 0.308536 0 0.309319 0 
0.310102 0 0.310885 0 0.311668 0 0.312451 0 0.313234 
0 0.314017 0 0.3148 0 0.315583 0 0.316366 0 
0.31715 0 0.317933 0 0.318716 0 0.319499 0 0.320282 
0 0.321065 0 0.321848 0 0.322631 0 0.323414 0 
0.324197 0 0.32498 0 0.325763 0 0.326547 0 0.32733 
0 0.328113 0 0.328896 0 0.329679 0 0.330462 0 
0.331245 0 0.332028 0 0.332811 0 0.333594 0 0.334377 
0 0.335161 0 0.335944 0 0.336727 0 0.33751 0 
0.338293 0 0.339076 0 0.339859 0 0.340642 0 0.341425 
0 0.342208 0 0.342991 0 0.343774 0 0.344558 0 
0.345341 0 0.346124 0 0.346907 0 0.34769 0 0.348473 
0 0.349256 0 0.350039 0 0.350822 0 0.351605 0 
0.352388 0 0.353171 0 0.353955 0 0.354738 0 0.355521 
0 0.356304 0 0.357087 0 0.35787 0 0.358653 0 
0.359436 0 0.360219 0 0.361002 0 0.361785 0 0.362569 
0 0.363352 0 0.364135 0 0.364918 0 0.365701 0 
0.366484 0 0.367267 0 0.36805 0 0.368833 0 0.369616 
0 0.370399 0 0.371182 0 0.371966 0 0.372749 0 
0.373532 0 0.374315 0 0.375098 0 0.375881 0 0.376664 
0 0.377447 0 0.37823 0 0.379013 0 0.379796 0 
0.380579 0 0.381363 0 0.382146 0 0.382929 0 0.383712 
0 0.384495 0 0.385278 0 0.386061 0 0.386844 0 
0.387627 0 0.38841 0 0.389193 0 0.389977 0 0.39076 
0 0.391543 0 0.392326 0 0.393109 0 0.393892 0 
0.394675 0 0.395458 0 0.396241 0 0.397024 0 0.397807 
0 0.39859 0 0.399374 0 0.400157 0 0.40094 0 
0.401723 0 0.402506 0 0.403289 0 0.404072 0 0.404855 
0 0.405638 0 0.406421 0 0.407204 0 0.407987 0 
0.408771 0 0.409554 0 0.410337 0 0.41112 0 0.411903 
0 0.412686 0 0.413469 0 0.414252 0 0.415035 0 
0.415818 0 0.416601 0 0.417385 0 0.418168 0 0.418951 
0 0.419734 0 0.420517 0 0.4213 0 0.422083 0 
0.422866 0 0.423649 0 0.424432 0 0.425215 0 0.425998 
0 0.426782 0 0.427565 0 0.428348 0 0.429131 0 
0.429914 0 0.430697 0 0.43148 0 0.432263 0 0.433046 
0 0.433829 0 0.434612 0 0.435395 0 0.436179 0 
0.436962 0 0.437745 0 0.438528 0 0.439311 0 0.440094 
0 0.440877 0 0.44166 0 0.442443 0 0.443226 0 
0.444009 0 0.444792 0 0.445576 0 0.446359 0 0.447142 
0 0.447925 0 0.448708 0 0.449491 0 0.450274 0 
0.451057 0 0.45184 0 0.452623 0 0.453406 0 0.45419 
0 0.454973 0 0.455756 0 0.456539 0 0.457322 0 
0.458105 0 0.458888 0 0.459671 0 0.460454 0 0.461237 
0 0.46202 0 0.462803 0 0.463587 0 0.46437 0 
0.465153 0 0.465936 0 0.466719 0 0.467502 0 0.468285 
0 0.469068 0 0.469851 0 0.470634 0 0.471417 0 
0.4722 0 0.472984 0 0.473767 0 0.47455 0 0.475333 
0 0.476116 0 0.476899 0 0.477682 0 0.478465 0 
0.479248 0 0.480031 0 0.480814 0 0.481597 0 0.482381 
0 0.483164 0 0.483947 0 0.48473 0 0.485513 0 
0.486296 0 0.487079 0 0.487862 0 0.488645 0 0.489428 
0 0.490211 0 0.490995 0 0.491778 0 0.492561 0 
0.493344 0 0.494127 0 0.49491 0 0.495693 0 0.496476 
0 0.497259 0 0.498042 0 0.498825 0 0.499608 0 
0.500392 0 0.501175 0 0.501958 0 0.502741 0 0.503524 
0 0.504307 0 0.50509 0 0.505873 0 0.506656 0 
0.507439 0 0.508222 0 0.509005 0 0.509789 0 0.510572 
0 0.511355 0 0.512138 0 0.512921 0 0.513704 0 
0.514487 0 0.51527 0 0.516053 0 0.516836 0 0.517619 
0 0.518403 0 0.519186 0 0.519969 0 0.520752 0 
0.521535 0 0.522318 0 0.523101 0 0.523884 0 0.524667 
0 0.52545 0 0.526233 0 0.527016 0 0.5278 0 
0.528583 0 0.529366 0 0.530149 0 0.530932 0 0.531715 
0 0.532498 0 0.533281 0 0.534064 0 0.534847 0 
0.53563 0 0.536413 0 0.537197 0 0.53798 0 0.538763 
0 0.539546 0 0.540329 0 0.541112 0 0.541895 0 
0.542678 0 0.543461 0 0.544244 0 0.545027 0 0.545811 
0 0.546594 0 0.547377 0 0.54816 0 0.548943 0 
0.549726 0 0.550509 0 0.551292 0 0.552075 0 0.552858 
0 0.553641 0 0.554424 0 0.555207 0 0.555991 0 
0.556774 0 0.557557 0 0.55834 0 0.559123 0 0.559906 
0 0.560689 0 0.561472 0 0.562255 0 0.563038 0 
0.563821 0 0.564605 0 0.565388 0 0.566171 0 0.566954 
0 0.567737 0 0.56852 0 0.569303 0 0.570086 0 
0.570869 0 0.571652 0 0.572435 0 0.573218 0 0.574002 
0 0.574785 0 0.575568 0 0.576351 0 0.577134 0 
0.577917 0 0.5787 0 0.579483 0 0.580266 0 0.581049 
0 0.581832 0 0.582615 0 0.583399 0 0.584182 0 
0.584965 0 0.585748 0 0.586531 0 0.587314 0 0.588097 
0 0.58888 0 0.589663 0 0.590446 0 0.591229 0 
0.592013 0 0.592796 0 0.593579 0 0.594362 0 0.595145 
0 0.595928 0 0.596711 0 0.597494 0 0.598277 0 
0.59906 0 0.599843 0 0.600626 0 0.60141 0 0.602193 
0 0.602976 0 0.603759 0 0.604542 0 0.605325 0 
0.606108 0 0.606891 0 0.607674 0 0.608457 0 0.60924 
0 0.610023 0 0.610807 0 0.61159 0 0.612373 0 
0.613156 0 0.613939 0 0.614722 0 0.615505 0 0.616288 
0 0.617071 0 0.617854 0 0.618637 0 0.619421 0 
0.620204 0 0.620987 0 0.62177 0 0.622553 0 0.623336 
0 0.624119 0 0.624902 0 0.625685 0 0.626468 0 
0.627251 0 0.628034 0 0.628818 0 0.629601 0 0.630384 
0 0.631167 0 0.63195 0 0.632733 0 0.633516 0 
0.634299 0 0.635082 0 0.635865 0 0.636648 0 0.637432 
0 0.638215 0 0.638998 0 0.639781 0 0.640564 0 
0.641347 0 0.64213 0 0.642913 0 0.643696 0 0.644479 
0 0.645262 0 0.646045 0 0.646829 0 0.647612 0 
0.648395 0 0.649178 0 0.649961 0 0.650744 0 0.651527 
0 0.65231 0 0.653093 0 0.653876 0 0.654659 0 
0.655442 0 0.656226 0 0.657009 0 0.657792 0 0.658575 
0 0.659358 0 0.660141 0 0.660924 0 0.661707 0 
0.66249 0 0.663273 0 0.664056 0 0.664839 0 0.665623 
0 0.666406 0 0.667189 0 0.667972 0 0.668755 0 
0.669538 0 0.670321 0 0.671104 0 0.671887 0 0.67267 
0 0.673453 0 0.674236 0 0.67502 0 0.675803 0 
0.676586 0 0.677369 0 0.678152 0 0.678935 0 0.679718 