# vtk DataFile Version 4.2
vtk output
ASCII
DATASET POLYDATA
POINTS 1278 float
0 0 0 -0.00349487 0.000213269 0.00214152 -0.0136995 0.000830102 0.00836453 
-0.030194 0.00181604 0.0183667 -0.0525585 0.00313661 0.0318456 -0.0803729 0.00475737 0.048499 
-0.113217 0.00664384 0.0680245 -0.150672 0.00876158 0.0901198 -0.192316 0.0110761 0.114483 
-0.237731 0.013553 0.14081 -0.286496 0.0161577 0.168801 -0.338192 0.0188559 0.198152 
-0.392398 0.021613 0.228561 -0.448694 0.0243946 0.259726 -0.506661 0.0271662 0.291344 
-0.565878 0.0298934 0.323113 -0.625927 0.0325417 0.354731 -0.686385 0.0350766 0.385895 
-0.746835 0.0374637 0.416304 -0.806855 0.0396686 0.445654 -0.866026 0.0416567 0.473643 
-0.923929 0.0433936 0.49997 -0.98026 0.0448529 0.524419 -1.03507 0.0460318 0.547037 
-1.08847 0.0469321 0.567918 -1.14056 0.0475553 0.587157 -1.19148 0.0479032 0.604847 
-1.24132 0.0479775 0.621084 -1.29019 0.0477798 0.63596 -1.33822 0.0473117 0.649572 
-1.38551 0.0465751 0.662012 -1.43218 0.0455714 0.673376 -1.47833 0.0443024 0.683757 
-1.52408 0.0427699 0.693249 -1.56954 0.0409753 0.701948 -1.61483 0.0389205 0.709947 
-1.66006 0.0366071 0.717341 -1.70533 0.0340367 0.724223 -1.75076 0.0312111 0.730688 
-1.79647 0.0281319 0.736831 -1.84256 0.0248007 0.742746 -1.88915 0.0212188 0.748523 
-1.93625 0.0173796 0.754191 -1.98383 0.0132711 0.759736 -2.03185 0.00888091 0.765141 
-2.08027 0.00419683 0.770392 -2.12906 -0.000793403 0.775472 -2.17818 -0.00610206 0.780365 
-2.22758 -0.0117414 0.785055 -2.27723 -0.0177237 0.789526 -2.32709 -0.0240612 0.793763 
-2.37712 -0.0307662 0.797749 -2.42729 -0.0378509 0.801468 -2.47755 -0.0453276 0.804904 
-2.52788 -0.0532086 0.808042 -2.57821 -0.0615061 0.810866 -2.62853 -0.0702324 0.813359 
-2.6788 -0.0793998 0.815506 -2.72896 -0.0890205 0.81729 -2.77899 -0.0991067 0.818696 
-2.82885 -0.109671 0.819708 -2.8785 -0.120725 0.82031 -2.9279 -0.132279 0.820496 
-2.97707 -0.144334 0.82029 -3.02599 -0.156891 0.819722 -3.07468 -0.16995 0.818818 
-3.12312 -0.183513 0.817608 -3.17134 -0.197578 0.816121 -3.21932 -0.212148 0.814384 
-3.26707 -0.227222 0.812427 -3.3146 -0.242801 0.810278 -3.3619 -0.258886 0.807966 
-3.40897 -0.275476 0.805519 -3.45583 -0.292573 0.802965 -3.50246 -0.310177 0.800334 
-3.54888 -0.328289 0.797653 -3.59508 -0.346908 0.794952 -3.64107 -0.366037 0.792258 
-3.68685 -0.385674 0.789602 -3.73242 -0.40582 0.78701 -3.77778 -0.426477 0.784511 
-3.82294 -0.447645 0.782135 -3.86789 -0.469322 0.779907 -3.91264 -0.491503 0.777841 
-3.95717 -0.51418 0.775946 -4.00149 -0.537344 0.77423 -4.04559 -0.560987 0.772704 
-4.08946 -0.585101 0.771375 -4.13311 -0.609678 0.770253 -4.17652 -0.634708 0.769347 
-4.21969 -0.660185 0.768666 -4.26261 -0.686099 0.768219 -4.30529 -0.712443 0.768014 
-4.34771 -0.739208 0.768062 -4.38988 -0.766386 0.76837 -4.43178 -0.793968 0.768948 
-4.47341 -0.821947 0.769804 -4.51478 -0.850314 0.770949 -4.55586 -0.879061 0.77239 
-4.59666 -0.90818 0.774137 -4.63718 -0.937661 0.776199 -4.67741 -0.967498 0.778585 
-4.71734 -0.997682 0.781303 -4.75697 -1.0282 0.784357 -4.79632 -1.05905 0.787748 
-4.83537 -1.09021 0.791475 -4.87414 -1.12168 0.795539 -4.91262 -1.15344 0.799939 
-4.95083 -1.18549 0.804676 -4.98875 -1.21781 0.80975 -5.02641 -1.25039 0.815161 
-5.06379 -1.28323 0.820909 -5.10091 -1.31631 0.826994 -5.13776 -1.34961 0.833416 
-5.17435 -1.38314 0.840175 -5.21068 -1.41688 0.847272 -5.24676 -1.45082 0.854706 
-5.28259 -1.48495 0.862478 -5.31817 -1.51925 0.870587 -5.3535 -1.55372 0.879034 
-5.3886 -1.58835 0.887818 -5.42345 -1.62312 0.896941 -5.45807 -1.65803 0.906401 
-5.49245 -1.69307 0.916197 -5.52661 -1.72823 0.926323 -5.56054 -1.76351 0.936773 
-5.59425 -1.7989 0.94754 -5.62774 -1.8344 0.95862 -5.66102 -1.87 0.970005 
-5.69409 -1.9057 0.98169 -5.72695 -1.9415 0.993668 -5.75961 -1.97739 1.00593 
-5.79207 -2.01336 1.01848 -5.82433 -2.04941 1.03131 -5.8564 -2.08554 1.0444 
-5.88828 -2.12174 1.05775 -5.91998 -2.15801 1.07137 -5.95149 -2.19434 1.08523 
-5.98283 -2.23073 1.09934 -6.01399 -2.26717 1.11369 -6.04499 -2.30366 1.12828 
-6.07581 -2.3402 1.14309 -6.10647 -2.37677 1.15812 -6.13698 -2.41338 1.17337 
-6.16732 -2.45003 1.18882 -6.19751 -2.48671 1.20448 -6.22755 -2.52343 1.22033 
-6.25743 -2.56019 1.23636 -6.28717 -2.59699 1.25258 -6.31676 -2.63383 1.26897 
-6.3462 -2.67071 1.28553 -6.3755 -2.70764 1.30224 -6.40466 -2.74461 1.31911 
-6.43368 -2.78162 1.33612 -6.46256 -2.81868 1.35328 -6.49131 -2.85579 1.37056 
-6.51992 -2.89294 1.38797 -6.54841 -2.93015 1.40549 -6.57676 -2.9674 1.42312 
-6.60499 -3.0047 1.44086 -6.63309 -3.04206 1.45869 -6.66107 -3.07947 1.47662 
-6.68893 -3.11693 1.49462 -6.71667 -3.15445 1.5127 -6.74429 -3.19203 1.53085 
-6.7718 -3.22966 1.54906 -6.79918 -3.26736 1.56732 -6.82644 -3.30512 1.58562 
-6.85359 -3.34294 1.60397 -6.88061 -3.38084 1.62234 -6.90752 -3.41881 1.64073 
-6.9343 -3.45686 1.65913 -6.96096 -3.49498 1.67754 -6.9875 -3.53318 1.69595 
-7.01392 -3.57147 1.71435 -7.04021 -3.60983 1.73273 -7.06638 -3.64829 1.75109 
-7.09243 -3.68684 1.76941 -7.11835 -3.72548 1.7877 -7.14416 -3.76421 1.80593 
-7.16983 -3.80305 1.82411 -7.19538 -3.84198 1.84222 -7.22081 -3.88102 1.86027 
-7.24611 -3.92016 1.87823 -7.27128 -3.95942 1.8961 -7.29631 -3.99881 1.91384 
-7.32119 -4.03835 1.93145 -7.34591 -4.07806 1.94888 -7.37045 -4.11796 1.96613 
-7.39481 -4.15806 1.98315 -7.41898 -4.19839 1.99994 -7.44294 -4.23896 2.01646 
-7.46669 -4.27979 2.03269 -7.49022 -4.32089 2.0486 -7.51351 -4.36229 2.06418 
-7.53655 -4.40401 2.0794 -7.55934 -4.44605 2.09422 -7.58186 -4.48845 2.10864 
-7.60411 -4.53121 2.12261 -7.62606 -4.57436 2.13613 -7.64772 -4.61791 2.14917 
-7.66907 -4.66188 2.16169 -7.69011 -4.70629 2.17368 -7.71081 -4.75116 2.18511 
-7.73116 -4.79649 2.19596 -7.75113 -4.84226 2.20618 -7.77067 -4.88844 2.21572 
-7.78975 -4.93499 2.22456 -7.80833 -4.9819 2.23264 -7.82635 -5.02913 2.23993 
-7.84379 -5.07665 2.24638 -7.86061 -5.12443 2.25195 -7.87676 -5.17244 2.2566 
-7.89221 -5.22066 2.26028 -7.9069 -5.26905 2.26296 -7.92082 -5.31759 2.26459 
-7.9339 -5.36624 2.26514 -7.94613 -5.41498 2.26455 -7.95744 -5.46378 2.26279 
-7.96781 -5.51261 2.25981 -7.97719 -5.56143 2.25557 -7.98555 -5.61023 2.25004 
-7.99284 -5.65897 2.24316 -7.99902 -5.70762 2.2349 -8.00407 -5.75615 2.22523 
-8.00801 -5.80454 2.21419 -8.01086 -5.85276 2.20183 -8.01265 -5.90079 2.1882 
-8.01341 -5.94861 2.17335 -8.01317 -5.99618 2.15733 -8.01197 -6.04348 2.14019 
-8.00982 -6.0905 2.12199 -8.00676 -6.1372 2.10276 -8.00282 -6.18355 2.08258 
-7.99802 -6.22955 2.06148 -7.9924 -6.27515 2.03951 -7.98598 -6.32033 2.01674 
-7.9788 -6.36507 1.9932 -7.97088 -6.40935 1.96895 -7.96225 -6.45314 1.94404 
-7.95295 -6.49642 1.91852 -7.94299 -6.53915 1.89244 -7.93241 -6.58132 1.86586 
-7.92124 -6.6229 1.83882 -7.9095 -6.66387 1.81137 -7.89723 -6.70424 1.78354 
-7.88444 -6.74405 1.75535 -7.87115 -6.78331 1.72682 -7.85738 -6.82206 1.69798 
-7.84316 -6.86033 1.66883 -7.82851 -6.89814 1.6394 -7.81345 -6.93552 1.60971 
-7.79799 -6.97251 1.57978 -7.78217 -7.00912 1.54963 -7.766 -7.04538 1.51928 
-7.7495 -7.08133 1.48875 -7.7327 -7.11699 1.45806 -7.71561 -7.15239 1.42723 
-7.69827 -7.18756 1.39628 -7.68068 -7.22252 1.36523 -7.66288 -7.25731 1.33409 
-7.64487 -7.29195 1.3029 -7.62669 -7.32647 1.27167 -7.60836 -7.36089 1.24041 
-7.58989 -7.39525 1.20916 -7.5713 -7.42956 1.17791 -7.5526 -7.46384 1.14669 
-7.53379 -7.49808 1.11549 -7.51486 -7.5323 1.08432 -7.49584 -7.5665 1.05319 
-7.47672 -7.60069 1.02211 -7.4575 -7.63488 0.991073 -7.4382 -7.66907 0.960096 
-7.41882 -7.70328 0.929183 -7.39935 -7.73751 0.898341 -7.37981 -7.77176 0.867575 
-7.3602 -7.80606 0.836892 -7.34052 -7.84039 0.806299 -7.32079 -7.87478 0.775801 
-7.301 -7.90923 0.745406 -7.28115 -7.94374 0.71512 -7.26126 -7.97832 0.684948 
-7.24133 -8.01299 0.654899 -7.22135 -8.04774 0.624977 -7.20135 -8.08259 0.59519 
-7.18132 -8.11754 0.565544 -7.16126 -8.15261 0.536049 -7.14119 -8.1878 0.506712 
-7.12111 -8.22312 0.477542 -7.10103 -8.25858 0.448547 -7.08095 -8.29419 0.419737 
-7.06087 -8.32997 0.391119 -7.04082 -8.36591 0.362703 -7.02079 -8.40203 0.334497 
-7.00079 -8.43833 0.306509 -6.98082 -8.47484 0.278749 -6.96089 -8.51155 0.251224 
-6.94101 -8.54847 0.223943 -6.92119 -8.58562 0.196915 -6.90143 -8.62301 0.170148 
-6.88173 -8.66063 0.143652 -6.86211 -8.69851 0.117433 -6.84257 -8.73666 0.0915024 
-6.82311 -8.77507 0.0658669 -6.80375 -8.81376 0.0405357 -6.78448 -8.85275 0.0155209 
-6.76534 -8.89204 -0.00914735 -6.74635 -8.93165 -0.0334337 -6.72752 -8.97161 -0.0573028 
-6.70889 -9.01191 -0.0807191 -6.69047 -9.05258 -0.103647 -6.6723 -9.09365 -0.126052 
-6.65439 -9.13511 -0.147897 -6.63678 -9.17699 -0.169149 -6.61947 -9.21931 -0.18977 
-6.60251 -9.26208 -0.209726 -6.5859 -9.30531 -0.228981 -6.56969 -9.34903 -0.247501 
-6.55388 -9.39324 -0.265248 -6.5385 -9.43798 -0.282189 -6.52359 -9.48324 -0.298288 
-6.50915 -9.52905 -0.313508 -6.49522 -9.57543 -0.327816 -6.48183 -9.62238 -0.341175 
-6.46898 -9.66993 -0.353549 -6.45671 -9.71809 -0.364905 -6.44506 -9.76682 -0.375208 
-6.43405 -9.81606 -0.384427 -6.42371 -9.86575 -0.392532 -6.4141 -9.91582 -0.399489 
-6.40524 -9.96619 -0.405268 -6.39716 -10.0168 -0.409838 -6.38991 -10.0676 -0.413167 
-6.38352 -10.1185 -0.415223 -6.37802 -10.1695 -0.415975 -6.37346 -10.2204 -0.415392 
-6.36985 -10.2713 -0.413442 -6.36726 -10.322 -0.410094 -6.36569 -10.3725 -0.405317 
-6.36521 -10.4227 -0.399078 -6.36583 -10.4725 -0.391346 -6.3676 -10.522 -0.38209 
-6.37054 -10.5709 -0.371279 -6.3747 -10.6193 -0.358881 -6.38012 -10.6671 -0.344865 
-6.38682 -10.7142 -0.329201 -6.3948 -10.7606 -0.311909 -6.40403 -10.8062 -0.293049 
-6.41445 -10.851 -0.272686 -6.42604 -10.895 -0.250882 -6.43876 -10.9381 -0.227702 
-6.45256 -10.9804 -0.203208 -6.4674 -11.0216 -0.177463 -6.48325 -11.062 -0.150532 
-6.50007 -11.1013 -0.122477 -6.5178 -11.1396 -0.0933613 -6.53643 -11.1768 -0.063249 
-6.5559 -11.2129 -0.0322032 -6.57618 -11.2479 -0.000287109 -6.59722 -11.2817 0.0324359 
-6.61899 -11.3142 0.0659024 -6.64145 -11.3456 0.100049 -6.66455 -11.3757 0.134813 
[...]
CELL_DATA 1
FIELD FieldData 2
Length 1 1 double
63.867769518 
Tortuosity 1 1 double
0.80972608947 
POINT_DATA 1278
SCALARS MaximumInscribedSphereRadius float
LOOKUP_TABLE default
0.93 0.93 0.93 0.93 0.93 0.93 0.93 0.93 0.93 
0.93 0.93 0.93 0.93 0.93 0.93 0.93 0.93 0.93 
0.93 0.93 0.93 0.929831 0.92815 0.926469 0.924788 0.923108 0.921427 
0.919746 0.918066 0.916385 0.914704 0.913023 0.911343 0.909662 0.907981 0.9063 
0.90462 0.902939 0.901258 0.899578 0.897897 0.893049 0.886193 0.879337 0.872482 
0.865626 0.858771 0.851915 0.845059 0.838204 0.831348 0.824493 0.817637 0.810781 
0.803926 0.79707 0.790215 0.783359 0.776504 0.769648 0.762792 0.756823 0.756889 
0.756955 0.757021 0.757087 0.757153 0.757219 0.757285 0.757351 0.757417 0.757483 
0.757549 0.757615 0.757681 0.757747 0.757813 0.757879 0.757945 0.758011 0.758076 
0.758142 0.772127 0.787902 0.803677 0.819452 0.835227 0.851002 0.866777 0.882552 
0.898327 0.914102 0.929877 0.945652 0.961427 0.977202 0.992977 1.00875 1.02453 
1.0403 1.05608 1.07185 1.08289 1.09088 1.09886 1.10685 1.11484 1.12283 
1.13081 1.1388 1.14679 1.15478 1.16276 1.17075 1.17874 1.18672 1.19471 
1.2027 1.21069 1.21867 1.22666 1.23465 1.24011 1.24043 1.24075 1.24108 
1.2414 1.24172 1.24205 1.24237 1.24269 1.24302 1.24334 1.24366 1.24399 
1.24431 1.24463 1.24496 1.24528 1.2456 1.24593 1.24625 1.24677 1.25123 
1.25569 1.26015 1.26461 1.26906 1.27352 1.27798 1.28244 1.2869 1.29136 
1.29582 1.30028 1.30474 1.3092 1.31366 1.31812 1.32258 1.32704 1.3315 
1.33596 1.34296 1.35076 1.35855 1.36635 1.37415 1.38195 1.38975 1.39754 
1.40534 1.41314 1.42094 1.42873 1.43653 1.44433 1.45213 1.45993 1.46772 
1.47552 1.48332 1.49112 1.49505 1.49462 1.49418 1.49374 1.4933 1.49286 
1.49242 1.49199 1.49155 1.49111 1.49067 1.49023 1.4898 1.48936 1.48892 
1.48848 1.48804 1.4876 1.48717 1.48673 1.48537 1.47992 1.47447 1.46902 
1.46357 1.45812 1.45267 1.44722 1.44177 1.43632 1.43087 1.42542 1.41998 
1.41453 1.40908 1.40363 1.39818 1.39273 1.38728 1.38183 1.37641 1.37219 
1.36797 1.36375 1.35952 1.3553 1.35108 1.34686 1.34264 1.33841 1.33419 
1.32997 1.32575 1.32153 1.3173 1.31308 1.30886 1.30464 1.30042 1.29619 
1.29197 1.29824 1.30692 1.31561 1.3243 1.33299 1.34167 1.35036 1.35905 
1.36773 1.37642 1.38511 1.3938 1.40248 1.41117 1.41986 1.42854 1.43723 
1.44592 1.45461 1.46329 1.47584 1.49221 1.50857 1.52493 1.54129 1.55766 
1.57402 1.59038 1.60674 1.62311 1.63947 1.65583 1.6722 1.68856 1.70492 
1.72128 1.73765 1.75401 1.77037 1.78673 1.80032 1.80405 1.80778 1.81151 
1.81524 1.81897 1.8227 1.82643 1.83016 1.83389 1.83762 1.84136 1.84509 
1.84882 1.85255 1.85628 1.86001 1.86374 1.86747 1.8712 1.87493 1.87461 
1.87402 1.87343 1.87283 1.87224 1.87164 1.87105 1.87046 1.86986 1.86927 
1.86867 1.86808 1.86749 1.86689 1.8663 1.8657 1.86511 1.86451 1.86392 
1.86333 1.86336 1.86376 1.86415 1.86455 1.86494 1.86534 1.86573 1.86613 
1.86653 1.86692 1.86732 1.86771 1.86811 1.8685 1.8689 1.86929 1.86969 
1.87009 1.87048 1.87088 1.87749 1.88947 1.90145 1.91343 1.92541 1.93738 
1.94936 1.96134 1.97332 1.9853 1.99727 2.00925 2.02123 2.03321 2.04519 
2.05716 2.06914 2.08112 2.0931 2.10508 2.11468 2.12154 2.1284 2.13525 
2.14211 2.14897 2.15583 2.16269 2.16955 2.17641 2.18327 2.19013 2.19699 
2.20385 2.21071 2.21756 2.22442 2.23128 2.23814 2.245 2.24774 2.23366 
2.21958 2.2055 2.19142 2.17735 2.16327 2.14919 2.13511 2.12103 2.10695 
2.09287 2.0788 2.06472 2.05064 2.03656 2.02248 2.0084 1.99432 1.98025 
1.96617 1.9568 1.94775 1.9387 1.92965 1.9206 1.91155 1.90251 1.89346 
1.88441 1.87536 1.86631 1.85726 1.84821 1.83916 1.83011 1.82106 1.81201 
1.80296 1.79391 1.78486 1.77993 1.77707 1.77421 1.77136 1.7685 1.76564 
1.76278 1.75992 1.75707 1.75421 1.75135 1.74849 1.74564 1.74278 1.73992 
1.73706 1.73421 1.73135 1.72849 1.72563 1.726 1.73155 1.7371 1.74264 
1.74819 1.75374 1.75929 1.76484 1.77039 1.77594 1.78148 1.78703 1.79258 
1.79813 1.80368 1.80923 1.81478 1.82032 1.82587 1.83142 1.83789 1.85259 
1.86729 1.88198 1.89668 1.91138 1.92608 1.94077 1.95547 1.97017 1.98487 
1.99956 2.01426 2.02896 2.04366 2.05835 2.07305 2.08775 2.10245 2.11714 
2.13184 2.15357 2.17671 2.19986 2.223 2.24615 2.26929 2.29244 2.31558 
2.33873 2.36187 2.38502 2.40816 2.43131 2.45445 2.4776 2.50074 2.52389 
2.54703 2.57018 2.59332 2.59721 2.5885 2.57978 2.57107 2.56235 2.55364 
2.54492 2.53621 2.52749 2.51877 2.51006 2.50134 2.49263 2.48391 2.4752 
2.46648 2.45777 2.44905 2.44034 2.43162 2.4218 2.41024 2.39867 2.38711 
2.37555 2.36399 2.35243 2.34086 2.3293 2.31774 2.30618 2.29462 2.28305 
2.27149 2.25993 2.24837 2.23681 2.22524 2.21368 2.20212 2.19178 2.1907 
2.18962 2.18854 2.18746 2.18638 2.1853 2.18422 2.18314 2.18206 2.18098 
2.1799 2.17882 2.17774 2.17666 2.17558 2.1745 2.17342 2.17234 2.17126 
2.17018 2.17685 2.18505 2.19324 2.20144 2.20964 2.21783 2.22603 2.23423 
2.24242 2.25062 2.25882 2.26702 2.27521 2.28341 2.29161 2.2998 2.308 
2.3162 2.32439 2.33259 2.34414 2.35844 2.37274 2.38704 2.40134 2.41565 
2.42995 2.44425 2.45855 2.47285 2.48715 2.50145 2.51575 2.53006 2.54436 
2.55866 2.57296 2.58726 2.60156 2.61586 2.62752 2.63168 2.63583 2.63998 
2.64414 2.64829 2.65245 2.6566 2.66076 2.66491 2.66906 2.67322 2.67737 
2.68153 2.68568 2.68984 2.69399 2.69814 2.7023 2.70645 2.71061 2.70335 
2.69578 2.68821 2.68064 2.67307 2.6655 2.65793 2.65036 2.64279 2.63522 
2.62764 2.62007 2.6125 2.60493 2.59736 2.58979 2.58222 2.57465 2.56708 
2.55951 2.54905 2.53727 2.52549 2.5137 2.50192 2.49014 2.47836 2.46658 
2.45479 2.44301 2.43123 2.41945 2.40767 2.39588 2.3841 2.37232 2.36054 
2.34876 2.33697 2.32519 2.31213 2.29711 2.28209 2.26707 2.25205 2.23703 
2.22201 2.20699 2.19197 2.17696 2.16194 2.14692 2.1319 2.11688 2.10186 
2.08684 2.07182 2.05681 2.04179 2.02677 2.01362 2.01607 2.01852 2.02097 
2.02342 2.02587 2.02832 2.03076 2.03321 2.03566 2.03811 2.04056 2.04301 
2.04546 2.04791 2.05035 2.0528 2.05525 2.0577 2.06015 2.0626 2.07515 
2.08993 2.10471 2.11948 2.13426 2.14903 2.16381 2.17859 2.19336 2.20814 
2.22292 2.23769 2.25247 2.26725 2.28202 2.2968 2.31157 2.32635 2.34113 
2.3559 2.36245 2.36186 2.36127 2.36069 2.3601 2.35951 2.35892 2.35833 
2.35774 2.35715 2.35656 2.35597 2.35538 2.35479 2.3542 2.35361 2.35302 
2.35243 2.35184 2.35125 2.35024 2.3482 2.34616 2.34412 2.34207 2.34003 
2.33799 2.33595 2.33391 2.33187 2.32983 2.32779 2.32575 2.32371 2.32167 
2.31963 2.31758 2.31554 2.3135 2.31146 2.3097 2.31591 2.32212 2.32833 
2.33455 2.34076 2.34697 2.35318 2.35939 2.36561 2.37182 2.37803 2.38424 
2.39045 2.39667 2.40288 2.40909 2.4153 2.42151 2.42773 2.43394 2.43387 
2.43169 2.42951 2.42734 2.42516 2.42298 2.4208 2.41862 2.41644 2.41427 
2.41209 2.40991 2.40773 2.40555 2.40338 2.4012 2.39902 2.39684 2.39466 
2.39248 2.3879 2.38051 2.37312 2.36572 2.35833 2.35093 2.34354 2.33615 
2.32875 2.32136 2.31396 2.30657 2.29918 2.29178 2.28439 2.27699 2.2696 
2.26221 2.25481 2.24742 2.24163 2.24351 2.24539 2.24727 2.24916 2.25104 
2.25292 2.2548 2.25669 2.25857 2.26045 2.26234 2.26422 2.2661 2.26798 
2.26987 2.27175 2.27363 2.27552 2.2774 2.27928 2.28646 2.29434 2.30222 
2.3101 2.31798 2.32586 2.33374 2.34162 2.3495 2.35738 2.36526 2.37314 
2.38102 2.3889 2.39678 2.40466 2.41254 2.42042 2.4283 2.43618 2.44591 
2.45689 2.46787 2.47885 2.48984 2.50082 2.5118 2.52278 2.53376 2.54474 
2.55572 2.5667 2.57768 2.58866 2.59964 2.61062 2.6216 2.63259 2.64357 
2.65455 2.66529 2.67552 2.68574 2.69597 2.70619 2.71642 2.72664 2.73687 
2.74709 2.75732 2.76754 2.77777 2.78799 2.79822 2.80844 2.81867 2.82889 
2.83912 2.84934 2.85957 2.86959 2.87107 2.87255 2.87402 2.8755 2.87698 
2.87846 2.87993 2.88141 2.88289 2.88436 2.88584 2.88732 2.88879 2.89027 
2.89175 2.89323 2.8947 2.89618 2.89766 2.89913 2.89805 2.89607 2.89408 
2.8921 2.89011 2.88813 2.88614 2.88416 2.88217 2.88019 2.8782 2.87622 
2.87423 2.87225 2.87026 2.86828 2.86629 2.86431 2.86232 2.86034 2.8586 
2.85717 2.85574 2.8543 2.85287 2.85144 2.85 2.84857 2.84714 2.8457 
2.84427 2.84284 2.8414 2.83997 2.83854 2.8371 2.83567 2.83424 2.8328 
2.83137 2.82978 2.82739 2.825 2.82261 2.82022 2.81782 2.81543 2.81304 
2.81065 2.80826 2.80587 2.80348 2.80109 2.7987 2.79631 2.79391 2.79152 
2.78913 2.78674 2.78435 2.78196 2.77477 2.76689 2.75902 2.75114 2.74326 
2.73538 2.72751 2.71963 2.71175 2.70387 2.696 2.68812 2.68024 2.67237 
2.66449 2.65661 2.64873 2.64086 2.63298 2.6251 2.61575 2.60536 2.59497 
2.58458 2.5742 2.56381 2.55342 2.54303 2.53264 2.52225 2.51187 2.50148 
2.49109 2.4807 2.47031 2.45992 2.44954 2.43915 2.42876 2.41837 2.40659 
2.39161 2.37663 2.36165 2.34667 2.33169 2.31671 2.30173 2.28676 2.27178 
2.2568 2.24182 2.22684 2.21186 2.19688 2.1819 2.16692 2.15194 2.13696 
2.12198 2.10716 2.09957 2.09199 2.0844 2.07682 2.06924 2.06165 2.05407 
2.04648 2.0389 2.03131 2.02373 2.01614 2.00856 2.00097 1.99339 1.9858 
1.97822 1.97063 1.96305 1.95546 1.95882 1.96595 1.97307 1.9802 1.98732 
1.99445 2.00157 2.0087 2.01582 2.02295 2.03007 2.0372 2.04432 2.05145 
2.05858 2.0657 2.07283 2.07995 2.08708 2.0942 2.09752 2.09653 2.09554 
2.09455 2.09356 2.09257 2.09159 2.0906 2.08961 2.08862 2.08763 2.08664 
2.08566 2.08467 2.08368 2.08269 2.0817 2.08071 2.07973 2.07874 2.07656 
2.06999 2.06341 2.05683 2.05025 2.04368 2.0371 2.03052 2.02394 2.01737 
2.01079 2.00421 1.99763 1.99106 1.98448 1.9779 1.97132 1.96475 1.95817 
1.95159 1.94501 1.95015 1.95534 1.96053 1.96572 1.97091 1.9761 1.98129 
1.98648 1.99167 1.99686 2.00205 2.00724 2.01244 2.01763 2.02282 2.02801 
2.0332 2.03839 2.04358 2.04877 2.0565 2.06513 2.07376 2.08239 2.09102 
2.09965 2.10828 2.11691 2.12554 2.13417 2.1428 2.15142 2.16005 2.16868 
2.17731 2.18594 2.19457 2.2032 2.21183 2.22046 2.22873 2.23657 2.24442 
2.25226 2.2601 2.26795 2.27579 2.28363 2.29148 2.29932 2.30716 2.31501 
2.32285 2.33069 2.33854 2.34638 2.35422 2.36207 2.36991 2.37775 2.38507 
2.38979 2.39452 2.39924 2.40397 2.40869 2.41342 2.41814 2.42287 2.42759 
2.43232 2.43704 2.44177 2.44649 2.45122 2.45594 2.46067 2.46539 2.47012 
2.47484 2.47957 2.48 2.48 2.48 2.48 2.48 2.48 2.48 
2.48 2.48 2.48 2.48 2.48 2.48 2.48 2.48 2.48 
2.48 2.48 2.48 2.48 2.48527 2.49659 2.50791 2.51923 2.53054 
2.54186 2.55318 2.5645 2.57582 2.58714 2.59846 2.60978 2.62109 2.63241 
2.64373 2.65505 2.66637 2.67769 2.68901 2.70033 2.71799 2.73709 2.75619 
2.77529 2.79439 2.81349 2.83259 2.85169 2.87079 2.88989 2.90899 2.92809 
2.94719 2.9663 2.9854 3.0045 3.0236 3.0427 3.0618 3.0809 3.1 

TEXTURE_COORDINATES TCoords 2 float
0 0 0.000783085 0 0.00156617 0 0.00234926 0 0.00313234 
0 0.00391543 0 0.00469851 0 0.0054816 0 0.00626468 0 
0.00704777 0 0.00783085 0 0.00861394 0 0.00939702 0 0.0101801 
0 0.0109632 0 0.0117463 0 0.0125294 0 0.0133125 0 
0.0140955 0 0.0148786 0 0.0156617 0 0.0164448 0 0.0172279 
0 0.018011 0 0.018794 0 0.0195771 0 0.0203602 0 
0.0211433 0 0.0219264 0 0.0227095 0 0.0234926 0 0.0242756 
0 0.0250587 0 0.0258418 0 0.0266249 0 0.027408 0 
0.0281911 0 0.0289742 0 0.0297572 0 0.0305403 0 0.0313234 
0 0.0321065 0 0.0328896 0 0.0336727 0 0.0344558 0 
0.0352388 0 0.0360219 0 0.036805 0 0.0375881 0 0.0383712 
0 0.0391543 0 0.0399374 0 0.0407204 0 0.0415035 0 
0.0422866 0 0.0430697 0 0.0438528 0 0.0446359 0 0.045419 
0 0.046202 0 0.0469851 0 0.0477682 0 0.0485513 0 
0.0493344 0 0.0501175 0 0.0509005 0 0.0516836 0 0.0524667 
0 0.0532498 0 0.0540329 0 0.054816 0 0.0555991 0 
0.0563821 0 0.0571652 0 0.0579483 0 0.0587314 0 0.0595145 
0 0.0602976 0 0.0610807 0 0.0618637 0 0.0626468 0 
0.0634299 0 0.064213 0 0.0649961 0 0.0657792 0 0.0665623 
0 0.0673453 0 0.0681284 0 0.0689115 0 0.0696946 0 
0.0704777 0 0.0712608 0 0.0720439 0 0.0728269 0 0.07361 
0 0.0743931 0 0.0751762 0 0.0759593 0 0.0767424 0 
0.0775255 0 0.0783085 0 0.0790916 0 0.0798747 0 0.0806578 
0 0.0814409 0 0.082224 0 0.083007 0 0.0837901 0 
0.0845732 0 0.0853563 0 0.0861394 0 0.0869225 0 0.0877056 
0 0.0884886 0 0.0892717 0 0.0900548 0 0.0908379 0 
0.091621 0 0.0924041 0 0.0931872 0 0.0939702 0 0.0947533 
0 0.0955364 0 0.0963195 0 0.0971026 0 0.0978857 0 
0.0986688 0 0.0994518 0 0.100235 0 0.101018 0 0.101801 
0 0.102584 0 0.103367 0 0.10415 0 0.104933 0 
0.105717 0 0.1065 0 0.107283 0 0.108066 0 0.108849 
0 0.109632 0 0.110415 0 0.111198 0 0.111981 0 
0.112764 0 0.113547 0 0.11433 0 0.115114 0 0.115897 
0 0.11668 0 0.117463 0 0.118246 0 0.119029 0 
0.119812 0 0.120595 0 0.121378 0 0.122161 0 0.122944 
0 0.123727 0 0.124511 0 0.125294 0 0.126077 0 
0.12686 0 0.127643 0 0.128426 0 0.129209 0 0.129992 
0 0.130775 0 0.131558 0 0.132341 0 0.133125 0 
0.133908 0 0.134691 0 0.135474 0 0.136257 0 0.13704 
0 0.137823 0 0.138606 0 0.139389 0 0.140172 0 
0.140955 0 0.141738 0 0.142522 0 0.143305 0 0.144088 
0 0.144871 0 0.145654 0 0.146437 0 0.14722 0 
0.148003 0 0.148786 0 0.149569 0 0.150352 0 0.151135 
0 0.151919 0 0.152702 0 0.153485 0 0.154268 0 
0.155051 0 0.155834 0 0.156617 0 0.1574 0 0.158183 
0 0.158966 0 0.159749 0 0.160533 0 0.161316 0 
0.162099 0 0.162882 0 0.163665 0 0.164448 0 0.165231 
0 0.166014 0 0.166797 0 0.16758 0 0.168363 0 
0.169146 0 0.16993 0 0.170713 0 0.171496 0 0.172279 
0 0.173062 0 0.173845 0 0.174628 0 0.175411 0 
0.176194 0 0.176977 0 0.17776 0 0.178543 0 0.179327 
0 0.18011 0 0.180893 0 0.181676 0 0.182459 0 
0.183242 0 0.184025 0 0.184808 0 0.185591 0 0.186374 
0 0.187157 0 0.18794 0 0.188724 0 0.189507 0 
0.19029 0 0.191073 0 0.191856 0 0.192639 0 0.193422 
0 0.194205 0 0.194988 0 0.195771 0 0.196554 0 
0.197338 0 0.198121 0 0.198904 0 0.199687 0 0.20047 
0 0.201253 0 0.202036 0 0.202819 0 0.203602 0 
0.204385 0 0.205168 0 0.205951 0 0.206735 0 0.207518 
0 0.208301 0 0.209084 0 0.209867 0 0.21065 0 
0.211433 0 0.212216 0 0.212999 0 0.213782 0 0.214565 
0 0.215348 0 0.216132 0 0.216915 0 0.217698 0 
0.218481 0 0.219264 0 0.220047 0 0.22083 0 0.221613 
0 0.222396 0 0.223179 0 0.223962 0 0.224745 0 
0.225529 0 0.226312 0 0.227095 0 0.227878 0 0.228661 
0 0.229444 0 0.230227 0 0.23101 0 0.231793 0 
0.232576 0 0.233359 0 0.234143 0 0.234926 0 0.235709 
0 0.236492 0 0.237275 0 0.238058 0 0.238841 0 
0.239624 0 0.240407 0 0.24119 0 0.241973 0 0.242756 
0 0.24354 0 0.244323 0 0.245106 0 0.245889 0 
0.246672 0 0.247455 0 0.248238 0 0.249021 0 0.249804 
0 0.250587 0 0.25137 0 0.252153 0 0.252937 0 
0.25372 0 0.254503 0 0.255286 0 0.256069 0 0.256852 
0 0.257635 0 0.258418 0 0.259201 0 0.259984 0 
0.260767 0 0.261551 0 0.262334 0 0.263117 0 0.2639 
0 0.264683 0 0.265466 0 0.266249 0 0.267032 0 
0.267815 0 0.268598 0 0.269381 0 0.270164 0 0.270948 
0 0.271731 0 0.272514 0 0.273297 0 0.27408 0 
0.274863 0 0.275646 0 0.276429 0 0.277212 0 0.277995 
0 0.278778 0 0.279561 0 0.280345 0 0.281128 0 
0.281911 0 0.282694 0 0.283477 0 0.28426 0 0.285043 
0 0.285826 0 0.286609 0 0.287392 0 0.288175 0 
0.288958 0 0.289742 0 0.290525 0 0.291308 0 0.292091 
0 0.292874 0 0.293657 0 0.29444 0 0.295223 0 
0.296006 0 0.296789 0 0.297572 0 0.298356 0 0.299139 
0 0.299922 0 0.300705 0 0.301488 0 0.302271 0 
0.303054 0 0.303837 0 0.30462 0 0.305403 0 0.306186 
0 0.306969 0 0.307753 0 0.308536 0 0.309319 0 
0.310102 0 0.310885 0 0.311668 0 0.312451 0 0.313234 
0 0.314017 0 0.3148 0 0.315583 0 0.316366 0 
0.31715 0 0.317933 0 0.318716 0 0.319499 0 0.320282 
0 0.321065 0 0.321848 0 0.322631 0 0.323414 0 
0.324197 0 0.32498 0 0.325763 0 0.326547 0 0.32733 
0 0.328113 0 0.328896 0 0.329679 0 0.330462 0 
0.331245 0 0.332028 0 0.332811 0 0.333594 0 0.334377 
0 0.335161 0 0.335944 0 0.336727 0 0.33751 0 
0.338293 0 0.339076 0 0.339859 0 0.340642 0 0.341425 
0 0.342208 0 0.342991 0 0.343774 0 0.344558 0 
0.345341 0 0.346124 0 0.346907 0 0.34769 0 0.348473 
0 0.349256 0 0.350039 0 0.350822 0 0.351605 0 
0.352388 0 0.353171 0 0.353955 0 0.354738 0 0.355521 
0 0.356304 0 0.357087 0 0.35787 0 0.358653 0 
0.359436 0 0.360219 0 0.361002 0 0.361785 0 0.362569 
0 0.363352 0 0.364135 0 0.364918 0 0.365701 0 
0.366484 0 0.367267 0 0.36805 0 0.368833 0 0.369616 
0 0.370399 0 0.371182 0 0.371966 0 0.372749 0 
0.373532 0 0.374315 0 0.375098 0 0.375881 0 0.376664 
0 0.377447 0 0.37823 0 0.379013 0 0.379796 0 
0.380579 0 0.381363 0 0.382146 0 0.382929 0 0.383712 
0 0.384495 0 0.385278 0 0.386061 0 0.386844 0 
0.387627 0 0.38841 0 0.389193 0 0.389977 0 0.39076 
0 0.391543 0 0.392326 0 0.393109 0 0.393892 0 
0.394675 0 0.395458 0 0.396241 0 0.397024 0 0.397807 
0 0.39859 0 0.399374 0 0.400157 0 0.40094 0 
0.401723 0 0.402506 0 0.403289 0 0.404072 0 0.404855 
0 0.405638 0 0.406421 0 0.407204 0 0.407987 0 
0.408771 0 0.409554 0 0.410337 0 0.41112 0 0.411903 
0 0.412686 0 0.413469 0 0.414252 0 0.415035 0 
0.415818 0 0.416601 0 0.417385 0 0.418168 0 0.418951 
0 0.419734 0 0.420517 0 0.4213 0 0.422083 0 
0.422866 0 0.423649 0 0.424432 0 0.425215 0 0.425998 
0 0.426782 0 0.427565 0 0.428348 0 0.429131 0 
0.429914 0 0.430697 0 0.43148 0 0.432263 0 0.433046 
0 0.433829 0 0.434612 0 0.435395 0 0.436179 0 
0.436962 0 0.437745 0 0.438528 0 0.439311 0 0.440094 
0 0.440877 0 0.44166 0 0.442443 0 0.443226 0 
0.444009 0 0.444792 0 0.445576 0 0.446359 0 0.447142 
0 0.447925 0 0.448708 0 0.449491 0 0.450274 0 
0.451057 0 0.45184 0 0.452623 0 0.453406 0 0.45419 
0 0.454973 0 0.455756 0 0.456539 0 0.457322 0 
0.458105 0 0.458888 0 0.459671 0 0.460454 0 0.461237 
0 0.46202 0 0.462803 0 0.463587 0 0.46437 0 
0.465153 0 0.465936 0 0.466719 0 0.467502 0 0.468285 
0 0.469068 0 0.469851 0 0.470634 0 0.471417 0 
0.4722 0 0.472984 0 0.473767 0 0.47455 0 0.475333 
0 0.476116 0 0.476899 0 0.477682 0 0.478465 0 
0.479248 0 0.480031 0 0.480814 0 0.481597 0 0.482381 
0 0.483164 0 0.483947 0 0.48473 0 0.485513 0 
0.486296 0 0.487079 0 0.487862 0 0.488645 0 0.489428 
0 0.490211 0 0.490995 0 0.491778 0 0.492561 0 
0.493344 0 0.494127 0 0.49491 0 0.495693 0 0.496476 
0 0.497259 0 0.498042 0 0.498825 0 0.499608 0 
0.500392 0 0.501175 0 0.501958 0 0.502741 0 0.503524 
0 0.504307 0 0.50509 0 0.505873 0 0.506656 0 
0.507439 0 0.508222 0 0.509005 0 0.509789 0 0.510572 
0 0.511355 0 0.512138 0 0.512921 0 0.513704 0 
0.514487 0 0.51527 0 0.516053 0 0.516836 0 0.517619 
0 0.518403 0 0.519186 0 0.519969 0 0.520752 0 
0.521535 0 0.522318 0 0.523101 0 0.523884 0 0.524667 
0 0.52545 0 0.526233 0 0.527016 0 0.5278 0 
0.528583 0 0.529366 0 0.530149 0 0.530932 0 0.531715 
0 0.532498 0 0.533281 0 0.534064 0 0.534847 0 
0.53563 0 0.536413 0 0.537197 0 0.53798 0 0.538763 
0 0.539546 0 0.540329 0 0.541112 0 0.541895 0 
0.542678 0 0.543461 0 0.544244 0 0.545027 0 0.545811 
0 0.546594 0 0.547377 0 0.54816 0 0.548943 0 
0.549726 0 0.550509 0 0.551292 0 0.552075 0 0.552858 
0 0.553641 0 0.554424 0 0.555207 0 0.555991 0 
0.556774 0 0.557557 0 0.55834 0 0.559123 0 0.559906 
0 0.560689 0 0.561472 0 0.562255 0 0.563038 0 
0.563821 0 0.564605 0 0.565388 0 0.566171 0 0.566954 
0 0.567737 0 0.56852 0 0.569303 0 0.570086 0 
0.570869 0 0.571652 0 0.572435 0 0.573218 0 0.574002 
0 0.574785 0 0.575568 0 0.576351 0 0.577134 0 
0.577917 0 0.5787 0 0.579483 0 0.580266 0 0.581049 
0 0.581832 0 0.582615 0 0.583399 0 0.584182 0 
0.584965 0 0.585748 0 0.586531 0 0.587314 0 0.588097 
0 0.58888 0 0.589663 0 0.590446 0 0.591229 0 
0.592013 0 0.592796 0 0.593579 0 0.594362 0 0.595145 
0 0.595928 0 0.596711 0 0.597494 0 0.598277 0 
0.59906 0 0.599843 0 0.600626 0 0.60141 0 0.602193 
0 0.602976 0 0.603759 0 0.604542 0 0.605325 0 
0.606108 0 0.606891 0 0.607674 0 0.608457 0 0.60924 
0 0.610023 0 0.610807 0 0.61159 0 0.612373 0 
0.613156 0 0.613939 0 0.614722 0 0.615505 0 0.616288 
0 0.617071 0 0.617854 0 0.618637 0 0.619421 0 
0.620204 0 0.620987 0 0.62177 0 0.622553 0 0.623336 
0 0.624119 0 0.624902 0 0.625685 0 0.626468 0 
0.627251 0 0.628034 0 0.628818 0 0.629601 0 0.630384 
0 0.631167 0 0.63195 0 0.632733 0 0.633516 0 
0.634299 0 0.635082 0 0.635865 0 0.636648 0 0.637432 
0 0.638215 0 0.638998 0 0.639781 0 0.640564 0 
0.641347 0 0.64213 0 0.642913 0 0.643696 0 0.644479 
0 0.645262 0 0.646045 0 0.646829 0 0.647612 0 
0.648395 0 0.649178 0 0.649961 0 0.650744 0 0.651527 
0 0.65231 0 0.653093 0 0.653876 0 0.654659 0 
0.655442 0 0.656226 0 0.657009 0 0.657792 0 0.658575 
0 0.659358 0 0.660141 0 0.660924 0 0.661707 0 
0.66249 0 0.663273 0 0.664056 0 0.664839 0 0.665623 