# vtk DataFile Version 4.2
vtk output
ASCII
DATASET POLYDATA
POINTS 1275 float
0 0 0 -0.00348744 0.00010281 0.00221566 -0.013665 0.000412323 0.00866014 
-0.0301057 0.000930165 0.0190297 -0.0523823 0.00165796 0.0330206 -0.0800678 0.00259733 0.0503291 
-0.112735 0.00374991 0.0706515 -0.149957 0.00511731 0.0936839 -0.191307 0.00670116 0.119123 
-0.236357 0.00850309 0.146664 -0.284681 0.0105247 0.176005 -0.335851 0.0127677 0.20684 
-0.38944 0.0152336 0.238867 -0.445022 0.0179241 0.271781 -0.502168 0.0208408 0.30528 
-0.560453 0.0239853 0.339059 -0.619448 0.0273592 0.372814 -0.678728 0.0309643 0.406241 
-0.737864 0.034802 0.439038 -0.79643 0.0388741 0.4709 -0.853999 0.0431821 0.501523 
-0.910146 0.0477276 0.530607 -0.964642 0.0525067 0.557998 -1.01757 0.0575066 0.583782 
-1.06904 0.0627141 0.608067 -1.11917 0.0681156 0.630959 -1.16805 0.0736977 0.652566 
-1.21581 0.079447 0.672994 -1.26256 0.08535 0.692352 -1.3084 0.0913933 0.710744 
-1.35344 0.0975635 0.72828 -1.3978 0.103847 0.745065 -1.44159 0.110231 0.761207 
-1.48491 0.116701 0.776814 -1.52788 0.123244 0.791991 -1.57061 0.129847 0.806846 
-1.6132 0.136497 0.821486 -1.65577 0.143179 0.836018 -1.69843 0.14988 0.850549 
-1.74129 0.156588 0.865187 -1.78446 0.163288 0.880038 -1.82805 0.169967 0.895208 
-1.8721 0.176616 0.910747 -1.91659 0.183232 0.926643 -1.96148 0.189811 0.942876 
-2.00675 0.196348 0.959429 -2.05236 0.202842 0.976282 -2.09829 0.209287 0.993419 
-2.14449 0.215682 1.01082 -2.19094 0.222021 1.02847 -2.23761 0.228302 1.04634 
-2.28446 0.234521 1.06443 -2.33146 0.240675 1.0827 -2.37859 0.246759 1.10115 
-2.4258 0.252771 1.11976 -2.47307 0.258707 1.1385 -2.52036 0.264563 1.15736 
-2.56765 0.270336 1.17632 -2.6149 0.276023 1.19536 -2.66209 0.281619 1.21447 
-2.70917 0.287121 1.23362 -2.75611 0.292526 1.2528 -2.80291 0.297829 1.272 
-2.84955 0.303021 1.29122 -2.89604 0.308095 1.31047 -2.94239 0.313041 1.32978 
-2.98861 0.317852 1.34914 -3.0347 0.322518 1.36857 -3.08066 0.327032 1.38808 
-3.12651 0.331384 1.40767 -3.17224 0.335566 1.42737 -3.21787 0.33957 1.44718 
-3.2634 0.343387 1.46712 -3.30883 0.347009 1.48718 -3.35417 0.350426 1.5074 
-3.39943 0.353632 1.52776 -3.44461 0.356616 1.54829 -3.48971 0.359371 1.569 
-3.53475 0.361888 1.5899 -3.57973 0.364159 1.61099 -3.62466 0.366175 1.63229 
-3.66953 0.367927 1.65382 -3.71436 0.369406 1.67557 -3.75914 0.3706 1.69755 
-3.80386 0.371492 1.71976 -3.84852 0.372068 1.7422 -3.8931 0.372315 1.76487 
-3.9376 0.372215 1.78776 -3.98201 0.371756 1.81088 -4.02633 0.370922 1.83422 
-4.07054 0.369699 1.85778 -4.11464 0.368071 1.88157 -4.15862 0.366023 1.90557 
-4.20247 0.363542 1.92979 -4.24619 0.360613 1.95422 -4.28977 0.357219 1.97888 
-4.3332 0.353348 2.00374 -4.37647 0.348983 2.02882 -4.41957 0.34411 2.05411 
-4.4625 0.338715 2.07962 -4.50525 0.332783 2.10533 -4.54782 0.326298 2.13125 
-4.59018 0.319247 2.15737 -4.63234 0.311617 2.1837 -4.67429 0.303398 2.21022 
-4.716 0.294581 2.23691 -4.75746 0.285155 2.26378 -4.79867 0.27511 2.29082 
-4.83961 0.264437 2.318 -4.88027 0.253125 2.34533 -4.92064 0.241164 2.37279 
-4.96071 0.228545 2.40038 -5.00045 0.215257 2.42808 -5.03987 0.20129 2.45589 
-5.07894 0.186635 2.4838 -5.11765 0.171281 2.51179 -5.156 0.155218 2.53986 
-5.19397 0.138437 2.568 -5.23155 0.120927 2.5962 -5.26873 0.102678 2.62444 
-5.30549 0.0836807 2.65273 -5.34181 0.0639246 2.68104 -5.3777 0.0434002 2.70938 
-5.41314 0.0221085 2.73773 -5.44813 6.4371e-05 2.76608 -5.48267 -0.0227164 2.79442 
-5.51676 -0.0462182 2.82275 -5.5504 -0.0704252 2.85105 -5.58359 -0.0953217 2.87931 
-5.61633 -0.120892 2.90753 -5.64861 -0.14712 2.9357 -5.68045 -0.173991 2.9638 
-5.71183 -0.201488 2.99183 -5.74276 -0.229596 3.01977 -5.77324 -0.2583 3.04763 
-5.80326 -0.287583 3.07538 -5.83283 -0.317429 3.10302 -5.86195 -0.347824 3.13054 
-5.89061 -0.37875 3.15793 -5.91881 -0.410194 3.18518 -5.94657 -0.442138 3.21229 
-5.97386 -0.474567 3.23923 -6.0007 -0.507466 3.26601 -6.02709 -0.540818 3.29261 
-6.05303 -0.57461 3.31905 -6.07855 -0.608827 3.34531 -6.10366 -0.643456 3.3714 
-6.12836 -0.67848 3.39732 -6.15267 -0.713887 3.42308 -6.17661 -0.749661 3.44868 
-6.20019 -0.785789 3.47412 -6.22342 -0.822255 3.49939 -6.24631 -0.859047 3.52451 
-6.26888 -0.896148 3.54948 -6.29114 -0.933545 3.57429 -6.31311 -0.971224 3.59895 
-6.33479 -1.00917 3.62346 -6.3562 -1.04737 3.64782 -6.37736 -1.08581 3.67203 
-6.39827 -1.12447 3.6961 -6.41895 -1.16334 3.72003 -6.43942 -1.20241 3.74382 
-6.45968 -1.24165 3.76748 -6.47975 -1.28107 3.79099 -6.49964 -1.32064 3.81437 
-6.51936 -1.36037 3.83762 -6.53892 -1.40025 3.86072 -6.55833 -1.44027 3.88369 
-6.57761 -1.48043 3.90653 -6.59676 -1.52072 3.92923 -6.6158 -1.56114 3.95179 
-6.63474 -1.60167 3.97422 -6.65358 -1.64232 3.99651 -6.67234 -1.68307 4.01866 
-6.69103 -1.72393 4.04068 -6.70966 -1.76489 4.06256 -6.72824 -1.80593 4.0843 
-6.74678 -1.84706 4.10591 -6.76529 -1.88827 4.12738 -6.78379 -1.92955 4.14871 
-6.80228 -1.9709 4.16991 -6.82078 -2.01231 4.19097 -6.83929 -2.05377 4.21189 
-6.85783 -2.09529 4.23267 -6.87641 -2.13685 4.25332 -6.89504 -2.17846 4.27381 
-6.91374 -2.22011 4.29415 -6.93252 -2.2618 4.31433 -6.95139 -2.30353 4.33433 
-6.97037 -2.34531 4.35417 -6.98946 -2.38711 4.37381 -7.00869 -2.42896 4.39327 
-7.02806 -2.47084 4.41253 -7.04759 -2.51274 4.43158 -7.06729 -2.55468 4.45042 
-7.08718 -2.59665 4.46904 -7.10726 -2.63865 4.48744 -7.12755 -2.68067 4.5056 
-7.14807 -2.72271 4.52352 -7.16883 -2.76478 4.5412 -7.18984 -2.80687 4.55862 
-7.21111 -2.84897 4.57578 -7.23266 -2.8911 4.59267 -7.2545 -2.93323 4.60928 
-7.27663 -2.97539 4.6256 -7.29906 -3.01755 4.64157 -7.32178 -3.05974 4.65715 
-7.34479 -3.10193 4.67229 -7.36807 -3.14413 4.68695 -7.39163 -3.18635 4.70106 
-7.41547 -3.22858 4.7146 -7.43958 -3.27082 4.72751 -7.46395 -3.31307 4.73974 
-7.48858 -3.35534 4.75124 -7.51348 -3.39761 4.76198 -7.53862 -3.43989 4.77189 
-7.56402 -3.48218 4.78094 -7.58966 -3.52447 4.78907 -7.61555 -3.56678 4.79624 
-7.64167 -3.60909 4.8024 -7.66803 -3.65141 4.80751 -7.69462 -3.69373 4.81151 
-7.72144 -3.73606 4.81436 -7.74848 -3.7784 4.816 -7.77572 -3.82074 4.81642 
-7.80312 -3.86307 4.8156 -7.83061 -3.90539 4.81356 -7.85815 -3.94767 4.8103 
-7.88567 -3.98992 4.80583 -7.91312 -4.03212 4.80015 -7.94043 -4.07426 4.79327 
-7.96756 -4.11633 4.78521 -7.99444 -4.15832 4.77596 -8.02101 -4.20022 4.76553 
-8.04723 -4.24202 4.75393 -8.07303 -4.28371 4.74117 -8.09835 -4.32527 4.72725 
-8.12314 -4.3667 4.71219 -8.14735 -4.40799 4.69598 -8.17091 -4.44912 4.67863 
-8.19376 -4.49009 4.66016 -8.21585 -4.53088 4.64057 -8.23713 -4.57149 4.61986 
-8.25753 -4.6119 4.59804 -8.27701 -4.65211 4.57514 -8.29556 -4.69212 4.55118 
-8.31318 -4.73193 4.52623 -8.32989 -4.77154 4.50033 -8.34569 -4.81098 4.47353 
-8.36057 -4.85023 4.4459 -8.37455 -4.8893 4.41747 -8.38763 -4.9282 4.3883 
-8.39981 -4.96694 4.35845 -8.41109 -5.00551 4.32796 -8.42148 -5.04393 4.29688 
-8.43099 -5.08219 4.26526 -8.43962 -5.12031 4.23317 -8.44737 -5.15828 4.20064 
-8.45425 -5.19612 4.16774 -8.46026 -5.23383 4.1345 -8.4654 -5.2714 4.10099 
-8.46969 -5.30886 4.06725 -8.47311 -5.34619 4.03334 -8.47569 -5.38342 3.99931 
-8.47742 -5.42053 3.9652 -8.47832 -5.45754 3.93103 -8.4784 -5.49443 3.8968 
-8.47768 -5.5312 3.86252 -8.47619 -5.56785 3.82819 -8.47394 -5.60438 3.79381 
-8.47095 -5.64078 3.75938 -8.46723 -5.67705 3.72492 -8.46281 -5.71318 3.69041 
-8.4577 -5.74917 3.65587 -8.45192 -5.78502 3.62129 -8.44549 -5.82072 3.58669 
-8.43842 -5.85628 3.55206 -8.43074 -5.89168 3.5174 -8.42246 -5.92692 3.48273 
-8.41361 -5.962 3.44803 -8.40419 -5.99691 3.41332 -8.39423 -6.03166 3.3786 
-8.38375 -6.06623 3.34387 -8.37276 -6.10063 3.30914 -8.36127 -6.13485 3.2744 
-8.34931 -6.16889 3.23966 -8.33687 -6.20276 3.20493 -8.32395 -6.23646 3.17023 
-8.31055 -6.26999 3.13556 -8.29667 -6.30337 3.10092 -8.28232 -6.3366 3.06634 
-8.26749 -6.36967 3.03181 -8.25218 -6.4026 2.99734 -8.23639 -6.4354 2.96295 
-8.22013 -6.46806 2.92865 -8.2034 -6.50059 2.89443 -8.18619 -6.53299 2.86032 
-8.16851 -6.56528 2.82632 -8.15036 -6.59746 2.79244 -8.13173 -6.62952 2.75868 
-8.11263 -6.66148 2.72506 -8.09307 -6.69335 2.69159 -8.07303 -6.72512 2.65827 
-8.05252 -6.75679 2.62512 -8.03154 -6.78839 2.59214 -8.01011 -6.81989 2.55933 
-7.98825 -6.85129 2.52666 -7.966 -6.88255 2.49409 -7.94339 -6.91365 2.46162 
-7.92046 -6.94458 2.42919 -7.89724 -6.9753 2.39679 -7.87376 -7.0058 2.36439 
-7.85006 -7.03605 2.33195 -7.82617 -7.06603 2.29945 -7.80212 -7.09571 2.26686 
-7.77795 -7.12508 2.23415 -7.75368 -7.15411 2.20129 -7.72936 -7.18278 2.16825 
-7.70502 -7.21106 2.135 -7.68069 -7.23893 2.10152 -7.6564 -7.26638 2.06777 
-7.63219 -7.29337 2.03373 -7.60809 -7.31989 1.99937 -7.58414 -7.3459 1.96465 
-7.56036 -7.3714 1.92955 -7.53677 -7.39637 1.89407 -7.51327 -7.42088 1.8583 
-7.48976 -7.44503 1.82235 -7.46612 -7.46889 1.78632 -7.44225 -7.49255 1.75034 
-7.41805 -7.51608 1.71452 -7.39339 -7.53959 1.67896 -7.36818 -7.56314 1.64378 
-7.3423 -7.58683 1.60908 -7.31564 -7.61074 1.57499 -7.2881 -7.63496 1.5416 
-7.25957 -7.65956 1.50904 -7.22993 -7.68463 1.47741 -7.19908 -7.71026 1.44683 
-7.16691 -7.73653 1.4174 -7.13332 -7.76352 1.38925 -7.09818 -7.79133 1.36247 
-7.0614 -7.82002 1.33718 -7.02286 -7.8497 1.31349 -6.98246 -7.88044 1.29152 
-6.94013 -7.91229 1.27137 -6.89614 -7.94511 1.25315 -6.85085 -7.97869 1.23696 
-6.80464 -8.0128 1.2229 -6.7579 -8.04721 1.21108 -6.711 -8.08172 1.20158 
-6.66432 -8.1161 1.19453 -6.61824 -8.15013 1.19001 -6.57313 -8.18358 1.18813 
-6.52938 -8.21624 1.18898 -6.48736 -8.24789 1.19268 -6.44745 -8.27831 1.19933 
-6.41003 -8.30727 1.20901 -6.37547 -8.33456 1.22184 -6.34416 -8.35995 1.23792 
-6.31646 -8.38323 1.25735 -6.29277 -8.40417 1.28023 -6.27345 -8.42255 1.30666 
-6.25865 -8.4383 1.33662 -6.24813 -8.45154 1.36991 -6.24162 -8.46242 1.4063 
-6.23887 -8.47111 1.44558 -6.23961 -8.47773 1.48752 -6.24357 -8.48246 1.5319 
-6.25049 -8.48544 1.5785 -6.2601 -8.48682 1.6271 -6.27215 -8.48674 1.67748 
-6.28636 -8.48537 1.72942 -6.30248 -8.48286 1.78269 -6.32023 -8.47934 1.83707 
[...]
CELL_DATA 1
FIELD FieldData 2
Length 1 1 double
63.68419957 
Tortuosity 1 1 double
0.93892591701 
POINT_DATA 1275
SCALARS MaximumInscribedSphereRadius float
LOOKUP_TABLE default
1.24 1.24 1.24 1.24 1.24 1.24 1.24 1.24 1.24 
1.24 1.24 1.24 1.24 1.24 1.24 1.24 1.24 1.24 
1.24 1.24 1.24 1.24031 1.24128 1.24226 1.24323 1.2442 1.24517 
1.24614 1.24711 1.24809 1.24906 1.25003 1.251 1.25197 1.25294 1.25391 
1.25489 1.25586 1.25683 1.2578 1.25877 1.25805 1.25504 1.25202 1.24901 
1.246 1.24298 1.23997 1.23696 1.23394 1.23093 1.22792 1.2249 1.22189 
1.21888 1.21586 1.21285 1.20984 1.20682 1.20381 1.2008 1.19645 1.18611 
1.17576 1.16542 1.15507 1.14473 1.13438 1.12404 1.11369 1.10335 1.093 
1.08266 1.07231 1.06197 1.05162 1.04127 1.03093 1.02058 1.01024 0.999894 
0.989549 0.985938 0.983048 0.980159 0.977269 0.97438 0.97149 0.9686 0.965711 
0.962821 0.959932 0.957042 0.954153 0.951263 0.948373 0.945484 0.942594 0.939705 
0.936815 0.933926 0.931036 0.93 0.93 0.93 0.93 0.93 0.93 
0.93 0.93 0.93 0.93 0.93 0.93 0.93 0.93 0.93 
0.93 0.93 0.93 0.93 0.93 0.930873 0.933001 0.935129 0.937258 
0.939386 0.941514 0.943642 0.945771 0.947899 0.950027 0.952155 0.954284 0.956412 
0.95854 0.960669 0.962797 0.964925 0.967053 0.969182 0.97131 0.975032 0.985832 
0.996632 1.00743 1.01823 1.02903 1.03983 1.05063 1.06143 1.07223 1.08303 
1.09383 1.10463 1.11543 1.12623 1.13703 1.14783 1.15863 1.16943 1.18023 
1.19103 1.2017 1.21236 1.22302 1.23368 1.24434 1.255 1.26566 1.27632 
1.28698 1.29764 1.3083 1.31896 1.32962 1.34028 1.35094 1.3616 1.37226 
1.38292 1.39358 1.40424 1.4098 1.41251 1.41523 1.41795 1.42067 1.42339 
1.42611 1.42883 1.43154 1.43426 1.43698 1.4397 1.44242 1.44514 1.44786 
1.45057 1.45329 1.45601 1.45873 1.46145 1.46119 1.45579 1.45039 1.44499 
1.43959 1.43419 1.42879 1.42339 1.41799 1.41259 1.40719 1.40179 1.39639 
1.391 1.3856 1.3802 1.3748 1.3694 1.364 1.3586 1.35606 1.37273 
1.38939 1.40605 1.42271 1.43938 1.45604 1.4727 1.48936 1.50603 1.52269 
1.53935 1.55601 1.57268 1.58934 1.606 1.62266 1.63933 1.65599 1.67265 
1.68917 1.69703 1.70488 1.71274 1.72059 1.72844 1.7363 1.74415 1.75201 
1.75986 1.76771 1.77557 1.78342 1.79128 1.79913 1.80698 1.81484 1.82269 
1.83054 1.8384 1.84625 1.8303 1.80919 1.78809 1.76698 1.74588 1.72477 
1.70367 1.68256 1.66145 1.64035 1.61924 1.59814 1.57703 1.55592 1.53482 
1.51371 1.49261 1.4715 1.45039 1.42929 1.41198 1.39742 1.38285 1.36829 
1.35372 1.33916 1.32459 1.31003 1.29546 1.2809 1.26633 1.25177 1.2372 
1.22264 1.20808 1.19351 1.17895 1.16438 1.14982 1.13525 1.12335 1.11715 
1.11096 1.10477 1.09858 1.09239 1.0862 1.08001 1.07382 1.06763 1.06144 
1.05524 1.04905 1.04286 1.03667 1.03048 1.02429 1.0181 1.01191 1.00572 
1.00049 1.01355 1.02661 1.03966 1.05272 1.06578 1.07884 1.0919 1.10496 
1.11802 1.13108 1.14414 1.1572 1.17026 1.18332 1.19638 1.20944 1.2225 
1.23556 1.24861 1.26167 1.28671 1.31393 1.34116 1.36838 1.3956 1.42283 
1.45005 1.47727 1.5045 1.53172 1.55894 1.58617 1.61339 1.64061 1.66784 
1.69506 1.72228 1.73856 1.7322 1.72584 1.71948 1.71312 1.70676 1.7004 
1.69404 1.68768 1.68132 1.67496 1.6686 1.66224 1.65588 1.64952 1.64316 
1.63681 1.63045 1.62409 1.61773 1.61137 1.60547 1.60271 1.59995 1.59719 
1.59444 1.59168 1.58892 1.58616 1.5834 1.58064 1.57788 1.57512 1.57236 
1.5696 1.56684 1.56408 1.56132 1.55856 1.5558 1.55304 1.55028 1.55 
1.55 1.55 1.55 1.55 1.55 1.55 1.55 1.55 1.55 
1.55 1.55 1.55 1.55 1.55 1.55 1.55 1.55 1.55 
1.55 1.55 1.55 1.55 1.55 1.55 1.55 1.55 1.55 
1.55 1.55 1.55 1.55 1.55 1.55 1.55 1.55 1.55 
1.55 1.55 1.55 1.54628 1.53629 1.5263 1.51631 1.50632 1.49633 
1.48634 1.47636 1.46637 1.45638 1.44639 1.4364 1.42641 1.41642 1.40643 
1.39644 1.38645 1.37647 1.36648 1.35649 1.34812 1.35297 1.35781 1.36266 
1.36751 1.37235 1.3772 1.38205 1.38689 1.39174 1.39659 1.40143 1.40628 
1.41113 1.41597 1.42082 1.42567 1.43051 1.43536 1.44021 1.44505 1.45089 
1.45681 1.46274 1.46866 1.47459 1.48052 1.48644 1.49237 1.49829 1.50422 
1.51015 1.51607 1.522 1.52792 1.53385 1.53978 1.5457 1.55163 1.55755 
1.56348 1.56822 1.57257 1.57692 1.58127 1.58562 1.58997 1.59433 1.59868 
1.60303 1.60738 1.61173 1.61608 1.62044 1.62479 1.62914 1.63349 1.63784 
1.64219 1.64655 1.6509 1.658 1.66742 1.67684 1.68627 1.69569 1.70512 
1.71454 1.72396 1.73339 1.74281 1.75223 1.76166 1.77108 1.7805 1.78993 
1.79935 1.80878 1.8182 1.82762 1.83705 1.84372 1.84454 1.84536 1.84618 
1.84699 1.84781 1.84863 1.84945 1.85027 1.85108 1.8519 1.85272 1.85354 
1.85436 1.85517 1.85599 1.85681 1.85763 1.85845 1.85926 1.86 1.86 
1.86 1.86 1.86 1.86 1.86 1.86 1.86 1.86 1.86 
1.86 1.86 1.86 1.86 1.86 1.86 1.86 1.86 1.86 
1.86 1.86 1.86 1.86 1.86 1.86 1.86 1.86 1.86 
1.86 1.86 1.86 1.86 1.86 1.86 1.86 1.86 1.86 
1.86 1.86 1.86 1.859 1.85749 1.85597 1.85446 1.85294 1.85142 
1.84991 1.84839 1.84688 1.84536 1.84384 1.84233 1.84081 1.8393 1.83778 
1.83626 1.83475 1.83323 1.83172 1.8302 1.82521 1.81501 1.80482 1.79462 
1.78443 1.77423 1.76403 1.75384 1.74364 1.73345 1.72325 1.71305 1.70286 
1.69266 1.68247 1.67227 1.66208 1.65188 1.64168 1.63149 1.62227 1.61867 
1.61507 1.61147 1.60787 1.60427 1.60067 1.59707 1.59347 1.58987 1.58627 
1.58267 1.57907 1.57548 1.57188 1.56828 1.56468 1.56108 1.55748 1.55388 
1.55028 1.55 1.55 1.55 1.55 1.55 1.55 1.55 1.55 
1.55 1.55 1.55 1.55 1.55 1.55 1.55 1.55 1.55 
1.55 1.55 1.55 1.55038 1.55094 1.5515 1.55207 1.55263 1.55319 
1.55375 1.55431 1.55487 1.55543 1.55599 1.55656 1.55712 1.55768 1.55824 
1.5588 1.55936 1.55992 1.56048 1.56104 1.56519 1.57426 1.58334 1.59242 
1.60149 1.61057 1.61965 1.62872 1.6378 1.64687 1.65595 1.66503 1.6741 
1.68318 1.69226 1.70133 1.71041 1.71948 1.72856 1.73764 1.74539 1.74593 
1.74647 1.747 1.74754 1.74808 1.74862 1.74915 1.74969 1.75023 1.75076 
1.7513 1.75184 1.75238 1.75291 1.75345 1.75399 1.75452 1.75506 1.7556 
1.75613 1.75019 1.74349 1.7368 1.73011 1.72342 1.71672 1.71003 1.70334 
1.69665 1.68995 1.68326 1.67657 1.66988 1.66318 1.65649 1.6498 1.64311 
1.63641 1.62972 1.62303 1.62613 1.63464 1.64314 1.65164 1.66015 1.66865 
1.67716 1.68566 1.69416 1.70267 1.71117 1.71968 1.72818 1.73669 1.74519 
1.75369 1.7622 1.7707 1.77921 1.78771 1.79714 1.80806 1.81897 1.82989 
1.84081 1.85173 1.86265 1.87357 1.88449 1.89541 1.90633 1.91725 1.92817 
1.93909 1.95001 1.96093 1.97185 1.98277 1.99369 2.00461 2.01461 2.01705 
2.01948 2.02191 2.02435 2.02678 2.02921 2.03165 2.03408 2.03651 2.03895 
2.04138 2.04381 2.04625 2.04868 2.05112 2.05355 2.05598 2.05842 2.06085 
2.06328 2.0493 2.03191 2.01453 1.99714 1.97976 1.96238 1.94499 1.92761 
1.91023 1.89284 1.87546 1.85807 1.84069 1.82331 1.80592 1.78854 1.77115 
1.75377 1.73639 1.719 1.70264 1.68711 1.67158 1.65605 1.64052 1.62499 
1.60946 1.59393 1.57841 1.56288 1.54735 1.53182 1.51629 1.50076 1.48523 
1.4697 1.45417 1.43864 1.42312 1.40759 1.3985 1.40694 1.41538 1.42382 
1.43226 1.4407 1.44914 1.45758 1.46603 1.47447 1.48291 1.49135 1.49979 
1.50823 1.51667 1.52511 1.53355 1.54199 1.55043 1.55888 1.56732 1.59404 
1.62099 1.64794 1.67489 1.70184 1.7288 1.75575 1.7827 1.80965 1.8366 
1.86355 1.8905 1.91745 1.9444 1.97136 1.99831 2.02526 2.05221 2.07916 
2.10611 2.10764 2.09868 2.08973 2.08077 2.07182 2.06286 2.05391 2.04495 
2.036 2.02704 2.01809 2.00913 2.00018 1.99122 1.98227 1.97331 1.96436 
1.9554 1.94645 1.93749 1.93402 1.93781 1.94159 1.94538 1.94916 1.95295 
1.95673 1.96052 1.9643 1.96809 1.97188 1.97566 1.97945 1.98323 1.98702 
1.9908 1.99459 1.99837 2.00216 2.00594 2.01032 2.01779 2.02525 2.03272 
2.04018 2.04765 2.05511 2.06258 2.07004 2.07751 2.08497 2.09243 2.0999 
2.10736 2.11483 2.12229 2.12976 2.13722 2.14469 2.15215 2.15962 2.16085 
2.16147 2.16208 2.1627 2.16331 2.16393 2.16454 2.16516 2.16577 2.16639 
2.16701 2.16762 2.16824 2.16885 2.16947 2.17008 2.1707 2.17132 2.17193 
2.17255 2.17329 2.17408 2.17488 2.17567 2.17647 2.17727 2.17806 2.17886 
2.17965 2.18045 2.18125 2.18204 2.18284 2.18363 2.18443 2.18523 2.18602 
2.18682 2.18761 2.18841 2.18319 2.17091 2.15863 2.14635 2.13407 2.12178 
2.1095 2.09722 2.08494 2.07266 2.06037 2.04809 2.03581 2.02353 2.01125 
1.99896 1.98668 1.9744 1.96212 1.94984 1.93771 1.92619 1.91467 1.90315 
1.89163 1.88011 1.86858 1.85706 1.84554 1.83402 1.8225 1.81098 1.79945 
1.78793 1.77641 1.76489 1.75337 1.74184 1.73032 1.7188 1.70728 1.71377 
1.72114 1.72851 1.73588 1.74325 1.75062 1.75799 1.76536 1.77273 1.7801 
1.78747 1.79484 1.80221 1.80958 1.81695 1.82432 1.83169 1.83906 1.84643 
1.8538 1.85658 1.8573 1.85801 1.85873 1.85945 1.86017 1.86089 1.86161 
1.86233 1.86304 1.86376 1.86448 1.8652 1.86592 1.86664 1.86736 1.86807 
1.86879 1.86951 1.87023 1.87238 1.87645 1.88052 1.88459 1.88866 1.89273 
1.89679 1.90086 1.90493 1.909 1.91307 1.91713 1.9212 1.92527 1.92934 
1.93341 1.93748 1.94154 1.94561 1.94968 1.95504 1.96652 1.978 1.98948 
2.00096 2.01244 2.02392 2.0354 2.04688 2.05836 2.06984 2.08132 2.0928 
2.10428 2.11576 2.12724 2.13872 2.1502 2.16168 2.17316 2.18464 2.19519 
2.20567 2.21615 2.22663 2.23711 2.2476 2.25808 2.26856 2.27904 2.28952 
2.3 2.31048 2.32096 2.33144 2.34192 2.3524 2.36288 2.37336 2.38384 
2.39432 2.39651 2.39449 2.39247 2.39045 2.38844 2.38642 2.3844 2.38238 
2.38036 2.37834 2.37632 2.3743 2.37228 2.37027 2.36825 2.36623 2.36421 
2.36219 2.36017 2.35815 2.35579 2.35288 2.34997 2.34706 2.34415 2.34124 
2.33833 2.33542 2.3325 2.32959 2.32668 2.32377 2.32086 2.31795 2.31504 
2.31213 2.30922 2.30631 2.3034 2.30049 2.2991 2.30965 2.3202 2.33075 
2.3413 2.35186 2.36241 2.37296 2.38351 2.39406 2.40462 2.41517 2.42572 
2.43627 2.44682 2.45738 2.46793 2.47848 2.48903 2.49958 2.51014 2.54116 
2.5763 2.61144 2.64657 2.68171 2.71685 2.75199 2.78712 2.82226 2.8574 
2.89254 2.92767 2.96281 2.99795 3.03309 3.06822 3.10336 3.1385 3.17363 
3.20877 3.22711 3.23399 3.24087 3.24776 3.25464 3.26152 3.2684 3.27528 
3.28216 3.28905 3.29593 3.30281 3.30969 3.31657 3.32346 3.33034 3.33722 
3.3441 3.35098 3.35786 3.32935 3.28689 3.24442 3.20195 3.15948 3.11702 
3.07455 3.03208 2.98961 2.94714 2.90468 2.86221 2.81974 2.77727 2.73481 
2.69234 2.64987 2.6074 2.56494 2.52247 2.48 
TEXTURE_COORDINATES TCoords 2 float
0 0 0.000784929 0 0.00156986 0 0.00235479 0 0.00313972 
0 0.00392465 0 0.00470958 0 0.00549451 0 0.00627944 0 
0.00706436 0 0.00784929 0 0.00863422 0 0.00941915 0 0.0102041 
0 0.010989 0 0.0117739 0 0.0125589 0 0.0133438 0 
0.0141287 0 0.0149137 0 0.0156986 0 0.0164835 0 0.0172684 
0 0.0180534 0 0.0188383 0 0.0196232 0 0.0204082 0 
0.0211931 0 0.021978 0 0.022763 0 0.0235479 0 0.0243328 
0 0.0251177 0 0.0259027 0 0.0266876 0 0.0274725 0 
0.0282575 0 0.0290424 0 0.0298273 0 0.0306122 0 0.0313972 
0 0.0321821 0 0.032967 0 0.033752 0 0.0345369 0 
0.0353218 0 0.0361068 0 0.0368917 0 0.0376766 0 0.0384615 
0 0.0392465 0 0.0400314 0 0.0408163 0 0.0416013 0 
0.0423862 0 0.0431711 0 0.043956 0 0.044741 0 0.0455259 
0 0.0463108 0 0.0470958 0 0.0478807 0 0.0486656 0 
0.0494506 0 0.0502355 0 0.0510204 0 0.0518053 0 0.0525903 
0 0.0533752 0 0.0541601 0 0.0549451 0 0.05573 0 
0.0565149 0 0.0572998 0 0.0580848 0 0.0588697 0 0.0596546 
0 0.0604396 0 0.0612245 0 0.0620094 0 0.0627944 0 
0.0635793 0 0.0643642 0 0.0651491 0 0.0659341 0 0.066719 
0 0.0675039 0 0.0682889 0 0.0690738 0 0.0698587 0 
0.0706436 0 0.0714286 0 0.0722135 0 0.0729984 0 0.0737834 
0 0.0745683 0 0.0753532 0 0.0761381 0 0.0769231 0 
0.077708 0 0.0784929 0 0.0792779 0 0.0800628 0 0.0808477 
0 0.0816327 0 0.0824176 0 0.0832025 0 0.0839874 0 
0.0847724 0 0.0855573 0 0.0863422 0 0.0871272 0 0.0879121 
0 0.088697 0 0.0894819 0 0.0902669 0 0.0910518 0 
0.0918367 0 0.0926217 0 0.0934066 0 0.0941915 0 0.0949765 
0 0.0957614 0 0.0965463 0 0.0973312 0 0.0981162 0 
0.0989011 0 0.099686 0 0.100471 0 0.101256 0 0.102041 
0 0.102826 0 0.103611 0 0.104396 0 0.105181 0 
0.105965 0 0.10675 0 0.107535 0 0.10832 0 0.109105 
0 0.10989 0 0.110675 0 0.11146 0 0.112245 0 
0.11303 0 0.113815 0 0.1146 0 0.115385 0 0.11617 
0 0.116954 0 0.117739 0 0.118524 0 0.119309 0 
0.120094 0 0.120879 0 0.121664 0 0.122449 0 0.123234 
0 0.124019 0 0.124804 0 0.125589 0 0.126374 0 
0.127159 0 0.127943 0 0.128728 0 0.129513 0 0.130298 
0 0.131083 0 0.131868 0 0.132653 0 0.133438 0 
0.134223 0 0.135008 0 0.135793 0 0.136578 0 0.137363 
0 0.138148 0 0.138932 0 0.139717 0 0.140502 0 
0.141287 0 0.142072 0 0.142857 0 0.143642 0 0.144427 
0 0.145212 0 0.145997 0 0.146782 0 0.147567 0 
0.148352 0 0.149137 0 0.149922 0 0.150706 0 0.151491 
0 0.152276 0 0.153061 0 0.153846 0 0.154631 0 
0.155416 0 0.156201 0 0.156986 0 0.157771 0 0.158556 
0 0.159341 0 0.160126 0 0.160911 0 0.161695 0 
0.16248 0 0.163265 0 0.16405 0 0.164835 0 0.16562 
0 0.166405 0 0.16719 0 0.167975 0 0.16876 0 
0.169545 0 0.17033 0 0.171115 0 0.1719 0 0.172684 
0 0.173469 0 0.174254 0 0.175039 0 0.175824 0 
0.176609 0 0.177394 0 0.178179 0 0.178964 0 0.179749 
0 0.180534 0 0.181319 0 0.182104 0 0.182889 0 
0.183673 0 0.184458 0 0.185243 0 0.186028 0 0.186813 
0 0.187598 0 0.188383 0 0.189168 0 0.189953 0 
0.190738 0 0.191523 0 0.192308 0 0.193093 0 0.193878 
0 0.194662 0 0.195447 0 0.196232 0 0.197017 0 
0.197802 0 0.198587 0 0.199372 0 0.200157 0 0.200942 
0 0.201727 0 0.202512 0 0.203297 0 0.204082 0 
0.204867 0 0.205651 0 0.206436 0 0.207221 0 0.208006 
0 0.208791 0 0.209576 0 0.210361 0 0.211146 0 
0.211931 0 0.212716 0 0.213501 0 0.214286 0 0.215071 
0 0.215856 0 0.216641 0 0.217425 0 0.21821 0 
0.218995 0 0.21978 0 0.220565 0 0.22135 0 0.222135 
0 0.22292 0 0.223705 0 0.22449 0 0.225275 0 
0.22606 0 0.226845 0 0.22763 0 0.228414 0 0.229199 
0 0.229984 0 0.230769 0 0.231554 0 0.232339 0 
0.233124 0 0.233909 0 0.234694 0 0.235479 0 0.236264 
0 0.237049 0 0.237834 0 0.238619 0 0.239403 0 
0.240188 0 0.240973 0 0.241758 0 0.242543 0 0.243328 
0 0.244113 0 0.244898 0 0.245683 0 0.246468 0 
0.247253 0 0.248038 0 0.248823 0 0.249608 0 0.250392 
0 0.251177 0 0.251962 0 0.252747 0 0.253532 0 
0.254317 0 0.255102 0 0.255887 0 0.256672 0 0.257457 
0 0.258242 0 0.259027 0 0.259812 0 0.260597 0 
0.261381 0 0.262166 0 0.262951 0 0.263736 0 0.264521 
0 0.265306 0 0.266091 0 0.266876 0 0.267661 0 
0.268446 0 0.269231 0 0.270016 0 0.270801 0 0.271586 
0 0.27237 0 0.273155 0 0.27394 0 0.274725 0 
0.27551 0 0.276295 0 0.27708 0 0.277865 0 0.27865 
0 0.279435 0 0.28022 0 0.281005 0 0.28179 0 
0.282575 0 0.283359 0 0.284144 0 0.284929 0 0.285714 
0 0.286499 0 0.287284 0 0.288069 0 0.288854 0 
0.289639 0 0.290424 0 0.291209 0 0.291994 0 0.292779 
0 0.293564 0 0.294349 0 0.295133 0 0.295918 0 
0.296703 0 0.297488 0 0.298273 0 0.299058 0 0.299843 
0 0.300628 0 0.301413 0 0.302198 0 0.302983 0 
0.303768 0 0.304553 0 0.305338 0 0.306122 0 0.306907 
0 0.307692 0 0.308477 0 0.309262 0 0.310047 0 
0.310832 0 0.311617 0 0.312402 0 0.313187 0 0.313972 
0 0.314757 0 0.315542 0 0.316327 0 0.317111 0 
0.317896 0 0.318681 0 0.319466 0 0.320251 0 0.321036 
0 0.321821 0 0.322606 0 0.323391 0 0.324176 0 
0.324961 0 0.325746 0 0.326531 0 0.327316 0 0.3281 
0 0.328885 0 0.32967 0 0.330455 0 0.33124 0 
0.332025 0 0.33281 0 0.333595 0 0.33438 0 0.335165 
0 0.33595 0 0.336735 0 0.33752 0 0.338305 0 
0.339089 0 0.339874 0 0.340659 0 0.341444 0 0.342229 
0 0.343014 0 0.343799 0 0.344584 0 0.345369 0 
0.346154 0 0.346939 0 0.347724 0 0.348509 0 0.349294 
0 0.350078 0 0.350863 0 0.351648 0 0.352433 0 
0.353218 0 0.354003 0 0.354788 0 0.355573 0 0.356358 
0 0.357143 0 0.357928 0 0.358713 0 0.359498 0 
0.360283 0 0.361068 0 0.361852 0 0.362637 0 0.363422 
0 0.364207 0 0.364992 0 0.365777 0 0.366562 0 
0.367347 0 0.368132 0 0.368917 0 0.369702 0 0.370487 
0 0.371272 0 0.372057 0 0.372841 0 0.373626 0 
0.374411 0 0.375196 0 0.375981 0 0.376766 0 0.377551 
0 0.378336 0 0.379121 0 0.379906 0 0.380691 0 
0.381476 0 0.382261 0 0.383046 0 0.38383 0 0.384615 
0 0.3854 0 0.386185 0 0.38697 0 0.387755 0 
0.38854 0 0.389325 0 0.39011 0 0.390895 0 0.39168 
0 0.392465 0 0.39325 0 0.394035 0 0.394819 0 
0.395604 0 0.396389 0 0.397174 0 0.397959 0 0.398744 
0 0.399529 0 0.400314 0 0.401099 0 0.401884 0 
0.402669 0 0.403454 0 0.404239 0 0.405024 0 0.405808 
0 0.406593 0 0.407378 0 0.408163 0 0.408948 0 
0.409733 0 0.410518 0 0.411303 0 0.412088 0 0.412873 
0 0.413658 0 0.414443 0 0.415228 0 0.416013 0 
0.416797 0 0.417582 0 0.418367 0 0.419152 0 0.419937 
0 0.420722 0 0.421507 0 0.422292 0 0.423077 0 
0.423862 0 0.424647 0 0.425432 0 0.426217 0 0.427002 
0 0.427786 0 0.428571 0 0.429356 0 0.430141 0 
0.430926 0 0.431711 0 0.432496 0 0.433281 0 0.434066 
0 0.434851 0 0.435636 0 0.436421 0 0.437206 0 
0.437991 0 0.438776 0 0.43956 0 0.440345 0 0.44113 
0 0.441915 0 0.4427 0 0.443485 0 0.44427 0 
0.445055 0 0.44584 0 0.446625 0 0.44741 0 0.448195 
0 0.44898 0 0.449765 0 0.450549 0 0.451334 0 
0.452119 0 0.452904 0 0.453689 0 0.454474 0 0.455259 
0 0.456044 0 0.456829 0 0.457614 0 0.458399 0 
0.459184 0 0.459969 0 0.460754 0 0.461538 0 0.462323 
0 0.463108 0 0.463893 0 0.464678 0 0.465463 0 
0.466248 0 0.467033 0 0.467818 0 0.468603 0 0.469388 
0 0.470173 0 0.470958 0 0.471743 0 0.472527 0 
0.473312 0 0.474097 0 0.474882 0 0.475667 0 0.476452 
0 0.477237 0 0.478022 0 0.478807 0 0.479592 0 
0.480377 0 0.481162 0 0.481947 0 0.482732 0 0.483516 
0 0.484301 0 0.485086 0 0.485871 0 0.486656 0 
0.487441 0 0.488226 0 0.489011 0 0.489796 0 0.490581 
0 0.491366 0 0.492151 0 0.492936 0 0.493721 0 
0.494505 0 0.49529 0 0.496075 0 0.49686 0 0.497645 
0 0.49843 0 0.499215 0 0.5 0 0.500785 0 
0.50157 0 0.502355 0 0.50314 0 0.503925 0 0.50471 
0 0.505495 0 0.506279 0 0.507064 0 0.507849 0 
0.508634 0 0.509419 0 0.510204 0 0.510989 0 0.511774 
0 0.512559 0 0.513344 0 0.514129 0 0.514914 0 
0.515699 0 0.516484 0 0.517268 0 0.518053 0 0.518838 
0 0.519623 0 0.520408 0 0.521193 0 0.521978 0 
0.522763 0 0.523548 0 0.524333 0 0.525118 0 0.525903 
0 0.526688 0 0.527473 0 0.528257 0 0.529042 0 
0.529827 0 0.530612 0 0.531397 0 0.532182 0 0.532967 
0 0.533752 0 0.534537 0 0.535322 0 0.536107 0 
0.536892 0 0.537677 0 0.538462 0 0.539246 0 0.540031 
0 0.540816 0 0.541601 0 0.542386 0 0.543171 0 
0.543956 0 0.544741 0 0.545526 0 0.546311 0 0.547096 
0 0.547881 0 0.548666 0 0.549451 0 0.550235 0 
0.55102 0 0.551805 0 0.55259 0 0.553375 0 0.55416 
0 0.554945 0 0.55573 0 0.556515 0 0.5573 0 
0.558085 0 0.55887 0 0.559655 0 0.56044 0 0.561224 
0 0.562009 0 0.562794 0 0.563579 0 0.564364 0 
0.565149 0 0.565934 0 0.566719 0 0.567504 0 0.568289 
0 0.569074 0 0.569859 0 0.570644 0 0.571429 0 
0.572214 0 0.572998 0 0.573783 0 0.574568 0 0.575353 
0 0.576138 0 0.576923 0 0.577708 0 0.578493 0 
0.579278 0 0.580063 0 0.580848 0 0.581633 0 0.582418 
0 0.583203 0 0.583987 0 0.584772 0 0.585557 0 
0.586342 0 0.587127 0 0.587912 0 0.588697 0 0.589482 
0 0.590267 0 0.591052 0 0.591837 0 0.592622 0 
0.593407 0 0.594192 0 0.594976 0 0.595761 0 0.596546 
0 0.597331 0 0.598116 0 0.598901 0 0.599686 0 
0.600471 0 0.601256 0 0.602041 0 0.602826 0 0.603611 
0 0.604396 0 0.605181 0 0.605965 0 0.60675 0 
0.607535 0 0.60832 0 0.609105 0 0.60989 0 0.610675 
0 0.61146 0 0.612245 0 0.61303 0 0.613815 0 
0.6146 0 0.615385 0 0.61617 0 0.616954 0 0.617739 
0 0.618524 0 0.619309 0 0.620094 0 0.620879 0 
0.621664 0 0.622449 0 0.623234 0 0.624019 0 0.624804 
0 0.625589 0 0.626374 0 0.627159 0 0.627943 0 
0.628728 0 0.629513 0 0.630298 0 0.631083 0 0.631868 
0 0.632653 0 0.633438 0 0.634223 0 0.635008 0 
0.635793 0 0.636578 0 0.637363 0 0.638148 0 0.638932 
0 0.639717 0 0.640502 0 0.641287 0 0.642072 0 
0.642857 0 0.643642 0 0.644427 0 0.645212 0 0.645997 
0 0.646782 0 0.647567 0 0.648352 0 0.649137 0 
0.649922 0 0.650706 0 0.651491 0 0.652276 0 0.653061 
0 0.653846 0 0.654631 0 0.655416 0 0.656201 0 
0.656986 0 0.657771 0 0.658556 0 0.659341 0 0.660126 
0 0.660911 0 0.661695 0 0.66248 0 0.663265 0 
0.66405 0 0.664835 0 0.66562 0 0.666405 0 0.66719 
0 0.667975 0 0.66876 0 0.669545 0 0.67033 0 
0.671115 0 0.6719 0 0.672684 0 0.673469 0 0.674254 
0 0.675039 0 0.675824 0 0.676609 0 0.677394 0 
0.678179 0 0.678964 0 0.679749 0 0.680534 0 0.681319 
0 0.682104 0 0.682889 0 0.683673 0 0.684458 0 
0.685243 0 0.686028 0 0.686813 0 0.687598 0 0.688383 
0 0.689168 0 0.689953 0 0.690738 0 0.691523 0 