# vtk DataFile Version 4.2
vtk output
ASCII
DATASET POLYDATA
POINTS 1276 float
0 0 0 -0.00267976 0.00168877 0.0026908 -0.010518 0.00658584 0.0105206 
-0.0232129 0.0144374 0.0231255 -0.0404631 0.0249896 0.0401416 -0.0619667 0.0379886 0.061205 
-0.0874221 0.0531806 0.0859519 -0.116528 0.0703117 0.114018 -0.148982 0.0891282 0.14504 
-0.184483 0.109376 0.178654 -0.222729 0.130802 0.214496 -0.263419 0.153151 0.252201 
-0.306251 0.17617 0.291407 -0.350924 0.199606 0.331749 -0.397135 0.223204 0.372863 
-0.444583 0.24671 0.414385 -0.492966 0.269871 0.455952 -0.541983 0.292433 0.4972 
-0.591332 0.314142 0.537764 -0.640712 0.334744 0.577281 -0.68982 0.353985 0.615387 
-0.738356 0.371612 0.651719 -0.786122 0.387469 0.686049 -0.83315 0.401614 0.718449 
-0.8795 0.414133 0.749031 -0.925236 0.425115 0.777908 -0.970418 0.434646 0.805192 
-1.01511 0.442814 0.830996 -1.05937 0.449704 0.855432 -1.10327 0.455406 0.878612 
-1.14686 0.460005 0.900649 -1.19021 0.463589 0.921655 -1.23338 0.466244 0.941742 
-1.27643 0.468059 0.961024 -1.31942 0.46912 0.979611 -1.36241 0.469514 0.997617 
-1.40548 0.469328 1.01515 -1.44867 0.46865 1.03234 -1.49205 0.467567 1.04927 
-1.53569 0.466165 1.06608 -1.57964 0.464531 1.08286 -1.62397 0.462753 1.09974 
-1.66869 0.460871 1.11676 -1.71379 0.45888 1.1339 -1.75923 0.456772 1.15117 
-1.805 0.45454 1.16853 -1.85107 0.452175 1.18597 -1.89742 0.449669 1.20348 
-1.94401 0.447016 1.22103 -1.99082 0.444206 1.23863 -2.03784 0.441231 1.25623 
-2.08503 0.438085 1.27385 -2.13237 0.434759 1.29144 -2.17984 0.431245 1.30901 
-2.2274 0.427535 1.32653 -2.27504 0.423621 1.34399 -2.32273 0.419496 1.36137 
-2.37044 0.415151 1.37865 -2.41816 0.410579 1.39583 -2.46585 0.405771 1.41287 
-2.51349 0.40072 1.42978 -2.56105 0.395418 1.44653 -2.60852 0.389862 1.46311 
-2.65591 0.384066 1.47954 -2.7032 0.378042 1.49583 -2.75042 0.371805 1.512 
-2.79755 0.365369 1.52807 -2.84461 0.358747 1.54405 -2.8916 0.351953 1.55995 
-2.93853 0.345001 1.5758 -2.98539 0.337906 1.5916 -3.03219 0.33068 1.60738 
-3.07893 0.323337 1.62314 -3.12563 0.315893 1.63891 -3.17227 0.30836 1.65471 
-3.21888 0.300752 1.67054 -3.26544 0.293083 1.68642 -3.31197 0.285368 1.70237 
-3.35847 0.277619 1.71841 -3.40493 0.269851 1.73455 -3.45138 0.262078 1.7508 
-3.4978 0.254314 1.76718 -3.54421 0.246571 1.78372 -3.5906 0.238855 1.8004 
-3.63696 0.231173 1.81723 -3.6833 0.223527 1.83423 -3.72962 0.215924 1.85138 
-3.7759 0.208366 1.86869 -3.82215 0.20086 1.88617 -3.86836 0.193409 1.90382 
-3.91453 0.186019 1.92163 -3.96065 0.178693 1.93962 -4.00673 0.171436 1.95778 
-4.05276 0.164253 1.97612 -4.09874 0.157149 1.99464 -4.14466 0.150128 2.01334 
-4.19052 0.143194 2.03222 -4.23632 0.136353 2.05129 -4.28205 0.129609 2.07055 
-4.32772 0.122965 2.09001 -4.37331 0.116428 2.10965 -4.41882 0.110002 2.1295 
-4.46426 0.103691 2.14954 -4.50962 0.0974977 2.16979 -4.5549 0.0914248 2.19024 
-4.6001 0.0854742 2.21088 -4.64522 0.0796479 2.23173 -4.69026 0.0739479 2.25277 
-4.73521 0.0683762 2.27402 -4.78008 0.0629348 2.29546 -4.82487 0.0576259 2.31711 
-4.86958 0.0524513 2.33895 -4.9142 0.0474131 2.36099 -4.95874 0.0425134 2.38323 
-5.00319 0.0377541 2.40566 -5.04756 0.0331373 2.4283 -5.09184 0.028665 2.45113 
-5.13604 0.0243393 2.47416 -5.18015 0.020162 2.49738 -5.22417 0.0161354 2.5208 
-5.26811 0.0122613 2.54442 -5.31196 0.00854183 2.56824 -5.35572 0.00497893 2.59225 
-5.39939 0.00157157 2.61645 -5.44298 -0.00168611 2.64084 -5.48648 -0.00480037 2.66541 
-5.52989 -0.00777747 2.69016 -5.57322 -0.0106237 2.71507 -5.61646 -0.0133453 2.74014 
-5.65962 -0.0159485 2.76537 -5.7027 -0.0184396 2.79075 -5.7457 -0.0208249 2.81627 
-5.78862 -0.0231106 2.84192 -5.83145 -0.025303 2.8677 -5.87421 -0.0274084 2.89361 
-5.91689 -0.029433 2.91963 -5.9595 -0.0313831 2.94576 -6.00202 -0.0332649 2.97199 
-6.04447 -0.0350848 2.99832 -6.08685 -0.0368489 3.02473 -6.12916 -0.0385636 3.05123 
-6.17139 -0.0402351 3.07781 -6.21355 -0.0418697 3.10446 -6.25564 -0.0434747 3.13117 
-6.29766 -0.0450615 3.15794 -6.33964 -0.0466422 3.18477 -6.38157 -0.0482289 3.21164 
-6.42347 -0.0498337 3.23856 -6.46534 -0.051469 3.26553 -6.5072 -0.0531467 3.29252 
-6.54905 -0.0548791 3.31955 -6.5909 -0.0566782 3.34661 -6.63277 -0.0585564 3.37369 
-6.67466 -0.0605256 3.40079 -6.71657 -0.0625981 3.4279 -6.75853 -0.064786 3.45502 
-6.80053 -0.0671014 3.48215 -6.84259 -0.0695566 3.50927 -6.88472 -0.0721636 3.5364 
-6.92692 -0.0749346 3.56351 -6.9692 -0.0778818 3.5906 -7.01159 -0.0810174 3.61768 
-7.05407 -0.0843534 3.64474 -7.09667 -0.0879054 3.67177 -7.13937 -0.0917179 3.69873 
-7.18216 -0.0958504 3.72559 -7.22504 -0.100362 3.75229 -7.26799 -0.105313 3.7788 
-7.31101 -0.110762 3.80506 -7.35407 -0.116769 3.83104 -7.39718 -0.123394 3.85668 
-7.44031 -0.130695 3.88195 -7.48346 -0.138732 3.90679 -7.52661 -0.147565 3.93117 
-7.56976 -0.157254 3.95504 -7.61289 -0.167857 3.97834 -7.65599 -0.179435 4.00105 
-7.69906 -0.192046 4.02311 -7.74207 -0.20575 4.04447 -7.78502 -0.220607 4.0651 
-7.82791 -0.236676 4.08495 -7.8707 -0.254017 4.10397 -7.9134 -0.272688 4.12212 
-7.956 -0.292749 4.13935 -7.99846 -0.314207 4.15564 -8.04073 -0.337021 4.17097 
-8.08278 -0.36115 4.18535 -8.12454 -0.386548 4.19875 -8.16597 -0.413174 4.21117 
-8.20702 -0.440984 4.2226 -8.24765 -0.469935 4.23303 -8.2878 -0.499984 4.24245 
-8.32743 -0.531088 4.25086 -8.36648 -0.563203 4.25824 -8.40492 -0.596286 4.26458 
-8.44268 -0.630294 4.26988 -8.47973 -0.665185 4.27413 -8.51601 -0.700915 4.27732 
-8.55147 -0.73744 4.27943 -8.58608 -0.774718 4.28046 -8.61977 -0.812705 4.28041 
-8.65249 -0.851359 4.27925 -8.68421 -0.890636 4.27699 -8.71488 -0.930493 4.27361 
-8.74448 -0.970893 4.26913 -8.77304 -1.0118 4.26358 -8.8006 -1.05319 4.25701 
-8.82718 -1.09502 4.24944 -8.85283 -1.13727 4.24092 -8.87756 -1.17989 4.23148 
-8.90141 -1.22287 4.22115 -8.92441 -1.26615 4.20998 -8.9466 -1.30973 4.19801 
-8.968 -1.35355 4.18526 -8.98865 -1.39759 4.17178 -9.00857 -1.44182 4.1576 
-9.0278 -1.48621 4.14276 -9.04637 -1.53071 4.1273 -9.06431 -1.5753 4.11125 
-9.08165 -1.61996 4.09466 -9.09842 -1.66463 4.07755 -9.11466 -1.7093 4.05996 
-9.13039 -1.75393 4.04193 -9.14564 -1.79848 4.02351 -9.16045 -1.84294 4.00471 
-9.17481 -1.88731 3.98553 -9.18873 -1.93157 3.96599 -9.20223 -1.97574 3.94608 
-9.21529 -2.01981 3.92581 -9.22794 -2.06377 3.90518 -9.24017 -2.10764 3.8842 
-9.25199 -2.1514 3.86286 -9.26341 -2.19505 3.84117 -9.27443 -2.2386 3.81913 
-9.28506 -2.28204 3.79675 -9.29531 -2.32538 3.77403 -9.30518 -2.3686 3.75097 
-9.31468 -2.41172 3.72758 -9.32381 -2.45473 3.70385 -9.33257 -2.49762 3.6798 
-9.34099 -2.5404 3.65542 -9.34905 -2.58307 3.63072 -9.35677 -2.62562 3.60569 
-9.36415 -2.66806 3.58035 -9.3712 -2.71038 3.5547 -9.37792 -2.75258 3.52873 
-9.38432 -2.79465 3.50246 -9.39039 -2.8366 3.47589 -9.39614 -2.87842 3.44902 
-9.40157 -2.9201 3.42186 -9.40669 -2.96165 3.39441 -9.4115 -3.00306 3.36668 
-9.41599 -3.04432 3.33866 -9.42018 -3.08544 3.31036 -9.42407 -3.12641 3.2818 
-9.42765 -3.16722 3.25296 -9.43094 -3.20788 3.22386 -9.43392 -3.24838 3.1945 
-9.43662 -3.28871 3.16488 -9.43903 -3.32888 3.13501 -9.44114 -3.36888 3.10489 
-9.44298 -3.40871 3.07453 -9.44453 -3.44836 3.04393 -9.4458 -3.48783 3.01309 
-9.4468 -3.52712 2.98202 -9.44752 -3.56623 2.95072 -9.44796 -3.60515 2.91919 
-9.44813 -3.64388 2.88744 -9.44803 -3.68242 2.85547 -9.44765 -3.72077 2.82328 
-9.447 -3.75893 2.79088 -9.44607 -3.7969 2.75826 -9.44488 -3.83468 2.72543 
-9.44341 -3.87225 2.69238 -9.44167 -3.90963 2.65914 -9.43966 -3.94682 2.62569 
-9.43738 -3.9838 2.59204 -9.43482 -4.02058 2.55818 -9.432 -4.05716 2.52414 
-9.42891 -4.09353 2.4899 -9.42555 -4.1297 2.45546 -9.42192 -4.16566 2.42084 
-9.41802 -4.20142 2.38604 -9.41385 -4.23696 2.35104 -9.40942 -4.27229 2.31587 
-9.40472 -4.30741 2.28052 -9.39976 -4.34232 2.24499 -9.39453 -4.37701 2.20929 
-9.38905 -4.41149 2.17342 -9.3833 -4.44574 2.13738 -9.3773 -4.47978 2.10117 
-9.37104 -4.5136 2.06479 -9.36453 -4.5472 2.02826 -9.35777 -4.58057 1.99156 
-9.35077 -4.61372 1.95471 -9.34351 -4.64664 1.91771 -9.33601 -4.67934 1.88055 
-9.32826 -4.71181 1.84324 -9.32028 -4.74405 1.80578 -9.31205 -4.77606 1.76818 
-9.30359 -4.80783 1.73044 -9.29489 -4.83937 1.69255 -9.28596 -4.87068 1.65453 
-9.27679 -4.90175 1.61638 -9.2674 -4.93259 1.57809 -9.25778 -4.96319 1.53967 
-9.24793 -4.99355 1.50112 -9.23787 -5.02367 1.46244 -9.22759 -5.05356 1.42364 
-9.2171 -5.08321 1.38471 -9.20641 -5.11263 1.34567 -9.19552 -5.14181 1.3065 
-9.18443 -5.17076 1.26722 -9.17315 -5.19948 1.22782 -9.16168 -5.22796 1.1883 
-9.15003 -5.25622 1.14867 -9.1382 -5.28425 1.10894 -9.12619 -5.31204 1.06909 
-9.11401 -5.33961 1.02913 -9.10168 -5.36695 0.989073 -9.08917 -5.39407 0.948909 
-9.07652 -5.42096 0.908643 -9.06371 -5.44762 0.868277 -9.05075 -5.47406 0.827813 
-9.03765 -5.50027 0.787253 -9.02441 -5.52627 0.746598 -9.01104 -5.55204 0.70585 
-8.99753 -5.57759 0.665012 -8.9839 -5.60293 0.624084 -8.97013 -5.62805 0.58307 
-8.95624 -5.65297 0.541971 -8.94223 -5.67768 0.500789 -8.9281 -5.70219 0.459526 
-8.91386 -5.72649 0.418184 -8.8995 -5.7506 0.376765 -8.88503 -5.77451 0.33527 
-8.87045 -5.79823 0.293703 -8.85577 -5.82176 0.252064 -8.84098 -5.8451 0.210356 
-8.8261 -5.86826 0.168581 -8.81112 -5.89124 0.12674 -8.79604 -5.91404 0.0848356 
-8.78087 -5.93666 0.0428699 -8.76562 -5.95911 0.000844595 -8.75028 -5.98139 -0.0412383 
-8.73486 -6.0035 -0.0833767 -8.71935 -6.02544 -0.125568 -8.70376 -6.04723 -0.16781 
-8.68808 -6.06886 -0.210099 -8.67232 -6.09034 -0.252433 -8.65647 -6.11166 -0.294809 
-8.64053 -6.13285 -0.337224 -8.6245 -6.15389 -0.379674 -8.60838 -6.17479 -0.422158 
-8.59216 -6.19556 -0.464672 -8.57585 -6.2162 -0.507214 -8.55945 -6.23671 -0.54978 
-8.54294 -6.2571 -0.592368 -8.52634 -6.27738 -0.634975 -8.50964 -6.29753 -0.677599 
-8.49284 -6.31758 -0.720235 -8.47593 -6.33752 -0.762882 -8.45892 -6.35735 -0.805537 
-8.4418 -6.37708 -0.848196 -8.42458 -6.39672 -0.890857 -8.40725 -6.41627 -0.933517 
-8.38981 -6.43572 -0.976173 -8.37226 -6.4551 -1.01882 -8.3546 -6.47439 -1.06146 
[...]
CELL_DATA 1
FIELD FieldData 2
Length 1 1 double
63.768907045 
Tortuosity 1 1 double
1.8574671015 
POINT_DATA 1276
SCALARS MaximumInscribedSphereRadius float
LOOKUP_TABLE default
1.24 1.21935 1.1987 1.17805 1.1574 1.13676 1.11611 1.09546 1.07481 
1.05416 1.03351 1.01286 0.992212 0.971564 0.950915 0.930266 0.909617 0.888968 
0.868319 0.84767 0.827021 0.808607 0.798985 0.789362 0.77974 0.770117 0.760495 
0.750872 0.74125 0.731627 0.722004 0.712382 0.702759 0.693137 0.683514 0.673892 
0.664269 0.654647 0.645024 0.635402 0.625779 0.623759 0.630585 0.637411 0.644238 
0.651064 0.65789 0.664716 0.671543 0.678369 0.685195 0.692021 0.698847 0.705674 
0.7125 0.719326 0.726152 0.732979 0.739805 0.746631 0.753457 0.763619 0.788114 
0.812609 0.837104 0.861599 0.886093 0.910589 0.935084 0.959579 0.984073 1.00857 
1.03306 1.05756 1.08205 1.10655 1.13104 1.15554 1.18003 1.20453 1.22902 
1.25352 1.24618 1.23505 1.22392 1.21279 1.20166 1.19052 1.17939 1.16826 
1.15713 1.14599 1.13486 1.12373 1.1126 1.10147 1.09033 1.0792 1.06807 
1.05694 1.0458 1.03467 1.02001 1.00308 0.986144 0.96921 0.952276 0.935342 
0.918407 0.901473 0.884539 0.867605 0.850671 0.833737 0.816803 0.799869 0.782935 
0.766001 0.749067 0.732133 0.715199 0.698265 0.686946 0.687243 0.687541 0.687838 
0.688136 0.688434 0.688731 0.689029 0.689326 0.689624 0.689921 0.690219 0.690516 
0.690814 0.691111 0.691409 0.691706 0.692004 0.692301 0.692599 0.693656 0.712391 
0.731125 0.74986 0.768594 0.787329 0.806063 0.824798 0.843532 0.862267 0.881001 
0.899736 0.91847 0.937205 0.955939 0.974674 0.993408 1.01214 1.03088 1.04961 
1.06835 1.06485 1.05409 1.04334 1.03258 1.02182 1.01106 1.00031 0.98955 
0.978793 0.968035 0.957278 0.94652 0.935763 0.925006 0.914248 0.903491 0.892733 
0.881976 0.871219 0.860461 0.855065 0.85527 0.855475 0.85568 0.855885 0.85609 
0.856295 0.8565 0.856705 0.85691 0.857115 0.85732 0.857525 0.85773 0.857935 
0.85814 0.858344 0.858549 0.858754 0.858959 0.865885 0.879689 0.893494 0.907299 
0.921103 0.934908 0.948713 0.962518 0.976322 0.990127 1.00393 1.01774 1.03154 
1.04535 1.05915 1.07296 1.08676 1.10056 1.11437 1.12817 1.13737 1.13448 
1.13158 1.12868 1.12579 1.12289 1.12 1.1171 1.11421 1.11131 1.10841 
1.10552 1.10262 1.09973 1.09683 1.09394 1.09104 1.08814 1.08525 1.08235 
1.07941 1.07203 1.06466 1.05729 1.04991 1.04254 1.03516 1.02779 1.02042 
1.01304 1.00567 0.998297 0.990923 0.98355 0.976176 0.968803 0.961429 0.954055 
0.946682 0.939308 0.931935 0.93 0.93 0.93 0.93 0.93 0.93 
0.93 0.93 0.93 0.93 0.93 0.93 0.93 0.93 0.93 
0.93 0.93 0.93 0.93 0.93 0.93 0.93 0.93 0.93 
0.93 0.93 0.93 0.93 0.93 0.93 0.93 0.93 0.93 
0.93 0.93 0.93 0.93 0.93 0.93 0.93 0.93 0.93 
0.93 0.93 0.93 0.93 0.93 0.93 0.93 0.93 0.93 
0.93 0.93 0.93 0.93 0.93 0.93 0.93 0.93 0.93 
0.93 0.93 0.93 0.93 0.93 0.93 0.93 0.93 0.93 
0.93 0.93 0.93 0.93 0.93 0.93 0.93 0.93 0.93 
0.93 0.93 0.93 0.93 0.93 0.93 0.93 0.93 0.93 
0.93 0.93 0.93 0.93 0.93 0.93 0.93 0.93 0.93 
0.93 0.93 0.93 0.93 0.93 0.930372 0.931481 0.93259 0.933699 
0.934808 0.935917 0.937026 0.938135 0.939245 0.940354 0.941463 0.942572 0.943681 
0.94479 0.945899 0.947008 0.948118 0.949227 0.950336 0.951445 0.953175 0.96703 
0.980884 0.994738 1.00859 1.02245 1.0363 1.05016 1.06401 1.07786 1.09172 
1.10557 1.11943 1.13328 1.14714 1.16099 1.17485 1.1887 1.20255 1.21641 
1.23026 1.24546 1.26107 1.27667 1.29228 1.30789 1.32349 1.3391 1.35471 
1.37032 1.38592 1.40153 1.41714 1.43275 1.44835 1.46396 1.47957 1.49518 
1.51078 1.52639 1.542 1.55036 1.55111 1.55185 1.5526 1.55334 1.55409 
1.55483 1.55558 1.55632 1.55706 1.55781 1.55855 1.5593 1.56004 1.56079 
1.56153 1.56228 1.56302 1.56377 1.56451 1.56615 1.57066 1.57518 1.5797 
1.58422 1.58874 1.59326 1.59778 1.60229 1.60681 1.61133 1.61585 1.62037 
1.62489 1.62941 1.63392 1.63844 1.64296 1.64748 1.652 1.65397 1.62444 
1.5949 1.56537 1.53584 1.5063 1.47677 1.44724 1.4177 1.38817 1.35864 
1.3291 1.29957 1.27004 1.2405 1.21097 1.18144 1.1519 1.12237 1.09284 
1.07356 1.08924 1.10492 1.12061 1.13629 1.15197 1.16765 1.18334 1.19902 
1.2147 1.23039 1.24607 1.26175 1.27743 1.29312 1.3088 1.32448 1.34017 
1.35585 1.37153 1.38619 1.38419 1.38218 1.38017 1.37816 1.37615 1.37414 
1.37213 1.37013 1.36812 1.36611 1.3641 1.36209 1.36008 1.35808 1.35607 
1.35406 1.35205 1.35004 1.34803 1.34602 1.34135 1.33613 1.33091 1.32569 
1.32047 1.31524 1.31002 1.3048 1.29958 1.29436 1.28914 1.28391 1.27869 
1.27347 1.26825 1.26303 1.25781 1.25258 1.24736 1.24214 1.24299 1.24806 
1.25313 1.2582 1.26326 1.26833 1.2734 1.27847 1.28354 1.28861 1.29367 
1.29874 1.30381 1.30888 1.31395 1.31902 1.32408 1.32915 1.33422 1.33929 
1.34685 1.35907 1.3713 1.38352 1.39574 1.40796 1.42018 1.4324 1.44463 
1.45685 1.46907 1.48129 1.49351 1.50573 1.51796 1.53018 1.5424 1.55462 
1.56684 1.57906 1.59098 1.60003 1.60907 1.61811 1.62715 1.63619 1.64523 
1.65427 1.66332 1.67236 1.6814 1.69044 1.69948 1.70852 1.71757 1.72661 
1.73565 1.74469 1.75373 1.76277 1.77181 1.77845 1.78458 1.79071 1.79684 
1.80296 1.80909 1.81522 1.82135 1.82748 1.83361 1.83974 1.84586 1.85199 
1.85812 1.86425 1.87038 1.87651 1.88263 1.88876 1.89489 1.89835 1.89964 
1.90094 1.90223 1.90352 1.90481 1.9061 1.90739 1.90868 1.90998 1.91127 
1.91256 1.91385 1.91514 1.91643 1.91772 1.91901 1.92031 1.9216 1.92289 
1.92243 1.91743 1.91244 1.90744 1.90245 1.89746 1.89246 1.88747 1.88248 
1.87748 1.87249 1.86749 1.8625 1.85751 1.85251 1.84752 1.84253 1.83753 
1.83254 1.82754 1.82245 1.81227 1.80209 1.7919 1.78172 1.77154 1.76136 
1.75118 1.74099 1.73081 1.72063 1.71045 1.70027 1.69009 1.6799 1.66972 
1.65954 1.64936 1.63918 1.629 1.61881 1.62367 1.63208 1.64049 1.6489 
1.65731 1.66572 1.67413 1.68254 1.69095 1.69936 1.70777 1.71618 1.72459 
1.733 1.74141 1.74981 1.75822 1.76663 1.77504 1.78345 1.78878 1.79242 
1.79606 1.79969 1.80333 1.80697 1.8106 1.81424 1.81788 1.82151 1.82515 
1.82878 1.83242 1.83606 1.83969 1.84333 1.84697 1.8506 1.85424 1.85788 
1.85799 1.85316 1.84834 1.84351 1.83868 1.83385 1.82902 1.82419 1.81936 
1.81454 1.80971 1.80488 1.80005 1.79522 1.79039 1.78556 1.78074 1.77591 
1.77108 1.76625 1.76042 1.74941 1.73839 1.72738 1.71637 1.70535 1.69434 
1.68332 1.67231 1.66129 1.65028 1.63927 1.62825 1.61724 1.60622 1.59521 
1.58419 1.57318 1.56217 1.55115 1.54014 1.52967 1.51926 1.50885 1.49844 
1.48804 1.47763 1.46722 1.45681 1.4464 1.43599 1.42558 1.41517 1.40476 
1.39435 1.38394 1.37353 1.36312 1.35271 1.3423 1.33189 1.3322 1.33722 
1.34225 1.34727 1.35229 1.35732 1.36234 1.36737 1.37239 1.37741 1.38244 
1.38746 1.39249 1.39751 1.40253 1.40756 1.41258 1.41761 1.42263 1.42765 
1.43313 1.43904 1.44496 1.45087 1.45679 1.46271 1.46862 1.47454 1.48045 
1.48637 1.49228 1.4982 1.50412 1.51003 1.51595 1.52186 1.52778 1.5337 
1.53961 1.54553 1.55029 1.5515 1.5527 1.55391 1.55511 1.55632 1.55752 
1.55873 1.55993 1.56114 1.56234 1.56355 1.56475 1.56596 1.56716 1.56837 
1.56957 1.57077 1.57198 1.57318 1.57439 1.57622 1.57808 1.57994 1.58179 
1.58365 1.58551 1.58737 1.58923 1.59109 1.59294 1.5948 1.59666 1.59852 
1.60038 1.60224 1.6041 1.60595 1.60781 1.60967 1.61153 1.59673 1.57416 
1.55158 1.52901 1.50643 1.48386 1.46128 1.43871 1.41613 1.39356 1.37098 
1.34841 1.32583 1.30326 1.28068 1.25811 1.23553 1.21295 1.19038 1.1678 
1.15952 1.16529 1.17107 1.17684 1.18262 1.18839 1.19416 1.19994 1.20571 
1.21148 1.21726 1.22303 1.22881 1.23458 1.24035 1.24613 1.2519 1.25767 
1.26345 1.26922 1.27656 1.28755 1.29855 1.30954 1.32054 1.33154 1.34253 
1.35353 1.36452 1.37552 1.38652 1.39751 1.40851 1.4195 1.4305 1.4415 
1.45249 1.46349 1.47448 1.48548 1.49584 1.49213 1.48841 1.4847 1.48099 
1.47727 1.47356 1.46985 1.46613 1.46242 1.45871 1.45499 1.45128 1.44757 
1.44385 1.44014 1.43643 1.43271 1.429 1.42528 1.42157 1.423 1.42592 
1.42883 1.43175 1.43466 1.43758 1.44049 1.44341 1.44632 1.44924 1.45215 
1.45507 1.45798 1.4609 1.46381 1.46673 1.46964 1.47256 1.47547 1.47839 
1.48389 1.49188 1.49987 1.50786 1.51585 1.52384 1.53183 1.53982 1.54781 
1.5558 1.56379 1.57178 1.57977 1.58776 1.59575 1.60374 1.61173 1.61972 
1.62771 1.6357 1.64507 1.65829 1.67151 1.68473 1.69795 1.71116 1.72438 
1.7376 1.75082 1.76404 1.77726 1.79048 1.8037 1.81691 1.83013 1.84335 
1.85657 1.86979 1.88301 1.89623 1.90867 1.91537 1.92207 1.92877 1.93547 
1.94217 1.94887 1.95557 1.96227 1.96897 1.97567 1.98237 1.98907 1.99577 
2.00248 2.00918 2.01588 2.02258 2.02928 2.03598 2.04268 2.01319 1.9811 
1.949 1.9169 1.8848 1.8527 1.8206 1.7885 1.7564 1.7243 1.6922 
1.6601 1.628 1.5959 1.56381 1.53171 1.49961 1.46751 1.43541 1.40331 
1.38735 1.37991 1.37248 1.36505 1.35762 1.35018 1.34275 1.33532 1.32788 
1.32045 1.31302 1.30558 1.29815 1.29072 1.28329 1.27585 1.26842 1.26099 
1.25355 1.24612 1.24333 1.24853 1.25372 1.25892 1.26412 1.26931 1.27451 
1.27971 1.2849 1.2901 1.29529 1.30049 1.30569 1.31088 1.31608 1.32128 
1.32647 1.33167 1.33687 1.34206 1.34757 1.35631 1.36504 1.37378 1.38251 
1.39125 1.39998 1.40872 1.41745 1.42619 1.43493 1.44366 1.4524 1.46113 
1.46987 1.4786 1.48734 1.49607 1.50481 1.51354 1.52228 1.51728 1.50904 
1.5008 1.49255 1.48431 1.47606 1.46782 1.45957 1.45133 1.44308 1.43484 
1.4266 1.41835 1.41011 1.40186 1.39362 1.38537 1.37713 1.36889 1.36064 
1.36348 1.37651 1.38953 1.40256 1.41559 1.42862 1.44165 1.45468 1.46771 
1.48074 1.49377 1.5068 1.51983 1.53286 1.54589 1.55892 1.57195 1.58498 
1.59801 1.61104 1.62157 1.62412 1.62666 1.6292 1.63174 1.63429 1.63683 
1.63937 1.64191 1.64445 1.647 1.64954 1.65208 1.65462 1.65716 1.65971 
1.66225 1.66479 1.66733 1.66987 1.67242 1.65268 1.63199 1.6113 1.59062 
1.56993 1.54924 1.52855 1.50787 1.48718 1.46649 1.44581 1.42512 1.40443 
1.38374 1.36306 1.34237 1.32168 1.301 1.28031 1.25962 1.25327 1.25386 
1.25444 1.25502 1.25561 1.25619 1.25677 1.25736 1.25794 1.25853 1.25911 
1.25969 1.26028 1.26086 1.26144 1.26203 1.26261 1.26319 1.26378 1.26436 
1.26717 1.27356 1.27994 1.28632 1.29271 1.29909 1.30547 1.31186 1.31824 
1.32462 1.33101 1.33739 1.34377 1.35016 1.35654 1.36292 1.36931 1.37569 
1.38207 1.38846 1.39535 1.40552 1.4157 1.42587 1.43605 1.44623 1.4564 
1.46658 1.47675 1.48693 1.4971 1.50728 1.51746 1.52763 1.53781 1.54798 
1.55816 1.56833 1.57851 1.58868 1.59333 1.59705 1.60078 1.6045 1.60822 
1.61195 1.61567 1.6194 1.62312 1.62684 1.63057 1.63429 1.63801 1.64174 
1.64546 1.64918 1.65291 1.65663 1.66035 1.66408 1.6678 
TEXTURE_COORDINATES TCoords 2 float
0 0 0.000784314 0 0.00156863 0 0.00235294 0 0.00313725 
0 0.00392157 0 0.00470588 0 0.0054902 0 0.00627451 0 
0.00705882 0 0.00784314 0 0.00862745 0 0.00941176 0 0.0101961 
0 0.0109804 0 0.0117647 0 0.012549 0 0.0133333 0 
0.0141176 0 0.014902 0 0.0156863 0 0.0164706 0 0.0172549 
0 0.0180392 0 0.0188235 0 0.0196078 0 0.0203922 0 
0.0211765 0 0.0219608 0 0.0227451 0 0.0235294 0 0.0243137 
0 0.025098 0 0.0258824 0 0.0266667 0 0.027451 0 
0.0282353 0 0.0290196 0 0.0298039 0 0.0305882 0 0.0313726 
0 0.0321569 0 0.0329412 0 0.0337255 0 0.0345098 0 
0.0352941 0 0.0360784 0 0.0368627 0 0.0376471 0 0.0384314 
0 0.0392157 0 0.04 0 0.0407843 0 0.0415686 0 
0.0423529 0 0.0431373 0 0.0439216 0 0.0447059 0 0.0454902 
0 0.0462745 0 0.0470588 0 0.0478431 0 0.0486275 0 
0.0494118 0 0.0501961 0 0.0509804 0 0.0517647 0 0.052549 
0 0.0533333 0 0.0541176 0 0.054902 0 0.0556863 0 
0.0564706 0 0.0572549 0 0.0580392 0 0.0588235 0 0.0596078 
0 0.0603922 0 0.0611765 0 0.0619608 0 0.0627451 0 
0.0635294 0 0.0643137 0 0.065098 0 0.0658824 0 0.0666667 
0 0.067451 0 0.0682353 0 0.0690196 0 0.0698039 0 
0.0705882 0 0.0713725 0 0.0721569 0 0.0729412 0 0.0737255 
0 0.0745098 0 0.0752941 0 0.0760784 0 0.0768627 0 
0.0776471 0 0.0784314 0 0.0792157 0 0.08 0 0.0807843 
0 0.0815686 0 0.0823529 0 0.0831373 0 0.0839216 0 
0.0847059 0 0.0854902 0 0.0862745 0 0.0870588 0 0.0878431 
0 0.0886275 0 0.0894118 0 0.0901961 0 0.0909804 0 
0.0917647 0 0.092549 0 0.0933333 0 0.0941176 0 0.094902 
0 0.0956863 0 0.0964706 0 0.0972549 0 0.0980392 0 
0.0988235 0 0.0996078 0 0.100392 0 0.101176 0 0.101961 
0 0.102745 0 0.103529 0 0.104314 0 0.105098 0 
0.105882 0 0.106667 0 0.107451 0 0.108235 0 0.10902 
0 0.109804 0 0.110588 0 0.111373 0 0.112157 0 
0.112941 0 0.113725 0 0.11451 0 0.115294 0 0.116078 
0 0.116863 0 0.117647 0 0.118431 0 0.119216 0 
0.12 0 0.120784 0 0.121569 0 0.122353 0 0.123137 
0 0.123922 0 0.124706 0 0.12549 0 0.126275 0 
0.127059 0 0.127843 0 0.128627 0 0.129412 0 0.130196 
0 0.13098 0 0.131765 0 0.132549 0 0.133333 0 
0.134118 0 0.134902 0 0.135686 0 0.136471 0 0.137255 
0 0.138039 0 0.138824 0 0.139608 0 0.140392 0 
0.141176 0 0.141961 0 0.142745 0 0.143529 0 0.144314 
0 0.145098 0 0.145882 0 0.146667 0 0.147451 0 
0.148235 0 0.14902 0 0.149804 0 0.150588 0 0.151373 
0 0.152157 0 0.152941 0 0.153725 0 0.15451 0 
0.155294 0 0.156078 0 0.156863 0 0.157647 0 0.158431 
0 0.159216 0 0.16 0 0.160784 0 0.161569 0 
0.162353 0 0.163137 0 0.163922 0 0.164706 0 0.16549 
0 0.166275 0 0.167059 0 0.167843 0 0.168627 0 
0.169412 0 0.170196 0 0.17098 0 0.171765 0 0.172549 
0 0.173333 0 0.174118 0 0.174902 0 0.175686 0 
0.176471 0 0.177255 0 0.178039 0 0.178824 0 0.179608 
0 0.180392 0 0.181176 0 0.181961 0 0.182745 0 
0.183529 0 0.184314 0 0.185098 0 0.185882 0 0.186667 
0 0.187451 0 0.188235 0 0.18902 0 0.189804 0 
0.190588 0 0.191373 0 0.192157 0 0.192941 0 0.193725 
0 0.19451 0 0.195294 0 0.196078 0 0.196863 0 
0.197647 0 0.198431 0 0.199216 0 0.2 0 0.200784 
0 0.201569 0 0.202353 0 0.203137 0 0.203922 0 
0.204706 0 0.20549 0 0.206275 0 0.207059 0 0.207843 
0 0.208627 0 0.209412 0 0.210196 0 0.21098 0 
0.211765 0 0.212549 0 0.213333 0 0.214118 0 0.214902 
0 0.215686 0 0.216471 0 0.217255 0 0.218039 0 
0.218824 0 0.219608 0 0.220392 0 0.221176 0 0.221961 
0 0.222745 0 0.223529 0 0.224314 0 0.225098 0 
0.225882 0 0.226667 0 0.227451 0 0.228235 0 0.22902 
0 0.229804 0 0.230588 0 0.231373 0 0.232157 0 
0.232941 0 0.233725 0 0.23451 0 0.235294 0 0.236078 
0 0.236863 0 0.237647 0 0.238431 0 0.239216 0 
0.24 0 0.240784 0 0.241569 0 0.242353 0 0.243137 
0 0.243922 0 0.244706 0 0.24549 0 0.246275 0 
0.247059 0 0.247843 0 0.248627 0 0.249412 0 0.250196 
0 0.25098 0 0.251765 0 0.252549 0 0.253333 0 
0.254118 0 0.254902 0 0.255686 0 0.256471 0 0.257255 
0 0.258039 0 0.258824 0 0.259608 0 0.260392 0 
0.261176 0 0.261961 0 0.262745 0 0.263529 0 0.264314 
0 0.265098 0 0.265882 0 0.266667 0 0.267451 0 
0.268235 0 0.26902 0 0.269804 0 0.270588 0 0.271373 
0 0.272157 0 0.272941 0 0.273725 0 0.27451 0 
0.275294 0 0.276078 0 0.276863 0 0.277647 0 0.278431 
0 0.279216 0 0.28 0 0.280784 0 0.281569 0 
0.282353 0 0.283137 0 0.283922 0 0.284706 0 0.28549 
0 0.286275 0 0.287059 0 0.287843 0 0.288627 0 
0.289412 0 0.290196 0 0.29098 0 0.291765 0 0.292549 
0 0.293333 0 0.294118 0 0.294902 0 0.295686 0 
0.296471 0 0.297255 0 0.298039 0 0.298824 0 0.299608 
0 0.300392 0 0.301176 0 0.301961 0 0.302745 0 
0.303529 0 0.304314 0 0.305098 0 0.305882 0 0.306667 
0 0.307451 0 0.308235 0 0.30902 0 0.309804 0 
0.310588 0 0.311373 0 0.312157 0 0.312941 0 0.313726 
0 0.31451 0 0.315294 0 0.316078 0 0.316863 0 
0.317647 0 0.318431 0 0.319216 0 0.32 0 0.320784 
0 0.321569 0 0.322353 0 0.323137 0 0.323922 0 
0.324706 0 0.32549 0 0.326275 0 0.327059 0 0.327843 
0 0.328627 0 0.329412 0 0.330196 0 0.33098 0 
0.331765 0 0.332549 0 0.333333 0 0.334118 0 0.334902 
0 0.335686 0 0.336471 0 0.337255 0 0.338039 0 
0.338824 0 0.339608 0 0.340392 0 0.341176 0 0.341961 
0 0.342745 0 0.343529 0 0.344314 0 0.345098 0 
0.345882 0 0.346667 0 0.347451 0 0.348235 0 0.34902 
0 0.349804 0 0.350588 0 0.351373 0 0.352157 0 
0.352941 0 0.353725 0 0.35451 0 0.355294 0 0.356078 
0 0.356863 0 0.357647 0 0.358431 0 0.359216 0 
0.36 0 0.360784 0 0.361569 0 0.362353 0 0.363137 
0 0.363922 0 0.364706 0 0.36549 0 0.366275 0 
0.367059 0 0.367843 0 0.368627 0 0.369412 0 0.370196 
0 0.37098 0 0.371765 0 0.372549 0 0.373333 0 
0.374118 0 0.374902 0 0.375686 0 0.376471 0 0.377255 
0 0.378039 0 0.378824 0 0.379608 0 0.380392 0 
0.381176 0 0.381961 0 0.382745 0 0.383529 0 0.384314 
0 0.385098 0 0.385882 0 0.386667 0 0.387451 0 
0.388235 0 0.38902 0 0.389804 0 0.390588 0 0.391373 
0 0.392157 0 0.392941 0 0.393725 0 0.39451 0 
0.395294 0 0.396078 0 0.396863 0 0.397647 0 0.398431 
0 0.399216 0 0.4 0 0.400784 0 0.401569 0 
0.402353 0 0.403137 0 0.403922 0 0.404706 0 0.40549 
0 0.406274 0 0.407059 0 0.407843 0 0.408627 0 
0.409412 0 0.410196 0 0.41098 0 0.411765 0 0.412549 
0 0.413333 0 0.414118 0 0.414902 0 0.415686 0 
0.416471 0 0.417255 0 0.418039 0 0.418824 0 0.419608 
0 0.420392 0 0.421176 0 0.421961 0 0.422745 0 
0.423529 0 0.424314 0 0.425098 0 0.425882 0 0.426667 
0 0.427451 0 0.428235 0 0.42902 0 0.429804 0 
0.430588 0 0.431373 0 0.432157 0 0.432941 0 0.433725 
0 0.43451 0 0.435294 0 0.436078 0 0.436863 0 
0.437647 0 0.438431 0 0.439216 0 0.44 0 0.440784 
0 0.441569 0 0.442353 0 0.443137 0 0.443922 0 
0.444706 0 0.44549 0 0.446275 0 0.447059 0 0.447843 
0 0.448627 0 0.449412 0 0.450196 0 0.45098 0 
0.451765 0 0.452549 0 0.453333 0 0.454118 0 0.454902 
0 0.455686 0 0.456471 0 0.457255 0 0.458039 0 
0.458824 0 0.459608 0 0.460392 0 0.461176 0 0.461961 
0 0.462745 0 0.463529 0 0.464314 0 0.465098 0 
0.465882 0 0.466667 0 0.467451 0 0.468235 0 0.46902 
0 0.469804 0 0.470588 0 0.471373 0 0.472157 0 
0.472941 0 0.473725 0 0.47451 0 0.475294 0 0.476078 
0 0.476863 0 0.477647 0 0.478431 0 0.479216 0 
0.48 0 0.480784 0 0.481569 0 0.482353 0 0.483137 
0 0.483922 0 0.484706 0 0.48549 0 0.486275 0 
0.487059 0 0.487843 0 0.488627 0 0.489412 0 0.490196 
0 0.49098 0 0.491765 0 0.492549 0 0.493333 0 
0.494118 0 0.494902 0 0.495686 0 0.496471 0 0.497255 
0 0.498039 0 0.498824 0 0.499608 0 0.500392 0 
0.501176 0 0.501961 0 0.502745 0 0.503529 0 0.504314 
0 0.505098 0 0.505882 0 0.506667 0 0.507451 0 
0.508235 0 0.50902 0 0.509804 0 0.510588 0 0.511373 
0 0.512157 0 0.512941 0 0.513726 0 0.51451 0 
0.515294 0 0.516078 0 0.516863 0 0.517647 0 0.518431 
0 0.519216 0 0.52 0 0.520784 0 0.521569 0 
0.522353 0 0.523137 0 0.523922 0 0.524706 0 0.52549 
0 0.526275 0 0.527059 0 0.527843 0 0.528627 0 
0.529412 0 0.530196 0 0.53098 0 0.531765 0 0.532549 
0 0.533333 0 0.534118 0 0.534902 0 0.535686 0 
0.536471 0 0.537255 0 0.538039 0 0.538824 0 0.539608 
0 0.540392 0 0.541176 0 0.541961 0 0.542745 0 
0.543529 0 0.544314 0 0.545098 0 0.545882 0 0.546667 
0 0.547451 0 0.548235 0 0.54902 0 0.549804 0 
0.550588 0 0.551373 0 0.552157 0 0.552941 0 0.553725 
0 0.55451 0 0.555294 0 0.556078 0 0.556863 0 
0.557647 0 0.558431 0 0.559216 0 0.56 0 0.560784 
0 0.561569 0 0.562353 0 0.563137 0 0.563922 0 
0.564706 0 0.56549 0 0.566275 0 0.567059 0 0.567843 
0 0.568627 0 0.569412 0 0.570196 0 0.57098 0 
0.571765 0 0.572549 0 0.573333 0 0.574118 0 0.574902 
0 0.575686 0 0.576471 0 0.577255 0 0.578039 0 
0.578824 0 0.579608 0 0.580392 0 0.581176 0 0.581961 
0 0.582745 0 0.583529 0 0.584314 0 0.585098 0 
0.585882 0 0.586667 0 0.587451 0 0.588235 0 0.58902 
0 0.589804 0 0.590588 0 0.591373 0 0.592157 0 
0.592941 0 0.593726 0 0.59451 0 0.595294 0 0.596078 
0 0.596863 0 0.597647 0 0.598431 0 0.599216 0 
0.6 0 0.600784 0 0.601569 0 0.602353 0 0.603137 
0 0.603922 0 0.604706 0 0.60549 0 0.606274 0 
0.607059 0 0.607843 0 0.608627 0 0.609412 0 0.610196 
0 0.61098 0 0.611765 0 0.612549 0 0.613333 0 
0.614118 0 0.614902 0 0.615686 0 0.616471 0 0.617255 
0 0.618039 0 0.618824 0 0.619608 0 0.620392 0 
0.621176 0 0.621961 0 0.622745 0 0.623529 0 0.624314 
0 0.625098 0 0.625882 0 0.626667 0 0.627451 0 
0.628235 0 0.62902 0 0.629804 0 0.630588 0 0.631373 
0 0.632157 0 0.632941 0 0.633725 0 0.63451 0 
0.635294 0 0.636078 0 0.636863 0 0.637647 0 0.638431 
0 0.639216 0 0.64 0 0.640784 0 0.641569 0 
0.642353 0 0.643137 0 0.643922 0 0.644706 0 0.64549 
0 0.646275 0 0.647059 0 0.647843 0 0.648627 0 
0.649412 0 0.650196 0 0.65098 0 0.651765 0 0.652549 
0 0.653333 0 0.654118 0 0.654902 0 0.655686 0 
0.656471 0 0.657255 0 0.658039 0 0.658824 0 0.659608 
0 0.660392 0 0.661176 0 0.661961 0 0.662745 0 
0.663529 0 0.664314 0 0.665098 0 0.665882 0 0.666667 
0 0.667451 0 0.668235 0 0.66902 0 0.669804 0 
0.670588 0 0.671373 0 0.672157 0 0.672941 0 0.673725 