# vtk DataFile Version 4.2
vtk output
ASCII
DATASET POLYDATA
POINTS 1274 float
0 0 0 -0.0036521 0.00171873 0.00102326 -0.0142971 0.00673333 0.00400578 
-0.0314681 0.0148314 0.00881664 -0.0546981 0.0258006 0.0153249 -0.0835202 0.0394285 0.0233998 
-0.117467 0.0555028 0.0329103 -0.156073 0.0738109 0.0437255 -0.19887 0.0941407 0.0557146 
-0.245391 0.11628 0.0687465 -0.295169 0.140015 0.0826905 -0.347738 0.165135 0.0974156 
-0.40263 0.191428 0.112791 -0.459379 0.218679 0.128686 -0.517518 0.246678 0.144969 
-0.576579 0.275212 0.161509 -0.636096 0.304069 0.178176 -0.695601 0.333035 0.194839 
-0.754629 0.361899 0.211367 -0.812711 0.390449 0.227628 -0.869382 0.418471 0.243493 
-0.924195 0.445764 0.258836 -0.977028 0.472267 0.273624 -1.028 0.498028 0.287894 
-1.07725 0.523099 0.301687 -1.1249 0.547532 0.31504 -1.17107 0.571377 0.327992 
-1.21591 0.594687 0.340583 -1.25953 0.617512 0.352851 -1.30207 0.639905 0.364837 
-1.34366 0.661916 0.376577 -1.38442 0.683598 0.388112 -1.42449 0.705001 0.399481 
-1.46399 0.726176 0.410723 -1.50305 0.747176 0.421875 -1.54181 0.768052 0.432979 
-1.58038 0.788855 0.444072 -1.61891 0.809636 0.455193 -1.65751 0.830448 0.466383 
-1.69633 0.851341 0.477678 -1.73548 0.872366 0.48912 -1.77509 0.893576 0.500745 
-1.81523 0.914988 0.512572 -1.85586 0.936585 0.524596 -1.89695 0.958347 0.536809 
-1.93848 0.980253 0.549202 -1.98041 1.00228 0.561769 -2.0227 1.02442 0.574502 
-2.06533 1.04663 0.587393 -2.10826 1.06891 0.600434 -2.15147 1.09123 0.613619 
-2.19491 1.11357 0.626939 -2.23856 1.13592 0.640386 -2.28239 1.15824 0.653954 
-2.32637 1.18053 0.667635 -2.37045 1.20276 0.68142 -2.41462 1.2249 0.695303 
-2.45883 1.24695 0.709276 -2.50306 1.26887 0.72333 -2.54727 1.29065 0.73746 
-2.59143 1.31227 0.751656 -2.63552 1.33371 0.765911 -2.6795 1.35495 0.780222 
-2.7234 1.37599 0.79459 -2.7672 1.39682 0.809021 -2.81094 1.41743 0.823519 
-2.85462 1.43782 0.838088 -2.89825 1.45798 0.852733 -2.94184 1.47792 0.867458 
-2.9854 1.49763 0.882268 -3.02895 1.51709 0.897167 -3.07249 1.53631 0.912159 
-3.11604 1.55528 0.927249 -3.1596 1.574 0.942442 -3.2032 1.59246 0.957741 
-3.24683 1.61066 0.973151 -3.29052 1.62859 0.988677 -3.33427 1.64625 1.00432 
-3.37809 1.66362 1.02009 -3.422 1.68072 1.03599 -3.466 1.69753 1.05202 
-3.51011 1.71404 1.06819 -3.55433 1.73026 1.08451 -3.59867 1.74617 1.10096 
-3.64312 1.76175 1.11755 -3.68768 1.777 1.13429 -3.73235 1.7919 1.15116 
-3.77712 1.80643 1.16817 -3.82199 1.82059 1.18532 -3.86695 1.83436 1.2026 
-3.912 1.84772 1.22002 -3.95714 1.86067 1.23757 -4.00237 1.87319 1.25526 
-4.04767 1.88526 1.27308 -4.09306 1.89688 1.29103 -4.13852 1.90803 1.30911 
-4.18404 1.91869 1.32732 -4.22964 1.92886 1.34566 -4.2753 1.93852 1.36413 
-4.32101 1.94765 1.38272 -4.36679 1.95625 1.40144 -4.41262 1.96429 1.42029 
-4.45849 1.97178 1.43925 -4.50441 1.97869 1.45834 -4.55037 1.98502 1.47755 
-4.59635 1.99076 1.49687 -4.64236 1.99592 1.5163 -4.68838 2.00048 1.53584 
-4.73441 2.00444 1.55548 -4.78044 2.00779 1.57522 -4.82645 2.01052 1.59506 
-4.87246 2.01264 1.61499 -4.91844 2.01413 1.635 -4.96439 2.01499 1.6551 
-5.0103 2.01521 1.67529 -5.05617 2.01478 1.69555 -5.10199 2.01371 1.71588 
-5.14775 2.01198 1.73628 -5.19344 2.00959 1.75675 -5.23906 2.00653 1.77729 
-5.28459 2.0028 1.79788 -5.33004 1.99838 1.81852 -5.37539 1.99329 1.83922 
-5.42064 1.9875 1.85997 -5.46578 1.98105 1.88076 -5.51081 1.97393 1.9016 
-5.55571 1.96615 1.92248 -5.60049 1.95773 1.94339 -5.64514 1.94868 1.96434 
-5.68966 1.939 1.98531 -5.73403 1.92871 2.00632 -5.77825 1.91782 2.02735 
-5.82232 1.90633 2.04841 -5.86623 1.89426 2.06949 -5.90997 1.88162 2.09058 
-5.95355 1.86842 2.11169 -5.99694 1.85467 2.13281 -6.04016 1.84037 2.15394 
-6.08318 1.82555 2.17507 -6.12601 1.8102 2.19621 -6.16865 1.79435 2.21735 
-6.21107 1.77799 2.23849 -6.25329 1.76114 2.25962 -6.29529 1.74382 2.28074 
-6.33709 1.72604 2.30186 -6.37868 1.70781 2.32296 -6.42009 1.68915 2.34404 
-6.46131 1.67009 2.36511 -6.50235 1.65063 2.38617 -6.54322 1.6308 2.4072 
-6.58392 1.61061 2.4282 -6.62448 1.59008 2.44919 -6.66488 1.56922 2.47014 
-6.70514 1.54807 2.49106 -6.74527 1.52662 2.51196 -6.78528 1.5049 2.53282 
-6.82516 1.48293 2.55364 -6.86494 1.46072 2.57442 -6.90461 1.4383 2.59516 
-6.94419 1.41567 2.61586 -6.98367 1.39285 2.63652 -7.02308 1.36987 2.65713 
-7.06241 1.34674 2.67769 -7.10168 1.32348 2.69819 -7.14089 1.3001 2.71863 
-7.18008 1.2766 2.73898 -7.21924 1.25301 2.75923 -7.25841 1.22933 2.77937 
-7.29759 1.20557 2.79936 -7.33682 1.18175 2.8192 -7.37609 1.15787 2.83886 
-7.41543 1.13396 2.85834 -7.45486 1.11001 2.87761 -7.4944 1.08604 2.89665 
-7.53405 1.06206 2.91545 -7.57385 1.03808 2.934 -7.6138 1.01412 2.95226 
-7.65392 0.99018 2.97023 -7.69424 0.966276 2.98788 -7.73476 0.942419 3.00521 
-7.7755 0.918619 3.02218 -7.81649 0.894889 3.03879 -7.85774 0.871239 3.05502 
-7.89926 0.847679 3.07085 -7.94106 0.824217 3.08625 -7.98313 0.800854 3.10118 
-8.02545 0.777593 3.11561 -8.06803 0.754435 3.1295 -8.11085 0.731383 3.14281 
-8.1539 0.70844 3.15551 -8.19718 0.685607 3.16755 -8.24067 0.662887 3.17891 
-8.28437 0.640281 3.18955 -8.32826 0.617793 3.19943 -8.37234 0.595424 3.2085 
-8.4166 0.573177 3.21675 -8.46103 0.551054 3.22412 -8.50562 0.529056 3.23059 
-8.55037 0.507187 3.23611 -8.59525 0.485449 3.24064 -8.64028 0.463843 3.24416 
-8.68542 0.442373 3.24663 -8.73068 0.421039 3.248 -8.77605 0.399845 3.24825 
-8.82151 0.378787 3.24735 -8.86703 0.357855 3.24533 -8.91258 0.337039 3.24219 
-8.95814 0.316328 3.23796 -9.00367 0.295711 3.23265 -9.04915 0.275178 3.22629 
-9.09455 0.254719 3.21887 -9.13984 0.234322 3.21044 -9.18498 0.213976 3.20099 
-9.22996 0.193673 3.19055 -9.27475 0.1734 3.17913 -9.31931 0.153148 3.16676 
-9.36361 0.132905 3.15344 -9.40763 0.112661 3.1392 -9.45134 0.0924064 3.12404 
-9.49471 0.0721293 3.108 -9.53771 0.0518195 3.09108 -9.58031 0.0314666 3.07331 
-9.62249 0.0110598 3.05469 -9.66421 -0.00941129 3.03525 -9.70545 -0.0299564 3.015 
-9.74622 -0.0505829 2.99397 -9.7865 -0.0712979 2.97217 -9.82628 -0.0921086 2.94964 
-9.86558 -0.113022 2.92638 -9.90438 -0.134046 2.90243 -9.94269 -0.155187 2.87779 
-9.98049 -0.176452 2.8525 -10.0178 -0.197848 2.82658 -10.0546 -0.219384 2.80005 
-10.0908 -0.241065 2.77292 -10.1266 -0.262899 2.74523 -10.1618 -0.284893 2.71698 
-10.1966 -0.307055 2.68821 -10.2307 -0.329391 2.65894 -10.2644 -0.351908 2.62918 
-10.2975 -0.374614 2.59896 -10.3301 -0.397517 2.5683 -10.3622 -0.420622 2.53722 
-10.3937 -0.443937 2.50575 -10.4246 -0.467468 2.47389 -10.455 -0.491213 2.44166 
-10.4849 -0.515165 2.40907 -10.5141 -0.539322 2.3761 -10.5428 -0.563679 2.34277 
-10.5708 -0.588232 2.30907 -10.5982 -0.612975 2.27501 -10.625 -0.637905 2.24059 
-10.6511 -0.663018 2.20582 -10.6765 -0.688308 2.1707 -10.7013 -0.713772 2.13522 
-10.7254 -0.739405 2.09939 -10.7487 -0.765203 2.06322 -10.7714 -0.791161 2.0267 
-10.7933 -0.817274 1.98984 -10.8145 -0.84354 1.95264 -10.8349 -0.869952 1.9151 
-10.8546 -0.896507 1.87723 -10.8734 -0.923201 1.83902 -10.8915 -0.950028 1.80049 
-10.9087 -0.976984 1.76163 -10.9252 -1.00406 1.72245 -10.9408 -1.03123 1.68297 
-10.9555 -1.05849 1.6432 -10.9694 -1.08581 1.60315 -10.9823 -1.11319 1.56283 
-10.9944 -1.14061 1.52226 -11.0056 -1.16804 1.48145 -11.0159 -1.19549 1.44042 
-11.0252 -1.22292 1.39917 -11.0336 -1.25033 1.35772 -11.041 -1.27769 1.31608 
-11.0474 -1.305 1.27427 -11.0528 -1.33223 1.2323 -11.0572 -1.35937 1.19017 
-11.0606 -1.38641 1.14791 -11.063 -1.41333 1.10553 -11.0643 -1.44011 1.06303 
-11.0646 -1.46674 1.02044 -11.0638 -1.49319 0.977765 -11.0618 -1.51947 0.935016 
-11.0588 -1.54555 0.892212 -11.0548 -1.57144 0.849369 -11.0497 -1.59713 0.806505 
-11.0435 -1.62262 0.763639 -11.0363 -1.64791 0.720788 -11.0282 -1.673 0.677969 
-11.0191 -1.69789 0.635201 -11.009 -1.72256 0.592502 -10.998 -1.74703 0.549889 
-10.9861 -1.77129 0.507379 -10.9732 -1.79533 0.464992 -10.9595 -1.81916 0.422743 
-10.945 -1.84278 0.380652 -10.9296 -1.86617 0.338737 -10.9134 -1.88934 0.297013 
-10.8964 -1.91229 0.255501 -10.8786 -1.93501 0.214217 -10.86 -1.9575 0.173179 
-10.8407 -1.97977 0.132405 -10.8207 -2.0018 0.0919131 -10.7999 -2.0236 0.0517121 
-10.7785 -2.04519 0.0118017 -10.7564 -2.06657 -0.0278195 -10.7337 -2.08775 -0.0671527 
-10.7103 -2.10875 -0.106199 -10.6863 -2.12957 -0.14496 -10.6618 -2.15023 -0.183438 
-10.6367 -2.17074 -0.221632 -10.611 -2.19111 -0.259545 -10.5848 -2.21135 -0.297178 
-10.5582 -2.23147 -0.334533 -10.531 -2.25148 -0.37161 -10.5034 -2.27139 -0.408411 
-10.4753 -2.29122 -0.444937 -10.4468 -2.31097 -0.48119 -10.4179 -2.33066 -0.517171 
-10.3886 -2.35029 -0.552881 -10.3589 -2.36988 -0.588321 -10.3289 -2.38944 -0.623493 
-10.2986 -2.40898 -0.658399 -10.268 -2.42851 -0.693038 -10.2371 -2.44804 -0.727407 
-10.2059 -2.46759 -0.761502 -10.1744 -2.48715 -0.795319 -10.1426 -2.50676 -0.828855 
-10.1106 -2.5264 -0.862107 -10.0784 -2.54611 -0.895069 -10.0459 -2.56588 -0.927739 
-10.0132 -2.58573 -0.960113 -9.98026 -2.60566 -0.992186 -9.94711 -2.6257 -1.02396 
-9.91377 -2.64585 -1.05542 -9.88024 -2.66612 -1.08657 -9.84652 -2.68653 -1.1174 
-9.81264 -2.70708 -1.14792 -9.77859 -2.72778 -1.17812 -9.74439 -2.74865 -1.20798 
-9.71005 -2.7697 -1.23752 -9.67558 -2.79093 -1.26673 -9.64098 -2.81236 -1.29559 
-9.60627 -2.834 -1.32412 -9.57145 -2.85585 -1.35232 -9.53652 -2.87791 -1.38019 
-9.50148 -2.90017 -1.40777 -9.46635 -2.92264 -1.43505 -9.43111 -2.94531 -1.46205 
-9.39578 -2.96817 -1.48878 -9.36035 -2.99124 -1.51526 -9.32484 -3.0145 -1.54149 
-9.28923 -3.03795 -1.5675 -9.25354 -3.06159 -1.59328 -9.21777 -3.08542 -1.61887 
-9.18192 -3.10944 -1.64426 -9.14599 -3.13364 -1.66947 -9.10998 -3.15803 -1.69451 
-9.07391 -3.18259 -1.7194 -9.03777 -3.20734 -1.74415 -9.00156 -3.23226 -1.76877 
-8.96529 -3.25736 -1.79328 -8.92895 -3.28263 -1.81768 -8.89256 -3.30807 -1.84198 
-8.85613 -3.33371 -1.86614 -8.81967 -3.35961 -1.89006 -8.78321 -3.38582 -1.91365 
-8.74676 -3.41239 -1.9368 -8.71034 -3.43937 -1.95944 -8.67398 -3.46682 -1.98145 
-8.63769 -3.49479 -2.00275 -8.60149 -3.52334 -2.02324 -8.56541 -3.55251 -2.04283 
[...]
CELL_DATA 1
FIELD FieldData 2
Length 1 1 double
63.686089114 
Tortuosity 1 1 double
1.8270010164 
POINT_DATA 1274
SCALARS MaximumInscribedSphereRadius float
LOOKUP_TABLE default
1.116 1.116 1.116 1.116 1.116 1.116 1.116 1.116 1.116 
1.116 1.116 1.116 1.116 1.116 1.116 1.116 1.116 1.116 
1.116 1.116 1.116 1.1135 1.10934 1.10519 1.10103 1.09688 1.09272 
1.08857 1.08441 1.08026 1.0761 1.07194 1.06779 1.06363 1.05948 1.05532 
1.05117 1.04701 1.04286 1.0387 1.03455 1.0332 1.03567 1.03814 1.04061 
1.04308 1.04555 1.04803 1.0505 1.05297 1.05544 1.05792 1.06039 1.06286 
1.06533 1.0678 1.07028 1.07275 1.07522 1.07769 1.08016 1.08297 1.08756 
1.09214 1.09673 1.10132 1.1059 1.11049 1.11507 1.11966 1.12424 1.12883 
1.13341 1.138 1.14259 1.14717 1.15176 1.15634 1.16093 1.16551 1.1701 
1.17468 1.16874 1.16146 1.15418 1.1469 1.13962 1.13235 1.12507 1.11779 
1.11051 1.10323 1.09595 1.08867 1.0814 1.07412 1.06684 1.05956 1.05228 
1.045 1.03772 1.03044 1.04124 1.06273 1.08422 1.10571 1.1272 1.14869 
1.17018 1.19167 1.21316 1.23465 1.25614 1.27763 1.29912 1.32061 1.3421 
1.36359 1.38508 1.40657 1.42806 1.44955 1.46802 1.48177 1.49551 1.50926 
1.523 1.53674 1.55049 1.56423 1.57798 1.59172 1.60546 1.61921 1.63295 
1.6467 1.66044 1.67418 1.68793 1.70167 1.71542 1.72916 1.74022 1.73559 
1.73095 1.72632 1.72168 1.71704 1.71241 1.70777 1.70314 1.6985 1.69386 
1.68923 1.68459 1.67995 1.67532 1.67068 1.66605 1.66141 1.65677 1.65214 
1.6475 1.64274 1.63796 1.63318 1.6284 1.62362 1.61884 1.61405 1.60927 
1.60449 1.59971 1.59493 1.59015 1.58537 1.58059 1.57581 1.57103 1.56625 
1.56147 1.55669 1.55191 1.54617 1.5398 1.53343 1.52706 1.52069 1.51432 
1.50796 1.50159 1.49522 1.48885 1.48248 1.47611 1.46974 1.46337 1.457 
1.45063 1.44427 1.4379 1.43153 1.42516 1.41714 1.4065 1.39585 1.38521 
1.37457 1.36392 1.35328 1.34264 1.33199 1.32135 1.31071 1.30007 1.28942 
1.27878 1.26814 1.25749 1.24685 1.23621 1.22557 1.21492 1.20655 1.20642 
1.20629 1.20616 1.20603 1.2059 1.20577 1.20565 1.20552 1.20539 1.20526 
1.20513 1.205 1.20487 1.20474 1.20461 1.20448 1.20435 1.20422 1.20409 
1.20396 1.20912 1.21431 1.2195 1.2247 1.22989 1.23508 1.24028 1.24547 
1.25066 1.25586 1.26105 1.26625 1.27144 1.27663 1.28183 1.28702 1.29221 
1.29741 1.3026 1.30779 1.29727 1.2821 1.26692 1.25174 1.23656 1.22138 
1.2062 1.19103 1.17585 1.16067 1.14549 1.13031 1.11514 1.09996 1.08478 
1.0696 1.05442 1.03925 1.02407 1.00889 1.01611 1.03905 1.062 1.08494 
1.10788 1.13082 1.15376 1.1767 1.19965 1.22259 1.24553 1.26847 1.29141 
1.31435 1.3373 1.36024 1.38318 1.40612 1.42906 1.45201 1.46328 1.45688 
1.45048 1.44407 1.43767 1.43126 1.42486 1.41845 1.41205 1.40564 1.39924 
1.39284 1.38643 1.38003 1.37362 1.36722 1.36081 1.35441 1.348 1.3416 
1.33592 1.33429 1.33266 1.33104 1.32941 1.32778 1.32616 1.32453 1.32291 
1.32128 1.31965 1.31803 1.3164 1.31477 1.31315 1.31152 1.3099 1.30827 
1.30664 1.30502 1.30339 1.30812 1.31369 1.31926 1.32483 1.3304 1.33597 
1.34154 1.34711 1.35268 1.35825 1.36383 1.3694 1.37497 1.38054 1.38611 
1.39168 1.39725 1.40282 1.40839 1.41397 1.42123 1.42953 1.43784 1.44615 
1.45446 1.46277 1.47108 1.47938 1.48769 1.496 1.50431 1.51262 1.52093 
1.52924 1.53754 1.54585 1.55416 1.56247 1.57078 1.57909 1.59201 1.61184 
1.63166 1.65149 1.67131 1.69113 1.71096 1.73078 1.7506 1.77043 1.79025 
1.81007 1.8299 1.84972 1.86954 1.88937 1.90919 1.92901 1.94884 1.96494 
1.96953 1.97412 1.97871 1.98329 1.98788 1.99247 1.99706 2.00165 2.00623 
2.01082 2.01541 2.02 2.02459 2.02918 2.03376 2.03835 2.04294 2.04753 
2.05212 2.05648 2.05776 2.05903 2.06031 2.06158 2.06285 2.06413 2.0654 
2.06667 2.06795 2.06922 2.07049 2.07177 2.07304 2.07432 2.07559 2.07686 
2.07814 2.07941 2.08068 2.08196 2.11297 2.15062 2.18826 2.22591 2.26356 
2.3012 2.33885 2.3765 2.41415 2.45179 2.48944 2.52709 2.56473 2.60238 
2.64003 2.67768 2.71532 2.75297 2.79062 2.82826 2.85925 2.88538 2.91151 
2.93764 2.96377 2.9899 3.01603 3.04216 3.06829 3.09442 3.12055 3.14668 
3.17281 3.19894 3.22507 3.25121 3.27734 3.30347 3.3296 3.35573 3.35347 
3.29806 3.24265 3.18724 3.13183 3.07642 3.02101 2.96561 2.9102 2.85479 
2.79938 2.74397 2.68856 2.63315 2.57774 2.52233 2.46692 2.41151 2.3561 
2.3007 2.24956 2.24655 2.24353 2.24051 2.23749 2.23447 2.23145 2.22843 
2.22542 2.2224 2.21938 2.21636 2.21334 2.21032 2.20731 2.20429 2.20127 
2.19825 2.19523 2.19221 2.1892 2.19585 2.20477 2.2137 2.22263 2.23156 
2.24048 2.24941 2.25834 2.26727 2.27619 2.28512 2.29405 2.30298 2.3119 
2.32083 2.32976 2.33869 2.34761 2.35654 2.36547 2.3579 2.33839 2.31887 
2.29935 2.27983 2.26031 2.24079 2.22127 2.20176 2.18224 2.16272 2.1432 
2.12368 2.10416 2.08464 2.06512 2.04561 2.02609 2.00657 1.98705 1.96907 
1.9525 1.93593 1.91936 1.90279 1.88622 1.86965 1.85309 1.83652 1.81995 
1.80338 1.78681 1.77024 1.75367 1.73711 1.72054 1.70397 1.6874 1.67083 
1.65426 1.65913 1.67631 1.69349 1.71067 1.72785 1.74502 1.7622 1.77938 
1.79656 1.81374 1.83092 1.84809 1.86527 1.88245 1.89963 1.91681 1.93399 
1.95116 1.96834 1.98552 2.00624 2.03018 2.05412 2.07807 2.10201 2.12595 
2.14989 2.17384 2.19778 2.22172 2.24566 2.2696 2.29355 2.31749 2.34143 
2.36537 2.38932 2.41326 2.4372 2.46114 2.47736 2.4775 2.47763 2.47776 
2.47789 2.47802 2.47816 2.47829 2.47842 2.47855 2.47869 2.47882 2.47895 
2.47908 2.47922 2.47935 2.47948 2.47961 2.47974 2.47988 2.47936 2.46993 
2.46051 2.45109 2.44166 2.43224 2.42282 2.4134 2.40397 2.39455 2.38513 
2.3757 2.36628 2.35686 2.34743 2.33801 2.32859 2.31917 2.30974 2.30032 
2.2909 2.2963 2.30569 2.31508 2.32448 2.33387 2.34326 2.35265 2.36204 
2.37143 2.38082 2.39022 2.39961 2.409 2.41839 2.42778 2.43717 2.44657 
2.45596 2.46535 2.47474 2.48392 2.49293 2.50194 2.51095 2.51996 2.52896 
2.53797 2.54698 2.55599 2.565 2.57401 2.58302 2.59203 2.60104 2.61005 
2.61906 2.62807 2.63708 2.64609 2.6551 2.65322 2.63572 2.61821 2.6007 
2.58319 2.56569 2.54818 2.53067 2.51317 2.49566 2.47815 2.46064 2.44314 
2.42563 2.40812 2.39062 2.37311 2.3556 2.33809 2.32059 2.3021 2.27875 
2.2554 2.23204 2.20869 2.18534 2.16199 2.13864 2.11529 2.09194 2.06858 
2.04523 2.02188 1.99853 1.97518 1.95183 1.92848 1.90513 1.88177 1.85842 
1.83507 1.82058 1.80711 1.79365 1.78018 1.76672 1.75326 1.73979 1.72633 
1.71286 1.6994 1.68593 1.67247 1.659 1.64554 1.63208 1.61861 1.60515 
1.59168 1.57822 1.56475 1.55165 1.53875 1.52585 1.51295 1.50005 1.48715 
1.47425 1.46135 1.44845 1.43555 1.42265 1.40975 1.39685 1.38395 1.37105 
1.35815 1.34526 1.33236 1.31946 1.30656 1.30694 1.32716 1.34739 1.36761 
1.38783 1.40806 1.42828 1.4485 1.46873 1.48895 1.50917 1.5294 1.54962 
1.56984 1.59007 1.61029 1.63051 1.65074 1.67096 1.69118 1.70788 1.70653 
1.70517 1.70382 1.70247 1.70111 1.69976 1.69841 1.69706 1.6957 1.69435 
1.693 1.69164 1.69029 1.68894 1.68759 1.68623 1.68488 1.68353 1.68217 
1.68082 1.68906 1.69834 1.70762 1.71689 1.72617 1.73545 1.74472 1.754 
1.76328 1.77255 1.78183 1.79111 1.80038 1.80966 1.81894 1.82821 1.83749 
1.84677 1.85604 1.86532 1.88397 1.90803 1.93209 1.95615 1.9802 2.00426 
2.02832 2.05238 2.07643 2.10049 2.12455 2.14861 2.17266 2.19672 2.22078 
2.24484 2.26889 2.29295 2.31701 2.34106 2.35386 2.34693 2.34 2.33307 
2.32614 2.31921 2.31227 2.30534 2.29841 2.29148 2.28455 2.27762 2.27069 
2.26376 2.25683 2.24989 2.24296 2.23603 2.2291 2.22217 2.21375 2.19068 
2.16761 2.14455 2.12148 2.09842 2.07535 2.05229 2.02922 2.00616 1.98309 
1.96003 1.93696 1.9139 1.89083 1.86777 1.8447 1.82164 1.79857 1.77551 
1.75244 1.74704 1.74552 1.744 1.74248 1.74096 1.73944 1.73791 1.73639 
1.73487 1.73335 1.73183 1.73031 1.72879 1.72726 1.72574 1.72422 1.7227 
1.72118 1.71966 1.71814 1.7215 1.72897 1.73644 1.74391 1.75139 1.75886 
1.76633 1.77381 1.78128 1.78875 1.79622 1.8037 1.81117 1.81864 1.82611 
1.83359 1.84106 1.84853 1.85601 1.86348 1.86912 1.86963 1.87013 1.87064 
1.87115 1.87165 1.87216 1.87266 1.87317 1.87367 1.87418 1.87468 1.87519 
1.8757 1.8762 1.87671 1.87721 1.87772 1.87822 1.87873 1.87923 1.87847 
1.87769 1.87691 1.87613 1.87535 1.87457 1.87379 1.873 1.87222 1.87144 
1.87066 1.86988 1.8691 1.86832 1.86754 1.86676 1.86598 1.8652 1.86442 
1.86364 1.86397 1.86474 1.86551 1.86627 1.86704 1.86781 1.86857 1.86934 
1.87011 1.87088 1.87164 1.87241 1.87318 1.87394 1.87471 1.87548 1.87624 
1.87701 1.87778 1.87855 1.88006 1.88252 1.88497 1.88742 1.88987 1.89232 
1.89478 1.89723 1.89968 1.90213 1.90458 1.90703 1.90949 1.91194 1.91439 
1.91684 1.91929 1.92175 1.9242 1.92665 1.9269 1.91763 1.90836 1.89909 
1.88982 1.88055 1.87127 1.862 1.85273 1.84346 1.83419 1.82492 1.81565 
1.80638 1.79711 1.78784 1.77857 1.7693 1.76003 1.75076 1.74178 1.744 
1.74623 1.74846 1.75068 1.75291 1.75514 1.75737 1.75959 1.76182 1.76405 
1.76627 1.7685 1.77073 1.77296 1.77518 1.77741 1.77964 1.78186 1.78409 
1.78627 1.78705 1.78782 1.78859 1.78936 1.79013 1.79091 1.79168 1.79245 
1.79322 1.794 1.79477 1.79554 1.79631 1.79709 1.79786 1.79863 1.7994 
1.80017 1.80095 1.80172 1.79847 1.79433 1.79019 1.78604 1.7819 1.77776 
1.77361 1.76947 1.76533 1.76119 1.75704 1.7529 1.74876 1.74462 1.74047 
1.73633 1.73219 1.72805 1.7239 1.71976 1.73659 1.77051 1.80443 1.83835 
1.87227 1.9062 1.94012 1.97404 2.00796 2.04188 2.0758 2.10972 2.14364 
2.17756 2.21148 2.2454 2.27932 2.31324 2.34716 2.38108 2.40964 2.42397 
2.43829 2.45261 2.46693 2.48125 2.49557 2.5099 2.52422 2.53854 2.55286 
2.56718 2.5815 2.59582 2.61015 2.62447 2.63879 2.65311 2.66743 2.68175 
2.69608 2.70073 2.70538 2.71003 2.71467 2.71932 2.72397 2.72861 2.73326 
2.73791 2.74256 2.7472 2.75185 2.7565 2.76114 2.76579 2.77044 2.77508 
2.77973 2.78438 2.78903 2.80793 2.83062 2.85331 2.87599 2.89868 2.92137 
2.94405 2.96674 2.98942 3.01211 3.0348 3.05748 3.08017 3.10286 3.12554 
3.14823 3.17092 3.1936 3.21629 3.23898 3.23906 3.23723 3.2354 3.23357 
3.23174 3.22991 3.22807 3.22624 3.22441 3.22258 3.22075 3.21892 3.21709 
3.21525 3.21342 3.21159 3.20976 3.20793 3.2061 3.20427 3.19952 3.19322 
3.18691 3.18061 3.17431 3.16801 3.16171 3.1554 3.1491 3.1428 3.1365 
3.1302 3.12389 3.11759 3.11129 3.10499 3.09869 3.09239 3.08608 3.07978 
3.07245 3.0635 3.05455 3.04561 3.03666 3.02771 3.01877 3.00982 3.00087 
2.99193 2.98298 2.97404 2.96509 2.95614 2.9472 2.93825 2.9293 2.92036 
2.91141 2.90246 2.89067 2.87106 2.85146 2.83186 2.81225 2.79265 2.77305 
2.75344 2.73384 2.71424 2.69463 2.67503 2.65543 2.63582 2.61622 2.59662 
2.57701 2.55741 2.53781 2.5182 2.4986 
TEXTURE_COORDINATES TCoords 2 float
0 0 0.000785546 0 0.00157109 0 0.00235664 0 0.00314218 
0 0.00392773 0 0.00471328 0 0.00549882 0 0.00628437 0 
0.00706991 0 0.00785546 0 0.00864101 0 0.00942655 0 0.0102121 
0 0.0109976 0 0.0117832 0 0.0125687 0 0.0133543 0 
0.0141398 0 0.0149254 0 0.0157109 0 0.0164965 0 0.017282 
0 0.0180676 0 0.0188531 0 0.0196386 0 0.0204242 0 
0.0212097 0 0.0219953 0 0.0227808 0 0.0235664 0 0.0243519 
0 0.0251375 0 0.025923 0 0.0267086 0 0.0274941 0 
0.0282797 0 0.0290652 0 0.0298507 0 0.0306363 0 0.0314218 
0 0.0322074 0 0.0329929 0 0.0337785 0 0.034564 0 
0.0353496 0 0.0361351 0 0.0369207 0 0.0377062 0 0.0384918 
0 0.0392773 0 0.0400628 0 0.0408484 0 0.0416339 0 
0.0424195 0 0.043205 0 0.0439906 0 0.0447761 0 0.0455617 
0 0.0463472 0 0.0471328 0 0.0479183 0 0.0487038 0 
0.0494894 0 0.0502749 0 0.0510605 0 0.051846 0 0.0526316 
0 0.0534171 0 0.0542027 0 0.0549882 0 0.0557738 0 
0.0565593 0 0.0573449 0 0.0581304 0 0.0589159 0 0.0597015 
0 0.060487 0 0.0612726 0 0.0620581 0 0.0628437 0 
0.0636292 0 0.0644148 0 0.0652003 0 0.0659859 0 0.0667714 
0 0.067557 0 0.0683425 0 0.069128 0 0.0699136 0 
0.0706991 0 0.0714847 0 0.0722702 0 0.0730558 0 0.0738413 
0 0.0746269 0 0.0754124 0 0.076198 0 0.0769835 0 
0.077769 0 0.0785546 0 0.0793401 0 0.0801257 0 0.0809112 
0 0.0816968 0 0.0824823 0 0.0832679 0 0.0840534 0 
0.084839 0 0.0856245 0 0.0864101 0 0.0871956 0 0.0879811 
0 0.0887667 0 0.0895522 0 0.0903378 0 0.0911233 0 
0.0919089 0 0.0926944 0 0.09348 0 0.0942655 0 0.0950511 
0 0.0958366 0 0.0966222 0 0.0974077 0 0.0981932 0 
0.0989788 0 0.0997643 0 0.10055 0 0.101335 0 0.102121 
0 0.102907 0 0.103692 0 0.104478 0 0.105263 0 
0.106049 0 0.106834 0 0.10762 0 0.108405 0 0.109191 
0 0.109976 0 0.110762 0 0.111548 0 0.112333 0 
0.113119 0 0.113904 0 0.11469 0 0.115475 0 0.116261 
0 0.117046 0 0.117832 0 0.118617 0 0.119403 0 
0.120189 0 0.120974 0 0.12176 0 0.122545 0 0.123331 
0 0.124116 0 0.124902 0 0.125687 0 0.126473 0 
0.127258 0 0.128044 0 0.12883 0 0.129615 0 0.130401 
0 0.131186 0 0.131972 0 0.132757 0 0.133543 0 
0.134328 0 0.135114 0 0.135899 0 0.136685 0 0.137471 
0 0.138256 0 0.139042 0 0.139827 0 0.140613 0 
0.141398 0 0.142184 0 0.142969 0 0.143755 0 0.14454 
0 0.145326 0 0.146112 0 0.146897 0 0.147683 0 
0.148468 0 0.149254 0 0.150039 0 0.150825 0 0.15161 
0 0.152396 0 0.153181 0 0.153967 0 0.154753 0 
0.155538 0 0.156324 0 0.157109 0 0.157895 0 0.15868 
0 0.159466 0 0.160251 0 0.161037 0 0.161822 0 
0.162608 0 0.163394 0 0.164179 0 0.164965 0 0.16575 
0 0.166536 0 0.167321 0 0.168107 0 0.168892 0 
0.169678 0 0.170463 0 0.171249 0 0.172035 0 0.17282 
0 0.173606 0 0.174391 0 0.175177 0 0.175962 0 
0.176748 0 0.177533 0 0.178319 0 0.179104 0 0.17989 
0 0.180676 0 0.181461 0 0.182247 0 0.183032 0 
0.183818 0 0.184603 0 0.185389 0 0.186174 0 0.18696 
0 0.187745 0 0.188531 0 0.189317 0 0.190102 0 
0.190888 0 0.191673 0 0.192459 0 0.193244 0 0.19403 
0 0.194815 0 0.195601 0 0.196386 0 0.197172 0 
0.197958 0 0.198743 0 0.199529 0 0.200314 0 0.2011 
0 0.201885 0 0.202671 0 0.203456 0 0.204242 0 
0.205027 0 0.205813 0 0.206599 0 0.207384 0 0.20817 
0 0.208955 0 0.209741 0 0.210526 0 0.211312 0 
0.212097 0 0.212883 0 0.213668 0 0.214454 0 0.21524 
0 0.216025 0 0.216811 0 0.217596 0 0.218382 0 
0.219167 0 0.219953 0 0.220738 0 0.221524 0 0.222309 
0 0.223095 0 0.223881 0 0.224666 0 0.225452 0 
0.226237 0 0.227023 0 0.227808 0 0.228594 0 0.229379 
0 0.230165 0 0.230951 0 0.231736 0 0.232522 0 
0.233307 0 0.234093 0 0.234878 0 0.235664 0 0.236449 
0 0.237235 0 0.23802 0 0.238806 0 0.239592 0 
0.240377 0 0.241163 0 0.241948 0 0.242734 0 0.243519 
0 0.244305 0 0.24509 0 0.245876 0 0.246661 0 
0.247447 0 0.248233 0 0.249018 0 0.249804 0 0.250589 
0 0.251375 0 0.25216 0 0.252946 0 0.253731 0 
0.254517 0 0.255302 0 0.256088 0 0.256874 0 0.257659 
0 0.258445 0 0.25923 0 0.260016 0 0.260801 0 
0.261587 0 0.262372 0 0.263158 0 0.263943 0 0.264729 
0 0.265515 0 0.2663 0 0.267086 0 0.267871 0 
0.268657 0 0.269442 0 0.270228 0 0.271013 0 0.271799 
0 0.272584 0 0.27337 0 0.274156 0 0.274941 0 
0.275727 0 0.276512 0 0.277298 0 0.278083 0 0.278869 
0 0.279654 0 0.28044 0 0.281225 0 0.282011 0 
0.282797 0 0.283582 0 0.284368 0 0.285153 0 0.285939 
0 0.286724 0 0.28751 0 0.288295 0 0.289081 0 
0.289866 0 0.290652 0 0.291438 0 0.292223 0 0.293009 
0 0.293794 0 0.29458 0 0.295365 0 0.296151 0 
0.296936 0 0.297722 0 0.298507 0 0.299293 0 0.300079 
0 0.300864 0 0.30165 0 0.302435 0 0.303221 0 
0.304006 0 0.304792 0 0.305577 0 0.306363 0 0.307148 
0 0.307934 0 0.30872 0 0.309505 0 0.310291 0 
0.311076 0 0.311862 0 0.312647 0 0.313433 0 0.314218 
0 0.315004 0 0.315789 0 0.316575 0 0.317361 0 
0.318146 0 0.318932 0 0.319717 0 0.320503 0 0.321288 
0 0.322074 0 0.322859 0 0.323645 0 0.32443 0 
0.325216 0 0.326002 0 0.326787 0 0.327573 0 0.328358 
0 0.329144 0 0.329929 0 0.330715 0 0.3315 0 
0.332286 0 0.333071 0 0.333857 0 0.334643 0 0.335428 
0 0.336214 0 0.336999 0 0.337785 0 0.33857 0 
0.339356 0 0.340141 0 0.340927 0 0.341713 0 0.342498 
0 0.343284 0 0.344069 0 0.344855 0 0.34564 0 
0.346426 0 0.347211 0 0.347997 0 0.348782 0 0.349568 
0 0.350354 0 0.351139 0 0.351925 0 0.35271 0 
0.353496 0 0.354281 0 0.355067 0 0.355852 0 0.356638 
0 0.357423 0 0.358209 0 0.358995 0 0.35978 0 
0.360566 0 0.361351 0 0.362137 0 0.362922 0 0.363708 
0 0.364493 0 0.365279 0 0.366064 0 0.36685 0 
0.367636 0 0.368421 0 0.369207 0 0.369992 0 0.370778 
0 0.371563 0 0.372349 0 0.373134 0 0.37392 0 
0.374705 0 0.375491 0 0.376277 0 0.377062 0 0.377848 
0 0.378633 0 0.379419 0 0.380204 0 0.38099 0 
0.381775 0 0.382561 0 0.383346 0 0.384132 0 0.384918 
0 0.385703 0 0.386489 0 0.387274 0 0.38806 0 
0.388845 0 0.389631 0 0.390416 0 0.391202 0 0.391987 
0 0.392773 0 0.393559 0 0.394344 0 0.39513 0 
0.395915 0 0.396701 0 0.397486 0 0.398272 0 0.399057 
0 0.399843 0 0.400628 0 0.401414 0 0.4022 0 
0.402985 0 0.403771 0 0.404556 0 0.405342 0 0.406127 
0 0.406913 0 0.407698 0 0.408484 0 0.409269 0 
0.410055 0 0.410841 0 0.411626 0 0.412412 0 0.413197 
0 0.413983 0 0.414768 0 0.415554 0 0.416339 0 
0.417125 0 0.41791 0 0.418696 0 0.419482 0 0.420267 
0 0.421053 0 0.421838 0 0.422624 0 0.423409 0 
0.424195 0 0.42498 0 0.425766 0 0.426551 0 0.427337 
0 0.428123 0 0.428908 0 0.429694 0 0.430479 0 
0.431265 0 0.43205 0 0.432836 0 0.433621 0 0.434407 
0 0.435192 0 0.435978 0 0.436764 0 0.437549 0 
0.438335 0 0.43912 0 0.439906 0 0.440691 0 0.441477 
0 0.442262 0 0.443048 0 0.443833 0 0.444619 0 
0.445405 0 0.44619 0 0.446976 0 0.447761 0 0.448547 
0 0.449332 0 0.450118 0 0.450903 0 0.451689 0 
0.452474 0 0.45326 0 0.454046 0 0.454831 0 0.455617 
0 0.456402 0 0.457188 0 0.457973 0 0.458759 0 
0.459544 0 0.46033 0 0.461115 0 0.461901 0 0.462687 
0 0.463472 0 0.464258 0 0.465043 0 0.465829 0 
0.466614 0 0.4674 0 0.468185 0 0.468971 0 0.469756 
0 0.470542 0 0.471328 0 0.472113 0 0.472899 0 
0.473684 0 0.47447 0 0.475255 0 0.476041 0 0.476826 
0 0.477612 0 0.478397 0 0.479183 0 0.479969 0 
0.480754 0 0.48154 0 0.482325 0 0.483111 0 0.483896 
0 0.484682 0 0.485467 0 0.486253 0 0.487038 0 
0.487824 0 0.48861 0 0.489395 0 0.490181 0 0.490966 
0 0.491752 0 0.492537 0 0.493323 0 0.494108 0 
0.494894 0 0.495679 0 0.496465 0 0.497251 0 0.498036 
0 0.498822 0 0.499607 0 0.500393 0 0.501178 0 
0.501964 0 0.502749 0 0.503535 0 0.504321 0 0.505106 
0 0.505892 0 0.506677 0 0.507463 0 0.508248 0 
0.509034 0 0.509819 0 0.510605 0 0.51139 0 0.512176 
0 0.512962 0 0.513747 0 0.514533 0 0.515318 0 
0.516104 0 0.516889 0 0.517675 0 0.51846 0 0.519246 
0 0.520031 0 0.520817 0 0.521603 0 0.522388 0 
0.523174 0 0.523959 0 0.524745 0 0.52553 0 0.526316 
0 0.527101 0 0.527887 0 0.528672 0 0.529458 0 
0.530244 0 0.531029 0 0.531815 0 0.5326 0 0.533386 
0 0.534171 0 0.534957 0 0.535742 0 0.536528 0 
0.537313 0 0.538099 0 0.538885 0 0.53967 0 0.540456 
0 0.541241 0 0.542027 0 0.542812 0 0.543598 0 
0.544383 0 0.545169 0 0.545954 0 0.54674 0 0.547526 
0 0.548311 0 0.549097 0 0.549882 0 0.550668 0 
0.551453 0 0.552239 0 0.553024 0 0.55381 0 0.554595 
0 0.555381 0 0.556167 0 0.556952 0 0.557738 0 
0.558523 0 0.559309 0 0.560094 0 0.56088 0 0.561665 
0 0.562451 0 0.563236 0 0.564022 0 0.564808 0 
0.565593 0 0.566379 0 0.567164 0 0.56795 0 0.568735 
0 0.569521 0 0.570306 0 0.571092 0 0.571877 0 
0.572663 0 0.573449 0 0.574234 0 0.57502 0 0.575805 
0 0.576591 0 0.577376 0 0.578162 0 0.578947 0 
0.579733 0 0.580518 0 0.581304 0 0.58209 0 0.582875 
0 0.583661 0 0.584446 0 0.585232 0 0.586017 0 
0.586803 0 0.587588 0 0.588374 0 0.589159 0 0.589945 
0 0.590731 0 0.591516 0 0.592302 0 0.593087 0 
0.593873 0 0.594658 0 0.595444 0 0.596229 0 0.597015 
0 0.5978 0 0.598586 0 0.599372 0 0.600157 0 
0.600943 0 0.601728 0 0.602514 0 0.603299 0 0.604085 
0 0.60487 0 0.605656 0 0.606441 0 0.607227 0 
0.608013 0 0.608798 0 0.609584 0 0.610369 0 0.611155 
0 0.61194 0 0.612726 0 0.613511 0 0.614297 0 
0.615083 0 0.615868 0 0.616654 0 0.617439 0 0.618225 
0 0.61901 0 0.619796 0 0.620581 0 0.621367 0 
0.622152 0 0.622938 0 0.623724 0 0.624509 0 0.625295 
0 0.62608 0 0.626866 0 0.627651 0 0.628437 0 
0.629222 0 0.630008 0 0.630793 0 0.631579 0 0.632365 
0 0.63315 0 0.633936 0 0.634721 0 0.635507 0 
0.636292 0 0.637078 0 0.637863 0 0.638649 0 0.639434 
0 0.64022 0 0.641006 0 0.641791 0 0.642577 0 
0.643362 0 0.644148 0 0.644933 0 0.645719 0 0.646504 
0 0.64729 0 0.648075 0 0.648861 0 0.649647 0 
0.650432 0 0.651218 0 0.652003 0 0.652789 0 0.653574 
0 0.65436 0 0.655145 0 0.655931 0 0.656716 0 
0.657502 0 0.658288 0 0.659073 0 0.659859 0 0.660644 
0 0.66143 0 0.662215 0 0.663001 0 0.663786 0 
0.664572 0 0.665357 0 0.666143 0 0.666929 0 0.667714 
0 0.6685 0 0.669285 0 0.670071 0 0.670856 0 