# vtk DataFile Version 4.2
vtk output
ASCII
DATASET POLYDATA
POINTS 1275 float
0 0 0 -0.00316356 0.00142932 0.00223256 -0.0123843 0.00560281 0.00874478 
-0.0272575 0.0123487 0.0192585 -0.0473783 0.0214954 0.0334955 -0.0723419 0.0328711 0.0511776 
-0.101743 0.046304 0.0720267 -0.135178 0.0616225 0.0957646 -0.172241 0.0786549 0.122113 
-0.212527 0.0972293 0.150794 -0.255632 0.117174 0.181529 -0.301151 0.138318 0.21404 
-0.348679 0.160488 0.248049 -0.39781 0.183514 0.283278 -0.448142 0.207223 0.319448 
-0.499267 0.231444 0.356281 -0.550783 0.256005 0.3935 -0.602283 0.280735 0.430825 
-0.653364 0.305461 0.46798 -0.703619 0.330012 0.504685 -0.752645 0.354216 0.540662 
-0.800041 0.377904 0.575637 -0.845617 0.400988 0.609475 -0.889474 0.423498 0.642236 
-0.931732 0.44547 0.673995 -0.972513 0.466941 0.704827 -1.01194 0.487948 0.734806 
-1.05013 0.508529 0.764006 -1.08721 0.528719 0.792503 -1.12329 0.548557 0.82037 
-1.15851 0.56808 0.847682 -1.19298 0.587323 0.874514 -1.22682 0.606324 0.900941 
-1.26015 0.625121 0.927036 -1.2931 0.64375 0.952875 -1.32578 0.662247 0.978532 
-1.35833 0.680651 1.00408 -1.39085 0.698998 1.0296 -1.42347 0.717325 1.05516 
-1.45632 0.735669 1.08083 -1.48951 0.754066 1.10669 -1.52316 0.772554 1.13282 
-1.55733 0.791147 1.15925 -1.592 0.809828 1.18595 -1.62714 0.828581 1.21292 
-1.66273 0.84739 1.24012 -1.69873 0.866238 1.26753 -1.73511 0.885107 1.29513 
-1.77186 0.903982 1.32291 -1.80894 0.922845 1.35084 -1.84633 0.941679 1.37889 
-1.884 0.960468 1.40706 -1.92192 0.979195 1.4353 -1.96006 0.997843 1.46361 
-1.9984 1.0164 1.49197 -2.03691 1.03484 1.52034 -2.07556 1.05315 1.54872 
-2.11433 1.07131 1.57707 -2.15318 1.08931 1.60538 -2.1921 1.10713 1.63363 
-2.23104 1.12476 1.66179 -2.27 1.14217 1.68984 -2.30894 1.15936 1.71776 
-2.34787 1.17631 1.74557 -2.38682 1.19302 1.77325 -2.42578 1.2095 1.80082 
-2.46477 1.22572 1.82827 -2.5038 1.24169 1.85561 -2.54288 1.2574 1.88284 
-2.58203 1.27285 1.90997 -2.62125 1.28804 1.93699 -2.66055 1.30295 1.9639 
-2.69996 1.31758 1.99072 -2.73946 1.33192 2.01744 -2.77909 1.34599 2.04407 
-2.81885 1.35975 2.07061 -2.85875 1.37322 2.09705 -2.89879 1.38639 2.12341 
-2.93901 1.39925 2.14969 -2.97939 1.4118 2.17588 -3.01997 1.42403 2.202 
-3.06073 1.43593 2.22804 -3.10171 1.44751 2.254 -3.14289 1.45875 2.27989 
-3.18428 1.46963 2.30568 -3.22587 1.48014 2.33138 -3.26767 1.49027 2.35696 
-3.30966 1.5 2.38244 -3.35186 1.50932 2.40779 -3.39425 1.51821 2.433 
-3.43684 1.52666 2.45808 -3.47962 1.53466 2.48301 -3.5226 1.54219 2.50777 
-3.56577 1.54924 2.53237 -3.60913 1.55579 2.5568 -3.65268 1.56184 2.58104 
-3.69641 1.56735 2.60509 -3.74033 1.57233 2.62894 -3.78444 1.57675 2.65257 
-3.82873 1.58061 2.67599 -3.87319 1.58388 2.69918 -3.91784 1.58656 2.72214 
-3.96267 1.58863 2.74485 -4.00766 1.59008 2.76731 -4.05282 1.5909 2.7895 
-4.09812 1.59108 2.81142 -4.14355 1.59062 2.83306 -4.18911 1.58949 2.8544 
-4.23479 1.5877 2.87544 -4.28056 1.58524 2.89617 -4.32643 1.58209 2.91657 
-4.37237 1.57825 2.93663 -4.41838 1.57371 2.95635 -4.46445 1.56846 2.97572 
-4.51056 1.56248 2.99472 -4.55671 1.55578 3.01335 -4.60288 1.54834 3.03159 
-4.64906 1.54016 3.04944 -4.69524 1.53121 3.06689 -4.7414 1.5215 3.08392 
-4.78755 1.51102 3.10052 -4.83365 1.49976 3.11669 -4.87972 1.4877 3.13242 
-4.92572 1.47485 3.1477 -4.97166 1.46123 3.16253 -5.01751 1.44684 3.17693 
-5.06328 1.4317 3.19088 -5.10894 1.41582 3.20441 -5.15448 1.39923 3.21752 
-5.19991 1.38192 3.2302 -5.24519 1.36392 3.24246 -5.29033 1.34525 3.25431 
-5.3353 1.3259 3.26576 -5.38011 1.3059 3.2768 -5.42473 1.28526 3.28744 
-5.46916 1.264 3.29769 -5.51339 1.24213 3.30755 -5.55739 1.21966 3.31702 
-5.60117 1.1966 3.32611 -5.64471 1.17298 3.33483 -5.688 1.1488 3.34318 
-5.73103 1.12408 3.35115 -5.77379 1.09883 3.35877 -5.81626 1.07307 3.36603 
-5.85846 1.04681 3.37294 -5.90039 1.02006 3.37951 -5.94204 0.992844 3.38576 
-5.98343 0.965172 3.39168 -6.02455 0.93706 3.39729 -6.06541 0.908522 3.4026 
-6.10602 0.879573 3.40762 -6.14638 0.850228 3.41236 -6.18648 0.8205 3.41682 
-6.22635 0.790406 3.42102 -6.26597 0.75996 3.42497 -6.30535 0.729176 3.42866 
-6.3445 0.698069 3.43212 -6.38342 0.666654 3.43536 -6.42211 0.634945 3.43837 
-6.46058 0.602957 3.44118 -6.49883 0.570705 3.44378 -6.53686 0.538204 3.4462 
-6.57468 0.505468 3.44844 -6.6123 0.472511 3.4505 -6.64971 0.439341 3.45239 
-6.68693 0.405966 3.45411 -6.72397 0.372394 3.45566 -6.76083 0.338631 3.45704 
-6.79753 0.304686 3.45826 -6.83407 0.270565 3.4593 -6.87045 0.236276 3.46018 
-6.9067 0.201827 3.4609 -6.94281 0.167225 3.46144 -6.97879 0.132476 3.46183 
-7.01466 0.0975894 3.46205 -7.05042 0.0625717 3.4621 -7.08608 0.0274303 3.462 
-7.12164 -0.00782717 3.46173 -7.15712 -0.0431935 3.4613 -7.19253 -0.0786612 3.46071 
-7.22787 -0.114223 3.45995 -7.26315 -0.149871 3.45904 -7.29838 -0.185599 3.45797 
-7.33357 -0.221398 3.45674 -7.36871 -0.257265 3.45533 -7.40379 -0.293195 3.45368 
-7.4388 -0.329186 3.45176 -7.47372 -0.365234 3.44952 -7.50855 -0.401336 3.44692 
-7.54328 -0.437489 3.44392 -7.57789 -0.473689 3.44048 -7.61237 -0.509933 3.43654 
-7.6467 -0.546218 3.43208 -7.68089 -0.582539 3.42703 -7.71491 -0.618895 3.42138 
-7.74876 -0.655282 3.41506 -7.78241 -0.691695 3.40803 -7.81587 -0.728133 3.40026 
-7.84912 -0.764591 3.3917 -7.88215 -0.801067 3.38231 -7.91494 -0.837557 3.37204 
-7.94748 -0.874057 3.36085 -7.97977 -0.910565 3.3487 -8.01179 -0.947077 3.33554 
-8.04351 -0.983586 3.32137 -8.0749 -1.02008 3.30617 -8.10592 -1.05655 3.28998 
-8.13652 -1.09299 3.27279 -8.16666 -1.12938 3.25463 -8.1963 -1.16571 3.23549 
-8.22541 -1.20197 3.2154 -8.25394 -1.23816 3.19435 -8.28184 -1.27426 3.17237 
-8.30909 -1.31025 3.14947 -8.33563 -1.34613 3.12565 -8.36143 -1.38189 3.10093 
-8.38645 -1.41752 3.07531 -8.41064 -1.453 3.04881 -8.43397 -1.48833 3.02144 
-8.45639 -1.52349 2.99322 -8.47786 -1.55848 2.96414 -8.49835 -1.59327 2.93423 
-8.5178 -1.62787 2.90348 -8.53619 -1.66226 2.87193 -8.55349 -1.69643 2.83958 
-8.56971 -1.73039 2.80647 -8.58488 -1.76415 2.77265 -8.599 -1.7977 2.73815 
-8.6121 -1.83106 2.70302 -8.62419 -1.86423 2.66729 -8.63529 -1.89721 2.63101 
-8.64542 -1.93001 2.59421 -8.65458 -1.96263 2.55693 -8.66281 -1.99509 2.51922 
-8.67011 -2.02737 2.48111 -8.67651 -2.0595 2.44265 -8.68201 -2.09147 2.40387 
-8.68664 -2.12328 2.36482 -8.69042 -2.15495 2.32553 -8.69336 -2.18648 2.28604 
-8.69547 -2.21787 2.2464 -8.69678 -2.24913 2.20664 -8.6973 -2.28027 2.1668 
-8.69704 -2.31128 2.12693 -8.69603 -2.34217 2.08706 -8.69427 -2.37295 2.04719 
-8.69178 -2.40361 2.00733 -8.68856 -2.43414 1.96748 -8.68463 -2.46456 1.92766 
-8.67999 -2.49486 1.88786 -8.67466 -2.52504 1.8481 -8.66864 -2.55511 1.80837 
-8.66194 -2.58505 1.76868 -8.65458 -2.61486 1.72905 -8.64657 -2.64456 1.68946 
-8.63791 -2.67414 1.64993 -8.62861 -2.70359 1.61047 -8.61869 -2.73292 1.57107 
-8.60816 -2.76213 1.53175 -8.59702 -2.79122 1.49251 -8.58529 -2.82018 1.45335 
-8.57298 -2.84902 1.41428 -8.56009 -2.87773 1.37531 -8.54663 -2.90632 1.33644 
-8.53263 -2.93479 1.29767 -8.51807 -2.96313 1.25902 -8.50299 -2.99134 1.22047 
-8.48737 -3.01944 1.18205 -8.47123 -3.04741 1.14375 -8.45458 -3.07526 1.10557 
-8.43742 -3.10299 1.06752 -8.41977 -3.1306 1.0296 -8.40163 -3.1581 0.991822 
-8.38302 -3.18547 0.954184 -8.36393 -3.21273 0.916691 -8.34437 -3.23988 0.879346 
-8.32437 -3.26691 0.842154 -8.30391 -3.29382 0.805119 -8.28302 -3.32063 0.768244 
-8.2617 -3.34732 0.731533 -8.23995 -3.3739 0.694991 -8.21779 -3.40037 0.65862 
-8.19523 -3.42673 0.622426 -8.17226 -3.45298 0.586411 -8.14891 -3.47912 0.55058 
-8.12518 -3.50516 0.514935 -8.10107 -3.5311 0.479476 -8.07659 -3.55693 0.444204 
-8.05175 -3.58266 0.40912 -8.02656 -3.6083 0.374225 -8.00102 -3.63385 0.339518 
-7.97514 -3.6593 0.305001 -7.94892 -3.68467 0.270675 -7.92238 -3.70995 0.23654 
-7.89551 -3.73514 0.202597 -7.86834 -3.76026 0.168846 -7.84085 -3.78529 0.135289 
-7.81307 -3.81025 0.101925 -7.78499 -3.83514 0.0687564 -7.75663 -3.85995 0.0357829 
-7.72798 -3.8847 0.00300549 -7.69907 -3.90937 -0.0295752 -7.66989 -3.93399 -0.0619586 
-7.64044 -3.95854 -0.0941438 -7.61075 -3.98303 -0.12613 -7.58081 -4.00747 -0.157918 
-7.55063 -4.03185 -0.189507 -7.52022 -4.05619 -0.220898 -7.48957 -4.08049 -0.252091 
-7.45869 -4.10475 -0.283087 -7.4276 -4.12898 -0.313887 -7.39628 -4.15318 -0.344491 
-7.36475 -4.17736 -0.374899 -7.33302 -4.20152 -0.405112 -7.30108 -4.22567 -0.43513 
-7.26895 -4.24981 -0.464955 -7.23662 -4.27395 -0.494585 -7.2041 -4.29809 -0.524023 
-7.1714 -4.32224 -0.553268 -7.13852 -4.34639 -0.582322 -7.10547 -4.37057 -0.611183 
-7.07224 -4.39476 -0.639854 -7.03886 -4.41898 -0.668334 -7.00531 -4.44323 -0.696624 
-6.97161 -4.46751 -0.724724 -6.93776 -4.49184 -0.752634 -6.90376 -4.51621 -0.780348 
-6.86963 -4.54063 -0.807861 -6.83536 -4.5651 -0.835167 -6.80097 -4.58963 -0.86226 
-6.76645 -4.61423 -0.889134 -6.73183 -4.63889 -0.915783 -6.69709 -4.66363 -0.942202 
-6.66225 -4.68844 -0.968385 -6.62732 -4.71333 -0.994325 -6.59229 -4.73831 -1.02002 
-6.55718 -4.76338 -1.04546 -6.52199 -4.78855 -1.07063 -6.48672 -4.81381 -1.09555 
-6.45139 -4.83919 -1.12019 -6.416 -4.86466 -1.14455 -6.38055 -4.89026 -1.16864 
-6.34506 -4.91597 -1.19243 -6.30952 -4.9418 -1.21593 -6.27394 -4.96777 -1.23912 
-6.23833 -4.99386 -1.26201 -6.20268 -5.0201 -1.28459 -6.16699 -5.0465 -1.30685 
-6.13125 -5.07308 -1.32878 -6.09546 -5.09984 -1.35038 -6.05961 -5.12681 -1.37164 
-6.02369 -5.15399 -1.39255 -5.98769 -5.1814 -1.41311 -5.95162 -5.20906 -1.43331 
-5.91546 -5.23698 -1.45314 -5.87921 -5.26518 -1.4726 -5.84285 -5.29367 -1.49168 
-5.8064 -5.32246 -1.51037 -5.76983 -5.35157 -1.52867 -5.73314 -5.38101 -1.54657 
-5.69634 -5.4108 -1.56406 -5.6594 -5.44095 -1.58114 -5.62232 -5.47148 -1.5978 
-5.5851 -5.5024 -1.61403 -5.54773 -5.53373 -1.62983 -5.51021 -5.56547 -1.64518 
-5.47256 -5.59763 -1.66003 -5.43484 -5.6302 -1.67428 -5.39711 -5.66316 -1.68783 
-5.35941 -5.6965 -1.70057 -5.3218 -5.73021 -1.71241 -5.28434 -5.76427 -1.72324 
-5.24708 -5.79867 -1.73297 -5.21007 -5.8334 -1.74148 -5.17338 -5.86844 -1.74869 
[...]
CELL_DATA 1
FIELD FieldData 2
Length 1 1 double
63.751986667 
Tortuosity 1 1 double
1.3826418272 
POINT_DATA 1275
SCALARS MaximumInscribedSphereRadius float
LOOKUP_TABLE default
1.24 1.24139 1.24278 1.24416 1.24555 1.24694 1.24833 1.24971 1.2511 
1.25249 1.25388 1.25527 1.25665 1.25804 1.25943 1.26082 1.2622 1.26359 
1.26498 1.26637 1.26775 1.27631 1.29675 1.31719 1.33762 1.35806 1.37849 
1.39893 1.41937 1.4398 1.46024 1.48068 1.50111 1.52155 1.54198 1.56242 
1.58286 1.60329 1.62373 1.64417 1.6646 1.67148 1.65892 1.64637 1.63381 
1.62126 1.6087 1.59615 1.58359 1.57104 1.55848 1.54592 1.53337 1.52081 
1.50826 1.4957 1.48315 1.47059 1.45804 1.44548 1.43292 1.41997 1.4051 
1.39023 1.37536 1.3605 1.34563 1.33076 1.3159 1.30103 1.28616 1.27129 
1.25643 1.24156 1.22669 1.21182 1.19696 1.18209 1.16722 1.15236 1.13749 
1.12262 1.13602 1.15234 1.16866 1.18498 1.2013 1.21761 1.23393 1.25025 
1.26657 1.28289 1.29921 1.31553 1.33184 1.34816 1.36448 1.3808 1.39712 
1.41344 1.42975 1.44607 1.44576 1.43663 1.4275 1.41837 1.40923 1.4001 
1.39097 1.38184 1.3727 1.36357 1.35444 1.34531 1.33617 1.32704 1.31791 
1.30878 1.29965 1.29051 1.28138 1.27225 1.26805 1.27029 1.27252 1.27476 
1.27699 1.27923 1.28146 1.2837 1.28593 1.28817 1.2904 1.29264 1.29487 
1.29711 1.29934 1.30158 1.30381 1.30605 1.30828 1.31052 1.31446 1.32466 
1.33486 1.34505 1.35525 1.36545 1.37564 1.38584 1.39604 1.40623 1.41643 
1.42663 1.43682 1.44702 1.45722 1.46741 1.47761 1.48781 1.49801 1.5082 
1.5184 1.52062 1.52251 1.5244 1.52629 1.52819 1.53008 1.53197 1.53386 
1.53576 1.53765 1.53954 1.54143 1.54333 1.54522 1.54711 1.549 1.55089 
1.55279 1.55468 1.55657 1.55646 1.55543 1.55441 1.55339 1.55237 1.55134 
1.55032 1.5493 1.54828 1.54725 1.54623 1.54521 1.54419 1.54316 1.54214 
1.54112 1.5401 1.53907 1.53805 1.53703 1.53417 1.52893 1.52369 1.51845 
1.51321 1.50797 1.50273 1.49749 1.49225 1.48701 1.48176 1.47652 1.47128 
1.46604 1.4608 1.45556 1.45032 1.44508 1.43984 1.4346 1.43765 1.45889 
1.48013 1.50137 1.52261 1.54385 1.56509 1.58633 1.60757 1.62881 1.65005 
1.67129 1.69253 1.71377 1.73501 1.75625 1.77749 1.79874 1.81998 1.84122 
1.85959 1.85601 1.85243 1.84885 1.84528 1.8417 1.83812 1.83454 1.83097 
1.82739 1.82381 1.82023 1.81666 1.81308 1.8095 1.80592 1.80235 1.79877 
1.79519 1.79161 1.78804 1.77871 1.76858 1.75846 1.74833 1.73821 1.72808 
1.71796 1.70783 1.69771 1.68758 1.67746 1.66733 1.65721 1.64708 1.63696 
1.62684 1.61671 1.60659 1.59646 1.58634 1.58153 1.57992 1.57832 1.57671 
1.57511 1.5735 1.5719 1.57029 1.56869 1.56708 1.56548 1.56387 1.56226 
1.56066 1.55905 1.55745 1.55584 1.55424 1.55263 1.55103 1.55 1.55 
1.55 1.55 1.55 1.55 1.55 1.55 1.55 1.55 1.55 
1.55 1.55 1.55 1.55 1.55 1.55 1.55 1.55 1.55 
1.55077 1.55934 1.56791 1.57648 1.58505 1.59362 1.60219 1.61076 1.61933 
1.6279 1.63647 1.64504 1.65361 1.66218 1.67075 1.67932 1.68789 1.69646 
1.70503 1.7136 1.72217 1.74057 1.76114 1.7817 1.80226 1.82283 1.84339 
1.86396 1.88452 1.90508 1.92565 1.94621 1.96678 1.98734 2.00791 2.02847 
2.04903 2.0696 2.09016 2.11073 2.13129 2.14462 2.15242 2.16021 2.168 
2.17579 2.18358 2.19138 2.19917 2.20696 2.21475 2.22255 2.23034 2.23813 
2.24592 2.25372 2.26151 2.2693 2.27709 2.28489 2.29268 2.2853 2.25791 
2.23052 2.20313 2.17575 2.14836 2.12097 2.09358 2.06619 2.0388 2.01142 
1.98403 1.95664 1.92925 1.90186 1.87447 1.84708 1.8197 1.79231 1.76492 
1.7587 1.75853 1.75836 1.75819 1.75802 1.75784 1.75767 1.7575 1.75733 
1.75716 1.75699 1.75682 1.75665 1.75648 1.75631 1.75614 1.75597 1.7558 
1.75563 1.75546 1.7482 1.73631 1.72442 1.71253 1.70064 1.68875 1.67686 
1.66497 1.65308 1.64119 1.6293 1.61741 1.60552 1.59363 1.58174 1.56985 
1.55796 1.54607 1.53418 1.52229 1.51675 1.52189 1.52703 1.53217 1.53731 
1.54245 1.54759 1.55274 1.55788 1.56302 1.56816 1.5733 1.57844 1.58358 
1.58873 1.59387 1.59901 1.60415 1.60929 1.61443 1.62251 1.6507 1.67889 
1.70708 1.73527 1.76346 1.79165 1.81984 1.84803 1.87622 1.90441 1.9326 
1.96079 1.98898 2.01717 2.04536 2.07355 2.10174 2.12993 2.15812 2.18631 
2.19255 2.19578 2.19901 2.20223 2.20546 2.20868 2.21191 2.21513 2.21836 
2.22159 2.22481 2.22804 2.23126 2.23449 2.23771 2.24094 2.24417 2.24739 
2.25062 2.25384 2.25464 2.25399 2.25334 2.25268 2.25203 2.25138 2.25073 
2.25007 2.24942 2.24877 2.24812 2.24746 2.24681 2.24616 2.24551 2.24485 
2.2442 2.24355 2.2429 2.24224 2.24604 2.25757 2.26909 2.28062 2.29215 
2.30368 2.3152 2.32673 2.33826 2.34978 2.36131 2.37284 2.38437 2.39589 
2.40742 2.41895 2.43048 2.442 2.45353 2.46506 2.475 2.47124 2.46748 
2.46372 2.45996 2.45619 2.45243 2.44867 2.44491 2.44115 2.43739 2.43363 
2.42987 2.4261 2.42234 2.41858 2.41482 2.41106 2.4073 2.40354 2.39978 
2.38176 2.36179 2.34182 2.32185 2.30188 2.2819 2.26193 2.24196 2.22199 
2.20201 2.18204 2.16207 2.1421 2.12212 2.10215 2.08218 2.06221 2.04223 
2.02226 2.00229 1.9865 1.97147 1.95644 1.9414 1.92637 1.91133 1.8963 
1.88127 1.86623 1.8512 1.83617 1.82113 1.8061 1.79107 1.77603 1.761 
1.74597 1.73093 1.7159 1.70087 1.70305 1.71233 1.72161 1.73089 1.74017 
1.74945 1.75873 1.76801 1.77729 1.78657 1.79585 1.80513 1.81441 1.82369 
1.83297 1.84225 1.85153 1.86081 1.87009 1.87937 1.89572 1.92056 1.9454 
1.97023 1.99507 2.01991 2.04475 2.06959 2.09442 2.11926 2.1441 2.16894 
2.19378 2.21861 2.24345 2.26829 2.29313 2.31796 2.3428 2.36764 2.3872 
2.3841 2.381 2.37789 2.37479 2.37169 2.36858 2.36548 2.36238 2.35927 
2.35617 2.35306 2.34996 2.34686 2.34375 2.34065 2.33755 2.33444 2.33134 
2.32824 2.32513 2.34392 2.36392 2.38391 2.40391 2.4239 2.4439 2.46389 
2.48389 2.50389 2.52388 2.54388 2.56387 2.58387 2.60387 2.62386 2.64386 
2.66385 2.68385 2.70384 2.72167 2.70025 2.67883 2.65742 2.636 2.61459 
2.59317 2.57176 2.55034 2.52893 2.50751 2.48609 2.46468 2.44326 2.42185 
2.40043 2.37902 2.3576 2.33619 2.31477 2.29336 2.29819 2.30494 2.31169 
2.31844 2.32518 2.33193 2.33868 2.34543 2.35218 2.35893 2.36567 2.37242 
2.37917 2.38592 2.39267 2.39942 2.40617 2.41291 2.41966 2.42641 2.42353 
2.41586 2.4082 2.40054 2.39287 2.38521 2.37754 2.36988 2.36221 2.35455 
2.34689 2.33922 2.33156 2.32389 2.31623 2.30857 2.3009 2.29324 2.28557 
2.27791 2.2717 2.26769 2.26368 2.25966 2.25565 2.25164 2.24762 2.24361 
2.23959 2.23558 2.23157 2.22755 2.22354 2.21952 2.21551 2.2115 2.20748 
2.20347 2.19945 2.19544 2.19299 2.19971 2.20643 2.21315 2.21988 2.2266 
2.23332 2.24004 2.24676 2.25349 2.26021 2.26693 2.27365 2.28037 2.2871 
2.29382 2.30054 2.30726 2.31398 2.32071 2.32743 2.33492 2.34248 2.35004 
2.35759 2.36515 2.3727 2.38026 2.38781 2.39537 2.40292 2.41048 2.41804 
2.42559 2.43315 2.4407 2.44826 2.45581 2.46337 2.47092 2.47848 2.47208 
2.46216 2.45224 2.44232 2.4324 2.42248 2.41256 2.40264 2.39272 2.3828 
2.37288 2.36296 2.35304 2.34312 2.3332 2.32328 2.31336 2.30344 2.29352 
2.2836 2.26781 2.24861 2.22941 2.21021 2.19101 2.17181 2.15261 2.13341 
2.11421 2.09501 2.07581 2.05661 2.03741 2.01821 1.99901 1.97981 1.96061 
1.94141 1.92221 1.90301 1.89012 1.88669 1.88325 1.87982 1.87638 1.87295 
1.86951 1.86607 1.86264 1.8592 1.85577 1.85233 1.8489 1.84546 1.84202 
1.83859 1.83515 1.83172 1.82828 1.82485 1.8204 1.80985 1.79931 1.78877 
1.77822 1.76768 1.75714 1.7466 1.73605 1.72551 1.71497 1.70442 1.69388 
1.68334 1.67279 1.66225 1.65171 1.64116 1.63062 1.62008 1.60954 1.61524 
1.62306 1.63088 1.6387 1.64653 1.65435 1.66217 1.66999 1.67781 1.68563 
1.69345 1.70128 1.7091 1.71692 1.72474 1.73256 1.74038 1.7482 1.75603 
1.76385 1.76964 1.77424 1.77884 1.78345 1.78805 1.79266 1.79726 1.80186 
1.80647 1.81107 1.81567 1.82028 1.82488 1.82948 1.83409 1.83869 1.8433 
1.8479 1.8525 1.85711 1.85564 1.84391 1.83218 1.82045 1.80872 1.79699 
1.78526 1.77353 1.76179 1.75006 1.73833 1.7266 1.71487 1.70314 1.69141 
1.67968 1.66795 1.65622 1.64449 1.63276 1.62102 1.60921 1.59741 1.58561 
1.5738 1.562 1.55019 1.53839 1.52659 1.51478 1.50298 1.49118 1.47937 
1.46757 1.45577 1.44396 1.43216 1.42035 1.40855 1.39675 1.38494 1.39865 
1.4167 1.43474 1.45278 1.47082 1.48887 1.50691 1.52495 1.54299 1.56104 
1.57908 1.59712 1.61517 1.63321 1.65125 1.66929 1.68734 1.70538 1.72342 
1.74147 1.77 1.80571 1.84142 1.87713 1.91284 1.94855 1.98426 2.01998 
2.05569 2.0914 2.12711 2.16282 2.19853 2.23424 2.26996 2.30567 2.34138 
2.37709 2.4128 2.44851 2.46211 2.42935 2.3966 2.36384 2.33109 2.29833 
2.26557 2.23282 2.20006 2.16731 2.13455 2.10179 2.06904 2.03628 2.00353 
1.97077 1.93801 1.90526 1.8725 1.83975 1.80838 1.80446 1.80054 1.79662 
1.7927 1.78878 1.78486 1.78094 1.77702 1.7731 1.76918 1.76526 1.76134 
1.75742 1.7535 1.74958 1.74566 1.74174 1.73782 1.7339 1.72998 1.72949 
1.73002 1.73056 1.73109 1.73162 1.73215 1.73269 1.73322 1.73375 1.73428 
1.73482 1.73535 1.73588 1.73642 1.73695 1.73748 1.73801 1.73855 1.73908 
1.73961 1.73737 1.73231 1.72724 1.72217 1.7171 1.71204 1.70697 1.7019 
1.69684 1.69177 1.6867 1.68163 1.67657 1.6715 1.66643 1.66137 1.6563 
1.65123 1.64616 1.6411 1.63893 1.64689 1.65484 1.66279 1.67074 1.67869 
1.68665 1.6946 1.70255 1.7105 1.71846 1.72641 1.73436 1.74231 1.75027 
1.75822 1.76617 1.77412 1.78207 1.79003 1.79798 1.79143 1.78437 1.77731 
1.77025 1.76319 1.75613 1.74907 1.74201 1.73495 1.72789 1.72083 1.71377 
1.70671 1.69965 1.6926 1.68554 1.67848 1.67142 1.66436 1.6573 1.67304 
1.69687 1.72069 1.74452 1.76835 1.79217 1.816 1.83982 1.86365 1.88747 
1.9113 1.93512 1.95895 1.98278 2.0066 2.03043 2.05425 2.07808 2.1019 
2.12573 2.13509 2.13157 2.12805 2.12453 2.12101 2.11749 2.11397 2.11045 
2.10693 2.10341 2.09989 2.09637 2.09285 2.08933 2.08581 2.08229 2.07877 
2.07525 2.07173 2.06821 2.07333 2.09868 2.12403 2.14938 2.17474 2.20009 
2.22544 2.25079 2.27614 2.3015 2.32685 2.3522 2.37755 2.4029 2.42826 
2.45361 2.47896 2.50431 2.52966 2.55501 2.57988 2.59449 2.60911 2.62372 
2.63834 2.65295 2.66756 2.68218 2.69679 2.71141 2.72602 2.74064 2.75525 
2.76987 2.78448 2.7991 2.81371 2.82833 2.84294 2.85755 2.87217 2.86673 
2.85576 2.84479 2.83382 2.82285 2.81189 2.80092 2.78995 2.77898 2.76801 
2.75704 2.74607 2.7351 2.72413 2.71316 2.70219 2.69122 2.68025 2.66928 
2.65831 2.66316 2.68083 2.6985 2.71617 2.73384 2.75151 2.76918 2.78685 
2.80453 2.8222 2.83987 2.85754 2.87521 2.89288 2.91055 2.92822 2.94589 
2.96357 2.98124 2.99891 3.00009 2.98959 2.97908 2.96858 2.95808 2.94757 
2.93707 2.92656 2.91606 2.90555 2.89505 2.88454 2.87404 2.86353 2.85303 
2.84252 2.83202 2.82151 2.81101 2.8005 2.79 
TEXTURE_COORDINATES TCoords 2 float
0 0 0.000784929 0 0.00156986 0 0.00235479 0 0.00313972 
0 0.00392465 0 0.00470958 0 0.00549451 0 0.00627944 0 
0.00706436 0 0.00784929 0 0.00863422 0 0.00941915 0 0.0102041 
0 0.010989 0 0.0117739 0 0.0125589 0 0.0133438 0 
0.0141287 0 0.0149137 0 0.0156986 0 0.0164835 0 0.0172684 
0 0.0180534 0 0.0188383 0 0.0196232 0 0.0204082 0 
0.0211931 0 0.021978 0 0.022763 0 0.0235479 0 0.0243328 
0 0.0251177 0 0.0259027 0 0.0266876 0 0.0274725 0 
0.0282575 0 0.0290424 0 0.0298273 0 0.0306122 0 0.0313972 
0 0.0321821 0 0.032967 0 0.033752 0 0.0345369 0 
0.0353218 0 0.0361068 0 0.0368917 0 0.0376766 0 0.0384615 
0 0.0392465 0 0.0400314 0 0.0408163 0 0.0416013 0 
0.0423862 0 0.0431711 0 0.043956 0 0.044741 0 0.0455259 
0 0.0463108 0 0.0470958 0 0.0478807 0 0.0486656 0 
0.0494506 0 0.0502355 0 0.0510204 0 0.0518053 0 0.0525903 
0 0.0533752 0 0.0541601 0 0.0549451 0 0.05573 0 
0.0565149 0 0.0572998 0 0.0580848 0 0.0588697 0 0.0596546 
0 0.0604396 0 0.0612245 0 0.0620094 0 0.0627944 0 
0.0635793 0 0.0643642 0 0.0651491 0 0.0659341 0 0.066719 
0 0.0675039 0 0.0682889 0 0.0690738 0 0.0698587 0 
0.0706436 0 0.0714286 0 0.0722135 0 0.0729984 0 0.0737834 
0 0.0745683 0 0.0753532 0 0.0761381 0 0.0769231 0 
0.077708 0 0.0784929 0 0.0792779 0 0.0800628 0 0.0808477 
0 0.0816327 0 0.0824176 0 0.0832025 0 0.0839874 0 
0.0847724 0 0.0855573 0 0.0863422 0 0.0871272 0 0.0879121 
0 0.088697 0 0.0894819 0 0.0902669 0 0.0910518 0 
0.0918367 0 0.0926217 0 0.0934066 0 0.0941915 0 0.0949765 
0 0.0957614 0 0.0965463 0 0.0973312 0 0.0981162 0 
0.0989011 0 0.099686 0 0.100471 0 0.101256 0 0.102041 
0 0.102826 0 0.103611 0 0.104396 0 0.105181 0 
0.105965 0 0.10675 0 0.107535 0 0.10832 0 0.109105 
0 0.10989 0 0.110675 0 0.11146 0 0.112245 0 
0.11303 0 0.113815 0 0.1146 0 0.115385 0 0.11617 
0 0.116954 0 0.117739 0 0.118524 0 0.119309 0 
0.120094 0 0.120879 0 0.121664 0 0.122449 0 0.123234 
0 0.124019 0 0.124804 0 0.125589 0 0.126374 0 
0.127159 0 0.127943 0 0.128728 0 0.129513 0 0.130298 
0 0.131083 0 0.131868 0 0.132653 0 0.133438 0 
0.134223 0 0.135008 0 0.135793 0 0.136578 0 0.137363 
0 0.138148 0 0.138932 0 0.139717 0 0.140502 0 
0.141287 0 0.142072 0 0.142857 0 0.143642 0 0.144427 
0 0.145212 0 0.145997 0 0.146782 0 0.147567 0 
0.148352 0 0.149137 0 0.149922 0 0.150706 0 0.151491 
0 0.152276 0 0.153061 0 0.153846 0 0.154631 0 
0.155416 0 0.156201 0 0.156986 0 0.157771 0 0.158556 
0 0.159341 0 0.160126 0 0.160911 0 0.161695 0 
0.16248 0 0.163265 0 0.16405 0 0.164835 0 0.16562 
0 0.166405 0 0.16719 0 0.167975 0 0.16876 0 
0.169545 0 0.17033 0 0.171115 0 0.1719 0 0.172684 
0 0.173469 0 0.174254 0 0.175039 0 0.175824 0 
0.176609 0 0.177394 0 0.178179 0 0.178964 0 0.179749 
0 0.180534 0 0.181319 0 0.182104 0 0.182889 0 
0.183673 0 0.184458 0 0.185243 0 0.186028 0 0.186813 
0 0.187598 0 0.188383 0 0.189168 0 0.189953 0 
0.190738 0 0.191523 0 0.192308 0 0.193093 0 0.193878 
0 0.194662 0 0.195447 0 0.196232 0 0.197017 0 
0.197802 0 0.198587 0 0.199372 0 0.200157 0 0.200942 
0 0.201727 0 0.202512 0 0.203297 0 0.204082 0 
0.204867 0 0.205651 0 0.206436 0 0.207221 0 0.208006 
0 0.208791 0 0.209576 0 0.210361 0 0.211146 0 
0.211931 0 0.212716 0 0.213501 0 0.214286 0 0.215071 
0 0.215856 0 0.216641 0 0.217425 0 0.21821 0 
0.218995 0 0.21978 0 0.220565 0 0.22135 0 0.222135 
0 0.22292 0 0.223705 0 0.22449 0 0.225275 0 
0.22606 0 0.226845 0 0.22763 0 0.228414 0 0.229199 
0 0.229984 0 0.230769 0 0.231554 0 0.232339 0 
0.233124 0 0.233909 0 0.234694 0 0.235479 0 0.236264 
0 0.237049 0 0.237834 0 0.238619 0 0.239403 0 
0.240188 0 0.240973 0 0.241758 0 0.242543 0 0.243328 
0 0.244113 0 0.244898 0 0.245683 0 0.246468 0 
0.247253 0 0.248038 0 0.248823 0 0.249608 0 0.250392 
0 0.251177 0 0.251962 0 0.252747 0 0.253532 0 
0.254317 0 0.255102 0 0.255887 0 0.256672 0 0.257457 
0 0.258242 0 0.259027 0 0.259812 0 0.260597 0 
0.261381 0 0.262166 0 0.262951 0 0.263736 0 0.264521 
0 0.265306 0 0.266091 0 0.266876 0 0.267661 0 
0.268446 0 0.269231 0 0.270016 0 0.270801 0 0.271586 
0 0.27237 0 0.273155 0 0.27394 0 0.274725 0 
0.27551 0 0.276295 0 0.27708 0 0.277865 0 0.27865 
0 0.279435 0 0.28022 0 0.281005 0 0.28179 0 
0.282575 0 0.283359 0 0.284144 0 0.284929 0 0.285714 
0 0.286499 0 0.287284 0 0.288069 0 0.288854 0 
0.289639 0 0.290424 0 0.291209 0 0.291994 0 0.292779 
0 0.293564 0 0.294349 0 0.295133 0 0.295918 0 
0.296703 0 0.297488 0 0.298273 0 0.299058 0 0.299843 
0 0.300628 0 0.301413 0 0.302198 0 0.302983 0 
0.303768 0 0.304553 0 0.305338 0 0.306122 0 0.306907 
0 0.307692 0 0.308477 0 0.309262 0 0.310047 0 
0.310832 0 0.311617 0 0.312402 0 0.313187 0 0.313972 
0 0.314757 0 0.315542 0 0.316327 0 0.317111 0 
0.317896 0 0.318681 0 0.319466 0 0.320251 0 0.321036 
0 0.321821 0 0.322606 0 0.323391 0 0.324176 0 
0.324961 0 0.325746 0 0.326531 0 0.327316 0 0.3281 
0 0.328885 0 0.32967 0 0.330455 0 0.33124 0 
0.332025 0 0.33281 0 0.333595 0 0.33438 0 0.335165 
0 0.33595 0 0.336735 0 0.33752 0 0.338305 0 
0.339089 0 0.339874 0 0.340659 0 0.341444 0 0.342229 
0 0.343014 0 0.343799 0 0.344584 0 0.345369 0 
0.346154 0 0.346939 0 0.347724 0 0.348509 0 0.349294 
0 0.350078 0 0.350863 0 0.351648 0 0.352433 0 
0.353218 0 0.354003 0 0.354788 0 0.355573 0 0.356358 
0 0.357143 0 0.357928 0 0.358713 0 0.359498 0 
0.360283 0 0.361068 0 0.361852 0 0.362637 0 0.363422 
0 0.364207 0 0.364992 0 0.365777 0 0.366562 0 
0.367347 0 0.368132 0 0.368917 0 0.369702 0 0.370487 
0 0.371272 0 0.372057 0 0.372841 0 0.373626 0 
0.374411 0 0.375196 0 0.375981 0 0.376766 0 0.377551 
0 0.378336 0 0.379121 0 0.379906 0 0.380691 0 
0.381476 0 0.382261 0 0.383046 0 0.38383 0 0.384615 
0 0.3854 0 0.386185 0 0.38697 0 0.387755 0 
0.38854 0 0.389325 0 0.39011 0 0.390895 0 0.39168 
0 0.392465 0 0.39325 0 0.394035 0 0.394819 0 
0.395604 0 0.396389 0 0.397174 0 0.397959 0 0.398744 
0 0.399529 0 0.400314 0 0.401099 0 0.401884 0 
0.402669 0 0.403454 0 0.404239 0 0.405024 0 0.405808 
0 0.406593 0 0.407378 0 0.408163 0 0.408948 0 
0.409733 0 0.410518 0 0.411303 0 0.412088 0 0.412873 
0 0.413658 0 0.414443 0 0.415228 0 0.416013 0 
0.416797 0 0.417582 0 0.418367 0 0.419152 0 0.419937 
0 0.420722 0 0.421507 0 0.422292 0 0.423077 0 
0.423862 0 0.424647 0 0.425432 0 0.426217 0 0.427002 
0 0.427786 0 0.428571 0 0.429356 0 0.430141 0 
0.430926 0 0.431711 0 0.432496 0 0.433281 0 0.434066 
0 0.434851 0 0.435636 0 0.436421 0 0.437206 0 
0.437991 0 0.438776 0 0.43956 0 0.440345 0 0.44113 
0 0.441915 0 0.4427 0 0.443485 0 0.44427 0 
0.445055 0 0.44584 0 0.446625 0 0.44741 0 0.448195 
0 0.44898 0 0.449765 0 0.450549 0 0.451334 0 
0.452119 0 0.452904 0 0.453689 0 0.454474 0 0.455259 
0 0.456044 0 0.456829 0 0.457614 0 0.458399 0 
0.459184 0 0.459969 0 0.460754 0 0.461538 0 0.462323 
0 0.463108 0 0.463893 0 0.464678 0 0.465463 0 
0.466248 0 0.467033 0 0.467818 0 0.468603 0 0.469388 
0 0.470173 0 0.470958 0 0.471743 0 0.472527 0 
0.473312 0 0.474097 0 0.474882 0 0.475667 0 0.476452 
0 0.477237 0 0.478022 0 0.478807 0 0.479592 0 
0.480377 0 0.481162 0 0.481947 0 0.482732 0 0.483516 
0 0.484301 0 0.485086 0 0.485871 0 0.486656 0 
0.487441 0 0.488226 0 0.489011 0 0.489796 0 0.490581 
0 0.491366 0 0.492151 0 0.492936 0 0.493721 0 
0.494505 0 0.49529 0 0.496075 0 0.49686 0 0.497645 
0 0.49843 0 0.499215 0 0.5 0 0.500785 0 
0.50157 0 0.502355 0 0.50314 0 0.503925 0 0.50471 
0 0.505495 0 0.506279 0 0.507064 0 0.507849 0 
0.508634 0 0.509419 0 0.510204 0 0.510989 0 0.511774 
0 0.512559 0 0.513344 0 0.514129 0 0.514914 0 
0.515699 0 0.516484 0 0.517268 0 0.518053 0 0.518838 
0 0.519623 0 0.520408 0 0.521193 0 0.521978 0 
0.522763 0 0.523548 0 0.524333 0 0.525118 0 0.525903 
0 0.526688 0 0.527473 0 0.528257 0 0.529042 0 
0.529827 0 0.530612 0 0.531397 0 0.532182 0 0.532967 
0 0.533752 0 0.534537 0 0.535322 0 0.536107 0 
0.536892 0 0.537677 0 0.538462 0 0.539246 0 0.540031 
0 0.540816 0 0.541601 0 0.542386 0 0.543171 0 
0.543956 0 0.544741 0 0.545526 0 0.546311 0 0.547096 
0 0.547881 0 0.548666 0 0.549451 0 0.550235 0 
0.55102 0 0.551805 0 0.55259 0 0.553375 0 0.55416 
0 0.554945 0 0.55573 0 0.556515 0 0.5573 0 
0.558085 0 0.55887 0 0.559655 0 0.56044 0 0.561224 
0 0.562009 0 0.562794 0 0.563579 0 0.564364 0 
0.565149 0 0.565934 0 0.566719 0 0.567504 0 0.568289 
0 0.569074 0 0.569859 0 0.570644 0 0.571429 0 
0.572214 0 0.572998 0 0.573783 0 0.574568 0 0.575353 
0 0.576138 0 0.576923 0 0.577708 0 0.578493 0 
0.579278 0 0.580063 0 0.580848 0 0.581633 0 0.582418 
0 0.583203 0 0.583987 0 0.584772 0 0.585557 0 
0.586342 0 0.587127 0 0.587912 0 0.588697 0 0.589482 
0 0.590267 0 0.591052 0 0.591837 0 0.592622 0 
0.593407 0 0.594192 0 0.594976 0 0.595761 0 0.596546 
0 0.597331 0 0.598116 0 0.598901 0 0.599686 0 
0.600471 0 0.601256 0 0.602041 0 0.602826 0 0.603611 
0 0.604396 0 0.605181 0 0.605965 0 0.60675 0 
0.607535 0 0.60832 0 0.609105 0 0.60989 0 0.610675 
0 0.61146 0 0.612245 0 0.61303 0 0.613815 0 
0.6146 0 0.615385 0 0.61617 0 0.616954 0 0.617739 
0 0.618524 0 0.619309 0 0.620094 0 0.620879 0 
0.621664 0 0.622449 0 0.623234 0 0.624019 0 0.624804 
0 0.625589 0 0.626374 0 0.627159 0 0.627943 0 
0.628728 0 0.629513 0 0.630298 0 0.631083 0 0.631868 
0 0.632653 0 0.633438 0 0.634223 0 0.635008 0 
0.635793 0 0.636578 0 0.637363 0 0.638148 0 0.638932 
0 0.639717 0 0.640502 0 0.641287 0 0.642072 0 
0.642857 0 0.643642 0 0.644427 0 0.645212 0 0.645997 
0 0.646782 0 0.647567 0 0.648352 0 0.649137 0 
0.649922 0 0.650706 0 0.651491 0 0.652276 0 0.653061 
0 0.653846 0 0.654631 0 0.655416 0 0.656201 0 
0.656986 0 0.657771 0 0.658556 0 0.659341 0 0.660126 
0 0.660911 0 0.661695 0 0.66248 0 0.663265 0 
0.66405 0 0.664835 0 0.66562 0 0.666405 0 0.66719 
0 0.667975 0 0.66876 0 0.669545 0 0.67033 0 