# vtk DataFile Version 4.2
vtk output
ASCII
DATASET POLYDATA
POINTS 1278 float
0 0 0 -0.00401114 0.000630379 0.000461483 -0.0157127 0.00245324 0.00180589 
-0.0346068 0.00536615 0.00397315 -0.0601956 0.0092667 0.00690322 -0.0919813 0.0140525 0.010536 
-0.129466 0.019621 0.0148115 -0.172152 0.0258699 0.0196696 -0.219541 0.0326968 0.0250502 
-0.271136 0.0399992 0.0308933 -0.326438 0.0476747 0.0371388 -0.384951 0.0556209 0.0437267 
-0.446175 0.0637354 0.0505968 -0.509614 0.0719157 0.0576892 -0.574768 0.0800594 0.0649438 
-0.641142 0.0880641 0.0723004 -0.708235 0.0958274 0.0796992 -0.775552 0.103247 0.0870798 
-0.842594 0.11022 0.0943824 -0.908863 0.116645 0.101547 -0.973861 0.122418 0.108513 
-1.03709 0.127438 0.115221 -1.09819 0.13163 0.121628 -1.15723 0.135006 0.127746 
-1.21434 0.137595 0.133596 -1.26966 0.139426 0.139201 -1.32335 0.140525 0.144581 
-1.37554 0.140923 0.149758 -1.42637 0.140647 0.154754 -1.47599 0.139725 0.159591 
-1.52453 0.138187 0.16429 -1.57215 0.136061 0.168873 -1.61898 0.133374 0.173362 
-1.66516 0.130156 0.177778 -1.71084 0.126435 0.182143 -1.75616 0.122239 0.186478 
-1.80126 0.117597 0.190806 -1.84628 0.112536 0.195148 -1.89136 0.107087 0.199525 
-1.93665 0.101276 0.20396 -1.9823 0.0951333 0.208474 -2.02842 0.0886842 0.213087 
-2.07506 0.081932 0.217809 -2.12218 0.0748618 0.222641 -2.16972 0.0674582 0.227582 
-2.21766 0.059706 0.232633 -2.26593 0.0515897 0.237794 -2.3145 0.0430943 0.243066 
-2.36332 0.0342042 0.248448 -2.41235 0.0249042 0.253941 -2.46154 0.015179 0.259546 
-2.51085 0.00501334 0.265262 -2.56024 -0.00560818 0.27109 -2.60966 -0.0167008 0.27703 
-2.65907 -0.0282799 0.283082 -2.70842 -0.0403607 0.289247 -2.75767 -0.0529586 0.295525 
-2.80677 -0.0660889 0.301916 -2.85568 -0.0797668 0.30842 -2.90436 -0.0940078 0.315038 
-2.95276 -0.108827 0.321771 -3.00084 -0.12424 0.328617 -3.04855 -0.140256 0.33558 
-3.09592 -0.156868 0.342663 -3.14292 -0.174067 0.349875 -3.18958 -0.191843 0.35722 
-3.23589 -0.210186 0.364704 -3.28185 -0.229086 0.372335 -3.32747 -0.248534 0.380118 
-3.37276 -0.26852 0.388059 -3.41772 -0.289033 0.396164 -3.46235 -0.310065 0.40444 
-3.50665 -0.331606 0.412893 -3.55063 -0.353645 0.421528 -3.59429 -0.376173 0.430353 
-3.63764 -0.39918 0.439373 -3.68068 -0.422657 0.448593 -3.72341 -0.446593 0.458022 
-3.76583 -0.470979 0.467664 -3.80796 -0.495806 0.477526 -3.84979 -0.521062 0.487613 
-3.89133 -0.54674 0.497933 -3.93259 -0.572828 0.50849 -3.97355 -0.599318 0.519286 
-4.01422 -0.626199 0.530319 -4.0546 -0.653462 0.54159 -4.09468 -0.681098 0.553098 
-4.13447 -0.709097 0.564842 -4.17396 -0.737449 0.576822 -4.21315 -0.766145 0.589037 
-4.25204 -0.795175 0.601487 -4.29063 -0.824529 0.614171 -4.32891 -0.854199 0.627089 
-4.36688 -0.884174 0.640239 -4.40455 -0.914445 0.653623 -4.44191 -0.945002 0.667238 
-4.47896 -0.975836 0.681084 -4.5157 -1.00694 0.695161 -4.55212 -1.0383 0.709469 
-4.58823 -1.0699 0.724007 -4.62402 -1.10175 0.738773 -4.65948 -1.13382 0.753769 
-4.69463 -1.16612 0.768992 -4.72947 -1.19862 0.784441 -4.76399 -1.23133 0.800112 
-4.79821 -1.26423 0.816001 -4.83214 -1.29731 0.832104 -4.86578 -1.33058 0.848418 
-4.89914 -1.36402 0.864937 -4.93224 -1.39762 0.88166 -4.96507 -1.43137 0.898581 
-4.99765 -1.46527 0.915698 -5.02998 -1.49931 0.933005 -5.06207 -1.53347 0.9505 
-5.09393 -1.56776 0.968178 -5.12557 -1.60217 0.986036 -5.15699 -1.63668 1.00407 
-5.1882 -1.67128 1.02228 -5.21921 -1.70598 1.04065 -5.25004 -1.74076 1.05919 
-5.28067 -1.77562 1.07789 -5.31113 -1.81054 1.09674 -5.34142 -1.84551 1.11575 
-5.37156 -1.88054 1.13491 -5.40153 -1.91562 1.15421 -5.43136 -1.95074 1.17365 
-5.46104 -1.98591 1.19323 -5.49059 -2.02111 1.21295 -5.52 -2.05635 1.23279 
-5.54929 -2.09162 1.25276 -5.57846 -2.12692 1.27285 -5.60752 -2.16224 1.29306 
-5.63648 -2.19759 1.31338 -5.66533 -2.23296 1.33381 -5.69409 -2.26834 1.35435 
-5.72277 -2.30374 1.37499 -5.75136 -2.33915 1.39573 -5.77987 -2.37456 1.41656 
-5.80832 -2.40998 1.43749 -5.8367 -2.4454 1.45849 -5.86503 -2.48081 1.47959 
-5.89331 -2.51622 1.50076 -5.92154 -2.55162 1.522 -5.94973 -2.58701 1.54332 
-5.97789 -2.62238 1.5647 -6.00602 -2.65774 1.58615 -6.03412 -2.69309 1.60766 
-6.0622 -2.72841 1.62923 -6.09027 -2.76371 1.65085 -6.11832 -2.79899 1.67252 
-6.14636 -2.83424 1.69424 -6.1744 -2.86947 1.71601 -6.20244 -2.90467 1.73782 
-6.23048 -2.93984 1.75967 -6.25853 -2.97499 1.78156 -6.28659 -3.01009 1.80348 
-6.31466 -3.04517 1.82542 -6.34276 -3.0802 1.8474 -6.37089 -3.1152 1.86939 
-6.39904 -3.15016 1.89141 -6.42722 -3.18508 1.91344 -6.45545 -3.21995 1.93549 
-6.48371 -3.25478 1.95755 -6.51202 -3.28956 1.97961 -6.54038 -3.3243 2.00168 
-6.5688 -3.35898 2.02375 -6.59728 -3.39362 2.04581 -6.62582 -3.42822 2.06785 
-6.65443 -3.46276 2.08989 -6.68312 -3.49726 2.1119 -6.71188 -3.53171 2.13389 
-6.74074 -3.56612 2.15585 -6.76968 -3.60048 2.17777 -6.79871 -3.63479 2.19965 
-6.82784 -3.66905 2.2215 -6.85708 -3.70327 2.24329 -6.88643 -3.73743 2.26503 
-6.91588 -3.77155 2.28671 -6.94546 -3.80563 2.30833 -6.97516 -3.83965 2.32988 
-7.00499 -3.87363 2.35137 -7.03495 -3.90757 2.37277 -7.06505 -3.94145 2.3941 
-7.09529 -3.97529 2.41533 -7.12567 -4.00908 2.43648 -7.1562 -4.04282 2.45754 
-7.18686 -4.0765 2.47851 -7.21765 -4.11013 2.49937 -7.24857 -4.1437 2.52014 
-7.27962 -4.17722 2.54081 -7.3108 -4.21067 2.56137 -7.34209 -4.24406 2.58182 
-7.3735 -4.27738 2.60217 -7.40502 -4.31063 2.6224 -7.43665 -4.34382 2.64252 
-7.46839 -4.37692 2.66253 -7.50023 -4.40996 2.68241 -7.53217 -4.44292 2.70217 
-7.5642 -4.47579 2.72181 -7.59633 -4.50859 2.74132 -7.62854 -4.5413 2.76071 
-7.66084 -4.57392 2.77996 -7.69322 -4.60646 2.79908 -7.72569 -4.6389 2.81806 
-7.75823 -4.67126 2.83689 -7.79087 -4.70353 2.85556 -7.82364 -4.73573 2.87404 
-7.85655 -4.76788 2.89231 -7.88963 -4.79998 2.91034 -7.9229 -4.83204 2.92811 
-7.95639 -4.86407 2.94559 -7.99011 -4.89609 2.96276 -8.02409 -4.9281 2.9796 
-8.05834 -4.96012 2.99609 -8.0929 -4.99216 3.01219 -8.12779 -5.02422 3.02789 
-8.16302 -5.05633 3.04316 -8.19862 -5.08848 3.05798 -8.23461 -5.12069 3.07233 
-8.27101 -5.15298 3.08617 -8.30785 -5.18534 3.09949 -8.34515 -5.2178 3.11227 
-8.38294 -5.25036 3.12447 -8.42122 -5.28304 3.13608 -8.46002 -5.31584 3.14706 
-8.49924 -5.34878 3.15736 -8.53877 -5.38187 3.1669 -8.57849 -5.41513 3.17561 
-8.61827 -5.44857 3.18341 -8.658 -5.4822 3.19023 -8.69755 -5.51604 3.196 
-8.7368 -5.5501 3.20063 -8.77563 -5.5844 3.20406 -8.81393 -5.61895 3.20621 
-8.85156 -5.65377 3.20701 -8.88842 -5.68886 3.20638 -8.92437 -5.72424 3.20425 
-8.9593 -5.75993 3.20055 -8.99309 -5.79594 3.1952 -9.02562 -5.83228 3.18812 
-9.05676 -5.86897 3.17925 -9.08639 -5.90602 3.16851 -9.1144 -5.94345 3.15582 
-9.14065 -5.98126 3.1411 -9.16505 -6.01948 3.12431 -9.18755 -6.05809 3.10546 
-9.20818 -6.09705 3.0847 -9.22698 -6.13633 3.06215 -9.244 -6.1759 3.03796 
-9.25925 -6.21573 3.01225 -9.27279 -6.25577 2.98516 -9.28464 -6.29599 2.95683 
-9.29485 -6.33636 2.92739 -9.30344 -6.37685 2.89696 -9.31045 -6.41742 2.8657 
-9.31593 -6.45804 2.83372 -9.3199 -6.49867 2.80117 -9.3224 -6.53927 2.76818 
-9.32347 -6.57982 2.73488 -9.32315 -6.62028 2.70141 -9.32146 -6.66061 2.6679 
-9.31846 -6.70078 2.63448 -9.31416 -6.74076 2.60129 -9.30861 -6.78051 2.56847 
-9.30185 -6.82001 2.53612 -9.29395 -6.85927 2.50425 -9.28497 -6.89831 2.47284 
-9.275 -6.93717 2.44189 -9.26411 -6.97587 2.41137 -9.25236 -7.01443 2.38126 
-9.23984 -7.05289 2.35156 -9.22661 -7.09125 2.32224 -9.21275 -7.12956 2.29329 
-9.19833 -7.16783 2.26469 -9.18342 -7.20609 2.23643 -9.1681 -7.24437 2.20849 
-9.15244 -7.28269 2.18085 -9.13651 -7.32107 2.1535 -9.12039 -7.35955 2.12642 
-9.10415 -7.39815 2.09959 -9.08785 -7.43689 2.07301 -9.07159 -7.47579 2.04665 
-9.05542 -7.51489 2.02049 -9.03942 -7.55421 1.99453 -9.02366 -7.59377 1.96874 
-9.00817 -7.63358 1.94311 -8.99293 -7.67363 1.91764 -8.97794 -7.7139 1.89232 
-8.96317 -7.75437 1.86713 -8.94862 -7.79504 1.84208 -8.93427 -7.8359 1.81715 
-8.92011 -7.87692 1.79234 -8.90613 -7.9181 1.76764 -8.89231 -7.95942 1.74303 
-8.87863 -8.00087 1.71852 -8.86509 -8.04244 1.6941 -8.85167 -8.08411 1.66975 
-8.83836 -8.12587 1.64547 -8.82514 -8.16771 1.62126 -8.812 -8.20961 1.5971 
-8.79893 -8.25157 1.57298 -8.78592 -8.29356 1.5489 -8.77294 -8.33557 1.52486 
-8.75999 -8.3776 1.50083 -8.74706 -8.41962 1.47683 -8.73413 -8.46163 1.45283 
-8.7212 -8.50363 1.42883 -8.70827 -8.5456 1.40483 -8.69533 -8.58756 1.38082 
-8.68238 -8.62949 1.35679 -8.66942 -8.67139 1.33274 -8.65645 -8.71326 1.30866 
-8.64346 -8.75509 1.28455 -8.63045 -8.79689 1.2604 -8.61742 -8.83864 1.2362 
-8.60436 -8.88035 1.21195 -8.59127 -8.92202 1.18765 -8.57815 -8.96363 1.16328 
-8.565 -9.00519 1.13884 -8.55181 -9.04669 1.11432 -8.53857 -9.08814 1.08972 
-8.5253 -9.12951 1.06504 -8.51198 -9.17083 1.04026 -8.4986 -9.21207 1.01539 
-8.48518 -9.25324 0.990405 -8.4717 -9.29433 0.965313 -8.45816 -9.33534 0.940108 
-8.44454 -9.37627 0.91479 -8.43083 -9.4171 0.889358 -8.41704 -9.45783 0.86381 
-8.40313 -9.49845 0.838146 -8.38911 -9.53896 0.812364 -8.37497 -9.57936 0.786465 
-8.36068 -9.61963 0.760445 -8.34626 -9.65977 0.734306 -8.33168 -9.69977 0.708045 
-8.31693 -9.73964 0.681662 -8.302 -9.77935 0.655156 -8.28689 -9.81891 0.628525 
-8.27159 -9.85832 0.601769 -8.25608 -9.89755 0.574887 -8.24035 -9.93661 0.547877 
-8.2244 -9.9755 0.520739 -8.20821 -10.0142 0.493472 -8.19177 -10.0527 0.466074 
-8.17508 -10.091 0.438546 -8.15812 -10.1291 0.410892 -8.14089 -10.1671 0.383121 
-8.12339 -10.2048 0.355242 -8.1056 -10.2423 0.327264 -8.08752 -10.2796 0.299194 
-8.06914 -10.3167 0.271042 -8.05046 -10.3536 0.242816 -8.03146 -10.3903 0.214525 
-8.01215 -10.4267 0.186178 -7.99252 -10.463 0.157783 -7.97255 -10.499 0.129349 
-7.95224 -10.5349 0.100885 -7.93159 -10.5705 0.072399 -7.91059 -10.6058 0.0438999 
-7.88923 -10.641 0.0153965 -7.8675 -10.6759 -0.0131027 -7.8454 -10.7107 -0.041589 
-7.82292 -10.7451 -0.0700537 -7.80006 -10.7794 -0.0984882 -7.77681 -10.8134 -0.126884 
-7.75315 -10.8472 -0.15523 -7.7291 -10.8808 -0.183514 -7.70464 -10.9141 -0.211723 
[...]
CELL_DATA 1
FIELD FieldData 2
Length 1 1 double
63.856610184 
Tortuosity 1 1 double
0.665103617 
POINT_DATA 1278
SCALARS MaximumInscribedSphereRadius float
LOOKUP_TABLE default
1.55 1.54339 1.53678 1.53017 1.52356 1.51695 1.51034 1.50373 1.49711 
1.4905 1.48389 1.47728 1.47067 1.46406 1.45745 1.45084 1.44423 1.43762 
1.43101 1.4244 1.41779 1.41105 1.40307 1.39509 1.3871 1.37912 1.37114 
1.36316 1.35517 1.34719 1.33921 1.33122 1.32324 1.31526 1.30728 1.29929 
1.29131 1.28333 1.27534 1.26736 1.25938 1.25113 1.24272 1.23431 1.22589 
1.21748 1.20907 1.20066 1.19224 1.18383 1.17542 1.16701 1.15859 1.15018 
1.14177 1.13336 1.12494 1.11653 1.10812 1.09971 1.09129 1.08333 1.07894 
1.07456 1.07018 1.0658 1.06142 1.05704 1.05265 1.04827 1.04389 1.03951 
1.03513 1.03075 1.02637 1.02198 1.0176 1.01322 1.00884 1.00446 1.00008 
0.995694 1.00157 1.00891 1.01625 1.02359 1.03093 1.03827 1.04561 1.05295 
1.06029 1.06763 1.07497 1.08231 1.08965 1.097 1.10434 1.11168 1.11902 
1.12636 1.1337 1.14104 1.14435 1.1449 1.14544 1.14599 1.14653 1.14708 
1.14762 1.14817 1.14871 1.14926 1.14981 1.15035 1.1509 1.15144 1.15199 
1.15253 1.15308 1.15362 1.15417 1.15471 1.15282 1.14542 1.13803 1.13063 
1.12323 1.11583 1.10844 1.10104 1.09364 1.08624 1.07884 1.07145 1.06405 
1.05665 1.04925 1.04185 1.03446 1.02706 1.01966 1.01226 1.00502 1.00676 
1.00849 1.01023 1.01196 1.0137 1.01543 1.01717 1.01891 1.02064 1.02238 
1.02411 1.02585 1.02758 1.02932 1.03106 1.03279 1.03453 1.03626 1.038 
1.03973 1.04617 1.05438 1.06259 1.0708 1.07902 1.08723 1.09544 1.10365 
1.11186 1.12007 1.12828 1.13649 1.1447 1.15291 1.16112 1.16934 1.17755 
1.18576 1.19397 1.20218 1.21061 1.21931 1.22802 1.23673 1.24543 1.25414 
1.26285 1.27156 1.28026 1.28897 1.29768 1.30638 1.31509 1.3238 1.3325 
1.34121 1.34992 1.35862 1.36733 1.37604 1.38424 1.38956 1.39489 1.40021 
1.40553 1.41085 1.41618 1.4215 1.42682 1.43214 1.43746 1.44279 1.44811 
1.45343 1.45875 1.46408 1.4694 1.47472 1.48004 1.48537 1.49069 1.49538 
1.49996 1.50454 1.50911 1.51369 1.51826 1.52284 1.52741 1.53199 1.53656 
1.54114 1.54571 1.55029 1.55487 1.55944 1.56402 1.56859 1.57317 1.57774 
1.58232 1.58583 1.58854 1.59125 1.59395 1.59666 1.59937 1.60207 1.60478 
1.60748 1.61019 1.6129 1.6156 1.61831 1.62101 1.62372 1.62643 1.62913 
1.63184 1.63455 1.63725 1.60744 1.57754 1.54763 1.51772 1.48781 1.45791 
1.428 1.39809 1.36819 1.33828 1.30837 1.27846 1.24856 1.21865 1.18874 
1.15883 1.12893 1.09902 1.06911 1.0392 1.03057 1.03926 1.04796 1.05665 
1.06535 1.07404 1.08273 1.09143 1.10012 1.10881 1.11751 1.1262 1.13489 
1.14359 1.15228 1.16098 1.16967 1.17836 1.18706 1.19575 1.20602 1.22057 
1.23512 1.24967 1.26422 1.27877 1.29332 1.30787 1.32242 1.33697 1.35152 
1.36607 1.38062 1.39517 1.40972 1.42427 1.43883 1.45338 1.46793 1.48248 
1.49703 1.51385 1.53072 1.54759 1.56446 1.58133 1.5982 1.61507 1.63194 
1.64881 1.66568 1.68254 1.69941 1.71628 1.73315 1.75002 1.76689 1.78376 
1.80063 1.8175 1.83437 1.83829 1.8364 1.83452 1.83264 1.83075 1.82887 
1.82698 1.8251 1.82321 1.82133 1.81944 1.81756 1.81567 1.81379 1.8119 
1.81002 1.80814 1.80625 1.80437 1.80248 1.79715 1.78687 1.77658 1.7663 
1.75601 1.74572 1.73544 1.72515 1.71487 1.70458 1.6943 1.68401 1.67373 
1.66344 1.65315 1.64287 1.63258 1.6223 1.61201 1.60173 1.59446 1.6075 
1.62054 1.63359 1.64663 1.65968 1.67272 1.68576 1.69881 1.71185 1.72489 
1.73794 1.75098 1.76403 1.77707 1.79011 1.80316 1.8162 1.82925 1.84229 
1.85533 1.86282 1.86934 1.87587 1.88239 1.88891 1.89543 1.90196 1.90848 
1.915 1.92153 1.92805 1.93457 1.9411 1.94762 1.95414 1.96066 1.96719 
1.97371 1.98023 1.98676 1.9909 1.99457 1.99824 2.00192 2.00559 2.00926 
2.01294 2.01661 2.02028 2.02396 2.02763 2.0313 2.03497 2.03865 2.04232 
2.04599 2.04967 2.05334 2.05701 2.06069 2.06506 2.06978 2.07449 2.07921 
2.08392 2.08863 2.09335 2.09806 2.10278 2.10749 2.11221 2.11692 2.12164 
2.12635 2.13107 2.13578 2.1405 2.14521 2.14993 2.15464 2.15784 2.15845 
2.15906 2.15967 2.16027 2.16088 2.16149 2.1621 2.1627 2.16331 2.16392 
2.16453 2.16513 2.16574 2.16635 2.16696 2.16756 2.16817 2.16878 2.16939 
2.16967 2.1666 2.16352 2.16045 2.15738 2.1543 2.15123 2.14815 2.14508 
2.14201 2.13893 2.13586 2.13278 2.12971 2.12663 2.12356 2.12049 2.11741 
2.11434 2.11126 2.10819 2.10098 2.09273 2.08448 2.07623 2.06798 2.05973 
2.05148 2.04323 2.03498 2.02673 2.01848 2.01023 2.00197 1.99372 1.98547 
1.97722 1.96897 1.96072 1.95247 1.94422 1.93577 1.92713 1.91848 1.90984 
1.9012 1.89256 1.88391 1.87527 1.86663 1.85798 1.84934 1.8407 1.83205 
1.82341 1.81477 1.80613 1.79748 1.78884 1.7802 1.77155 1.76283 1.75382 
1.74482 1.73581 1.72681 1.7178 1.7088 1.69979 1.69078 1.68178 1.67277 
1.66377 1.65476 1.64576 1.63675 1.62774 1.61874 1.60973 1.60073 1.59172 
1.58272 1.58836 1.59484 1.60131 1.60779 1.61427 1.62075 1.62723 1.6337 
1.64018 1.64666 1.65314 1.65962 1.66609 1.67257 1.67905 1.68553 1.69201 
1.69848 1.70496 1.71144 1.71714 1.72248 1.72781 1.73314 1.73848 1.74381 
1.74914 1.75447 1.75981 1.76514 1.77047 1.77581 1.78114 1.78647 1.79181 
1.79714 1.80247 1.80781 1.81314 1.81847 1.81828 1.8097 1.80112 1.79254 
1.78396 1.77538 1.76679 1.75821 1.74963 1.74105 1.73247 1.72389 1.71531 
1.70673 1.69814 1.68956 1.68098 1.6724 1.66382 1.65524 1.64752 1.64681 
1.6461 1.64538 1.64467 1.64396 1.64325 1.64253 1.64182 1.64111 1.64039 
1.63968 1.63897 1.63826 1.63754 1.63683 1.63612 1.63541 1.63469 1.63398 
1.63327 1.63929 1.64679 1.65428 1.66178 1.66928 1.67678 1.68427 1.69177 
1.69927 1.70677 1.71426 1.72176 1.72926 1.73676 1.74425 1.75175 1.75925 
1.76675 1.77424 1.78174 1.78238 1.77695 1.77152 1.76608 1.76065 1.75522 
1.74979 1.74436 1.73893 1.7335 1.72807 1.72264 1.7172 1.71177 1.70634 
1.70091 1.69548 1.69005 1.68462 1.67919 1.67172 1.65793 1.64415 1.63036 
1.61657 1.60279 1.589 1.57521 1.56143 1.54764 1.53385 1.52007 1.50628 
1.49249 1.47871 1.46492 1.45113 1.43734 1.42356 1.40977 1.39598 1.40039 
1.4056 1.41082 1.41603 1.42124 1.42645 1.43167 1.43688 1.44209 1.44731 
1.45252 1.45773 1.46294 1.46816 1.47337 1.47858 1.48379 1.48901 1.49422 
1.49943 1.50863 1.51977 1.5309 1.54203 1.55316 1.56429 1.57542 1.58655 
1.59768 1.60881 1.61994 1.63107 1.6422 1.65334 1.66447 1.6756 1.68673 
1.69786 1.70899 1.72012 1.72248 1.71128 1.70007 1.68887 1.67767 1.66646 
1.65526 1.64406 1.63286 1.62165 1.61045 1.59925 1.58804 1.57684 1.56564 
1.55443 1.54323 1.53203 1.52083 1.50962 1.49836 1.48667 1.47498 1.46329 
1.4516 1.4399 1.42821 1.41652 1.40483 1.39314 1.38144 1.36975 1.35806 
1.34637 1.33468 1.32298 1.31129 1.2996 1.28791 1.27622 1.26452 1.26598 
1.27007 1.27415 1.27824 1.28233 1.28642 1.29051 1.2946 1.29869 1.30278 
1.30687 1.31096 1.31505 1.31914 1.32322 1.32731 1.3314 1.33549 1.33958 
1.34367 1.3478 1.35197 1.35614 1.3603 1.36447 1.36864 1.3728 1.37697 
1.38114 1.3853 1.38947 1.39364 1.3978 1.40197 1.40614 1.4103 1.41447 
1.41864 1.4228 1.42697 1.43118 1.4355 1.43981 1.44413 1.44845 1.45277 
1.45709 1.46141 1.46573 1.47004 1.47436 1.47868 1.483 1.48732 1.49164 
1.49595 1.50027 1.50459 1.50891 1.51323 1.51755 1.51393 1.51016 1.50638 
1.50261 1.49883 1.49506 1.49129 1.48751 1.48374 1.47997 1.47619 1.47242 
1.46864 1.46487 1.4611 1.45732 1.45355 1.44978 1.446 1.44223 1.437 
1.43112 1.42525 1.41938 1.41351 1.40763 1.40176 1.39589 1.39002 1.38415 
1.37827 1.3724 1.36653 1.36066 1.35479 1.34891 1.34304 1.33717 1.3313 
1.32542 1.33103 1.35327 1.37551 1.39776 1.42 1.44224 1.46448 1.48672 
1.50896 1.5312 1.55344 1.57568 1.59792 1.62016 1.64241 1.66465 1.68689 
1.70913 1.73137 1.75361 1.77625 1.80186 1.82747 1.85308 1.87868 1.90429 
1.9299 1.95551 1.98111 2.00672 2.03233 2.05794 2.08355 2.10915 2.13476 
2.16037 2.18598 2.21158 2.23719 2.2628 2.28841 2.29348 2.2943 2.29511 
2.29592 2.29674 2.29755 2.29836 2.29918 2.29999 2.3008 2.30162 2.30243 
2.30324 2.30406 2.30487 2.30568 2.3065 2.30731 2.30812 2.30894 2.30718 
2.30323 2.29928 2.29534 2.29139 2.28745 2.2835 2.27955 2.27561 2.27166 
2.26771 2.26377 2.25982 2.25587 2.25193 2.24798 2.24404 2.24009 2.23614 
2.2322 2.23135 2.2395 2.24766 2.25582 2.26398 2.27214 2.28029 2.28845 
2.29661 2.30477 2.31293 2.32109 2.32924 2.3374 2.34556 2.35372 2.36188 
2.37003 2.37819 2.38635 2.39451 2.39467 2.3946 2.39453 2.39446 2.39439 
2.39433 2.39426 2.39419 2.39412 2.39405 2.39398 2.39391 2.39384 2.39377 
2.3937 2.39363 2.39356 2.39349 2.39342 2.39335 2.38564 2.37443 2.36323 
2.35202 2.34082 2.32961 2.31841 2.3072 2.296 2.28479 2.27359 2.26238 
2.25118 2.23997 2.22877 2.21756 2.20636 2.19515 2.18395 2.17274 2.15917 
2.14207 2.12497 2.10787 2.09078 2.07368 2.05658 2.03948 2.02239 2.00529 
1.98819 1.97109 1.954 1.9369 1.9198 1.9027 1.8856 1.86851 1.85141 
1.83431 1.81819 1.80905 1.79991 1.79078 1.78164 1.7725 1.76336 1.75423 
1.74509 1.73595 1.72681 1.71768 1.70854 1.6994 1.69026 1.68113 1.67199 
1.66285 1.65371 1.64458 1.63544 1.64279 1.65307 1.66336 1.67364 1.68393 
1.69421 1.70449 1.71478 1.72506 1.73535 1.74563 1.75591 1.7662 1.77648 
1.78676 1.79705 1.80733 1.81762 1.8279 1.83818 1.85244 1.86963 1.88681 
1.904 1.92118 1.93837 1.95555 1.97274 1.98992 2.00711 2.02429 2.04148 
2.05866 2.07584 2.09303 2.11021 2.1274 2.14458 2.16177 2.17895 2.19196 
2.19526 2.19857 2.20188 2.20518 2.20849 2.2118 2.2151 2.21841 2.22172 
2.22502 2.22833 2.23164 2.23494 2.23825 2.24156 2.24486 2.24817 2.25148 
2.25478 2.25756 2.23594 2.21433 2.19272 2.1711 2.14949 2.12788 2.10627 
2.08465 2.06304 2.04143 2.01982 1.9982 1.97659 1.95498 1.93336 1.91175 
1.89014 1.86853 1.84691 1.8253 1.816 1.81113 1.80626 1.80139 1.79652 
1.79164 1.78677 1.7819 1.77703 1.77215 1.76728 1.76241 1.75754 1.75267 
1.74779 1.74292 1.73805 1.73318 1.7283 1.72343 1.72771 1.74337 1.75902 
1.77468 1.79034 1.806 1.82166 1.83732 1.85298 1.86864 1.8843 1.89996 
1.91562 1.93128 1.94694 1.9626 1.97826 1.99392 2.00957 2.02523 2.03964 
2.04696 2.05428 2.06161 2.06893 2.07625 2.08357 2.09089 2.09821 2.10554 
2.11286 2.12018 2.1275 2.13482 2.14214 2.14947 2.15679 2.16411 2.17143 
2.17875 2.18607 2.18625 2.18563 2.18501 2.18439 2.18377 2.18315 2.18253 
2.1819 2.18128 2.18066 2.18004 2.17942 2.1788 2.17818 2.17756 2.17694 
2.17632 2.1757 2.17507 2.17445 2.174 2.17379 2.17358 2.17337 2.17316 
2.17295 2.17274 2.17253 2.17232 2.17211 2.17191 2.1717 2.17149 2.17128 
2.17107 2.17086 2.17065 2.17044 2.17023 2.17002 2.17 2.17 2.17 
2.17 2.17 2.17 2.17 2.17 2.17 2.17 2.17 2.17 
2.17 2.17 2.17 2.17 2.17 2.17 2.17 2.17 2.17 

TEXTURE_COORDINATES TCoords 2 float
0 0 0.000783085 0 0.00156617 0 0.00234926 0 0.00313234 
0 0.00391543 0 0.00469851 0 0.0054816 0 0.00626468 0 
0.00704777 0 0.00783085 0 0.00861394 0 0.00939702 0 0.0101801 
0 0.0109632 0 0.0117463 0 0.0125294 0 0.0133125 0 
0.0140955 0 0.0148786 0 0.0156617 0 0.0164448 0 0.0172279 
0 0.018011 0 0.018794 0 0.0195771 0 0.0203602 0 
0.0211433 0 0.0219264 0 0.0227095 0 0.0234926 0 0.0242756 
0 0.0250587 0 0.0258418 0 0.0266249 0 0.027408 0 
0.0281911 0 0.0289742 0 0.0297572 0 0.0305403 0 0.0313234 
0 0.0321065 0 0.0328896 0 0.0336727 0 0.0344558 0 
0.0352388 0 0.0360219 0 0.036805 0 0.0375881 0 0.0383712 
0 0.0391543 0 0.0399374 0 0.0407204 0 0.0415035 0 
0.0422866 0 0.0430697 0 0.0438528 0 0.0446359 0 0.045419 
0 0.046202 0 0.0469851 0 0.0477682 0 0.0485513 0 
0.0493344 0 0.0501175 0 0.0509005 0 0.0516836 0 0.0524667 
0 0.0532498 0 0.0540329 0 0.054816 0 0.0555991 0 
0.0563821 0 0.0571652 0 0.0579483 0 0.0587314 0 0.0595145 
0 0.0602976 0 0.0610807 0 0.0618637 0 0.0626468 0 
0.0634299 0 0.064213 0 0.0649961 0 0.0657792 0 0.0665623 
0 0.0673453 0 0.0681284 0 0.0689115 0 0.0696946 0 
0.0704777 0 0.0712608 0 0.0720439 0 0.0728269 0 0.07361 
0 0.0743931 0 0.0751762 0 0.0759593 0 0.0767424 0 
0.0775255 0 0.0783085 0 0.0790916 0 0.0798747 0 0.0806578 
0 0.0814409 0 0.082224 0 0.083007 0 0.0837901 0 
0.0845732 0 0.0853563 0 0.0861394 0 0.0869225 0 0.0877056 
0 0.0884886 0 0.0892717 0 0.0900548 0 0.0908379 0 
0.091621 0 0.0924041 0 0.0931872 0 0.0939702 0 0.0947533 
0 0.0955364 0 0.0963195 0 0.0971026 0 0.0978857 0 
0.0986688 0 0.0994518 0 0.100235 0 0.101018 0 0.101801 
0 0.102584 0 0.103367 0 0.10415 0 0.104933 0 
0.105717 0 0.1065 0 0.107283 0 0.108066 0 0.108849 
0 0.109632 0 0.110415 0 0.111198 0 0.111981 0 
0.112764 0 0.113547 0 0.11433 0 0.115114 0 0.115897 
0 0.11668 0 0.117463 0 0.118246 0 0.119029 0 
0.119812 0 0.120595 0 0.121378 0 0.122161 0 0.122944 
0 0.123727 0 0.124511 0 0.125294 0 0.126077 0 
0.12686 0 0.127643 0 0.128426 0 0.129209 0 0.129992 
0 0.130775 0 0.131558 0 0.132341 0 0.133125 0 
0.133908 0 0.134691 0 0.135474 0 0.136257 0 0.13704 
0 0.137823 0 0.138606 0 0.139389 0 0.140172 0 
0.140955 0 0.141738 0 0.142522 0 0.143305 0 0.144088 
0 0.144871 0 0.145654 0 0.146437 0 0.14722 0 
0.148003 0 0.148786 0 0.149569 0 0.150352 0 0.151135 
0 0.151919 0 0.152702 0 0.153485 0 0.154268 0 
0.155051 0 0.155834 0 0.156617 0 0.1574 0 0.158183 
0 0.158966 0 0.159749 0 0.160533 0 0.161316 0 
0.162099 0 0.162882 0 0.163665 0 0.164448 0 0.165231 
0 0.166014 0 0.166797 0 0.16758 0 0.168363 0 
0.169146 0 0.16993 0 0.170713 0 0.171496 0 0.172279 
0 0.173062 0 0.173845 0 0.174628 0 0.175411 0 
0.176194 0 0.176977 0 0.17776 0 0.178543 0 0.179327 
0 0.18011 0 0.180893 0 0.181676 0 0.182459 0 
0.183242 0 0.184025 0 0.184808 0 0.185591 0 0.186374 
0 0.187157 0 0.18794 0 0.188724 0 0.189507 0 
0.19029 0 0.191073 0 0.191856 0 0.192639 0 0.193422 
0 0.194205 0 0.194988 0 0.195771 0 0.196554 0 
0.197338 0 0.198121 0 0.198904 0 0.199687 0 0.20047 
0 0.201253 0 0.202036 0 0.202819 0 0.203602 0 
0.204385 0 0.205168 0 0.205951 0 0.206735 0 0.207518 
0 0.208301 0 0.209084 0 0.209867 0 0.21065 0 
0.211433 0 0.212216 0 0.212999 0 0.213782 0 0.214565 
0 0.215348 0 0.216132 0 0.216915 0 0.217698 0 
0.218481 0 0.219264 0 0.220047 0 0.22083 0 0.221613 
0 0.222396 0 0.223179 0 0.223962 0 0.224745 0 
0.225529 0 0.226312 0 0.227095 0 0.227878 0 0.228661 
0 0.229444 0 0.230227 0 0.23101 0 0.231793 0 
0.232576 0 0.233359 0 0.234143 0 0.234926 0 0.235709 
0 0.236492 0 0.237275 0 0.238058 0 0.238841 0 
0.239624 0 0.240407 0 0.24119 0 0.241973 0 0.242756 
0 0.24354 0 0.244323 0 0.245106 0 0.245889 0 
0.246672 0 0.247455 0 0.248238 0 0.249021 0 0.249804 
0 0.250587 0 0.25137 0 0.252153 0 0.252937 0 
0.25372 0 0.254503 0 0.255286 0 0.256069 0 0.256852 
0 0.257635 0 0.258418 0 0.259201 0 0.259984 0 
0.260767 0 0.261551 0 0.262334 0 0.263117 0 0.2639 
0 0.264683 0 0.265466 0 0.266249 0 0.267032 0 
0.267815 0 0.268598 0 0.269381 0 0.270164 0 0.270948 
0 0.271731 0 0.272514 0 0.273297 0 0.27408 0 
0.274863 0 0.275646 0 0.276429 0 0.277212 0 0.277995 
0 0.278778 0 0.279561 0 0.280345 0 0.281128 0 
0.281911 0 0.282694 0 0.283477 0 0.28426 0 0.285043 
0 0.285826 0 0.286609 0 0.287392 0 0.288175 0 
0.288958 0 0.289742 0 0.290525 0 0.291308 0 0.292091 
0 0.292874 0 0.293657 0 0.29444 0 0.295223 0 
0.296006 0 0.296789 0 0.297572 0 0.298356 0 0.299139 
0 0.299922 0 0.300705 0 0.301488 0 0.302271 0 
0.303054 0 0.303837 0 0.30462 0 0.305403 0 0.306186 
0 0.306969 0 0.307753 0 0.308536 0 0.309319 0 
0.310102 0 0.310885 0 0.311668 0 0.312451 0 0.313234 
0 0.314017 0 0.3148 0 0.315583 0 0.316366 0 
0.31715 0 0.317933 0 0.318716 0 0.319499 0 0.320282 
0 0.321065 0 0.321848 0 0.322631 0 0.323414 0 
0.324197 0 0.32498 0 0.325763 0 0.326547 0 0.32733 
0 0.328113 0 0.328896 0 0.329679 0 0.330462 0 
0.331245 0 0.332028 0 0.332811 0 0.333594 0 0.334377 
0 0.335161 0 0.335944 0 0.336727 0 0.33751 0 
0.338293 0 0.339076 0 0.339859 0 0.340642 0 0.341425 
0 0.342208 0 0.342991 0 0.343774 0 0.344558 0 
0.345341 0 0.346124 0 0.346907 0 0.34769 0 0.348473 
0 0.349256 0 0.350039 0 0.350822 0 0.351605 0 
0.352388 0 0.353171 0 0.353955 0 0.354738 0 0.355521 
0 0.356304 0 0.357087 0 0.35787 0 0.358653 0 
0.359436 0 0.360219 0 0.361002 0 0.361785 0 0.362569 
0 0.363352 0 0.364135 0 0.364918 0 0.365701 0 
0.366484 0 0.367267 0 0.36805 0 0.368833 0 0.369616 
0 0.370399 0 0.371182 0 0.371966 0 0.372749 0 
0.373532 0 0.374315 0 0.375098 0 0.375881 0 0.376664 
0 0.377447 0 0.37823 0 0.379013 0 0.379796 0 
0.380579 0 0.381363 0 0.382146 0 0.382929 0 0.383712 
0 0.384495 0 0.385278 0 0.386061 0 0.386844 0 
0.387627 0 0.38841 0 0.389193 0 0.389977 0 0.39076 
0 0.391543 0 0.392326 0 0.393109 0 0.393892 0 
0.394675 0 0.395458 0 0.396241 0 0.397024 0 0.397807 
0 0.39859 0 0.399374 0 0.400157 0 0.40094 0 
0.401723 0 0.402506 0 0.403289 0 0.404072 0 0.404855 
0 0.405638 0 0.406421 0 0.407204 0 0.407987 0 
0.408771 0 0.409554 0 0.410337 0 0.41112 0 0.411903 
0 0.412686 0 0.413469 0 0.414252 0 0.415035 0 
0.415818 0 0.416601 0 0.417385 0 0.418168 0 0.418951 
0 0.419734 0 0.420517 0 0.4213 0 0.422083 0 
0.422866 0 0.423649 0 0.424432 0 0.425215 0 0.425998 
0 0.426782 0 0.427565 0 0.428348 0 0.429131 0 
0.429914 0 0.430697 0 0.43148 0 0.432263 0 0.433046 
0 0.433829 0 0.434612 0 0.435395 0 0.436179 0 
0.436962 0 0.437745 0 0.438528 0 0.439311 0 0.440094 
0 0.440877 0 0.44166 0 0.442443 0 0.443226 0 
0.444009 0 0.444792 0 0.445576 0 0.446359 0 0.447142 
0 0.447925 0 0.448708 0 0.449491 0 0.450274 0 
0.451057 0 0.45184 0 0.452623 0 0.453406 0 0.45419 
0 0.454973 0 0.455756 0 0.456539 0 0.457322 0 
0.458105 0 0.458888 0 0.459671 0 0.460454 0 0.461237 
0 0.46202 0 0.462803 0 0.463587 0 0.46437 0 
0.465153 0 0.465936 0 0.466719 0 0.467502 0 0.468285 
0 0.469068 0 0.469851 0 0.470634 0 0.471417 0 
0.4722 0 0.472984 0 0.473767 0 0.47455 0 0.475333 
0 0.476116 0 0.476899 0 0.477682 0 0.478465 0 
0.479248 0 0.480031 0 0.480814 0 0.481597 0 0.482381 
0 0.483164 0 0.483947 0 0.48473 0 0.485513 0 
0.486296 0 0.487079 0 0.487862 0 0.488645 0 0.489428 
0 0.490211 0 0.490995 0 0.491778 0 0.492561 0 
0.493344 0 0.494127 0 0.49491 0 0.495693 0 0.496476 
0 0.497259 0 0.498042 0 0.498825 0 0.499608 0 
0.500392 0 0.501175 0 0.501958 0 0.502741 0 0.503524 
0 0.504307 0 0.50509 0 0.505873 0 0.506656 0 
0.507439 0 0.508222 0 0.509005 0 0.509789 0 0.510572 
0 0.511355 0 0.512138 0 0.512921 0 0.513704 0 
0.514487 0 0.51527 0 0.516053 0 0.516836 0 0.517619 
0 0.518403 0 0.519186 0 0.519969 0 0.520752 0 
0.521535 0 0.522318 0 0.523101 0 0.523884 0 0.524667 
0 0.52545 0 0.526233 0 0.527016 0 0.5278 0 
0.528583 0 0.529366 0 0.530149 0 0.530932 0 0.531715 
0 0.532498 0 0.533281 0 0.534064 0 0.534847 0 
0.53563 0 0.536413 0 0.537197 0 0.53798 0 0.538763 
0 0.539546 0 0.540329 0 0.541112 0 0.541895 0 
0.542678 0 0.543461 0 0.544244 0 0.545027 0 0.545811 
0 0.546594 0 0.547377 0 0.54816 0 0.548943 0 
0.549726 0 0.550509 0 0.551292 0 0.552075 0 0.552858 
0 0.553641 0 0.554424 0 0.555207 0 0.555991 0 
0.556774 0 0.557557 0 0.55834 0 0.559123 0 0.559906 
0 0.560689 0 0.561472 0 0.562255 0 0.563038 0 
0.563821 0 0.564605 0 0.565388 0 0.566171 0 0.566954 
0 0.567737 0 0.56852 0 0.569303 0 0.570086 0 
0.570869 0 0.571652 0 0.572435 0 0.573218 0 0.574002 
0 0.574785 0 0.575568 0 0.576351 0 0.577134 0 
0.577917 0 0.5787 0 0.579483 0 0.580266 0 0.581049 
0 0.581832 0 0.582615 0 0.583399 0 0.584182 0 
0.584965 0 0.585748 0 0.586531 0 0.587314 0 0.588097 
0 0.58888 0 0.589663 0 0.590446 0 0.591229 0 
0.592013 0 0.592796 0 0.593579 0 0.594362 0 0.595145 
0 0.595928 0 0.596711 0 0.597494 0 0.598277 0 
0.59906 0 0.599843 0 0.600626 0 0.60141 0 0.602193 
0 0.602976 0 0.603759 0 0.604542 0 0.605325 0 
0.606108 0 0.606891 0 0.607674 0 0.608457 0 0.60924 
0 0.610023 0 0.610807 0 0.61159 0 0.612373 0 
0.613156 0 0.613939 0 0.614722 0 0.615505 0 0.616288 
0 0.617071 0 0.617854 0 0.618637 0 0.619421 0 
0.620204 0 0.620987 0 0.62177 0 0.622553 0 0.623336 
0 0.624119 0 0.624902 0 0.625685 0 0.626468 0 
0.627251 0 0.628034 0 0.628818 0 0.629601 0 0.630384 
0 0.631167 0 0.63195 0 0.632733 0 0.633516 0 
0.634299 0 0.635082 0 0.635865 0 0.636648 0 0.637432 
0 0.638215 0 0.638998 0 0.639781 0 0.640564 0 
0.641347 0 0.64213 0 0.642913 0 0.643696 0 0.644479 
0 0.645262 0 0.646045 0 0.646829 0 0.647612 0 
0.648395 0 0.649178 0 0.649961 0 0.650744 0 0.651527 
0 0.65231 0 0.653093 0 0.653876 0 0.654659 0 
0.655442 0 0.656226 0 0.657009 0 0.657792 0 0.658575 
0 0.659358 0 0.660141 0 0.660924 0 0.661707 0 
0.66249 0 0.663273 0 0.664056 0 0.664839 0 0.665623 