# vtk DataFile Version 4.2
vtk output
ASCII
DATASET POLYDATA
POINTS 1278 float
0 0 0 -0.00365404 0.00153313 0.00110316 -0.0143151 0.00598563 0.00432598 
-0.0315317 0.0131372 0.00953843 -0.0548523 0.0227676 0.0166105 -0.0838253 0.0346564 0.0254122 
-0.117999 0.0485834 0.0358135 -0.156922 0.0643282 0.0476843 -0.200143 0.0816706 0.0608947 
-0.247211 0.10039 0.0753147 -0.297673 0.120267 0.0908142 -0.351078 0.14108 0.107263 
-0.406974 0.162609 0.124532 -0.464911 0.184635 0.14249 -0.524436 0.206936 0.161007 
-0.585099 0.229293 0.179954 -0.646446 0.251485 0.199201 -0.708028 0.273291 0.218617 
-0.769392 0.294493 0.238072 -0.830086 0.314868 0.257437 -0.88966 0.334197 0.276581 
-0.947663 0.35226 0.295375 -1.00381 0.368919 0.313735 -1.05818 0.384211 0.331684 
-1.1109 0.398198 0.349253 -1.16209 0.410943 0.366478 -1.21189 0.422506 0.383393 
-1.26042 0.43295 0.400031 -1.3078 0.442337 0.416427 -1.35416 0.450728 0.432614 
-1.39963 0.458185 0.448626 -1.44434 0.464769 0.464499 -1.48841 0.470543 0.480264 
-1.53196 0.475568 0.495958 -1.57514 0.479906 0.511612 -1.61805 0.483619 0.527263 
-1.66083 0.486768 0.542943 -1.7036 0.489416 0.558686 -1.7465 0.491623 0.574527 
-1.78964 0.493453 0.5905 -1.83316 0.494965 0.606638 -1.87717 0.49622 0.622974 
-1.9217 0.497225 0.639513 -1.96671 0.497957 0.656243 -2.01217 0.498388 0.673151 
-2.05803 0.498495 0.690223 -2.10424 0.498252 0.707448 -2.15078 0.497632 0.724811 
-2.19761 0.496611 0.742299 -2.24468 0.495163 0.759901 -2.29195 0.493262 0.777603 
-2.33938 0.490883 0.795391 -2.38694 0.488 0.813253 -2.43458 0.484589 0.831176 
-2.48227 0.480622 0.849147 -2.52996 0.476076 0.867152 -2.57762 0.470923 0.88518 
-2.6252 0.46514 0.903216 -2.67267 0.4587 0.921248 -2.71998 0.451577 0.939264 
-2.7671 0.443747 0.957249 -2.81399 0.435184 0.975191 -2.86061 0.42587 0.993079 
-2.90697 0.415814 1.01091 -2.95306 0.405026 1.02868 -2.9989 0.393517 1.04638 
-3.04449 0.381299 1.06402 -3.08982 0.368381 1.08158 -3.1349 0.354776 1.09907 
-3.17974 0.340494 1.11648 -3.22433 0.325547 1.13381 -3.26868 0.309944 1.15105 
-3.3128 0.293698 1.16821 -3.35669 0.276819 1.18527 -3.40034 0.259318 1.20224 
-3.44377 0.241207 1.21911 -3.48697 0.222496 1.23588 -3.52995 0.203196 1.25254 
-3.57272 0.183319 1.2691 -3.61527 0.162875 1.28554 -3.6576 0.141875 1.30187 
-3.69973 0.120331 1.31808 -3.74166 0.0982519 1.33416 -3.78337 0.0756451 1.35012 
-3.82487 0.0525154 1.36595 -3.86614 0.028868 1.38165 -3.9072 0.0047081 1.39721 
-3.94802 -0.0199591 1.41262 -3.9886 -0.0451285 1.42789 -4.02894 -0.0707948 1.443 
-4.06904 -0.0969529 1.45796 -4.10889 -0.123598 1.47276 -4.14848 -0.150724 1.4874 
-4.1878 -0.178326 1.50187 -4.22686 -0.2064 1.51617 -4.26565 -0.234939 1.53029 
-4.30415 -0.263939 1.54423 -4.34238 -0.293395 1.55798 -4.38031 -0.323301 1.57155 
-4.41796 -0.353652 1.58492 -4.4553 -0.384443 1.59809 -4.49234 -0.41567 1.61106 
-4.52907 -0.447325 1.62383 -4.5655 -0.479403 1.63639 -4.60161 -0.511895 1.64874 
-4.63742 -0.544792 1.66088 -4.67293 -0.578086 1.67281 -4.70813 -0.611768 1.68453 
-4.74304 -0.64583 1.69604 -4.77765 -0.680263 1.70734 -4.81196 -0.71506 1.71842 
-4.84598 -0.75021 1.72928 -4.87972 -0.785706 1.73994 -4.91316 -0.82154 1.75037 
-4.94632 -0.857702 1.76059 -4.97919 -0.894184 1.77059 -5.01179 -0.930978 1.78037 
-5.0441 -0.968076 1.78993 -5.07613 -1.00547 1.79928 -5.1079 -1.04315 1.8084 
-5.13938 -1.0811 1.8173 -5.1706 -1.11933 1.82597 -5.20155 -1.15781 1.83442 
-5.23223 -1.19655 1.84265 -5.26265 -1.23554 1.85066 -5.2928 -1.27477 1.85843 
-5.3227 -1.31424 1.86599 -5.35234 -1.35395 1.87332 -5.38172 -1.39388 1.88043 
-5.41085 -1.43403 1.88731 -5.43973 -1.4744 1.89396 -5.46836 -1.51499 1.90039 
-5.49674 -1.55578 1.9066 -5.52488 -1.59677 1.91258 -5.55278 -1.63796 1.91833 
-5.58044 -1.67935 1.92386 -5.60786 -1.72092 1.92917 -5.63505 -1.76267 1.93424 
-5.662 -1.8046 1.9391 -5.68873 -1.8467 1.94372 -5.71522 -1.88897 1.94812 
-5.74149 -1.9314 1.9523 -5.76754 -1.97399 1.95625 -5.79336 -2.01672 1.95997 
-5.81897 -2.05961 1.96346 -5.84436 -2.10264 1.96673 -5.86953 -2.14581 1.96977 
-5.89449 -2.18912 1.97258 -5.91924 -2.23257 1.97517 -5.94378 -2.27614 1.97753 
-5.96812 -2.31984 1.97966 -5.99225 -2.36367 1.98156 -6.01619 -2.40761 1.98323 
-6.03992 -2.45167 1.98467 -6.06345 -2.49585 1.98588 -6.08679 -2.54013 1.98686 
-6.10994 -2.58452 1.98761 -6.1329 -2.62901 1.98814 -6.15567 -2.6736 1.98843 
-6.17825 -2.71829 1.98849 -6.20065 -2.76307 1.98831 -6.22286 -2.80794 1.98791 
-6.2449 -2.85289 1.98727 -6.26676 -2.89792 1.98641 -6.28845 -2.94303 1.9853 
-6.30996 -2.98822 1.98397 -6.33129 -3.03349 1.98239 -6.35245 -3.07882 1.98058 
-6.37345 -3.12422 1.97853 -6.39426 -3.16969 1.97623 -6.41491 -3.21523 1.9737 
-6.43539 -3.26082 1.97091 -6.4557 -3.30648 1.96789 -6.47585 -3.35219 1.96461 
-6.49583 -3.39796 1.96109 -6.51564 -3.44378 1.95731 -6.53529 -3.48965 1.95328 
-6.55477 -3.53556 1.949 -6.5741 -3.58152 1.94447 -6.59326 -3.62752 1.93967 
-6.61226 -3.67357 1.93462 -6.6311 -3.71965 1.92931 -6.64978 -3.76576 1.92373 
-6.66831 -3.81191 1.91789 -6.68668 -3.85808 1.91179 -6.70489 -3.90429 1.90542 
-6.72294 -3.95052 1.89877 -6.74083 -3.99677 1.89185 -6.75855 -4.04304 1.88465 
-6.77612 -4.08932 1.87717 -6.79352 -4.13563 1.8694 -6.81076 -4.18194 1.86134 
-6.82784 -4.22826 1.85299 -6.84475 -4.27459 1.84434 -6.86149 -4.32092 1.83539 
-6.87806 -4.36725 1.82614 -6.89447 -4.41358 1.81658 -6.91071 -4.4599 1.80672 
-6.92677 -4.50622 1.79654 -6.94267 -4.55253 1.78604 -6.95839 -4.59882 1.77522 
-6.97395 -4.6451 1.76408 -6.98932 -4.69136 1.75262 -7.00452 -4.73761 1.74082 
-7.01955 -4.78382 1.72869 -7.03439 -4.83001 1.71622 -7.04905 -4.87617 1.7034 
-7.06352 -4.92229 1.69023 -7.0778 -4.96837 1.67671 -7.09188 -5.01439 1.66282 
-7.10575 -5.06037 1.64856 -7.11942 -5.10629 1.63393 -7.13288 -5.15215 1.61891 
-7.14613 -5.19794 1.60351 -7.15915 -5.24366 1.58772 -7.17195 -5.2893 1.57152 
-7.18452 -5.33486 1.55492 -7.19687 -5.38034 1.53792 -7.20897 -5.42573 1.52049 
-7.22083 -5.47102 1.50264 -7.23245 -5.51621 1.48437 -7.24382 -5.5613 1.46566 
-7.25494 -5.60628 1.44651 -7.2658 -5.65114 1.42692 -7.27639 -5.69588 1.40687 
-7.28672 -5.7405 1.38637 -7.29676 -5.78498 1.36541 -7.30652 -5.8293 1.344 
-7.31598 -5.87347 1.32212 -7.32513 -5.91748 1.29977 -7.33397 -5.9613 1.27696 
-7.34249 -6.00494 1.25368 -7.35067 -6.04838 1.22992 -7.35851 -6.09161 1.20568 
-7.36601 -6.13463 1.18097 -7.37314 -6.17741 1.15577 -7.37991 -6.21997 1.13009 
-7.38629 -6.26227 1.10392 -7.3923 -6.30432 1.07727 -7.39791 -6.34611 1.05011 
-7.40312 -6.38762 1.02246 -7.40791 -6.42884 0.994317 -7.41229 -6.46977 0.965668 
-7.41624 -6.51039 0.936514 -7.41975 -6.5507 0.906855 -7.42281 -6.59069 0.876696 
-7.42544 -6.63035 0.846048 -7.42761 -6.66967 0.814924 -7.42933 -6.70866 0.783335 
-7.43059 -6.7473 0.751292 -7.43139 -6.7856 0.718806 -7.43173 -6.82353 0.68589 
-7.4316 -6.86111 0.652553 -7.43101 -6.89832 0.618809 -7.42994 -6.93515 0.584668 
-7.42839 -6.97161 0.550142 -7.42636 -7.00768 0.515242 -7.42385 -7.04336 0.47998 
-7.42085 -7.07864 0.444366 -7.41737 -7.11352 0.408413 -7.41338 -7.148 0.372132 
-7.40891 -7.18206 0.335535 -7.40393 -7.2157 0.298632 -7.39844 -7.24892 0.261435 
-7.39245 -7.28171 0.223956 -7.38596 -7.31406 0.186207 -7.37896 -7.346 0.148201 
-7.37147 -7.37752 0.109951 -7.36349 -7.40864 0.0714704 -7.35504 -7.43936 0.0327728 
-7.3461 -7.46969 -0.00612902 -7.33671 -7.49964 -0.0452217 -7.32684 -7.52921 -0.0844921 
-7.31653 -7.55842 -0.123927 -7.30576 -7.58727 -0.163513 -7.29456 -7.61577 -0.203238 
-7.28291 -7.64393 -0.243087 -7.27084 -7.67175 -0.283048 -7.25834 -7.69925 -0.323108 
-7.24543 -7.72644 -0.363253 -7.2321 -7.75331 -0.40347 -7.21838 -7.77988 -0.443746 
-7.20425 -7.80616 -0.484068 -7.18973 -7.83215 -0.524422 -7.17483 -7.85787 -0.564795 
-7.15955 -7.88332 -0.605177 -7.14389 -7.9085 -0.645562 -7.12787 -7.93344 -0.685942 
-7.1115 -7.95815 -0.726314 -7.09476 -7.98262 -0.766671 -7.07769 -8.00688 -0.807008 
-7.06027 -8.03094 -0.847319 -7.04253 -8.0548 -0.887598 -7.02445 -8.07847 -0.927841 
-7.00606 -8.10197 -0.968041 -6.98736 -8.12531 -1.00819 -6.96835 -8.14849 -1.04829 
-6.94904 -8.17153 -1.08833 -6.92944 -8.19444 -1.1283 -6.90956 -8.21723 -1.16821 
-6.88939 -8.23991 -1.20803 -6.86895 -8.26249 -1.24778 -6.84825 -8.28497 -1.28744 
-6.82729 -8.30738 -1.327 -6.80607 -8.32972 -1.36647 -6.78461 -8.352 -1.40583 
-6.76291 -8.37423 -1.44509 -6.74097 -8.39643 -1.48423 -6.71881 -8.41858 -1.52326 
-6.69642 -8.44071 -1.56218 -6.67381 -8.46283 -1.60098 -6.65099 -8.48494 -1.63965 
-6.62795 -8.50704 -1.6782 -6.60472 -8.52916 -1.71663 -6.58129 -8.55129 -1.75492 
-6.55766 -8.57345 -1.79307 -6.53385 -8.59563 -1.83109 -6.50985 -8.61786 -1.86897 
-6.48568 -8.64014 -1.90671 -6.46134 -8.66248 -1.9443 -6.43683 -8.68488 -1.98175 
-6.41216 -8.70736 -2.01904 -6.38734 -8.72992 -2.05618 -6.36236 -8.75257 -2.09315 
-6.33724 -8.77532 -2.12997 -6.31198 -8.79817 -2.16663 -6.28659 -8.82114 -2.20312 
-6.26106 -8.84423 -2.23944 -6.23541 -8.86745 -2.27559 -6.20964 -8.89081 -2.31156 
-6.18375 -8.9143 -2.34736 -6.15775 -8.93795 -2.38298 -6.13164 -8.96175 -2.41842 
-6.10543 -8.98571 -2.45368 -6.07913 -9.00984 -2.48875 -6.05272 -9.03414 -2.52363 
-6.02623 -9.05863 -2.55832 -5.99965 -9.08331 -2.59281 -5.973 -9.10818 -2.62712 
-5.94627 -9.13326 -2.66122 -5.91946 -9.15855 -2.69512 -5.89259 -9.18405 -2.72882 
-5.86566 -9.20977 -2.76231 -5.83867 -9.23573 -2.79559 -5.81163 -9.26192 -2.82867 
-5.78454 -9.28836 -2.86153 -5.7574 -9.31504 -2.89417 -5.73024 -9.34199 -2.92658 
-5.70304 -9.36919 -2.95876 -5.67582 -9.39667 -2.9907 -5.6486 -9.42443 -3.02238 
-5.62136 -9.45247 -3.05381 -5.59413 -9.4808 -3.08497 -5.56691 -9.50942 -3.11585 
-5.5397 -9.53836 -3.14645 -5.51252 -9.5676 -3.17675 -5.48537 -9.59716 -3.20676 
-5.45827 -9.62704 -3.23645 -5.43121 -9.65726 -3.26583 -5.4042 -9.68781 -3.29488 
-5.37725 -9.71871 -3.32359 -5.35038 -9.74996 -3.35196 -5.32358 -9.78157 -3.37999 
-5.29687 -9.81354 -3.40765 -5.27025 -9.84588 -3.43494 -5.24373 -9.8786 -3.46186 
-5.21731 -9.91171 -3.48839 -5.19101 -9.9452 -3.51454 -5.16483 -9.9791 -3.54028 
[...]
CELL_DATA 1
FIELD FieldData 2
Length 1 1 double
63.896499469 
Tortuosity 1 1 double
0.68012038577 
POINT_DATA 1278
SCALARS MaximumInscribedSphereRadius float
LOOKUP_TABLE default
0.62 0.62 0.62 0.62 0.62 0.62 0.62 0.62 0.62 
0.62 0.62 0.62 0.62 0.62 0.62 0.62 0.62 0.62 
0.62 0.62 0.62 0.620223 0.621298 0.622373 0.623447 0.624522 0.625597 
0.626671 0.627746 0.628821 0.629896 0.63097 0.632045 0.63312 0.634194 0.635269 
0.636344 0.637418 0.638493 0.639568 0.640643 0.644599 0.650207 0.655815 0.661422 
0.66703 0.672638 0.678245 0.683853 0.689461 0.695069 0.700676 0.706284 0.711892 
0.717499 0.723107 0.728715 0.734323 0.73993 0.745538 0.751146 0.757333 0.767193 
0.777052 0.786912 0.796772 0.806631 0.816491 0.826351 0.83621 0.84607 0.85593 
0.865789 0.875649 0.885509 0.895368 0.905228 0.915088 0.924947 0.934807 0.944667 
0.954526 0.968659 0.983143 0.997627 1.01211 1.0266 1.04108 1.05556 1.07005 
1.08453 1.09902 1.1135 1.12798 1.14247 1.15695 1.17143 1.18592 1.2004 
1.21489 1.22937 1.24385 1.25826 1.27263 1.287 1.30136 1.31573 1.3301 
1.34446 1.35883 1.3732 1.38757 1.40193 1.4163 1.43067 1.44503 1.4594 
1.47377 1.48813 1.5025 1.51687 1.53123 1.54291 1.55016 1.55741 1.56465 
1.5719 1.57914 1.58639 1.59364 1.60088 1.60813 1.61537 1.62262 1.62987 
1.63711 1.64436 1.6516 1.65885 1.6661 1.67334 1.68059 1.68753 1.69177 
1.69601 1.70026 1.7045 1.70874 1.71298 1.71723 1.72147 1.72571 1.72996 
1.7342 1.73844 1.74268 1.74693 1.75117 1.75541 1.75966 1.7639 1.76814 
1.77239 1.76503 1.75525 1.74547 1.73568 1.7259 1.71612 1.70634 1.69656 
1.68677 1.67699 1.66721 1.65743 1.64764 1.63786 1.62808 1.6183 1.60851 
1.59873 1.58895 1.57917 1.56963 1.56028 1.55094 1.5416 1.53225 1.52291 
1.51357 1.50423 1.49488 1.48554 1.4762 1.46685 1.45751 1.44817 1.43882 
1.42948 1.42014 1.4108 1.40145 1.39211 1.38484 1.38307 1.3813 1.37953 
1.37776 1.37599 1.37421 1.37244 1.37067 1.3689 1.36713 1.36535 1.36358 
1.36181 1.36004 1.35827 1.3565 1.35472 1.35295 1.35118 1.34941 1.35194 
1.35446 1.35699 1.35952 1.36204 1.36457 1.36709 1.36962 1.37215 1.37467 
1.3772 1.37973 1.38225 1.38478 1.3873 1.38983 1.39236 1.39488 1.39741 
1.39993 1.40368 1.40788 1.41207 1.41627 1.42046 1.42466 1.42886 1.43305 
1.43725 1.44144 1.44564 1.44983 1.45403 1.45822 1.46242 1.46661 1.47081 
1.47501 1.4792 1.4834 1.48586 1.48642 1.48698 1.48753 1.48809 1.48864 
1.4892 1.48976 1.49031 1.49087 1.49142 1.49198 1.49254 1.49309 1.49365 
1.4942 1.49476 1.49532 1.49587 1.49643 1.49526 1.48751 1.47976 1.47201 
1.46426 1.45651 1.44876 1.44101 1.43326 1.42551 1.41776 1.41 1.40225 
1.3945 1.38675 1.379 1.37125 1.3635 1.35575 1.348 1.34025 1.3381 
1.33637 1.33464 1.3329 1.33117 1.32943 1.3277 1.32597 1.32423 1.3225 
1.32076 1.31903 1.3173 1.31556 1.31383 1.3121 1.31036 1.30863 1.30689 
1.30516 1.30954 1.31716 1.32477 1.33239 1.34001 1.34762 1.35524 1.36285 
1.37047 1.37809 1.3857 1.39332 1.40093 1.40855 1.41617 1.42378 1.4314 
1.43902 1.44663 1.45425 1.46196 1.46981 1.47767 1.48553 1.49339 1.50125 
1.50911 1.51697 1.52482 1.53268 1.54054 1.5484 1.55626 1.56412 1.57198 
1.57983 1.58769 1.59555 1.60341 1.61127 1.6192 1.62783 1.63646 1.64509 
1.65371 1.66234 1.67097 1.6796 1.68822 1.69685 1.70548 1.71411 1.72273 
1.73136 1.73999 1.74862 1.75724 1.76587 1.7745 1.78313 1.79176 1.77739 
1.7593 1.7412 1.72311 1.70502 1.68692 1.66883 1.65074 1.63264 1.61455 
1.59645 1.57836 1.56027 1.54217 1.52408 1.50599 1.48789 1.4698 1.4517 
1.43361 1.41411 1.3936 1.37309 1.35258 1.33206 1.31155 1.29104 1.27053 
1.25002 1.22951 1.209 1.18849 1.16798 1.14747 1.12696 1.10645 1.08594 
1.06543 1.04492 1.0244 1.02034 1.03257 1.04479 1.05702 1.06924 1.08147 
1.09369 1.10592 1.11814 1.13037 1.14259 1.15482 1.16704 1.17927 1.19149 
1.20372 1.21594 1.22817 1.24039 1.25262 1.26588 1.28227 1.29866 1.31504 
1.33143 1.34782 1.3642 1.38059 1.39698 1.41337 1.42975 1.44614 1.46253 
1.47891 1.4953 1.51169 1.52808 1.54446 1.56085 1.57724 1.59347 1.60243 
1.6114 1.62036 1.62933 1.6383 1.64726 1.65623 1.66519 1.67416 1.68312 
1.69209 1.70105 1.71002 1.71899 1.72795 1.73692 1.74588 1.75485 1.76381 
1.77278 1.77187 1.7674 1.76292 1.75845 1.75397 1.7495 1.74502 1.74055 
1.73607 1.7316 1.72712 1.72265 1.71817 1.71369 1.70922 1.70474 1.70027 
1.69579 1.69132 1.68684 1.68185 1.67624 1.67063 1.66502 1.65941 1.6538 
1.64819 1.64258 1.63697 1.63135 1.62574 1.62013 1.61452 1.60891 1.6033 
1.59769 1.59208 1.58647 1.58086 1.57525 1.57047 1.56946 1.56844 1.56742 
1.5664 1.56538 1.56436 1.56334 1.56232 1.5613 1.56028 1.55926 1.55825 
1.55723 1.55621 1.55519 1.55417 1.55315 1.55213 1.55111 1.55009 1.54766 
1.54508 1.54251 1.53993 1.53736 1.53478 1.53221 1.52963 1.52706 1.52448 
1.52191 1.51933 1.51676 1.51418 1.51161 1.50903 1.50646 1.50388 1.50131 
1.49873 1.49323 1.48613 1.47904 1.47194 1.46485 1.45775 1.45066 1.44356 
1.43647 1.42937 1.42228 1.41519 1.40809 1.401 1.3939 1.38681 1.37971 
1.37262 1.36552 1.35843 1.35816 1.36828 1.37839 1.38851 1.39862 1.40874 
1.41885 1.42897 1.43908 1.44919 1.45931 1.46942 1.47954 1.48965 1.49977 
1.50988 1.52 1.53011 1.54023 1.55034 1.56193 1.5831 1.60428 1.62546 
1.64664 1.66782 1.689 1.71018 1.73135 1.75253 1.77371 1.79489 1.81607 
1.83725 1.85842 1.8796 1.90078 1.92196 1.94314 1.96432 1.98549 1.9912 
1.9944 1.9976 2.0008 2.004 2.0072 2.0104 2.0136 2.0168 2.02001 
2.02321 2.02641 2.02961 2.03281 2.03601 2.03921 2.04241 2.04561 2.04881 
2.05202 2.04904 2.04171 2.03437 2.02704 2.0197 2.01237 2.00503 1.9977 
1.99037 1.98303 1.9757 1.96836 1.96103 1.95369 1.94636 1.93902 1.93169 
1.92436 1.91702 1.90969 1.90395 1.90182 1.89969 1.89755 1.89542 1.89329 
1.89115 1.88902 1.88689 1.88475 1.88262 1.88049 1.87835 1.87622 1.87409 
1.87195 1.86982 1.86769 1.86555 1.86342 1.86134 1.86117 1.86099 1.86081 
1.86063 1.86046 1.86028 1.8601 1.85992 1.85975 1.85957 1.85939 1.85921 
1.85904 1.85886 1.85868 1.8585 1.85833 1.85815 1.85797 1.85779 1.85459 
1.85038 1.84616 1.84195 1.83773 1.83352 1.8293 1.82509 1.82087 1.81666 
1.81244 1.80823 1.80401 1.7998 1.79558 1.79137 1.78715 1.78294 1.77872 
1.77451 1.76874 1.76123 1.75372 1.74621 1.7387 1.73119 1.72368 1.71617 
1.70866 1.70115 1.69364 1.68613 1.67862 1.67111 1.6636 1.65609 1.64858 
1.64107 1.63356 1.62605 1.61851 1.61086 1.60321 1.59556 1.58791 1.58026 
1.57262 1.56497 1.55732 1.54967 1.54202 1.53437 1.52672 1.51907 1.51142 
1.50377 1.49612 1.48847 1.48082 1.47317 1.46552 1.45779 1.45005 1.44231 
1.43457 1.42684 1.4191 1.41136 1.40362 1.39588 1.38815 1.38041 1.37267 
1.36493 1.35719 1.34946 1.34172 1.33398 1.32624 1.3185 1.31077 1.31171 
1.31769 1.32366 1.32963 1.3356 1.34158 1.34755 1.35352 1.35949 1.36547 
1.37144 1.37741 1.38338 1.38936 1.39533 1.4013 1.40728 1.41325 1.41922 
1.42519 1.43439 1.44943 1.46446 1.4795 1.49453 1.50957 1.52461 1.53964 
1.55468 1.56971 1.58475 1.59978 1.61482 1.62986 1.64489 1.65993 1.67496 
1.69 1.70504 1.72007 1.7337 1.73064 1.72758 1.72452 1.72146 1.7184 
1.71533 1.71227 1.70921 1.70615 1.70309 1.70003 1.69697 1.6939 1.69084 
1.68778 1.68472 1.68166 1.6786 1.67554 1.67247 1.66057 1.64644 1.63231 
1.61819 1.60406 1.58994 1.57581 1.56168 1.54756 1.53343 1.51931 1.50518 
1.49105 1.47693 1.4628 1.44868 1.43455 1.42042 1.4063 1.39217 1.38421 
1.38191 1.3796 1.37729 1.37498 1.37267 1.37036 1.36805 1.36574 1.36343 
1.36112 1.35881 1.3565 1.3542 1.35189 1.34958 1.34727 1.34496 1.34265 
1.34034 1.34044 1.34791 1.35539 1.36286 1.37033 1.37781 1.38528 1.39276 
1.40023 1.4077 1.41518 1.42265 1.43013 1.4376 1.44507 1.45255 1.46002 
1.4675 1.47497 1.48244 1.48992 1.49492 1.49984 1.50477 1.50969 1.51462 
1.51954 1.52447 1.52939 1.53432 1.53924 1.54417 1.54909 1.55402 1.55894 
1.56387 1.56879 1.57372 1.57864 1.58357 1.58849 1.59207 1.59506 1.59804 
1.60103 1.60401 1.60699 1.60998 1.61296 1.61595 1.61893 1.62192 1.6249 
1.62789 1.63087 1.63385 1.63684 1.63982 1.64281 1.64579 1.64878 1.65252 
1.65731 1.66211 1.6669 1.6717 1.6765 1.68129 1.68609 1.69088 1.69568 
1.70047 1.70527 1.71006 1.71486 1.71965 1.72445 1.72924 1.73404 1.73883 
1.74363 1.74851 1.75392 1.75932 1.76473 1.77014 1.77554 1.78095 1.78636 
1.79176 1.79717 1.80258 1.80798 1.81339 1.8188 1.8242 1.82961 1.83502 
1.84042 1.84583 1.85124 1.85664 1.85813 1.85901 1.85989 1.86077 1.86165 
1.86253 1.86341 1.86429 1.86517 1.86605 1.86693 1.86781 1.86869 1.86957 
1.87045 1.87133 1.87221 1.87309 1.87397 1.87485 1.87543 1.87579 1.87616 
1.87653 1.87689 1.87726 1.87763 1.87799 1.87836 1.87873 1.87909 1.87946 
1.87983 1.8802 1.88056 1.88093 1.8813 1.88166 1.88203 1.8824 1.88417 
1.88907 1.89396 1.89886 1.90375 1.90865 1.91354 1.91844 1.92334 1.92823 
1.93313 1.93802 1.94292 1.94782 1.95271 1.95761 1.9625 1.9674 1.97229 
1.97719 1.98215 1.98917 1.99619 2.00321 2.01023 2.01725 2.02427 2.03129 
2.0383 2.04532 2.05234 2.05936 2.06638 2.0734 2.08042 2.08744 2.09445 
2.10147 2.10849 2.11551 2.12253 2.12633 2.12908 2.13183 2.13457 2.13732 
2.14007 2.14282 2.14556 2.14831 2.15106 2.15381 2.15656 2.1593 2.16205 
2.1648 2.16755 2.17029 2.17304 2.17579 2.17854 2.18028 2.18091 2.18154 
2.18216 2.18279 2.18342 2.18405 2.18468 2.1853 2.18593 2.18656 2.18719 
2.18782 2.18845 2.18907 2.1897 2.19033 2.19096 2.19159 2.19222 2.19274 
2.19284 2.19295 2.19305 2.19315 2.19325 2.19336 2.19346 2.19356 2.19366 
2.19377 2.19387 2.19397 2.19407 2.19418 2.19428 2.19438 2.19448 2.19459 
2.19469 2.19479 2.19474 2.19468 2.19462 2.19455 2.19449 2.19443 2.19436 
2.1943 2.19424 2.19417 2.19411 2.19405 2.19398 2.19392 2.19386 2.19379 
2.19373 2.19367 2.19361 2.19354 2.19318 2.19265 2.19212 2.19159 2.19106 
2.19053 2.19 2.18947 2.18893 2.1884 2.18787 2.18734 2.18681 2.18628 
2.18575 2.18522 2.18469 2.18416 2.18363 2.1831 2.18258 2.18209 2.18159 
2.1811 2.1806 2.18011 2.17961 2.17912 2.17862 2.17812 2.17763 2.17713 
2.17664 2.17614 2.17565 2.17515 2.17466 2.17416 2.17367 2.17317 2.17271 
2.17257 2.17244 2.1723 2.17217 2.17204 2.1719 2.17177 2.17163 2.1715 
2.17136 2.17123 2.17109 2.17096 2.17082 2.17069 2.17056 2.17042 2.17029 
2.17015 2.17002 2.16727 2.16413 2.16098 2.15784 2.1547 2.15155 2.14841 
2.14526 2.14212 2.13898 2.13583 2.13269 2.12954 2.1264 2.12326 2.12011 
2.11697 2.11382 2.11068 2.10754 2.10064 2.0875 2.07435 2.0612 2.04805 
2.03491 2.02176 2.00861 1.99547 1.98232 1.96917 1.95602 1.94288 1.92973 
1.91658 1.90344 1.89029 1.87714 1.86399 1.85085 1.83676 1.82243 1.80809 
1.79375 1.77941 1.76507 1.75074 1.7364 1.72206 1.70772 1.69338 1.67904 
1.66471 1.65037 1.63603 1.62169 1.60735 1.59301 1.57868 1.56434 1.55 

TEXTURE_COORDINATES TCoords 2 float
0 0 0.000783085 0 0.00156617 0 0.00234926 0 0.00313234 
0 0.00391543 0 0.00469851 0 0.0054816 0 0.00626468 0 
0.00704777 0 0.00783085 0 0.00861394 0 0.00939702 0 0.0101801 
0 0.0109632 0 0.0117463 0 0.0125294 0 0.0133125 0 
0.0140955 0 0.0148786 0 0.0156617 0 0.0164448 0 0.0172279 
0 0.018011 0 0.018794 0 0.0195771 0 0.0203602 0 
0.0211433 0 0.0219264 0 0.0227095 0 0.0234926 0 0.0242756 
0 0.0250587 0 0.0258418 0 0.0266249 0 0.027408 0 
0.0281911 0 0.0289742 0 0.0297572 0 0.0305403 0 0.0313234 
0 0.0321065 0 0.0328896 0 0.0336727 0 0.0344558 0 
0.0352388 0 0.0360219 0 0.036805 0 0.0375881 0 0.0383712 
0 0.0391543 0 0.0399374 0 0.0407204 0 0.0415035 0 
0.0422866 0 0.0430697 0 0.0438528 0 0.0446359 0 0.045419 
0 0.046202 0 0.0469851 0 0.0477682 0 0.0485513 0 
0.0493344 0 0.0501175 0 0.0509005 0 0.0516836 0 0.0524667 
0 0.0532498 0 0.0540329 0 0.054816 0 0.0555991 0 
0.0563821 0 0.0571652 0 0.0579483 0 0.0587314 0 0.0595145 
0 0.0602976 0 0.0610807 0 0.0618637 0 0.0626468 0 
0.0634299 0 0.064213 0 0.0649961 0 0.0657792 0 0.0665623 
0 0.0673453 0 0.0681284 0 0.0689115 0 0.0696946 0 
0.0704777 0 0.0712608 0 0.0720439 0 0.0728269 0 0.07361 
0 0.0743931 0 0.0751762 0 0.0759593 0 0.0767424 0 
0.0775255 0 0.0783085 0 0.0790916 0 0.0798747 0 0.0806578 
0 0.0814409 0 0.082224 0 0.083007 0 0.0837901 0 
0.0845732 0 0.0853563 0 0.0861394 0 0.0869225 0 0.0877056 
0 0.0884886 0 0.0892717 0 0.0900548 0 0.0908379 0 
0.091621 0 0.0924041 0 0.0931872 0 0.0939702 0 0.0947533 
0 0.0955364 0 0.0963195 0 0.0971026 0 0.0978857 0 
0.0986688 0 0.0994518 0 0.100235 0 0.101018 0 0.101801 
0 0.102584 0 0.103367 0 0.10415 0 0.104933 0 
0.105717 0 0.1065 0 0.107283 0 0.108066 0 0.108849 
0 0.109632 0 0.110415 0 0.111198 0 0.111981 0 
0.112764 0 0.113547 0 0.11433 0 0.115114 0 0.115897 
0 0.11668 0 0.117463 0 0.118246 0 0.119029 0 
0.119812 0 0.120595 0 0.121378 0 0.122161 0 0.122944 
0 0.123727 0 0.124511 0 0.125294 0 0.126077 0 
0.12686 0 0.127643 0 0.128426 0 0.129209 0 0.129992 
0 0.130775 0 0.131558 0 0.132341 0 0.133125 0 
0.133908 0 0.134691 0 0.135474 0 0.136257 0 0.13704 
0 0.137823 0 0.138606 0 0.139389 0 0.140172 0 
0.140955 0 0.141738 0 0.142522 0 0.143305 0 0.144088 
0 0.144871 0 0.145654 0 0.146437 0 0.14722 0 
0.148003 0 0.148786 0 0.149569 0 0.150352 0 0.151135 
0 0.151919 0 0.152702 0 0.153485 0 0.154268 0 
0.155051 0 0.155834 0 0.156617 0 0.1574 0 0.158183 
0 0.158966 0 0.159749 0 0.160533 0 0.161316 0 
0.162099 0 0.162882 0 0.163665 0 0.164448 0 0.165231 
0 0.166014 0 0.166797 0 0.16758 0 0.168363 0 
0.169146 0 0.16993 0 0.170713 0 0.171496 0 0.172279 
0 0.173062 0 0.173845 0 0.174628 0 0.175411 0 
0.176194 0 0.176977 0 0.17776 0 0.178543 0 0.179327 
0 0.18011 0 0.180893 0 0.181676 0 0.182459 0 
0.183242 0 0.184025 0 0.184808 0 0.185591 0 0.186374 
0 0.187157 0 0.18794 0 0.188724 0 0.189507 0 
0.19029 0 0.191073 0 0.191856 0 0.192639 0 0.193422 
0 0.194205 0 0.194988 0 0.195771 0 0.196554 0 
0.197338 0 0.198121 0 0.198904 0 0.199687 0 0.20047 
0 0.201253 0 0.202036 0 0.202819 0 0.203602 0 
0.204385 0 0.205168 0 0.205951 0 0.206735 0 0.207518 
0 0.208301 0 0.209084 0 0.209867 0 0.21065 0 
0.211433 0 0.212216 0 0.212999 0 0.213782 0 0.214565 
0 0.215348 0 0.216132 0 0.216915 0 0.217698 0 
0.218481 0 0.219264 0 0.220047 0 0.22083 0 0.221613 
0 0.222396 0 0.223179 0 0.223962 0 0.224745 0 
0.225529 0 0.226312 0 0.227095 0 0.227878 0 0.228661 
0 0.229444 0 0.230227 0 0.23101 0 0.231793 0 
0.232576 0 0.233359 0 0.234143 0 0.234926 0 0.235709 
0 0.236492 0 0.237275 0 0.238058 0 0.238841 0 
0.239624 0 0.240407 0 0.24119 0 0.241973 0 0.242756 
0 0.24354 0 0.244323 0 0.245106 0 0.245889 0 
0.246672 0 0.247455 0 0.248238 0 0.249021 0 0.249804 
0 0.250587 0 0.25137 0 0.252153 0 0.252937 0 
0.25372 0 0.254503 0 0.255286 0 0.256069 0 0.256852 
0 0.257635 0 0.258418 0 0.259201 0 0.259984 0 
0.260767 0 0.261551 0 0.262334 0 0.263117 0 0.2639 
0 0.264683 0 0.265466 0 0.266249 0 0.267032 0 
0.267815 0 0.268598 0 0.269381 0 0.270164 0 0.270948 
0 0.271731 0 0.272514 0 0.273297 0 0.27408 0 
0.274863 0 0.275646 0 0.276429 0 0.277212 0 0.277995 
0 0.278778 0 0.279561 0 0.280345 0 0.281128 0 
0.281911 0 0.282694 0 0.283477 0 0.28426 0 0.285043 
0 0.285826 0 0.286609 0 0.287392 0 0.288175 0 
0.288958 0 0.289742 0 0.290525 0 0.291308 0 0.292091 
0 0.292874 0 0.293657 0 0.29444 0 0.295223 0 
0.296006 0 0.296789 0 0.297572 0 0.298356 0 0.299139 
0 0.299922 0 0.300705 0 0.301488 0 0.302271 0 
0.303054 0 0.303837 0 0.30462 0 0.305403 0 0.306186 
0 0.306969 0 0.307753 0 0.308536 0 0.309319 0 
0.310102 0 0.310885 0 0.311668 0 0.312451 0 0.313234 
0 0.314017 0 0.3148 0 0.315583 0 0.316366 0 
0.31715 0 0.317933 0 0.318716 0 0.319499 0 0.320282 
0 0.321065 0 0.321848 0 0.322631 0 0.323414 0 
0.324197 0 0.32498 0 0.325763 0 0.326547 0 0.32733 
0 0.328113 0 0.328896 0 0.329679 0 0.330462 0 
0.331245 0 0.332028 0 0.332811 0 0.333594 0 0.334377 
0 0.335161 0 0.335944 0 0.336727 0 0.33751 0 
0.338293 0 0.339076 0 0.339859 0 0.340642 0 0.341425 
0 0.342208 0 0.342991 0 0.343774 0 0.344558 0 
0.345341 0 0.346124 0 0.346907 0 0.34769 0 0.348473 
0 0.349256 0 0.350039 0 0.350822 0 0.351605 0 
0.352388 0 0.353171 0 0.353955 0 0.354738 0 0.355521 
0 0.356304 0 0.357087 0 0.35787 0 0.358653 0 
0.359436 0 0.360219 0 0.361002 0 0.361785 0 0.362569 
0 0.363352 0 0.364135 0 0.364918 0 0.365701 0 
0.366484 0 0.367267 0 0.36805 0 0.368833 0 0.369616 
0 0.370399 0 0.371182 0 0.371966 0 0.372749 0 
0.373532 0 0.374315 0 0.375098 0 0.375881 0 0.376664 
0 0.377447 0 0.37823 0 0.379013 0 0.379796 0 
0.380579 0 0.381363 0 0.382146 0 0.382929 0 0.383712 
0 0.384495 0 0.385278 0 0.386061 0 0.386844 0 
0.387627 0 0.38841 0 0.389193 0 0.389977 0 0.39076 
0 0.391543 0 0.392326 0 0.393109 0 0.393892 0 
0.394675 0 0.395458 0 0.396241 0 0.397024 0 0.397807 
0 0.39859 0 0.399374 0 0.400157 0 0.40094 0 
0.401723 0 0.402506 0 0.403289 0 0.404072 0 0.404855 
0 0.405638 0 0.406421 0 0.407204 0 0.407987 0 
0.408771 0 0.409554 0 0.410337 0 0.41112 0 0.411903 
0 0.412686 0 0.413469 0 0.414252 0 0.415035 0 
0.415818 0 0.416601 0 0.417385 0 0.418168 0 0.418951 
0 0.419734 0 0.420517 0 0.4213 0 0.422083 0 
0.422866 0 0.423649 0 0.424432 0 0.425215 0 0.425998 
0 0.426782 0 0.427565 0 0.428348 0 0.429131 0 
0.429914 0 0.430697 0 0.43148 0 0.432263 0 0.433046 
0 0.433829 0 0.434612 0 0.435395 0 0.436179 0 
0.436962 0 0.437745 0 0.438528 0 0.439311 0 0.440094 
0 0.440877 0 0.44166 0 0.442443 0 0.443226 0 
0.444009 0 0.444792 0 0.445576 0 0.446359 0 0.447142 
0 0.447925 0 0.448708 0 0.449491 0 0.450274 0 
0.451057 0 0.45184 0 0.452623 0 0.453406 0 0.45419 
0 0.454973 0 0.455756 0 0.456539 0 0.457322 0 
0.458105 0 0.458888 0 0.459671 0 0.460454 0 0.461237 
0 0.46202 0 0.462803 0 0.463587 0 0.46437 0 
0.465153 0 0.465936 0 0.466719 0 0.467502 0 0.468285 
0 0.469068 0 0.469851 0 0.470634 0 0.471417 0 
0.4722 0 0.472984 0 0.473767 0 0.47455 0 0.475333 
0 0.476116 0 0.476899 0 0.477682 0 0.478465 0 
0.479248 0 0.480031 0 0.480814 0 0.481597 0 0.482381 
0 0.483164 0 0.483947 0 0.48473 0 0.485513 0 
0.486296 0 0.487079 0 0.487862 0 0.488645 0 0.489428 
0 0.490211 0 0.490995 0 0.491778 0 0.492561 0 
0.493344 0 0.494127 0 0.49491 0 0.495693 0 0.496476 
0 0.497259 0 0.498042 0 0.498825 0 0.499608 0 
0.500392 0 0.501175 0 0.501958 0 0.502741 0 0.503524 
0 0.504307 0 0.50509 0 0.505873 0 0.506656 0 
0.507439 0 0.508222 0 0.509005 0 0.509789 0 0.510572 
0 0.511355 0 0.512138 0 0.512921 0 0.513704 0 
0.514487 0 0.51527 0 0.516053 0 0.516836 0 0.517619 
0 0.518403 0 0.519186 0 0.519969 0 0.520752 0 
0.521535 0 0.522318 0 0.523101 0 0.523884 0 0.524667 
0 0.52545 0 0.526233 0 0.527016 0 0.5278 0 
0.528583 0 0.529366 0 0.530149 0 0.530932 0 0.531715 
0 0.532498 0 0.533281 0 0.534064 0 0.534847 0 
0.53563 0 0.536413 0 0.537197 0 0.53798 0 0.538763 
0 0.539546 0 0.540329 0 0.541112 0 0.541895 0 
0.542678 0 0.543461 0 0.544244 0 0.545027 0 0.545811 
0 0.546594 0 0.547377 0 0.54816 0 0.548943 0 
0.549726 0 0.550509 0 0.551292 0 0.552075 0 0.552858 
0 0.553641 0 0.554424 0 0.555207 0 0.555991 0 
0.556774 0 0.557557 0 0.55834 0 0.559123 0 0.559906 
0 0.560689 0 0.561472 0 0.562255 0 0.563038 0 
0.563821 0 0.564605 0 0.565388 0 0.566171 0 0.566954 
0 0.567737 0 0.56852 0 0.569303 0 0.570086 0 
0.570869 0 0.571652 0 0.572435 0 0.573218 0 0.574002 
0 0.574785 0 0.575568 0 0.576351 0 0.577134 0 
0.577917 0 0.5787 0 0.579483 0 0.580266 0 0.581049 
0 0.581832 0 0.582615 0 0.583399 0 0.584182 0 
0.584965 0 0.585748 0 0.586531 0 0.587314 0 0.588097 
0 0.58888 0 0.589663 0 0.590446 0 0.591229 0 
0.592013 0 0.592796 0 0.593579 0 0.594362 0 0.595145 
0 0.595928 0 0.596711 0 0.597494 0 0.598277 0 
0.59906 0 0.599843 0 0.600626 0 0.60141 0 0.602193 
0 0.602976 0 0.603759 0 0.604542 0 0.605325 0 
0.606108 0 0.606891 0 0.607674 0 0.608457 0 0.60924 
0 0.610023 0 0.610807 0 0.61159 0 0.612373 0 
0.613156 0 0.613939 0 0.614722 0 0.615505 0 0.616288 
0 0.617071 0 0.617854 0 0.618637 0 0.619421 0 
0.620204 0 0.620987 0 0.62177 0 0.622553 0 0.623336 
0 0.624119 0 0.624902 0 0.625685 0 0.626468 0 
0.627251 0 0.628034 0 0.628818 0 0.629601 0 0.630384 
0 0.631167 0 0.63195 0 0.632733 0 0.633516 0 
0.634299 0 0.635082 0 0.635865 0 0.636648 0 0.637432 
0 0.638215 0 0.638998 0 0.639781 0 0.640564 0 
0.641347 0 0.64213 0 0.642913 0 0.643696 0 0.644479 
0 0.645262 0 0.646045 0 0.646829 0 0.647612 0 
0.648395 0 0.649178 0 0.649961 0 0.650744 0 0.651527 
0 0.65231 0 0.653093 0 0.653876 0 0.654659 0 
0.655442 0 0.656226 0 0.657009 0 0.657792 0 0.658575 
0 0.659358 0 0.660141 0 0.660924 0 0.661707 0 