# vtk DataFile Version 4.2
vtk output
ASCII
DATASET POLYDATA
POINTS 1278 float
0 0 0 -0.00359367 -0.000835466 0.0017487 -0.0140821 -0.00327053 0.00683603 
-0.0310264 -0.00719818 0.0150238 -0.0539876 -0.0125114 0.026074 -0.082527 -0.0191032 0.0397483 
-0.116206 -0.0268666 0.0558086 -0.154585 -0.0356946 0.0740169 -0.197225 -0.0454801 0.0941348 
-0.243688 -0.0561162 0.115924 -0.293535 -0.0674958 0.139147 -0.346327 -0.079512 0.163566 
-0.401624 -0.0920577 0.188941 -0.458989 -0.105026 0.215035 -0.517982 -0.11831 0.24161 
-0.578164 -0.131802 0.268428 -0.639097 -0.145396 0.295251 -0.700342 -0.158984 0.321839 
-0.761459 -0.17246 0.347956 -0.82201 -0.185717 0.373363 -0.881556 -0.198646 0.397822 
-0.939658 -0.211143 0.421095 -0.99599 -0.223127 0.443008 -1.0506 -0.234614 0.463597 
-1.10361 -0.24564 0.482944 -1.15514 -0.256237 0.501128 -1.20532 -0.266441 0.518232 
-1.25427 -0.276286 0.534334 -1.30211 -0.285807 0.549516 -1.34897 -0.295038 0.563858 
-1.39497 -0.304014 0.577442 -1.44023 -0.312769 0.590346 -1.48487 -0.321338 0.602653 
-1.52903 -0.329755 0.614443 -1.57282 -0.338055 0.625796 -1.61636 -0.346272 0.636792 
-1.65979 -0.354441 0.647513 -1.70321 -0.362597 0.65804 -1.74676 -0.370773 0.668451 
-1.79057 -0.379005 0.678829 -1.83474 -0.387327 0.689254 -1.8794 -0.395771 0.699802 
-1.92459 -0.404349 0.710497 -1.97026 -0.413054 0.72132 -2.0164 -0.421879 0.732255 
-2.06296 -0.430817 0.743282 -2.10992 -0.439862 0.754383 -2.15723 -0.449007 0.765541 
-2.20488 -0.458245 0.776736 -2.25283 -0.46757 0.787951 -2.30104 -0.476975 0.799167 
-2.34948 -0.486453 0.810366 -2.39812 -0.495997 0.821531 -2.44694 -0.505601 0.832641 
-2.49589 -0.515257 0.84368 -2.54494 -0.52496 0.854629 -2.59407 -0.534703 0.86547 
-2.64323 -0.544478 0.876185 -2.6924 -0.554279 0.886754 -2.74155 -0.564099 0.897161 
-2.79064 -0.573932 0.907387 -2.83964 -0.583771 0.917413 -2.88853 -0.593611 0.927228 
-2.93731 -0.603457 0.936839 -2.98598 -0.613314 0.946254 -3.03456 -0.623186 0.955484 
-3.08305 -0.633079 0.964539 -3.13145 -0.642998 0.973428 -3.17978 -0.652948 0.982162 
-3.22804 -0.662934 0.990749 -3.27624 -0.672961 0.9992 -3.32438 -0.683034 1.00752 
-3.37248 -0.693158 1.01573 -3.42053 -0.703339 1.02383 -3.46855 -0.713581 1.03184 
-3.51654 -0.723889 1.03976 -3.56451 -0.734269 1.04759 -3.61247 -0.744726 1.05537 
-3.66042 -0.755264 1.06308 -3.70837 -0.765889 1.07075 -3.75633 -0.776606 1.07837 
-3.8043 -0.78742 1.08597 -3.85229 -0.798336 1.09355 -3.9003 -0.809358 1.10111 
-3.94832 -0.82049 1.10866 -3.99635 -0.831735 1.1162 -4.04439 -0.843099 1.12372 
-4.09243 -0.854584 1.13123 -4.14047 -0.866194 1.13873 -4.18851 -0.877934 1.14623 
-4.23653 -0.889807 1.15372 -4.28454 -0.901817 1.1612 -4.33252 -0.913969 1.16868 
-4.38049 -0.926265 1.17616 -4.42843 -0.938709 1.18364 -4.47634 -0.951307 1.19112 
-4.52421 -0.96406 1.1986 -4.57204 -0.976975 1.20609 -4.61983 -0.990053 1.21358 
-4.66757 -1.0033 1.22108 -4.71526 -1.01672 1.22858 -4.7629 -1.03031 1.2361 
-4.81047 -1.04409 1.24362 -4.85798 -1.05805 1.25116 -4.90542 -1.07221 1.25872 
-4.95279 -1.08657 1.2663 -5.00008 -1.10114 1.27389 -5.04729 -1.11594 1.28152 
-5.09441 -1.13098 1.28918 -5.14144 -1.14625 1.29687 -5.18838 -1.16178 1.30459 
-5.23521 -1.17756 1.31236 -5.28194 -1.19362 1.32017 -5.32856 -1.20995 1.32803 
-5.37507 -1.22657 1.33594 -5.42147 -1.24349 1.3439 -5.46773 -1.26072 1.35192 
-5.51388 -1.27826 1.35999 -5.55989 -1.29613 1.36814 -5.60577 -1.31433 1.37634 
-5.6515 -1.33287 1.38462 -5.69709 -1.35176 1.39298 -5.74254 -1.37102 1.40141 
-5.78783 -1.39065 1.40991 -5.83295 -1.41066 1.41849 -5.87789 -1.43106 1.42713 
-5.92265 -1.45187 1.43582 -5.9672 -1.47309 1.44456 -6.01155 -1.49474 1.45333 
-6.05567 -1.51683 1.46214 -6.09955 -1.53937 1.47097 -6.1432 -1.56236 1.47982 
-6.18658 -1.58583 1.48868 -6.2297 -1.60978 1.49753 -6.27254 -1.63422 1.50638 
-6.31509 -1.65916 1.51521 -6.35734 -1.68462 1.52402 -6.39928 -1.71061 1.5328 
-6.44089 -1.73713 1.54155 -6.48217 -1.7642 1.55024 -6.5231 -1.79183 1.55889 
-6.56368 -1.82003 1.56747 -6.60389 -1.84881 1.57598 -6.64371 -1.87818 1.58441 
-6.68315 -1.90813 1.59273 -6.7222 -1.93866 1.60091 -6.76085 -1.96977 1.6089 
-6.79909 -2.00144 1.61668 -6.83691 -2.03367 1.6242 -6.87431 -2.06646 1.63145 
-6.91128 -2.09979 1.63837 -6.94782 -2.13366 1.64494 -6.98391 -2.16807 1.65112 
-7.01956 -2.20301 1.65687 -7.05474 -2.23846 1.66217 -7.08946 -2.27443 1.66698 
-7.12371 -2.31091 1.67125 -7.15748 -2.3479 1.67497 -7.19076 -2.38538 1.67808 
-7.22356 -2.42334 1.68057 -7.25585 -2.46179 1.68239 -7.28763 -2.50072 1.68351 
-7.3189 -2.54012 1.68389 -7.34965 -2.57998 1.68351 -7.37988 -2.62027 1.68233 
-7.40959 -2.66096 1.68035 -7.43878 -2.70202 1.67754 -7.46746 -2.74339 1.6739 
-7.49562 -2.78506 1.6694 -7.52327 -2.82697 1.66403 -7.55041 -2.8691 1.65778 
-7.57703 -2.9114 1.65063 -7.60316 -2.95385 1.64256 -7.62877 -2.9964 1.63355 
-7.65388 -3.03901 1.6236 -7.67849 -3.08166 1.61268 -7.7026 -3.1243 1.60079 
-7.72621 -3.16689 1.58789 -7.74932 -3.20941 1.57399 -7.77194 -3.2518 1.55906 
-7.79407 -3.29405 1.54308 -7.8157 -3.3361 1.52605 -7.83685 -3.37792 1.50794 
-7.8575 -3.41948 1.48874 -7.87768 -3.46076 1.46846 -7.89737 -3.50173 1.44712 
-7.91661 -3.54238 1.42475 -7.93539 -3.5827 1.40137 -7.95372 -3.62267 1.37702 
-7.9716 -3.66228 1.35171 -7.98906 -3.70151 1.32548 -8.0061 -3.74036 1.29835 
-8.02272 -3.7788 1.27034 -8.03894 -3.81682 1.24149 -8.05476 -3.85441 1.21182 
-8.07019 -3.89155 1.18136 -8.08524 -3.92822 1.15013 -8.09992 -3.96442 1.11815 
-8.11424 -4.00013 1.08547 -8.1282 -4.03533 1.05209 -8.14182 -4.07001 1.01805 
-8.1551 -4.10416 0.983379 -8.16806 -4.13775 0.948096 -8.18069 -4.17079 0.91223 
-8.19302 -4.20325 0.875804 -8.20503 -4.23514 0.838833 -8.21674 -4.26647 0.801332 
-8.22815 -4.29725 0.763317 -8.23926 -4.32748 0.724803 -8.25008 -4.35716 0.685804 
-8.26061 -4.3863 0.646337 -8.27086 -4.4149 0.606417 -8.28082 -4.44298 0.566058 
-8.29051 -4.47053 0.525275 -8.29992 -4.49757 0.484085 -8.30907 -4.52409 0.442502 
-8.31795 -4.5501 0.400541 -8.32657 -4.57562 0.358217 -8.33494 -4.60063 0.315546 
-8.34305 -4.62516 0.272543 -8.35091 -4.6492 0.229223 -8.35853 -4.67275 0.185602 
-8.3659 -4.69584 0.141693 -8.37304 -4.71845 0.0975136 -8.37994 -4.7406 0.0530762 
-8.38661 -4.76229 0.00838978 -8.39305 -4.78353 -0.0365383 -8.39925 -4.80433 -0.0817007 
-8.40521 -4.82468 -0.12709 -8.41094 -4.84459 -0.172699 -8.41644 -4.86408 -0.218519 
-8.4217 -4.88315 -0.264545 -8.42672 -4.9018 -0.310767 -8.43151 -4.92003 -0.357179 
-8.43606 -4.93786 -0.403774 -8.44038 -4.95529 -0.450544 -8.44446 -4.97233 -0.497481 
-8.4483 -4.98898 -0.544578 -8.4519 -5.00524 -0.591828 -8.45527 -5.02113 -0.639223 
-8.45839 -5.03665 -0.686756 -8.46128 -5.0518 -0.73442 -8.46393 -5.0666 -0.782207 
-8.46634 -5.08104 -0.830109 -8.46851 -5.09514 -0.87812 -8.47044 -5.10889 -0.926234 
-8.47213 -5.12231 -0.974446 -8.47357 -5.1354 -1.02275 -8.47476 -5.14817 -1.07115 
-8.47571 -5.16063 -1.11963 -8.4764 -5.17278 -1.16819 -8.47684 -5.18463 -1.21683 
-8.47702 -5.19619 -1.26554 -8.47694 -5.20746 -1.31432 -8.47661 -5.21845 -1.36316 
-8.47601 -5.22917 -1.41206 -8.47515 -5.23962 -1.46101 -8.47402 -5.24981 -1.51001 
-8.47262 -5.25975 -1.55906 -8.47095 -5.26944 -1.60815 -8.46901 -5.27889 -1.65727 
-8.46679 -5.28811 -1.70643 -8.46429 -5.29711 -1.75561 -8.46152 -5.30588 -1.80482 
-8.45846 -5.31444 -1.85404 -8.45512 -5.3228 -1.90328 -8.4515 -5.33096 -1.95253 
-8.44759 -5.33893 -2.00178 -8.44339 -5.34673 -2.05104 -8.4389 -5.35435 -2.1003 
-8.43412 -5.36181 -2.14956 -8.42906 -5.36911 -2.19881 -8.42369 -5.37627 -2.24806 
-8.41804 -5.3833 -2.29729 -8.41209 -5.39019 -2.3465 -8.40584 -5.39696 -2.39569 
-8.39929 -5.40362 -2.44486 -8.39244 -5.41018 -2.49401 -8.3853 -5.41664 -2.54312 
-8.37785 -5.42302 -2.5922 -8.37009 -5.42932 -2.64124 -8.36203 -5.43555 -2.69025 
-8.35367 -5.44171 -2.73921 -8.34499 -5.44783 -2.78812 -8.33601 -5.4539 -2.83698 
-8.32672 -5.45993 -2.88579 -8.31711 -5.46594 -2.93454 -8.30721 -5.47193 -2.98323 
-8.29699 -5.47791 -3.03186 -8.28647 -5.48389 -3.08042 -8.27565 -5.48988 -3.12892 
-8.26452 -5.49589 -3.17734 -8.25309 -5.50192 -3.2257 -8.24137 -5.508 -3.27397 
-8.22934 -5.51411 -3.32217 -8.21702 -5.52028 -3.37028 -8.2044 -5.52651 -3.41831 
-8.19149 -5.53282 -3.46625 -8.17828 -5.5392 -3.51409 -8.16479 -5.54568 -3.56185 
-8.151 -5.55225 -3.60951 -8.13692 -5.55893 -3.65707 -8.12256 -5.56573 -3.70452 
-8.10791 -5.57266 -3.75187 -8.09297 -5.57971 -3.79912 -8.07775 -5.58691 -3.84625 
-8.06225 -5.59427 -3.89327 -8.04648 -5.60178 -3.94017 -8.03043 -5.60946 -3.98696 
-8.01412 -5.61731 -4.03362 -7.99755 -5.62534 -4.08017 -7.98072 -5.63356 -4.12659 
-7.96364 -5.64197 -4.17288 -7.94632 -5.65059 -4.21904 -7.92875 -5.65942 -4.26507 
-7.91095 -5.66847 -4.31097 -7.89291 -5.67775 -4.35673 -7.87465 -5.68725 -4.40236 
-7.85616 -5.697 -4.44784 -7.83746 -5.707 -4.49318 -7.81854 -5.71725 -4.53838 
-7.79941 -5.72776 -4.58343 -7.78008 -5.73855 -4.62833 -7.76055 -5.74961 -4.67308 
-7.74082 -5.76096 -4.71768 -7.7209 -5.7726 -4.76212 -7.7008 -5.78454 -4.8064 
-7.68052 -5.79678 -4.85052 -7.66007 -5.80933 -4.89448 -7.63946 -5.82218 -4.93827 
-7.61869 -5.83535 -4.9819 -7.59776 -5.84883 -5.02535 -7.57669 -5.86263 -5.06864 
-7.55548 -5.87675 -5.11175 -7.53414 -5.8912 -5.15469 -7.51268 -5.90598 -5.19745 
-7.49109 -5.92109 -5.24003 -7.46939 -5.93654 -5.28243 -7.44758 -5.95233 -5.32464 
-7.42568 -5.96846 -5.36666 -7.40368 -5.98494 -5.4085 -7.3816 -6.00177 -5.45015 
-7.35943 -6.01895 -5.4916 -7.33719 -6.0365 -5.53286 -7.31488 -6.0544 -5.57392 
-7.29251 -6.07266 -5.61478 -7.27009 -6.0913 -5.65544 -7.24762 -6.1103 -5.6959 
-7.2251 -6.12968 -5.73615 -7.20255 -6.14944 -5.7762 -7.17996 -6.16957 -5.81604 
-7.15735 -6.19008 -5.85568 -7.13472 -6.21097 -5.8951 -7.11207 -6.23225 -5.93432 
-7.08942 -6.25392 -5.97333 -7.06676 -6.27598 -6.01213 -7.0441 -6.29843 -6.05071 
-7.02145 -6.32128 -6.08908 -6.99881 -6.34452 -6.12723 -6.9762 -6.36817 -6.16517 
-6.9536 -6.39222 -6.20289 -6.93104 -6.41667 -6.2404 -6.90852 -6.44153 -6.27768 
-6.88603 -6.4668 -6.31474 -6.8636 -6.49249 -6.35158 -6.84122 -6.51859 -6.3882 
[...]
CELL_DATA 1
FIELD FieldData 2
Length 1 1 double
63.869506044 
Tortuosity 1 1 double
0.9607693656 
POINT_DATA 1278
SCALARS MaximumInscribedSphereRadius float
LOOKUP_TABLE default
1.24 1.23114 1.22229 1.21343 1.20458 1.19572 1.18687 1.17801 1.16916 
1.1603 1.15145 1.14259 1.13374 1.12488 1.11603 1.10717 1.09831 1.08946 
1.0806 1.07175 1.06289 1.05401 1.04469 1.03536 1.02604 1.01672 1.0074 
0.998076 0.988754 0.979432 0.97011 0.960788 0.951466 0.942144 0.932822 0.9235 
0.914177 0.904855 0.895533 0.886211 0.876889 0.867878 0.859063 0.850248 0.841433 
0.832618 0.823803 0.814988 0.806173 0.797358 0.788543 0.779727 0.770912 0.762097 
0.753282 0.744467 0.735652 0.726837 0.718022 0.709207 0.700392 0.692808 0.694926 
0.697045 0.699164 0.701283 0.703402 0.705521 0.70764 0.709758 0.711877 0.713996 
0.716115 0.718234 0.720353 0.722472 0.72459 0.726709 0.728828 0.730947 0.733066 
0.735185 0.743683 0.75324 0.762796 0.772353 0.781909 0.791466 0.801022 0.810579 
0.820136 0.829692 0.839249 0.848805 0.858362 0.867918 0.877475 0.887031 0.896588 
0.906144 0.915701 0.925257 0.935521 0.946314 0.957107 0.9679 0.978694 0.989487 
1.00028 1.01107 1.02187 1.03266 1.04345 1.05425 1.06504 1.07583 1.08663 
1.09742 1.10821 1.11901 1.1298 1.14059 1.15183 1.16416 1.17649 1.18883 
1.20116 1.21349 1.22582 1.23816 1.25049 1.26282 1.27515 1.28749 1.29982 
1.31215 1.32448 1.33682 1.34915 1.36148 1.37381 1.38615 1.39829 1.39851 
1.39873 1.39894 1.39916 1.39938 1.39959 1.39981 1.40003 1.40024 1.40046 
1.40068 1.40089 1.40111 1.40133 1.40154 1.40176 1.40198 1.40219 1.40241 
1.40263 1.39224 1.37852 1.3648 1.35109 1.33737 1.32365 1.30993 1.29622 
1.2825 1.26878 1.25507 1.24135 1.22763 1.21392 1.2002 1.18648 1.17277 
1.15905 1.14533 1.13161 1.12636 1.1283 1.13024 1.13218 1.13412 1.13607 
1.13801 1.13995 1.14189 1.14383 1.14577 1.14771 1.14965 1.15159 1.15354 
1.15548 1.15742 1.15936 1.1613 1.16324 1.17169 1.1953 1.21891 1.24252 
1.26613 1.28974 1.31335 1.33697 1.36058 1.38419 1.4078 1.43141 1.45502 
1.47863 1.50224 1.52585 1.54946 1.57307 1.59668 1.62029 1.64262 1.63149 
1.62035 1.60922 1.59808 1.58695 1.57581 1.56468 1.55354 1.54241 1.53127 
1.52014 1.509 1.49787 1.48673 1.4756 1.46446 1.45333 1.44219 1.43106 
1.41992 1.41061 1.40187 1.39313 1.38439 1.37565 1.3669 1.35816 1.34942 
1.34068 1.33194 1.3232 1.31446 1.30572 1.29697 1.28823 1.27949 1.27075 
1.26201 1.25327 1.24453 1.24089 1.24272 1.24456 1.24639 1.24823 1.25006 
1.2519 1.25374 1.25557 1.25741 1.25924 1.26108 1.26291 1.26475 1.26658 
1.26842 1.27026 1.27209 1.27393 1.27576 1.27888 1.28706 1.29525 1.30344 
1.31163 1.31982 1.32801 1.3362 1.34439 1.35257 1.36076 1.36895 1.37714 
1.38533 1.39352 1.40171 1.40989 1.41808 1.42627 1.43446 1.44265 1.44345 
1.4436 1.44375 1.44391 1.44406 1.44421 1.44436 1.44451 1.44466 1.44482 
1.44497 1.44512 1.44527 1.44542 1.44558 1.44573 1.44588 1.44603 1.44618 
1.44634 1.44106 1.43272 1.42438 1.41604 1.4077 1.39936 1.39102 1.38268 
1.37434 1.366 1.35766 1.34932 1.34098 1.33264 1.3243 1.31596 1.30762 
1.29928 1.29094 1.28259 1.27985 1.28704 1.29424 1.30143 1.30862 1.31582 
1.32301 1.3302 1.33739 1.34459 1.35178 1.35897 1.36617 1.37336 1.38055 
1.38774 1.39494 1.40213 1.40932 1.41652 1.42397 1.4342 1.44443 1.45466 
1.46489 1.47512 1.48534 1.49557 1.5058 1.51603 1.52626 1.53649 1.54672 
1.55695 1.56718 1.57741 1.58763 1.59786 1.60809 1.61832 1.62855 1.63752 
1.64615 1.65479 1.66342 1.67205 1.68069 1.68932 1.69796 1.70659 1.71522 
1.72386 1.73249 1.74112 1.74976 1.75839 1.76702 1.77566 1.78429 1.79293 
1.80156 1.79826 1.78756 1.77687 1.76618 1.75549 1.7448 1.73411 1.72341 
1.71272 1.70203 1.69134 1.68065 1.66996 1.65926 1.64857 1.63788 1.62719 
1.6165 1.60581 1.59511 1.58799 1.58628 1.58457 1.58285 1.58114 1.57943 
1.57772 1.57601 1.57429 1.57258 1.57087 1.56916 1.56744 1.56573 1.56402 
1.56231 1.5606 1.55888 1.55717 1.55546 1.555 1.55588 1.55675 1.55762 
1.55849 1.55937 1.56024 1.56111 1.56198 1.56286 1.56373 1.5646 1.56547 
1.56635 1.56722 1.56809 1.56897 1.56984 1.57071 1.57158 1.57228 1.57196 
1.57163 1.5713 1.57097 1.57065 1.57032 1.56999 1.56966 1.56934 1.56901 
1.56868 1.56835 1.56803 1.5677 1.56737 1.56704 1.56672 1.56639 1.56606 
1.56574 1.56658 1.56758 1.56857 1.56956 1.57055 1.57154 1.57253 1.57353 
1.57452 1.57551 1.5765 1.57749 1.57848 1.57948 1.58047 1.58146 1.58245 
1.58344 1.58443 1.58543 1.59115 1.59999 1.60883 1.61767 1.62651 1.63535 
1.64419 1.65303 1.66187 1.67072 1.67956 1.6884 1.69724 1.70608 1.71492 
1.72376 1.7326 1.74144 1.75028 1.75912 1.76598 1.76859 1.77121 1.77383 
1.77645 1.77906 1.78168 1.7843 1.78692 1.78954 1.79215 1.79477 1.79739 
1.80001 1.80262 1.80524 1.80786 1.81048 1.81309 1.81571 1.81807 1.8146 
1.81112 1.80764 1.80416 1.80068 1.7972 1.79372 1.79025 1.78677 1.78329 
1.77981 1.77633 1.77285 1.76938 1.7659 1.76242 1.75894 1.75546 1.75198 
1.74851 1.74528 1.74212 1.73897 1.73581 1.73265 1.7295 1.72634 1.72319 
1.72003 1.71687 1.71372 1.71056 1.70741 1.70425 1.70109 1.69794 1.69478 
1.69163 1.68847 1.68532 1.6902 1.70232 1.71444 1.72655 1.73867 1.75079 
1.76291 1.77503 1.78715 1.79927 1.81139 1.82351 1.83563 1.84774 1.85986 
1.87198 1.8841 1.89622 1.90834 1.92046 1.9304 1.9341 1.93781 1.94151 
1.94522 1.94892 1.95263 1.95633 1.96004 1.96374 1.96744 1.97115 1.97485 
1.97856 1.98226 1.98597 1.98967 1.99338 1.99708 2.00079 2.00449 1.98016 
1.95521 1.93026 1.90532 1.88037 1.85543 1.83048 1.80553 1.78059 1.75564 
1.7307 1.70575 1.6808 1.65586 1.63091 1.60597 1.58102 1.55607 1.53113 
1.50618 1.50042 1.50309 1.50577 1.50844 1.51112 1.51379 1.51646 1.51914 
1.52181 1.52449 1.52716 1.52984 1.53251 1.53519 1.53786 1.54053 1.54321 
1.54588 1.54856 1.55123 1.56207 1.58465 1.60724 1.62982 1.65241 1.67499 
1.69758 1.72016 1.74275 1.76533 1.78792 1.8105 1.83309 1.85567 1.87826 
1.90084 1.92343 1.94601 1.96859 1.99118 2.01012 2.00319 1.99625 1.98931 
1.98237 1.97543 1.96849 1.96155 1.95461 1.94767 1.94073 1.9338 1.92686 
1.91992 1.91298 1.90604 1.8991 1.89216 1.88522 1.87828 1.87135 1.86132 
1.85069 1.84006 1.82944 1.81881 1.80818 1.79755 1.78693 1.7763 1.76567 
1.75505 1.74442 1.73379 1.72317 1.71254 1.70191 1.69128 1.68066 1.67003 
1.6594 1.65773 1.66332 1.66891 1.6745 1.6801 1.68569 1.69128 1.69687 
1.70247 1.70806 1.71365 1.71924 1.72484 1.73043 1.73602 1.74161 1.74721 
1.7528 1.75839 1.76398 1.7693 1.77383 1.77836 1.78289 1.78742 1.79195 
1.79649 1.80102 1.80555 1.81008 1.81461 1.81914 1.82368 1.82821 1.83274 
1.83727 1.8418 1.84634 1.85087 1.8554 1.85993 1.85849 1.85696 1.85543 
1.8539 1.85238 1.85085 1.84932 1.84779 1.84626 1.84473 1.8432 1.84167 
1.84014 1.83861 1.83708 1.83555 1.83402 1.83249 1.83096 1.82943 1.82359 
1.81596 1.80832 1.80068 1.79305 1.78541 1.77777 1.77014 1.7625 1.75486 
1.74723 1.73959 1.73195 1.72432 1.71668 1.70904 1.70141 1.69377 1.68613 
1.6785 1.67175 1.6662 1.66065 1.6551 1.64955 1.64401 1.63846 1.63291 
1.62736 1.62181 1.61626 1.61071 1.60516 1.59961 1.59406 1.58851 1.58296 
1.57741 1.57186 1.56632 1.56151 1.56097 1.56042 1.55988 1.55934 1.5588 
1.55826 1.55771 1.55717 1.55663 1.55609 1.55554 1.555 1.55446 1.55392 
1.55337 1.55283 1.55229 1.55175 1.5512 1.55066 1.55259 1.55489 1.55718 
1.55948 1.56178 1.56408 1.56638 1.56868 1.57098 1.57328 1.57558 1.57788 
1.58018 1.58248 1.58478 1.58708 1.58937 1.59167 1.59397 1.59627 1.6006 
1.60636 1.61212 1.61788 1.62364 1.62939 1.63515 1.64091 1.64667 1.65243 
1.65818 1.66394 1.6697 1.67546 1.68122 1.68697 1.69273 1.69849 1.70425 
1.71001 1.71802 1.7311 1.74418 1.75726 1.77035 1.78343 1.79651 1.80959 
1.82267 1.83576 1.84884 1.86192 1.875 1.88808 1.90117 1.91425 1.92733 
1.94041 1.95349 1.96658 1.97938 1.98293 1.98647 1.99001 1.99356 1.9971 
2.00064 2.00418 2.00773 2.01127 2.01481 2.01836 2.0219 2.02544 2.02899 
2.03253 2.03607 2.03962 2.04316 2.0467 2.05025 2.0383 2.02122 2.00413 
1.98705 1.96996 1.95287 1.93579 1.9187 1.90161 1.88453 1.86744 1.85036 
1.83327 1.81618 1.7991 1.78201 1.76492 1.74784 1.73075 1.71367 1.70437 
1.70379 1.7032 1.70261 1.70203 1.70144 1.70085 1.70027 1.69968 1.69909 
1.69851 1.69792 1.69733 1.69674 1.69616 1.69557 1.69498 1.6944 1.69381 
1.69322 1.69459 1.70417 1.71376 1.72334 1.73292 1.7425 1.75209 1.76167 
1.77125 1.78083 1.79041 1.8 1.80958 1.81916 1.82874 1.83833 1.84791 
1.85749 1.86707 1.87666 1.88624 1.89576 1.90528 1.91479 1.92431 1.93382 
1.94334 1.95285 1.96237 1.97188 1.9814 1.99091 2.00043 2.00995 2.01946 
2.02898 2.03849 2.04801 2.05752 2.06704 2.07655 2.07972 2.07908 2.07845 
2.07782 2.07719 2.07656 2.07593 2.0753 2.07467 2.07404 2.07341 2.07278 
2.07215 2.07152 2.07089 2.07026 2.06963 2.069 2.06836 2.06773 2.06462 
2.05677 2.04892 2.04107 2.03322 2.02537 2.01752 2.00967 2.00182 1.99396 
1.98611 1.97826 1.97041 1.96256 1.95471 1.94686 1.93901 1.93116 1.92331 
1.91546 1.908 1.90636 1.90471 1.90307 1.90143 1.89979 1.89815 1.89651 
1.89487 1.89323 1.89158 1.88994 1.8883 1.88666 1.88502 1.88338 1.88174 
1.88009 1.87845 1.87681 1.87517 1.88656 1.90149 1.91643 1.93136 1.9463 
1.96123 1.97617 1.9911 2.00604 2.02097 2.03591 2.05084 2.06577 2.08071 
2.09564 2.11058 2.12551 2.14045 2.15538 2.17032 2.19312 2.22332 2.25353 
2.28374 2.31394 2.34415 2.37436 2.40456 2.43477 2.46498 2.49518 2.52539 
2.5556 2.5858 2.61601 2.64621 2.67642 2.70663 2.73683 2.76704 2.78925 
2.78752 2.7858 2.78408 2.78235 2.78063 2.77891 2.77718 2.77546 2.77374 
2.77201 2.77029 2.76857 2.76684 2.76512 2.7634 2.76167 2.75995 2.75823 
2.7565 2.75478 2.74594 2.73698 2.72802 2.71906 2.7101 2.70113 2.69217 
2.68321 2.67425 2.66529 2.65633 2.64737 2.6384 2.62944 2.62048 2.61152 
2.60256 2.5936 2.58464 2.57567 2.56735 2.55928 2.55122 2.54315 2.53508 
2.52701 2.51895 2.51088 2.50281 2.49475 2.48668 2.47861 2.47055 2.46248 
2.45441 2.44635 2.43828 2.43021 2.42214 2.41408 2.40951 2.40959 2.40967 
2.40975 2.40982 2.4099 2.40998 2.41006 2.41013 2.41021 2.41029 2.41036 
2.41044 2.41052 2.4106 2.41067 2.41075 2.41083 2.41091 2.41098 2.41101 
2.41075 2.41048 2.41022 2.40995 2.40969 2.40942 2.40916 2.4089 2.40863 
2.40837 2.4081 2.40784 2.40757 2.40731 2.40704 2.40678 2.40652 2.40625 
2.40599 2.40572 2.3919 2.37621 2.36051 2.34481 2.32911 2.31342 2.29772 
2.28202 2.26632 2.25063 2.23493 2.21923 2.20353 2.18784 2.17214 2.15644 
2.14074 2.12505 2.10935 2.09365 2.07804 2.06253 2.04702 2.0315 2.01599 
2.00048 1.98497 1.96946 1.95395 1.93844 1.92293 1.90742 1.89191 1.8764 
1.86089 1.84537 1.82986 1.81435 1.79884 1.78333 1.77281 1.76322 1.75363 
1.74404 1.73445 1.72486 1.71527 1.70568 1.69609 1.68649 1.6769 1.66731 
1.65772 1.64813 1.63854 1.62895 1.61936 1.60977 1.60018 1.59059 1.581 

TEXTURE_COORDINATES TCoords 2 float
0 0 0.000783085 0 0.00156617 0 0.00234926 0 0.00313234 
0 0.00391543 0 0.00469851 0 0.0054816 0 0.00626468 0 
0.00704777 0 0.00783085 0 0.00861394 0 0.00939702 0 0.0101801 
0 0.0109632 0 0.0117463 0 0.0125294 0 0.0133125 0 
0.0140955 0 0.0148786 0 0.0156617 0 0.0164448 0 0.0172279 
0 0.018011 0 0.018794 0 0.0195771 0 0.0203602 0 
0.0211433 0 0.0219264 0 0.0227095 0 0.0234926 0 0.0242756 
0 0.0250587 0 0.0258418 0 0.0266249 0 0.027408 0 
0.0281911 0 0.0289742 0 0.0297572 0 0.0305403 0 0.0313234 
0 0.0321065 0 0.0328896 0 0.0336727 0 0.0344558 0 
0.0352388 0 0.0360219 0 0.036805 0 0.0375881 0 0.0383712 
0 0.0391543 0 0.0399374 0 0.0407204 0 0.0415035 0 
0.0422866 0 0.0430697 0 0.0438528 0 0.0446359 0 0.045419 
0 0.046202 0 0.0469851 0 0.0477682 0 0.0485513 0 
0.0493344 0 0.0501175 0 0.0509005 0 0.0516836 0 0.0524667 
0 0.0532498 0 0.0540329 0 0.054816 0 0.0555991 0 
0.0563821 0 0.0571652 0 0.0579483 0 0.0587314 0 0.0595145 
0 0.0602976 0 0.0610807 0 0.0618637 0 0.0626468 0 
0.0634299 0 0.064213 0 0.0649961 0 0.0657792 0 0.0665623 
0 0.0673453 0 0.0681284 0 0.0689115 0 0.0696946 0 
0.0704777 0 0.0712608 0 0.0720439 0 0.0728269 0 0.07361 
0 0.0743931 0 0.0751762 0 0.0759593 0 0.0767424 0 
0.0775255 0 0.0783085 0 0.0790916 0 0.0798747 0 0.0806578 
0 0.0814409 0 0.082224 0 0.083007 0 0.0837901 0 
0.0845732 0 0.0853563 0 0.0861394 0 0.0869225 0 0.0877056 
0 0.0884886 0 0.0892717 0 0.0900548 0 0.0908379 0 
0.091621 0 0.0924041 0 0.0931872 0 0.0939702 0 0.0947533 
0 0.0955364 0 0.0963195 0 0.0971026 0 0.0978857 0 
0.0986688 0 0.0994518 0 0.100235 0 0.101018 0 0.101801 
0 0.102584 0 0.103367 0 0.10415 0 0.104933 0 
0.105717 0 0.1065 0 0.107283 0 0.108066 0 0.108849 
0 0.109632 0 0.110415 0 0.111198 0 0.111981 0 
0.112764 0 0.113547 0 0.11433 0 0.115114 0 0.115897 
0 0.11668 0 0.117463 0 0.118246 0 0.119029 0 
0.119812 0 0.120595 0 0.121378 0 0.122161 0 0.122944 
0 0.123727 0 0.124511 0 0.125294 0 0.126077 0 
0.12686 0 0.127643 0 0.128426 0 0.129209 0 0.129992 
0 0.130775 0 0.131558 0 0.132341 0 0.133125 0 
0.133908 0 0.134691 0 0.135474 0 0.136257 0 0.13704 
0 0.137823 0 0.138606 0 0.139389 0 0.140172 0 
0.140955 0 0.141738 0 0.142522 0 0.143305 0 0.144088 
0 0.144871 0 0.145654 0 0.146437 0 0.14722 0 
0.148003 0 0.148786 0 0.149569 0 0.150352 0 0.151135 
0 0.151919 0 0.152702 0 0.153485 0 0.154268 0 
0.155051 0 0.155834 0 0.156617 0 0.1574 0 0.158183 
0 0.158966 0 0.159749 0 0.160533 0 0.161316 0 
0.162099 0 0.162882 0 0.163665 0 0.164448 0 0.165231 
0 0.166014 0 0.166797 0 0.16758 0 0.168363 0 
0.169146 0 0.16993 0 0.170713 0 0.171496 0 0.172279 
0 0.173062 0 0.173845 0 0.174628 0 0.175411 0 
0.176194 0 0.176977 0 0.17776 0 0.178543 0 0.179327 
0 0.18011 0 0.180893 0 0.181676 0 0.182459 0 
0.183242 0 0.184025 0 0.184808 0 0.185591 0 0.186374 
0 0.187157 0 0.18794 0 0.188724 0 0.189507 0 
0.19029 0 0.191073 0 0.191856 0 0.192639 0 0.193422 
0 0.194205 0 0.194988 0 0.195771 0 0.196554 0 
0.197338 0 0.198121 0 0.198904 0 0.199687 0 0.20047 
0 0.201253 0 0.202036 0 0.202819 0 0.203602 0 
0.204385 0 0.205168 0 0.205951 0 0.206735 0 0.207518 
0 0.208301 0 0.209084 0 0.209867 0 0.21065 0 
0.211433 0 0.212216 0 0.212999 0 0.213782 0 0.214565 
0 0.215348 0 0.216132 0 0.216915 0 0.217698 0 
0.218481 0 0.219264 0 0.220047 0 0.22083 0 0.221613 
0 0.222396 0 0.223179 0 0.223962 0 0.224745 0 
0.225529 0 0.226312 0 0.227095 0 0.227878 0 0.228661 
0 0.229444 0 0.230227 0 0.23101 0 0.231793 0 
0.232576 0 0.233359 0 0.234143 0 0.234926 0 0.235709 
0 0.236492 0 0.237275 0 0.238058 0 0.238841 0 
0.239624 0 0.240407 0 0.24119 0 0.241973 0 0.242756 
0 0.24354 0 0.244323 0 0.245106 0 0.245889 0 
0.246672 0 0.247455 0 0.248238 0 0.249021 0 0.249804 
0 0.250587 0 0.25137 0 0.252153 0 0.252937 0 
0.25372 0 0.254503 0 0.255286 0 0.256069 0 0.256852 
0 0.257635 0 0.258418 0 0.259201 0 0.259984 0 
0.260767 0 0.261551 0 0.262334 0 0.263117 0 0.2639 
0 0.264683 0 0.265466 0 0.266249 0 0.267032 0 
0.267815 0 0.268598 0 0.269381 0 0.270164 0 0.270948 
0 0.271731 0 0.272514 0 0.273297 0 0.27408 0 
0.274863 0 0.275646 0 0.276429 0 0.277212 0 0.277995 
0 0.278778 0 0.279561 0 0.280345 0 0.281128 0 
0.281911 0 0.282694 0 0.283477 0 0.28426 0 0.285043 
0 0.285826 0 0.286609 0 0.287392 0 0.288175 0 
0.288958 0 0.289742 0 0.290525 0 0.291308 0 0.292091 
0 0.292874 0 0.293657 0 0.29444 0 0.295223 0 
0.296006 0 0.296789 0 0.297572 0 0.298356 0 0.299139 
0 0.299922 0 0.300705 0 0.301488 0 0.302271 0 
0.303054 0 0.303837 0 0.30462 0 0.305403 0 0.306186 
0 0.306969 0 0.307753 0 0.308536 0 0.309319 0 
0.310102 0 0.310885 0 0.311668 0 0.312451 0 0.313234 
0 0.314017 0 0.3148 0 0.315583 0 0.316366 0 
0.31715 0 0.317933 0 0.318716 0 0.319499 0 0.320282 
0 0.321065 0 0.321848 0 0.322631 0 0.323414 0 
0.324197 0 0.32498 0 0.325763 0 0.326547 0 0.32733 
0 0.328113 0 0.328896 0 0.329679 0 0.330462 0 
0.331245 0 0.332028 0 0.332811 0 0.333594 0 0.334377 
0 0.335161 0 0.335944 0 0.336727 0 0.33751 0 
0.338293 0 0.339076 0 0.339859 0 0.340642 0 0.341425 
0 0.342208 0 0.342991 0 0.343774 0 0.344558 0 
0.345341 0 0.346124 0 0.346907 0 0.34769 0 0.348473 
0 0.349256 0 0.350039 0 0.350822 0 0.351605 0 
0.352388 0 0.353171 0 0.353955 0 0.354738 0 0.355521 
0 0.356304 0 0.357087 0 0.35787 0 0.358653 0 
0.359436 0 0.360219 0 0.361002 0 0.361785 0 0.362569 
0 0.363352 0 0.364135 0 0.364918 0 0.365701 0 
0.366484 0 0.367267 0 0.36805 0 0.368833 0 0.369616 
0 0.370399 0 0.371182 0 0.371966 0 0.372749 0 
0.373532 0 0.374315 0 0.375098 0 0.375881 0 0.376664 
0 0.377447 0 0.37823 0 0.379013 0 0.379796 0 
0.380579 0 0.381363 0 0.382146 0 0.382929 0 0.383712 
0 0.384495 0 0.385278 0 0.386061 0 0.386844 0 
0.387627 0 0.38841 0 0.389193 0 0.389977 0 0.39076 
0 0.391543 0 0.392326 0 0.393109 0 0.393892 0 
0.394675 0 0.395458 0 0.396241 0 0.397024 0 0.397807 
0 0.39859 0 0.399374 0 0.400157 0 0.40094 0 
0.401723 0 0.402506 0 0.403289 0 0.404072 0 0.404855 
0 0.405638 0 0.406421 0 0.407204 0 0.407987 0 
0.408771 0 0.409554 0 0.410337 0 0.41112 0 0.411903 
0 0.412686 0 0.413469 0 0.414252 0 0.415035 0 
0.415818 0 0.416601 0 0.417385 0 0.418168 0 0.418951 
0 0.419734 0 0.420517 0 0.4213 0 0.422083 0 
0.422866 0 0.423649 0 0.424432 0 0.425215 0 0.425998 
0 0.426782 0 0.427565 0 0.428348 0 0.429131 0 
0.429914 0 0.430697 0 0.43148 0 0.432263 0 0.433046 
0 0.433829 0 0.434612 0 0.435395 0 0.436179 0 
0.436962 0 0.437745 0 0.438528 0 0.439311 0 0.440094 
0 0.440877 0 0.44166 0 0.442443 0 0.443226 0 
0.444009 0 0.444792 0 0.445576 0 0.446359 0 0.447142 
0 0.447925 0 0.448708 0 0.449491 0 0.450274 0 
0.451057 0 0.45184 0 0.452623 0 0.453406 0 0.45419 
0 0.454973 0 0.455756 0 0.456539 0 0.457322 0 
0.458105 0 0.458888 0 0.459671 0 0.460454 0 0.461237 
0 0.46202 0 0.462803 0 0.463587 0 0.46437 0 
0.465153 0 0.465936 0 0.466719 0 0.467502 0 0.468285 
0 0.469068 0 0.469851 0 0.470634 0 0.471417 0 
0.4722 0 0.472984 0 0.473767 0 0.47455 0 0.475333 
0 0.476116 0 0.476899 0 0.477682 0 0.478465 0 
0.479248 0 0.480031 0 0.480814 0 0.481597 0 0.482381 
0 0.483164 0 0.483947 0 0.48473 0 0.485513 0 
0.486296 0 0.487079 0 0.487862 0 0.488645 0 0.489428 
0 0.490211 0 0.490995 0 0.491778 0 0.492561 0 
0.493344 0 0.494127 0 0.49491 0 0.495693 0 0.496476 
0 0.497259 0 0.498042 0 0.498825 0 0.499608 0 
0.500392 0 0.501175 0 0.501958 0 0.502741 0 0.503524 
0 0.504307 0 0.50509 0 0.505873 0 0.506656 0 
0.507439 0 0.508222 0 0.509005 0 0.509789 0 0.510572 
0 0.511355 0 0.512138 0 0.512921 0 0.513704 0 
0.514487 0 0.51527 0 0.516053 0 0.516836 0 0.517619 
0 0.518403 0 0.519186 0 0.519969 0 0.520752 0 
0.521535 0 0.522318 0 0.523101 0 0.523884 0 0.524667 
0 0.52545 0 0.526233 0 0.527016 0 0.5278 0 
0.528583 0 0.529366 0 0.530149 0 0.530932 0 0.531715 
0 0.532498 0 0.533281 0 0.534064 0 0.534847 0 
0.53563 0 0.536413 0 0.537197 0 0.53798 0 0.538763 
0 0.539546 0 0.540329 0 0.541112 0 0.541895 0 
0.542678 0 0.543461 0 0.544244 0 0.545027 0 0.545811 
0 0.546594 0 0.547377 0 0.54816 0 0.548943 0 
0.549726 0 0.550509 0 0.551292 0 0.552075 0 0.552858 
0 0.553641 0 0.554424 0 0.555207 0 0.555991 0 
0.556774 0 0.557557 0 0.55834 0 0.559123 0 0.559906 
0 0.560689 0 0.561472 0 0.562255 0 0.563038 0 
0.563821 0 0.564605 0 0.565388 0 0.566171 0 0.566954 
0 0.567737 0 0.56852 0 0.569303 0 0.570086 0 
0.570869 0 0.571652 0 0.572435 0 0.573218 0 0.574002 
0 0.574785 0 0.575568 0 0.576351 0 0.577134 0 
0.577917 0 0.5787 0 0.579483 0 0.580266 0 0.581049 
0 0.581832 0 0.582615 0 0.583399 0 0.584182 0 
0.584965 0 0.585748 0 0.586531 0 0.587314 0 0.588097 
0 0.58888 0 0.589663 0 0.590446 0 0.591229 0 
0.592013 0 0.592796 0 0.593579 0 0.594362 0 0.595145 
0 0.595928 0 0.596711 0 0.597494 0 0.598277 0 
0.59906 0 0.599843 0 0.600626 0 0.60141 0 0.602193 
0 0.602976 0 0.603759 0 0.604542 0 0.605325 0 
0.606108 0 0.606891 0 0.607674 0 0.608457 0 0.60924 
0 0.610023 0 0.610807 0 0.61159 0 0.612373 0 
0.613156 0 0.613939 0 0.614722 0 0.615505 0 0.616288 
0 0.617071 0 0.617854 0 0.618637 0 0.619421 0 
0.620204 0 0.620987 0 0.62177 0 0.622553 0 0.623336 
0 0.624119 0 0.624902 0 0.625685 0 0.626468 0 
0.627251 0 0.628034 0 0.628818 0 0.629601 0 0.630384 
0 0.631167 0 0.63195 0 0.632733 0 0.633516 0 
0.634299 0 0.635082 0 0.635865 0 0.636648 0 0.637432 
0 0.638215 0 0.638998 0 0.639781 0 0.640564 0 
0.641347 0 0.64213 0 0.642913 0 0.643696 0 0.644479 
0 0.645262 0 0.646045 0 0.646829 0 0.647612 0 
0.648395 0 0.649178 0 0.649961 0 0.650744 0 0.651527 
0 0.65231 0 0.653093 0 0.653876 0 0.654659 0 