# vtk DataFile Version 4.2
vtk output
ASCII
DATASET POLYDATA
POINTS 1278 float
0 0 0 -0.00367438 0.000335868 0.00183167 -0.0143994 0.00131368 0.00714941 
-0.0317279 0.00288876 0.0156873 -0.0552126 0.00501642 0.0271795 -0.0844064 0.00765198 0.0413601 
-0.118862 0.0107507 0.0579631 -0.158133 0.014268 0.0767227 -0.201771 0.0181592 0.0973729 
-0.249329 0.0223795 0.119648 -0.300361 0.0268843 0.143282 -0.354418 0.0316289 0.168009 
-0.411055 0.0365686 0.193563 -0.469823 0.0416587 0.219678 -0.530275 0.0468546 0.246088 
-0.591965 0.0521115 0.272528 -0.654445 0.0573848 0.298731 -0.717268 0.0626298 0.324431 
-0.779986 0.0678019 0.349364 -0.842153 0.0728562 0.373262 -0.903322 0.0777482 0.39586 
-0.963045 0.0824332 0.416892 -1.02103 0.0868803 0.43619 -1.07734 0.0910911 0.453814 
-1.1321 0.0950716 0.469859 -1.18544 0.0988283 0.484419 -1.23746 0.102367 0.497589 
-1.28829 0.105695 0.509461 -1.33805 0.108817 0.520131 -1.38687 0.111741 0.529693 
-1.43485 0.114472 0.538241 -1.48213 0.117016 0.545869 -1.52882 0.11938 0.552671 
-1.57504 0.121571 0.558741 -1.62092 0.123593 0.564175 -1.66657 0.125454 0.569064 
-1.71211 0.12716 0.573505 -1.75766 0.128717 0.577592 -1.80336 0.130131 0.581417 
-1.8493 0.131408 0.585076 -1.89562 0.132555 0.588663 -1.94243 0.133578 0.592267 
-1.98976 0.134473 0.595918 -2.03758 0.13523 0.5996 -2.08585 0.135839 0.603297 
-2.13453 0.136292 0.606993 -2.1836 0.136578 0.610672 -2.23303 0.136688 0.614317 
-2.28276 0.136611 0.617913 -2.33279 0.136338 0.621444 -2.38306 0.135859 0.624892 
-2.43354 0.135164 0.628243 -2.48421 0.134244 0.631479 -2.53502 0.133089 0.634586 
-2.58595 0.131689 0.637546 -2.63696 0.130034 0.640343 -2.68801 0.128115 0.642961 
-2.73907 0.125921 0.645385 -2.79011 0.123444 0.647598 -2.8411 0.120673 0.649583 
-2.892 0.117598 0.651325 -2.94277 0.11421 0.652808 -2.99339 0.1105 0.654023 
-3.04387 0.106464 0.654984 -3.0942 0.102099 0.65571 -3.1444 0.0973996 0.65622 
-3.19446 0.0923631 0.656532 -3.2444 0.0869857 0.656663 -3.29421 0.0812636 0.656634 
-3.34391 0.0751931 0.656462 -3.3935 0.0687705 0.656166 -3.44299 0.0619921 0.655763 
-3.49237 0.0548541 0.655274 -3.54166 0.0473529 0.654715 -3.59086 0.0394848 0.654106 
-3.63998 0.031246 0.653465 -3.68902 0.0226328 0.652811 -3.73799 0.0136415 0.652161 
-3.78689 0.00426849 0.651535 -3.83572 -0.00549008 0.650951 -3.8845 -0.0156379 0.650427 
-3.93323 -0.0261786 0.649981 -3.98191 -0.0371157 0.649631 -4.03054 -0.0484515 0.649384 
-4.07911 -0.0601878 0.649245 -4.12762 -0.0723263 0.649216 -4.17605 -0.0848689 0.649301 
-4.2244 -0.0978174 0.649506 -4.27265 -0.111173 0.649834 -4.32082 -0.124939 0.650289 
-4.36887 -0.139116 0.650874 -4.41682 -0.153706 0.651595 -4.46465 -0.16871 0.652454 
-4.51235 -0.184132 0.653457 -4.55992 -0.199971 0.654606 -4.60735 -0.216231 0.655907 
-4.65462 -0.232913 0.657362 -4.70175 -0.250019 0.658977 -4.74871 -0.26755 0.660754 
-4.79549 -0.285509 0.662698 -4.8421 -0.303897 0.664814 -4.88853 -0.322716 0.667104 
-4.93476 -0.341968 0.669573 -4.98079 -0.36165 0.672225 -5.02662 -0.381759 0.67506 
-5.07225 -0.402289 0.678083 -5.11767 -0.423236 0.681294 -5.16288 -0.444595 0.684697 
-5.20788 -0.466362 0.688294 -5.25266 -0.488533 0.692087 -5.29721 -0.511101 0.696078 
-5.34155 -0.534064 0.70027 -5.38566 -0.557417 0.704665 -5.42953 -0.581153 0.709266 
-5.47318 -0.605271 0.714074 -5.51659 -0.629763 0.719093 -5.55976 -0.654627 0.724324 
-5.60268 -0.679857 0.72977 -5.64537 -0.705448 0.735434 -5.6878 -0.731397 0.741316 
-5.72998 -0.757698 0.747421 -5.7719 -0.784347 0.75375 -5.81357 -0.81134 0.760306 
-5.85497 -0.838671 0.767089 -5.89612 -0.866334 0.774095 -5.937 -0.894325 0.781321 
-5.97763 -0.922638 0.788764 -6.01799 -0.951267 0.79642 -6.05809 -0.980206 0.804286 
-6.09794 -1.00945 0.812358 -6.13752 -1.03899 0.820633 -6.17684 -1.06883 0.829107 
-6.21591 -1.09896 0.837777 -6.25471 -1.12937 0.84664 -6.29325 -1.16005 0.855692 
-6.33154 -1.19101 0.864929 -6.36956 -1.22223 0.874348 -6.40732 -1.25372 0.883945 
-6.44483 -1.28545 0.893718 -6.48207 -1.31744 0.903662 -6.51906 -1.34967 0.913774 
-6.55578 -1.38214 0.924051 -6.59225 -1.41484 0.934489 -6.62845 -1.44777 0.945085 
-6.6644 -1.48093 0.955832 -6.70009 -1.51431 0.966727 -6.73553 -1.5479 0.977764 
-6.77071 -1.58172 0.988937 -6.80564 -1.61574 1.00024 -6.84032 -1.64998 1.01167 
-6.87475 -1.68443 1.02322 -6.90894 -1.71909 1.03489 -6.94287 -1.75395 1.04666 
-6.97656 -1.78902 1.05854 -7.01001 -1.82428 1.07052 -7.04321 -1.85974 1.08259 
-7.07617 -1.89539 1.09475 -7.10889 -1.93124 1.107 -7.14138 -1.96728 1.11932 
-7.17362 -2.0035 1.13171 -7.20563 -2.03991 1.14418 -7.23741 -2.0765 1.1567 
-7.26895 -2.11327 1.16928 -7.30026 -2.15021 1.18191 -7.33134 -2.18734 1.19459 
-7.36219 -2.22464 1.2073 -7.39281 -2.26212 1.22004 -7.4232 -2.29978 1.2328 
-7.45336 -2.33761 1.24558 -7.48328 -2.37563 1.25836 -7.51298 -2.41383 1.27114 
-7.54245 -2.45221 1.2839 -7.57168 -2.49077 1.29665 -7.60069 -2.52952 1.30938 
-7.62947 -2.56845 1.32207 -7.65801 -2.60756 1.33472 -7.68633 -2.64686 1.34732 
-7.71442 -2.68634 1.35986 -7.74227 -2.72601 1.37234 -7.7699 -2.76586 1.38475 
-7.7973 -2.80591 1.39707 -7.82447 -2.84614 1.40931 -7.85141 -2.88656 1.42145 
-7.87812 -2.92716 1.43349 -7.9046 -2.96796 1.44541 -7.93084 -3.00896 1.4572 
-7.95683 -3.05017 1.46882 -7.98256 -3.09158 1.48027 -8.00803 -3.13321 1.49152 
-8.03323 -3.17506 1.50254 -8.05814 -3.21713 1.51333 -8.08277 -3.25944 1.52385 
-8.1071 -3.30199 1.5341 -8.13113 -3.34478 1.54404 -8.15484 -3.38782 1.55366 
-8.17823 -3.43111 1.56293 -8.20129 -3.47467 1.57184 -8.22402 -3.51849 1.58037 
-8.2464 -3.56258 1.58849 -8.26843 -3.60696 1.59618 -8.2901 -3.65161 1.60343 
-8.3114 -3.69656 1.61021 -8.33232 -3.7418 1.61651 -8.35286 -3.78735 1.62229 
-8.373 -3.83319 1.62755 -8.39274 -3.87932 1.63226 -8.41205 -3.92571 1.6364 
-8.43092 -3.97236 1.63995 -8.44934 -4.01924 1.64289 -8.4673 -4.06634 1.6452 
-8.48477 -4.11364 1.64686 -8.50174 -4.16112 1.64784 -8.51821 -4.20876 1.64813 
-8.53414 -4.25655 1.64771 -8.54954 -4.30448 1.64656 -8.56438 -4.35252 1.64465 
-8.57865 -4.40065 1.64197 -8.59234 -4.44887 1.63849 -8.60542 -4.49715 1.63419 
-8.6179 -4.54547 1.62906 -8.62974 -4.59382 1.62308 -8.64094 -4.64218 1.61621 
-8.65148 -4.69054 1.60845 -8.66135 -4.73888 1.59977 -8.67054 -4.78717 1.59015 
-8.67905 -4.83541 1.57962 -8.6869 -4.88358 1.56819 -8.69409 -4.93166 1.55588 
-8.70066 -4.97964 1.54272 -8.70659 -5.0275 1.52872 -8.71192 -5.07522 1.51391 
-8.71665 -5.1228 1.49832 -8.72079 -5.17021 1.48195 -8.72437 -5.21744 1.46484 
-8.72739 -5.26447 1.447 -8.72986 -5.31129 1.42846 -8.7318 -5.35789 1.40924 
-8.73322 -5.40424 1.38935 -8.73413 -5.45033 1.36883 -8.73455 -5.49614 1.34769 
-8.73449 -5.54166 1.32596 -8.73397 -5.58688 1.30365 -8.73299 -5.63177 1.28079 
-8.73157 -5.67633 1.25739 -8.72973 -5.72054 1.23349 -8.72747 -5.76439 1.2091 
-8.72482 -5.80791 1.18424 -8.72178 -5.8511 1.15892 -8.71837 -5.89396 1.13317 
-8.71462 -5.93652 1.10701 -8.71052 -5.97879 1.08044 -8.70611 -6.02077 1.05349 
-8.70138 -6.06247 1.02618 -8.69637 -6.10391 0.998528 -8.69108 -6.14509 0.970548 
-8.68552 -6.18603 0.942261 -8.67972 -6.22674 0.913684 -8.67369 -6.26722 0.884836 
-8.66745 -6.30749 0.855734 -8.661 -6.34757 0.826398 -8.65436 -6.38745 0.796846 
-8.64756 -6.42715 0.767095 -8.6406 -6.46669 0.737163 -8.6335 -6.50606 0.70707 
-8.62627 -6.54529 0.676833 -8.61893 -6.58438 0.646464 -8.61148 -6.62334 0.615971 
-8.60393 -6.66218 0.585358 -8.59627 -6.7009 0.554633 -8.58852 -6.7395 0.5238 
-8.58069 -6.77801 0.492867 -8.57277 -6.81641 0.461838 -8.56476 -6.85473 0.43072 
-8.55669 -6.89297 0.399519 -8.54855 -6.93112 0.36824 -8.54035 -6.96921 0.33689 
-8.53208 -7.00724 0.305475 -8.52376 -7.04521 0.274 -8.5154 -7.08314 0.242472 
-8.50699 -7.12102 0.210896 -8.49855 -7.15887 0.179279 -8.49007 -7.19669 0.147626 
-8.48157 -7.23449 0.115943 -8.47304 -7.27228 0.0842367 -8.46449 -7.31006 0.0525124 
-8.45594 -7.34784 0.0207772 -8.44738 -7.38563 -0.0109599 -8.43882 -7.42344 -0.0426894 
-8.43027 -7.46126 -0.0744018 -8.42174 -7.4991 -0.106088 -8.41323 -7.53699 -0.137738 
-8.40475 -7.57491 -0.169343 -8.39631 -7.61287 -0.200893 -8.38791 -7.65089 -0.232379 
-8.37957 -7.68897 -0.263791 -8.37128 -7.72711 -0.29512 -8.36306 -7.76532 -0.326356 
-8.35491 -7.80362 -0.357491 -8.34684 -7.84199 -0.388514 -8.33885 -7.88046 -0.419416 
-8.33096 -7.91903 -0.450188 -8.32318 -7.9577 -0.48082 -8.31549 -7.99648 -0.511303 
-8.30793 -8.03537 -0.541627 -8.30048 -8.0744 -0.571783 -8.29317 -8.11355 -0.601763 
-8.28598 -8.15283 -0.631566 -8.27892 -8.19226 -0.661194 -8.27199 -8.23183 -0.690648 
-8.26518 -8.27155 -0.719931 -8.2585 -8.31142 -0.749046 -8.25194 -8.35145 -0.777992 
-8.24551 -8.39164 -0.806774 -8.23921 -8.432 -0.835393 -8.23302 -8.47253 -0.86385 
-8.22696 -8.51324 -0.892149 -8.22101 -8.55413 -0.92029 -8.21519 -8.5952 -0.948276 
-8.20949 -8.63646 -0.976109 -8.2039 -8.67792 -1.00379 -8.19843 -8.71957 -1.03132 
-8.19308 -8.76143 -1.05871 -8.18785 -8.8035 -1.08595 -8.18273 -8.84578 -1.11305 
-8.17772 -8.88827 -1.14 -8.17283 -8.93099 -1.16681 -8.16809 -8.97394 -1.19344 
-8.16353 -9.01713 -1.21981 -8.15922 -9.06058 -1.24584 -8.15518 -9.10429 -1.27146 
-8.15149 -9.14827 -1.29659 -8.14817 -9.19254 -1.32116 -8.14529 -9.23711 -1.3451 
-8.14288 -9.28199 -1.36832 -8.141 -9.3272 -1.39076 -8.13968 -9.37273 -1.41233 
-8.13899 -9.41861 -1.43297 -8.13897 -9.46484 -1.45259 -8.13966 -9.51144 -1.47113 
-8.14112 -9.55842 -1.48851 -8.14338 -9.60579 -1.50465 -8.14651 -9.65356 -1.51947 
-8.15054 -9.70174 -1.53291 -8.15553 -9.75034 -1.54488 -8.16152 -9.79938 -1.55531 
-8.16855 -9.84887 -1.56414 -8.17667 -9.89877 -1.57129 -8.18583 -9.94899 -1.57677 
-8.19603 -9.99941 -1.58058 -8.20724 -10.0499 -1.58271 -8.21942 -10.1004 -1.58317 
-8.23256 -10.1507 -1.58195 -8.24662 -10.2008 -1.57906 -8.26158 -10.2505 -1.57449 
-8.27742 -10.2997 -1.56824 -8.2941 -10.3482 -1.56032 -8.31161 -10.3961 -1.55072 
-8.32992 -10.4431 -1.53944 -8.34899 -10.4892 -1.52649 -8.36882 -10.5342 -1.51185 
-8.38936 -10.5779 -1.49554 -8.41059 -10.6204 -1.47755 -8.43249 -10.6615 -1.45788 
[...]
CELL_DATA 1
FIELD FieldData 2
Length 1 1 double
63.881268257 
Tortuosity 1 1 double
0.84144037165 
POINT_DATA 1278
SCALARS MaximumInscribedSphereRadius float
LOOKUP_TABLE default
0.62 0.627608 0.635216 0.642824 0.650432 0.65804 0.665649 0.673257 0.680865 
0.688473 0.696081 0.703689 0.711297 0.718905 0.726513 0.734121 0.741729 0.749337 
0.756946 0.764554 0.772162 0.779596 0.786231 0.792865 0.7995 0.806134 0.812769 
0.819404 0.826038 0.832673 0.839308 0.845942 0.852577 0.859212 0.865846 0.872481 
0.879116 0.88575 0.892385 0.89902 0.905654 0.908822 0.909887 0.910952 0.912016 
0.913081 0.914145 0.91521 0.916274 0.917339 0.918403 0.919468 0.920532 0.921597 
0.922662 0.923726 0.924791 0.925855 0.92692 0.927984 0.929049 0.930334 0.933473 
0.936611 0.93975 0.942888 0.946026 0.949165 0.952303 0.955442 0.95858 0.961719 
0.964857 0.967996 0.971134 0.974273 0.977411 0.980549 0.983688 0.986826 0.989965 
0.993103 1.00024 1.00792 1.01559 1.02326 1.03094 1.03861 1.04628 1.05396 
1.06163 1.0693 1.07697 1.08465 1.09232 1.09999 1.10767 1.11534 1.12301 
1.13068 1.13836 1.14603 1.15666 1.16929 1.18191 1.19454 1.20717 1.2198 
1.23243 1.24506 1.25769 1.27031 1.28294 1.29557 1.3082 1.32083 1.33346 
1.34609 1.35871 1.37134 1.38397 1.3966 1.40998 1.42493 1.43988 1.45483 
1.46978 1.48473 1.49968 1.51463 1.52958 1.54453 1.55948 1.57444 1.58939 
1.60434 1.61929 1.63424 1.64919 1.66414 1.67909 1.69404 1.7082 1.70589 
1.70358 1.70127 1.69896 1.69665 1.69434 1.69203 1.68972 1.68741 1.6851 
1.68279 1.68048 1.67817 1.67586 1.67355 1.67124 1.66893 1.66662 1.66431 
1.662 1.65025 1.6356 1.62095 1.6063 1.59165 1.57701 1.56236 1.54771 
1.53306 1.51841 1.50376 1.48911 1.47447 1.45982 1.44517 1.43052 1.41587 
1.40122 1.38657 1.37192 1.36141 1.35528 1.34915 1.34302 1.33688 1.33075 
1.32462 1.31849 1.31236 1.30623 1.30009 1.29396 1.28783 1.2817 1.27557 
1.26944 1.2633 1.25717 1.25104 1.24491 1.24 1.24 1.24 1.24 
1.24 1.24 1.24 1.24 1.24 1.24 1.24 1.24 1.24 
1.24 1.24 1.24 1.24 1.24 1.24 1.24 1.24 1.24 
1.24 1.24 1.24 1.24 1.24 1.24 1.24 1.24 1.24 
1.24 1.24 1.24 1.24 1.24 1.24 1.24 1.24 1.24 
1.24 1.24787 1.25888 1.2699 1.28092 1.29194 1.30295 1.31397 1.32499 
1.33601 1.34702 1.35804 1.36906 1.38008 1.39109 1.40211 1.41313 1.42415 
1.43516 1.44618 1.4572 1.47036 1.48633 1.5023 1.51827 1.53424 1.55021 
1.56618 1.58215 1.59812 1.61409 1.63006 1.64603 1.662 1.67797 1.69394 
1.70991 1.72588 1.74185 1.75782 1.77379 1.78968 1.80516 1.82064 1.83612 
1.8516 1.86708 1.88256 1.89804 1.91352 1.929 1.94448 1.95996 1.97544 
1.99092 2.0064 2.02188 2.03736 2.05284 2.06832 2.0838 2.09928 2.11113 
2.12238 2.13362 2.14487 2.15611 2.16736 2.17861 2.18985 2.2011 2.21234 
2.22359 2.23484 2.24608 2.25733 2.26857 2.27982 2.29107 2.30231 2.31356 
2.3248 2.32242 2.31196 2.3015 2.29104 2.28058 2.27012 2.25966 2.2492 
2.23874 2.22828 2.21782 2.20736 2.1969 2.18643 2.17597 2.16551 2.15505 
2.14459 2.13413 2.12367 2.11434 2.10934 2.10434 2.09934 2.09434 2.08934 
2.08434 2.07934 2.07434 2.06934 2.06434 2.05934 2.05434 2.04934 2.04434 
2.03934 2.03434 2.02934 2.02434 2.01934 2.0173 2.02495 2.03261 2.04026 
2.04792 2.05557 2.06323 2.07089 2.07854 2.0862 2.09385 2.10151 2.10917 
2.11682 2.12448 2.13213 2.13979 2.14745 2.1551 2.16276 2.16997 2.16949 
2.16901 2.16853 2.16805 2.16757 2.16709 2.1666 2.16612 2.16564 2.16516 
2.16468 2.1642 2.16372 2.16324 2.16275 2.16227 2.16179 2.16131 2.16083 
2.16035 2.15473 2.14781 2.14089 2.13396 2.12704 2.12012 2.1132 2.10627 
2.09935 2.09243 2.08551 2.07858 2.07166 2.06474 2.05781 2.05089 2.04397 
2.03705 2.03012 2.0232 2.01181 1.996 1.98019 1.96438 1.94856 1.93275 
1.91694 1.90113 1.88532 1.86951 1.85369 1.83788 1.82207 1.80626 1.79045 
1.77464 1.75882 1.74301 1.7272 1.71139 1.70052 1.70574 1.71097 1.7162 
1.72143 1.72665 1.73188 1.73711 1.74233 1.74756 1.75279 1.75802 1.76324 
1.76847 1.7737 1.77892 1.78415 1.78938 1.7946 1.79983 1.80506 1.81785 
1.83118 1.8445 1.85783 1.87115 1.88447 1.8978 1.91112 1.92445 1.93777 
1.95109 1.96442 1.97774 1.99106 2.00439 2.01771 2.03104 2.04436 2.05768 
2.07101 2.06921 2.06211 2.05501 2.04791 2.04081 2.0337 2.0266 2.0195 
2.0124 2.0053 1.9982 1.99109 1.98399 1.97689 1.96979 1.96269 1.95559 
1.94848 1.94138 1.93428 1.9341 1.94039 1.94668 1.95297 1.95926 1.96555 
1.97183 1.97812 1.98441 1.9907 1.99699 2.00328 2.00957 2.01586 2.02215 
2.02843 2.03472 2.04101 2.0473 2.05359 2.0619 2.07653 2.09116 2.1058 
2.12043 2.13506 2.1497 2.16433 2.17896 2.1936 2.20823 2.22286 2.2375 
2.25213 2.26677 2.2814 2.29603 2.31067 2.3253 2.33993 2.35457 2.36552 
2.37632 2.38711 2.39791 2.40871 2.4195 2.4303 2.44109 2.45189 2.46268 
2.47348 2.48428 2.49507 2.50587 2.51666 2.52746 2.53825 2.54905 2.55984 
2.57064 2.57932 2.587 2.59467 2.60235 2.61002 2.61769 2.62537 2.63304 
2.64072 2.64839 2.65606 2.66374 2.67141 2.67909 2.68676 2.69443 2.70211 
2.70978 2.71745 2.72513 2.72636 2.71774 2.70911 2.70049 2.69186 2.68324 
2.67461 2.66599 2.65736 2.64874 2.64011 2.63149 2.62286 2.61424 2.60561 
2.59699 2.58836 2.57974 2.57111 2.56249 2.55234 2.53048 2.50862 2.48676 
2.4649 2.44304 2.42118 2.39932 2.37746 2.3556 2.33374 2.31188 2.29002 
2.26816 2.2463 2.22444 2.20258 2.18072 2.15886 2.137 2.11514 2.10117 
2.08877 2.07637 2.06397 2.05157 2.03917 2.02677 2.01437 2.00197 1.98957 
1.97717 1.96477 1.95237 1.93997 1.92757 1.91517 1.90277 1.89037 1.87797 
1.86557 1.86047 1.86132 1.86218 1.86303 1.86389 1.86474 1.86559 1.86645 
1.8673 1.86816 1.86901 1.86986 1.87072 1.87157 1.87243 1.87328 1.87413 
1.87499 1.87584 1.8767 1.87997 1.88987 1.89977 1.90967 1.91957 1.92946 
1.93936 1.94926 1.95916 1.96906 1.97895 1.98885 1.99875 2.00865 2.01855 
2.02844 2.03834 2.04824 2.05814 2.06803 2.07793 2.09587 2.11394 2.13201 
2.15007 2.16814 2.18621 2.20428 2.22235 2.24041 2.25848 2.27655 2.29462 
2.31268 2.33075 2.34882 2.36689 2.38495 2.40302 2.42109 2.43916 2.43244 
2.41535 2.39826 2.38116 2.36407 2.34698 2.32989 2.31279 2.2957 2.27861 
2.26152 2.24442 2.22733 2.21024 2.19315 2.17605 2.15896 2.14187 2.12478 
2.10768 2.08497 2.0551 2.02522 1.99534 1.96547 1.93559 1.90571 1.87584 
1.84596 1.81608 1.78621 1.75633 1.72645 1.69658 1.6667 1.63682 1.60695 
1.57707 1.54719 1.51732 1.49546 1.51204 1.52862 1.54519 1.56177 1.57835 
1.59492 1.6115 1.62808 1.64465 1.66123 1.67781 1.69438 1.71096 1.72754 
1.74412 1.76069 1.77727 1.79385 1.81042 1.827 1.8461 1.86548 1.88486 
1.90424 1.92362 1.943 1.96239 1.98177 2.00115 2.02053 2.03991 2.05929 
2.07867 2.09805 2.11743 2.13682 2.1562 2.17558 2.19496 2.21434 2.2313 
2.24678 2.26226 2.27774 2.29322 2.3087 2.32418 2.33966 2.35514 2.37063 
2.38611 2.40159 2.41707 2.43255 2.44803 2.46351 2.47899 2.49447 2.50995 
2.52543 2.53683 2.54031 2.54379 2.54726 2.55074 2.55422 2.5577 2.56117 
2.56465 2.56813 2.57161 2.57508 2.57856 2.58204 2.58552 2.58899 2.59247 
2.59595 2.59943 2.6029 2.60513 2.58698 2.56883 2.55068 2.53253 2.51438 
2.49623 2.47808 2.45993 2.44178 2.42364 2.40549 2.38734 2.36919 2.35104 
2.33289 2.31474 2.29659 2.27844 2.26029 2.24214 2.22577 2.20991 2.19405 
2.17819 2.16233 2.14647 2.13061 2.11475 2.09889 2.08304 2.06718 2.05132 
2.03546 2.0196 2.00374 1.98788 1.97202 1.95616 1.9403 1.92444 1.91655 
1.91688 1.91721 1.91753 1.91786 1.91819 1.91852 1.91884 1.91917 1.9195 
1.91982 1.92015 1.92048 1.92081 1.92113 1.92146 1.92179 1.92212 1.92244 
1.92277 1.92494 1.93406 1.94319 1.95232 1.96144 1.97057 1.97969 1.98882 
1.99794 2.00707 2.01619 2.02532 2.03445 2.04357 2.0527 2.06182 2.07095 
2.08007 2.0892 2.09832 2.10745 2.12891 2.15136 2.17381 2.19626 2.21871 
2.24116 2.26361 2.28606 2.30851 2.33096 2.35341 2.37586 2.39831 2.42076 
2.44321 2.46566 2.48811 2.51056 2.53301 2.55546 2.57416 2.59078 2.6074 
2.62402 2.64064 2.65725 2.67387 2.69049 2.70711 2.72373 2.74035 2.75697 
2.77358 2.7902 2.80682 2.82344 2.84006 2.85668 2.8733 2.88991 2.90387 
2.91308 2.92229 2.9315 2.94071 2.94992 2.95913 2.96833 2.97754 2.98675 
2.99596 3.00517 3.01438 3.02359 3.0328 3.04201 3.05122 3.06043 3.06964 
3.07885 3.08649 3.0748 3.06312 3.05143 3.03975 3.02806 3.01638 3.00469 
2.99301 2.98132 2.96964 2.95795 2.94627 2.93458 2.9229 2.91121 2.89953 
2.88784 2.87616 2.86447 2.85279 2.83139 2.80745 2.78352 2.75958 2.73565 
2.71171 2.68778 2.66385 2.63991 2.61598 2.59204 2.56811 2.54418 2.52024 
2.49631 2.47237 2.44844 2.42451 2.40057 2.37664 2.35788 2.3441 2.33032 
2.31653 2.30275 2.28897 2.27518 2.2614 2.24762 2.23384 2.22005 2.20627 
2.19249 2.17871 2.16492 2.15114 2.13736 2.12357 2.10979 2.09601 2.08384 
2.07716 2.07049 2.06381 2.05714 2.05047 2.04379 2.03712 2.03044 2.02377 
2.0171 2.01042 2.00375 1.99707 1.9904 1.98372 1.97705 1.97038 1.9637 
1.95703 1.95035 1.94587 1.9415 1.93714 1.93278 1.92842 1.92406 1.9197 
1.91533 1.91097 1.90661 1.90225 1.89789 1.89353 1.88917 1.8848 1.88044 
1.87608 1.87172 1.86736 1.863 1.85976 1.8571 1.85444 1.85178 1.84911 
1.84645 1.84379 1.84113 1.83846 1.8358 1.83314 1.83048 1.82782 1.82515 
1.82249 1.81983 1.81717 1.8145 1.81184 1.80918 1.80489 1.79811 1.79132 
1.78454 1.77775 1.77097 1.76419 1.7574 1.75062 1.74383 1.73705 1.73027 
1.72348 1.7167 1.70991 1.70313 1.69635 1.68956 1.68278 1.67599 1.67115 
1.68345 1.69575 1.70805 1.72035 1.73265 1.74495 1.75725 1.76955 1.78185 
1.79415 1.80645 1.81874 1.83104 1.84334 1.85564 1.86794 1.88024 1.89254 
1.90484 1.91714 1.95116 1.98653 2.02191 2.05728 2.09265 2.12802 2.16339 
2.19877 2.23414 2.26951 2.30488 2.34026 2.37563 2.411 2.44637 2.48174 
2.51712 2.55249 2.58786 2.62323 2.63513 2.63619 2.63725 2.63832 2.63938 
2.64044 2.6415 2.64257 2.64363 2.64469 2.64576 2.64682 2.64788 2.64894 
2.65001 2.65107 2.65213 2.6532 2.65426 2.65532 2.65286 2.64529 2.63771 
2.63014 2.62256 2.61499 2.60742 2.59984 2.59227 2.58469 2.57712 2.56954 
2.56197 2.5544 2.54682 2.53925 2.53167 2.5241 2.51652 2.50895 2.50138 
2.49388 2.48638 2.47887 2.47137 2.46387 2.45636 2.44886 2.44136 2.43385 
2.42635 2.41885 2.41135 2.40384 2.39634 2.38884 2.38133 2.37383 2.36633 
2.35882 2.35132 2.34427 2.3373 2.33032 2.32335 2.31637 2.30939 2.30242 
2.29544 2.28847 2.28149 2.27452 2.26754 2.26057 2.25359 2.24661 2.23964 
2.23266 2.22569 2.21871 2.21174 2.20696 2.20503 2.20311 2.20119 2.19927 
2.19734 2.19542 2.1935 2.19158 2.18965 2.18773 2.18581 2.18389 2.18196 
2.18004 2.17812 2.1762 2.17428 2.17235 2.17043 2.17 2.17 2.17 
2.17 2.17 2.17 2.17 2.17 2.17 2.17 2.17 2.17 
2.17 2.17 2.17 2.17 2.17 2.17 2.17 2.17 2.17 

TEXTURE_COORDINATES TCoords 2 float
0 0 0.000783085 0 0.00156617 0 0.00234926 0 0.00313234 
0 0.00391543 0 0.00469851 0 0.0054816 0 0.00626468 0 
0.00704777 0 0.00783085 0 0.00861394 0 0.00939702 0 0.0101801 
0 0.0109632 0 0.0117463 0 0.0125294 0 0.0133125 0 
0.0140955 0 0.0148786 0 0.0156617 0 0.0164448 0 0.0172279 
0 0.018011 0 0.018794 0 0.0195771 0 0.0203602 0 
0.0211433 0 0.0219264 0 0.0227095 0 0.0234926 0 0.0242756 
0 0.0250587 0 0.0258418 0 0.0266249 0 0.027408 0 
0.0281911 0 0.0289742 0 0.0297572 0 0.0305403 0 0.0313234 
0 0.0321065 0 0.0328896 0 0.0336727 0 0.0344558 0 
0.0352388 0 0.0360219 0 0.036805 0 0.0375881 0 0.0383712 
0 0.0391543 0 0.0399374 0 0.0407204 0 0.0415035 0 
0.0422866 0 0.0430697 0 0.0438528 0 0.0446359 0 0.045419 
0 0.046202 0 0.0469851 0 0.0477682 0 0.0485513 0 
0.0493344 0 0.0501175 0 0.0509005 0 0.0516836 0 0.0524667 
0 0.0532498 0 0.0540329 0 0.054816 0 0.0555991 0 
0.0563821 0 0.0571652 0 0.0579483 0 0.0587314 0 0.0595145 
0 0.0602976 0 0.0610807 0 0.0618637 0 0.0626468 0 
0.0634299 0 0.064213 0 0.0649961 0 0.0657792 0 0.0665623 
0 0.0673453 0 0.0681284 0 0.0689115 0 0.0696946 0 
0.0704777 0 0.0712608 0 0.0720439 0 0.0728269 0 0.07361 
0 0.0743931 0 0.0751762 0 0.0759593 0 0.0767424 0 
0.0775255 0 0.0783085 0 0.0790916 0 0.0798747 0 0.0806578 
0 0.0814409 0 0.082224 0 0.083007 0 0.0837901 0 
0.0845732 0 0.0853563 0 0.0861394 0 0.0869225 0 0.0877056 
0 0.0884886 0 0.0892717 0 0.0900548 0 0.0908379 0 
0.091621 0 0.0924041 0 0.0931872 0 0.0939702 0 0.0947533 
0 0.0955364 0 0.0963195 0 0.0971026 0 0.0978857 0 
0.0986688 0 0.0994518 0 0.100235 0 0.101018 0 0.101801 
0 0.102584 0 0.103367 0 0.10415 0 0.104933 0 
0.105717 0 0.1065 0 0.107283 0 0.108066 0 0.108849 
0 0.109632 0 0.110415 0 0.111198 0 0.111981 0 
0.112764 0 0.113547 0 0.11433 0 0.115114 0 0.115897 
0 0.11668 0 0.117463 0 0.118246 0 0.119029 0 
0.119812 0 0.120595 0 0.121378 0 0.122161 0 0.122944 
0 0.123727 0 0.124511 0 0.125294 0 0.126077 0 
0.12686 0 0.127643 0 0.128426 0 0.129209 0 0.129992 
0 0.130775 0 0.131558 0 0.132341 0 0.133125 0 
0.133908 0 0.134691 0 0.135474 0 0.136257 0 0.13704 
0 0.137823 0 0.138606 0 0.139389 0 0.140172 0 
0.140955 0 0.141738 0 0.142522 0 0.143305 0 0.144088 
0 0.144871 0 0.145654 0 0.146437 0 0.14722 0 
0.148003 0 0.148786 0 0.149569 0 0.150352 0 0.151135 
0 0.151919 0 0.152702 0 0.153485 0 0.154268 0 
0.155051 0 0.155834 0 0.156617 0 0.1574 0 0.158183 
0 0.158966 0 0.159749 0 0.160533 0 0.161316 0 
0.162099 0 0.162882 0 0.163665 0 0.164448 0 0.165231 
0 0.166014 0 0.166797 0 0.16758 0 0.168363 0 
0.169146 0 0.16993 0 0.170713 0 0.171496 0 0.172279 
0 0.173062 0 0.173845 0 0.174628 0 0.175411 0 
0.176194 0 0.176977 0 0.17776 0 0.178543 0 0.179327 
0 0.18011 0 0.180893 0 0.181676 0 0.182459 0 
0.183242 0 0.184025 0 0.184808 0 0.185591 0 0.186374 
0 0.187157 0 0.18794 0 0.188724 0 0.189507 0 
0.19029 0 0.191073 0 0.191856 0 0.192639 0 0.193422 
0 0.194205 0 0.194988 0 0.195771 0 0.196554 0 
0.197338 0 0.198121 0 0.198904 0 0.199687 0 0.20047 
0 0.201253 0 0.202036 0 0.202819 0 0.203602 0 
0.204385 0 0.205168 0 0.205951 0 0.206735 0 0.207518 
0 0.208301 0 0.209084 0 0.209867 0 0.21065 0 
0.211433 0 0.212216 0 0.212999 0 0.213782 0 0.214565 
0 0.215348 0 0.216132 0 0.216915 0 0.217698 0 
0.218481 0 0.219264 0 0.220047 0 0.22083 0 0.221613 
0 0.222396 0 0.223179 0 0.223962 0 0.224745 0 
0.225529 0 0.226312 0 0.227095 0 0.227878 0 0.228661 
0 0.229444 0 0.230227 0 0.23101 0 0.231793 0 
0.232576 0 0.233359 0 0.234143 0 0.234926 0 0.235709 
0 0.236492 0 0.237275 0 0.238058 0 0.238841 0 
0.239624 0 0.240407 0 0.24119 0 0.241973 0 0.242756 
0 0.24354 0 0.244323 0 0.245106 0 0.245889 0 
0.246672 0 0.247455 0 0.248238 0 0.249021 0 0.249804 
0 0.250587 0 0.25137 0 0.252153 0 0.252937 0 
0.25372 0 0.254503 0 0.255286 0 0.256069 0 0.256852 
0 0.257635 0 0.258418 0 0.259201 0 0.259984 0 
0.260767 0 0.261551 0 0.262334 0 0.263117 0 0.2639 
0 0.264683 0 0.265466 0 0.266249 0 0.267032 0 
0.267815 0 0.268598 0 0.269381 0 0.270164 0 0.270948 
0 0.271731 0 0.272514 0 0.273297 0 0.27408 0 
0.274863 0 0.275646 0 0.276429 0 0.277212 0 0.277995 
0 0.278778 0 0.279561 0 0.280345 0 0.281128 0 
0.281911 0 0.282694 0 0.283477 0 0.28426 0 0.285043 
0 0.285826 0 0.286609 0 0.287392 0 0.288175 0 
0.288958 0 0.289742 0 0.290525 0 0.291308 0 0.292091 
0 0.292874 0 0.293657 0 0.29444 0 0.295223 0 
0.296006 0 0.296789 0 0.297572 0 0.298356 0 0.299139 
0 0.299922 0 0.300705 0 0.301488 0 0.302271 0 
0.303054 0 0.303837 0 0.30462 0 0.305403 0 0.306186 
0 0.306969 0 0.307753 0 0.308536 0 0.309319 0 
0.310102 0 0.310885 0 0.311668 0 0.312451 0 0.313234 
0 0.314017 0 0.3148 0 0.315583 0 0.316366 0 
0.31715 0 0.317933 0 0.318716 0 0.319499 0 0.320282 
0 0.321065 0 0.321848 0 0.322631 0 0.323414 0 
0.324197 0 0.32498 0 0.325763 0 0.326547 0 0.32733 
0 0.328113 0 0.328896 0 0.329679 0 0.330462 0 
0.331245 0 0.332028 0 0.332811 0 0.333594 0 0.334377 
0 0.335161 0 0.335944 0 0.336727 0 0.33751 0 
0.338293 0 0.339076 0 0.339859 0 0.340642 0 0.341425 
0 0.342208 0 0.342991 0 0.343774 0 0.344558 0 
0.345341 0 0.346124 0 0.346907 0 0.34769 0 0.348473 
0 0.349256 0 0.350039 0 0.350822 0 0.351605 0 
0.352388 0 0.353171 0 0.353955 0 0.354738 0 0.355521 
0 0.356304 0 0.357087 0 0.35787 0 0.358653 0 
0.359436 0 0.360219 0 0.361002 0 0.361785 0 0.362569 
0 0.363352 0 0.364135 0 0.364918 0 0.365701 0 
0.366484 0 0.367267 0 0.36805 0 0.368833 0 0.369616 
0 0.370399 0 0.371182 0 0.371966 0 0.372749 0 
0.373532 0 0.374315 0 0.375098 0 0.375881 0 0.376664 
0 0.377447 0 0.37823 0 0.379013 0 0.379796 0 
0.380579 0 0.381363 0 0.382146 0 0.382929 0 0.383712 
0 0.384495 0 0.385278 0 0.386061 0 0.386844 0 
0.387627 0 0.38841 0 0.389193 0 0.389977 0 0.39076 
0 0.391543 0 0.392326 0 0.393109 0 0.393892 0 
0.394675 0 0.395458 0 0.396241 0 0.397024 0 0.397807 
0 0.39859 0 0.399374 0 0.400157 0 0.40094 0 
0.401723 0 0.402506 0 0.403289 0 0.404072 0 0.404855 
0 0.405638 0 0.406421 0 0.407204 0 0.407987 0 
0.408771 0 0.409554 0 0.410337 0 0.41112 0 0.411903 
0 0.412686 0 0.413469 0 0.414252 0 0.415035 0 
0.415818 0 0.416601 0 0.417385 0 0.418168 0 0.418951 
0 0.419734 0 0.420517 0 0.4213 0 0.422083 0 
0.422866 0 0.423649 0 0.424432 0 0.425215 0 0.425998 
0 0.426782 0 0.427565 0 0.428348 0 0.429131 0 
0.429914 0 0.430697 0 0.43148 0 0.432263 0 0.433046 
0 0.433829 0 0.434612 0 0.435395 0 0.436179 0 
0.436962 0 0.437745 0 0.438528 0 0.439311 0 0.440094 
0 0.440877 0 0.44166 0 0.442443 0 0.443226 0 
0.444009 0 0.444792 0 0.445576 0 0.446359 0 0.447142 
0 0.447925 0 0.448708 0 0.449491 0 0.450274 0 
0.451057 0 0.45184 0 0.452623 0 0.453406 0 0.45419 
0 0.454973 0 0.455756 0 0.456539 0 0.457322 0 
0.458105 0 0.458888 0 0.459671 0 0.460454 0 0.461237 
0 0.46202 0 0.462803 0 0.463587 0 0.46437 0 
0.465153 0 0.465936 0 0.466719 0 0.467502 0 0.468285 
0 0.469068 0 0.469851 0 0.470634 0 0.471417 0 
0.4722 0 0.472984 0 0.473767 0 0.47455 0 0.475333 
0 0.476116 0 0.476899 0 0.477682 0 0.478465 0 
0.479248 0 0.480031 0 0.480814 0 0.481597 0 0.482381 
0 0.483164 0 0.483947 0 0.48473 0 0.485513 0 
0.486296 0 0.487079 0 0.487862 0 0.488645 0 0.489428 
0 0.490211 0 0.490995 0 0.491778 0 0.492561 0 
0.493344 0 0.494127 0 0.49491 0 0.495693 0 0.496476 
0 0.497259 0 0.498042 0 0.498825 0 0.499608 0 
0.500392 0 0.501175 0 0.501958 0 0.502741 0 0.503524 
0 0.504307 0 0.50509 0 0.505873 0 0.506656 0 
0.507439 0 0.508222 0 0.509005 0 0.509789 0 0.510572 
0 0.511355 0 0.512138 0 0.512921 0 0.513704 0 
0.514487 0 0.51527 0 0.516053 0 0.516836 0 0.517619 
0 0.518403 0 0.519186 0 0.519969 0 0.520752 0 
0.521535 0 0.522318 0 0.523101 0 0.523884 0 0.524667 
0 0.52545 0 0.526233 0 0.527016 0 0.5278 0 
0.528583 0 0.529366 0 0.530149 0 0.530932 0 0.531715 
0 0.532498 0 0.533281 0 0.534064 0 0.534847 0 
0.53563 0 0.536413 0 0.537197 0 0.53798 0 0.538763 
0 0.539546 0 0.540329 0 0.541112 0 0.541895 0 
0.542678 0 0.543461 0 0.544244 0 0.545027 0 0.545811 
0 0.546594 0 0.547377 0 0.54816 0 0.548943 0 
0.549726 0 0.550509 0 0.551292 0 0.552075 0 0.552858 
0 0.553641 0 0.554424 0 0.555207 0 0.555991 0 
0.556774 0 0.557557 0 0.55834 0 0.559123 0 0.559906 
0 0.560689 0 0.561472 0 0.562255 0 0.563038 0 
0.563821 0 0.564605 0 0.565388 0 0.566171 0 0.566954 
0 0.567737 0 0.56852 0 0.569303 0 0.570086 0 
0.570869 0 0.571652 0 0.572435 0 0.573218 0 0.574002 
0 0.574785 0 0.575568 0 0.576351 0 0.577134 0 
0.577917 0 0.5787 0 0.579483 0 0.580266 0 0.581049 
0 0.581832 0 0.582615 0 0.583399 0 0.584182 0 
0.584965 0 0.585748 0 0.586531 0 0.587314 0 0.588097 
0 0.58888 0 0.589663 0 0.590446 0 0.591229 0 
0.592013 0 0.592796 0 0.593579 0 0.594362 0 0.595145 
0 0.595928 0 0.596711 0 0.597494 0 0.598277 0 
0.59906 0 0.599843 0 0.600626 0 0.60141 0 0.602193 
0 0.602976 0 0.603759 0 0.604542 0 0.605325 0 
0.606108 0 0.606891 0 0.607674 0 0.608457 0 0.60924 
0 0.610023 0 0.610807 0 0.61159 0 0.612373 0 
0.613156 0 0.613939 0 0.614722 0 0.615505 0 0.616288 
0 0.617071 0 0.617854 0 0.618637 0 0.619421 0 
0.620204 0 0.620987 0 0.62177 0 0.622553 0 0.623336 
0 0.624119 0 0.624902 0 0.625685 0 0.626468 0 
0.627251 0 0.628034 0 0.628818 0 0.629601 0 0.630384 
0 0.631167 0 0.63195 0 0.632733 0 0.633516 0 
0.634299 0 0.635082 0 0.635865 0 0.636648 0 0.637432 
0 0.638215 0 0.638998 0 0.639781 0 0.640564 0 
0.641347 0 0.64213 0 0.642913 0 0.643696 0 0.644479 
0 0.645262 0 0.646045 0 0.646829 0 0.647612 0 
0.648395 0 0.649178 0 0.649961 0 0.650744 0 0.651527 
0 0.65231 0 0.653093 0 0.653876 0 0.654659 0 
0.655442 0 0.656226 0 0.657009 0 0.657792 0 0.658575 
0 0.659358 0 0.660141 0 0.660924 0 0.661707 0 
0.66249 0 0.663273 0 0.664056 0 0.664839 0 0.665623 
0 0.666406 0 0.667189 0 0.667972 0 0.668755 0 