# vtk DataFile Version 4.2
vtk output
ASCII
DATASET POLYDATA
POINTS 1276 float
0 0 0 -0.00381833 -0.000121176 -0.0014497 -0.0149513 -0.000472012 -0.00568853 
-0.032916 -0.00103347 -0.0125511 -0.0572294 -0.00178653 -0.021872 -0.0874084 -0.00271213 -0.0334858 
-0.12297 -0.00379125 -0.0472271 -0.163432 -0.00500486 -0.0629306 -0.20831 -0.00633391 -0.0804308 
-0.257122 -0.00775937 -0.0995623 -0.309384 -0.00926221 -0.12016 -0.364614 -0.0108234 -0.142058 
-0.422329 -0.0124239 -0.165091 -0.482046 -0.0140446 -0.189094 -0.543282 -0.0156666 -0.213901 
-0.605553 -0.0172708 -0.239347 -0.668377 -0.0188381 -0.265266 -0.73127 -0.0203496 -0.291494 
-0.793751 -0.0217861 -0.317864 -0.855335 -0.0231287 -0.344212 -0.91554 -0.0243583 -0.370371 
-0.973882 -0.0254559 -0.396177 -1.03002 -0.0264095 -0.421509 -1.08402 -0.0272275 -0.446377 
-1.13604 -0.0279225 -0.470816 -1.18621 -0.0285069 -0.494863 -1.23469 -0.0289932 -0.518551 
-1.28163 -0.0293938 -0.541917 -1.32717 -0.0297211 -0.564995 -1.37146 -0.0299876 -0.587821 
-1.41464 -0.0302057 -0.61043 -1.45688 -0.0303879 -0.632858 -1.4983 -0.0305466 -0.655139 
-1.53906 -0.0306943 -0.677309 -1.57931 -0.0308434 -0.699402 -1.6192 -0.0310063 -0.721455 
-1.65886 -0.0311954 -0.743503 -1.69846 -0.0314233 -0.76558 -1.73813 -0.0317024 -0.787722 
-1.77803 -0.0320451 -0.809964 -1.8183 -0.0324639 -0.832342 -1.85908 -0.0329707 -0.854889 
-1.90041 -0.0335724 -0.877609 -1.94226 -0.0342718 -0.900488 -1.9846 -0.035072 -0.923511 
-2.02738 -0.0359759 -0.946663 -2.07058 -0.0369862 -0.969928 -2.11416 -0.0381061 -0.993292 
-2.15809 -0.0393382 -1.01674 -2.20234 -0.0406857 -1.04026 -2.24686 -0.0421514 -1.06383 
-2.29163 -0.0437381 -1.08743 -2.33662 -0.0454489 -1.11106 -2.38178 -0.0472865 -1.1347 
-2.42708 -0.049254 -1.15833 -2.4725 -0.0513543 -1.18194 -2.51799 -0.0535901 -1.20552 
-2.56353 -0.0559646 -1.22904 -2.60907 -0.0584805 -1.25249 -2.65459 -0.0611408 -1.27586 
-2.70005 -0.0639484 -1.29914 -2.74542 -0.0669062 -1.3223 -2.79067 -0.0700184 -1.34533 
-2.83581 -0.0732931 -1.36823 -2.88085 -0.0767391 -1.39099 -2.92581 -0.0803651 -1.4136 
-2.9707 -0.08418 -1.43606 -3.01553 -0.0881925 -1.45835 -3.06031 -0.0924113 -1.48048 
-3.10506 -0.0968454 -1.50242 -3.14979 -0.101503 -1.52419 -3.19451 -0.106394 -1.54576 
-3.23924 -0.111526 -1.56714 -3.28398 -0.116909 -1.5883 -3.32875 -0.12255 -1.60926 
-3.37357 -0.128459 -1.63 -3.41844 -0.134645 -1.65051 -3.46338 -0.141117 -1.67079 
-3.50841 -0.147882 -1.69083 -3.55352 -0.15495 -1.71062 -3.59875 -0.16233 -1.73015 
-3.64409 -0.170031 -1.74942 -3.68956 -0.178061 -1.76842 -3.73516 -0.186432 -1.78714 
-3.78087 -0.195155 -1.80556 -3.82668 -0.204241 -1.82367 -3.87259 -0.213703 -1.84144 
-3.91858 -0.223552 -1.85887 -3.96464 -0.2338 -1.87594 -4.01077 -0.244458 -1.89263 
-4.05695 -0.255538 -1.90892 -4.10317 -0.267052 -1.92482 -4.14943 -0.27901 -1.94028 
-4.1957 -0.291426 -1.95531 -4.24199 -0.30431 -1.96988 -4.28828 -0.317674 -1.98399 
-4.33456 -0.33153 -1.99761 -4.38082 -0.345889 -2.01073 -4.42704 -0.360763 -2.02333 
-4.47323 -0.376164 -2.0354 -4.51937 -0.392103 -2.04692 -4.56545 -0.408592 -2.05788 
-4.61145 -0.425641 -2.06826 -4.65737 -0.443254 -2.07807 -4.7032 -0.461426 -2.08731 
-4.74892 -0.480153 -2.096 -4.79451 -0.49943 -2.10416 -4.83998 -0.519253 -2.1118 
-4.88529 -0.539617 -2.11892 -4.93045 -0.560517 -2.12555 -4.97543 -0.581951 -2.1317 
-5.02023 -0.603912 -2.13738 -5.06484 -0.626397 -2.1426 -5.10923 -0.649401 -2.14738 
-5.1534 -0.67292 -2.15174 -5.19733 -0.696949 -2.15568 -5.24101 -0.721484 -2.15922 
-5.28444 -0.746521 -2.16237 -5.32759 -0.772054 -2.16515 -5.37045 -0.79808 -2.16756 
-5.41301 -0.824595 -2.16963 -5.45527 -0.851593 -2.17137 -5.49719 -0.87907 -2.17278 
-5.53879 -0.907018 -2.17391 -5.58006 -0.935422 -2.17478 -5.62102 -0.964267 -2.17547 
-5.66166 -0.993538 -2.176 -5.702 -1.02322 -2.17644 -5.74204 -1.0533 -2.17683 
-5.78179 -1.08376 -2.17722 -5.82125 -1.11459 -2.17767 -5.86043 -1.14576 -2.17821 
-5.89934 -1.17728 -2.1789 -5.93799 -1.20911 -2.17979 -5.97637 -1.24125 -2.18093 
-6.0145 -1.27368 -2.18237 -6.05239 -1.30639 -2.18415 -6.09003 -1.33936 -2.18633 
-6.12744 -1.37257 -2.18896 -6.16462 -1.40602 -2.19208 -6.20159 -1.43968 -2.19574 
-6.23833 -1.47354 -2.2 -6.27487 -1.50759 -2.2049 -6.31121 -1.54181 -2.21048 
-6.34733 -1.57618 -2.21676 -6.38324 -1.61069 -2.22374 -6.41892 -1.6453 -2.23144 
-6.45437 -1.68001 -2.23985 -6.48957 -1.7148 -2.249 -6.52453 -1.74964 -2.25887 
-6.55923 -1.78451 -2.26949 -6.59366 -1.81941 -2.28086 -6.62782 -1.8543 -2.29299 
-6.6617 -1.88917 -2.30588 -6.69529 -1.924 -2.31954 -6.72859 -1.95877 -2.33399 
-6.76158 -1.99346 -2.34922 -6.79425 -2.02805 -2.36524 -6.82661 -2.06252 -2.38206 
-6.85863 -2.09686 -2.3997 -6.89033 -2.13104 -2.41815 -6.92167 -2.16504 -2.43743 
-6.95267 -2.19885 -2.45753 -6.9833 -2.23245 -2.47848 -7.01357 -2.26584 -2.50024 
-7.04348 -2.29903 -2.52279 -7.07303 -2.33203 -2.5461 -7.10222 -2.36484 -2.57014 
-7.13104 -2.39747 -2.59488 -7.1595 -2.42994 -2.62029 -7.18759 -2.46226 -2.64636 
-7.21532 -2.49442 -2.67304 -7.24268 -2.52644 -2.70031 -7.26968 -2.55833 -2.72813 
-7.29631 -2.59009 -2.7565 -7.32257 -2.62175 -2.78536 -7.34847 -2.65329 -2.8147 
-7.374 -2.68474 -2.84448 -7.39916 -2.7161 -2.87468 -7.42395 -2.74738 -2.90527 
-7.44837 -2.77858 -2.93622 -7.47243 -2.80973 -2.96751 -7.49611 -2.84082 -2.99909 
-7.51942 -2.87186 -3.03096 -7.54237 -2.90287 -3.06307 -7.56494 -2.93386 -3.09543 
-7.58715 -2.96483 -3.12802 -7.60899 -2.9958 -3.16083 -7.63046 -3.02677 -3.19385 
-7.65156 -3.05777 -3.22705 -7.6723 -3.0888 -3.26044 -7.69267 -3.11987 -3.29399 
-7.71268 -3.15099 -3.3277 -7.73232 -3.18217 -3.36156 -7.7516 -3.21343 -3.39554 
-7.77052 -3.24477 -3.42964 -7.78908 -3.27621 -3.46384 -7.80728 -3.30775 -3.49814 
-7.82512 -3.33941 -3.53252 -7.84259 -3.37121 -3.56697 -7.85971 -3.40314 -3.60147 
-7.87647 -3.43522 -3.63601 -7.89288 -3.46746 -3.67059 -7.90893 -3.49988 -3.70518 
-7.92462 -3.53248 -3.73978 -7.93995 -3.56526 -3.77438 -7.95492 -3.59822 -3.80897 
-7.96952 -3.63136 -3.84356 -7.98375 -3.66469 -3.87813 -7.99762 -3.6982 -3.91268 
-8.0111 -3.73189 -3.9472 -8.02422 -3.76577 -3.98169 -8.03695 -3.79984 -4.01614 
-8.04929 -3.83409 -4.05055 -8.06126 -3.86852 -4.0849 -8.07283 -3.90315 -4.1192 
-8.08401 -3.93796 -4.15344 -8.09479 -3.97296 -4.18761 -8.10518 -4.00815 -4.2217 
-8.11517 -4.04352 -4.25572 -8.12475 -4.07909 -4.28966 -8.13393 -4.11485 -4.3235 
-8.14269 -4.1508 -4.35725 -8.15104 -4.18694 -4.39089 -8.15898 -4.22327 -4.42443 
-8.1665 -4.25979 -4.45787 -8.17361 -4.29648 -4.4912 -8.18029 -4.33334 -4.52444 
-8.18655 -4.37036 -4.55758 -8.19238 -4.40753 -4.59063 -8.1978 -4.44485 -4.62359 
-8.20278 -4.48231 -4.65647 -8.20734 -4.51989 -4.68926 -8.21146 -4.55759 -4.72198 
-8.21515 -4.59541 -4.75462 -8.21841 -4.63333 -4.78718 -8.22124 -4.67135 -4.81968 
-8.22363 -4.70945 -4.85211 -8.22558 -4.74764 -4.88447 -8.22709 -4.7859 -4.91678 
-8.22816 -4.82423 -4.94903 -8.22878 -4.86261 -4.98123 -8.22896 -4.90104 -5.01337 
-8.2287 -4.93951 -5.04547 -8.22799 -4.97802 -5.07752 -8.22682 -5.01654 -5.10954 
-8.22521 -5.05507 -5.14153 -8.22314 -5.09359 -5.17351 -8.22061 -5.13208 -5.20548 
-8.21763 -5.17054 -5.23747 -8.21418 -5.20893 -5.26947 -8.21027 -5.24725 -5.3015 
-8.20589 -5.28549 -5.33357 -8.20105 -5.32362 -5.3657 -8.19573 -5.36164 -5.39788 
-8.18995 -5.39952 -5.43015 -8.18368 -5.43725 -5.46249 -8.17695 -5.47482 -5.49493 
-8.16973 -5.51221 -5.52748 -8.16203 -5.5494 -5.56014 -8.15384 -5.58639 -5.59293 
-8.14517 -5.62315 -5.62586 -8.13602 -5.65967 -5.65894 -8.12637 -5.69593 -5.69218 
-8.11623 -5.73192 -5.7256 -8.1056 -5.76763 -5.75919 -8.09447 -5.80303 -5.79296 
-8.08287 -5.83813 -5.8269 -8.07078 -5.87289 -5.86103 -8.05822 -5.90732 -5.89534 
-8.04518 -5.94139 -5.92982 -8.03167 -5.9751 -5.96448 -8.0177 -6.00842 -5.99933 
-8.00326 -6.04135 -6.03435 -7.98837 -6.07387 -6.06956 -7.97302 -6.10596 -6.10495 
-7.95723 -6.13762 -6.14052 -7.94098 -6.16883 -6.17627 -7.92429 -6.19958 -6.2122 
-7.90717 -6.22985 -6.24831 -7.88961 -6.25963 -6.28461 -7.87161 -6.2889 -6.32109 
-7.85319 -6.31766 -6.35776 -7.83435 -6.34589 -6.3946 -7.81508 -6.37357 -6.43164 
-7.7954 -6.40069 -6.46885 -7.77531 -6.42725 -6.50625 -7.75483 -6.45325 -6.54382 
-7.73395 -6.47869 -6.58156 -7.71269 -6.50356 -6.61948 -7.69105 -6.52786 -6.65756 
-7.66904 -6.55159 -6.69581 -7.64668 -6.57474 -6.73421 -7.62397 -6.59731 -6.77277 
-7.60091 -6.61931 -6.81148 -7.57752 -6.64072 -6.85035 -7.5538 -6.66155 -6.88935 
-7.52977 -6.68179 -6.9285 -7.50542 -6.70144 -6.96779 -7.48077 -6.72049 -7.00722 
-7.45583 -6.73896 -7.04677 -7.4306 -6.75682 -7.08646 -7.40509 -6.77408 -7.12626 
-7.37932 -6.79074 -7.16619 -7.35328 -6.80679 -7.20624 -7.32699 -6.82225 -7.2464 
-7.30045 -6.83712 -7.28666 -7.27368 -6.85147 -7.32698 -7.2467 -6.86532 -7.36734 
-7.2195 -6.87872 -7.40772 -7.19211 -6.89171 -7.4481 -7.16452 -6.90432 -7.48845 
-7.13677 -6.9166 -7.52874 -7.10884 -6.92858 -7.56896 -7.08077 -6.9403 -7.60908 
-7.05255 -6.9518 -7.64906 -7.0242 -6.96313 -7.6889 -6.99572 -6.97432 -7.72857 
-6.96714 -6.98541 -7.76803 -6.93847 -6.99644 -7.80727 -6.9097 -7.00745 -7.84627 
-6.88086 -7.01848 -7.88499 -6.85195 -7.02957 -7.92341 -6.82299 -7.04076 -7.96152 
-6.79399 -7.05208 -7.99928 -6.76496 -7.06358 -8.03668 -6.73588 -7.07523 -8.07374 
-6.70674 -7.08695 -8.11054 -6.67751 -7.09867 -8.14714 -6.64818 -7.11033 -8.18363 
-6.6187 -7.12183 -8.22007 -6.58907 -7.13312 -8.25654 -6.55925 -7.14411 -8.29311 
-6.52923 -7.15474 -8.32985 -6.49897 -7.16492 -8.36683 -6.46847 -7.1746 -8.40413 
-6.43768 -7.18368 -8.44182 -6.4066 -7.1921 -8.47997 -6.37519 -7.19978 -8.51865 
-6.34343 -7.20666 -8.55794 -6.3113 -7.21265 -8.5979 -6.27877 -7.21769 -8.63862 
-6.24582 -7.22169 -8.68015 -6.21244 -7.22459 -8.72259 -6.17858 -7.22631 -8.76599 
-6.14424 -7.2268 -8.81041 -6.10947 -7.22621 -8.85573 -6.07434 -7.22477 -8.9017 
-6.03894 -7.22276 -8.9481 -6.00336 -7.22041 -8.99469 -5.96767 -7.21799 -9.04124 
-5.93196 -7.21575 -9.08752 -5.89632 -7.21393 -9.1333 -5.86082 -7.2128 -9.17833 
-5.82555 -7.21261 -9.2224 -5.79059 -7.2136 -9.26527 -5.75603 -7.21604 -9.30669 
[...]
CELL_DATA 1
FIELD FieldData 2
Length 1 1 double
63.72131103 
Tortuosity 1 1 double
1.0992183845 
POINT_DATA 1276
SCALARS MaximumInscribedSphereRadius float
LOOKUP_TABLE default
1.24 1.23138 1.22277 1.21415 1.20554 1.19692 1.18831 1.17969 1.17107 
1.16246 1.15384 1.14523 1.13661 1.128 1.11938 1.11077 1.10215 1.09353 
1.08492 1.0763 1.06769 1.0593 1.05303 1.04676 1.04049 1.03422 1.02794 
1.02167 1.0154 1.00913 1.00285 0.996581 0.990309 0.984037 0.977764 0.971492 
0.96522 0.958947 0.952675 0.946403 0.94013 0.93759 0.937209 0.936827 0.936446 
0.936064 0.935683 0.935301 0.93492 0.934538 0.934157 0.933775 0.933394 0.933012 
0.932631 0.932249 0.931868 0.931486 0.931105 0.930723 0.930342 0.93 0.93 
0.93 0.93 0.93 0.93 0.93 0.93 0.93 0.93 0.93 
0.93 0.93 0.93 0.93 0.93 0.93 0.93 0.93 0.93 
0.93 0.930176 0.930378 0.930579 0.930781 0.930982 0.931184 0.931385 0.931587 
0.931788 0.93199 0.932191 0.932393 0.932594 0.932796 0.932998 0.933199 0.933401 
0.933602 0.933804 0.934005 0.934303 0.934666 0.935028 0.935391 0.935753 0.936115 
0.936478 0.93684 0.937203 0.937565 0.937928 0.93829 0.938652 0.939015 0.939377 
0.93974 0.940102 0.940465 0.940827 0.941189 0.939353 0.933336 0.927319 0.921302 
0.915285 0.909267 0.90325 0.897233 0.891216 0.885199 0.879182 0.873165 0.867148 
0.86113 0.855113 0.849096 0.843079 0.837062 0.831045 0.825027 0.819642 0.827061 
0.834481 0.841901 0.84932 0.85674 0.86416 0.871579 0.878999 0.886419 0.893838 
0.901258 0.908678 0.916097 0.923517 0.930937 0.938356 0.945776 0.953196 0.960615 
0.968035 0.966899 0.963977 0.961055 0.958133 0.955211 0.952289 0.949368 0.946446 
0.943524 0.940602 0.93768 0.934758 0.931837 0.928915 0.925993 0.923071 0.920149 
0.917227 0.914306 0.911384 0.907 0.901455 0.895909 0.890364 0.884819 0.879273 
0.873728 0.868183 0.862637 0.857092 0.851547 0.846001 0.840456 0.834911 0.829365 
0.82382 0.818275 0.812729 0.807184 0.801639 0.801623 0.816007 0.830391 0.844775 
0.85916 0.873544 0.887928 0.902312 0.916697 0.931081 0.945465 0.959849 0.974233 
0.988618 1.003 1.01739 1.03177 1.04615 1.06054 1.07492 1.08926 1.08033 
1.07141 1.06248 1.05355 1.04462 1.03569 1.02676 1.01784 1.00891 0.99998 
0.991051 0.982123 0.973195 0.964266 0.955338 0.94641 0.937481 0.928553 0.919625 
0.910696 0.904939 0.900373 0.895807 0.891241 0.886675 0.882109 0.877544 0.872977 
0.868412 0.863846 0.85928 0.854714 0.850148 0.845582 0.841016 0.83645 0.831884 
0.827318 0.822752 0.818186 0.823495 0.840891 0.858286 0.875681 0.893076 0.910471 
0.927866 0.945261 0.962656 0.980051 0.997446 1.01484 1.03224 1.04963 1.06703 
1.08442 1.10182 1.11921 1.13661 1.154 1.16726 1.16248 1.15771 1.15294 
1.14816 1.14339 1.13861 1.13384 1.12907 1.12429 1.11952 1.11474 1.10997 
1.1052 1.10042 1.09565 1.09087 1.0861 1.08132 1.07655 1.07178 1.07113 
1.07083 1.07053 1.07023 1.06992 1.06962 1.06932 1.06902 1.06872 1.06841 
1.06811 1.06781 1.06751 1.06721 1.0669 1.0666 1.0663 1.066 1.0657 
1.06539 1.07822 1.10008 1.12194 1.14381 1.16567 1.18753 1.20939 1.23125 
1.25312 1.27498 1.29684 1.3187 1.34057 1.36243 1.38429 1.40615 1.42801 
1.44988 1.47174 1.4936 1.50698 1.51714 1.5273 1.53746 1.54762 1.55778 
1.56794 1.5781 1.58826 1.59842 1.60858 1.61874 1.6289 1.63906 1.64922 
1.65938 1.66954 1.6797 1.68986 1.70002 1.71018 1.72034 1.6962 1.64788 
1.59956 1.55123 1.50291 1.45458 1.40626 1.35794 1.30961 1.26129 1.21297 
1.16464 1.11632 1.068 1.01967 0.971349 0.93031 0.932457 0.934605 0.936752 
0.9389 0.941047 0.943194 0.945342 0.947489 0.949637 0.951784 0.953931 0.956079 
0.958226 0.960374 0.962521 0.964668 0.966816 0.968963 0.971111 0.973258 0.980436 
0.989467 0.998497 1.00753 1.01656 1.02559 1.03462 1.04365 1.05268 1.06171 
1.07074 1.07977 1.0888 1.09783 1.10686 1.11589 1.12492 1.13395 1.14298 
1.15202 1.15805 1.16212 1.16619 1.17026 1.17433 1.1784 1.18247 1.18654 
1.19061 1.19468 1.19875 1.20282 1.20689 1.21097 1.21504 1.21911 1.22318 
1.22725 1.23132 1.23539 1.23831 1.2384 1.23848 1.23857 1.23865 1.23874 
1.23882 1.2389 1.23899 1.23907 1.23916 1.23924 1.23933 1.23941 1.2395 
1.23958 1.23966 1.23975 1.23983 1.23992 1.24 1.24013 1.24026 1.24039 
1.24053 1.24066 1.24079 1.24092 1.24105 1.24118 1.24131 1.24144 1.24157 
1.2417 1.24183 1.24196 1.24209 1.24222 1.24236 1.24249 1.24262 1.24561 
1.24958 1.25356 1.25753 1.2615 1.26548 1.26945 1.27342 1.2774 1.28137 
1.28534 1.28932 1.29329 1.29726 1.30124 1.30521 1.30918 1.31316 1.31713 
1.3211 1.32754 1.33669 1.34583 1.35498 1.36413 1.37328 1.38243 1.39157 
1.40072 1.40987 1.41902 1.42817 1.43731 1.44646 1.45561 1.46476 1.47391 
1.48305 1.4922 1.50135 1.50887 1.51203 1.5152 1.51836 1.52152 1.52469 
1.52785 1.53101 1.53417 1.53734 1.5405 1.54366 1.54683 1.54999 1.55315 
1.55632 1.55948 1.56264 1.56581 1.56897 1.57188 1.56623 1.56059 1.55495 
1.54931 1.54367 1.53803 1.53238 1.52674 1.5211 1.51546 1.50982 1.50417 
1.49853 1.49289 1.48725 1.48161 1.47596 1.47032 1.46468 1.45904 1.45143 
1.44318 1.43493 1.42668 1.41842 1.41017 1.40192 1.39367 1.38542 1.37717 
1.36892 1.36066 1.35241 1.34416 1.33591 1.32766 1.31941 1.31116 1.30291 
1.29465 1.293 1.29861 1.30422 1.30983 1.31544 1.32105 1.32666 1.33227 
1.33788 1.34349 1.3491 1.35471 1.36032 1.36593 1.37154 1.37716 1.38277 
1.38838 1.39399 1.3996 1.40531 1.41145 1.41759 1.42373 1.42987 1.43601 
1.44215 1.4483 1.45444 1.46058 1.46672 1.47286 1.479 1.48514 1.49128 
1.49742 1.50356 1.5097 1.51584 1.52198 1.52812 1.52962 1.53067 1.53172 
1.53278 1.53383 1.53488 1.53593 1.53698 1.53804 1.53909 1.54014 1.54119 
1.54225 1.5433 1.54435 1.5454 1.54645 1.54751 1.54856 1.54961 1.54671 
1.54148 1.53624 1.53101 1.52578 1.52055 1.51532 1.51008 1.50485 1.49962 
1.49439 1.48916 1.48392 1.47869 1.47346 1.46823 1.463 1.45776 1.45253 
1.4473 1.44092 1.43236 1.42381 1.41525 1.4067 1.39814 1.38959 1.38103 
1.37248 1.36392 1.35537 1.34681 1.33826 1.3297 1.32115 1.31259 1.30404 
1.29548 1.28693 1.27838 1.27027 1.26878 1.26728 1.26578 1.26428 1.26279 
1.26129 1.25979 1.25829 1.2568 1.2553 1.2538 1.2523 1.25081 1.24931 
1.24781 1.24631 1.24482 1.24332 1.24182 1.24032 1.24573 1.25303 1.26033 
1.26763 1.27493 1.28224 1.28954 1.29684 1.30414 1.31144 1.31875 1.32605 
1.33335 1.34065 1.34796 1.35526 1.36256 1.36986 1.37716 1.38447 1.39697 
1.41467 1.43236 1.45005 1.46775 1.48544 1.50313 1.52083 1.53852 1.55621 
1.57391 1.5916 1.60929 1.62699 1.64468 1.66237 1.68007 1.69776 1.71545 
1.73315 1.74676 1.74567 1.74457 1.74348 1.74238 1.74129 1.74019 1.7391 
1.738 1.73691 1.73581 1.73472 1.73362 1.73253 1.73143 1.73034 1.72924 
1.72815 1.72705 1.72596 1.72486 1.71618 1.70696 1.69774 1.68852 1.6793 
1.67008 1.66086 1.65165 1.64243 1.63321 1.62399 1.61477 1.60555 1.59633 
1.58712 1.5779 1.56868 1.55946 1.55024 1.54102 1.53173 1.52239 1.51305 
1.50371 1.49438 1.48504 1.4757 1.46636 1.45703 1.44769 1.43835 1.42901 
1.41968 1.41034 1.401 1.39166 1.38233 1.37299 1.36365 1.35431 1.34905 
1.35083 1.35261 1.35438 1.35616 1.35794 1.35972 1.36149 1.36327 1.36505 
1.36683 1.3686 1.37038 1.37216 1.37394 1.37571 1.37749 1.37927 1.38104 
1.38282 1.38572 1.40083 1.41595 1.43106 1.44617 1.46128 1.47639 1.49151 
1.50662 1.52173 1.53684 1.55195 1.56707 1.58218 1.59729 1.6124 1.62752 
1.64263 1.65774 1.67285 1.68796 1.69599 1.70226 1.70854 1.71481 1.72109 
1.72737 1.73364 1.73992 1.74619 1.75247 1.75875 1.76502 1.7713 1.77757 
1.78385 1.79013 1.7964 1.80268 1.80895 1.81523 1.82068 1.82536 1.83005 
1.83474 1.83942 1.84411 1.84879 1.85348 1.85817 1.86285 1.86754 1.87223 
1.87691 1.8816 1.88628 1.89097 1.89566 1.90034 1.90503 1.90972 1.9151 
1.92268 1.93025 1.93782 1.94539 1.95296 1.96053 1.9681 1.97567 1.98324 
1.99081 1.99839 2.00596 2.01353 2.0211 2.02867 2.03624 2.04381 2.05138 
2.05895 2.06652 2.05623 2.04534 2.03445 2.02356 2.01267 2.00178 1.99089 
1.98 1.96911 1.95822 1.94732 1.93643 1.92554 1.91465 1.90376 1.89287 
1.88198 1.87109 1.8602 1.84931 1.82923 1.80511 1.78099 1.75687 1.73276 
1.70864 1.68452 1.6604 1.63628 1.61217 1.58805 1.56393 1.53981 1.51569 
1.49158 1.46746 1.44334 1.41922 1.3951 1.37098 1.35847 1.36194 1.36542 
1.36889 1.37236 1.37584 1.37931 1.38278 1.38625 1.38973 1.3932 1.39667 
1.40015 1.40362 1.40709 1.41057 1.41404 1.41751 1.42098 1.42446 1.42782 
1.43053 1.43323 1.43594 1.43864 1.44135 1.44405 1.44676 1.44946 1.45217 
1.45487 1.45757 1.46028 1.46298 1.46569 1.46839 1.4711 1.4738 1.47651 
1.47921 1.48192 1.47511 1.46673 1.45836 1.44998 1.4416 1.43323 1.42485 
1.41648 1.4081 1.39972 1.39135 1.38297 1.3746 1.36622 1.35784 1.34947 
1.34109 1.33272 1.32434 1.31596 1.31081 1.30803 1.30526 1.30248 1.2997 
1.29693 1.29415 1.29138 1.2886 1.28583 1.28305 1.28028 1.2775 1.27473 
1.27195 1.26918 1.2664 1.26363 1.26085 1.25808 1.25738 1.26172 1.26606 
1.27041 1.27475 1.27909 1.28344 1.28778 1.29212 1.29647 1.30081 1.30515 
1.30949 1.31384 1.31818 1.32252 1.32687 1.33121 1.33555 1.3399 1.34434 
1.35973 1.37511 1.39049 1.40588 1.42126 1.43664 1.45203 1.46741 1.48279 
1.49818 1.51356 1.52895 1.54433 1.55971 1.5751 1.59048 1.60586 1.62125 
1.63663 1.65201 1.66047 1.66635 1.67224 1.67812 1.684 1.68989 1.69577 
1.70165 1.70754 1.71342 1.7193 1.72519 1.73107 1.73695 1.74284 1.74872 
1.7546 1.76049 1.76637 1.77225 1.77237 1.76548 1.75859 1.7517 1.74481 
1.73792 1.73103 1.72414 1.71725 1.71037 1.70348 1.69659 1.6897 1.68281 
1.67592 1.66903 1.66214 1.65525 1.64836 1.64147 1.63666 1.64126 1.64586 
1.65045 1.65505 1.65965 1.66425 1.66884 1.67344 1.67804 1.68264 1.68723 
1.69183 1.69643 1.70103 1.70562 1.71022 1.71482 1.71942 1.72401 1.72861 
1.72679 1.72442 1.72204 1.71967 1.71729 1.71491 1.71254 1.71016 1.70778 
1.70541 1.70303 1.70066 1.69828 1.6959 1.69353 1.69115 1.68877 1.6864 
1.68402 1.68165 1.66959 1.65266 1.63573 1.6188 1.60187 1.58495 1.56802 
1.55109 1.53416 1.51723 1.5003 1.48337 1.46645 1.44952 1.43259 1.41566 
1.39873 1.3818 1.36488 1.34795 1.33973 1.34442 1.34911 1.3538 1.35849 
1.36318 1.36787 1.37256 1.37725 1.38194 1.38663 1.39133 1.39602 1.40071 
1.4054 1.41009 1.41478 1.41947 1.42416 1.42885 1.43374 1.44003 1.44632 
1.45261 1.4589 1.46519 1.47148 1.47777 1.48405 1.49034 1.49663 1.50292 
1.50921 1.5155 1.52179 1.52808 1.53437 1.54066 1.54695 1.55324 1.55953 
1.56015 1.56011 1.56007 1.56004 1.56 1.55996 1.55993 1.55989 1.55985 
1.55982 1.55978 1.55975 1.55971 1.55967 1.55964 1.5596 1.55956 1.55953 
1.55949 1.55945 1.55946 1.55954 1.55961 1.55969 1.55977 1.55985 1.55992 
1.56 1.56008 1.56016 1.56023 1.56031 1.56039 1.56047 1.56054 1.56062 
1.5607 1.56078 1.56085 1.56093 1.5618 1.56276 1.56372 1.56468 1.56564 
1.5666 1.56756 1.56852 1.56948 1.57044 1.5714 1.57236 1.57332 1.57428 
1.57524 1.5762 1.57716 1.57812 1.57908 1.58004 1.581 
TEXTURE_COORDINATES TCoords 2 float
0 0 0.000784314 0 0.00156863 0 0.00235294 0 0.00313725 
0 0.00392157 0 0.00470588 0 0.0054902 0 0.00627451 0 
0.00705882 0 0.00784314 0 0.00862745 0 0.00941176 0 0.0101961 
0 0.0109804 0 0.0117647 0 0.012549 0 0.0133333 0 
0.0141176 0 0.014902 0 0.0156863 0 0.0164706 0 0.0172549 
0 0.0180392 0 0.0188235 0 0.0196078 0 0.0203922 0 
0.0211765 0 0.0219608 0 0.0227451 0 0.0235294 0 0.0243137 
0 0.025098 0 0.0258824 0 0.0266667 0 0.027451 0 
0.0282353 0 0.0290196 0 0.0298039 0 0.0305882 0 0.0313726 
0 0.0321569 0 0.0329412 0 0.0337255 0 0.0345098 0 
0.0352941 0 0.0360784 0 0.0368627 0 0.0376471 0 0.0384314 
0 0.0392157 0 0.04 0 0.0407843 0 0.0415686 0 
0.0423529 0 0.0431373 0 0.0439216 0 0.0447059 0 0.0454902 
0 0.0462745 0 0.0470588 0 0.0478431 0 0.0486275 0 
0.0494118 0 0.0501961 0 0.0509804 0 0.0517647 0 0.052549 
0 0.0533333 0 0.0541176 0 0.054902 0 0.0556863 0 
0.0564706 0 0.0572549 0 0.0580392 0 0.0588235 0 0.0596078 
0 0.0603922 0 0.0611765 0 0.0619608 0 0.0627451 0 
0.0635294 0 0.0643137 0 0.065098 0 0.0658824 0 0.0666667 
0 0.067451 0 0.0682353 0 0.0690196 0 0.0698039 0 
0.0705882 0 0.0713725 0 0.0721569 0 0.0729412 0 0.0737255 
0 0.0745098 0 0.0752941 0 0.0760784 0 0.0768627 0 
0.0776471 0 0.0784314 0 0.0792157 0 0.08 0 0.0807843 
0 0.0815686 0 0.0823529 0 0.0831373 0 0.0839216 0 
0.0847059 0 0.0854902 0 0.0862745 0 0.0870588 0 0.0878431 
0 0.0886275 0 0.0894118 0 0.0901961 0 0.0909804 0 
0.0917647 0 0.092549 0 0.0933333 0 0.0941176 0 0.094902 
0 0.0956863 0 0.0964706 0 0.0972549 0 0.0980392 0 
0.0988235 0 0.0996078 0 0.100392 0 0.101176 0 0.101961 
0 0.102745 0 0.103529 0 0.104314 0 0.105098 0 
0.105882 0 0.106667 0 0.107451 0 0.108235 0 0.10902 
0 0.109804 0 0.110588 0 0.111373 0 0.112157 0 
0.112941 0 0.113725 0 0.11451 0 0.115294 0 0.116078 
0 0.116863 0 0.117647 0 0.118431 0 0.119216 0 
0.12 0 0.120784 0 0.121569 0 0.122353 0 0.123137 
0 0.123922 0 0.124706 0 0.12549 0 0.126275 0 
0.127059 0 0.127843 0 0.128627 0 0.129412 0 0.130196 
0 0.13098 0 0.131765 0 0.132549 0 0.133333 0 
0.134118 0 0.134902 0 0.135686 0 0.136471 0 0.137255 
0 0.138039 0 0.138824 0 0.139608 0 0.140392 0 
0.141176 0 0.141961 0 0.142745 0 0.143529 0 0.144314 
0 0.145098 0 0.145882 0 0.146667 0 0.147451 0 
0.148235 0 0.14902 0 0.149804 0 0.150588 0 0.151373 
0 0.152157 0 0.152941 0 0.153725 0 0.15451 0 
0.155294 0 0.156078 0 0.156863 0 0.157647 0 0.158431 
0 0.159216 0 0.16 0 0.160784 0 0.161569 0 
0.162353 0 0.163137 0 0.163922 0 0.164706 0 0.16549 
0 0.166275 0 0.167059 0 0.167843 0 0.168627 0 
0.169412 0 0.170196 0 0.17098 0 0.171765 0 0.172549 
0 0.173333 0 0.174118 0 0.174902 0 0.175686 0 
0.176471 0 0.177255 0 0.178039 0 0.178824 0 0.179608 
0 0.180392 0 0.181176 0 0.181961 0 0.182745 0 
0.183529 0 0.184314 0 0.185098 0 0.185882 0 0.186667 
0 0.187451 0 0.188235 0 0.18902 0 0.189804 0 
0.190588 0 0.191373 0 0.192157 0 0.192941 0 0.193725 
0 0.19451 0 0.195294 0 0.196078 0 0.196863 0 
0.197647 0 0.198431 0 0.199216 0 0.2 0 0.200784 
0 0.201569 0 0.202353 0 0.203137 0 0.203922 0 
0.204706 0 0.20549 0 0.206275 0 0.207059 0 0.207843 
0 0.208627 0 0.209412 0 0.210196 0 0.21098 0 
0.211765 0 0.212549 0 0.213333 0 0.214118 0 0.214902 
0 0.215686 0 0.216471 0 0.217255 0 0.218039 0 
0.218824 0 0.219608 0 0.220392 0 0.221176 0 0.221961 
0 0.222745 0 0.223529 0 0.224314 0 0.225098 0 
0.225882 0 0.226667 0 0.227451 0 0.228235 0 0.22902 
0 0.229804 0 0.230588 0 0.231373 0 0.232157 0 
0.232941 0 0.233725 0 0.23451 0 0.235294 0 0.236078 
0 0.236863 0 0.237647 0 0.238431 0 0.239216 0 
0.24 0 0.240784 0 0.241569 0 0.242353 0 0.243137 
0 0.243922 0 0.244706 0 0.24549 0 0.246275 0 
0.247059 0 0.247843 0 0.248627 0 0.249412 0 0.250196 
0 0.25098 0 0.251765 0 0.252549 0 0.253333 0 
0.254118 0 0.254902 0 0.255686 0 0.256471 0 0.257255 
0 0.258039 0 0.258824 0 0.259608 0 0.260392 0 
0.261176 0 0.261961 0 0.262745 0 0.263529 0 0.264314 
0 0.265098 0 0.265882 0 0.266667 0 0.267451 0 
0.268235 0 0.26902 0 0.269804 0 0.270588 0 0.271373 
0 0.272157 0 0.272941 0 0.273725 0 0.27451 0 
0.275294 0 0.276078 0 0.276863 0 0.277647 0 0.278431 
0 0.279216 0 0.28 0 0.280784 0 0.281569 0 
0.282353 0 0.283137 0 0.283922 0 0.284706 0 0.28549 
0 0.286275 0 0.287059 0 0.287843 0 0.288627 0 
0.289412 0 0.290196 0 0.29098 0 0.291765 0 0.292549 
0 0.293333 0 0.294118 0 0.294902 0 0.295686 0 
0.296471 0 0.297255 0 0.298039 0 0.298824 0 0.299608 
0 0.300392 0 0.301176 0 0.301961 0 0.302745 0 
0.303529 0 0.304314 0 0.305098 0 0.305882 0 0.306667 
0 0.307451 0 0.308235 0 0.30902 0 0.309804 0 
0.310588 0 0.311373 0 0.312157 0 0.312941 0 0.313726 
0 0.31451 0 0.315294 0 0.316078 0 0.316863 0 
0.317647 0 0.318431 0 0.319216 0 0.32 0 0.320784 
0 0.321569 0 0.322353 0 0.323137 0 0.323922 0 
0.324706 0 0.32549 0 0.326275 0 0.327059 0 0.327843 
0 0.328627 0 0.329412 0 0.330196 0 0.33098 0 
0.331765 0 0.332549 0 0.333333 0 0.334118 0 0.334902 
0 0.335686 0 0.336471 0 0.337255 0 0.338039 0 
0.338824 0 0.339608 0 0.340392 0 0.341176 0 0.341961 
0 0.342745 0 0.343529 0 0.344314 0 0.345098 0 
0.345882 0 0.346667 0 0.347451 0 0.348235 0 0.34902 
0 0.349804 0 0.350588 0 0.351373 0 0.352157 0 
0.352941 0 0.353725 0 0.35451 0 0.355294 0 0.356078 
0 0.356863 0 0.357647 0 0.358431 0 0.359216 0 
0.36 0 0.360784 0 0.361569 0 0.362353 0 0.363137 
0 0.363922 0 0.364706 0 0.36549 0 0.366275 0 
0.367059 0 0.367843 0 0.368627 0 0.369412 0 0.370196 
0 0.37098 0 0.371765 0 0.372549 0 0.373333 0 
0.374118 0 0.374902 0 0.375686 0 0.376471 0 0.377255 
0 0.378039 0 0.378824 0 0.379608 0 0.380392 0 
0.381176 0 0.381961 0 0.382745 0 0.383529 0 0.384314 
0 0.385098 0 0.385882 0 0.386667 0 0.387451 0 
0.388235 0 0.38902 0 0.389804 0 0.390588 0 0.391373 
0 0.392157 0 0.392941 0 0.393725 0 0.39451 0 
0.395294 0 0.396078 0 0.396863 0 0.397647 0 0.398431 
0 0.399216 0 0.4 0 0.400784 0 0.401569 0 
0.402353 0 0.403137 0 0.403922 0 0.404706 0 0.40549 
0 0.406274 0 0.407059 0 0.407843 0 0.408627 0 
0.409412 0 0.410196 0 0.41098 0 0.411765 0 0.412549 
0 0.413333 0 0.414118 0 0.414902 0 0.415686 0 
0.416471 0 0.417255 0 0.418039 0 0.418824 0 0.419608 
0 0.420392 0 0.421176 0 0.421961 0 0.422745 0 
0.423529 0 0.424314 0 0.425098 0 0.425882 0 0.426667 
0 0.427451 0 0.428235 0 0.42902 0 0.429804 0 
0.430588 0 0.431373 0 0.432157 0 0.432941 0 0.433725 
0 0.43451 0 0.435294 0 0.436078 0 0.436863 0 
0.437647 0 0.438431 0 0.439216 0 0.44 0 0.440784 
0 0.441569 0 0.442353 0 0.443137 0 0.443922 0 
0.444706 0 0.44549 0 0.446275 0 0.447059 0 0.447843 
0 0.448627 0 0.449412 0 0.450196 0 0.45098 0 
0.451765 0 0.452549 0 0.453333 0 0.454118 0 0.454902 
0 0.455686 0 0.456471 0 0.457255 0 0.458039 0 
0.458824 0 0.459608 0 0.460392 0 0.461176 0 0.461961 
0 0.462745 0 0.463529 0 0.464314 0 0.465098 0 
0.465882 0 0.466667 0 0.467451 0 0.468235 0 0.46902 
0 0.469804 0 0.470588 0 0.471373 0 0.472157 0 
0.472941 0 0.473725 0 0.47451 0 0.475294 0 0.476078 
0 0.476863 0 0.477647 0 0.478431 0 0.479216 0 
0.48 0 0.480784 0 0.481569 0 0.482353 0 0.483137 
0 0.483922 0 0.484706 0 0.48549 0 0.486275 0 
0.487059 0 0.487843 0 0.488627 0 0.489412 0 0.490196 
0 0.49098 0 0.491765 0 0.492549 0 0.493333 0 
0.494118 0 0.494902 0 0.495686 0 0.496471 0 0.497255 
0 0.498039 0 0.498824 0 0.499608 0 0.500392 0 
0.501176 0 0.501961 0 0.502745 0 0.503529 0 0.504314 
0 0.505098 0 0.505882 0 0.506667 0 0.507451 0 
0.508235 0 0.50902 0 0.509804 0 0.510588 0 0.511373 
0 0.512157 0 0.512941 0 0.513726 0 0.51451 0 
0.515294 0 0.516078 0 0.516863 0 0.517647 0 0.518431 
0 0.519216 0 0.52 0 0.520784 0 0.521569 0 
0.522353 0 0.523137 0 0.523922 0 0.524706 0 0.52549 
0 0.526275 0 0.527059 0 0.527843 0 0.528627 0 
0.529412 0 0.530196 0 0.53098 0 0.531765 0 0.532549 
0 0.533333 0 0.534118 0 0.534902 0 0.535686 0 
0.536471 0 0.537255 0 0.538039 0 0.538824 0 0.539608 
0 0.540392 0 0.541176 0 0.541961 0 0.542745 0 
0.543529 0 0.544314 0 0.545098 0 0.545882 0 0.546667 
0 0.547451 0 0.548235 0 0.54902 0 0.549804 0 
0.550588 0 0.551373 0 0.552157 0 0.552941 0 0.553725 
0 0.55451 0 0.555294 0 0.556078 0 0.556863 0 
0.557647 0 0.558431 0 0.559216 0 0.56 0 0.560784 
0 0.561569 0 0.562353 0 0.563137 0 0.563922 0 
0.564706 0 0.56549 0 0.566275 0 0.567059 0 0.567843 
0 0.568627 0 0.569412 0 0.570196 0 0.57098 0 
0.571765 0 0.572549 0 0.573333 0 0.574118 0 0.574902 
0 0.575686 0 0.576471 0 0.577255 0 0.578039 0 
0.578824 0 0.579608 0 0.580392 0 0.581176 0 0.581961 
0 0.582745 0 0.583529 0 0.584314 0 0.585098 0 
0.585882 0 0.586667 0 0.587451 0 0.588235 0 0.58902 
0 0.589804 0 0.590588 0 0.591373 0 0.592157 0 
0.592941 0 0.593726 0 0.59451 0 0.595294 0 0.596078 
0 0.596863 0 0.597647 0 0.598431 0 0.599216 0 
0.6 0 0.600784 0 0.601569 0 0.602353 0 0.603137 
0 0.603922 0 0.604706 0 0.60549 0 0.606274 0 
0.607059 0 0.607843 0 0.608627 0 0.609412 0 0.610196 
0 0.61098 0 0.611765 0 0.612549 0 0.613333 0 
0.614118 0 0.614902 0 0.615686 0 0.616471 0 0.617255 
0 0.618039 0 0.618824 0 0.619608 0 0.620392 0 
0.621176 0 0.621961 0 0.622745 0 0.623529 0 0.624314 
0 0.625098 0 0.625882 0 0.626667 0 0.627451 0 
0.628235 0 0.62902 0 0.629804 0 0.630588 0 0.631373 
0 0.632157 0 0.632941 0 0.633725 0 0.63451 0 
0.635294 0 0.636078 0 0.636863 0 0.637647 0 0.638431 
0 0.639216 0 0.64 0 0.640784 0 0.641569 0 
0.642353 0 0.643137 0 0.643922 0 0.644706 0 0.64549 
0 0.646275 0 0.647059 0 0.647843 0 0.648627 0 
0.649412 0 0.650196 0 0.65098 0 0.651765 0 0.652549 
0 0.653333 0 0.654118 0 0.654902 0 0.655686 0 