# vtk DataFile Version 4.2
vtk output
ASCII
DATASET POLYDATA
POINTS 1277 float
0 0 0 -0.00250728 0.00272699 0.00194473 -0.00983205 0.0106346 0.00763671 
-0.0216787 0.0233126 0.0168626 -0.0377517 0.040351 0.0294092 -0.0577553 0.0613396 0.0450631 
-0.081394 0.0858684 0.063611 -0.108372 0.113527 0.0848396 -0.138394 0.143906 0.108536 
-0.171165 0.176594 0.134486 -0.206388 0.211183 0.162476 -0.243768 0.24726 0.192295 
-0.283009 0.284418 0.223727 -0.323817 0.322244 0.25656 -0.365895 0.36033 0.290581 
-0.408947 0.398265 0.325576 -0.452679 0.43564 0.361332 -0.496794 0.472043 0.397636 
-0.540996 0.507064 0.434274 -0.584992 0.540295 0.471032 -0.628483 0.571324 0.507699 
-0.671176 0.599742 0.54406 -0.712862 0.62527 0.579961 -0.753569 0.647986 0.615409 
-0.793366 0.66803 0.650438 -0.832321 0.685541 0.685081 -0.870505 0.700657 0.719374 
-0.907984 0.713519 0.753349 -0.944829 0.724265 0.78704 -0.981107 0.733035 0.820482 
-1.01689 0.739967 0.853708 -1.05224 0.745201 0.886752 -1.08723 0.748876 0.919649 
-1.12193 0.751132 0.952431 -1.15641 0.752106 0.985134 -1.19074 0.751939 1.01779 
-1.22498 0.750769 1.05044 -1.2592 0.748736 1.0831 -1.29348 0.74598 1.11582 
-1.32788 0.742638 1.14864 -1.36247 0.73885 1.18157 -1.39731 0.734752 1.21466 
-1.43243 0.730399 1.24791 -1.46781 0.725774 1.28131 -1.50343 0.720854 1.31483 
-1.53926 0.715621 1.34845 -1.57528 0.710051 1.38216 -1.61148 0.704126 1.41593 
-1.64782 0.697823 1.44975 -1.68428 0.691121 1.48359 -1.72085 0.684001 1.51744 
-1.7575 0.676441 1.55127 -1.79421 0.66842 1.58506 -1.83096 0.659917 1.6188 
-1.86772 0.650911 1.65247 -1.90448 0.641382 1.68604 -1.94121 0.631308 1.7195 
-1.97789 0.620669 1.75282 -2.0145 0.609444 1.78599 -2.05101 0.597612 1.81899 
-2.08741 0.585151 1.85179 -2.12367 0.572042 1.88438 -2.15977 0.558274 1.91675 
-2.19573 0.543863 1.94888 -2.23155 0.528829 1.98079 -2.26724 0.51319 2.01248 
-2.3028 0.496964 2.04393 -2.33824 0.480171 2.07517 -2.37357 0.46283 2.10618 
-2.40879 0.444959 2.13698 -2.44392 0.426578 2.16755 -2.47895 0.407705 2.1979 
-2.5139 0.388359 2.22803 -2.54877 0.368558 2.25795 -2.58357 0.348323 2.28765 
-2.61831 0.327671 2.31713 -2.65299 0.306622 2.3464 -2.68762 0.285195 2.37545 
-2.72221 0.263407 2.40429 -2.75677 0.241279 2.43292 -2.7913 0.218829 2.46134 
-2.8258 0.196076 2.48955 -2.86029 0.173036 2.51755 -2.89477 0.149715 2.54534 
-2.92923 0.126115 2.57291 -2.96367 0.102239 2.60027 -2.99811 0.0780873 2.6274 
-3.03252 0.0536631 2.65432 -3.06693 0.0289681 2.681 -3.10132 0.00400447 2.70746 
-3.13569 -0.0212258 2.73368 -3.17005 -0.0467207 2.75967 -3.20439 -0.0724781 2.78542 
-3.23872 -0.0984959 2.81093 -3.27303 -0.124772 2.8362 -3.30733 -0.151305 2.86122 
-3.34161 -0.178092 2.88599 -3.37588 -0.205131 2.9105 -3.41013 -0.23242 2.93476 
-3.44436 -0.259958 2.95876 -3.47858 -0.287741 2.9825 -3.51278 -0.315769 3.00597 
-3.54697 -0.344039 3.02918 -3.58114 -0.372548 3.05211 -3.6153 -0.401293 3.07476 
-3.64944 -0.430273 3.09714 -3.68357 -0.459484 3.11923 -3.71769 -0.488923 3.14103 
-3.75181 -0.518587 3.16254 -3.78591 -0.548474 3.18375 -3.82001 -0.578582 3.20465 
-3.8541 -0.608906 3.22525 -3.88818 -0.639445 3.24553 -3.92227 -0.670195 3.2655 
-3.95635 -0.701154 3.28515 -3.99043 -0.73232 3.30447 -4.02451 -0.763688 3.32346 
-4.0586 -0.795257 3.34212 -4.09268 -0.827024 3.36044 -4.12678 -0.858985 3.37841 
-4.16087 -0.891139 3.39604 -4.19498 -0.923482 3.41331 -4.22909 -0.956011 3.43023 
-4.26321 -0.988725 3.44678 -4.29733 -1.02162 3.46297 -4.33146 -1.05469 3.47879 
-4.3656 -1.08795 3.49423 -4.39973 -1.12137 3.50928 -4.43387 -1.15497 3.52394 
-4.468 -1.18874 3.53821 -4.50213 -1.22268 3.55208 -4.53626 -1.25678 3.56554 
-4.57038 -1.29105 3.57859 -4.60449 -1.32547 3.59122 -4.63859 -1.36006 3.60343 
-4.67268 -1.3948 3.61521 -4.70675 -1.4297 3.62655 -4.74081 -1.46475 3.63746 
-4.77486 -1.49995 3.64792 -4.80888 -1.5353 3.65793 -4.84289 -1.57079 3.66748 
-4.87687 -1.60642 3.67657 -4.91084 -1.6422 3.68519 -4.94477 -1.67811 3.69333 
-4.97867 -1.71417 3.70096 -5.01253 -1.75037 3.70805 -5.04634 -1.78672 3.71455 
-5.08009 -1.82322 3.72044 -5.11378 -1.85988 3.72569 -5.14739 -1.89669 3.73025 
-5.18091 -1.93366 3.73409 -5.21435 -1.97079 3.73718 -5.24768 -2.00809 3.73949 
-5.28091 -2.04556 3.74097 -5.31402 -2.0832 3.7416 -5.34701 -2.12102 3.74135 
-5.37986 -2.15901 3.74016 -5.41257 -2.19718 3.73802 -5.44513 -2.23554 3.73489 
-5.47754 -2.27408 3.73073 -5.50978 -2.31282 3.72551 -5.54184 -2.35174 3.7192 
-5.57373 -2.39086 3.71175 -5.60541 -2.43018 3.70315 -5.63685 -2.46964 3.69336 
-5.66797 -2.50921 3.68237 -5.6987 -2.54884 3.67018 -5.72899 -2.58846 3.65677 
-5.75875 -2.62802 3.64212 -5.78793 -2.66748 3.62622 -5.81646 -2.70679 3.60905 
-5.84426 -2.74589 3.59061 -5.87128 -2.78472 3.57087 -5.89744 -2.82325 3.54983 
-5.92268 -2.86141 3.52747 -5.94693 -2.89915 3.50377 -5.97013 -2.93642 3.47873 
-5.99219 -2.97318 3.45232 -6.01307 -3.00936 3.42454 -6.03269 -3.04492 3.39537 
-6.05099 -3.07981 3.3648 -6.06789 -3.11397 3.33281 -6.08333 -3.14735 3.29939 
-6.09725 -3.1799 3.26453 -6.10965 -3.21161 3.22828 -6.12056 -3.24249 3.19073 
-6.13001 -3.27254 3.15196 -6.13803 -3.30175 3.11205 -6.14466 -3.33015 3.07108 
-6.14992 -3.35772 3.02912 -6.15384 -3.38448 2.98628 -6.15645 -3.41043 2.94261 
-6.15778 -3.43558 2.89821 -6.15787 -3.45992 2.85316 -6.15675 -3.48346 2.80754 
-6.15444 -3.5062 2.76143 -6.15097 -3.52816 2.71491 -6.14638 -3.54933 2.66806 
-6.1407 -3.56972 2.62097 -6.13395 -3.58933 2.57371 -6.12617 -3.60817 2.52637 
-6.11739 -3.62623 2.47903 -6.10763 -3.64353 2.43177 -6.09694 -3.66007 2.38467 
-6.08533 -3.67587 2.33776 -6.07285 -3.69097 2.29103 -6.05952 -3.70539 2.24449 
-6.04538 -3.71916 2.19812 -6.03045 -3.73233 2.15193 -6.01478 -3.74491 2.10592 
-5.9984 -3.75695 2.06008 -5.98133 -3.76848 2.0144 -5.9636 -3.77953 1.96889 
-5.94526 -3.79012 1.92355 -5.92634 -3.8003 1.87836 -5.90686 -3.81009 1.83333 
-5.88686 -3.81953 1.78845 -5.86637 -3.82864 1.74373 -5.84542 -3.83747 1.69915 
-5.82405 -3.84605 1.65471 -5.80228 -3.85439 1.61042 -5.78016 -3.86255 1.56627 
-5.75771 -3.87054 1.52225 -5.73496 -3.87841 1.47836 -5.71194 -3.88617 1.43461 
-5.68865 -3.89383 1.39099 -5.66511 -3.9014 1.34749 -5.64131 -3.90889 1.30412 
-5.61726 -3.9163 1.26088 -5.59297 -3.92365 1.21776 -5.56844 -3.93093 1.17477 
-5.54368 -3.93816 1.1319 -5.5187 -3.94534 1.08915 -5.4935 -3.95249 1.04653 
-5.46808 -3.9596 1.00402 -5.44246 -3.96669 0.96163 -5.41664 -3.97376 0.919358 
-5.39063 -3.98082 0.877204 -5.36442 -3.98787 0.835165 -5.33804 -3.99494 0.79324 
-5.31147 -4.00201 0.751428 -5.28474 -4.0091 0.709729 -5.25784 -4.01622 0.668141 
-5.23079 -4.02337 0.626662 -5.20358 -4.03057 0.585292 -5.17622 -4.03781 0.54403 
-5.14872 -4.04511 0.502873 -5.12109 -4.05247 0.46182 -5.09332 -4.05989 0.420869 
-5.06543 -4.06739 0.38002 -5.03742 -4.07498 0.339269 -5.00929 -4.08265 0.298616 
-4.98105 -4.09042 0.25806 -4.9527 -4.09829 0.217597 -4.92426 -4.10627 0.177228 
-4.89572 -4.11436 0.13695 -4.86709 -4.12258 0.0967613 -4.83838 -4.13092 0.056661 
-4.80958 -4.13941 0.0166472 -4.78072 -4.14803 -0.0232817 -4.75179 -4.15681 -0.0631273 
-4.72279 -4.16574 -0.102891 -4.69373 -4.17483 -0.142575 -4.66463 -4.18409 -0.18218 
-4.63547 -4.19354 -0.221708 -4.60627 -4.20316 -0.26116 -4.57704 -4.21297 -0.300535 
-4.54776 -4.22297 -0.339835 -4.51845 -4.23316 -0.379058 -4.48911 -4.24356 -0.418206 
-4.45973 -4.25416 -0.457279 -4.43034 -4.26498 -0.496276 -4.40092 -4.276 -0.535199 
-4.37148 -4.28725 -0.574047 -4.34203 -4.29872 -0.61282 -4.31256 -4.31041 -0.651519 
-4.28308 -4.32234 -0.690144 -4.2536 -4.33451 -0.728696 -4.22411 -4.34692 -0.767173 
-4.19462 -4.35958 -0.805578 -4.16514 -4.37249 -0.843909 -4.13565 -4.38566 -0.882167 
-4.10618 -4.39908 -0.920352 -4.07672 -4.41278 -0.958465 -4.04727 -4.42674 -0.996506 
-4.01784 -4.44098 -1.03447 -3.98844 -4.4555 -1.07236 -3.95907 -4.47031 -1.11017 
-3.92974 -4.48542 -1.14789 -3.90045 -4.50084 -1.18553 -3.87122 -4.51656 -1.22307 
-3.84205 -4.5326 -1.26052 -3.81294 -4.54897 -1.29787 -3.7839 -4.56567 -1.33512 
-3.75494 -4.58271 -1.37226 -3.72606 -4.60009 -1.40929 -3.69728 -4.61783 -1.44621 
-3.66859 -4.63592 -1.48301 -3.64001 -4.65438 -1.51969 -3.61154 -4.67322 -1.55625 
-3.58318 -4.69243 -1.59269 -3.55495 -4.71204 -1.62899 -3.52685 -4.73203 -1.66515 
-3.49889 -4.75243 -1.70118 -3.47107 -4.77324 -1.73707 -3.4434 -4.79446 -1.77282 
-3.41589 -4.8161 -1.80841 -3.38853 -4.83817 -1.84387 -3.36133 -4.86067 -1.87917 
-3.3343 -4.88361 -1.91432 -3.30744 -4.90699 -1.94932 -3.28075 -4.93083 -1.98416 
-3.25424 -4.95511 -2.01885 -3.22792 -4.97986 -2.05338 -3.20178 -5.00508 -2.08776 
-3.17583 -5.03077 -2.12197 -3.15007 -5.05694 -2.15602 -3.12452 -5.0836 -2.18991 
-3.09916 -5.11074 -2.22363 -3.07401 -5.13838 -2.25718 -3.04908 -5.16653 -2.29057 
-3.02435 -5.19518 -2.32379 -2.99985 -5.22434 -2.35683 -2.97557 -5.25403 -2.3897 
-2.95152 -5.28424 -2.4224 -2.9277 -5.31499 -2.45491 -2.90417 -5.34629 -2.4872 
-2.88098 -5.37818 -2.51921 -2.85816 -5.41068 -2.5509 -2.83579 -5.44382 -2.58222 
-2.81391 -5.47763 -2.61312 -2.79257 -5.51212 -2.64355 -2.77183 -5.54734 -2.67346 
-2.75173 -5.5833 -2.7028 -2.73233 -5.62004 -2.73153 -2.71369 -5.65757 -2.75959 
-2.69585 -5.69593 -2.78693 -2.67886 -5.73515 -2.81351 -2.66278 -5.77524 -2.83928 
-2.64766 -5.81625 -2.86419 -2.63355 -5.85818 -2.88819 -2.62051 -5.90108 -2.91122 
-2.60858 -5.94496 -2.93325 -2.59783 -5.98986 -2.95422 -2.58829 -6.0358 -2.97408 
-2.58002 -6.0828 -2.99279 -2.57304 -6.13078 -3.0103 -2.56737 -6.17962 -3.02658 
-2.56302 -6.22921 -3.04159 -2.55999 -6.27942 -3.0553 -2.55831 -6.33013 -3.06767 
-2.55797 -6.38122 -3.07866 -2.559 -6.43258 -3.08824 -2.5614 -6.48408 -3.09638 
-2.56518 -6.5356 -3.10302 -2.57037 -6.58703 -3.10815 -2.57696 -6.63824 -3.11172 
-2.58497 -6.68911 -3.1137 -2.59441 -6.73953 -3.11405 -2.6053 -6.78937 -3.11273 
-2.61764 -6.83852 -3.10971 -2.63144 -6.88685 -3.10495 -2.64672 -6.93424 -3.09842 
-2.6635 -6.98058 -3.09008 -2.68177 -7.02575 -3.0799 -2.70154 -7.06964 -3.06784 
-2.72275 -7.11223 -3.05398 -2.74533 -7.15355 -3.0384 -2.76921 -7.19361 -3.02118 
[...]
CELL_DATA 1
FIELD FieldData 2
Length 1 1 double
63.825965025 
Tortuosity 1 1 double
0.98368968271 
POINT_DATA 1277
SCALARS MaximumInscribedSphereRadius float
LOOKUP_TABLE default
0.62 0.629803 0.639606 0.649409 0.659212 0.669015 0.678818 0.688621 0.698424 
0.708227 0.71803 0.727833 0.737636 0.747439 0.757242 0.767045 0.776848 0.786651 
0.796454 0.806256 0.816059 0.824017 0.819536 0.815056 0.810575 0.806094 0.801614 
0.797133 0.792652 0.788171 0.783691 0.77921 0.774729 0.770249 0.765768 0.761287 
0.756806 0.752326 0.747845 0.743364 0.738883 0.733735 0.727989 0.722243 0.716496 
0.71075 0.705004 0.699257 0.693511 0.687765 0.682019 0.676272 0.670526 0.66478 
0.659034 0.653287 0.647541 0.641795 0.636049 0.630302 0.624556 0.621085 0.626325 
0.631564 0.636804 0.642044 0.647283 0.652523 0.657762 0.663002 0.668242 0.673481 
0.678721 0.68396 0.6892 0.69444 0.699679 0.704919 0.710158 0.715398 0.720638 
0.725877 0.744451 0.764009 0.783567 0.803125 0.822683 0.842241 0.861799 0.881357 
0.900915 0.920473 0.94003 0.959588 0.979146 0.998704 1.01826 1.03782 1.05738 
1.07694 1.09649 1.11605 1.12151 1.11951 1.11752 1.11553 1.11354 1.11155 
1.10956 1.10756 1.10557 1.10358 1.10159 1.0996 1.0976 1.09561 1.09362 
1.09163 1.08964 1.08765 1.08565 1.08366 1.07962 1.07219 1.06476 1.05733 
1.0499 1.04247 1.03504 1.02761 1.02018 1.01275 1.00531 0.997884 0.990454 
0.983023 0.975592 0.968162 0.960731 0.9533 0.94587 0.938439 0.932418 0.938789 
0.945161 0.951532 0.957903 0.964275 0.970646 0.977018 0.983389 0.989761 0.996132 
1.0025 1.00888 1.01525 1.02162 1.02799 1.03436 1.04073 1.0471 1.05348 
1.05985 1.07349 1.0883 1.10311 1.11792 1.13274 1.14755 1.16236 1.17717 
1.19199 1.2068 1.22161 1.23642 1.25123 1.26605 1.28086 1.29567 1.31048 
1.32529 1.34011 1.35492 1.33546 1.30558 1.2757 1.24583 1.21595 1.18607 
1.15619 1.12632 1.09644 1.06656 1.03668 1.00681 0.97693 0.947053 0.917176 
0.887299 0.857422 0.827544 0.797667 0.76779 0.762249 0.770067 0.777885 0.785703 
0.793521 0.801338 0.809156 0.816974 0.824792 0.83261 0.840427 0.848245 0.856063 
0.863881 0.871699 0.879516 0.887334 0.895152 0.90297 0.910788 0.915906 0.916403 
0.916901 0.917398 0.917895 0.918392 0.918889 0.919386 0.919883 0.920381 0.920878 
0.921375 0.921872 0.922369 0.922866 0.923364 0.923861 0.924358 0.924855 0.925352 
0.925671 0.924124 0.922576 0.921028 0.919481 0.917933 0.916386 0.914838 0.913291 
0.911743 0.910195 0.908648 0.9071 0.905553 0.904005 0.902458 0.90091 0.899363 
0.897815 0.896267 0.89472 0.900139 0.907266 0.914393 0.921519 0.928646 0.935773 
0.9429 0.950027 0.957154 0.964281 0.971408 0.978535 0.985662 0.992789 0.999916 
1.00704 1.01417 1.0213 1.02842 1.03555 1.04462 1.05547 1.06633 1.07719 
1.08804 1.0989 1.10976 1.12061 1.13147 1.14233 1.15318 1.16404 1.17489 
1.18575 1.19661 1.20746 1.21832 1.22918 1.24003 1.25089 1.25385 1.23191 
1.20998 1.18805 1.16612 1.14419 1.12225 1.10032 1.07839 1.05646 1.03453 
1.01259 0.990663 0.968731 0.946799 0.924867 0.902935 0.881003 0.859071 0.837139 
0.815207 0.807705 0.800516 0.793328 0.786139 0.77895 0.771762 0.764573 0.757384 
0.750196 0.743007 0.735818 0.728629 0.721441 0.714252 0.707063 0.699875 0.692686 
0.685497 0.678309 0.67112 0.684884 0.704953 0.725023 0.745092 0.765161 0.78523 
0.8053 0.825369 0.845438 0.865507 0.885577 0.905646 0.925715 0.945784 0.965854 
0.985923 1.00599 1.02606 1.04613 1.0662 1.07618 1.08553 1.09489 1.10424 
1.1136 1.12296 1.13231 1.14167 1.15102 1.16038 1.16974 1.17909 1.18845 
1.1978 1.20716 1.21652 1.22587 1.23523 1.24459 1.25394 1.26998 1.28841 
1.30684 1.32527 1.3437 1.36213 1.38056 1.39899 1.41742 1.43585 1.45428 
1.47271 1.49114 1.50957 1.528 1.54643 1.56486 1.58329 1.60172 1.62015 
1.63269 1.63893 1.64516 1.6514 1.65763 1.66387 1.6701 1.67634 1.68258 
1.68881 1.69505 1.70128 1.70752 1.71375 1.71999 1.72622 1.73246 1.7387 
1.74493 1.75117 1.75391 1.7437 1.73349 1.72328 1.71307 1.70286 1.69265 
1.68244 1.67223 1.66202 1.65181 1.6416 1.63139 1.62117 1.61096 1.60075 
1.59054 1.58033 1.57012 1.55991 1.5497 1.53961 1.52952 1.51944 1.50936 
1.49927 1.48919 1.47911 1.46902 1.45894 1.44886 1.43877 1.42869 1.41861 
1.40852 1.39844 1.38836 1.37827 1.36819 1.35811 1.34802 1.34117 1.33602 
1.33086 1.32571 1.32055 1.31539 1.31024 1.30508 1.29992 1.29477 1.28961 
1.28445 1.2793 1.27414 1.26899 1.26383 1.25867 1.25352 1.24836 1.2432 
1.24313 1.25139 1.25965 1.26791 1.27618 1.28444 1.2927 1.30096 1.30922 
1.31749 1.32575 1.33401 1.34227 1.35054 1.3588 1.36706 1.37532 1.38358 
1.39185 1.40011 1.41038 1.43542 1.46045 1.48549 1.51053 1.53556 1.5606 
1.58564 1.61067 1.63571 1.66075 1.68578 1.71082 1.73586 1.76089 1.78593 
1.81097 1.836 1.86104 1.88608 1.91111 1.90808 1.903 1.89793 1.89285 
1.88778 1.8827 1.87763 1.87256 1.86748 1.86241 1.85733 1.85226 1.84718 
1.84211 1.83703 1.83196 1.82688 1.82181 1.81673 1.81166 1.78097 1.74448 
1.70798 1.67149 1.63499 1.5985 1.562 1.52551 1.48901 1.45252 1.41602 
1.37953 1.34303 1.30654 1.27004 1.23355 1.19705 1.16056 1.12406 1.08757 
1.07601 1.08352 1.09103 1.09854 1.10605 1.11356 1.12107 1.12858 1.13609 
1.1436 1.15111 1.15862 1.16613 1.17364 1.18115 1.18866 1.19617 1.20369 
1.2112 1.21871 1.23027 1.25105 1.27183 1.29261 1.31339 1.33417 1.35495 
1.37573 1.39651 1.41729 1.43807 1.45885 1.47962 1.5004 1.52118 1.54196 
1.56274 1.58352 1.6043 1.62508 1.64549 1.65641 1.66732 1.67823 1.68914 
1.70005 1.71097 1.72188 1.73279 1.7437 1.75462 1.76553 1.77644 1.78735 
1.79827 1.80918 1.82009 1.831 1.84191 1.85283 1.86374 1.86466 1.86247 
1.86028 1.85809 1.85591 1.85372 1.85153 1.84934 1.84715 1.84496 1.84277 
1.84058 1.83839 1.83621 1.83402 1.83183 1.82964 1.82745 1.82526 1.82307 
1.81691 1.80648 1.79606 1.78563 1.77521 1.76478 1.75436 1.74393 1.73351 
1.72308 1.71266 1.70224 1.69181 1.68139 1.67096 1.66054 1.65011 1.63969 
1.62926 1.61884 1.60989 1.60691 1.60393 1.60094 1.59796 1.59498 1.592 
1.58902 1.58604 1.58305 1.58007 1.57709 1.57411 1.57113 1.56815 1.56516 
1.56218 1.5592 1.55622 1.55324 1.55026 1.54285 1.53503 1.52721 1.51939 
1.51157 1.50375 1.49592 1.4881 1.48028 1.47246 1.46464 1.45682 1.449 
1.44118 1.43336 1.42554 1.41771 1.40989 1.40207 1.39425 1.38676 1.37946 
1.37216 1.36486 1.35755 1.35025 1.34295 1.33565 1.32834 1.32104 1.31374 
1.30644 1.29913 1.29183 1.28453 1.27723 1.26992 1.26262 1.25532 1.24802 
1.24339 1.24322 1.24305 1.24288 1.24271 1.24254 1.24237 1.24219 1.24202 
1.24185 1.24168 1.24151 1.24134 1.24117 1.241 1.24083 1.24066 1.24049 
1.24032 1.24015 1.24015 1.24161 1.24306 1.24451 1.24596 1.24741 1.24886 
1.25031 1.25176 1.25322 1.25467 1.25612 1.25757 1.25902 1.26047 1.26192 
1.26337 1.26483 1.26628 1.26773 1.26918 1.27698 1.28605 1.29511 1.30418 
1.31324 1.32231 1.33137 1.34044 1.3495 1.35857 1.36763 1.3767 1.38576 
1.39483 1.40389 1.41296 1.42202 1.43109 1.44016 1.44922 1.45647 1.46228 
1.46808 1.47389 1.47969 1.4855 1.4913 1.49711 1.50291 1.50872 1.51452 
1.52033 1.52613 1.53194 1.53774 1.54355 1.54935 1.55516 1.56096 1.56677 
1.57026 1.56776 1.56526 1.56275 1.56025 1.55775 1.55525 1.55274 1.55024 
1.54774 1.54523 1.54273 1.54023 1.53772 1.53522 1.53272 1.53022 1.52771 
1.52521 1.52271 1.5202 1.51213 1.50404 1.49596 1.48787 1.47979 1.4717 
1.46362 1.45553 1.44745 1.43936 1.43128 1.42319 1.4151 1.40702 1.39893 
1.39085 1.38276 1.37468 1.36659 1.35851 1.36363 1.37391 1.38419 1.39447 
1.40474 1.41502 1.4253 1.43558 1.44585 1.45613 1.46641 1.47668 1.48696 
1.49724 1.50752 1.51779 1.52807 1.53835 1.54862 1.5589 1.57148 1.58697 
1.60245 1.61793 1.63342 1.6489 1.66438 1.67987 1.69535 1.71083 1.72632 
1.7418 1.75728 1.77277 1.78825 1.80373 1.81922 1.8347 1.85018 1.86567 
1.87706 1.8682 1.85934 1.85048 1.84162 1.83276 1.8239 1.81504 1.80618 
1.79732 1.78846 1.7796 1.77074 1.76189 1.75303 1.74417 1.73531 1.72645 
1.71759 1.70873 1.69987 1.68635 1.67227 1.65819 1.64411 1.63003 1.61595 
1.60186 1.58778 1.5737 1.55962 1.54554 1.53146 1.51738 1.5033 1.48922 
1.47514 1.46105 1.44697 1.43289 1.41881 1.41108 1.40739 1.4037 1.40002 
1.39633 1.39264 1.38896 1.38527 1.38158 1.37789 1.37421 1.37052 1.36683 
1.36315 1.35946 1.35577 1.35208 1.3484 1.34471 1.34102 1.34256 1.35489 
1.36722 1.37955 1.39188 1.40421 1.41654 1.42887 1.4412 1.45353 1.46586 
1.47819 1.49052 1.50285 1.51518 1.52751 1.53984 1.55216 1.56449 1.57682 
1.58943 1.6089 1.62836 1.64783 1.66729 1.68676 1.70622 1.72569 1.74515 
1.76462 1.78408 1.80355 1.82301 1.84248 1.86194 1.88141 1.90087 1.92034 
1.9398 1.95927 1.97873 1.99044 1.99964 2.00883 2.01803 2.02723 2.03643 
2.04562 2.05482 2.06402 2.07322 2.08241 2.09161 2.10081 2.11001 2.1192 
2.1284 2.1376 2.1468 2.15599 2.16519 2.16862 2.16573 2.16284 2.15995 
2.15706 2.15417 2.15128 2.14839 2.1455 2.14261 2.13972 2.13684 2.13395 
2.13106 2.12817 2.12528 2.12239 2.1195 2.11661 2.11372 2.10967 2.10115 
2.09263 2.0841 2.07558 2.06705 2.05853 2.05001 2.04148 2.03296 2.02444 
2.01591 2.00739 1.99886 1.99034 1.98182 1.97329 1.96477 1.95624 1.94772 
1.9392 1.93829 1.93789 1.93749 1.93709 1.9367 1.9363 1.9359 1.9355 
1.93511 1.93471 1.93431 1.93391 1.93351 1.93312 1.93272 1.93232 1.93192 
1.93153 1.93113 1.93073 1.93026 1.92976 1.92925 1.92875 1.92825 1.92774 
1.92724 1.92673 1.92623 1.92573 1.92522 1.92472 1.92421 1.92371 1.92321 
1.9227 1.9222 1.92169 1.92119 1.92069 1.91917 1.91618 1.9132 1.91022 
1.90724 1.90426 1.90127 1.89829 1.89531 1.89233 1.88935 1.88636 1.88338 
1.8804 1.87742 1.87444 1.87145 1.86847 1.86549 1.86251 1.8602 1.86146 
1.86272 1.86398 1.86524 1.86651 1.86777 1.86903 1.87029 1.87155 1.87281 
1.87407 1.87533 1.8766 1.87786 1.87912 1.88038 1.88164 1.8829 1.88416 
1.88542 1.89341 1.90208 1.91075 1.91942 1.92809 1.93676 1.94543 1.9541 
1.96277 1.97145 1.98012 1.98879 1.99746 2.00613 2.0148 2.02347 2.03214 
2.04081 2.04948 2.05815 2.06469 2.07006 2.07542 2.08078 2.08615 2.09151 
2.09688 2.10224 2.10761 2.11297 2.11834 2.1237 2.12907 2.13443 2.13979 
2.14516 2.15052 2.15589 2.16125 2.16662 2.17094 2.17348 2.17602 2.17856 
2.1811 2.18364 2.18618 2.18873 2.19127 2.19381 2.19635 2.19889 2.20143 
2.20397 2.20651 2.20905 2.2116 2.21414 2.21668 2.21922 2.22235 2.23173 
2.2411 2.25048 2.25985 2.26923 2.27861 2.28798 2.29736 2.30673 2.31611 
2.32548 2.33486 2.34423 2.35361 2.36298 2.37236 2.38173 2.39111 2.40049 
2.40986 2.40794 2.40316 2.39837 2.39359 2.3888 2.38402 2.37923 2.37445 
2.36966 2.36488 2.36009 2.35531 2.35052 2.34574 2.34095 2.33617 2.33138 
2.32659 2.32181 2.31702 2.3088 2.29655 2.28429 2.27204 2.25978 2.24753 
2.23528 2.22302 2.21077 2.19851 2.18626 2.174 2.16175 2.14949 2.13724 
2.12498 2.11273 2.10047 2.08822 2.07596 2.06547 2.0552 2.04493 2.03465 
2.02438 2.0141 2.00383 1.99356 1.98328 1.97301 1.96274 1.95246 1.94219 
1.93192 1.92164 1.91137 1.90109 1.89082 1.88055 1.87027 1.86 
TEXTURE_COORDINATES TCoords 2 float
0 0 0.000783699 0 0.0015674 0 0.0023511 0 0.0031348 
0 0.0039185 0 0.00470219 0 0.00548589 0 0.00626959 0 
0.00705329 0 0.00783699 0 0.00862069 0 0.00940439 0 0.0101881 
0 0.0109718 0 0.0117555 0 0.0125392 0 0.0133229 0 
0.0141066 0 0.0148903 0 0.015674 0 0.0164577 0 0.0172414 
0 0.0180251 0 0.0188088 0 0.0195925 0 0.0203762 0 
0.0211599 0 0.0219436 0 0.0227273 0 0.023511 0 0.0242947 
0 0.0250784 0 0.0258621 0 0.0266458 0 0.0274295 0 
0.0282132 0 0.0289969 0 0.0297806 0 0.0305643 0 0.031348 
0 0.0321317 0 0.0329154 0 0.0336991 0 0.0344828 0 
0.0352665 0 0.0360502 0 0.0368339 0 0.0376176 0 0.0384013 
0 0.039185 0 0.0399687 0 0.0407524 0 0.0415361 0 
0.0423197 0 0.0431034 0 0.0438871 0 0.0446708 0 0.0454545 
0 0.0462382 0 0.0470219 0 0.0478056 0 0.0485893 0 
0.049373 0 0.0501567 0 0.0509404 0 0.0517241 0 0.0525078 
0 0.0532915 0 0.0540752 0 0.0548589 0 0.0556426 0 
0.0564263 0 0.05721 0 0.0579937 0 0.0587774 0 0.0595611 
0 0.0603448 0 0.0611285 0 0.0619122 0 0.0626959 0 
0.0634796 0 0.0642633 0 0.065047 0 0.0658307 0 0.0666144 
0 0.0673981 0 0.0681818 0 0.0689655 0 0.0697492 0 
0.0705329 0 0.0713166 0 0.0721003 0 0.072884 0 0.0736677 
0 0.0744514 0 0.0752351 0 0.0760188 0 0.0768025 0 
0.0775862 0 0.0783699 0 0.0791536 0 0.0799373 0 0.080721 
0 0.0815047 0 0.0822884 0 0.0830721 0 0.0838558 0 
0.0846395 0 0.0854232 0 0.0862069 0 0.0869906 0 0.0877743 
0 0.088558 0 0.0893417 0 0.0901254 0 0.0909091 0 
0.0916928 0 0.0924765 0 0.0932602 0 0.0940439 0 0.0948276 
0 0.0956113 0 0.096395 0 0.0971787 0 0.0979624 0 
0.0987461 0 0.0995298 0 0.100313 0 0.101097 0 0.101881 
0 0.102665 0 0.103448 0 0.104232 0 0.105016 0 
0.105799 0 0.106583 0 0.107367 0 0.10815 0 0.108934 
0 0.109718 0 0.110502 0 0.111285 0 0.112069 0 
0.112853 0 0.113636 0 0.11442 0 0.115204 0 0.115987 
0 0.116771 0 0.117555 0 0.118339 0 0.119122 0 
0.119906 0 0.12069 0 0.121473 0 0.122257 0 0.123041 
0 0.123824 0 0.124608 0 0.125392 0 0.126176 0 
0.126959 0 0.127743 0 0.128527 0 0.12931 0 0.130094 
0 0.130878 0 0.131661 0 0.132445 0 0.133229 0 
0.134013 0 0.134796 0 0.13558 0 0.136364 0 0.137147 
0 0.137931 0 0.138715 0 0.139498 0 0.140282 0 
0.141066 0 0.14185 0 0.142633 0 0.143417 0 0.144201 
0 0.144984 0 0.145768 0 0.146552 0 0.147335 0 
0.148119 0 0.148903 0 0.149687 0 0.15047 0 0.151254 
0 0.152038 0 0.152821 0 0.153605 0 0.154389 0 
0.155172 0 0.155956 0 0.15674 0 0.157524 0 0.158307 
0 0.159091 0 0.159875 0 0.160658 0 0.161442 0 
0.162226 0 0.163009 0 0.163793 0 0.164577 0 0.16536 
0 0.166144 0 0.166928 0 0.167712 0 0.168495 0 
0.169279 0 0.170063 0 0.170846 0 0.17163 0 0.172414 
0 0.173197 0 0.173981 0 0.174765 0 0.175549 0 
0.176332 0 0.177116 0 0.1779 0 0.178683 0 0.179467 
0 0.180251 0 0.181034 0 0.181818 0 0.182602 0 
0.183386 0 0.184169 0 0.184953 0 0.185737 0 0.18652 
0 0.187304 0 0.188088 0 0.188871 0 0.189655 0 
0.190439 0 0.191223 0 0.192006 0 0.19279 0 0.193574 
0 0.194357 0 0.195141 0 0.195925 0 0.196708 0 
0.197492 0 0.198276 0 0.19906 0 0.199843 0 0.200627 
0 0.201411 0 0.202194 0 0.202978 0 0.203762 0 
0.204545 0 0.205329 0 0.206113 0 0.206897 0 0.20768 
0 0.208464 0 0.209248 0 0.210031 0 0.210815 0 
0.211599 0 0.212382 0 0.213166 0 0.21395 0 0.214734 
0 0.215517 0 0.216301 0 0.217085 0 0.217868 0 
0.218652 0 0.219436 0 0.220219 0 0.221003 0 0.221787 
0 0.222571 0 0.223354 0 0.224138 0 0.224922 0 
0.225705 0 0.226489 0 0.227273 0 0.228056 0 0.22884 
0 0.229624 0 0.230408 0 0.231191 0 0.231975 0 
0.232759 0 0.233542 0 0.234326 0 0.23511 0 0.235893 
0 0.236677 0 0.237461 0 0.238245 0 0.239028 0 
0.239812 0 0.240596 0 0.241379 0 0.242163 0 0.242947 
0 0.24373 0 0.244514 0 0.245298 0 0.246082 0 
0.246865 0 0.247649 0 0.248433 0 0.249216 0 0.25 
0 0.250784 0 0.251567 0 0.252351 0 0.253135 0 
0.253918 0 0.254702 0 0.255486 0 0.25627 0 0.257053 
0 0.257837 0 0.258621 0 0.259404 0 0.260188 0 
0.260972 0 0.261755 0 0.262539 0 0.263323 0 0.264107 
0 0.26489 0 0.265674 0 0.266458 0 0.267241 0 
0.268025 0 0.268809 0 0.269592 0 0.270376 0 0.27116 
0 0.271944 0 0.272727 0 0.273511 0 0.274295 0 
0.275078 0 0.275862 0 0.276646 0 0.277429 0 0.278213 
0 0.278997 0 0.279781 0 0.280564 0 0.281348 0 
0.282132 0 0.282915 0 0.283699 0 0.284483 0 0.285266 
0 0.28605 0 0.286834 0 0.287618 0 0.288401 0 
0.289185 0 0.289969 0 0.290752 0 0.291536 0 0.29232 
0 0.293103 0 0.293887 0 0.294671 0 0.295455 0 
0.296238 0 0.297022 0 0.297806 0 0.298589 0 0.299373 
0 0.300157 0 0.30094 0 0.301724 0 0.302508 0 
0.303292 0 0.304075 0 0.304859 0 0.305643 0 0.306426 
0 0.30721 0 0.307994 0 0.308777 0 0.309561 0 
0.310345 0 0.311129 0 0.311912 0 0.312696 0 0.31348 
0 0.314263 0 0.315047 0 0.315831 0 0.316614 0 
0.317398 0 0.318182 0 0.318966 0 0.319749 0 0.320533 
0 0.321317 0 0.3221 0 0.322884 0 0.323668 0 
0.324451 0 0.325235 0 0.326019 0 0.326803 0 0.327586 
0 0.32837 0 0.329154 0 0.329937 0 0.330721 0 
0.331505 0 0.332288 0 0.333072 0 0.333856 0 0.334639 
0 0.335423 0 0.336207 0 0.336991 0 0.337774 0 
0.338558 0 0.339342 0 0.340125 0 0.340909 0 0.341693 
0 0.342476 0 0.34326 0 0.344044 0 0.344828 0 
0.345611 0 0.346395 0 0.347179 0 0.347962 0 0.348746 
0 0.34953 0 0.350313 0 0.351097 0 0.351881 0 
0.352665 0 0.353448 0 0.354232 0 0.355016 0 0.355799 
0 0.356583 0 0.357367 0 0.35815 0 0.358934 0 
0.359718 0 0.360502 0 0.361285 0 0.362069 0 0.362853 
0 0.363636 0 0.36442 0 0.365204 0 0.365987 0 
0.366771 0 0.367555 0 0.368339 0 0.369122 0 0.369906 
0 0.37069 0 0.371473 0 0.372257 0 0.373041 0 
0.373824 0 0.374608 0 0.375392 0 0.376176 0 0.376959 
0 0.377743 0 0.378527 0 0.37931 0 0.380094 0 
0.380878 0 0.381661 0 0.382445 0 0.383229 0 0.384013 
0 0.384796 0 0.38558 0 0.386364 0 0.387147 0 
0.387931 0 0.388715 0 0.389498 0 0.390282 0 0.391066 
0 0.39185 0 0.392633 0 0.393417 0 0.394201 0 
0.394984 0 0.395768 0 0.396552 0 0.397335 0 0.398119 
0 0.398903 0 0.399687 0 0.40047 0 0.401254 0 
0.402038 0 0.402821 0 0.403605 0 0.404389 0 0.405172 
0 0.405956 0 0.40674 0 0.407524 0 0.408307 0 
0.409091 0 0.409875 0 0.410658 0 0.411442 0 0.412226 
0 0.413009 0 0.413793 0 0.414577 0 0.415361 0 
0.416144 0 0.416928 0 0.417712 0 0.418495 0 0.419279 
0 0.420063 0 0.420846 0 0.42163 0 0.422414 0 
0.423197 0 0.423981 0 0.424765 0 0.425549 0 0.426332 
0 0.427116 0 0.4279 0 0.428683 0 0.429467 0 
0.430251 0 0.431034 0 0.431818 0 0.432602 0 0.433386 
0 0.434169 0 0.434953 0 0.435737 0 0.43652 0 
0.437304 0 0.438088 0 0.438871 0 0.439655 0 0.440439 
0 0.441223 0 0.442006 0 0.44279 0 0.443574 0 
0.444357 0 0.445141 0 0.445925 0 0.446708 0 0.447492 
0 0.448276 0 0.44906 0 0.449843 0 0.450627 0 
0.451411 0 0.452194 0 0.452978 0 0.453762 0 0.454545 
0 0.455329 0 0.456113 0 0.456897 0 0.45768 0 
0.458464 0 0.459248 0 0.460031 0 0.460815 0 0.461599 
0 0.462382 0 0.463166 0 0.46395 0 0.464734 0 
0.465517 0 0.466301 0 0.467085 0 0.467868 0 0.468652 
0 0.469436 0 0.470219 0 0.471003 0 0.471787 0 
0.472571 0 0.473354 0 0.474138 0 0.474922 0 0.475705 
0 0.476489 0 0.477273 0 0.478056 0 0.47884 0 
0.479624 0 0.480408 0 0.481191 0 0.481975 0 0.482759 
0 0.483542 0 0.484326 0 0.48511 0 0.485893 0 
0.486677 0 0.487461 0 0.488245 0 0.489028 0 0.489812 
0 0.490596 0 0.491379 0 0.492163 0 0.492947 0 
0.49373 0 0.494514 0 0.495298 0 0.496082 0 0.496865 
0 0.497649 0 0.498433 0 0.499216 0 0.5 0 
0.500784 0 0.501567 0 0.502351 0 0.503135 0 0.503918 
0 0.504702 0 0.505486 0 0.50627 0 0.507053 0 
0.507837 0 0.508621 0 0.509404 0 0.510188 0 0.510972 
0 0.511755 0 0.512539 0 0.513323 0 0.514107 0 
0.51489 0 0.515674 0 0.516458 0 0.517241 0 0.518025 
0 0.518809 0 0.519592 0 0.520376 0 0.52116 0 
0.521944 0 0.522727 0 0.523511 0 0.524295 0 0.525078 
0 0.525862 0 0.526646 0 0.527429 0 0.528213 0 
0.528997 0 0.529781 0 0.530564 0 0.531348 0 0.532132 
0 0.532915 0 0.533699 0 0.534483 0 0.535266 0 
0.53605 0 0.536834 0 0.537618 0 0.538401 0 0.539185 
0 0.539969 0 0.540752 0 0.541536 0 0.54232 0 
0.543103 0 0.543887 0 0.544671 0 0.545455 0 0.546238 
0 0.547022 0 0.547806 0 0.548589 0 0.549373 0 
0.550157 0 0.55094 0 0.551724 0 0.552508 0 0.553292 
0 0.554075 0 0.554859 0 0.555643 0 0.556426 0 
0.55721 0 0.557994 0 0.558777 0 0.559561 0 0.560345 
0 0.561128 0 0.561912 0 0.562696 0 0.56348 0 
0.564263 0 0.565047 0 0.565831 0 0.566614 0 0.567398 
0 0.568182 0 0.568965 0 0.569749 0 0.570533 0 
0.571317 0 0.5721 0 0.572884 0 0.573668 0 0.574451 
0 0.575235 0 0.576019 0 0.576802 0 0.577586 0 
0.57837 0 0.579154 0 0.579937 0 0.580721 0 0.581505 
0 0.582288 0 0.583072 0 0.583856 0 0.584639 0 
0.585423 0 0.586207 0 0.586991 0 0.587774 0 0.588558 
0 0.589342 0 0.590125 0 0.590909 0 0.591693 0 
0.592476 0 0.59326 0 0.594044 0 0.594828 0 0.595611 
0 0.596395 0 0.597179 0 0.597962 0 0.598746 0 
0.59953 0 0.600313 0 0.601097 0 0.601881 0 0.602665 
0 0.603448 0 0.604232 0 0.605016 0 0.605799 0 
0.606583 0 0.607367 0 0.60815 0 0.608934 0 0.609718 
0 0.610502 0 0.611285 0 0.612069 0 0.612853 0 
0.613636 0 0.61442 0 0.615204 0 0.615987 0 0.616771 
0 0.617555 0 0.618339 0 0.619122 0 0.619906 0 
0.62069 0 0.621473 0 0.622257 0 0.623041 0 0.623824 
0 0.624608 0 0.625392 0 0.626176 0 0.626959 0 
0.627743 0 0.628527 0 0.62931 0 0.630094 0 0.630878 
0 0.631661 0 0.632445 0 0.633229 0 0.634013 0 
0.634796 0 0.63558 0 0.636364 0 0.637147 0 0.637931 
0 0.638715 0 0.639498 0 0.640282 0 0.641066 0 
0.64185 0 0.642633 0 0.643417 0 0.644201 0 0.644984 