# vtk DataFile Version 4.2
vtk output
ASCII
DATASET POLYDATA
POINTS 1277 float
0 0 0 -0.00377799 0.00118534 0.00097179 -0.0147988 0.00463468 0.00381329 
-0.0325928 0.010188 0.00841369 -0.0566902 0.0176852 0.0146622 -0.0866214 0.0269663 0.022448 
-0.121917 0.0378712 0.0316603 -0.162106 0.05024 0.0421882 -0.20672 0.0639125 0.0539211 
-0.255289 0.0787288 0.0667479 -0.307344 0.0945288 0.0805581 -0.362413 0.111152 0.0952407 
-0.420029 0.12844 0.110685 -0.479721 0.146231 0.12678 -0.541019 0.164365 0.143415 
-0.603453 0.182683 0.16048 -0.666555 0.201024 0.177862 -0.729854 0.219229 0.195453 
-0.792881 0.237138 0.21314 -0.855165 0.254589 0.230813 -0.916238 0.271424 0.248362 
-0.975629 0.287483 0.265674 -1.03299 0.302646 0.282667 -1.08837 0.316932 0.299344 
-1.14192 0.330389 0.315728 -1.19378 0.343066 0.331841 -1.24407 0.355009 0.347706 
-1.29295 0.366267 0.363345 -1.34054 0.376886 0.37878 -1.387 0.386916 0.394035 
-1.43246 0.396403 0.409132 -1.47705 0.405395 0.424094 -1.52092 0.413941 0.438942 
-1.56421 0.422087 0.4537 -1.60706 0.429881 0.46839 -1.6496 0.437372 0.483034 
-1.69198 0.444606 0.497656 -1.73432 0.451632 0.512277 -1.77679 0.458498 0.526921 
-1.8195 0.46525 0.541609 -1.86261 0.471937 0.556364 -1.90624 0.478606 0.571208 
-1.95045 0.485271 0.586147 -1.99521 0.49192 0.601172 -2.04048 0.498536 0.616271 
-2.08623 0.505105 0.631434 -2.13242 0.511612 0.646652 -2.17902 0.518041 0.661912 
-2.226 0.524376 0.677206 -2.27331 0.530604 0.692522 -2.32093 0.536709 0.707851 
-2.36881 0.542675 0.723181 -2.41694 0.548487 0.738502 -2.46526 0.55413 0.753804 
-2.51375 0.559589 0.769077 -2.56237 0.564849 0.78431 -2.61109 0.569894 0.799492 
-2.65987 0.574709 0.814613 -2.70867 0.579279 0.829663 -2.75747 0.583589 0.844631 
-2.80623 0.587624 0.859508 -2.85491 0.591368 0.874281 -2.90349 0.594811 0.888944 
-2.95198 0.597951 0.903492 -3.00038 0.600789 0.917922 -3.0487 0.603326 0.932233 
-3.09695 0.605562 0.946421 -3.14514 0.607498 0.960483 -3.19329 0.609134 0.974417 
-3.24139 0.610471 0.988219 -3.28945 0.611511 1.00189 -3.33749 0.612252 1.01542 
-3.38552 0.612697 1.02881 -3.43354 0.612845 1.04206 -3.48156 0.612698 1.05517 
-3.52959 0.612255 1.06812 -3.57765 0.611518 1.08093 -3.62573 0.610487 1.09358 
-3.67385 0.609162 1.10608 -3.72201 0.607545 1.11842 -3.77023 0.605636 1.13059 
-3.81851 0.603435 1.1426 -3.86687 0.600943 1.15445 -3.91529 0.598155 1.16612 
-3.96378 0.595066 1.17761 -4.01233 0.591672 1.18892 -4.06093 0.587966 1.20005 
-4.10957 0.583943 1.21098 -4.15826 0.579597 1.22171 -4.20699 0.574925 1.23225 
-4.25575 0.569919 1.24257 -4.30453 0.564575 1.25268 -4.35334 0.558887 1.26257 
-4.40216 0.552851 1.27224 -4.45099 0.54646 1.28168 -4.49983 0.53971 1.29089 
-4.54866 0.532594 1.29985 -4.59749 0.525108 1.30858 -4.64631 0.517247 1.31705 
-4.69511 0.509004 1.32527 -4.74389 0.500375 1.33323 -4.79264 0.491354 1.34093 
-4.84135 0.481936 1.34836 -4.89003 0.472115 1.35551 -4.93866 0.461882 1.36239 
-4.98724 0.451231 1.36899 -5.03575 0.440154 1.37531 -5.08419 0.428644 1.38134 
-5.13255 0.416693 1.38709 -5.18083 0.404295 1.39255 -5.22901 0.391441 1.39772 
-5.27708 0.378125 1.40259 -5.32505 0.364338 1.40716 -5.3729 0.350074 1.41144 
-5.42063 0.335325 1.41541 -5.46822 0.320084 1.41907 -5.51567 0.304344 1.42243 
-5.56296 0.288097 1.42547 -5.61011 0.271335 1.4282 -5.65708 0.254052 1.43062 
-5.70389 0.236239 1.43271 -5.75051 0.217891 1.43448 -5.79695 0.198998 1.43593 
-5.84319 0.179556 1.43706 -5.88921 0.159562 1.43787 -5.93501 0.139012 1.43837 
-5.98056 0.117904 1.43858 -6.02586 0.0962346 1.4385 -6.07089 0.0740009 1.43814 
-6.11563 0.0512001 1.43751 -6.16007 0.0278292 1.43663 -6.2042 0.00388528 1.43548 
-6.248 -0.0206345 1.4341 -6.29146 -0.0457331 1.43248 -6.33456 -0.0714134 1.43064 
-6.37729 -0.0976784 1.42858 -6.41964 -0.124531 1.42631 -6.46158 -0.151974 1.42385 
-6.50311 -0.180011 1.42119 -6.54421 -0.208643 1.41836 -6.58486 -0.237876 1.41535 
-6.62506 -0.26771 1.41218 -6.66478 -0.298149 1.40886 -6.70402 -0.329193 1.4054 
-6.74278 -0.360832 1.4018 -6.78104 -0.393052 1.3981 -6.81882 -0.425843 1.39429 
-6.8561 -0.459191 1.39041 -6.89289 -0.493084 1.38646 -6.92919 -0.52751 1.38247 
-6.96499 -0.562457 1.37844 -7.0003 -0.597913 1.37439 -7.03511 -0.633865 1.37034 
-7.06942 -0.670302 1.36631 -7.10323 -0.70721 1.3623 -7.13654 -0.744578 1.35834 
-7.16935 -0.782393 1.35445 -7.20165 -0.820643 1.35063 -7.23344 -0.859317 1.3469 
-7.26473 -0.898401 1.34329 -7.29551 -0.937883 1.33979 -7.32578 -0.977752 1.33644 
-7.35555 -1.01799 1.33325 -7.3848 -1.0586 1.33023 -7.41354 -1.09955 1.32738 
-7.4418 -1.14084 1.32472 -7.46959 -1.18245 1.32224 -7.49691 -1.22437 1.31996 
-7.52379 -1.26659 1.31787 -7.55022 -1.3091 1.31597 -7.57623 -1.35187 1.31428 
-7.60184 -1.39491 1.3128 -7.62704 -1.43819 1.31153 -7.65186 -1.4817 1.31047 
-7.67631 -1.52543 1.30963 -7.70039 -1.56937 1.30902 -7.72414 -1.61351 1.30863 
-7.74755 -1.65782 1.30847 -7.77064 -1.7023 1.30855 -7.79342 -1.74694 1.30887 
-7.8159 -1.79172 1.30943 -7.83811 -1.83663 1.31023 -7.86005 -1.88166 1.31129 
-7.88173 -1.92679 1.31261 -7.90317 -1.97202 1.31417 -7.92438 -2.01733 1.31598 
-7.94537 -2.06273 1.31802 -7.96615 -2.10821 1.32029 -7.98675 -2.15376 1.32277 
-8.00716 -2.19938 1.32546 -8.0274 -2.24505 1.32835 -8.04748 -2.29078 1.33142 
-8.06742 -2.33656 1.33468 -8.08723 -2.38239 1.3381 -8.10691 -2.42825 1.34169 
-8.12649 -2.47414 1.34543 -8.14598 -2.52006 1.34931 -8.16538 -2.566 1.35332 
-8.18471 -2.61195 1.35747 -8.20399 -2.65791 1.36172 -8.22321 -2.70388 1.36609 
-8.24241 -2.74984 1.37055 -8.26158 -2.7958 1.3751 -8.28074 -2.84174 1.37973 
-8.29991 -2.88766 1.38443 -8.31908 -2.93356 1.38918 -8.33828 -2.97945 1.39395 
-8.35751 -3.02532 1.39874 -8.37677 -3.07117 1.40351 -8.39609 -3.11701 1.40825 
-8.41546 -3.16282 1.41294 -8.43489 -3.20862 1.41757 -8.4544 -3.25441 1.4221 
-8.474 -3.30018 1.42652 -8.49369 -3.34593 1.43082 -8.51348 -3.39166 1.43497 
-8.53338 -3.43738 1.43895 -8.5534 -3.48309 1.44274 -8.57356 -3.52877 1.44633 
-8.59385 -3.57445 1.44969 -8.61429 -3.62011 1.4528 -8.63488 -3.66575 1.45565 
-8.65565 -3.71138 1.45821 -8.67658 -3.75699 1.46047 -8.6977 -3.80259 1.4624 
-8.71899 -3.84816 1.46396 -8.74044 -3.8937 1.46511 -8.76204 -3.93918 1.46581 
-8.78377 -3.98461 1.46601 -8.80562 -4.02997 1.46567 -8.82759 -4.07525 1.46475 
-8.84966 -4.12043 1.46321 -8.87181 -4.16552 1.461 -8.89404 -4.21048 1.45808 
-8.91634 -4.25533 1.45441 -8.93868 -4.30003 1.44994 -8.96107 -4.34459 1.44464 
-8.98348 -4.38899 1.43845 -9.00591 -4.43322 1.43135 -9.02834 -4.47727 1.42327 
-9.05076 -4.52113 1.41419 -9.07316 -4.56479 1.40406 -9.09553 -4.60823 1.39283 
-9.11785 -4.65145 1.38047 -9.14012 -4.69443 1.36693 -9.1623 -4.73715 1.35222 
-9.18435 -4.77961 1.33634 -9.20625 -4.82177 1.31932 -9.22796 -4.86363 1.30118 
-9.24943 -4.90516 1.28192 -9.27064 -4.94634 1.26157 -9.29156 -4.98716 1.24014 
-9.31213 -5.02759 1.21766 -9.33234 -5.06762 1.19412 -9.35214 -5.10723 1.16957 
-9.3715 -5.1464 1.144 -9.39038 -5.18511 1.11743 -9.40874 -5.22335 1.08989 
-9.42656 -5.26109 1.06139 -9.4438 -5.29831 1.03195 -9.46041 -5.335 1.00157 
-9.47638 -5.37114 0.970288 -9.49165 -5.40671 0.93811 -9.50619 -5.44169 0.905054 
-9.51998 -5.47606 0.871138 -9.53299 -5.50983 0.836391 -9.54525 -5.54302 0.800853 
-9.55675 -5.57564 0.764563 -9.56751 -5.60772 0.72756 -9.57753 -5.63928 0.689885 
-9.58683 -5.67033 0.651575 -9.5954 -5.70091 0.612671 -9.60327 -5.73102 0.573212 
-9.61044 -5.76069 0.533237 -9.61692 -5.78994 0.492786 -9.62272 -5.81879 0.451898 
-9.62784 -5.84725 0.410613 -9.6323 -5.87536 0.368969 -9.6361 -5.90312 0.327007 
-9.63925 -5.93056 0.284765 -9.64177 -5.95771 0.242284 -9.64365 -5.98457 0.199602 
-9.64492 -6.01117 0.156758 -9.64557 -6.03753 0.113793 -9.64562 -6.06367 0.0707456 
-9.64507 -6.08961 0.0276421 -9.64394 -6.11536 -0.015508 -9.64224 -6.14093 -0.0586966 
-9.63998 -6.16633 -0.101916 -9.63716 -6.19158 -0.145157 -9.6338 -6.21668 -0.188414 
-9.62991 -6.24165 -0.231676 -9.6255 -6.2665 -0.274938 -9.62058 -6.29125 -0.318189 
-9.61516 -6.3159 -0.361424 -9.60925 -6.34046 -0.404633 -9.60286 -6.36495 -0.447808 
-9.596 -6.38938 -0.490942 -9.58869 -6.41377 -0.534027 -9.58093 -6.43811 -0.577054 
-9.57273 -6.46244 -0.620016 -9.56411 -6.48674 -0.662905 -9.55507 -6.51105 -0.705712 
-9.54562 -6.53537 -0.748429 -9.53578 -6.55971 -0.79105 -9.52556 -6.58409 -0.833565 
-9.51495 -6.6085 -0.87597 -9.50398 -6.63296 -0.918259 -9.49263 -6.65747 -0.960426 
-9.48093 -6.68203 -1.00247 -9.46887 -6.70665 -1.04437 -9.45646 -6.73134 -1.08614 
-9.4437 -6.7561 -1.12777 -9.43061 -6.78093 -1.16924 -9.41719 -6.80584 -1.21056 
-9.40344 -6.83084 -1.25173 -9.38936 -6.85592 -1.29272 -9.37498 -6.88111 -1.33355 
-9.36028 -6.90639 -1.37419 -9.34529 -6.93178 -1.41466 -9.32999 -6.95728 -1.45494 
-9.31441 -6.9829 -1.49502 -9.29854 -7.00864 -1.53491 -9.28239 -7.0345 -1.57459 
-9.26596 -7.06049 -1.61406 -9.24927 -7.08663 -1.65332 -9.23232 -7.1129 -1.69236 
-9.2151 -7.13932 -1.73118 -9.19763 -7.16589 -1.76977 -9.17991 -7.19261 -1.80815 
-9.16194 -7.21949 -1.84629 -9.14372 -7.24653 -1.88421 -9.12527 -7.27374 -1.9219 
-9.10658 -7.30112 -1.95935 -9.08766 -7.32868 -1.99657 -9.06852 -7.35642 -2.03355 
-9.04915 -7.38434 -2.0703 -9.02956 -7.41244 -2.1068 -9.00975 -7.44074 -2.14306 
-8.98974 -7.46924 -2.17907 -8.96951 -7.49794 -2.21484 -8.94909 -7.52685 -2.25035 
-8.92846 -7.55596 -2.28562 -8.90764 -7.58529 -2.32063 -8.88663 -7.61484 -2.35538 
-8.86543 -7.64461 -2.38988 -8.84405 -7.6746 -2.42411 -8.82248 -7.70482 -2.45806 
-8.80074 -7.73525 -2.49172 -8.77883 -7.7659 -2.52508 -8.75675 -7.79677 -2.55813 
-8.7345 -7.82784 -2.59085 -8.71208 -7.85913 -2.62323 -8.68951 -7.89062 -2.65526 
-8.66678 -7.92232 -2.68692 -8.6439 -7.95423 -2.71822 -8.62086 -7.98633 -2.74912 
-8.59769 -8.01863 -2.77962 -8.57436 -8.05113 -2.80972 -8.5509 -8.08382 -2.83939 
-8.5273 -8.11671 -2.86862 -8.50357 -8.14978 -2.8974 -8.47971 -8.18304 -2.92573 
-8.45572 -8.21649 -2.95358 -8.43161 -8.25012 -2.98095 -8.40738 -8.28393 -3.00782 
-8.38304 -8.31792 -3.03419 -8.35857 -8.35211 -3.06006 -8.33398 -8.38651 -3.08546 
[...]
CELL_DATA 1
FIELD FieldData 2
Length 1 1 double
63.825620781 
Tortuosity 1 1 double
0.87895842843 
POINT_DATA 1277
SCALARS MaximumInscribedSphereRadius float
LOOKUP_TABLE default
0.93 0.941957 0.953913 0.96587 0.977827 0.989783 1.00174 1.0137 1.02565 
1.03761 1.04957 1.06152 1.07348 1.08544 1.09739 1.10935 1.12131 1.13326 
1.14522 1.15718 1.16913 1.18062 1.18477 1.18892 1.19306 1.19721 1.20136 
1.20551 1.20965 1.2138 1.21795 1.2221 1.22624 1.23039 1.23454 1.23869 
1.24283 1.24698 1.25113 1.25528 1.25943 1.26025 1.25785 1.25545 1.25305 
1.25065 1.24825 1.24585 1.24345 1.24105 1.23865 1.23625 1.23385 1.23145 
1.22905 1.22665 1.22425 1.22185 1.21945 1.21705 1.21465 1.21101 1.20108 
1.19115 1.18123 1.1713 1.16137 1.15144 1.14152 1.13159 1.12166 1.11173 
1.10181 1.09188 1.08195 1.07202 1.0621 1.05217 1.04224 1.03231 1.02239 
1.01246 1.01336 1.01579 1.01822 1.02065 1.02308 1.0255 1.02793 1.03036 
1.03279 1.03522 1.03765 1.04008 1.04251 1.04494 1.04737 1.0498 1.05223 
1.05466 1.05709 1.05952 1.06553 1.07388 1.08222 1.09056 1.0989 1.10724 
1.11558 1.12392 1.13227 1.14061 1.14895 1.15729 1.16563 1.17397 1.18231 
1.19066 1.199 1.20734 1.21568 1.22402 1.22994 1.23125 1.23256 1.23386 
1.23517 1.23648 1.23779 1.2391 1.2404 1.24171 1.24302 1.24433 1.24563 
1.24694 1.24825 1.24956 1.25087 1.25217 1.25348 1.25479 1.25708 1.26849 
1.2799 1.29131 1.30272 1.31413 1.32554 1.33695 1.34836 1.35977 1.37118 
1.38259 1.394 1.40541 1.41682 1.42823 1.43964 1.45105 1.46246 1.47387 
1.48528 1.49724 1.5093 1.52136 1.53342 1.54548 1.55754 1.5696 1.58167 
1.59373 1.60579 1.61785 1.62991 1.64197 1.65403 1.66609 1.67815 1.69022 
1.70228 1.71434 1.7264 1.73128 1.731 1.73072 1.73045 1.73017 1.72989 
1.72962 1.72934 1.72906 1.72878 1.72851 1.72823 1.72795 1.72768 1.7274 
1.72712 1.72684 1.72657 1.72629 1.72601 1.71998 1.70057 1.68117 1.66177 
1.64236 1.62296 1.60356 1.58416 1.56475 1.54535 1.52595 1.50654 1.48714 
1.46774 1.44834 1.42893 1.40953 1.39013 1.37072 1.35132 1.3322 1.32764 
1.32308 1.31853 1.31397 1.30942 1.30486 1.30031 1.29575 1.29119 1.28664 
1.28208 1.27753 1.27297 1.26842 1.26386 1.2593 1.25475 1.25019 1.24564 
1.24108 1.24837 1.25935 1.27033 1.28132 1.2923 1.30328 1.31426 1.32524 
1.33622 1.3472 1.35818 1.36916 1.38015 1.39113 1.40211 1.41309 1.42407 
1.43505 1.44603 1.45701 1.46894 1.48149 1.49405 1.5066 1.51915 1.53171 
1.54426 1.55682 1.56937 1.58192 1.59448 1.60703 1.61958 1.63214 1.64469 
1.65725 1.6698 1.68235 1.69491 1.70746 1.71512 1.71431 1.71349 1.71268 
1.71187 1.71105 1.71024 1.70942 1.70861 1.7078 1.70698 1.70617 1.70535 
1.70454 1.70372 1.70291 1.7021 1.70128 1.70047 1.69965 1.6974 1.68202 
1.66663 1.65124 1.63586 1.62047 1.60508 1.5897 1.57431 1.55892 1.54354 
1.52815 1.51277 1.49738 1.48199 1.46661 1.45122 1.43583 1.42045 1.40506 
1.38967 1.39304 1.40039 1.40774 1.41509 1.42245 1.4298 1.43715 1.4445 
1.45185 1.4592 1.46655 1.4739 1.48125 1.4886 1.49595 1.5033 1.51065 
1.518 1.52535 1.5327 1.54486 1.56095 1.57704 1.59314 1.60923 1.62532 
1.64141 1.65751 1.6736 1.68969 1.70578 1.72188 1.73797 1.75406 1.77015 
1.78625 1.80234 1.81843 1.83452 1.85062 1.86244 1.86314 1.86384 1.86454 
1.86524 1.86594 1.86664 1.86734 1.86804 1.86874 1.86944 1.87014 1.87084 
1.87154 1.87224 1.87294 1.87364 1.87433 1.87503 1.87573 1.87599 1.86948 
1.86298 1.85647 1.84997 1.84347 1.83696 1.83046 1.82395 1.81745 1.81095 
1.80444 1.79794 1.79143 1.78493 1.77842 1.77192 1.76542 1.75891 1.75241 
1.7459 1.75066 1.75788 1.76509 1.77231 1.77952 1.78674 1.79395 1.80116 
1.80838 1.81559 1.82281 1.83002 1.83724 1.84445 1.85166 1.85888 1.86609 
1.87331 1.88052 1.89502 1.91816 1.94131 1.96445 1.9876 2.01074 2.03389 
2.05703 2.08018 2.10332 2.12647 2.14961 2.17276 2.1959 2.21905 2.24219 
2.26534 2.28848 2.31163 2.33477 2.35739 2.35402 2.35065 2.34728 2.34391 
2.34054 2.33718 2.33381 2.33044 2.32707 2.3237 2.32033 2.31696 2.31359 
2.31022 2.30685 2.30348 2.30011 2.29674 2.29337 2.29 2.27473 2.25581 
2.23689 2.21798 2.19906 2.18014 2.16122 2.1423 2.12339 2.10447 2.08555 
2.06663 2.04771 2.0288 2.00988 1.99096 1.97204 1.95312 1.93421 1.91529 
1.90224 1.89541 1.88858 1.88175 1.87492 1.86809 1.86126 1.85444 1.84761 
1.84078 1.83395 1.82712 1.82029 1.81346 1.80663 1.7998 1.79297 1.78614 
1.77931 1.77248 1.77132 1.79119 1.81106 1.83094 1.85081 1.87069 1.89056 
1.91043 1.93031 1.95018 1.97006 1.98993 2.0098 2.02968 2.04955 2.06942 
2.0893 2.10917 2.12905 2.14892 2.16879 2.17 2.17 2.17 2.17 
2.17 2.17 2.17 2.17 2.17 2.17 2.17 2.17 2.17 
2.17 2.17 2.17 2.17 2.17 2.17 2.17 2.17095 2.17237 
2.17379 2.17521 2.17663 2.17804 2.17946 2.18088 2.1823 2.18372 2.18514 
2.18655 2.18797 2.18939 2.19081 2.19223 2.19365 2.19506 2.19648 2.1979 
2.20304 2.21298 2.22292 2.23286 2.2428 2.25274 2.26268 2.27262 2.28255 
2.29249 2.30243 2.31237 2.32231 2.33225 2.34219 2.35213 2.36207 2.372 
2.38194 2.39188 2.3971 2.38984 2.38259 2.37533 2.36808 2.36082 2.35357 
2.34631 2.33906 2.33181 2.32455 2.3173 2.31004 2.30279 2.29553 2.28828 
2.28102 2.27377 2.26651 2.25926 2.25211 2.24805 2.244 2.23994 2.23588 
2.23183 2.22777 2.22371 2.21966 2.2156 2.21154 2.20749 2.20343 2.19937 
2.19532 2.19126 2.18721 2.18315 2.17909 2.17504 2.17098 2.17 2.17 
2.17 2.17 2.17 2.17 2.17 2.17 2.17 2.17 2.17 
2.17 2.17 2.17 2.17 2.17 2.17 2.17 2.17 2.17 
2.16978 2.16932 2.16886 2.1684 2.16794 2.16748 2.16702 2.16656 2.1661 
2.16564 2.16518 2.16472 2.16425 2.16379 2.16333 2.16287 2.16241 2.16195 
2.16149 2.16103 2.15929 2.15218 2.14507 2.13797 2.13086 2.12375 2.11665 
2.10954 2.10243 2.09533 2.08822 2.08111 2.07401 2.0669 2.05979 2.05268 
2.04558 2.03847 2.03136 2.02426 2.01715 2.01296 2.00905 2.00513 2.00121 
1.9973 1.99338 1.98947 1.98555 1.98164 1.97772 1.9738 1.96989 1.96597 
1.96206 1.95814 1.95423 1.95031 1.9464 1.94248 1.93856 1.942 1.94969 
1.95738 1.96507 1.97275 1.98044 1.98813 1.99582 2.00351 2.0112 2.01888 
2.02657 2.03426 2.04195 2.04964 2.05732 2.06501 2.0727 2.08039 2.08808 
2.09107 2.08542 2.07977 2.07412 2.06847 2.06282 2.05716 2.05151 2.04586 
2.04021 2.03456 2.02891 2.02326 2.01761 2.01196 2.00631 2.00065 1.995 
1.98935 1.9837 1.97804 1.9722 1.96636 1.96052 1.95468 1.94884 1.943 
1.93716 1.93132 1.92548 1.91964 1.9138 1.90796 1.90212 1.89628 1.89044 
1.8846 1.87876 1.87292 1.86708 1.86124 1.86241 1.86547 1.86853 1.87158 
1.87464 1.8777 1.88076 1.88382 1.88687 1.88993 1.89299 1.89605 1.8991 
1.90216 1.90522 1.90828 1.91134 1.91439 1.91745 1.92051 1.92934 1.94372 
1.95811 1.9725 1.98689 2.00128 2.01566 2.03005 2.04444 2.05883 2.07322 
2.0876 2.10199 2.11638 2.13077 2.14516 2.15955 2.17393 2.18832 2.20271 
2.21266 2.20818 2.2037 2.19923 2.19475 2.19028 2.1858 2.18133 2.17685 
2.17237 2.1679 2.16342 2.15895 2.15447 2.15 2.14552 2.14104 2.13657 
2.13209 2.12762 2.12314 2.11014 2.09691 2.08368 2.07044 2.05721 2.04397 
2.03074 2.01751 2.00427 1.99104 1.9778 1.96457 1.95133 1.9381 1.92487 
1.91163 1.8984 1.88516 1.87193 1.8587 1.85479 1.85466 1.85453 1.85439 
1.85426 1.85413 1.85399 1.85386 1.85373 1.85359 1.85346 1.85332 1.85319 
1.85306 1.85292 1.85279 1.85266 1.85252 1.85239 1.85225 1.85235 1.85274 
1.85312 1.85351 1.85389 1.85428 1.85466 1.85505 1.85543 1.85582 1.85621 
1.85659 1.85698 1.85736 1.85775 1.85813 1.85852 1.8589 1.85929 1.85968 
1.86005 1.86033 1.86062 1.8609 1.86119 1.86148 1.86176 1.86205 1.86233 
1.86262 1.86291 1.86319 1.86348 1.86376 1.86405 1.86434 1.86462 1.86491 
1.86519 1.86548 1.86577 1.86799 1.87049 1.87298 1.87548 1.87797 1.88047 
1.88296 1.88546 1.88795 1.89045 1.89294 1.89544 1.89793 1.90043 1.90292 
1.90542 1.90791 1.91041 1.9129 1.9154 1.92518 1.93993 1.95468 1.96944 
1.98419 1.99894 2.01369 2.02844 2.0432 2.05795 2.0727 2.08745 2.1022 
2.11695 2.13171 2.14646 2.16121 2.17596 2.19071 2.20546 2.21968 2.23272 
2.24575 2.25879 2.27182 2.28486 2.2979 2.31093 2.32397 2.33701 2.35004 
2.36308 2.37611 2.38915 2.40219 2.41522 2.42826 2.4413 2.45433 2.46737 
2.48 2.48 2.48 2.48 2.48 2.48 2.48 2.48 2.48 
2.48 2.48 2.48 2.48 2.48 2.48 2.48 2.48 2.48 
2.48 2.48 2.48 2.48 2.48 2.48 2.48 2.48 2.48 
2.48 2.48 2.48 2.48 2.48 2.48 2.48 2.48 2.48 
2.48 2.48 2.48 2.48 2.48 2.47702 2.47063 2.46424 2.45785 
2.45146 2.44508 2.43869 2.4323 2.42591 2.41952 2.41313 2.40674 2.40035 
2.39396 2.38758 2.38119 2.3748 2.36841 2.36202 2.35563 2.34898 2.34117 
2.33336 2.32555 2.31774 2.30992 2.30211 2.2943 2.28649 2.27868 2.27086 
2.26305 2.25524 2.24743 2.23962 2.2318 2.22399 2.21618 2.20837 2.20056 
2.19275 2.19101 2.18994 2.18886 2.18779 2.18672 2.18564 2.18457 2.1835 
2.18242 2.18135 2.18028 2.1792 2.17813 2.17706 2.17598 2.17491 2.17384 
2.17276 2.17169 2.17062 2.17059 2.17121 2.17183 2.17245 2.17307 2.17369 
2.17431 2.17492 2.17554 2.17616 2.17678 2.1774 2.17802 2.17863 2.17925 
2.17987 2.18049 2.18111 2.18173 2.18234 2.18364 2.18621 2.18878 2.19136 
2.19393 2.19651 2.19908 2.20165 2.20423 2.2068 2.20938 2.21195 2.21452 
2.2171 2.21967 2.22224 2.22482 2.22739 2.22997 2.23254 2.23532 2.24079 
2.24626 2.25174 2.25721 2.26268 2.26815 2.27362 2.27909 2.28456 2.29003 
2.29551 2.30098 2.30645 2.31192 2.31739 2.32286 2.32833 2.3338 2.33927 
2.34475 2.34958 2.35426 2.35894 2.36363 2.36831 2.37299 2.37767 2.38235 
2.38703 2.39171 2.3964 2.40108 2.40576 2.41044 2.41512 2.4198 2.42449 
2.42917 2.43385 2.43853 2.44169 2.44364 2.44558 2.44753 2.44947 2.45142 
2.45336 2.45531 2.45725 2.4592 2.46115 2.46309 2.46504 2.46698 2.46893 
2.47087 2.47282 2.47476 2.47671 2.47865 2.47918 2.47654 2.4739 2.47125 
2.46861 2.46597 2.46332 2.46068 2.45804 2.45539 2.45275 2.4501 2.44746 
2.44482 2.44217 2.43953 2.43689 2.43424 2.4316 2.42895 2.42598 2.41604 
2.4061 2.39616 2.38623 2.37629 2.36635 2.35641 2.34647 2.33653 2.32659 
2.31665 2.30671 2.29677 2.28684 2.2769 2.26696 2.25702 2.24708 2.23714 
2.2272 2.22897 2.23447 2.23997 2.24547 2.25097 2.25647 2.26196 2.26746 
2.27296 2.27846 2.28396 2.28946 2.29496 2.30046 2.30596 2.31146 2.31695 
2.32245 2.32795 2.33345 2.34195 2.35407 2.36619 2.37831 2.39043 2.40255 
2.41467 2.42679 2.43892 2.45104 2.46316 2.47528 2.4874 2.49952 2.51164 
2.52376 2.53588 2.548 2.56012 2.57224 2.58305 2.5934 2.60375 2.61409 
2.62444 2.63479 2.64514 2.65548 2.66583 2.67618 2.68653 2.69687 2.70722 
2.71757 2.72792 2.73826 2.74861 2.75896 2.76931 2.77965 2.79 
TEXTURE_COORDINATES TCoords 2 float
0 0 0.000783699 0 0.0015674 0 0.0023511 0 0.0031348 
0 0.0039185 0 0.00470219 0 0.00548589 0 0.00626959 0 
0.00705329 0 0.00783699 0 0.00862069 0 0.00940439 0 0.0101881 
0 0.0109718 0 0.0117555 0 0.0125392 0 0.0133229 0 
0.0141066 0 0.0148903 0 0.015674 0 0.0164577 0 0.0172414 
0 0.0180251 0 0.0188088 0 0.0195925 0 0.0203762 0 
0.0211599 0 0.0219436 0 0.0227273 0 0.023511 0 0.0242947 
0 0.0250784 0 0.0258621 0 0.0266458 0 0.0274295 0 
0.0282132 0 0.0289969 0 0.0297806 0 0.0305643 0 0.031348 
0 0.0321317 0 0.0329154 0 0.0336991 0 0.0344828 0 
0.0352665 0 0.0360502 0 0.0368339 0 0.0376176 0 0.0384013 
0 0.039185 0 0.0399687 0 0.0407524 0 0.0415361 0 
0.0423197 0 0.0431034 0 0.0438871 0 0.0446708 0 0.0454545 
0 0.0462382 0 0.0470219 0 0.0478056 0 0.0485893 0 
0.049373 0 0.0501567 0 0.0509404 0 0.0517241 0 0.0525078 
0 0.0532915 0 0.0540752 0 0.0548589 0 0.0556426 0 
0.0564263 0 0.05721 0 0.0579937 0 0.0587774 0 0.0595611 
0 0.0603448 0 0.0611285 0 0.0619122 0 0.0626959 0 
0.0634796 0 0.0642633 0 0.065047 0 0.0658307 0 0.0666144 
0 0.0673981 0 0.0681818 0 0.0689655 0 0.0697492 0 
0.0705329 0 0.0713166 0 0.0721003 0 0.072884 0 0.0736677 
0 0.0744514 0 0.0752351 0 0.0760188 0 0.0768025 0 
0.0775862 0 0.0783699 0 0.0791536 0 0.0799373 0 0.080721 
0 0.0815047 0 0.0822884 0 0.0830721 0 0.0838558 0 
0.0846395 0 0.0854232 0 0.0862069 0 0.0869906 0 0.0877743 
0 0.088558 0 0.0893417 0 0.0901254 0 0.0909091 0 
0.0916928 0 0.0924765 0 0.0932602 0 0.0940439 0 0.0948276 
0 0.0956113 0 0.096395 0 0.0971787 0 0.0979624 0 
0.0987461 0 0.0995298 0 0.100313 0 0.101097 0 0.101881 
0 0.102665 0 0.103448 0 0.104232 0 0.105016 0 
0.105799 0 0.106583 0 0.107367 0 0.10815 0 0.108934 
0 0.109718 0 0.110502 0 0.111285 0 0.112069 0 
0.112853 0 0.113636 0 0.11442 0 0.115204 0 0.115987 
0 0.116771 0 0.117555 0 0.118339 0 0.119122 0 
0.119906 0 0.12069 0 0.121473 0 0.122257 0 0.123041 
0 0.123824 0 0.124608 0 0.125392 0 0.126176 0 
0.126959 0 0.127743 0 0.128527 0 0.12931 0 0.130094 
0 0.130878 0 0.131661 0 0.132445 0 0.133229 0 
0.134013 0 0.134796 0 0.13558 0 0.136364 0 0.137147 
0 0.137931 0 0.138715 0 0.139498 0 0.140282 0 
0.141066 0 0.14185 0 0.142633 0 0.143417 0 0.144201 
0 0.144984 0 0.145768 0 0.146552 0 0.147335 0 
0.148119 0 0.148903 0 0.149687 0 0.15047 0 0.151254 
0 0.152038 0 0.152821 0 0.153605 0 0.154389 0 
0.155172 0 0.155956 0 0.15674 0 0.157524 0 0.158307 
0 0.159091 0 0.159875 0 0.160658 0 0.161442 0 
0.162226 0 0.163009 0 0.163793 0 0.164577 0 0.16536 
0 0.166144 0 0.166928 0 0.167712 0 0.168495 0 
0.169279 0 0.170063 0 0.170846 0 0.17163 0 0.172414 
0 0.173197 0 0.173981 0 0.174765 0 0.175549 0 
0.176332 0 0.177116 0 0.1779 0 0.178683 0 0.179467 
0 0.180251 0 0.181034 0 0.181818 0 0.182602 0 
0.183386 0 0.184169 0 0.184953 0 0.185737 0 0.18652 
0 0.187304 0 0.188088 0 0.188871 0 0.189655 0 
0.190439 0 0.191223 0 0.192006 0 0.19279 0 0.193574 
0 0.194357 0 0.195141 0 0.195925 0 0.196708 0 
0.197492 0 0.198276 0 0.19906 0 0.199843 0 0.200627 
0 0.201411 0 0.202194 0 0.202978 0 0.203762 0 
0.204545 0 0.205329 0 0.206113 0 0.206897 0 0.20768 
0 0.208464 0 0.209248 0 0.210031 0 0.210815 0 
0.211599 0 0.212382 0 0.213166 0 0.21395 0 0.214734 
0 0.215517 0 0.216301 0 0.217085 0 0.217868 0 
0.218652 0 0.219436 0 0.220219 0 0.221003 0 0.221787 
0 0.222571 0 0.223354 0 0.224138 0 0.224922 0 
0.225705 0 0.226489 0 0.227273 0 0.228056 0 0.22884 
0 0.229624 0 0.230408 0 0.231191 0 0.231975 0 
0.232759 0 0.233542 0 0.234326 0 0.23511 0 0.235893 
0 0.236677 0 0.237461 0 0.238245 0 0.239028 0 
0.239812 0 0.240596 0 0.241379 0 0.242163 0 0.242947 
0 0.24373 0 0.244514 0 0.245298 0 0.246082 0 
0.246865 0 0.247649 0 0.248433 0 0.249216 0 0.25 
0 0.250784 0 0.251567 0 0.252351 0 0.253135 0 
0.253918 0 0.254702 0 0.255486 0 0.25627 0 0.257053 
0 0.257837 0 0.258621 0 0.259404 0 0.260188 0 
0.260972 0 0.261755 0 0.262539 0 0.263323 0 0.264107 
0 0.26489 0 0.265674 0 0.266458 0 0.267241 0 
0.268025 0 0.268809 0 0.269592 0 0.270376 0 0.27116 
0 0.271944 0 0.272727 0 0.273511 0 0.274295 0 
0.275078 0 0.275862 0 0.276646 0 0.277429 0 0.278213 
0 0.278997 0 0.279781 0 0.280564 0 0.281348 0 
0.282132 0 0.282915 0 0.283699 0 0.284483 0 0.285266 
0 0.28605 0 0.286834 0 0.287618 0 0.288401 0 
0.289185 0 0.289969 0 0.290752 0 0.291536 0 0.29232 
0 0.293103 0 0.293887 0 0.294671 0 0.295455 0 
0.296238 0 0.297022 0 0.297806 0 0.298589 0 0.299373 
0 0.300157 0 0.30094 0 0.301724 0 0.302508 0 
0.303292 0 0.304075 0 0.304859 0 0.305643 0 0.306426 
0 0.30721 0 0.307994 0 0.308777 0 0.309561 0 
0.310345 0 0.311129 0 0.311912 0 0.312696 0 0.31348 
0 0.314263 0 0.315047 0 0.315831 0 0.316614 0 
0.317398 0 0.318182 0 0.318966 0 0.319749 0 0.320533 
0 0.321317 0 0.3221 0 0.322884 0 0.323668 0 
0.324451 0 0.325235 0 0.326019 0 0.326803 0 0.327586 
0 0.32837 0 0.329154 0 0.329937 0 0.330721 0 
0.331505 0 0.332288 0 0.333072 0 0.333856 0 0.334639 
0 0.335423 0 0.336207 0 0.336991 0 0.337774 0 
0.338558 0 0.339342 0 0.340125 0 0.340909 0 0.341693 
0 0.342476 0 0.34326 0 0.344044 0 0.344828 0 
0.345611 0 0.346395 0 0.347179 0 0.347962 0 0.348746 
0 0.34953 0 0.350313 0 0.351097 0 0.351881 0 
0.352665 0 0.353448 0 0.354232 0 0.355016 0 0.355799 
0 0.356583 0 0.357367 0 0.35815 0 0.358934 0 
0.359718 0 0.360502 0 0.361285 0 0.362069 0 0.362853 
0 0.363636 0 0.36442 0 0.365204 0 0.365987 0 
0.366771 0 0.367555 0 0.368339 0 0.369122 0 0.369906 
0 0.37069 0 0.371473 0 0.372257 0 0.373041 0 
0.373824 0 0.374608 0 0.375392 0 0.376176 0 0.376959 
0 0.377743 0 0.378527 0 0.37931 0 0.380094 0 
0.380878 0 0.381661 0 0.382445 0 0.383229 0 0.384013 
0 0.384796 0 0.38558 0 0.386364 0 0.387147 0 
0.387931 0 0.388715 0 0.389498 0 0.390282 0 0.391066 
0 0.39185 0 0.392633 0 0.393417 0 0.394201 0 
0.394984 0 0.395768 0 0.396552 0 0.397335 0 0.398119 
0 0.398903 0 0.399687 0 0.40047 0 0.401254 0 
0.402038 0 0.402821 0 0.403605 0 0.404389 0 0.405172 
0 0.405956 0 0.40674 0 0.407524 0 0.408307 0 
0.409091 0 0.409875 0 0.410658 0 0.411442 0 0.412226 
0 0.413009 0 0.413793 0 0.414577 0 0.415361 0 
0.416144 0 0.416928 0 0.417712 0 0.418495 0 0.419279 
0 0.420063 0 0.420846 0 0.42163 0 0.422414 0 
0.423197 0 0.423981 0 0.424765 0 0.425549 0 0.426332 
0 0.427116 0 0.4279 0 0.428683 0 0.429467 0 
0.430251 0 0.431034 0 0.431818 0 0.432602 0 0.433386 
0 0.434169 0 0.434953 0 0.435737 0 0.43652 0 
0.437304 0 0.438088 0 0.438871 0 0.439655 0 0.440439 
0 0.441223 0 0.442006 0 0.44279 0 0.443574 0 
0.444357 0 0.445141 0 0.445925 0 0.446708 0 0.447492 
0 0.448276 0 0.44906 0 0.449843 0 0.450627 0 
0.451411 0 0.452194 0 0.452978 0 0.453762 0 0.454545 
0 0.455329 0 0.456113 0 0.456897 0 0.45768 0 
0.458464 0 0.459248 0 0.460031 0 0.460815 0 0.461599 
0 0.462382 0 0.463166 0 0.46395 0 0.464734 0 
0.465517 0 0.466301 0 0.467085 0 0.467868 0 0.468652 
0 0.469436 0 0.470219 0 0.471003 0 0.471787 0 
0.472571 0 0.473354 0 0.474138 0 0.474922 0 0.475705 
0 0.476489 0 0.477273 0 0.478056 0 0.47884 0 
0.479624 0 0.480408 0 0.481191 0 0.481975 0 0.482759 
0 0.483542 0 0.484326 0 0.48511 0 0.485893 0 
0.486677 0 0.487461 0 0.488245 0 0.489028 0 0.489812 
0 0.490596 0 0.491379 0 0.492163 0 0.492947 0 
0.49373 0 0.494514 0 0.495298 0 0.496082 0 0.496865 
0 0.497649 0 0.498433 0 0.499216 0 0.5 0 
0.500784 0 0.501567 0 0.502351 0 0.503135 0 0.503918 
0 0.504702 0 0.505486 0 0.50627 0 0.507053 0 
0.507837 0 0.508621 0 0.509404 0 0.510188 0 0.510972 
0 0.511755 0 0.512539 0 0.513323 0 0.514107 0 
0.51489 0 0.515674 0 0.516458 0 0.517241 0 0.518025 
0 0.518809 0 0.519592 0 0.520376 0 0.52116 0 
0.521944 0 0.522727 0 0.523511 0 0.524295 0 0.525078 
0 0.525862 0 0.526646 0 0.527429 0 0.528213 0 
0.528997 0 0.529781 0 0.530564 0 0.531348 0 0.532132 
0 0.532915 0 0.533699 0 0.534483 0 0.535266 0 
0.53605 0 0.536834 0 0.537618 0 0.538401 0 0.539185 
0 0.539969 0 0.540752 0 0.541536 0 0.54232 0 
0.543103 0 0.543887 0 0.544671 0 0.545455 0 0.546238 
0 0.547022 0 0.547806 0 0.548589 0 0.549373 0 
0.550157 0 0.55094 0 0.551724 0 0.552508 0 0.553292 
0 0.554075 0 0.554859 0 0.555643 0 0.556426 0 
0.55721 0 0.557994 0 0.558777 0 0.559561 0 0.560345 
0 0.561128 0 0.561912 0 0.562696 0 0.56348 0 
0.564263 0 0.565047 0 0.565831 0 0.566614 0 0.567398 
0 0.568182 0 0.568965 0 0.569749 0 0.570533 0 
0.571317 0 0.5721 0 0.572884 0 0.573668 0 0.574451 
0 0.575235 0 0.576019 0 0.576802 0 0.577586 0 
0.57837 0 0.579154 0 0.579937 0 0.580721 0 0.581505 
0 0.582288 0 0.583072 0 0.583856 0 0.584639 0 
0.585423 0 0.586207 0 0.586991 0 0.587774 0 0.588558 
0 0.589342 0 0.590125 0 0.590909 0 0.591693 0 
0.592476 0 0.59326 0 0.594044 0 0.594828 0 0.595611 
0 0.596395 0 0.597179 0 0.597962 0 0.598746 0 
0.59953 0 0.600313 0 0.601097 0 0.601881 0 0.602665 
0 0.603448 0 0.604232 0 0.605016 0 0.605799 0 
0.606583 0 0.607367 0 0.60815 0 0.608934 0 0.609718 
0 0.610502 0 0.611285 0 0.612069 0 0.612853 0 
0.613636 0 0.61442 0 0.615204 0 0.615987 0 0.616771 
0 0.617555 0 0.618339 0 0.619122 0 0.619906 0 
0.62069 0 0.621473 0 0.622257 0 0.623041 0 0.623824 
0 0.624608 0 0.625392 0 0.626176 0 0.626959 0 
0.627743 0 0.628527 0 0.62931 0 0.630094 0 0.630878 
0 0.631661 0 0.632445 0 0.633229 0 0.634013 0 
0.634796 0 0.63558 0 0.636364 0 0.637147 0 0.637931 
0 0.638715 0 0.639498 0 0.640282 0 0.641066 0 
0.64185 0 0.642633 0 0.643417 0 0.644201 0 0.644984 
0 0.645768 0 0.646552 0 0.647335 0 0.648119 0 
0.648903 0 0.649687 0 0.65047 0 0.651254 0 0.652038 
0 0.652821 0 0.653605 0 0.654389 0 0.655172 0 
0.655956 0 0.65674 0 0.657524 0 0.658307 0 0.659091 
0 0.659875 0 0.660658 0 0.661442 0 0.662226 0 
0.663009 0 0.663793 0 0.664577 0 0.665361 0 0.666144 
0 0.666928 0 0.667712 0 0.668495 0 0.669279 0 
0.670063 0 0.670846 0 0.67163 0 0.672414 0 0.673198 
0 0.673981 0 0.674765 0 0.675549 0 0.676332 0 
0.677116 0 0.6779 0 0.678683 0 0.679467 0 0.680251 