# vtk DataFile Version 4.2
vtk output
ASCII
DATASET POLYDATA
POINTS 1278 float
0 0 0 -0.00285574 -0.000244084 0.00296916 -0.011202 -0.000966601 0.0116051 
-0.0247074 -0.00215295 0.0255003 -0.0430406 -0.00378852 0.0442475 -0.0658701 -0.00585872 0.0674392 
-0.0928646 -0.00834894 0.0946681 -0.123693 -0.0112446 0.125527 -0.158023 -0.014531 0.159608 
-0.195524 -0.0181937 0.196504 -0.235864 -0.022218 0.235807 -0.278713 -0.0265893 0.277111 
-0.323738 -0.031293 0.320008 -0.370608 -0.0363145 0.36409 -0.418992 -0.0416392 0.40895 
-0.468558 -0.0472525 0.45418 -0.518975 -0.0531397 0.499374 -0.569912 -0.0592864 0.544124 
-0.621037 -0.0656779 0.588022 -0.672019 -0.0722995 0.630661 -0.722526 -0.0791368 0.671634 
-0.772228 -0.086175 0.710533 -0.820913 -0.0934054 0.747099 -0.868632 -0.100831 0.781386 
-0.915469 -0.108458 0.813494 -0.96151 -0.116292 0.843523 -1.00684 -0.124336 0.871572 
-1.05154 -0.132598 0.897741 -1.09571 -0.141081 0.922127 -1.13942 -0.149792 0.944832 
-1.18275 -0.158735 0.965953 -1.22581 -0.167916 0.985591 -1.26866 -0.17734 1.00384 
-1.3114 -0.187012 1.02081 -1.35411 -0.196938 1.03659 -1.39688 -0.207123 1.05129 
-1.43979 -0.217571 1.065 -1.48292 -0.228289 1.07782 -1.52637 -0.239282 1.08985 
-1.57021 -0.250554 1.10119 -1.61453 -0.262111 1.11194 -1.65942 -0.273958 1.12219 
-1.70488 -0.286093 1.13197 -1.75086 -0.29851 1.14125 -1.79733 -0.3112 1.14999 
-1.84423 -0.324158 1.15816 -1.89153 -0.337377 1.16573 -1.93916 -0.350849 1.17268 
-1.9871 -0.364568 1.17897 -2.0353 -0.378527 1.18456 -2.0837 -0.392719 1.18943 
-2.13227 -0.407137 1.19355 -2.18096 -0.421774 1.19688 -2.22972 -0.436624 1.19939 
-2.27851 -0.451679 1.20106 -2.32728 -0.466933 1.20185 -2.37599 -0.482379 1.20172 
-2.42459 -0.49801 1.20065 -2.47305 -0.513819 1.19861 -2.5213 -0.529798 1.19557 
-2.56931 -0.545942 1.19148 -2.61703 -0.562244 1.18633 -2.66444 -0.578696 1.18011 
-2.71152 -0.595294 1.17283 -2.75829 -0.612031 1.16453 -2.80476 -0.628903 1.15526 
-2.85091 -0.645904 1.14504 -2.89677 -0.663028 1.13392 -2.94234 -0.68027 1.12192 
-2.98761 -0.697625 1.10909 -3.0326 -0.715087 1.09545 -3.07731 -0.73265 1.08105 
-3.12175 -0.75031 1.06592 -3.16592 -0.76806 1.05009 -3.20982 -0.785895 1.03361 
-3.25346 -0.80381 1.0165 -3.29684 -0.821799 0.998799 -3.33998 -0.839857 0.980548 
-3.38287 -0.857978 0.961779 -3.42552 -0.876157 0.942528 -3.46793 -0.894388 0.922831 
-3.51012 -0.912666 0.902723 -3.55207 -0.930986 0.882236 -3.59381 -0.949349 0.861383 
-3.63532 -0.967754 0.840172 -3.67661 -0.986203 0.818611 -3.71769 -1.0047 0.796709 
-3.75855 -1.02324 0.774473 -3.7992 -1.04182 0.751912 -3.83964 -1.06046 0.729034 
-3.87988 -1.07914 0.705846 -3.9199 -1.09787 0.682357 -3.95973 -1.11665 0.658575 
-3.99936 -1.13548 0.634507 -4.03878 -1.15436 0.610163 -4.07802 -1.1733 0.58555 
-4.11706 -1.19229 0.560676 -4.1559 -1.21133 0.53555 -4.19456 -1.23043 0.510179 
-4.23304 -1.24959 0.484571 -4.27133 -1.2688 0.458735 -4.30943 -1.28808 0.432679 
-4.34736 -1.30741 0.40641 -4.38512 -1.3268 0.379939 -4.4227 -1.34626 0.353276 
-4.46012 -1.36578 0.326431 -4.49738 -1.38538 0.299415 -4.53448 -1.40505 0.272239 
-4.57143 -1.4248 0.244912 -4.60824 -1.44463 0.217446 -4.64491 -1.46455 0.189851 
-4.68144 -1.48455 0.162138 -4.71785 -1.50465 0.134317 -4.75413 -1.52484 0.106398 
-4.79029 -1.54512 0.0783916 -4.82634 -1.56551 0.0503091 -4.86227 -1.586 0.0221607 
-4.89811 -1.60661 -0.00604312 -4.93384 -1.62732 -0.0342919 -4.96948 -1.64814 -0.0625752 
-5.00503 -1.66909 -0.0908823 -5.0405 -1.69015 -0.119203 -5.07589 -1.71134 -0.147526 
-5.1112 -1.73266 -0.175842 -5.14645 -1.75411 -0.20414 -5.18162 -1.77571 -0.23241 
-5.21674 -1.79745 -0.260641 -5.2518 -1.81934 -0.288823 -5.2868 -1.8414 -0.316945 
-5.32175 -1.86362 -0.344997 -5.35666 -1.88601 -0.372968 -5.39152 -1.90858 -0.400849 
-5.42634 -1.93133 -0.428629 -5.46113 -1.95427 -0.456297 -5.49589 -1.97741 -0.483843 
-5.53062 -2.00075 -0.511257 -5.56533 -2.0243 -0.538527 -5.60002 -2.04807 -0.565645 
-5.63469 -2.07206 -0.592599 -5.66936 -2.09627 -0.619379 -5.70401 -2.12072 -0.645974 
-5.73866 -2.1454 -0.672375 -5.77332 -2.17033 -0.69857 -5.80798 -2.19552 -0.724548 
-5.84264 -2.22096 -0.75029 -5.87731 -2.24666 -0.775778 -5.91198 -2.27263 -0.800994 
-5.94667 -2.29887 -0.825917 -5.98136 -2.32539 -0.85053 -6.01606 -2.35219 -0.874813 
-6.05078 -2.37929 -0.898748 -6.0855 -2.40667 -0.922316 -6.12024 -2.43436 -0.945498 
-6.155 -2.46235 -0.968275 -6.18976 -2.49065 -0.990628 -6.22455 -2.51926 -1.01254 
-6.25935 -2.5482 -1.03399 -6.29416 -2.57746 -1.05496 -6.329 -2.60705 -1.07543 
-6.36385 -2.63698 -1.09538 -6.39873 -2.66725 -1.11479 -6.43362 -2.69787 -1.13365 
-6.46854 -2.72884 -1.15194 -6.50348 -2.76017 -1.16963 -6.53844 -2.79184 -1.18672 
-6.57341 -2.82386 -1.2032 -6.60839 -2.85621 -1.21906 -6.64336 -2.88888 -1.2343 
-6.67832 -2.92187 -1.24889 -6.71327 -2.95515 -1.26285 -6.7482 -2.98873 -1.27615 
-6.78309 -3.0226 -1.2888 -6.81795 -3.05674 -1.30078 -6.85277 -3.09114 -1.31209 
-6.88754 -3.1258 -1.32271 -6.92226 -3.16071 -1.33264 -6.95691 -3.19585 -1.34187 
-6.99149 -3.23122 -1.3504 -7.026 -3.2668 -1.35822 -7.06042 -3.3026 -1.36531 
-7.09476 -3.33859 -1.37167 -7.129 -3.37477 -1.3773 -7.16314 -3.41113 -1.38217 
-7.19717 -3.44766 -1.3863 -7.23108 -3.48435 -1.38968 -7.26489 -3.52119 -1.39233 
-7.29859 -3.55817 -1.39428 -7.33217 -3.59528 -1.39553 -7.36565 -3.63252 -1.39612 
-7.39903 -3.66987 -1.39606 -7.43229 -3.70732 -1.39538 -7.46545 -3.74487 -1.39408 
-7.49851 -3.78251 -1.39219 -7.53146 -3.82022 -1.38973 -7.56431 -3.858 -1.38672 
-7.59706 -3.89584 -1.38317 -7.62971 -3.93373 -1.37912 -7.66226 -3.97166 -1.37457 
-7.6947 -4.00961 -1.36955 -7.72705 -4.04759 -1.36407 -7.7593 -4.08558 -1.35816 
-7.79146 -4.12357 -1.35183 -7.82352 -4.16156 -1.34511 -7.85548 -4.19952 -1.33801 
-7.88735 -4.23747 -1.33055 -7.91914 -4.27539 -1.32276 -7.95084 -4.31329 -1.31463 
-7.98246 -4.35117 -1.30619 -8.01401 -4.38903 -1.29746 -8.04549 -4.42686 -1.28844 
-8.07691 -4.46467 -1.27916 -8.10827 -4.50246 -1.26963 -8.13958 -4.54023 -1.25987 
-8.17084 -4.57798 -1.24989 -8.20206 -4.6157 -1.2397 -8.23324 -4.6534 -1.22933 
-8.26439 -4.69108 -1.21878 -8.2955 -4.72874 -1.20808 -8.3266 -4.76638 -1.19723 
-8.35768 -4.804 -1.18626 -8.38874 -4.8416 -1.17517 -8.4198 -4.87917 -1.164 
-8.45086 -4.91672 -1.15274 -8.48191 -4.95426 -1.14141 -8.51298 -4.99177 -1.13004 
-8.54405 -5.02927 -1.11863 -8.57514 -5.06674 -1.10719 -8.60624 -5.1042 -1.09574 
-8.63736 -5.14164 -1.08429 -8.6685 -5.17907 -1.07284 -8.69967 -5.21648 -1.06142 
-8.73086 -5.25389 -1.05003 -8.76208 -5.29128 -1.03869 -8.79334 -5.32866 -1.0274 
-8.82463 -5.36603 -1.01617 -8.85596 -5.40339 -1.00503 -8.88733 -5.44075 -0.99398 
-8.91874 -5.4781 -0.983031 -8.9502 -5.51545 -0.972196 -8.98171 -5.5528 -0.961488 
-9.01328 -5.59014 -0.950918 -9.0449 -5.62748 -0.940497 -9.07657 -5.66483 -0.930238 
-9.10831 -5.70217 -0.920151 -9.14011 -5.73952 -0.91025 -9.17198 -5.77687 -0.900546 
-9.20391 -5.81423 -0.891055 -9.23591 -5.85158 -0.881789 -9.26797 -5.88895 -0.872765 
-9.3001 -5.92631 -0.863994 -9.3323 -5.96368 -0.855493 -9.36456 -6.00105 -0.847274 
-9.39689 -6.03843 -0.839353 -9.42929 -6.07581 -0.831742 -9.46175 -6.11319 -0.824457 
-9.49429 -6.15058 -0.817511 -9.52689 -6.18798 -0.810918 -9.55956 -6.22537 -0.804693 
-9.59231 -6.26278 -0.79885 -9.62512 -6.30018 -0.793403 -9.658 -6.33759 -0.788366 
-9.69095 -6.37501 -0.783753 -9.72397 -6.41243 -0.779578 -9.75707 -6.44986 -0.775856 
-9.79023 -6.48729 -0.7726 -9.82347 -6.52472 -0.769825 -9.85676 -6.56216 -0.767544 
-9.8901 -6.59959 -0.765773 -9.92348 -6.63701 -0.764525 -9.95689 -6.67443 -0.763814 
-9.99033 -6.71183 -0.763654 -10.0238 -6.74922 -0.764061 -10.0572 -6.78659 -0.765047 
-10.0907 -6.82394 -0.766627 -10.1241 -6.86126 -0.768815 -10.1575 -6.89855 -0.771625 
-10.1909 -6.93581 -0.775072 -10.2242 -6.97303 -0.779169 -10.2575 -7.01021 -0.783932 
-10.2907 -7.04735 -0.789373 -10.3239 -7.08445 -0.795507 -10.357 -7.1215 -0.802348 
-10.39 -7.15849 -0.809911 -10.4229 -7.19543 -0.818209 -10.4556 -7.23231 -0.827257 
-10.4883 -7.26913 -0.837065 -10.5208 -7.30589 -0.847633 -10.5532 -7.34256 -0.858959 
-10.5855 -7.37917 -0.871042 -10.6175 -7.41568 -0.883881 -10.6493 -7.45212 -0.897473 
-10.681 -7.48845 -0.911818 -10.7124 -7.52469 -0.926914 -10.7435 -7.56083 -0.942759 
-10.7744 -7.59685 -0.959352 -10.805 -7.63277 -0.976692 -10.8353 -7.66856 -0.994776 
-10.8652 -7.70423 -1.0136 -10.8949 -7.73977 -1.03317 -10.9242 -7.77518 -1.05348 
-10.9531 -7.81045 -1.07453 -10.9816 -7.84557 -1.09632 -11.0098 -7.88054 -1.11884 
-11.0375 -7.91536 -1.1421 -11.0648 -7.95001 -1.16609 -11.0916 -7.9845 -1.19081 
-11.118 -8.01883 -1.21624 -11.1439 -8.05298 -1.24238 -11.1694 -8.08697 -1.2692 
-11.1943 -8.12079 -1.29669 -11.2188 -8.15444 -1.32484 -11.2428 -8.18791 -1.35362 
-11.2662 -8.22122 -1.38302 -11.2892 -8.25435 -1.41303 -11.3116 -8.2873 -1.44363 
-11.3335 -8.32008 -1.4748 -11.3549 -8.35268 -1.50653 -11.3757 -8.38511 -1.5388 
-11.3959 -8.41736 -1.5716 -11.4156 -8.44943 -1.60491 -11.4348 -8.48132 -1.63871 
-11.4533 -8.51302 -1.67299 -11.4713 -8.54455 -1.70773 -11.4886 -8.57589 -1.74291 
-11.5054 -8.60705 -1.77853 -11.5216 -8.63803 -1.81456 -11.5371 -8.66882 -1.85099 
-11.5521 -8.69943 -1.88781 -11.5664 -8.72987 -1.92499 -11.5802 -8.76013 -1.96253 
-11.5934 -8.79023 -2.00041 -11.6059 -8.82017 -2.03862 -11.6179 -8.84995 -2.07714 
-11.6294 -8.87957 -2.11596 -11.6402 -8.90904 -2.15506 -11.6505 -8.93836 -2.19443 
-11.6603 -8.96753 -2.23405 -11.6695 -8.99657 -2.27391 -11.6781 -9.02547 -2.314 
-11.6862 -9.05424 -2.3543 -11.6937 -9.08288 -2.39479 -11.7007 -9.11139 -2.43546 
-11.7072 -9.13979 -2.4763 -11.7132 -9.16807 -2.5173 -11.7186 -9.19623 -2.55843 
-11.7235 -9.22429 -2.59968 -11.7279 -9.25224 -2.64105 -11.7318 -9.28009 -2.68252 
-11.7352 -9.30784 -2.72409 -11.7382 -9.3355 -2.76574 -11.7406 -9.36308 -2.80748 
-11.7426 -9.39057 -2.84929 -11.7441 -9.41799 -2.89118 -11.7451 -9.44533 -2.93312 
-11.7457 -9.47261 -2.97511 -11.7459 -9.49982 -3.01715 -11.7456 -9.52697 -3.05923 
-11.7449 -9.55407 -3.10134 -11.7438 -9.58111 -3.14348 -11.7422 -9.60811 -3.18563 
[...]
CELL_DATA 1
FIELD FieldData 2
Length 1 1 double
63.878021297 
Tortuosity 1 1 double
1.4624329256 
POINT_DATA 1278
SCALARS MaximumInscribedSphereRadius float
LOOKUP_TABLE default
0.62 0.62 0.62 0.62 0.62 0.62 0.62 0.62 0.62 
0.62 0.62 0.62 0.62 0.62 0.62 0.62 0.62 0.62 
0.62 0.62 0.62 0.620355 0.622083 0.623812 0.62554 0.627269 0.628998 
0.630726 0.632455 0.634183 0.635912 0.63764 0.639369 0.641097 0.642826 0.644554 
0.646283 0.648011 0.64974 0.651468 0.653197 0.658645 0.666386 0.674127 0.681868 
0.689609 0.697349 0.70509 0.712831 0.720572 0.728313 0.736053 0.743794 0.751535 
0.759276 0.767017 0.774758 0.782498 0.790239 0.79798 0.805721 0.81496 0.830266 
0.845572 0.860879 0.876185 0.891492 0.906798 0.922104 0.937411 0.952717 0.968024 
0.98333 0.998637 1.01394 1.02925 1.04456 1.05986 1.07517 1.09047 1.10578 
1.12109 1.14225 1.16374 1.18523 1.20672 1.22821 1.24969 1.27118 1.29267 
1.31416 1.33565 1.35714 1.37862 1.40011 1.4216 1.44309 1.46458 1.48607 
1.50756 1.52904 1.55053 1.55605 1.55347 1.55088 1.5483 1.54571 1.54312 
1.54054 1.53795 1.53536 1.53278 1.53019 1.52761 1.52502 1.52243 1.51985 
1.51726 1.51468 1.51209 1.5095 1.50692 1.50174 1.49233 1.48292 1.47351 
1.4641 1.45468 1.44527 1.43586 1.42645 1.41704 1.40762 1.39821 1.3888 
1.37939 1.36998 1.36056 1.35115 1.34174 1.33233 1.32292 1.31438 1.31419 
1.31401 1.31382 1.31363 1.31344 1.31325 1.31306 1.31288 1.31269 1.3125 
1.31231 1.31212 1.31193 1.31174 1.31156 1.31137 1.31118 1.31099 1.3108 
1.31061 1.30911 1.30731 1.30551 1.3037 1.3019 1.3001 1.2983 1.2965 
1.2947 1.2929 1.2911 1.2893 1.2875 1.28569 1.28389 1.28209 1.28029 
1.27849 1.27669 1.27489 1.27538 1.27764 1.27991 1.28217 1.28444 1.28671 
1.28897 1.29124 1.2935 1.29577 1.29804 1.3003 1.30257 1.30483 1.3071 
1.30937 1.31163 1.3139 1.31616 1.31843 1.3221 1.32938 1.33665 1.34393 
1.35121 1.35848 1.36576 1.37303 1.38031 1.38759 1.39486 1.40214 1.40941 
1.41669 1.42397 1.43124 1.43852 1.44579 1.45307 1.46035 1.46762 1.46319 
1.45872 1.45425 1.44977 1.4453 1.44082 1.43635 1.43188 1.4274 1.42293 
1.41846 1.41398 1.40951 1.40503 1.40056 1.39609 1.39161 1.38714 1.38267 
1.37819 1.3715 1.36392 1.35633 1.34874 1.34116 1.33357 1.32598 1.3184 
1.31081 1.30322 1.29564 1.28805 1.28046 1.27288 1.26529 1.2577 1.25012 
1.24253 1.23494 1.22736 1.2211 1.2166 1.21211 1.20761 1.20312 1.19862 
1.19413 1.18963 1.18514 1.18064 1.17615 1.17165 1.16716 1.16266 1.15817 
1.15367 1.14918 1.14468 1.14018 1.13569 1.12965 1.11529 1.10093 1.08657 
1.07221 1.05785 1.04349 1.02913 1.01478 1.00042 0.986057 0.971699 0.95734 
0.942981 0.928622 0.914263 0.899904 0.885545 0.871186 0.856828 0.842469 0.835129 
0.828602 0.822076 0.815549 0.809023 0.802496 0.795969 0.789443 0.782916 0.77639 
0.769863 0.763336 0.75681 0.750283 0.743757 0.73723 0.730704 0.724177 0.71765 
0.711124 0.715325 0.725718 0.736112 0.746505 0.756899 0.767293 0.777686 0.78808 
0.798474 0.808867 0.819261 0.829654 0.840048 0.850442 0.860835 0.871229 0.881623 
0.892016 0.90241 0.912803 0.923142 0.933385 0.943628 0.953871 0.964113 0.974356 
0.984599 0.994842 1.00508 1.01533 1.02557 1.03581 1.04606 1.0563 1.06654 
1.07678 1.08703 1.09727 1.10751 1.11775 1.12765 1.13365 1.13964 1.14564 
1.15163 1.15763 1.16362 1.16962 1.17562 1.18161 1.18761 1.1936 1.1996 
1.20559 1.21159 1.21758 1.22358 1.22958 1.23557 1.24157 1.24756 1.24887 
1.249 1.24914 1.24927 1.2494 1.24953 1.24966 1.24979 1.24992 1.25005 
1.25018 1.25031 1.25044 1.25057 1.2507 1.25083 1.25096 1.2511 1.25123 
1.25136 1.25113 1.25057 1.25001 1.24945 1.24889 1.24833 1.24777 1.24721 
1.24665 1.24609 1.24553 1.24497 1.24441 1.24385 1.24329 1.24273 1.24217 
1.24161 1.24105 1.24049 1.24019 1.24073 1.24127 1.24181 1.24235 1.24289 
1.24343 1.24397 1.24451 1.24505 1.24559 1.24613 1.24668 1.24722 1.24776 
1.2483 1.24884 1.24938 1.24992 1.25046 1.251 1.25686 1.26301 1.26916 
1.27532 1.28147 1.28763 1.29378 1.29994 1.30609 1.31225 1.3184 1.32456 
1.33071 1.33687 1.34302 1.34918 1.35533 1.36149 1.36764 1.3738 1.38213 
1.39139 1.40064 1.40989 1.41915 1.4284 1.43766 1.44691 1.45617 1.46542 
1.47468 1.48393 1.49318 1.50244 1.51169 1.52095 1.5302 1.53946 1.54871 
1.55797 1.56579 1.56813 1.57046 1.5728 1.57513 1.57747 1.5798 1.58214 
1.58447 1.58681 1.58914 1.59148 1.59381 1.59615 1.59848 1.60081 1.60315 
1.60548 1.60782 1.61015 1.61412 1.61909 1.62406 1.62903 1.634 1.63897 
1.64393 1.6489 1.65387 1.65884 1.66381 1.66877 1.67374 1.67871 1.68368 
1.68865 1.69362 1.69858 1.70355 1.70852 1.71808 1.73601 1.75394 1.77188 
1.78981 1.80774 1.82568 1.84361 1.86154 1.87948 1.89741 1.91535 1.93328 
1.95121 1.96915 1.98708 2.00501 2.02295 2.04088 2.05881 2.07581 2.07351 
2.0712 2.0689 2.06659 2.06428 2.06198 2.05967 2.05737 2.05506 2.05276 
2.05045 2.04814 2.04584 2.04353 2.04123 2.03892 2.03661 2.03431 2.032 
2.0297 2.02161 2.01177 2.00194 1.9921 1.98226 1.97242 1.96259 1.95275 
1.94291 1.93308 1.92324 1.9134 1.90356 1.89373 1.88389 1.87405 1.86422 
1.85438 1.84454 1.8347 1.8217 1.80534 1.78897 1.7726 1.75623 1.73986 
1.72349 1.70712 1.69075 1.67439 1.65802 1.64165 1.62528 1.60891 1.59254 
1.57617 1.5598 1.54344 1.52707 1.5107 1.49593 1.4876 1.47926 1.47093 
1.46259 1.45425 1.44592 1.43758 1.42925 1.42091 1.41258 1.40424 1.3959 
1.38757 1.37923 1.3709 1.36256 1.35422 1.34589 1.33755 1.32922 1.33532 
1.34275 1.35019 1.35762 1.36505 1.37249 1.37992 1.38736 1.39479 1.40223 
1.40966 1.4171 1.42453 1.43197 1.4394 1.44684 1.45427 1.46171 1.46914 
1.47658 1.48563 1.49563 1.50562 1.51562 1.52562 1.53561 1.54561 1.5556 
1.5656 1.5756 1.58559 1.59559 1.60559 1.61558 1.62558 1.63557 1.64557 
1.65557 1.66556 1.67556 1.68487 1.6929 1.70094 1.70898 1.71702 1.72505 
1.73309 1.74113 1.74917 1.7572 1.76524 1.77328 1.78131 1.78935 1.79739 
1.80543 1.81346 1.8215 1.82954 1.83758 1.84503 1.84593 1.84683 1.84772 
1.84862 1.84952 1.85042 1.85131 1.85221 1.85311 1.85401 1.8549 1.8558 
1.8567 1.8576 1.85849 1.85939 1.86029 1.86118 1.86208 1.86298 1.86863 
1.87539 1.88215 1.88891 1.89568 1.90244 1.9092 1.91596 1.92273 1.92949 
1.93625 1.94301 1.94978 1.95654 1.9633 1.97006 1.97683 1.98359 1.99035 
1.99712 2.00311 2.00842 2.01374 2.01905 2.02437 2.02968 2.035 2.04031 
2.04563 2.05094 2.05626 2.06157 2.06688 2.0722 2.07751 2.08283 2.08814 
2.09346 2.09877 2.10409 2.10629 2.09908 2.09187 2.08467 2.07746 2.07025 
2.06305 2.05584 2.04863 2.04143 2.03422 2.02701 2.01981 2.0126 2.00539 
1.99819 1.99098 1.98377 1.97656 1.96936 1.96215 1.95731 1.95256 1.94781 
1.94306 1.93831 1.93355 1.9288 1.92405 1.9193 1.91455 1.90979 1.90504 
1.90029 1.89554 1.89079 1.88603 1.88128 1.87653 1.87178 1.86703 1.86532 
1.86505 1.86478 1.86451 1.86424 1.86397 1.8637 1.86342 1.86315 1.86288 
1.86261 1.86234 1.86207 1.86179 1.86152 1.86125 1.86098 1.86071 1.86044 
1.86016 1.86 1.86 1.86 1.86 1.86 1.86 1.86 1.86 
1.86 1.86 1.86 1.86 1.86 1.86 1.86 1.86 1.86 
1.86 1.86 1.86 1.86 1.86 1.86 1.86 1.86 1.86 
1.86 1.86 1.86 1.86 1.86 1.86 1.86 1.86 1.86 
1.86 1.86 1.86 1.86 1.86 1.86 1.86034 1.86074 1.86115 
1.86155 1.86196 1.86236 1.86276 1.86317 1.86357 1.86398 1.86438 1.86479 
1.86519 1.8656 1.866 1.86641 1.86681 1.86722 1.86762 1.86803 1.87096 
1.87598 1.88099 1.88601 1.89103 1.89605 1.90107 1.90609 1.91111 1.91612 
1.92114 1.92616 1.93118 1.9362 1.94122 1.94624 1.95125 1.95627 1.96129 
1.96631 1.97224 1.98069 1.98913 1.99758 2.00603 2.01447 2.02292 2.03136 
2.03981 2.04826 2.0567 2.06515 2.07359 2.08204 2.09048 2.09893 2.10738 
2.11582 2.12427 2.13271 2.14116 2.14307 2.14488 2.14669 2.1485 2.15031 
2.15213 2.15394 2.15575 2.15756 2.15937 2.16119 2.163 2.16481 2.16662 
2.16843 2.17025 2.17206 2.17387 2.17568 2.17749 2.17383 2.16806 2.16228 
2.15651 2.15073 2.14495 2.13918 2.1334 2.12763 2.12185 2.11608 2.1103 
2.10452 2.09875 2.09297 2.0872 2.08142 2.07564 2.06987 2.06409 2.05705 
2.04841 2.03978 2.03115 2.02251 2.01388 2.00525 1.99662 1.98798 1.97935 
1.97072 1.96208 1.95345 1.94482 1.93618 1.92755 1.91892 1.91028 1.90165 
1.89302 1.88977 1.90954 1.92931 1.94909 1.96886 1.98863 2.00841 2.02818 
2.04796 2.06773 2.0875 2.10728 2.12705 2.14683 2.1666 2.18637 2.20615 
2.22592 2.2457 2.26547 2.28524 2.30386 2.32235 2.34083 2.35932 2.3778 
2.39629 2.41478 2.43326 2.45175 2.47023 2.48872 2.50721 2.52569 2.54418 
2.56266 2.58115 2.59963 2.61812 2.63661 2.65509 2.64235 2.60961 2.57687 
2.54413 2.51139 2.47865 2.44591 2.41317 2.38043 2.34768 2.31494 2.2822 
2.24946 2.21672 2.18398 2.15124 2.1185 2.08576 2.05302 2.02028 1.9941 
1.98006 1.96602 1.95198 1.93794 1.9239 1.90986 1.89582 1.88178 1.86775 
1.85371 1.83967 1.82563 1.81159 1.79755 1.78351 1.76947 1.75544 1.7414 
1.72736 1.71469 1.73366 1.75264 1.77162 1.7906 1.80958 1.82856 1.84753 
1.86651 1.88549 1.90447 1.92345 1.94243 1.96141 1.98038 1.99936 2.01834 
2.03732 2.0563 2.07528 2.09425 2.09719 2.09605 2.09491 2.09376 2.09262 
2.09148 2.09034 2.0892 2.08806 2.08691 2.08577 2.08463 2.08349 2.08235 
2.08121 2.08006 2.07892 2.07778 2.07664 2.0755 2.06925 2.05813 2.047 
2.03588 2.02476 2.01363 2.00251 1.99139 1.98026 1.96914 1.95802 1.94689 
1.93577 1.92465 1.91352 1.9024 1.89128 1.88015 1.86903 1.8579 1.84999 
1.85258 1.85518 1.85777 1.86037 1.86296 1.86556 1.86815 1.87075 1.87334 
1.87594 1.87853 1.88113 1.88372 1.88632 1.88891 1.89151 1.89411 1.8967 
1.8993 1.90189 1.90494 1.90801 1.91107 1.91414 1.91721 1.92028 1.92335 
1.92642 1.92949 1.93256 1.93562 1.93869 1.94176 1.94483 1.9479 1.95097 
1.95404 1.95711 1.96017 1.96324 1.96516 1.96649 1.96783 1.96916 1.9705 
1.97183 1.97317 1.9745 1.97583 1.97717 1.9785 1.97984 1.98117 1.98251 
1.98384 1.98518 1.98651 1.98785 1.98918 1.99052 1.9933 1.99844 2.00357 
2.00871 2.01384 2.01898 2.02411 2.02925 2.03438 2.03952 2.04465 2.04979 
2.05492 2.06006 2.06519 2.07033 2.07546 2.0806 2.08573 2.09087 2.09508 
2.09012 2.08517 2.08022 2.07527 2.07032 2.06537 2.06042 2.05547 2.05052 
2.04556 2.04061 2.03566 2.03071 2.02576 2.02081 2.01586 2.01091 2.00596 
2.00101 1.99605 1.96591 1.93117 1.89643 1.86169 1.82695 1.79221 1.75747 
1.72273 1.68799 1.65325 1.61851 1.58377 1.54903 1.51429 1.47954 1.4448 
1.41006 1.37532 1.34058 1.30584 1.28829 1.2976 1.30691 1.31622 1.32553 
1.33484 1.34415 1.35346 1.36277 1.37208 1.38139 1.3907 1.40001 1.40932 
1.41863 1.42794 1.43725 1.44656 1.45587 1.46518 1.49368 1.5275 1.56131 
1.59513 1.62895 1.66276 1.69658 1.73039 1.76421 1.79803 1.83184 1.86566 
1.89947 1.93329 1.96711 2.00092 2.03474 2.06855 2.10237 2.13618 2.17 

TEXTURE_COORDINATES TCoords 2 float
0 0 0.000783085 0 0.00156617 0 0.00234926 0 0.00313234 
0 0.00391543 0 0.00469851 0 0.0054816 0 0.00626468 0 
0.00704777 0 0.00783085 0 0.00861394 0 0.00939702 0 0.0101801 
0 0.0109632 0 0.0117463 0 0.0125294 0 0.0133125 0 
0.0140955 0 0.0148786 0 0.0156617 0 0.0164448 0 0.0172279 
0 0.018011 0 0.018794 0 0.0195771 0 0.0203602 0 
0.0211433 0 0.0219264 0 0.0227095 0 0.0234926 0 0.0242756 
0 0.0250587 0 0.0258418 0 0.0266249 0 0.027408 0 
0.0281911 0 0.0289742 0 0.0297572 0 0.0305403 0 0.0313234 
0 0.0321065 0 0.0328896 0 0.0336727 0 0.0344558 0 
0.0352388 0 0.0360219 0 0.036805 0 0.0375881 0 0.0383712 
0 0.0391543 0 0.0399374 0 0.0407204 0 0.0415035 0 
0.0422866 0 0.0430697 0 0.0438528 0 0.0446359 0 0.045419 
0 0.046202 0 0.0469851 0 0.0477682 0 0.0485513 0 
0.0493344 0 0.0501175 0 0.0509005 0 0.0516836 0 0.0524667 
0 0.0532498 0 0.0540329 0 0.054816 0 0.0555991 0 
0.0563821 0 0.0571652 0 0.0579483 0 0.0587314 0 0.0595145 
0 0.0602976 0 0.0610807 0 0.0618637 0 0.0626468 0 
0.0634299 0 0.064213 0 0.0649961 0 0.0657792 0 0.0665623 
0 0.0673453 0 0.0681284 0 0.0689115 0 0.0696946 0 
0.0704777 0 0.0712608 0 0.0720439 0 0.0728269 0 0.07361 
0 0.0743931 0 0.0751762 0 0.0759593 0 0.0767424 0 
0.0775255 0 0.0783085 0 0.0790916 0 0.0798747 0 0.0806578 
0 0.0814409 0 0.082224 0 0.083007 0 0.0837901 0 
0.0845732 0 0.0853563 0 0.0861394 0 0.0869225 0 0.0877056 
0 0.0884886 0 0.0892717 0 0.0900548 0 0.0908379 0 
0.091621 0 0.0924041 0 0.0931872 0 0.0939702 0 0.0947533 
0 0.0955364 0 0.0963195 0 0.0971026 0 0.0978857 0 
0.0986688 0 0.0994518 0 0.100235 0 0.101018 0 0.101801 
0 0.102584 0 0.103367 0 0.10415 0 0.104933 0 
0.105717 0 0.1065 0 0.107283 0 0.108066 0 0.108849 
0 0.109632 0 0.110415 0 0.111198 0 0.111981 0 
0.112764 0 0.113547 0 0.11433 0 0.115114 0 0.115897 
0 0.11668 0 0.117463 0 0.118246 0 0.119029 0 
0.119812 0 0.120595 0 0.121378 0 0.122161 0 0.122944 
0 0.123727 0 0.124511 0 0.125294 0 0.126077 0 
0.12686 0 0.127643 0 0.128426 0 0.129209 0 0.129992 
0 0.130775 0 0.131558 0 0.132341 0 0.133125 0 
0.133908 0 0.134691 0 0.135474 0 0.136257 0 0.13704 
0 0.137823 0 0.138606 0 0.139389 0 0.140172 0 
0.140955 0 0.141738 0 0.142522 0 0.143305 0 0.144088 
0 0.144871 0 0.145654 0 0.146437 0 0.14722 0 
0.148003 0 0.148786 0 0.149569 0 0.150352 0 0.151135 
0 0.151919 0 0.152702 0 0.153485 0 0.154268 0 
0.155051 0 0.155834 0 0.156617 0 0.1574 0 0.158183 
0 0.158966 0 0.159749 0 0.160533 0 0.161316 0 
0.162099 0 0.162882 0 0.163665 0 0.164448 0 0.165231 
0 0.166014 0 0.166797 0 0.16758 0 0.168363 0 
0.169146 0 0.16993 0 0.170713 0 0.171496 0 0.172279 
0 0.173062 0 0.173845 0 0.174628 0 0.175411 0 
0.176194 0 0.176977 0 0.17776 0 0.178543 0 0.179327 
0 0.18011 0 0.180893 0 0.181676 0 0.182459 0 
0.183242 0 0.184025 0 0.184808 0 0.185591 0 0.186374 
0 0.187157 0 0.18794 0 0.188724 0 0.189507 0 
0.19029 0 0.191073 0 0.191856 0 0.192639 0 0.193422 
0 0.194205 0 0.194988 0 0.195771 0 0.196554 0 
0.197338 0 0.198121 0 0.198904 0 0.199687 0 0.20047 
0 0.201253 0 0.202036 0 0.202819 0 0.203602 0 
0.204385 0 0.205168 0 0.205951 0 0.206735 0 0.207518 
0 0.208301 0 0.209084 0 0.209867 0 0.21065 0 
0.211433 0 0.212216 0 0.212999 0 0.213782 0 0.214565 
0 0.215348 0 0.216132 0 0.216915 0 0.217698 0 
0.218481 0 0.219264 0 0.220047 0 0.22083 0 0.221613 
0 0.222396 0 0.223179 0 0.223962 0 0.224745 0 
0.225529 0 0.226312 0 0.227095 0 0.227878 0 0.228661 
0 0.229444 0 0.230227 0 0.23101 0 0.231793 0 
0.232576 0 0.233359 0 0.234143 0 0.234926 0 0.235709 
0 0.236492 0 0.237275 0 0.238058 0 0.238841 0 
0.239624 0 0.240407 0 0.24119 0 0.241973 0 0.242756 
0 0.24354 0 0.244323 0 0.245106 0 0.245889 0 
0.246672 0 0.247455 0 0.248238 0 0.249021 0 0.249804 
0 0.250587 0 0.25137 0 0.252153 0 0.252937 0 
0.25372 0 0.254503 0 0.255286 0 0.256069 0 0.256852 
0 0.257635 0 0.258418 0 0.259201 0 0.259984 0 
0.260767 0 0.261551 0 0.262334 0 0.263117 0 0.2639 
0 0.264683 0 0.265466 0 0.266249 0 0.267032 0 
0.267815 0 0.268598 0 0.269381 0 0.270164 0 0.270948 
0 0.271731 0 0.272514 0 0.273297 0 0.27408 0 
0.274863 0 0.275646 0 0.276429 0 0.277212 0 0.277995 
0 0.278778 0 0.279561 0 0.280345 0 0.281128 0 
0.281911 0 0.282694 0 0.283477 0 0.28426 0 0.285043 
0 0.285826 0 0.286609 0 0.287392 0 0.288175 0 
0.288958 0 0.289742 0 0.290525 0 0.291308 0 0.292091 
0 0.292874 0 0.293657 0 0.29444 0 0.295223 0 
0.296006 0 0.296789 0 0.297572 0 0.298356 0 0.299139 
0 0.299922 0 0.300705 0 0.301488 0 0.302271 0 
0.303054 0 0.303837 0 0.30462 0 0.305403 0 0.306186 
0 0.306969 0 0.307753 0 0.308536 0 0.309319 0 
0.310102 0 0.310885 0 0.311668 0 0.312451 0 0.313234 
0 0.314017 0 0.3148 0 0.315583 0 0.316366 0 
0.31715 0 0.317933 0 0.318716 0 0.319499 0 0.320282 
0 0.321065 0 0.321848 0 0.322631 0 0.323414 0 
0.324197 0 0.32498 0 0.325763 0 0.326547 0 0.32733 
0 0.328113 0 0.328896 0 0.329679 0 0.330462 0 
0.331245 0 0.332028 0 0.332811 0 0.333594 0 0.334377 
0 0.335161 0 0.335944 0 0.336727 0 0.33751 0 
0.338293 0 0.339076 0 0.339859 0 0.340642 0 0.341425 
0 0.342208 0 0.342991 0 0.343774 0 0.344558 0 
0.345341 0 0.346124 0 0.346907 0 0.34769 0 0.348473 
0 0.349256 0 0.350039 0 0.350822 0 0.351605 0 
0.352388 0 0.353171 0 0.353955 0 0.354738 0 0.355521 
0 0.356304 0 0.357087 0 0.35787 0 0.358653 0 
0.359436 0 0.360219 0 0.361002 0 0.361785 0 0.362569 
0 0.363352 0 0.364135 0 0.364918 0 0.365701 0 
0.366484 0 0.367267 0 0.36805 0 0.368833 0 0.369616 
0 0.370399 0 0.371182 0 0.371966 0 0.372749 0 
0.373532 0 0.374315 0 0.375098 0 0.375881 0 0.376664 
0 0.377447 0 0.37823 0 0.379013 0 0.379796 0 
0.380579 0 0.381363 0 0.382146 0 0.382929 0 0.383712 
0 0.384495 0 0.385278 0 0.386061 0 0.386844 0 
0.387627 0 0.38841 0 0.389193 0 0.389977 0 0.39076 
0 0.391543 0 0.392326 0 0.393109 0 0.393892 0 
0.394675 0 0.395458 0 0.396241 0 0.397024 0 0.397807 
0 0.39859 0 0.399374 0 0.400157 0 0.40094 0 
0.401723 0 0.402506 0 0.403289 0 0.404072 0 0.404855 
0 0.405638 0 0.406421 0 0.407204 0 0.407987 0 
0.408771 0 0.409554 0 0.410337 0 0.41112 0 0.411903 
0 0.412686 0 0.413469 0 0.414252 0 0.415035 0 
0.415818 0 0.416601 0 0.417385 0 0.418168 0 0.418951 
0 0.419734 0 0.420517 0 0.4213 0 0.422083 0 
0.422866 0 0.423649 0 0.424432 0 0.425215 0 0.425998 
0 0.426782 0 0.427565 0 0.428348 0 0.429131 0 
0.429914 0 0.430697 0 0.43148 0 0.432263 0 0.433046 
0 0.433829 0 0.434612 0 0.435395 0 0.436179 0 
0.436962 0 0.437745 0 0.438528 0 0.439311 0 0.440094 
0 0.440877 0 0.44166 0 0.442443 0 0.443226 0 
0.444009 0 0.444792 0 0.445576 0 0.446359 0 0.447142 
0 0.447925 0 0.448708 0 0.449491 0 0.450274 0 
0.451057 0 0.45184 0 0.452623 0 0.453406 0 0.45419 
0 0.454973 0 0.455756 0 0.456539 0 0.457322 0 
0.458105 0 0.458888 0 0.459671 0 0.460454 0 0.461237 
0 0.46202 0 0.462803 0 0.463587 0 0.46437 0 
0.465153 0 0.465936 0 0.466719 0 0.467502 0 0.468285 
0 0.469068 0 0.469851 0 0.470634 0 0.471417 0 
0.4722 0 0.472984 0 0.473767 0 0.47455 0 0.475333 
0 0.476116 0 0.476899 0 0.477682 0 0.478465 0 
0.479248 0 0.480031 0 0.480814 0 0.481597 0 0.482381 
0 0.483164 0 0.483947 0 0.48473 0 0.485513 0 
0.486296 0 0.487079 0 0.487862 0 0.488645 0 0.489428 
0 0.490211 0 0.490995 0 0.491778 0 0.492561 0 
0.493344 0 0.494127 0 0.49491 0 0.495693 0 0.496476 
0 0.497259 0 0.498042 0 0.498825 0 0.499608 0 
0.500392 0 0.501175 0 0.501958 0 0.502741 0 0.503524 
0 0.504307 0 0.50509 0 0.505873 0 0.506656 0 
0.507439 0 0.508222 0 0.509005 0 0.509789 0 0.510572 
0 0.511355 0 0.512138 0 0.512921 0 0.513704 0 
0.514487 0 0.51527 0 0.516053 0 0.516836 0 0.517619 
0 0.518403 0 0.519186 0 0.519969 0 0.520752 0 
0.521535 0 0.522318 0 0.523101 0 0.523884 0 0.524667 
0 0.52545 0 0.526233 0 0.527016 0 0.5278 0 
0.528583 0 0.529366 0 0.530149 0 0.530932 0 0.531715 
0 0.532498 0 0.533281 0 0.534064 0 0.534847 0 
0.53563 0 0.536413 0 0.537197 0 0.53798 0 0.538763 
0 0.539546 0 0.540329 0 0.541112 0 0.541895 0 
0.542678 0 0.543461 0 0.544244 0 0.545027 0 0.545811 
0 0.546594 0 0.547377 0 0.54816 0 0.548943 0 
0.549726 0 0.550509 0 0.551292 0 0.552075 0 0.552858 
0 0.553641 0 0.554424 0 0.555207 0 0.555991 0 
0.556774 0 0.557557 0 0.55834 0 0.559123 0 0.559906 
0 0.560689 0 0.561472 0 0.562255 0 0.563038 0 
0.563821 0 0.564605 0 0.565388 0 0.566171 0 0.566954 
0 0.567737 0 0.56852 0 0.569303 0 0.570086 0 
0.570869 0 0.571652 0 0.572435 0 0.573218 0 0.574002 
0 0.574785 0 0.575568 0 0.576351 0 0.577134 0 
0.577917 0 0.5787 0 0.579483 0 0.580266 0 0.581049 
0 0.581832 0 0.582615 0 0.583399 0 0.584182 0 
0.584965 0 0.585748 0 0.586531 0 0.587314 0 0.588097 
0 0.58888 0 0.589663 0 0.590446 0 0.591229 0 
0.592013 0 0.592796 0 0.593579 0 0.594362 0 0.595145 
0 0.595928 0 0.596711 0 0.597494 0 0.598277 0 
0.59906 0 0.599843 0 0.600626 0 0.60141 0 0.602193 
0 0.602976 0 0.603759 0 0.604542 0 0.605325 0 
0.606108 0 0.606891 0 0.607674 0 0.608457 0 0.60924 
0 0.610023 0 0.610807 0 0.61159 0 0.612373 0 
0.613156 0 0.613939 0 0.614722 0 0.615505 0 0.616288 
0 0.617071 0 0.617854 0 0.618637 0 0.619421 0 
0.620204 0 0.620987 0 0.62177 0 0.622553 0 0.623336 
0 0.624119 0 0.624902 0 0.625685 0 0.626468 0 
0.627251 0 0.628034 0 0.628818 0 0.629601 0 0.630384 
0 0.631167 0 0.63195 0 0.632733 0 0.633516 0 
0.634299 0 0.635082 0 0.635865 0 0.636648 0 0.637432 
0 0.638215 0 0.638998 0 0.639781 0 0.640564 0 
0.641347 0 0.64213 0 0.642913 0 0.643696 0 0.644479 
0 0.645262 0 0.646045 0 0.646829 0 0.647612 0 
0.648395 0 0.649178 0 0.649961 0 0.650744 0 0.651527 
0 0.65231 0 0.653093 0 0.653876 0 0.654659 0 
0.655442 0 0.656226 0 0.657009 0 0.657792 0 0.658575 
0 0.659358 0 0.660141 0 0.660924 0 0.661707 0 
0.66249 0 0.663273 0 0.664056 0 0.664839 0 0.665623 
0 0.666406 0 0.667189 0 0.667972 0 0.668755 0 