# vtk DataFile Version 4.2
vtk output
ASCII
DATASET POLYDATA
POINTS 1275 float
0 0 0 -0.00312998 0.0024645 0.00126886 -0.0122576 0.00962645 0.00499164 
-0.0269895 0.0211385 0.0110427 -0.046932 0.0366533 0.0192963 -0.0716918 0.0558235 0.0296269 
-0.100875 0.0783018 0.0419086 -0.134089 0.103741 0.056016 -0.17094 0.131793 0.0718232 
-0.211034 0.162112 0.0892046 -0.253979 0.194349 0.108035 -0.299379 0.228158 0.128187 
-0.346843 0.26319 0.149538 -0.395976 0.299099 0.171959 -0.446385 0.335538 0.195326 
-0.497677 0.372159 0.219514 -0.549458 0.408614 0.244396 -0.601335 0.444556 0.269847 
-0.652914 0.479639 0.295741 -0.703802 0.513514 0.321953 -0.753605 0.545835 0.348356 
-0.801939 0.576261 0.374828 -0.848651 0.604662 0.401312 -0.893835 0.631126 0.427819 
-0.937596 0.655753 0.454367 -0.980041 0.678641 0.480971 -1.02127 0.699892 0.507646 
-1.0614 0.719602 0.534411 -1.10053 0.737874 0.561279 -1.13876 0.754804 0.588267 
-1.1762 0.770494 0.615392 -1.21296 0.785043 0.642669 -1.24914 0.798549 0.670114 
-1.28484 0.811112 0.697743 -1.32018 0.822832 0.725573 -1.35526 0.833809 0.753619 
-1.39018 0.844141 0.781897 -1.42505 0.853927 0.810424 -1.45997 0.863269 0.839215 
-1.49505 0.872264 0.868287 -1.5304 0.881012 0.897654 -1.56612 0.88961 0.927334 
-1.60225 0.898098 0.957327 -1.63876 0.906449 0.987616 -1.67564 0.914635 1.01819 
-1.71284 0.92263 1.04903 -1.75034 0.930403 1.08011 -1.78812 0.937928 1.11143 
-1.82615 0.945176 1.14297 -1.86439 0.95212 1.17471 -1.90283 0.95873 1.20664 
-1.94143 0.964979 1.23874 -1.98016 0.970838 1.27099 -2.01901 0.976281 1.30339 
-2.05793 0.981277 1.3359 -2.0969 0.9858 1.36852 -2.1359 0.989821 1.40124 
-2.1749 0.993312 1.43402 -2.21386 0.996245 1.46687 -2.25277 0.998592 1.49976 
-2.29158 1.00032 1.53268 -2.33029 1.00142 1.56561 -2.36886 1.00184 1.59854 
-2.4073 1.00161 1.63146 -2.44563 1.00071 1.66435 -2.48384 0.999139 1.69722 
-2.52194 0.996905 1.73004 -2.55994 0.994004 1.76281 -2.59786 0.990435 1.79553 
-2.63568 0.986198 1.82817 -2.67343 0.981292 1.86074 -2.7111 0.975715 1.89322 
-2.74871 0.969469 1.9256 -2.78626 0.962551 1.95788 -2.82375 0.954961 1.99003 
-2.86121 0.946699 2.02207 -2.89862 0.937763 2.05397 -2.936 0.928154 2.08572 
-2.97336 0.91787 2.11732 -3.01071 0.906911 2.14876 -3.04804 0.895276 2.18002 
-3.08537 0.882965 2.2111 -3.12269 0.869976 2.24199 -3.16002 0.856304 2.27266 
-3.19732 0.841942 2.3031 -3.2346 0.826885 2.33329 -3.27183 0.811127 2.3632 
-3.30902 0.794662 2.39281 -3.34615 0.777484 2.42211 -3.38321 0.759587 2.45107 
-3.42018 0.740964 2.47967 -3.45707 0.72161 2.50789 -3.49386 0.701519 2.53572 
-3.53053 0.680685 2.56312 -3.56708 0.659101 2.59007 -3.6035 0.636762 2.61657 
-3.63977 0.613662 2.64258 -3.67589 0.589794 2.66809 -3.71184 0.565154 2.69307 
-3.74763 0.539733 2.7175 -3.78322 0.513528 2.74137 -3.81862 0.486531 2.76465 
-3.85381 0.45874 2.78732 -3.88879 0.430165 2.80937 -3.92355 0.400827 2.8308 
-3.95808 0.370747 2.85159 -3.99237 0.339945 2.87175 -4.02642 0.30844 2.89126 
-4.06021 0.276253 2.91012 -4.09375 0.243403 2.92832 -4.12703 0.209912 2.94585 
-4.16003 0.175799 2.96271 -4.19276 0.141084 2.97889 -4.22519 0.105788 2.99439 
-4.25733 0.0699301 3.00919 -4.28918 0.0335309 3.02329 -4.32071 -0.00338946 3.03669 
-4.35192 -0.0408109 3.04937 -4.38282 -0.0787134 3.06134 -4.41338 -0.117077 3.07258 
-4.44361 -0.155881 3.08308 -4.47349 -0.195105 3.09285 -4.50302 -0.23473 3.10186 
-4.5322 -0.274738 3.11014 -4.56103 -0.31511 3.11769 -4.58953 -0.35583 3.12452 
-4.6177 -0.396881 3.13065 -4.64555 -0.438246 3.13608 -4.67308 -0.479908 3.14084 
-4.7003 -0.52185 3.14492 -4.72722 -0.564054 3.14836 -4.75385 -0.606504 3.15115 
-4.78019 -0.649182 3.15331 -4.80624 -0.692071 3.15485 -4.83203 -0.735155 3.15579 
-4.85755 -0.778416 3.15614 -4.88281 -0.821838 3.15591 -4.90782 -0.865402 3.15511 
-4.93258 -0.909093 3.15375 -4.95711 -0.952892 3.15185 -4.9814 -0.996784 3.14942 
-5.00547 -1.04075 3.14648 -5.02932 -1.08477 3.14303 -5.05297 -1.12884 3.13908 
-5.07641 -1.17295 3.13465 -5.09965 -1.21709 3.12974 -5.12271 -1.26126 3.12435 
-5.14558 -1.30545 3.1185 -5.16828 -1.34966 3.11218 -5.19081 -1.39388 3.10542 
-5.21318 -1.43811 3.09821 -5.2354 -1.48233 3.09056 -5.25747 -1.52655 3.08248 
-5.2794 -1.57076 3.07397 -5.3012 -1.61494 3.06505 -5.32287 -1.65911 3.05571 
-5.34443 -1.70325 3.04597 -5.36587 -1.74735 3.03584 -5.3872 -1.79141 3.02532 
-5.40844 -1.83543 3.01441 -5.42959 -1.8794 3.00312 -5.45066 -1.92331 2.99147 
-5.47164 -1.96716 2.97946 -5.49256 -2.01094 2.96709 -5.51341 -2.05465 2.95436 
-5.53419 -2.09828 2.94129 -5.55491 -2.14184 2.92786 -5.57557 -2.18531 2.91408 
-5.59617 -2.22871 2.89996 -5.6167 -2.27201 2.88549 -5.63719 -2.31523 2.87067 
-5.65761 -2.35835 2.85551 -5.67799 -2.40137 2.84 -5.69832 -2.44429 2.82416 
-5.71859 -2.48711 2.80797 -5.73882 -2.52982 2.79145 -5.75901 -2.57243 2.77459 
-5.77916 -2.61492 2.7574 -5.79926 -2.65729 2.73987 -5.81933 -2.69954 2.72201 
-5.83936 -2.74167 2.70381 -5.85936 -2.78367 2.68529 -5.87932 -2.82555 2.66644 
-5.89926 -2.86729 2.64726 -5.91916 -2.9089 2.62776 -5.93903 -2.95036 2.60792 
-5.95885 -2.99169 2.58776 -5.97864 -3.03287 2.56726 -5.99838 -3.07391 2.54643 
-6.01807 -3.1148 2.52526 -6.0377 -3.15553 2.50376 -6.05728 -3.19611 2.48192 
-6.0768 -3.23654 2.45974 -6.09626 -3.2768 2.43721 -6.11565 -3.31691 2.41435 
-6.13497 -3.35684 2.39114 -6.15422 -3.39662 2.36758 -6.1734 -3.43622 2.34368 
-6.19249 -3.47564 2.31943 -6.2115 -3.51489 2.29482 -6.23042 -3.55397 2.26987 
-6.24926 -3.59286 2.24456 -6.268 -3.63157 2.2189 -6.28664 -3.67009 2.19288 
-6.30518 -3.70842 2.1665 -6.32361 -3.74657 2.13976 -6.34191 -3.78451 2.11267 
-6.36008 -3.82227 2.08521 -6.37811 -3.85982 2.05738 -6.39599 -3.89718 2.02919 
-6.41371 -3.93433 2.00063 -6.43125 -3.97127 1.97171 -6.44862 -4.00801 1.94241 
-6.46579 -4.04454 1.91274 -6.48276 -4.08086 1.8827 -6.49953 -4.11696 1.85229 
-6.51607 -4.15285 1.8215 -6.53239 -4.18851 1.79033 -6.54846 -4.22396 1.75878 
-6.56429 -4.25918 1.72685 -6.57986 -4.29417 1.69454 -6.59517 -4.32894 1.66185 
-6.61019 -4.36347 1.62877 -6.62493 -4.39777 1.5953 -6.63937 -4.43184 1.56145 
-6.65349 -4.46567 1.52722 -6.66729 -4.49926 1.49261 -6.68073 -4.53262 1.45763 
-6.69382 -4.56574 1.42228 -6.70652 -4.59862 1.38658 -6.71883 -4.63125 1.35052 
-6.73074 -4.66365 1.31411 -6.74221 -4.6958 1.27735 -6.75324 -4.72771 1.24026 
-6.76381 -4.75938 1.20283 -6.77391 -4.7908 1.16507 -6.78352 -4.82198 1.12699 
-6.79262 -4.85291 1.08859 -6.8012 -4.88359 1.04988 -6.80924 -4.91403 1.01086 
-6.81672 -4.94422 0.971531 -6.82364 -4.97415 0.931909 -6.82996 -5.00384 0.891994 
-6.83569 -5.03327 0.851792 -6.8408 -5.06245 0.81131 -6.84528 -5.09139 0.770562 
-6.84914 -5.12007 0.729564 -6.85236 -5.14852 0.688333 -6.85495 -5.17673 0.646884 
-6.85689 -5.2047 0.605233 -6.85819 -5.23244 0.563396 -6.85884 -5.25995 0.521389 
-6.85883 -5.28724 0.479229 -6.85817 -5.3143 0.436931 -6.85683 -5.34115 0.39451 
-6.85483 -5.36778 0.351984 -6.85215 -5.39421 0.309368 -6.84879 -5.42042 0.266678 
-6.84475 -5.44643 0.22393 -6.84002 -5.47224 0.18114 -6.8346 -5.49785 0.138325 
-6.82848 -5.52326 0.0954987 -6.82165 -5.54849 0.0526788 -6.81412 -5.57353 0.00988079 
-6.80588 -5.59838 -0.0328798 -6.79693 -5.62306 -0.0755918 -6.78729 -5.64757 -0.118246 
-6.77698 -5.67191 -0.160832 -6.766 -5.6961 -0.203342 -6.75436 -5.72015 -0.245765 
-6.74209 -5.74405 -0.288093 -6.72918 -5.76781 -0.330316 -6.71566 -5.79146 -0.372424 
-6.70153 -5.81498 -0.414409 -6.68681 -5.83839 -0.45626 -6.67152 -5.8617 -0.497968 
-6.65565 -5.8849 -0.539524 -6.63923 -5.90803 -0.580919 -6.62227 -5.93106 -0.622143 
-6.60478 -5.95403 -0.663187 -6.58677 -5.97692 -0.704041 -6.56825 -5.99976 -0.744696 
-6.54924 -6.02254 -0.785142 -6.52975 -6.04527 -0.825371 -6.50979 -6.06797 -0.865372 
-6.48938 -6.09063 -0.905142 -6.46852 -6.11327 -0.94468 -6.44722 -6.13589 -0.983985 
-6.4255 -6.15848 -1.02306 -6.40336 -6.18106 -1.0619 -6.38082 -6.20364 -1.10051 
-6.35788 -6.22621 -1.13888 -6.33457 -6.24878 -1.17702 -6.31088 -6.27135 -1.21493 
-6.28683 -6.29394 -1.2526 -6.26243 -6.31654 -1.29004 -6.23769 -6.33916 -1.32724 
-6.21262 -6.36181 -1.36421 -6.18723 -6.38449 -1.40094 -6.16153 -6.4072 -1.43744 
-6.13553 -6.42995 -1.4737 -6.10925 -6.45275 -1.50973 -6.08269 -6.47559 -1.54551 
-6.05587 -6.49849 -1.58107 -6.02879 -6.52144 -1.61638 -6.00146 -6.54446 -1.65146 
-5.97389 -6.56755 -1.6863 -5.94609 -6.59071 -1.72089 -5.91805 -6.61395 -1.75524 
-5.88978 -6.63727 -1.78934 -5.86129 -6.66068 -1.8232 -5.83258 -6.68418 -1.8568 
-5.80366 -6.70777 -1.89015 -5.77453 -6.73147 -1.92324 -5.74519 -6.75528 -1.95607 
-5.71565 -6.7792 -1.98865 -5.68591 -6.80323 -2.02096 -5.65598 -6.82739 -2.053 
-5.62587 -6.85167 -2.08478 -5.59557 -6.87608 -2.11629 -5.56509 -6.90063 -2.14752 
-5.53445 -6.92532 -2.17848 -5.50363 -6.95016 -2.20917 -5.47264 -6.97514 -2.23957 
-5.4415 -7.00029 -2.2697 -5.4102 -7.02559 -2.29954 -5.37875 -7.05105 -2.32909 
-5.34716 -7.07667 -2.35836 -5.31542 -7.10246 -2.38733 -5.28355 -7.12841 -2.41601 
-5.25154 -7.15452 -2.44439 -5.21941 -7.1808 -2.47246 -5.18715 -7.20724 -2.50024 
-5.15478 -7.23385 -2.5277 -5.12229 -7.26063 -2.55486 -5.08969 -7.28758 -2.58171 
-5.05699 -7.3147 -2.60823 -5.02419 -7.34198 -2.63444 -4.9913 -7.36944 -2.66033 
-4.95832 -7.39707 -2.68589 -4.92525 -7.42487 -2.71113 -4.8921 -7.45285 -2.73603 
-4.85887 -7.481 -2.76061 -4.82557 -7.50932 -2.78484 -4.79221 -7.53782 -2.80874 
-4.75879 -7.5665 -2.83229 -4.7253 -7.59538 -2.85547 -4.69175 -7.62447 -2.87823 
-4.65814 -7.65382 -2.90054 -4.62447 -7.68344 -2.92236 -4.59073 -7.71337 -2.94365 
-4.55693 -7.74362 -2.96437 -4.52306 -7.77422 -2.98447 -4.48913 -7.80521 -3.00392 
-4.45513 -7.8366 -3.02268 -4.42106 -7.86842 -3.04071 -4.38693 -7.9007 -3.05797 
-4.35273 -7.93347 -3.07441 -4.31846 -7.96674 -3.09001 -4.28412 -8.00056 -3.10471 
-4.24971 -8.03493 -3.11849 -4.21523 -8.06989 -3.13129 -4.18068 -8.10547 -3.14308 
-4.14606 -8.14169 -3.15383 -4.11136 -8.17858 -3.16348 -4.0766 -8.21616 -3.172 
-4.04181 -8.25441 -3.17935 -4.0071 -8.29326 -3.18546 -3.97255 -8.33264 -3.19029 
[...]
CELL_DATA 1
FIELD FieldData 2
Length 1 1 double
63.736483495 
Tortuosity 1 1 double
1.2404513557 
POINT_DATA 1275
SCALARS MaximumInscribedSphereRadius float
LOOKUP_TABLE default
0.9796 0.97775 0.9759 0.974049 0.972199 0.970349 0.968499 0.966648 0.964798 
0.962948 0.961098 0.959247 0.957397 0.955547 0.953697 0.951847 0.949996 0.948146 
0.946296 0.944446 0.942595 0.945643 0.954057 0.962471 0.970885 0.979299 0.987713 
0.996127 1.00454 1.01296 1.02137 1.02978 1.0382 1.04661 1.05503 1.06344 
1.07185 1.08027 1.08868 1.0971 1.10551 1.11164 1.11521 1.11879 1.12236 
1.12593 1.1295 1.13307 1.13664 1.14021 1.14379 1.14736 1.15093 1.1545 
1.15807 1.16164 1.16521 1.16879 1.17236 1.17593 1.1795 1.18021 1.17206 
1.1639 1.15575 1.14759 1.13944 1.13129 1.12313 1.11498 1.10682 1.09867 
1.09051 1.08236 1.07421 1.06605 1.0579 1.04974 1.04159 1.03343 1.02528 
1.01713 1.0351 1.0531 1.0711 1.08909 1.10709 1.12508 1.14308 1.16107 
1.17907 1.19707 1.21506 1.23306 1.25105 1.26905 1.28704 1.30504 1.32304 
1.34103 1.35903 1.37702 1.36212 1.33811 1.31411 1.29011 1.2661 1.2421 
1.2181 1.19409 1.17009 1.14609 1.12208 1.09808 1.07408 1.05007 1.02607 
1.00207 0.978062 0.954059 0.930056 0.906052 0.904382 0.918276 0.93217 0.946064 
0.959958 0.973852 0.987745 1.00164 1.01553 1.02943 1.04332 1.05722 1.07111 
1.085 1.0989 1.11279 1.12669 1.14058 1.15447 1.16837 1.18191 1.1948 
1.20769 1.22058 1.23347 1.24636 1.25926 1.27215 1.28504 1.29793 1.31082 
1.32371 1.3366 1.3495 1.36239 1.37528 1.38817 1.40106 1.41395 1.42684 
1.43783 1.42905 1.42027 1.41149 1.40271 1.39393 1.38515 1.37637 1.36759 
1.35881 1.35003 1.34125 1.33247 1.32369 1.31491 1.30613 1.29735 1.28857 
1.27979 1.27101 1.26224 1.26163 1.26285 1.26408 1.2653 1.26652 1.26774 
1.26897 1.27019 1.27141 1.27264 1.27386 1.27508 1.27631 1.27753 1.27875 
1.27998 1.2812 1.28242 1.28364 1.28487 1.29338 1.30789 1.3224 1.33691 
1.35142 1.36594 1.38045 1.39496 1.40947 1.42398 1.4385 1.45301 1.46752 
1.48203 1.49654 1.51105 1.52557 1.54008 1.55459 1.5691 1.57642 1.56581 
1.55519 1.54458 1.53396 1.52335 1.51274 1.50212 1.49151 1.48089 1.47028 
1.45966 1.44905 1.43843 1.42782 1.41721 1.40659 1.39598 1.38536 1.37475 
1.36411 1.35283 1.34156 1.33028 1.319 1.30773 1.29645 1.28518 1.2739 
1.26262 1.25135 1.24007 1.22879 1.21752 1.20624 1.19497 1.18369 1.17241 
1.16114 1.14986 1.13858 1.15274 1.17305 1.19336 1.21366 1.23397 1.25428 
1.27458 1.29489 1.3152 1.3355 1.35581 1.37611 1.39642 1.41673 1.43703 
1.45734 1.47765 1.49795 1.51826 1.53857 1.54798 1.54873 1.54948 1.55024 
1.55099 1.55174 1.55249 1.55325 1.554 1.55475 1.5555 1.55626 1.55701 
1.55776 1.55851 1.55927 1.56002 1.56077 1.56152 1.56228 1.56807 1.58614 
1.60421 1.62228 1.64035 1.65842 1.67649 1.69456 1.71263 1.7307 1.74877 
1.76684 1.78491 1.80298 1.82105 1.83912 1.85719 1.87526 1.89333 1.9114 
1.92945 1.94672 1.96399 1.98126 1.99852 2.01579 2.03306 2.05033 2.0676 
2.08486 2.10213 2.1194 2.13667 2.15394 2.1712 2.18847 2.20574 2.22301 
2.24028 2.25754 2.27481 2.27971 2.28051 2.2813 2.2821 2.2829 2.28369 
2.28449 2.28529 2.28608 2.28688 2.28768 2.28848 2.28927 2.29007 2.29087 
2.29166 2.29246 2.29326 2.29405 2.29485 2.27973 2.2502 2.22068 2.19115 
2.16163 2.1321 2.10257 2.07305 2.04352 2.014 1.98447 1.95495 1.92542 
1.8959 1.86637 1.83685 1.80732 1.77779 1.74827 1.71874 1.70905 1.71167 
1.71428 1.7169 1.71951 1.72213 1.72474 1.72736 1.72997 1.73258 1.7352 
1.73781 1.74043 1.74304 1.74566 1.74827 1.75089 1.7535 1.75611 1.75873 
1.75422 1.74683 1.73945 1.73206 1.72468 1.71729 1.70991 1.70253 1.69514 
1.68776 1.68037 1.67299 1.6656 1.65822 1.65084 1.64345 1.63607 1.62868 
1.6213 1.61391 1.61583 1.62746 1.63909 1.65073 1.66236 1.67399 1.68562 
1.69726 1.70889 1.72052 1.73215 1.74379 1.75542 1.76705 1.77869 1.79032 
1.80195 1.81358 1.82522 1.83685 1.84845 1.85992 1.8714 1.88288 1.89435 
1.90583 1.91731 1.92878 1.94026 1.95173 1.96321 1.97469 1.98616 1.99764 
2.00912 2.02059 2.03207 2.04354 2.05502 2.0665 2.07797 2.07563 2.07248 
2.06933 2.06619 2.06304 2.0599 2.05675 2.0536 2.05046 2.04731 2.04417 
2.04102 2.03787 2.03473 2.03158 2.02844 2.02529 2.02214 2.019 2.01585 
2.01386 2.01241 2.01097 2.00953 2.00808 2.00664 2.00519 2.00375 2.00231 
2.00086 1.99942 1.99798 1.99653 1.99509 1.99365 1.9922 1.99076 1.98931 
1.98787 1.98643 1.98955 1.99863 2.00772 2.0168 2.02588 2.03497 2.04405 
2.05313 2.06222 2.0713 2.08039 2.08947 2.09855 2.10764 2.11672 2.1258 
2.13489 2.14397 2.15305 2.16214 2.16997 2.17374 2.17751 2.18128 2.18505 
2.18882 2.19259 2.19636 2.20013 2.2039 2.20767 2.21144 2.21521 2.21898 
2.22275 2.22652 2.23029 2.23406 2.23783 2.2416 2.24537 2.2568 2.26841 
2.28002 2.29163 2.30323 2.31484 2.32645 2.33806 2.34967 2.36128 2.37289 
2.3845 2.39611 2.40772 2.41932 2.43093 2.44254 2.45415 2.46576 2.47737 
2.47105 2.45958 2.44811 2.43664 2.42518 2.41371 2.40224 2.39077 2.3793 
2.36783 2.35636 2.34489 2.33342 2.32195 2.31049 2.29902 2.28755 2.27608 
2.26461 2.25246 2.23806 2.22367 2.20927 2.19487 2.18048 2.16608 2.15168 
2.13729 2.12289 2.10849 2.0941 2.0797 2.0653 2.05091 2.03651 2.02211 
2.00772 1.99332 1.97892 1.96454 1.95502 1.9455 1.93599 1.92647 1.91695 
1.90743 1.89791 1.88839 1.87888 1.86936 1.85984 1.85032 1.8408 1.83128 
1.82177 1.81225 1.80273 1.79321 1.78369 1.77417 1.76446 1.75468 1.74489 
1.73511 1.72532 1.71554 1.70575 1.69597 1.68619 1.6764 1.66662 1.65683 
1.64705 1.63727 1.62748 1.6177 1.60791 1.59813 1.58834 1.57856 1.57813 
1.58845 1.59877 1.60909 1.61941 1.62973 1.64006 1.65038 1.6607 1.67102 
1.68134 1.69166 1.70198 1.7123 1.72262 1.73294 1.74326 1.75358 1.7639 
1.77422 1.78636 1.80577 1.82519 1.84461 1.86402 1.88344 1.90285 1.92227 
1.94168 1.9611 1.98051 1.99993 2.01934 2.03876 2.05817 2.07759 2.097 
2.11642 2.13584 2.15525 2.17467 2.19083 2.20686 2.22289 2.23891 2.25494 
2.27097 2.287 2.30302 2.31905 2.33508 2.3511 2.36713 2.38316 2.39919 
2.41521 2.43124 2.44727 2.4633 2.47932 2.49535 2.4827 2.46275 2.44281 
2.42287 2.40292 2.38298 2.36304 2.34309 2.32315 2.30321 2.28326 2.26332 
2.24338 2.22343 2.20349 2.18355 2.1636 2.14366 2.12372 2.10377 2.07202 
2.03389 1.99576 1.95763 1.9195 1.88137 1.84324 1.80511 1.76698 1.72885 
1.69072 1.65259 1.61446 1.57633 1.5382 1.50007 1.46194 1.42381 1.38568 
1.34755 1.3276 1.33096 1.33432 1.33768 1.34103 1.34439 1.34775 1.35111 
1.35447 1.35782 1.36118 1.36454 1.3679 1.37126 1.37461 1.37797 1.38133 
1.38469 1.38805 1.3914 1.39538 1.40159 1.4078 1.41401 1.42022 1.42643 
1.43264 1.43885 1.44506 1.45127 1.45748 1.46369 1.4699 1.47611 1.48232 
1.48853 1.49474 1.50095 1.50716 1.51337 1.51958 1.53922 1.55899 1.57877 
1.59854 1.61832 1.63809 1.65787 1.67764 1.69742 1.71719 1.73697 1.75675 
1.77652 1.7963 1.81607 1.83585 1.85562 1.8754 1.89517 1.91495 1.92044 
1.92161 1.92279 1.92396 1.92513 1.92631 1.92748 1.92866 1.92983 1.931 
1.93218 1.93335 1.93452 1.9357 1.93687 1.93804 1.93922 1.94039 1.94156 
1.94274 1.93334 1.91513 1.89692 1.87872 1.86051 1.84231 1.8241 1.8059 
1.78769 1.76949 1.75128 1.73308 1.71487 1.69666 1.67846 1.66025 1.64205 
1.62384 1.60564 1.58743 1.57581 1.5781 1.58039 1.58269 1.58498 1.58728 
1.58957 1.59186 1.59416 1.59645 1.59874 1.60104 1.60333 1.60563 1.60792 
1.61021 1.61251 1.6148 1.61709 1.61939 1.62333 1.64351 1.66368 1.68385 
1.70402 1.7242 1.74437 1.76454 1.78471 1.80489 1.82506 1.84523 1.8654 
1.88558 1.90575 1.92592 1.94609 1.96627 1.98644 2.00661 2.02678 2.02661 
2.02303 2.01946 2.01589 2.01231 2.00874 2.00517 2.00159 1.99802 1.99445 
1.99087 1.9873 1.98372 1.98015 1.97658 1.973 1.96943 1.96586 1.96228 
1.95871 1.96009 1.96457 1.96906 1.97355 1.97804 1.98253 1.98701 1.9915 
1.99599 2.00048 2.00497 2.00946 2.01394 2.01843 2.02292 2.02741 2.0319 
2.03638 2.04087 2.04536 2.04886 2.05062 2.05238 2.05414 2.05589 2.05765 
2.05941 2.06117 2.06293 2.06468 2.06644 2.0682 2.06996 2.07172 2.07347 
2.07523 2.07699 2.07875 2.0805 2.08226 2.08279 2.07186 2.06093 2.04999 
2.03906 2.02813 2.01719 2.00626 1.99533 1.98439 1.97346 1.96252 1.95159 
1.94066 1.92972 1.91879 1.90786 1.89692 1.88599 1.87506 1.86412 1.85525 
1.84681 1.83838 1.82994 1.82151 1.81307 1.80464 1.7962 1.78777 1.77933 
1.7709 1.76246 1.75403 1.74559 1.73716 1.72872 1.72029 1.71185 1.70342 
1.69498 1.709 1.7418 1.77461 1.80741 1.84022 1.87303 1.90583 1.93864 
1.97144 2.00425 2.03705 2.06986 2.10266 2.13547 2.16827 2.20108 2.23388 
2.26669 2.29949 2.3323 2.35231 2.3366 2.3209 2.3052 2.28949 2.27379 
2.25808 2.24238 2.22668 2.21097 2.19527 2.17956 2.16386 2.14816 2.13245 
2.11675 2.10105 2.08534 2.06964 2.05393 2.03823 2.03664 2.03528 2.03392 
2.03257 2.03121 2.02985 2.0285 2.02714 2.02578 2.02443 2.02307 2.02171 
2.02036 2.019 2.01764 2.01629 2.01493 2.01357 2.01222 2.01086 2.02149 
2.03713 2.05277 2.06842 2.08406 2.0997 2.11534 2.13098 2.14663 2.16227 
2.17791 2.19355 2.20919 2.22483 2.24048 2.25612 2.27176 2.2874 2.30304 
2.31869 2.3349 2.35187 2.36884 2.38582 2.40279 2.41977 2.43674 2.45371 
2.47069 2.48766 2.50464 2.52161 2.53858 2.55556 2.57253 2.58951 2.60648 
2.62345 2.64043 2.6574 2.66916 2.65097 2.63277 2.61457 2.59637 2.57818 
2.55998 2.54178 2.52358 2.50539 2.48719 2.46899 2.45079 2.4326 2.4144 
2.3962 2.378 2.35981 2.34161 2.32341 2.30521 2.30893 2.31589 2.32285 
2.32981 2.33677 2.34373 2.35069 2.35765 2.36461 2.37157 2.37853 2.38549 
2.39245 2.39941 2.40637 2.41333 2.42029 2.42725 2.43421 2.44117 2.45705 
2.47896 2.50088 2.52279 2.5447 2.56661 2.58852 2.61043 2.63234 2.65425 
2.67616 2.69807 2.71998 2.74189 2.7638 2.78571 2.80763 2.82954 2.85145 
2.87336 2.88523 2.87767 2.8701 2.86253 2.85496 2.84739 2.83982 2.83225 
2.82469 2.81712 2.80955 2.80198 2.79441 2.78684 2.77928 2.77171 2.76414 
2.75657 2.749 2.74143 2.73054 2.70176 2.67298 2.64421 2.61543 2.58665 
2.55787 2.52909 2.50031 2.47153 2.44275 2.41398 2.3852 2.35642 2.32764 
2.29886 2.27008 2.2413 2.21252 2.18374 2.15579 2.14276 2.12973 2.11669 
2.10366 2.09062 2.07759 2.06456 2.05152 2.03849 2.02546 2.01242 1.99939 
1.98635 1.97332 1.96029 1.94725 1.93422 1.92118 1.90815 1.89512 1.91534 
1.94226 1.96918 1.9961 2.02302 2.04994 2.07687 2.10379 2.13071 2.15763 
2.18455 2.21148 2.2384 2.26532 2.29224 2.31916 2.34608 2.37301 2.39993 
2.42685 2.45103 2.47339 2.49576 2.51812 2.54048 2.56285 2.58521 2.60757 
2.62994 2.6523 2.67466 2.69703 2.71939 2.74175 2.76412 2.78648 2.80884 
2.83121 2.85357 2.87593 2.89121 2.90165 2.91209 2.92253 2.93297 2.94341 
2.95385 2.96428 2.97472 2.98516 2.9956 3.00604 3.01648 3.02692 3.03736 
3.0478 3.05824 3.06868 3.07912 3.08956 3.1 
TEXTURE_COORDINATES TCoords 2 float
0 0 0.000784929 0 0.00156986 0 0.00235479 0 0.00313972 
0 0.00392465 0 0.00470958 0 0.00549451 0 0.00627944 0 
0.00706436 0 0.00784929 0 0.00863422 0 0.00941915 0 0.0102041 
0 0.010989 0 0.0117739 0 0.0125589 0 0.0133438 0 
0.0141287 0 0.0149137 0 0.0156986 0 0.0164835 0 0.0172684 
0 0.0180534 0 0.0188383 0 0.0196232 0 0.0204082 0 
0.0211931 0 0.021978 0 0.022763 0 0.0235479 0 0.0243328 
0 0.0251177 0 0.0259027 0 0.0266876 0 0.0274725 0 
0.0282575 0 0.0290424 0 0.0298273 0 0.0306122 0 0.0313972 
0 0.0321821 0 0.032967 0 0.033752 0 0.0345369 0 
0.0353218 0 0.0361068 0 0.0368917 0 0.0376766 0 0.0384615 
0 0.0392465 0 0.0400314 0 0.0408163 0 0.0416013 0 
0.0423862 0 0.0431711 0 0.043956 0 0.044741 0 0.0455259 
0 0.0463108 0 0.0470958 0 0.0478807 0 0.0486656 0 
0.0494506 0 0.0502355 0 0.0510204 0 0.0518053 0 0.0525903 
0 0.0533752 0 0.0541601 0 0.0549451 0 0.05573 0 
0.0565149 0 0.0572998 0 0.0580848 0 0.0588697 0 0.0596546 
0 0.0604396 0 0.0612245 0 0.0620094 0 0.0627944 0 
0.0635793 0 0.0643642 0 0.0651491 0 0.0659341 0 0.066719 
0 0.0675039 0 0.0682889 0 0.0690738 0 0.0698587 0 
0.0706436 0 0.0714286 0 0.0722135 0 0.0729984 0 0.0737834 
0 0.0745683 0 0.0753532 0 0.0761381 0 0.0769231 0 
0.077708 0 0.0784929 0 0.0792779 0 0.0800628 0 0.0808477 
0 0.0816327 0 0.0824176 0 0.0832025 0 0.0839874 0 
0.0847724 0 0.0855573 0 0.0863422 0 0.0871272 0 0.0879121 
0 0.088697 0 0.0894819 0 0.0902669 0 0.0910518 0 
0.0918367 0 0.0926217 0 0.0934066 0 0.0941915 0 0.0949765 
0 0.0957614 0 0.0965463 0 0.0973312 0 0.0981162 0 
0.0989011 0 0.099686 0 0.100471 0 0.101256 0 0.102041 
0 0.102826 0 0.103611 0 0.104396 0 0.105181 0 
0.105965 0 0.10675 0 0.107535 0 0.10832 0 0.109105 
0 0.10989 0 0.110675 0 0.11146 0 0.112245 0 
0.11303 0 0.113815 0 0.1146 0 0.115385 0 0.11617 
0 0.116954 0 0.117739 0 0.118524 0 0.119309 0 
0.120094 0 0.120879 0 0.121664 0 0.122449 0 0.123234 
0 0.124019 0 0.124804 0 0.125589 0 0.126374 0 
0.127159 0 0.127943 0 0.128728 0 0.129513 0 0.130298 
0 0.131083 0 0.131868 0 0.132653 0 0.133438 0 
0.134223 0 0.135008 0 0.135793 0 0.136578 0 0.137363 
0 0.138148 0 0.138932 0 0.139717 0 0.140502 0 
0.141287 0 0.142072 0 0.142857 0 0.143642 0 0.144427 
0 0.145212 0 0.145997 0 0.146782 0 0.147567 0 
0.148352 0 0.149137 0 0.149922 0 0.150706 0 0.151491 
0 0.152276 0 0.153061 0 0.153846 0 0.154631 0 
0.155416 0 0.156201 0 0.156986 0 0.157771 0 0.158556 
0 0.159341 0 0.160126 0 0.160911 0 0.161695 0 
0.16248 0 0.163265 0 0.16405 0 0.164835 0 0.16562 
0 0.166405 0 0.16719 0 0.167975 0 0.16876 0 
0.169545 0 0.17033 0 0.171115 0 0.1719 0 0.172684 
0 0.173469 0 0.174254 0 0.175039 0 0.175824 0 
0.176609 0 0.177394 0 0.178179 0 0.178964 0 0.179749 
0 0.180534 0 0.181319 0 0.182104 0 0.182889 0 
0.183673 0 0.184458 0 0.185243 0 0.186028 0 0.186813 
0 0.187598 0 0.188383 0 0.189168 0 0.189953 0 
0.190738 0 0.191523 0 0.192308 0 0.193093 0 0.193878 
0 0.194662 0 0.195447 0 0.196232 0 0.197017 0 
0.197802 0 0.198587 0 0.199372 0 0.200157 0 0.200942 
0 0.201727 0 0.202512 0 0.203297 0 0.204082 0 
0.204867 0 0.205651 0 0.206436 0 0.207221 0 0.208006 
0 0.208791 0 0.209576 0 0.210361 0 0.211146 0 
0.211931 0 0.212716 0 0.213501 0 0.214286 0 0.215071 
0 0.215856 0 0.216641 0 0.217425 0 0.21821 0 
0.218995 0 0.21978 0 0.220565 0 0.22135 0 0.222135 
0 0.22292 0 0.223705 0 0.22449 0 0.225275 0 
0.22606 0 0.226845 0 0.22763 0 0.228414 0 0.229199 
0 0.229984 0 0.230769 0 0.231554 0 0.232339 0 
0.233124 0 0.233909 0 0.234694 0 0.235479 0 0.236264 
0 0.237049 0 0.237834 0 0.238619 0 0.239403 0 
0.240188 0 0.240973 0 0.241758 0 0.242543 0 0.243328 
0 0.244113 0 0.244898 0 0.245683 0 0.246468 0 
0.247253 0 0.248038 0 0.248823 0 0.249608 0 0.250392 
0 0.251177 0 0.251962 0 0.252747 0 0.253532 0 
0.254317 0 0.255102 0 0.255887 0 0.256672 0 0.257457 
0 0.258242 0 0.259027 0 0.259812 0 0.260597 0 
0.261381 0 0.262166 0 0.262951 0 0.263736 0 0.264521 
0 0.265306 0 0.266091 0 0.266876 0 0.267661 0 
0.268446 0 0.269231 0 0.270016 0 0.270801 0 0.271586 
0 0.27237 0 0.273155 0 0.27394 0 0.274725 0 
0.27551 0 0.276295 0 0.27708 0 0.277865 0 0.27865 
0 0.279435 0 0.28022 0 0.281005 0 0.28179 0 
0.282575 0 0.283359 0 0.284144 0 0.284929 0 0.285714 
0 0.286499 0 0.287284 0 0.288069 0 0.288854 0 
0.289639 0 0.290424 0 0.291209 0 0.291994 0 0.292779 
0 0.293564 0 0.294349 0 0.295133 0 0.295918 0 
0.296703 0 0.297488 0 0.298273 0 0.299058 0 0.299843 
0 0.300628 0 0.301413 0 0.302198 0 0.302983 0 
0.303768 0 0.304553 0 0.305338 0 0.306122 0 0.306907 
0 0.307692 0 0.308477 0 0.309262 0 0.310047 0 
0.310832 0 0.311617 0 0.312402 0 0.313187 0 0.313972 
0 0.314757 0 0.315542 0 0.316327 0 0.317111 0 
0.317896 0 0.318681 0 0.319466 0 0.320251 0 0.321036 
0 0.321821 0 0.322606 0 0.323391 0 0.324176 0 
0.324961 0 0.325746 0 0.326531 0 0.327316 0 0.3281 
0 0.328885 0 0.32967 0 0.330455 0 0.33124 0 
0.332025 0 0.33281 0 0.333595 0 0.33438 0 0.335165 
0 0.33595 0 0.336735 0 0.33752 0 0.338305 0 
0.339089 0 0.339874 0 0.340659 0 0.341444 0 0.342229 
0 0.343014 0 0.343799 0 0.344584 0 0.345369 0 
0.346154 0 0.346939 0 0.347724 0 0.348509 0 0.349294 
0 0.350078 0 0.350863 0 0.351648 0 0.352433 0 
0.353218 0 0.354003 0 0.354788 0 0.355573 0 0.356358 
0 0.357143 0 0.357928 0 0.358713 0 0.359498 0 
0.360283 0 0.361068 0 0.361852 0 0.362637 0 0.363422 
0 0.364207 0 0.364992 0 0.365777 0 0.366562 0 
0.367347 0 0.368132 0 0.368917 0 0.369702 0 0.370487 
0 0.371272 0 0.372057 0 0.372841 0 0.373626 0 
0.374411 0 0.375196 0 0.375981 0 0.376766 0 0.377551 
0 0.378336 0 0.379121 0 0.379906 0 0.380691 0 
0.381476 0 0.382261 0 0.383046 0 0.38383 0 0.384615 
0 0.3854 0 0.386185 0 0.38697 0 0.387755 0 
0.38854 0 0.389325 0 0.39011 0 0.390895 0 0.39168 
0 0.392465 0 0.39325 0 0.394035 0 0.394819 0 
0.395604 0 0.396389 0 0.397174 0 0.397959 0 0.398744 
0 0.399529 0 0.400314 0 0.401099 0 0.401884 0 
0.402669 0 0.403454 0 0.404239 0 0.405024 0 0.405808 
0 0.406593 0 0.407378 0 0.408163 0 0.408948 0 
0.409733 0 0.410518 0 0.411303 0 0.412088 0 0.412873 
0 0.413658 0 0.414443 0 0.415228 0 0.416013 0 
0.416797 0 0.417582 0 0.418367 0 0.419152 0 0.419937 
0 0.420722 0 0.421507 0 0.422292 0 0.423077 0 
0.423862 0 0.424647 0 0.425432 0 0.426217 0 0.427002 
0 0.427786 0 0.428571 0 0.429356 0 0.430141 0 
0.430926 0 0.431711 0 0.432496 0 0.433281 0 0.434066 
0 0.434851 0 0.435636 0 0.436421 0 0.437206 0 
0.437991 0 0.438776 0 0.43956 0 0.440345 0 0.44113 
0 0.441915 0 0.4427 0 0.443485 0 0.44427 0 
0.445055 0 0.44584 0 0.446625 0 0.44741 0 0.448195 
0 0.44898 0 0.449765 0 0.450549 0 0.451334 0 
0.452119 0 0.452904 0 0.453689 0 0.454474 0 0.455259 
0 0.456044 0 0.456829 0 0.457614 0 0.458399 0 
0.459184 0 0.459969 0 0.460754 0 0.461538 0 0.462323 
0 0.463108 0 0.463893 0 0.464678 0 0.465463 0 
0.466248 0 0.467033 0 0.467818 0 0.468603 0 0.469388 
0 0.470173 0 0.470958 0 0.471743 0 0.472527 0 
0.473312 0 0.474097 0 0.474882 0 0.475667 0 0.476452 
0 0.477237 0 0.478022 0 0.478807 0 0.479592 0 
0.480377 0 0.481162 0 0.481947 0 0.482732 0 0.483516 
0 0.484301 0 0.485086 0 0.485871 0 0.486656 0 
0.487441 0 0.488226 0 0.489011 0 0.489796 0 0.490581 
0 0.491366 0 0.492151 0 0.492936 0 0.493721 0 
0.494505 0 0.49529 0 0.496075 0 0.49686 0 0.497645 
0 0.49843 0 0.499215 0 0.5 0 0.500785 0 
0.50157 0 0.502355 0 0.50314 0 0.503925 0 0.50471 
0 0.505495 0 0.506279 0 0.507064 0 0.507849 0 
0.508634 0 0.509419 0 0.510204 0 0.510989 0 0.511774 
0 0.512559 0 0.513344 0 0.514129 0 0.514914 0 
0.515699 0 0.516484 0 0.517268 0 0.518053 0 0.518838 
0 0.519623 0 0.520408 0 0.521193 0 0.521978 0 
0.522763 0 0.523548 0 0.524333 0 0.525118 0 0.525903 
0 0.526688 0 0.527473 0 0.528257 0 0.529042 0 
0.529827 0 0.530612 0 0.531397 0 0.532182 0 0.532967 
0 0.533752 0 0.534537 0 0.535322 0 0.536107 0 
0.536892 0 0.537677 0 0.538462 0 0.539246 0 0.540031 
0 0.540816 0 0.541601 0 0.542386 0 0.543171 0 
0.543956 0 0.544741 0 0.545526 0 0.546311 0 0.547096 
0 0.547881 0 0.548666 0 0.549451 0 0.550235 0 
0.55102 0 0.551805 0 0.55259 0 0.553375 0 0.55416 
0 0.554945 0 0.55573 0 0.556515 0 0.5573 0 
0.558085 0 0.55887 0 0.559655 0 0.56044 0 0.561224 
0 0.562009 0 0.562794 0 0.563579 0 0.564364 0 
0.565149 0 0.565934 0 0.566719 0 0.567504 0 0.568289 
0 0.569074 0 0.569859 0 0.570644 0 0.571429 0 
0.572214 0 0.572998 0 0.573783 0 0.574568 0 0.575353 
0 0.576138 0 0.576923 0 0.577708 0 0.578493 0 
0.579278 0 0.580063 0 0.580848 0 0.581633 0 0.582418 
0 0.583203 0 0.583987 0 0.584772 0 0.585557 0 
0.586342 0 0.587127 0 0.587912 0 0.588697 0 0.589482 
0 0.590267 0 0.591052 0 0.591837 0 0.592622 0 
0.593407 0 0.594192 0 0.594976 0 0.595761 0 0.596546 
0 0.597331 0 0.598116 0 0.598901 0 0.599686 0 
0.600471 0 0.601256 0 0.602041 0 0.602826 0 0.603611 
0 0.604396 0 0.605181 0 0.605965 0 0.60675 0 
0.607535 0 0.60832 0 0.609105 0 0.60989 0 0.610675 
0 0.61146 0 0.612245 0 0.61303 0 0.613815 0 
0.6146 0 0.615385 0 0.61617 0 0.616954 0 0.617739 
0 0.618524 0 0.619309 0 0.620094 0 0.620879 0 
0.621664 0 0.622449 0 0.623234 0 0.624019 0 0.624804 
0 0.625589 0 0.626374 0 0.627159 0 0.627943 0 
0.628728 0 0.629513 0 0.630298 0 0.631083 0 0.631868 
0 0.632653 0 0.633438 0 0.634223 0 0.635008 0 
0.635793 0 0.636578 0 0.637363 0 0.638148 0 0.638932 
0 0.639717 0 0.640502 0 0.641287 0 0.642072 0 
0.642857 0 0.643642 0 0.644427 0 0.645212 0 0.645997 
0 0.646782 0 0.647567 0 0.648352 0 0.649137 0 
0.649922 0 0.650706 0 0.651491 0 0.652276 0 0.653061 
0 0.653846 0 0.654631 0 0.655416 0 0.656201 0 
0.656986 0 0.657771 0 0.658556 0 0.659341 0 0.660126 
0 0.660911 0 0.661695 0 0.66248 0 0.663265 0 