# vtk DataFile Version 4.2
vtk output
ASCII
DATASET POLYDATA
POINTS 1277 float
0 0 0 -0.00332912 0.0024755 -0.000145242 -0.013058 0.00965543 -0.000554277 
-0.0287988 0.0211699 -0.00118707 -0.0501638 0.0366492 -0.00200359 -0.0767653 0.0557234 -0.00296379 
-0.108215 0.0780226 -0.00402764 -0.144126 0.103177 -0.00515511 -0.184111 0.130817 -0.00630617 
-0.22778 0.160572 -0.00744076 -0.274747 0.192073 -0.00851887 -0.324624 0.22495 -0.00950045 
-0.377023 0.258833 -0.0103455 -0.431556 0.293352 -0.0110139 -0.487836 0.328138 -0.0114657 
-0.545474 0.36282 -0.0116608 -0.604084 0.397028 -0.0115592 -0.663276 0.430394 -0.0111209 
-0.722664 0.462546 -0.0103058 -0.78186 0.493116 -0.00907395 -0.840476 0.521732 -0.00738521 
-0.898124 0.548027 -0.00519961 -0.954523 0.571734 -0.00249125 -1.0097 0.592894 0.000725294 
-1.06373 0.6116 0.00442822 -1.11669 0.627942 0.00859576 -1.16866 0.642016 0.0132061 
-1.21972 0.653912 0.0182375 -1.26995 0.663724 0.0236682 -1.31943 0.671544 0.0294763 
-1.36824 0.677466 0.0356401 -1.41645 0.681581 0.0421377 -1.46414 0.683983 0.0489475 
-1.5114 0.684765 0.0560477 -1.55829 0.684018 0.0634163 -1.60491 0.681836 0.0710317 
-1.65132 0.678311 0.0788721 -1.69761 0.673536 0.0869157 -1.74385 0.667604 0.0951406 
-1.79013 0.660607 0.103525 -1.83652 0.652638 0.112048 -1.8831 0.643788 0.120686 
-1.92988 0.634099 0.129425 -1.97683 0.623577 0.138252 -2.0239 0.612224 0.147156 
-2.07106 0.600043 0.156125 -2.11826 0.587037 0.165147 -2.16547 0.573209 0.174211 
-2.21266 0.558561 0.183305 -2.25977 0.543097 0.192418 -2.30677 0.526819 0.201538 
-2.35363 0.509731 0.210653 -2.40029 0.491834 0.219751 -2.44673 0.473132 0.228822 
-2.49291 0.453629 0.237853 -2.53877 0.433326 0.246833 -2.5843 0.412226 0.25575 
-2.62944 0.390333 0.264593 -2.67415 0.367649 0.273349 -2.71841 0.344177 0.282008 
-2.76216 0.319921 0.290557 -2.80537 0.294882 0.298986 -2.84803 0.269072 0.307283 
-2.89013 0.242515 0.315441 -2.93171 0.215236 0.323452 -2.97277 0.187259 0.331308 
-3.01332 0.158609 0.339001 -3.0534 0.129311 0.346522 -3.093 0.0993907 0.353865 
-3.13215 0.0688716 0.361021 -3.17086 0.0377791 0.367982 -3.20914 0.00613803 0.374741 
-3.24702 -0.0260269 0.381288 -3.2845 -0.0586907 0.387618 -3.32161 -0.0918286 0.393721 
-3.35835 -0.125416 0.399589 -3.39474 -0.159428 0.405215 -3.4308 -0.193839 0.410591 
-3.46655 -0.228625 0.415708 -3.502 -0.263761 0.42056 -3.53715 -0.299222 0.425137 
-3.57204 -0.334983 0.429433 -3.60667 -0.371024 0.433439 -3.64104 -0.407337 0.437148 
-3.67516 -0.443915 0.440555 -3.70902 -0.480753 0.443651 -3.74262 -0.517846 0.446431 
-3.77596 -0.555189 0.448887 -3.80905 -0.592776 0.451013 -3.84188 -0.630601 0.452803 
-3.87446 -0.668658 0.454249 -3.90678 -0.706943 0.455345 -3.93884 -0.74545 0.456084 
-3.97064 -0.784173 0.45646 -4.00219 -0.823107 0.456465 -4.03348 -0.862246 0.456094 
-4.06451 -0.901585 0.455338 -4.09529 -0.941118 0.454193 -4.1258 -0.98084 0.45265 
-4.15607 -1.02075 0.450703 -4.18607 -1.06083 0.448346 -4.21582 -1.10108 0.445572 
-4.2453 -1.14151 0.442373 -4.27453 -1.18209 0.438743 -4.3035 -1.22282 0.434674 
-4.3322 -1.2637 0.430158 -4.36063 -1.30471 0.425187 -4.38879 -1.34586 0.419753 
-4.41668 -1.38713 0.413849 -4.44428 -1.42851 0.407467 -4.47161 -1.47 0.400598 
-4.49865 -1.51159 0.393236 -4.52541 -1.55327 0.385373 -4.55187 -1.59504 0.377 
-4.57805 -1.63688 0.368111 -4.60393 -1.67879 0.358696 -4.62951 -1.72077 0.348749 
-4.65478 -1.7628 0.338261 -4.67976 -1.80488 0.327226 -4.70442 -1.847 0.315634 
-4.72878 -1.88915 0.303479 -4.75282 -1.93133 0.290752 -4.77655 -1.97352 0.277447 
-4.79995 -2.01572 0.263557 -4.82302 -2.05792 0.249082 -4.84575 -2.10011 0.234019 
-4.86813 -2.14228 0.218367 -4.89016 -2.18441 0.202123 -4.91181 -2.22651 0.185285 
-4.93309 -2.26855 0.167853 -4.95399 -2.31053 0.149822 -4.9745 -2.35243 0.131193 
-4.9946 -2.39425 0.111962 -5.0143 -2.43598 0.0921283 -5.03357 -2.47761 0.0716893 
-5.05242 -2.51912 0.0506431 -5.07083 -2.56051 0.028988 -5.08879 -2.60176 0.00672183 
-5.1063 -2.64287 -0.0161572 -5.12335 -2.68382 -0.0396511 -5.13992 -2.72462 -0.0637618 
-5.15602 -2.76523 -0.0884913 -5.17162 -2.80566 -0.113841 -5.18673 -2.8459 -0.139809 
-5.20134 -2.88593 -0.166384 -5.21545 -2.92576 -0.193556 -5.22906 -2.96536 -0.221312 
-5.24215 -3.00474 -0.249643 -5.25473 -3.04389 -0.278537 -5.2668 -3.08279 -0.307983 
-5.27834 -3.12144 -0.337969 -5.28937 -3.15983 -0.368485 -5.29987 -3.19796 -0.39952 
-5.30984 -3.23581 -0.431062 -5.31929 -3.27338 -0.463101 -5.32819 -3.31066 -0.495625 
-5.33656 -3.34764 -0.528623 -5.34439 -3.38431 -0.562085 -5.35168 -3.42067 -0.595998 
-5.35842 -3.4567 -0.630353 -5.36461 -3.49241 -0.665137 -5.37024 -3.52777 -0.70034 
-5.37532 -3.56279 -0.735951 -5.37984 -3.59745 -0.771957 -5.38381 -3.63177 -0.808347 
-5.38723 -3.66574 -0.845106 -5.39012 -3.69936 -0.88222 -5.39247 -3.73264 -0.919677 
-5.39429 -3.76558 -0.957462 -5.3956 -3.79819 -0.995562 -5.3964 -3.83047 -1.03396 
-5.39669 -3.86242 -1.07265 -5.39648 -3.89404 -1.11162 -5.39579 -3.92534 -1.15084 
-5.3946 -3.95632 -1.19031 -5.39294 -3.98699 -1.23002 -5.39081 -4.01734 -1.26994 
-5.38821 -4.04739 -1.31008 -5.38515 -4.07713 -1.3504 -5.38165 -4.10656 -1.3909 
-5.37769 -4.1357 -1.43157 -5.3733 -4.16454 -1.4724 -5.36848 -4.19308 -1.51336 
-5.36324 -4.22134 -1.55444 -5.35758 -4.24931 -1.59565 -5.35151 -4.27701 -1.63696 
-5.34504 -4.30444 -1.67838 -5.33818 -4.33162 -1.7199 -5.33094 -4.35855 -1.7615 
-5.32332 -4.38524 -1.80319 -5.31534 -4.4117 -1.84496 -5.307 -4.43794 -1.88679 
-5.29831 -4.46396 -1.92869 -5.28928 -4.48978 -1.97065 -5.27992 -4.5154 -2.01265 
-5.27023 -4.54084 -2.0547 -5.26023 -4.56609 -2.09679 -5.24992 -4.59118 -2.1389 
-5.23931 -4.6161 -2.18104 -5.22841 -4.64087 -2.22319 -5.21722 -4.6655 -2.26535 
-5.20577 -4.68999 -2.30752 -5.19405 -4.71435 -2.34968 -5.18207 -4.73859 -2.39183 
-5.16984 -4.76273 -2.43396 -5.15736 -4.78676 -2.47608 -5.14465 -4.81069 -2.51817 
-5.1317 -4.83453 -2.56024 -5.11852 -4.8583 -2.60228 -5.10513 -4.88199 -2.64429 
-5.09151 -4.90561 -2.68626 -5.07768 -4.92917 -2.7282 -5.06364 -4.95269 -2.7701 
-5.04941 -4.97616 -2.81195 -5.03498 -4.99959 -2.85375 -5.02035 -5.023 -2.8955 
-5.00555 -5.04638 -2.9372 -4.99056 -5.06975 -2.97885 -4.9754 -5.09311 -3.02043 
-4.96007 -5.11647 -3.06195 -4.94458 -5.13984 -3.10341 -4.92894 -5.16323 -3.14479 
-4.91314 -5.18664 -3.1861 -4.89719 -5.21008 -3.22734 -4.8811 -5.23356 -3.2685 
-4.86488 -5.25709 -3.30957 -4.84852 -5.28066 -3.35056 -4.83204 -5.3043 -3.39147 
-4.81543 -5.328 -3.43229 -4.7987 -5.35178 -3.47301 -4.78185 -5.37563 -3.51364 
-4.76489 -5.39957 -3.55417 -4.74782 -5.42361 -3.5946 -4.73065 -5.44775 -3.63494 
-4.71338 -5.47199 -3.67516 -4.69601 -5.49635 -3.71528 -4.67855 -5.52084 -3.75528 
-4.66101 -5.54545 -3.79518 -4.64338 -5.5702 -3.83496 -4.62567 -5.59509 -3.87462 
-4.60788 -5.62014 -3.91415 -4.59003 -5.64534 -3.95357 -4.57211 -5.6707 -3.99286 
-4.55412 -5.69624 -4.03202 -4.53608 -5.72196 -4.07105 -4.51798 -5.74786 -4.10994 
-4.49984 -5.77395 -4.14868 -4.48165 -5.80025 -4.18727 -4.46342 -5.82676 -4.2257 
-4.44516 -5.85348 -4.26396 -4.42687 -5.88042 -4.30205 -4.40856 -5.9076 -4.33995 
-4.39023 -5.93502 -4.37767 -4.37188 -5.96268 -4.41519 -4.35353 -5.9906 -4.45251 
-4.33518 -6.01877 -4.48962 -4.31683 -6.04722 -4.5265 -4.29848 -6.07594 -4.56317 
-4.28015 -6.10495 -4.5996 -4.26184 -6.13425 -4.63579 -4.24355 -6.16385 -4.67174 
-4.22528 -6.19376 -4.70743 -4.20705 -6.22398 -4.74287 -4.18886 -6.25452 -4.77803 
-4.17071 -6.28539 -4.81292 -4.15261 -6.3166 -4.84752 -4.13456 -6.34817 -4.88183 
-4.11658 -6.3801 -4.91582 -4.09866 -6.4124 -4.94949 -4.08082 -6.4451 -4.98283 
-4.06306 -6.4782 -5.01582 -4.04538 -6.51171 -5.04845 -4.0278 -6.54565 -5.08072 
-4.01031 -6.58003 -5.11259 -3.99294 -6.61486 -5.14408 -3.97567 -6.65015 -5.17515 
-3.95852 -6.68592 -5.20581 -3.9415 -6.72218 -5.23603 -3.9246 -6.75894 -5.26581 
-3.90785 -6.79621 -5.29514 -3.89123 -6.834 -5.324 -3.87477 -6.87233 -5.35237 
-3.85846 -6.91122 -5.38026 -3.84231 -6.95066 -5.40764 -3.82634 -6.99068 -5.4345 
-3.81054 -7.03127 -5.46081 -3.79497 -7.07243 -5.48649 -3.77963 -7.11416 -5.5115 
-3.76456 -7.15643 -5.53575 -3.7498 -7.19925 -5.55919 -3.73536 -7.24261 -5.58175 
-3.72127 -7.28649 -5.60338 -3.70757 -7.3309 -5.62399 -3.69428 -7.37582 -5.64353 
-3.68143 -7.42124 -5.66194 -3.66904 -7.46717 -5.67915 -3.65716 -7.51358 -5.69509 
-3.64579 -7.56047 -5.70971 -3.63498 -7.60784 -5.72293 -3.62475 -7.65567 -5.73469 
-3.61513 -7.70397 -5.74494 -3.60614 -7.75271 -5.75359 -3.59782 -7.80189 -5.76059 
-3.5902 -7.85151 -5.76588 -3.58329 -7.90155 -5.76939 -3.57713 -7.95198 -5.77108 
-3.5717 -8.00271 -5.77097 -3.56701 -8.05364 -5.76908 -3.56306 -8.10467 -5.76542 
-3.55985 -8.15572 -5.76 -3.55737 -8.20669 -5.75286 -3.55563 -8.25748 -5.74399 
-3.55462 -8.308 -5.73342 -3.55434 -8.35816 -5.72117 -3.55479 -8.40786 -5.70724 
-3.55598 -8.45701 -5.69167 -3.55789 -8.50551 -5.67446 -3.56053 -8.55327 -5.65563 
-3.5639 -8.60019 -5.6352 -3.568 -8.64619 -5.61318 -3.57283 -8.69116 -5.58959 
-3.57837 -8.73501 -5.56445 -3.58465 -8.77765 -5.53778 -3.59164 -8.81899 -5.50958 
-3.59936 -8.85892 -5.47988 -3.60778 -8.89742 -5.44872 -3.61688 -8.93449 -5.41616 
-3.62662 -8.97016 -5.38228 -3.63698 -9.00446 -5.34713 -3.64791 -9.03742 -5.31079 
-3.65939 -9.06905 -5.27334 -3.67139 -9.09939 -5.23483 -3.68387 -9.12846 -5.19533 
-3.69679 -9.15628 -5.15492 -3.71014 -9.18289 -5.11367 -3.72387 -9.2083 -5.07164 
-3.73795 -9.23255 -5.02889 -3.75235 -9.25565 -4.98551 -3.76704 -9.27763 -4.94156 
-3.78198 -9.29852 -4.89711 -3.79715 -9.31834 -4.85222 -3.81251 -9.33713 -4.80697 
-3.82802 -9.35489 -4.76143 -3.84366 -9.37167 -4.71565 -3.8594 -9.38748 -4.66972 
-3.8752 -9.40235 -4.62368 -3.89107 -9.4163 -4.57754 -3.90699 -9.42936 -4.53131 
-3.92297 -9.44155 -4.48498 -3.93899 -9.45289 -4.43857 -3.95506 -9.46341 -4.39207 
-3.97117 -9.47312 -4.34549 -3.9873 -9.48206 -4.29883 -4.00347 -9.49025 -4.2521 
-4.01965 -9.49771 -4.20529 -4.03586 -9.50446 -4.15843 -4.05208 -9.51052 -4.1115 
-4.06831 -9.51593 -4.06451 -4.08454 -9.5207 -4.01746 -4.10077 -9.52485 -3.97037 
[...]
CELL_DATA 1
FIELD FieldData 2
Length 1 1 double
63.856138449 
Tortuosity 1 1 double
0.671495325 
POINT_DATA 1277
SCALARS MaximumInscribedSphereRadius float
LOOKUP_TABLE default
0.62 0.635816 0.651631 0.667447 0.683263 0.699079 0.714894 0.73071 0.746526 
0.762341 0.778157 0.793973 0.809788 0.825604 0.84142 0.857235 0.873051 0.888867 
0.904683 0.920498 0.936314 0.95187 0.965373 0.978877 0.992381 1.00588 1.01939 
1.03289 1.0464 1.0599 1.0734 1.08691 1.10041 1.11391 1.12742 1.14092 
1.15443 1.16793 1.18143 1.19494 1.20844 1.21512 1.21639 1.21765 1.21892 
1.22018 1.22145 1.22271 1.22398 1.22524 1.2265 1.22777 1.22903 1.2303 
1.23156 1.23283 1.23409 1.23535 1.23662 1.23788 1.23915 1.24 1.24 
1.24 1.24 1.24 1.24 1.24 1.24 1.24 1.24 1.24 
1.24 1.24 1.24 1.24 1.24 1.24 1.24 1.24 1.24 
1.24 1.24 1.24 1.24 1.24 1.24 1.24 1.24 1.24 
1.24 1.24 1.24 1.24 1.24 1.24 1.24 1.24 1.24 
1.24 1.24 1.24 1.24003 1.24006 1.24009 1.24012 1.24015 1.24019 
1.24022 1.24025 1.24028 1.24031 1.24035 1.24038 1.24041 1.24044 1.24048 
1.24051 1.24054 1.24057 1.2406 1.24064 1.24107 1.24182 1.24256 1.24331 
1.24406 1.2448 1.24555 1.2463 1.24704 1.24779 1.24854 1.24929 1.25003 
1.25078 1.25153 1.25227 1.25302 1.25377 1.25451 1.25526 1.25704 1.26101 
1.26498 1.26895 1.27292 1.27689 1.28086 1.28483 1.2888 1.29277 1.29674 
1.30071 1.30468 1.30865 1.31262 1.31659 1.32056 1.32453 1.3285 1.33247 
1.33771 1.35626 1.3748 1.39334 1.41189 1.43043 1.44897 1.46752 1.48606 
1.5046 1.52315 1.54169 1.56023 1.57878 1.59732 1.61586 1.63441 1.65295 
1.67149 1.69004 1.70858 1.71768 1.72496 1.73225 1.73954 1.74682 1.75411 
1.7614 1.76869 1.77597 1.78326 1.79055 1.79783 1.80512 1.81241 1.8197 
1.82698 1.83427 1.84156 1.84884 1.85613 1.8587 1.85774 1.85678 1.85582 
1.85486 1.8539 1.85294 1.85198 1.85102 1.85006 1.8491 1.84814 1.84718 
1.84622 1.84526 1.8443 1.84334 1.84237 1.84141 1.84045 1.83787 1.83146 
1.82505 1.81864 1.81223 1.80583 1.79942 1.79301 1.7866 1.78019 1.77378 
1.76737 1.76097 1.75456 1.74815 1.74174 1.73533 1.72892 1.72251 1.71611 
1.70967 1.70202 1.69438 1.68673 1.67909 1.67144 1.66379 1.65615 1.6485 
1.64086 1.63321 1.62557 1.61792 1.61027 1.60263 1.59498 1.58734 1.57969 
1.57205 1.5644 1.55676 1.55552 1.55637 1.55723 1.55809 1.55895 1.5598 
1.56066 1.56152 1.56237 1.56323 1.56409 1.56495 1.5658 1.56666 1.56752 
1.56838 1.56923 1.57009 1.57095 1.57181 1.57617 1.58398 1.59178 1.59958 
1.60739 1.61519 1.62299 1.63079 1.6386 1.6464 1.6542 1.66201 1.66981 
1.67761 1.68542 1.69322 1.70102 1.70882 1.71663 1.72443 1.73207 1.73937 
1.74666 1.75396 1.76126 1.76856 1.77586 1.78316 1.79045 1.79775 1.80505 
1.81235 1.81965 1.82695 1.83424 1.84154 1.84884 1.85614 1.86344 1.87074 
1.87488 1.87418 1.87349 1.8728 1.87211 1.87142 1.87072 1.87003 1.86934 
1.86865 1.86796 1.86727 1.86657 1.86588 1.86519 1.8645 1.86381 1.86311 
1.86242 1.86173 1.86133 1.86197 1.8626 1.86324 1.86388 1.86452 1.86515 
1.86579 1.86643 1.86706 1.8677 1.86834 1.86898 1.86961 1.87025 1.87089 
1.87152 1.87216 1.8728 1.87344 1.87407 1.88082 1.88774 1.89466 1.90158 
1.9085 1.91542 1.92234 1.92926 1.93619 1.94311 1.95003 1.95695 1.96387 
1.97079 1.97771 1.98463 1.99155 1.99847 2.00539 2.01231 2.02103 2.03049 
2.03995 2.04942 2.05888 2.06834 2.07781 2.08727 2.09674 2.1062 2.11566 
2.12513 2.13459 2.14405 2.15352 2.16298 2.17244 2.18191 2.19137 2.20084 
2.21043 2.22019 2.22996 2.23972 2.24948 2.25925 2.26901 2.27877 2.28854 
2.2983 2.30806 2.31783 2.32759 2.33736 2.34712 2.35688 2.36665 2.37641 
2.38617 2.39594 2.40381 2.40191 2.40002 2.39812 2.39622 2.39432 2.39242 
2.39052 2.38862 2.38673 2.38483 2.38293 2.38103 2.37913 2.37723 2.37533 
2.37344 2.37154 2.36964 2.36774 2.36584 2.35919 2.3521 2.34501 2.33792 
2.33083 2.32374 2.31665 2.30955 2.30246 2.29537 2.28828 2.28119 2.2741 
2.267 2.25991 2.25282 2.24573 2.23864 2.23155 2.22446 2.22332 2.22399 
2.22466 2.22533 2.226 2.22667 2.22734 2.22801 2.22868 2.22935 2.23002 
2.23069 2.23136 2.23203 2.2327 2.23336 2.23403 2.2347 2.23537 2.23604 
2.24082 2.24931 2.25779 2.26628 2.27477 2.28326 2.29174 2.30023 2.30872 
2.3172 2.32569 2.33418 2.34267 2.35115 2.35964 2.36813 2.37661 2.3851 
2.39359 2.40208 2.40796 2.40637 2.40478 2.40319 2.40161 2.40002 2.39843 
2.39684 2.39525 2.39367 2.39208 2.39049 2.3889 2.38731 2.38572 2.38414 
2.38255 2.38096 2.37937 2.37778 2.37619 2.368 2.3597 2.3514 2.3431 
2.3348 2.3265 2.3182 2.30991 2.30161 2.29331 2.28501 2.27671 2.26841 
2.26011 2.25182 2.24352 2.23522 2.22692 2.21862 2.21032 2.21588 2.22708 
2.23828 2.24948 2.26068 2.27188 2.28308 2.29428 2.30548 2.31668 2.32788 
2.33908 2.35028 2.36147 2.37267 2.38387 2.39507 2.40627 2.41747 2.42867 
2.44044 2.45294 2.46544 2.47795 2.49045 2.50295 2.51545 2.52795 2.54046 
2.55296 2.56546 2.57796 2.59046 2.60297 2.61547 2.62797 2.64047 2.65297 
2.66548 2.67798 2.68697 2.6773 2.66763 2.65795 2.64828 2.63861 2.62894 
2.61927 2.6096 2.59993 2.59026 2.58059 2.57092 2.56124 2.55157 2.5419 
2.53223 2.52256 2.51289 2.50322 2.49355 2.48027 2.4665 2.45274 2.43897 
2.42521 2.41144 2.39768 2.38391 2.37015 2.35638 2.34262 2.32885 2.31509 
2.30132 2.28756 2.27379 2.26003 2.24626 2.23249 2.21873 2.21226 2.21052 
2.20878 2.20705 2.20531 2.20358 2.20184 2.2001 2.19837 2.19663 2.19489 
2.19316 2.19142 2.18968 2.18795 2.18621 2.18447 2.18274 2.181 2.17927 
2.17798 2.17758 2.17718 2.17678 2.17638 2.17598 2.17558 2.17518 2.17478 
2.17437 2.17397 2.17357 2.17317 2.17277 2.17237 2.17197 2.17157 2.17117 
2.17077 2.17037 2.17 2.17004 2.17008 2.17012 2.17016 2.1702 2.17024 
2.17028 2.17032 2.17036 2.1704 2.17044 2.17048 2.17052 2.17056 2.1706 
2.17064 2.17068 2.17072 2.17076 2.1708 2.17122 2.17173 2.17224 2.17275 
2.17326 2.17378 2.17429 2.1748 2.17531 2.17582 2.17633 2.17685 2.17736 
2.17787 2.17838 2.17889 2.1794 2.17992 2.18043 2.18094 2.18087 2.18028 
2.17969 2.1791 2.17851 2.17792 2.17734 2.17675 2.17616 2.17557 2.17498 
2.17439 2.1738 2.17322 2.17263 2.17204 2.17145 2.17086 2.17027 2.16968 
2.16769 2.16177 2.15586 2.14994 2.14402 2.1381 2.13218 2.12626 2.12034 
2.11442 2.1085 2.10258 2.09666 2.09074 2.08482 2.0789 2.07298 2.06706 
2.06114 2.05522 2.04931 2.04337 2.03742 2.03148 2.02554 2.0196 2.01366 
2.00772 2.00178 1.99584 1.9899 1.98396 1.97802 1.97208 1.96614 1.9602 
1.95426 1.94832 1.94238 1.93644 1.9305 1.92566 1.92125 1.91684 1.91243 
1.90802 1.90361 1.8992 1.89479 1.89038 1.88597 1.88156 1.87715 1.87274 
1.86833 1.86392 1.85951 1.8551 1.85069 1.84628 1.84187 1.83646 1.82985 
1.82325 1.81665 1.81004 1.80344 1.79683 1.79023 1.78362 1.77702 1.77042 
1.76381 1.75721 1.7506 1.744 1.7374 1.73079 1.72419 1.71758 1.71098 
1.7046 1.69919 1.69378 1.68838 1.68297 1.67756 1.67216 1.66675 1.66134 
1.65594 1.65053 1.64512 1.63971 1.63431 1.6289 1.62349 1.61809 1.61268 
1.60727 1.60187 1.59646 1.60107 1.60666 1.61226 1.61785 1.62344 1.62903 
1.63462 1.64021 1.6458 1.65139 1.65698 1.66258 1.66817 1.67376 1.67935 
1.68494 1.69053 1.69612 1.70171 1.7073 1.71686 1.72868 1.7405 1.75232 
1.76415 1.77597 1.78779 1.79961 1.81144 1.82326 1.83508 1.8469 1.85872 
1.87055 1.88237 1.89419 1.90601 1.91783 1.92966 1.94148 1.95593 1.97504 
1.99414 2.01325 2.03236 2.05147 2.07058 2.08968 2.10879 2.1279 2.14701 
2.16612 2.18522 2.20433 2.22344 2.24255 2.26166 2.28077 2.29987 2.31898 
2.33654 2.33775 2.33896 2.34018 2.34139 2.3426 2.34382 2.34503 2.34624 
2.34746 2.34867 2.34989 2.3511 2.35231 2.35353 2.35474 2.35595 2.35717 
2.35838 2.35959 2.36081 2.35558 2.34892 2.34225 2.33559 2.32892 2.32225 
2.31559 2.30892 2.30226 2.29559 2.28893 2.28226 2.27559 2.26893 2.26226 
2.2556 2.24893 2.24226 2.2356 2.22893 2.22934 2.23551 2.24168 2.24785 
2.25402 2.26019 2.26636 2.27253 2.2787 2.28487 2.29104 2.29721 2.30338 
2.30955 2.31572 2.32189 2.32806 2.33423 2.3404 2.34657 2.3519 2.35517 
2.35843 2.3617 2.36497 2.36824 2.3715 2.37477 2.37804 2.3813 2.38457 
2.38784 2.39111 2.39437 2.39764 2.40091 2.40418 2.40744 2.41071 2.41398 
2.4168 2.40755 2.3983 2.38905 2.3798 2.37054 2.36129 2.35204 2.34279 
2.33354 2.32428 2.31503 2.30578 2.29653 2.28728 2.27802 2.26877 2.25952 
2.25027 2.24102 2.23176 2.22583 2.2208 2.21578 2.21075 2.20573 2.2007 
2.19568 2.19065 2.18563 2.1806 2.17558 2.17055 2.16553 2.1605 2.15548 
2.15045 2.14543 2.14041 2.13538 2.13036 2.12624 2.12291 2.11959 2.11627 
2.11294 2.10962 2.1063 2.10297 2.09965 2.09633 2.093 2.08968 2.08636 
2.08303 2.07971 2.07639 2.07306 2.06974 2.06641 2.06309 2.05905 2.05311 
2.04716 2.04121 2.03526 2.02931 2.02337 2.01742 2.01147 2.00552 1.99957 
1.99363 1.98768 1.98173 1.97578 1.96983 1.96389 1.95794 1.95199 1.94604 
1.94011 1.93917 1.93823 1.93729 1.93635 1.93541 1.93448 1.93354 1.9326 
1.93166 1.93072 1.92978 1.92884 1.92791 1.92697 1.92603 1.92509 1.92415 
1.92321 1.92227 1.92133 1.92737 1.936 1.94463 1.95327 1.9619 1.97053 
1.97916 1.9878 1.99643 2.00506 2.0137 2.02233 2.03096 2.03959 2.04823 
2.05686 2.06549 2.07413 2.08276 2.09139 2.10132 2.1128 2.12428 2.13577 
2.14725 2.15873 2.17021 2.1817 2.19318 2.20466 2.21614 2.22763 2.23911 
2.25059 2.26207 2.27356 2.28504 2.29652 2.308 2.31949 2.33106 2.34306 
2.35506 2.36706 2.37906 2.39106 2.40306 2.41506 2.42706 2.43906 2.45106 
2.46306 2.47506 2.48705 2.49905 2.51105 2.52305 2.53505 2.54705 2.55905 
2.57105 2.57211 2.57207 2.57204 2.572 2.57196 2.57193 2.57189 2.57186 
2.57182 2.57178 2.57175 2.57171 2.57168 2.57164 2.5716 2.57157 2.57153 
2.5715 2.57146 2.57142 2.56693 2.55991 2.5529 2.54588 2.53887 2.53185 
2.52483 2.51782 2.5108 2.50379 2.49677 2.48976 2.48274 2.47573 2.46871 
2.4617 2.45468 2.44767 2.44065 2.43363 2.42232 2.40363 2.38495 2.36626 
2.34757 2.32888 2.31019 2.2915 2.27281 2.25412 2.23543 2.21674 2.19805 
2.17936 2.16067 2.14198 2.12329 2.1046 2.08591 2.06722 2.05044 2.0507 
2.05097 2.05123 2.0515 2.05176 2.05203 2.05229 2.05256 2.05282 2.05309 
2.05335 2.05362 2.05388 2.05415 2.05441 2.05468 2.05495 2.05521 2.05548 
2.05574 2.06853 2.08414 2.09976 2.11538 2.131 2.14661 2.16223 2.17785 
2.19347 2.20909 2.2247 2.24032 2.25594 2.27156 2.28718 2.30279 2.31841 
2.33403 2.34965 2.36526 2.37297 2.3721 2.37123 2.37035 2.36948 2.36861 
2.36773 2.36686 2.36599 2.36512 2.36424 2.36337 2.3625 2.36162 2.36075 
2.35988 2.359 2.35813 2.35726 2.35639 2.348 2.3391 2.3302 2.3213 
2.3124 2.3035 2.2946 2.2857 2.2768 2.2679 2.259 2.2501 2.2412 
2.2323 2.2234 2.2145 2.2056 2.1967 2.1878 2.1789 2.17 
TEXTURE_COORDINATES TCoords 2 float
0 0 0.000783699 0 0.0015674 0 0.0023511 0 0.0031348 
0 0.0039185 0 0.00470219 0 0.00548589 0 0.00626959 0 
0.00705329 0 0.00783699 0 0.00862069 0 0.00940439 0 0.0101881 
0 0.0109718 0 0.0117555 0 0.0125392 0 0.0133229 0 
0.0141066 0 0.0148903 0 0.015674 0 0.0164577 0 0.0172414 
0 0.0180251 0 0.0188088 0 0.0195925 0 0.0203762 0 
0.0211599 0 0.0219436 0 0.0227273 0 0.023511 0 0.0242947 
0 0.0250784 0 0.0258621 0 0.0266458 0 0.0274295 0 
0.0282132 0 0.0289969 0 0.0297806 0 0.0305643 0 0.031348 
0 0.0321317 0 0.0329154 0 0.0336991 0 0.0344828 0 
0.0352665 0 0.0360502 0 0.0368339 0 0.0376176 0 0.0384013 
0 0.039185 0 0.0399687 0 0.0407524 0 0.0415361 0 
0.0423197 0 0.0431034 0 0.0438871 0 0.0446708 0 0.0454545 
0 0.0462382 0 0.0470219 0 0.0478056 0 0.0485893 0 
0.049373 0 0.0501567 0 0.0509404 0 0.0517241 0 0.0525078 
0 0.0532915 0 0.0540752 0 0.0548589 0 0.0556426 0 
0.0564263 0 0.05721 0 0.0579937 0 0.0587774 0 0.0595611 
0 0.0603448 0 0.0611285 0 0.0619122 0 0.0626959 0 
0.0634796 0 0.0642633 0 0.065047 0 0.0658307 0 0.0666144 
0 0.0673981 0 0.0681818 0 0.0689655 0 0.0697492 0 
0.0705329 0 0.0713166 0 0.0721003 0 0.072884 0 0.0736677 
0 0.0744514 0 0.0752351 0 0.0760188 0 0.0768025 0 
0.0775862 0 0.0783699 0 0.0791536 0 0.0799373 0 0.080721 
0 0.0815047 0 0.0822884 0 0.0830721 0 0.0838558 0 
0.0846395 0 0.0854232 0 0.0862069 0 0.0869906 0 0.0877743 
0 0.088558 0 0.0893417 0 0.0901254 0 0.0909091 0 
0.0916928 0 0.0924765 0 0.0932602 0 0.0940439 0 0.0948276 
0 0.0956113 0 0.096395 0 0.0971787 0 0.0979624 0 
0.0987461 0 0.0995298 0 0.100313 0 0.101097 0 0.101881 
0 0.102665 0 0.103448 0 0.104232 0 0.105016 0 
0.105799 0 0.106583 0 0.107367 0 0.10815 0 0.108934 
0 0.109718 0 0.110502 0 0.111285 0 0.112069 0 
0.112853 0 0.113636 0 0.11442 0 0.115204 0 0.115987 
0 0.116771 0 0.117555 0 0.118339 0 0.119122 0 
0.119906 0 0.12069 0 0.121473 0 0.122257 0 0.123041 
0 0.123824 0 0.124608 0 0.125392 0 0.126176 0 
0.126959 0 0.127743 0 0.128527 0 0.12931 0 0.130094 
0 0.130878 0 0.131661 0 0.132445 0 0.133229 0 
0.134013 0 0.134796 0 0.13558 0 0.136364 0 0.137147 
0 0.137931 0 0.138715 0 0.139498 0 0.140282 0 
0.141066 0 0.14185 0 0.142633 0 0.143417 0 0.144201 
0 0.144984 0 0.145768 0 0.146552 0 0.147335 0 
0.148119 0 0.148903 0 0.149687 0 0.15047 0 0.151254 
0 0.152038 0 0.152821 0 0.153605 0 0.154389 0 
0.155172 0 0.155956 0 0.15674 0 0.157524 0 0.158307 
0 0.159091 0 0.159875 0 0.160658 0 0.161442 0 
0.162226 0 0.163009 0 0.163793 0 0.164577 0 0.16536 
0 0.166144 0 0.166928 0 0.167712 0 0.168495 0 
0.169279 0 0.170063 0 0.170846 0 0.17163 0 0.172414 
0 0.173197 0 0.173981 0 0.174765 0 0.175549 0 
0.176332 0 0.177116 0 0.1779 0 0.178683 0 0.179467 
0 0.180251 0 0.181034 0 0.181818 0 0.182602 0 
0.183386 0 0.184169 0 0.184953 0 0.185737 0 0.18652 
0 0.187304 0 0.188088 0 0.188871 0 0.189655 0 
0.190439 0 0.191223 0 0.192006 0 0.19279 0 0.193574 
0 0.194357 0 0.195141 0 0.195925 0 0.196708 0 
0.197492 0 0.198276 0 0.19906 0 0.199843 0 0.200627 
0 0.201411 0 0.202194 0 0.202978 0 0.203762 0 
0.204545 0 0.205329 0 0.206113 0 0.206897 0 0.20768 
0 0.208464 0 0.209248 0 0.210031 0 0.210815 0 
0.211599 0 0.212382 0 0.213166 0 0.21395 0 0.214734 
0 0.215517 0 0.216301 0 0.217085 0 0.217868 0 
0.218652 0 0.219436 0 0.220219 0 0.221003 0 0.221787 
0 0.222571 0 0.223354 0 0.224138 0 0.224922 0 
0.225705 0 0.226489 0 0.227273 0 0.228056 0 0.22884 
0 0.229624 0 0.230408 0 0.231191 0 0.231975 0 
0.232759 0 0.233542 0 0.234326 0 0.23511 0 0.235893 
0 0.236677 0 0.237461 0 0.238245 0 0.239028 0 
0.239812 0 0.240596 0 0.241379 0 0.242163 0 0.242947 
0 0.24373 0 0.244514 0 0.245298 0 0.246082 0 
0.246865 0 0.247649 0 0.248433 0 0.249216 0 0.25 
0 0.250784 0 0.251567 0 0.252351 0 0.253135 0 
0.253918 0 0.254702 0 0.255486 0 0.25627 0 0.257053 
0 0.257837 0 0.258621 0 0.259404 0 0.260188 0 
0.260972 0 0.261755 0 0.262539 0 0.263323 0 0.264107 
0 0.26489 0 0.265674 0 0.266458 0 0.267241 0 
0.268025 0 0.268809 0 0.269592 0 0.270376 0 0.27116 
0 0.271944 0 0.272727 0 0.273511 0 0.274295 0 
0.275078 0 0.275862 0 0.276646 0 0.277429 0 0.278213 
0 0.278997 0 0.279781 0 0.280564 0 0.281348 0 
0.282132 0 0.282915 0 0.283699 0 0.284483 0 0.285266 
0 0.28605 0 0.286834 0 0.287618 0 0.288401 0 
0.289185 0 0.289969 0 0.290752 0 0.291536 0 0.29232 
0 0.293103 0 0.293887 0 0.294671 0 0.295455 0 
0.296238 0 0.297022 0 0.297806 0 0.298589 0 0.299373 
0 0.300157 0 0.30094 0 0.301724 0 0.302508 0 
0.303292 0 0.304075 0 0.304859 0 0.305643 0 0.306426 
0 0.30721 0 0.307994 0 0.308777 0 0.309561 0 
0.310345 0 0.311129 0 0.311912 0 0.312696 0 0.31348 
0 0.314263 0 0.315047 0 0.315831 0 0.316614 0 
0.317398 0 0.318182 0 0.318966 0 0.319749 0 0.320533 
0 0.321317 0 0.3221 0 0.322884 0 0.323668 0 
0.324451 0 0.325235 0 0.326019 0 0.326803 0 0.327586 
0 0.32837 0 0.329154 0 0.329937 0 0.330721 0 
0.331505 0 0.332288 0 0.333072 0 0.333856 0 0.334639 
0 0.335423 0 0.336207 0 0.336991 0 0.337774 0 
0.338558 0 0.339342 0 0.340125 0 0.340909 0 0.341693 
0 0.342476 0 0.34326 0 0.344044 0 0.344828 0 
0.345611 0 0.346395 0 0.347179 0 0.347962 0 0.348746 
0 0.34953 0 0.350313 0 0.351097 0 0.351881 0 
0.352665 0 0.353448 0 0.354232 0 0.355016 0 0.355799 
0 0.356583 0 0.357367 0 0.35815 0 0.358934 0 
0.359718 0 0.360502 0 0.361285 0 0.362069 0 0.362853 
0 0.363636 0 0.36442 0 0.365204 0 0.365987 0 
0.366771 0 0.367555 0 0.368339 0 0.369122 0 0.369906 
0 0.37069 0 0.371473 0 0.372257 0 0.373041 0 
0.373824 0 0.374608 0 0.375392 0 0.376176 0 0.376959 
0 0.377743 0 0.378527 0 0.37931 0 0.380094 0 
0.380878 0 0.381661 0 0.382445 0 0.383229 0 0.384013 
0 0.384796 0 0.38558 0 0.386364 0 0.387147 0 
0.387931 0 0.388715 0 0.389498 0 0.390282 0 0.391066 
0 0.39185 0 0.392633 0 0.393417 0 0.394201 0 
0.394984 0 0.395768 0 0.396552 0 0.397335 0 0.398119 
0 0.398903 0 0.399687 0 0.40047 0 0.401254 0 
0.402038 0 0.402821 0 0.403605 0 0.404389 0 0.405172 
0 0.405956 0 0.40674 0 0.407524 0 0.408307 0 
0.409091 0 0.409875 0 0.410658 0 0.411442 0 0.412226 
0 0.413009 0 0.413793 0 0.414577 0 0.415361 0 
0.416144 0 0.416928 0 0.417712 0 0.418495 0 0.419279 
0 0.420063 0 0.420846 0 0.42163 0 0.422414 0 
0.423197 0 0.423981 0 0.424765 0 0.425549 0 0.426332 
0 0.427116 0 0.4279 0 0.428683 0 0.429467 0 
0.430251 0 0.431034 0 0.431818 0 0.432602 0 0.433386 
0 0.434169 0 0.434953 0 0.435737 0 0.43652 0 
0.437304 0 0.438088 0 0.438871 0 0.439655 0 0.440439 
0 0.441223 0 0.442006 0 0.44279 0 0.443574 0 
0.444357 0 0.445141 0 0.445925 0 0.446708 0 0.447492 
0 0.448276 0 0.44906 0 0.449843 0 0.450627 0 
0.451411 0 0.452194 0 0.452978 0 0.453762 0 0.454545 
0 0.455329 0 0.456113 0 0.456897 0 0.45768 0 
0.458464 0 0.459248 0 0.460031 0 0.460815 0 0.461599 
0 0.462382 0 0.463166 0 0.46395 0 0.464734 0 
0.465517 0 0.466301 0 0.467085 0 0.467868 0 0.468652 
0 0.469436 0 0.470219 0 0.471003 0 0.471787 0 
0.472571 0 0.473354 0 0.474138 0 0.474922 0 0.475705 
0 0.476489 0 0.477273 0 0.478056 0 0.47884 0 
0.479624 0 0.480408 0 0.481191 0 0.481975 0 0.482759 
0 0.483542 0 0.484326 0 0.48511 0 0.485893 0 
0.486677 0 0.487461 0 0.488245 0 0.489028 0 0.489812 
0 0.490596 0 0.491379 0 0.492163 0 0.492947 0 
0.49373 0 0.494514 0 0.495298 0 0.496082 0 0.496865 
0 0.497649 0 0.498433 0 0.499216 0 0.5 0 
0.500784 0 0.501567 0 0.502351 0 0.503135 0 0.503918 
0 0.504702 0 0.505486 0 0.50627 0 0.507053 0 
0.507837 0 0.508621 0 0.509404 0 0.510188 0 0.510972 
0 0.511755 0 0.512539 0 0.513323 0 0.514107 0 
0.51489 0 0.515674 0 0.516458 0 0.517241 0 0.518025 
0 0.518809 0 0.519592 0 0.520376 0 0.52116 0 
0.521944 0 0.522727 0 0.523511 0 0.524295 0 0.525078 
0 0.525862 0 0.526646 0 0.527429 0 0.528213 0 
0.528997 0 0.529781 0 0.530564 0 0.531348 0 0.532132 
0 0.532915 0 0.533699 0 0.534483 0 0.535266 0 
0.53605 0 0.536834 0 0.537618 0 0.538401 0 0.539185 
0 0.539969 0 0.540752 0 0.541536 0 0.54232 0 
0.543103 0 0.543887 0 0.544671 0 0.545455 0 0.546238 
0 0.547022 0 0.547806 0 0.548589 0 0.549373 0 
0.550157 0 0.55094 0 0.551724 0 0.552508 0 0.553292 
0 0.554075 0 0.554859 0 0.555643 0 0.556426 0 
0.55721 0 0.557994 0 0.558777 0 0.559561 0 0.560345 
0 0.561128 0 0.561912 0 0.562696 0 0.56348 0 
0.564263 0 0.565047 0 0.565831 0 0.566614 0 0.567398 
0 0.568182 0 0.568965 0 0.569749 0 0.570533 0 
0.571317 0 0.5721 0 0.572884 0 0.573668 0 0.574451 
0 0.575235 0 0.576019 0 0.576802 0 0.577586 0 
0.57837 0 0.579154 0 0.579937 0 0.580721 0 0.581505 
0 0.582288 0 0.583072 0 0.583856 0 0.584639 0 
0.585423 0 0.586207 0 0.586991 0 0.587774 0 0.588558 
0 0.589342 0 0.590125 0 0.590909 0 0.591693 0 
0.592476 0 0.59326 0 0.594044 0 0.594828 0 0.595611 
0 0.596395 0 0.597179 0 0.597962 0 0.598746 0 
0.59953 0 0.600313 0 0.601097 0 0.601881 0 0.602665 
0 0.603448 0 0.604232 0 0.605016 0 0.605799 0 
0.606583 0 0.607367 0 0.60815 0 0.608934 0 0.609718 
0 0.610502 0 0.611285 0 0.612069 0 0.612853 0 
0.613636 0 0.61442 0 0.615204 0 0.615987 0 0.616771 
0 0.617555 0 0.618339 0 0.619122 0 0.619906 0 
0.62069 0 0.621473 0 0.622257 0 0.623041 0 0.623824 
0 0.624608 0 0.625392 0 0.626176 0 0.626959 0 
0.627743 0 0.628527 0 0.62931 0 0.630094 0 0.630878 
0 0.631661 0 0.632445 0 0.633229 0 0.634013 0 
0.634796 0 0.63558 0 0.636364 0 0.637147 0 0.637931 
0 0.638715 0 0.639498 0 0.640282 0 0.641066 0 
0.64185 0 0.642633 0 0.643417 0 0.644201 0 0.644984 
0 0.645768 0 0.646552 0 0.647335 0 0.648119 0 
0.648903 0 0.649687 0 0.65047 0 0.651254 0 0.652038 
0 0.652821 0 0.653605 0 0.654389 0 0.655172 0 
0.655956 0 0.65674 0 0.657524 0 0.658307 0 0.659091 
0 0.659875 0 0.660658 0 0.661442 0 0.662226 0 
0.663009 0 0.663793 0 0.664577 0 0.665361 0 0.666144 
0 0.666928 0 0.667712 0 0.668495 0 0.669279 0 
0.670063 0 0.670846 0 0.67163 0 0.672414 0 0.673198 