# vtk DataFile Version 4.2
vtk output
ASCII
DATASET POLYDATA
POINTS 1280 float
0 0 0 -0.00450618 0.000768425 0.000946798 -0.0175991 0.00299586 0.00369776 
-0.0386404 0.00656557 0.00811873 -0.0669917 0.0113608 0.0140756 -0.102015 0.0172647 0.0214341 
-0.143071 0.0241607 0.0300602 -0.189521 0.0319319 0.0398197 -0.240729 0.0404616 0.0505784 
-0.296054 0.049633 0.0622023 -0.354859 0.0593294 0.0745571 -0.416505 0.0694341 0.0875087 
-0.480354 0.0798302 0.100923 -0.545767 0.090401 0.114666 -0.612106 0.10103 0.128603 
-0.678733 0.1116 0.1426 -0.745009 0.121994 0.156523 -0.810296 0.132096 0.170238 
-0.873958 0.14179 0.183612 -0.935601 0.150995 0.196561 -0.995286 0.159703 0.209102 
-1.05313 0.167911 0.221259 -1.10924 0.175618 0.233059 -1.16372 0.182821 0.244527 
-1.2167 0.189519 0.255688 -1.26829 0.19571 0.266569 -1.31859 0.201391 0.277194 
-1.36772 0.206561 0.287591 -1.41579 0.211219 0.297783 -1.46292 0.215361 0.307798 
-1.50921 0.218986 0.317659 -1.55478 0.222093 0.327395 -1.59974 0.224679 0.337029 
-1.6442 0.226742 0.346587 -1.68828 0.228281 0.356096 -1.73208 0.229293 0.36558 
-1.77573 0.229777 0.375066 -1.81933 0.22973 0.384579 -1.86299 0.229151 0.394144 
-1.90683 0.228038 0.403788 -1.95095 0.226389 0.413536 -1.99548 0.224202 0.423414 
-2.04052 0.221475 0.433447 -2.08615 0.21821 0.443651 -2.13231 0.214415 0.45402 
-2.17898 0.2101 0.464547 -2.2261 0.205275 0.475222 -2.27363 0.199951 0.486038 
-2.32153 0.194135 0.496986 -2.36974 0.18784 0.508058 -2.41822 0.181073 0.519245 
-2.46693 0.173846 0.53054 -2.51582 0.166168 0.541935 -2.56485 0.158048 0.55342 
-2.61396 0.149497 0.564988 -2.66312 0.140524 0.57663 -2.71227 0.131139 0.588338 
-2.76138 0.121351 0.600104 -2.8104 0.111172 0.61192 -2.85927 0.10061 0.623777 
-2.90796 0.0896752 0.635667 -2.95642 0.0783775 0.647582 -3.00462 0.0667201 0.659517 
-3.05256 0.0546964 0.671476 -3.10025 0.0422984 0.683463 -3.14768 0.0295184 0.695482 
-3.19486 0.0163486 0.707535 -3.24179 0.00278122 0.719627 -3.28847 -0.0111916 0.731762 
-3.33491 -0.0255777 0.743943 -3.38111 -0.0403847 0.756174 -3.42706 -0.0556206 0.768459 
-3.47278 -0.0712931 0.780801 -3.51827 -0.08741 0.793204 -3.56352 -0.103979 0.805673 
-3.60855 -0.121008 0.818209 -3.65334 -0.138505 0.830819 -3.69791 -0.156478 0.843504 
-3.74226 -0.174934 0.856269 -3.78639 -0.193881 0.869117 -3.8303 -0.213327 0.882053 
-3.87399 -0.23328 0.895079 -3.91747 -0.253746 0.908201 -3.96073 -0.274721 0.921417 
-4.00377 -0.296196 0.934729 -4.04659 -0.318161 0.948137 -4.08917 -0.340608 0.961641 
-4.13151 -0.363527 0.975242 -4.17361 -0.386909 0.988938 -4.21546 -0.410746 1.00273 
-4.25705 -0.435028 1.01662 -4.29839 -0.459745 1.03061 -4.33946 -0.48489 1.04469 
-4.38026 -0.510452 1.05887 -4.42078 -0.536423 1.07315 -4.46102 -0.562794 1.08752 
-4.50098 -0.589555 1.10199 -4.54064 -0.616698 1.11656 -4.58001 -0.644213 1.13123 
-4.61907 -0.672091 1.146 -4.65782 -0.700323 1.16086 -4.69626 -0.7289 1.17582 
-4.73439 -0.757812 1.19088 -4.77219 -0.787052 1.20604 -4.80968 -0.816608 1.2213 
-4.84686 -0.846472 1.23666 -4.88374 -0.876634 1.25211 -4.92032 -0.907085 1.26768 
-4.95661 -0.937814 1.28334 -4.99262 -0.968812 1.2991 -5.02835 -1.00007 1.31497 
-5.0638 -1.03158 1.33095 -5.09899 -1.06333 1.34703 -5.13391 -1.09531 1.36321 
-5.16858 -1.12751 1.3795 -5.203 -1.15993 1.3959 -5.23718 -1.19254 1.41241 
-5.27112 -1.22535 1.42902 -5.30482 -1.25835 1.44574 -5.3383 -1.29151 1.46258 
-5.37156 -1.32485 1.47952 -5.4046 -1.35833 1.49658 -5.43743 -1.39197 1.51374 
-5.47006 -1.42573 1.53102 -5.50248 -1.45964 1.54842 -5.53471 -1.49366 1.56592 
-5.56675 -1.52782 1.58354 -5.5986 -1.56209 1.60126 -5.63027 -1.59647 1.6191 
-5.66175 -1.63096 1.63705 -5.69306 -1.66556 1.6551 -5.7242 -1.70025 1.67327 
-5.75516 -1.73504 1.69155 -5.78596 -1.76993 1.70993 -5.8166 -1.80489 1.72842 
-5.84708 -1.83994 1.74702 -5.87741 -1.87507 1.76573 -5.90759 -1.91026 1.78455 
-5.93762 -1.94553 1.80347 -5.96751 -1.98086 1.8225 -5.99726 -2.01624 1.84163 
-6.02688 -2.05168 1.86087 -6.05636 -2.08717 1.88022 -6.08572 -2.1227 1.89967 
-6.11496 -2.15827 1.91922 -6.14408 -2.19388 1.93888 -6.17309 -2.22952 1.95864 
-6.20199 -2.2652 1.9785 -6.23079 -2.3009 1.99845 -6.25949 -2.33662 2.01851 
-6.2881 -2.37236 2.03866 -6.31662 -2.40812 2.0589 -6.34506 -2.44389 2.07924 
-6.37342 -2.47967 2.09967 -6.40171 -2.51546 2.12019 -6.42993 -2.55125 2.1408 
-6.45809 -2.58704 2.1615 -6.48619 -2.62282 2.18229 -6.51424 -2.65859 2.20316 
-6.54224 -2.69436 2.22412 -6.57019 -2.73011 2.24515 -6.59811 -2.76583 2.26628 
-6.626 -2.80154 2.28748 -6.65385 -2.83722 2.30876 -6.68168 -2.87288 2.33012 
-6.70949 -2.9085 2.35155 -6.73728 -2.9441 2.37306 -6.76506 -2.97966 2.39463 
-6.79282 -3.01519 2.41628 -6.82058 -3.05069 2.43799 -6.84833 -3.08616 2.45976 
-6.87608 -3.12158 2.48159 -6.90383 -3.15698 2.50348 -6.93158 -3.19233 2.52543 
-6.95934 -3.22764 2.54743 -6.98711 -3.26292 2.56948 -7.0149 -3.29815 2.59158 
-7.0427 -3.33334 2.61373 -7.07052 -3.36849 2.63592 -7.09837 -3.40359 2.65815 
-7.12624 -3.43864 2.68042 -7.15415 -3.47365 2.70273 -7.18208 -3.50861 2.72508 
-7.21006 -3.54352 2.74745 -7.23807 -3.57838 2.76985 -7.26612 -3.61319 2.79228 
-7.29422 -3.64795 2.81474 -7.32237 -3.68266 2.83721 -7.35056 -3.71732 2.85969 
-7.37881 -3.75193 2.88219 -7.40711 -3.78649 2.9047 -7.43546 -3.821 2.92722 
-7.46388 -3.85546 2.94973 -7.49235 -3.88987 2.97225 -7.52089 -3.92423 2.99476 
-7.5495 -3.95854 3.01726 -7.57817 -3.9928 3.03975 -7.60692 -4.02701 3.06223 
-7.63574 -4.06118 3.08468 -7.66463 -4.09529 3.10712 -7.6936 -4.12935 3.12953 
-7.72265 -4.16337 3.15191 -7.75179 -4.19733 3.17426 -7.78101 -4.23125 3.19658 
-7.81032 -4.26511 3.21885 -7.83972 -4.29893 3.24109 -7.86921 -4.3327 3.26327 
-7.8988 -4.36642 3.2854 -7.92847 -4.4001 3.30748 -7.95825 -4.43373 3.32949 
-7.98813 -4.46732 3.35144 -8.0181 -4.50086 3.37332 -8.04818 -4.53436 3.39512 
-8.07836 -4.56782 3.41684 -8.10865 -4.60124 3.43848 -8.13904 -4.63462 3.46002 
-8.16955 -4.66796 3.48148 -8.20016 -4.70126 3.50283 -8.23089 -4.73452 3.52409 
-8.26174 -4.76775 3.54523 -8.2927 -4.80094 3.56626 -8.32378 -4.83409 3.58718 
-8.35498 -4.86721 3.60797 -8.3863 -4.90029 3.62864 -8.41774 -4.93334 3.64918 
-8.44931 -4.96636 3.66958 -8.48101 -4.99935 3.68984 -8.51284 -5.03231 3.70995 
-8.54479 -5.06525 3.7299 -8.57687 -5.09815 3.74969 -8.60908 -5.13103 3.76931 
-8.64143 -5.16388 3.78875 -8.67391 -5.19671 3.80801 -8.70652 -5.22951 3.82708 
-8.73927 -5.2623 3.84596 -8.77215 -5.29506 3.86463 -8.80517 -5.3278 3.8831 
-8.83833 -5.36053 3.90135 -8.87163 -5.39323 3.91937 -8.90506 -5.42593 3.93717 
-8.93865 -5.4586 3.95473 -8.97237 -5.49126 3.97205 -9.00624 -5.52391 3.98913 
-9.04025 -5.55655 4.00594 -9.07441 -5.58918 4.0225 -9.10871 -5.6218 4.03879 
-9.14316 -5.65441 4.0548 -9.17775 -5.68701 4.07052 -9.21249 -5.7196 4.08594 
-9.24736 -5.75219 4.10106 -9.28237 -5.78478 4.11587 -9.31752 -5.81736 4.13035 
-9.35281 -5.84994 4.1445 -9.38823 -5.88252 4.1583 -9.42379 -5.9151 4.17176 
-9.45947 -5.94768 4.18486 -9.49529 -5.98026 4.19759 -9.53123 -6.01284 4.20994 
-9.56731 -6.04542 4.2219 -9.60351 -6.07801 4.23346 -9.63983 -6.11061 4.24463 
-9.67627 -6.14321 4.25537 -9.71284 -6.17582 4.2657 -9.74953 -6.20844 4.27559 
-9.78633 -6.24107 4.28504 -9.82325 -6.27371 4.29404 -9.86029 -6.30635 4.30258 
-9.89742 -6.33901 4.31066 -9.93466 -6.37167 4.31827 -9.97199 -6.40434 4.3254 
-10.0094 -6.43701 4.33205 -10.0469 -6.46969 4.33821 -10.0845 -6.50236 4.34387 
-10.1221 -6.53504 4.34902 -10.1598 -6.56772 4.35367 -10.1976 -6.6004 4.3578 
-10.2354 -6.63308 4.3614 -10.2733 -6.66575 4.36447 -10.3112 -6.69842 4.36701 
-10.3491 -6.73109 4.369 -10.3871 -6.76374 4.37043 -10.4251 -6.79639 4.37132 
-10.4631 -6.82904 4.37163 -10.5011 -6.86167 4.37137 -10.5392 -6.89429 4.37054 
-10.5772 -6.92689 4.36912 -10.6152 -6.95949 4.36712 -10.6532 -6.99207 4.36453 
-10.6912 -7.02463 4.36136 -10.7292 -7.05717 4.35761 -10.7671 -7.0897 4.35327 
-10.8049 -7.1222 4.34836 -10.8428 -7.15467 4.34287 -10.8805 -7.18713 4.3368 
-10.9182 -7.21955 4.33016 -10.9558 -7.25195 4.32294 -10.9932 -7.28431 4.31515 
-11.0306 -7.31665 4.30679 -11.0679 -7.34895 4.29786 -11.1051 -7.38121 4.28835 
-11.1422 -7.41344 4.27828 -11.1791 -7.44563 4.26764 -11.2159 -7.47778 4.25643 
-11.2525 -7.50989 4.24466 -11.289 -7.54195 4.23233 -11.3253 -7.57397 4.21943 
-11.3615 -7.60595 4.20597 -11.3975 -7.63787 4.19197 -11.4333 -7.66975 4.17742 
-11.4689 -7.70158 4.16235 -11.5044 -7.73337 4.14674 -11.5396 -7.76511 4.13063 
-11.5747 -7.79679 4.114 -11.6096 -7.82844 4.09688 -11.6442 -7.86003 4.07926 
-11.6787 -7.89157 4.06117 -11.713 -7.92307 4.0426 -11.7471 -7.95451 4.02356 
-11.7809 -7.98591 4.00407 -11.8146 -8.01726 3.98413 -11.848 -8.04855 3.96375 
-11.8812 -8.0798 3.94294 -11.9142 -8.111 3.92171 -11.9469 -8.14214 3.90006 
-11.9794 -8.17323 3.87801 -12.0117 -8.20428 3.85556 -12.0438 -8.23527 3.83272 
-12.0756 -8.26621 3.8095 -12.1072 -8.2971 3.7859 -12.1385 -8.32795 3.76194 
-12.1696 -8.35874 3.73761 -12.2005 -8.3895 3.71293 -12.2311 -8.4202 3.6879 
-12.2615 -8.45087 3.66254 -12.2916 -8.48149 3.63684 -12.3215 -8.51208 3.61081 
-12.3512 -8.54262 3.58447 -12.3806 -8.57313 3.55781 -12.4098 -8.6036 3.53085 
-12.4387 -8.63403 3.50359 -12.4674 -8.66443 3.47604 -12.4959 -8.6948 3.4482 
-12.5241 -8.72514 3.42009 -12.5521 -8.75544 3.39171 -12.5798 -8.78572 3.36306 
-12.6073 -8.81596 3.33416 -12.6346 -8.84619 3.30501 -12.6616 -8.87638 3.27562 
-12.6883 -8.90655 3.24599 -12.7149 -8.9367 3.21612 -12.7412 -8.96683 3.18603 
-12.7672 -8.99693 3.15571 -12.7931 -9.02702 3.12517 -12.8186 -9.05709 3.09441 
-12.844 -9.08714 3.06345 -12.8691 -9.11718 3.03228 -12.894 -9.1472 3.00092 
-12.9187 -9.17721 2.96936 -12.9431 -9.20721 2.9376 -12.9673 -9.23719 2.90567 
-12.9913 -9.26717 2.87355 -13.015 -9.29714 2.84125 -13.0385 -9.3271 2.80879 
-13.0618 -9.35706 2.77616 -13.0849 -9.38701 2.74337 -13.1078 -9.41696 2.71042 
-13.1304 -9.44691 2.67732 -13.1528 -9.47686 2.64408 -13.175 -9.50681 2.61069 
-13.197 -9.53676 2.57716 -13.2187 -9.56671 2.54348 -13.2402 -9.59666 2.50967 
[...]
CELL_DATA 1
FIELD FieldData 2
Length 1 1 double
63.976568331 
Tortuosity 1 1 double
0.70133909668 
POINT_DATA 1280
SCALARS MaximumInscribedSphereRadius float
LOOKUP_TABLE default
0.62 0.625653 0.631306 0.636959 0.642612 0.648265 0.653918 0.659571 0.665224 
0.670877 0.676531 0.682184 0.687837 0.69349 0.699143 0.704796 0.710449 0.716102 
0.721504 0.7262 0.730896 0.735592 0.740288 0.744983 0.749679 0.754375 0.759071 
0.763767 0.768463 0.773158 0.777854 0.78255 0.787246 0.791942 0.796637 0.801333 
0.806029 0.810725 0.815421 0.820117 0.824812 0.829508 0.835175 0.844358 0.853542 
0.862725 0.871908 0.881092 0.890275 0.899459 0.908642 0.917825 0.927009 0.936192 
0.945375 0.954559 0.963742 0.972926 0.982109 0.991292 1.00048 1.01174 1.0276 
1.04347 1.05933 1.07519 1.09106 1.10692 1.12278 1.13865 1.15451 1.17037 
1.18624 1.2021 1.21796 1.23383 1.24969 1.26555 1.28142 1.29728 1.31314 
1.32901 1.33876 1.34702 1.35528 1.36354 1.3718 1.38006 1.38832 1.39658 
1.40484 1.4131 1.42136 1.42962 1.43788 1.44614 1.4544 1.46266 1.47093 
1.47919 1.48745 1.49571 1.49998 1.49879 1.49761 1.49642 1.49524 1.49405 
1.49287 1.49168 1.4905 1.48931 1.48813 1.48694 1.48576 1.48457 1.48338 
1.4822 1.48101 1.47983 1.47864 1.47746 1.47519 1.46746 1.45974 1.45202 
1.4443 1.43658 1.42885 1.42113 1.41341 1.40569 1.39796 1.39024 1.38252 
1.3748 1.36708 1.35935 1.35163 1.34391 1.33619 1.32847 1.32074 1.31881 
1.31784 1.31686 1.31588 1.31491 1.31393 1.31296 1.31198 1.311 1.31003 
1.30905 1.30808 1.3071 1.30612 1.30515 1.30417 1.3032 1.30222 1.30124 
1.30027 1.30093 1.30283 1.30472 1.30661 1.30851 1.3104 1.31229 1.31419 
1.31608 1.31797 1.31987 1.32176 1.32365 1.32554 1.32744 1.32933 1.33122 
1.33312 1.33501 1.3369 1.3404 1.34783 1.35527 1.36271 1.37014 1.37758 
1.38502 1.39246 1.39989 1.40733 1.41477 1.4222 1.42964 1.43708 1.44451 
1.45195 1.45939 1.46682 1.47426 1.4817 1.48914 1.50302 1.51689 1.53077 
1.54465 1.55852 1.5724 1.58628 1.60015 1.61403 1.62791 1.64178 1.65566 
1.66954 1.68341 1.69729 1.71116 1.72504 1.73892 1.75279 1.76667 1.77288 
1.77602 1.77916 1.7823 1.78545 1.78859 1.79173 1.79487 1.79801 1.80115 
1.80429 1.80743 1.81057 1.81371 1.81685 1.81999 1.82314 1.82628 1.82942 
1.83256 1.83193 1.82615 1.82037 1.81459 1.80881 1.80303 1.79725 1.79147 
1.78569 1.77991 1.77413 1.76835 1.76257 1.75679 1.75101 1.74523 1.73945 
1.73367 1.72789 1.72211 1.71635 1.71067 1.705 1.69933 1.69365 1.68798 
1.68231 1.67664 1.67096 1.66529 1.65962 1.65394 1.64827 1.6426 1.63692 
1.63125 1.62558 1.61991 1.61423 1.60856 1.60289 1.60594 1.6111 1.61627 
1.62143 1.6266 1.63176 1.63693 1.64209 1.64726 1.65242 1.65759 1.66275 
1.66792 1.67308 1.67825 1.68341 1.68858 1.69374 1.6989 1.70407 1.71008 
1.71701 1.72395 1.73089 1.73783 1.74476 1.7517 1.75864 1.76557 1.77251 
1.77945 1.78639 1.79332 1.80026 1.8072 1.81413 1.82107 1.82801 1.83494 
1.84188 1.84891 1.85636 1.86381 1.87126 1.87872 1.88617 1.89362 1.90107 
1.90852 1.91598 1.92343 1.93088 1.93833 1.94579 1.95324 1.96069 1.96814 
1.97559 1.98305 1.9905 1.99795 2.00302 2.00768 2.01234 2.017 2.02165 
2.02631 2.03097 2.03563 2.04029 2.04495 2.04961 2.05427 2.05893 2.06358 
2.06824 2.0729 2.07756 2.08222 2.08688 2.09154 2.08896 2.08064 2.07231 
2.06399 2.05566 2.04734 2.03901 2.03069 2.02236 2.01404 2.00571 1.99739 
1.98907 1.98074 1.97242 1.96409 1.95577 1.94744 1.93912 1.93079 1.92164 
1.91019 1.89874 1.88729 1.87584 1.86439 1.85294 1.8415 1.83005 1.8186 
1.80715 1.7957 1.78425 1.7728 1.76135 1.7499 1.73845 1.727 1.71555 
1.7041 1.69265 1.69032 1.68826 1.68619 1.68413 1.68206 1.68 1.67793 
1.67587 1.6738 1.67173 1.66967 1.6676 1.66554 1.66347 1.66141 1.65934 
1.65728 1.65521 1.65315 1.65108 1.65717 1.6671 1.67703 1.68696 1.69689 
1.70682 1.71675 1.72668 1.73661 1.74654 1.75647 1.7664 1.77633 1.78627 
1.7962 1.80613 1.81606 1.82599 1.83592 1.84585 1.85453 1.86123 1.86793 
1.87463 1.88132 1.88802 1.89472 1.90142 1.90812 1.91481 1.92151 1.92821 
1.93491 1.94161 1.9483 1.955 1.9617 1.9684 1.9751 1.98179 1.98754 
1.98345 1.97937 1.97528 1.9712 1.96711 1.96302 1.95894 1.95485 1.95076 
1.94668 1.94259 1.93851 1.93442 1.93033 1.92625 1.92216 1.91808 1.91399 
1.9099 1.90582 1.89911 1.89169 1.88427 1.87686 1.86944 1.86202 1.8546 
1.84719 1.83977 1.83235 1.82493 1.81752 1.8101 1.80268 1.79526 1.78785 
1.78043 1.77301 1.7656 1.75818 1.75181 1.74654 1.74127 1.736 1.73072 
1.72545 1.72018 1.71491 1.70964 1.70437 1.69909 1.69382 1.68855 1.68328 
1.67801 1.67274 1.66746 1.66219 1.65692 1.65165 1.64702 1.64518 1.64334 
1.64149 1.63965 1.63781 1.63596 1.63412 1.63227 1.63043 1.62859 1.62674 
1.6249 1.62306 1.62121 1.61937 1.61753 1.61568 1.61384 1.612 1.61015 
1.60883 1.60757 1.60631 1.60505 1.60379 1.60253 1.60127 1.60001 1.59875 
1.59749 1.59623 1.59497 1.59371 1.59245 1.59119 1.58993 1.58867 1.58741 
1.58615 1.58489 1.58387 1.58301 1.58214 1.58128 1.58041 1.57955 1.57869 
1.57782 1.57696 1.57609 1.57523 1.57437 1.5735 1.57264 1.57177 1.57091 
1.57004 1.56918 1.56832 1.56745 1.56667 1.56607 1.56547 1.56487 1.56427 
1.56367 1.56307 1.56248 1.56188 1.56128 1.56068 1.56008 1.55948 1.55888 
1.55828 1.55768 1.55708 1.55648 1.55588 1.55528 1.55483 1.55918 1.56353 
1.56788 1.57223 1.57658 1.58093 1.58528 1.58963 1.59398 1.59833 1.60268 
1.60703 1.61138 1.61573 1.62008 1.62443 1.62878 1.63313 1.63748 1.64183 
1.64703 1.65257 1.6581 1.66364 1.66918 1.67472 1.68026 1.68579 1.69133 
1.69687 1.70241 1.70795 1.71348 1.71902 1.72456 1.7301 1.73564 1.74117 
1.74671 1.75225 1.75753 1.76259 1.76764 1.77269 1.77774 1.78279 1.78784 
1.79289 1.79795 1.803 1.80805 1.8131 1.81815 1.8232 1.82826 1.83331 
1.83836 1.84341 1.84846 1.85351 1.85834 1.85765 1.85695 1.85625 1.85555 
1.85486 1.85416 1.85346 1.85276 1.85207 1.85137 1.85067 1.84997 1.84928 
1.84858 1.84788 1.84718 1.84649 1.84579 1.84509 1.84439 1.83845 1.8239 
1.80936 1.79481 1.78027 1.76572 1.75118 1.73664 1.72209 1.70755 1.693 
1.67846 1.66391 1.64937 1.63482 1.62028 1.60574 1.59119 1.57665 1.5621 
1.55484 1.55251 1.55017 1.54784 1.5455 1.54317 1.54084 1.5385 1.53617 
1.53384 1.5315 1.52917 1.52684 1.5245 1.52217 1.51983 1.5175 1.51517 
1.51283 1.5105 1.50817 1.51984 1.5376 1.55536 1.57311 1.59087 1.60863 
1.62639 1.64415 1.6619 1.67966 1.69742 1.71518 1.73294 1.7507 1.76845 
1.78621 1.80397 1.82173 1.83949 1.85724 1.87047 1.87927 1.88807 1.89687 
1.90568 1.91448 1.92328 1.93208 1.94089 1.94969 1.95849 1.96729 1.9761 
1.9849 1.9937 2.0025 2.01131 2.02011 2.02891 2.03771 2.04421 2.04257 
2.04094 2.03931 2.03767 2.03604 2.0344 2.03277 2.03113 2.0295 2.02786 
2.02623 2.0246 2.02296 2.02133 2.01969 2.01806 2.01642 2.01479 2.01316 
2.01152 2.00802 2.00436 2.00071 1.99705 1.99339 1.98973 1.98607 1.98241 
1.97875 1.97509 1.97143 1.96777 1.96412 1.96046 1.9568 1.95314 1.94948 
1.94582 1.94216 1.9385 1.93839 1.94029 1.94218 1.94408 1.94598 1.94788 
1.94977 1.95167 1.95357 1.95546 1.95736 1.95926 1.96115 1.96305 1.96495 
1.96684 1.96874 1.97064 1.97253 1.97443 1.97799 1.9846 1.99122 1.99784 
2.00446 2.01107 2.01769 2.02431 2.03093 2.03754 2.04416 2.05078 2.05739 
2.06401 2.07063 2.07725 2.08386 2.09048 2.0971 2.10372 2.11029 2.11616 
2.12203 2.1279 2.13377 2.13964 2.14551 2.15138 2.15725 2.16312 2.16899 
2.17486 2.18073 2.1866 2.19247 2.19834 2.20421 2.21008 2.21595 2.22182 
2.22769 2.23242 2.23683 2.24124 2.24564 2.25005 2.25446 2.25887 2.26328 
2.26768 2.27209 2.2765 2.28091 2.28532 2.28972 2.29413 2.29854 2.30295 
2.30736 2.31177 2.31617 2.31919 2.32077 2.32236 2.32394 2.32553 2.32712 
2.3287 2.33029 2.33188 2.33346 2.33505 2.33664 2.33822 2.33981 2.34139 
2.34298 2.34457 2.34615 2.34774 2.34933 2.34829 2.33738 2.32646 2.31555 
2.30463 2.29372 2.2828 2.27188 2.26097 2.25005 2.23914 2.22822 2.21731 
2.20639 2.19548 2.18456 2.17365 2.16273 2.15182 2.1409 2.12999 2.12008 
2.11026 2.10044 2.09061 2.08079 2.07097 2.06115 2.05132 2.0415 2.03168 
2.02186 2.01204 2.00221 1.99239 1.98257 1.97275 1.96293 1.9531 1.94328 
1.93346 1.92673 1.92175 1.91678 1.91181 1.90683 1.90186 1.89688 1.89191 
1.88693 1.88196 1.87699 1.87201 1.86704 1.86206 1.85709 1.85212 1.84714 
1.84217 1.83719 1.83222 1.82938 1.83047 1.83157 1.83267 1.83377 1.83487 
1.83597 1.83707 1.83817 1.83926 1.84036 1.84146 1.84256 1.84366 1.84476 
1.84586 1.84695 1.84805 1.84915 1.85025 1.85216 1.86615 1.88014 1.89413 
1.90811 1.9221 1.93609 1.95008 1.96406 1.97805 1.99204 2.00603 2.02001 
2.034 2.04799 2.06198 2.07596 2.08995 2.10394 2.11793 2.13191 2.1481 
2.16492 2.18174 2.19857 2.21539 2.23221 2.24903 2.26586 2.28268 2.2995 
2.31632 2.33314 2.34997 2.36679 2.38361 2.40043 2.41726 2.43408 2.4509 
2.46772 2.48241 2.49485 2.50729 2.51973 2.53217 2.54461 2.55705 2.5695 
2.58194 2.59438 2.60682 2.61926 2.6317 2.64414 2.65658 2.66902 2.68146 
2.6939 2.70634 2.71878 2.72757 2.72168 2.7158 2.70992 2.70403 2.69815 
2.69227 2.68638 2.6805 2.67462 2.66874 2.66285 2.65697 2.65109 2.6452 
2.63932 2.63344 2.62755 2.62167 2.61579 2.60991 2.60327 2.59655 2.58984 
2.58313 2.57642 2.56971 2.56299 2.55628 2.54957 2.54286 2.53614 2.52943 
2.52272 2.51601 2.5093 2.50258 2.49587 2.48916 2.48245 2.47574 2.46887 
2.46191 2.45495 2.44799 2.44103 2.43407 2.42711 2.42015 2.41319 2.40623 
2.39927 2.39231 2.38535 2.3784 2.37144 2.36448 2.35752 2.35056 2.3436 
2.33664 2.32962 2.3225 2.31537 2.30825 2.30113 2.294 2.28688 2.27975 
2.27263 2.2655 2.25838 2.25125 2.24413 2.237 2.22988 2.22276 2.21563 
2.20851 2.20138 2.19426 2.18715 2.18038 2.17361 2.16684 2.16008 2.15331 
2.14654 2.13977 2.133 2.12623 2.11946 2.11269 2.10592 2.09915 2.09238 
2.08561 2.07884 2.07207 2.0653 2.05853 2.05176 2.04678 2.0424 2.03802 
2.03364 2.02926 2.02488 2.0205 2.01612 2.01174 2.00737 2.00299 1.99861 
1.99423 1.98985 1.98547 1.98109 1.97671 1.97233 1.96795 1.96357 1.96105 
1.96017 1.95929 1.95841 1.95752 1.95664 1.95576 1.95488 1.954 1.95311 
1.95223 1.95135 1.95047 1.94959 1.9487 1.94782 1.94694 1.94606 1.94518 
1.94429 1.94452 1.95123 1.95794 1.96466 1.97137 1.97808 1.98479 1.9915 
1.99821 2.00493 2.01164 2.01835 2.02506 2.03177 2.03848 2.0452 2.05191 
2.05862 2.06533 2.07204 2.07876 2.07827 2.07408 2.0699 2.06572 2.06154 
2.05736 2.05318 2.049 2.04481 2.04063 2.03645 2.03227 2.02809 2.02391 
2.01973 2.01554 2.01136 2.00718 2.003 1.99587 1.98782 1.97977 1.97171 
1.96366 1.95561 1.94755 1.9395 1.93145 1.9234 1.91534 1.90729 1.89924 
1.89118 1.88313 1.87508 1.86702 1.85897 1.85092 1.84286 1.83481 1.82676 
1.8187 1.81065 1.79769 1.78312 1.76855 1.75398 1.73941 1.72484 1.71027 
1.6957 1.68113 1.66656 1.65199 1.63742 1.62285 1.60828 1.59371 1.57914 
1.56457 1.55 
TEXTURE_COORDINATES TCoords 2 float
0 0 0.000781861 0 0.00156372 0 0.00234558 0 0.00312744 
0 0.0039093 0 0.00469116 0 0.00547303 0 0.00625489 0 
0.00703675 0 0.00781861 0 0.00860047 0 0.00938233 0 0.0101642 
0 0.0109461 0 0.0117279 0 0.0125098 0 0.0132916 0 
0.0140735 0 0.0148554 0 0.0156372 0 0.0164191 0 0.0172009 
0 0.0179828 0 0.0187647 0 0.0195465 0 0.0203284 0 
0.0211102 0 0.0218921 0 0.022674 0 0.0234558 0 0.0242377 
0 0.0250195 0 0.0258014 0 0.0265833 0 0.0273651 0 
0.028147 0 0.0289288 0 0.0297107 0 0.0304926 0 0.0312744 
0 0.0320563 0 0.0328382 0 0.03362 0 0.0344019 0 
0.0351837 0 0.0359656 0 0.0367475 0 0.0375293 0 0.0383112 
0 0.039093 0 0.0398749 0 0.0406568 0 0.0414386 0 
0.0422205 0 0.0430023 0 0.0437842 0 0.0445661 0 0.0453479 
0 0.0461298 0 0.0469116 0 0.0476935 0 0.0484754 0 
0.0492572 0 0.0500391 0 0.050821 0 0.0516028 0 0.0523847 
0 0.0531665 0 0.0539484 0 0.0547303 0 0.0555121 0 
0.056294 0 0.0570758 0 0.0578577 0 0.0586396 0 0.0594214 
0 0.0602033 0 0.0609851 0 0.061767 0 0.0625489 0 
0.0633307 0 0.0641126 0 0.0648944 0 0.0656763 0 0.0664582 
0 0.06724 0 0.0680219 0 0.0688037 0 0.0695856 0 
0.0703675 0 0.0711493 0 0.0719312 0 0.0727131 0 0.0734949 
0 0.0742768 0 0.0750586 0 0.0758405 0 0.0766224 0 
0.0774042 0 0.0781861 0 0.0789679 0 0.0797498 0 0.0805317 
0 0.0813135 0 0.0820954 0 0.0828772 0 0.0836591 0 
0.084441 0 0.0852228 0 0.0860047 0 0.0867866 0 0.0875684 
0 0.0883503 0 0.0891321 0 0.089914 0 0.0906959 0 
0.0914777 0 0.0922596 0 0.0930414 0 0.0938233 0 0.0946052 
0 0.095387 0 0.0961689 0 0.0969507 0 0.0977326 0 
0.0985145 0 0.0992963 0 0.100078 0 0.10086 0 0.101642 
0 0.102424 0 0.103206 0 0.103987 0 0.104769 0 
0.105551 0 0.106333 0 0.107115 0 0.107897 0 0.108679 
0 0.109461 0 0.110242 0 0.111024 0 0.111806 0 
0.112588 0 0.11337 0 0.114152 0 0.114934 0 0.115715 
0 0.116497 0 0.117279 0 0.118061 0 0.118843 0 
0.119625 0 0.120407 0 0.121188 0 0.12197 0 0.122752 
0 0.123534 0 0.124316 0 0.125098 0 0.12588 0 
0.126661 0 0.127443 0 0.128225 0 0.129007 0 0.129789 
0 0.130571 0 0.131353 0 0.132134 0 0.132916 0 
0.133698 0 0.13448 0 0.135262 0 0.136044 0 0.136826 
0 0.137607 0 0.138389 0 0.139171 0 0.139953 0 
0.140735 0 0.141517 0 0.142299 0 0.143081 0 0.143862 
0 0.144644 0 0.145426 0 0.146208 0 0.14699 0 
0.147772 0 0.148554 0 0.149335 0 0.150117 0 0.150899 
0 0.151681 0 0.152463 0 0.153245 0 0.154027 0 
0.154808 0 0.15559 0 0.156372 0 0.157154 0 0.157936 
0 0.158718 0 0.1595 0 0.160281 0 0.161063 0 
0.161845 0 0.162627 0 0.163409 0 0.164191 0 0.164973 
0 0.165754 0 0.166536 0 0.167318 0 0.1681 0 
0.168882 0 0.169664 0 0.170446 0 0.171228 0 0.172009 
0 0.172791 0 0.173573 0 0.174355 0 0.175137 0 
0.175919 0 0.176701 0 0.177482 0 0.178264 0 0.179046 
0 0.179828 0 0.18061 0 0.181392 0 0.182174 0 
0.182955 0 0.183737 0 0.184519 0 0.185301 0 0.186083 
0 0.186865 0 0.187647 0 0.188428 0 0.18921 0 
0.189992 0 0.190774 0 0.191556 0 0.192338 0 0.19312 
0 0.193901 0 0.194683 0 0.195465 0 0.196247 0 
0.197029 0 0.197811 0 0.198593 0 0.199375 0 0.200156 
0 0.200938 0 0.20172 0 0.202502 0 0.203284 0 
0.204066 0 0.204848 0 0.205629 0 0.206411 0 0.207193 
0 0.207975 0 0.208757 0 0.209539 0 0.210321 0 
0.211102 0 0.211884 0 0.212666 0 0.213448 0 0.21423 
0 0.215012 0 0.215794 0 0.216575 0 0.217357 0 
0.218139 0 0.218921 0 0.219703 0 0.220485 0 0.221267 
0 0.222048 0 0.22283 0 0.223612 0 0.224394 0 
0.225176 0 0.225958 0 0.22674 0 0.227521 0 0.228303 
0 0.229085 0 0.229867 0 0.230649 0 0.231431 0 
0.232213 0 0.232995 0 0.233776 0 0.234558 0 0.23534 
0 0.236122 0 0.236904 0 0.237686 0 0.238468 0 
0.239249 0 0.240031 0 0.240813 0 0.241595 0 0.242377 
0 0.243159 0 0.243941 0 0.244722 0 0.245504 0 
0.246286 0 0.247068 0 0.24785 0 0.248632 0 0.249414 
0 0.250195 0 0.250977 0 0.251759 0 0.252541 0 
0.253323 0 0.254105 0 0.254887 0 0.255668 0 0.25645 
0 0.257232 0 0.258014 0 0.258796 0 0.259578 0 
0.26036 0 0.261142 0 0.261923 0 0.262705 0 0.263487 
0 0.264269 0 0.265051 0 0.265833 0 0.266615 0 
0.267396 0 0.268178 0 0.26896 0 0.269742 0 0.270524 
0 0.271306 0 0.272088 0 0.272869 0 0.273651 0 
0.274433 0 0.275215 0 0.275997 0 0.276779 0 0.277561 
0 0.278342 0 0.279124 0 0.279906 0 0.280688 0 
0.28147 0 0.282252 0 0.283034 0 0.283815 0 0.284597 
0 0.285379 0 0.286161 0 0.286943 0 0.287725 0 
0.288507 0 0.289289 0 0.29007 0 0.290852 0 0.291634 
0 0.292416 0 0.293198 0 0.29398 0 0.294762 0 
0.295543 0 0.296325 0 0.297107 0 0.297889 0 0.298671 
0 0.299453 0 0.300235 0 0.301016 0 0.301798 0 
0.30258 0 0.303362 0 0.304144 0 0.304926 0 0.305708 
0 0.306489 0 0.307271 0 0.308053 0 0.308835 0 
0.309617 0 0.310399 0 0.311181 0 0.311962 0 0.312744 
0 0.313526 0 0.314308 0 0.31509 0 0.315872 0 
0.316654 0 0.317436 0 0.318217 0 0.318999 0 0.319781 
0 0.320563 0 0.321345 0 0.322127 0 0.322909 0 
0.32369 0 0.324472 0 0.325254 0 0.326036 0 0.326818 
0 0.3276 0 0.328382 0 0.329163 0 0.329945 0 
0.330727 0 0.331509 0 0.332291 0 0.333073 0 0.333855 
0 0.334636 0 0.335418 0 0.3362 0 0.336982 0 
0.337764 0 0.338546 0 0.339328 0 0.340109 0 0.340891 
0 0.341673 0 0.342455 0 0.343237 0 0.344019 0 
0.344801 0 0.345582 0 0.346364 0 0.347146 0 0.347928 
0 0.34871 0 0.349492 0 0.350274 0 0.351056 0 
0.351837 0 0.352619 0 0.353401 0 0.354183 0 0.354965 
0 0.355747 0 0.356529 0 0.35731 0 0.358092 0 
0.358874 0 0.359656 0 0.360438 0 0.36122 0 0.362002 
0 0.362783 0 0.363565 0 0.364347 0 0.365129 0 
0.365911 0 0.366693 0 0.367475 0 0.368256 0 0.369038 
0 0.36982 0 0.370602 0 0.371384 0 0.372166 0 
0.372948 0 0.373729 0 0.374511 0 0.375293 0 0.376075 
0 0.376857 0 0.377639 0 0.378421 0 0.379203 0 
0.379984 0 0.380766 0 0.381548 0 0.38233 0 0.383112 
0 0.383894 0 0.384676 0 0.385457 0 0.386239 0 
0.387021 0 0.387803 0 0.388585 0 0.389367 0 0.390149 
0 0.39093 0 0.391712 0 0.392494 0 0.393276 0 
0.394058 0 0.39484 0 0.395622 0 0.396403 0 0.397185 
0 0.397967 0 0.398749 0 0.399531 0 0.400313 0 
0.401095 0 0.401876 0 0.402658 0 0.40344 0 0.404222 
0 0.405004 0 0.405786 0 0.406568 0 0.407349 0 
0.408131 0 0.408913 0 0.409695 0 0.410477 0 0.411259 
0 0.412041 0 0.412823 0 0.413604 0 0.414386 0 
0.415168 0 0.41595 0 0.416732 0 0.417514 0 0.418296 
0 0.419077 0 0.419859 0 0.420641 0 0.421423 0 
0.422205 0 0.422987 0 0.423769 0 0.42455 0 0.425332 
0 0.426114 0 0.426896 0 0.427678 0 0.42846 0 
0.429242 0 0.430023 0 0.430805 0 0.431587 0 0.432369 
0 0.433151 0 0.433933 0 0.434715 0 0.435496 0 
0.436278 0 0.43706 0 0.437842 0 0.438624 0 0.439406 
0 0.440188 0 0.440969 0 0.441751 0 0.442533 0 
0.443315 0 0.444097 0 0.444879 0 0.445661 0 0.446443 
0 0.447224 0 0.448006 0 0.448788 0 0.44957 0 
0.450352 0 0.451134 0 0.451916 0 0.452697 0 0.453479 
0 0.454261 0 0.455043 0 0.455825 0 0.456607 0 
0.457389 0 0.45817 0 0.458952 0 0.459734 0 0.460516 
0 0.461298 0 0.46208 0 0.462862 0 0.463643 0 
0.464425 0 0.465207 0 0.465989 0 0.466771 0 0.467553 
0 0.468335 0 0.469117 0 0.469898 0 0.47068 0 
0.471462 0 0.472244 0 0.473026 0 0.473808 0 0.47459 
0 0.475371 0 0.476153 0 0.476935 0 0.477717 0 
0.478499 0 0.479281 0 0.480063 0 0.480844 0 0.481626 
0 0.482408 0 0.48319 0 0.483972 0 0.484754 0 
0.485536 0 0.486317 0 0.487099 0 0.487881 0 0.488663 
0 0.489445 0 0.490227 0 0.491009 0 0.49179 0 
0.492572 0 0.493354 0 0.494136 0 0.494918 0 0.4957 
0 0.496482 0 0.497263 0 0.498045 0 0.498827 0 
0.499609 0 0.500391 0 0.501173 0 0.501955 0 0.502737 
0 0.503518 0 0.5043 0 0.505082 0 0.505864 0 
0.506646 0 0.507428 0 0.50821 0 0.508991 0 0.509773 
0 0.510555 0 0.511337 0 0.512119 0 0.512901 0 
0.513683 0 0.514464 0 0.515246 0 0.516028 0 0.51681 
0 0.517592 0 0.518374 0 0.519156 0 0.519937 0 
0.520719 0 0.521501 0 0.522283 0 0.523065 0 0.523847 
0 0.524629 0 0.52541 0 0.526192 0 0.526974 0 
0.527756 0 0.528538 0 0.52932 0 0.530102 0 0.530883 
0 0.531665 0 0.532447 0 0.533229 0 0.534011 0 
0.534793 0 0.535575 0 0.536357 0 0.537138 0 0.53792 
0 0.538702 0 0.539484 0 0.540266 0 0.541048 0 
0.54183 0 0.542611 0 0.543393 0 0.544175 0 0.544957 
0 0.545739 0 0.546521 0 0.547303 0 0.548084 0 
0.548866 0 0.549648 0 0.55043 0 0.551212 0 0.551994 
0 0.552776 0 0.553557 0 0.554339 0 0.555121 0 
0.555903 0 0.556685 0 0.557467 0 0.558249 0 0.55903 
0 0.559812 0 0.560594 0 0.561376 0 0.562158 0 
0.56294 0 0.563722 0 0.564503 0 0.565285 0 0.566067 
0 0.566849 0 0.567631 0 0.568413 0 0.569195 0 
0.569977 0 0.570758 0 0.57154 0 0.572322 0 0.573104 
0 0.573886 0 0.574668 0 0.57545 0 0.576231 0 
0.577013 0 0.577795 0 0.578577 0 0.579359 0 0.580141 
0 0.580923 0 0.581704 0 0.582486 0 0.583268 0 
0.58405 0 0.584832 0 0.585614 0 0.586396 0 0.587177 
0 0.587959 0 0.588741 0 0.589523 0 0.590305 0 
0.591087 0 0.591869 0 0.592651 0 0.593432 0 0.594214 
0 0.594996 0 0.595778 0 0.59656 0 0.597342 0 
0.598124 0 0.598905 0 0.599687 0 0.600469 0 0.601251 
0 0.602033 0 0.602815 0 0.603597 0 0.604378 0 
0.60516 0 0.605942 0 0.606724 0 0.607506 0 0.608288 
0 0.60907 0 0.609851 0 0.610633 0 0.611415 0 
0.612197 0 0.612979 0 0.613761 0 0.614543 0 0.615324 
0 0.616106 0 0.616888 0 0.61767 0 0.618452 0 
0.619234 0 0.620016 0 0.620798 0 0.621579 0 0.622361 
0 0.623143 0 0.623925 0 0.624707 0 0.625489 0 
0.626271 0 0.627052 0 0.627834 0 0.628616 0 0.629398 
0 0.63018 0 0.630962 0 0.631744 0 0.632525 0 
0.633307 0 0.634089 0 0.634871 0 0.635653 0 0.636435 
0 0.637217 0 0.637998 0 0.63878 0 0.639562 0 
0.640344 0 0.641126 0 0.641908 0 0.64269 0 0.643471 
0 0.644253 0 0.645035 0 0.645817 0 0.646599 0 
0.647381 0 0.648163 0 0.648944 0 0.649726 0 0.650508 
0 0.65129 0 0.652072 0 0.652854 0 0.653636 0 
0.654418 0 0.655199 0 0.655981 0 0.656763 0 0.657545 