# vtk DataFile Version 4.2
vtk output
ASCII
DATASET POLYDATA
POINTS 1278 float
0 0 0 -0.0023717 0.000578277 0.00326364 -0.0093014 0.00226706 0.0127742 
-0.020511 0.00499728 0.0281112 -0.0357223 0.00869987 0.048854 -0.0546572 0.0133058 0.0745821 
-0.0770376 0.0187459 0.104875 -0.102585 0.0249512 0.139312 -0.131022 0.0318525 0.177473 
-0.16207 0.0393809 0.218937 -0.195452 0.0474672 0.263284 -0.230888 0.0560424 0.310093 
-0.2681 0.0650375 0.358944 -0.306812 0.0743832 0.409416 -0.346743 0.0840107 0.461088 
-0.387618 0.0938507 0.51354 -0.429156 0.103834 0.566352 -0.471081 0.113892 0.619103 
-0.513113 0.123956 0.671372 -0.554976 0.133955 0.722739 -0.59639 0.143822 0.772784 
-0.637078 0.153488 0.821085 -0.676826 0.162898 0.867323 -0.715659 0.172056 0.91154 
-0.753655 0.180979 0.953861 -0.79089 0.189684 0.994411 -0.827443 0.198187 1.03332 
-0.86339 0.206504 1.0707 -0.898811 0.214652 1.10669 -0.933782 0.222648 1.14141 
-0.968381 0.230508 1.17498 -1.00268 0.238248 1.20753 -1.03677 0.245885 1.23919 
-1.07072 0.253436 1.27007 -1.10461 0.260917 1.30032 -1.13851 0.268345 1.33004 
-1.17251 0.275735 1.35936 -1.20667 0.283106 1.38842 -1.24109 0.290472 1.41733 
-1.27583 0.297851 1.44623 -1.31098 0.30526 1.47522 -1.3466 0.312713 1.50445 
-1.38274 0.320215 1.53394 -1.41935 0.32776 1.56366 -1.45644 0.335339 1.59358 
-1.49397 0.342946 1.62366 -1.53194 0.350572 1.65387 -1.57031 0.358212 1.68417 
-1.60907 0.365857 1.71453 -1.64821 0.373501 1.7449 -1.6877 0.381136 1.77527 
-1.72752 0.388754 1.80558 -1.76765 0.396349 1.8358 -1.80807 0.403914 1.86591 
-1.84877 0.41144 1.89586 -1.88973 0.418921 1.92562 -1.93092 0.42635 1.95515 
-1.97233 0.433719 1.98442 -2.01393 0.44102 2.01339 -2.05571 0.448247 2.04203 
-2.09765 0.455393 2.0703 -2.13973 0.462449 2.09816 -2.18193 0.469411 2.1256 
-2.22426 0.476275 2.15261 -2.26672 0.48304 2.1792 -2.30931 0.489703 2.20538 
-2.35204 0.496263 2.23115 -2.39491 0.502718 2.25652 -2.43792 0.509066 2.28149 
-2.48109 0.515304 2.30607 -2.5244 0.521432 2.33028 -2.56786 0.527446 2.3541 
-2.61148 0.533345 2.37756 -2.65527 0.539127 2.40066 -2.69922 0.54479 2.4234 
-2.74333 0.550332 2.44579 -2.78762 0.555752 2.46784 -2.83208 0.561046 2.48955 
-2.87673 0.566214 2.51094 -2.92155 0.571252 2.532 -2.96656 0.576161 2.55274 
-3.01176 0.580936 2.57317 -3.05715 0.585576 2.59329 -3.10273 0.590079 2.61311 
-3.14849 0.59444 2.63261 -3.19444 0.598655 2.6518 -3.24056 0.602722 2.67067 
-3.28686 0.606636 2.68921 -3.33332 0.610394 2.70741 -3.37995 0.613992 2.72529 
-3.42674 0.617427 2.74281 -3.47368 0.620695 2.76 -3.52077 0.623792 2.77683 
-3.56802 0.626715 2.79331 -3.6154 0.62946 2.80942 -3.66292 0.632024 2.82517 
-3.71058 0.634402 2.84055 -3.75837 0.636592 2.85555 -3.80628 0.63859 2.87017 
-3.85431 0.640391 2.88441 -3.90247 0.641993 2.89826 -3.95073 0.643392 2.91171 
-3.99911 0.644584 2.92477 -4.04758 0.645567 2.93742 -4.09616 0.646337 2.94967 
-4.14484 0.646892 2.96153 -4.19361 0.647231 2.97298 -4.24246 0.647349 2.98404 
-4.2914 0.647245 2.9947 -4.34042 0.646916 3.00496 -4.38951 0.64636 3.01483 
-4.43868 0.645575 3.0243 -4.48791 0.644557 3.03339 -4.53721 0.643304 3.04207 
-4.58656 0.641814 3.05037 -4.63597 0.640084 3.05827 -4.68542 0.638112 3.06579 
-4.73493 0.635895 3.07291 -4.78447 0.633431 3.07965 -4.83405 0.630717 3.086 
-4.88367 0.627751 3.09196 -4.93331 0.624529 3.09754 -4.98298 0.621051 3.10273 
-5.03267 0.617314 3.10754 -5.08238 0.613316 3.11197 -5.13209 0.609057 3.11602 
-5.18182 0.604537 3.1197 -5.23155 0.599754 3.12301 -5.28127 0.594707 3.12595 
-5.33099 0.589397 3.12854 -5.38071 0.583821 3.13076 -5.4304 0.577979 3.13264 
-5.48008 0.57187 3.13416 -5.52974 0.565494 3.13533 -5.57936 0.558849 3.13616 
-5.62896 0.551935 3.13665 -5.67852 0.54475 3.1368 -5.72804 0.537295 3.13662 
-5.77751 0.529568 3.13611 -5.82694 0.521568 3.13528 -5.87631 0.513295 3.13412 
-5.92562 0.504747 3.13265 -5.97487 0.495924 3.13086 -6.02406 0.486826 3.12876 
-6.07317 0.477452 3.12635 -6.12222 0.467804 3.12365 -6.17119 0.457883 3.12064 
-6.22009 0.447689 3.11735 -6.2689 0.437223 3.11377 -6.31764 0.426486 3.10991 
-6.36629 0.41548 3.10578 -6.41486 0.404204 3.10138 -6.46334 0.39266 3.09671 
-6.51174 0.380848 3.09178 -6.56003 0.36877 3.08659 -6.60824 0.356425 3.08116 
-6.65635 0.343816 3.07548 -6.70436 0.330943 3.06957 -6.75227 0.317806 3.06341 
-6.80007 0.304407 3.05703 -6.84777 0.290746 3.05043 -6.89536 0.276825 3.0436 
-6.94284 0.262643 3.03656 -6.99021 0.248203 3.02931 -7.03746 0.233505 3.02186 
-7.0846 0.218552 3.01421 -7.13162 0.203345 3.00636 -7.17853 0.187886 2.99832 
-7.22532 0.172178 2.99009 -7.27199 0.156222 2.98167 -7.31855 0.14002 2.97308 
-7.36498 0.123574 2.96431 -7.4113 0.106887 2.95536 -7.4575 0.0899588 2.94625 
-7.50358 0.0727928 2.93698 -7.54954 0.0553907 2.92754 -7.59537 0.0377543 2.91795 
-7.64109 0.0198855 2.9082 -7.68668 0.00178635 2.89831 -7.73214 -0.0165413 2.88827 
-7.77749 -0.0350955 2.87809 -7.82271 -0.0538744 2.86778 -7.8678 -0.0728759 2.85734 
-7.91277 -0.0920982 2.84676 -7.95761 -0.111539 2.83606 -8.00233 -0.131196 2.82524 
-8.04692 -0.151068 2.8143 -8.09138 -0.171151 2.80325 -8.13572 -0.191443 2.79207 
-8.17994 -0.211943 2.78078 -8.22403 -0.232648 2.76939 -8.268 -0.253554 2.75788 
-8.31184 -0.274662 2.74627 -8.35556 -0.295967 2.73455 -8.39916 -0.317467 2.72273 
-8.44263 -0.339161 2.71081 -8.48598 -0.361046 2.69879 -8.52921 -0.38312 2.68668 
-8.57232 -0.40538 2.67448 -8.61531 -0.427824 2.66219 -8.65817 -0.450449 2.64981 
-8.70092 -0.473255 2.63734 -8.74354 -0.496237 2.62479 -8.78605 -0.519394 2.61216 
-8.82843 -0.542724 2.59944 -8.8707 -0.566223 2.58665 -8.91284 -0.58989 2.57378 
-8.95487 -0.613722 2.56084 -8.99678 -0.637717 2.54781 -9.03857 -0.661871 2.5347 
-9.08025 -0.686183 2.52152 -9.12181 -0.71065 2.50826 -9.16326 -0.73527 2.49492 
-9.20459 -0.76004 2.4815 -9.24581 -0.784957 2.46801 -9.28691 -0.810019 2.45444 
-9.3279 -0.835224 2.44079 -9.36878 -0.860569 2.42706 -9.40955 -0.886052 2.41326 
-9.45021 -0.911669 2.39938 -9.49076 -0.93742 2.38542 -9.53119 -0.9633 2.37139 
-9.57152 -0.989308 2.35728 -9.61174 -1.01544 2.34309 -9.65185 -1.0417 2.32883 
-9.69186 -1.06807 2.31449 -9.73175 -1.09457 2.30007 -9.77154 -1.12117 2.28556 
-9.81123 -1.14789 2.27098 -9.8508 -1.17472 2.2563 -9.89027 -1.20166 2.24154 
-9.92964 -1.2287 2.22668 -9.9689 -1.25584 2.21173 -10.0081 -1.28308 2.19668 
-10.0471 -1.31041 2.18153 -10.086 -1.33784 2.16629 -10.1249 -1.36536 2.15093 
-10.1636 -1.39296 2.13548 -10.2023 -1.42066 2.11991 -10.2408 -1.44843 2.10423 
-10.2792 -1.47628 2.08845 -10.3175 -1.50422 2.07254 -10.3557 -1.53222 2.05652 
-10.3939 -1.5603 2.04038 -10.4319 -1.58844 2.02411 -10.4698 -1.61666 2.00772 
-10.5076 -1.64493 1.9912 -10.5453 -1.67327 1.97455 -10.5829 -1.70167 1.95775 
-10.6204 -1.73012 1.94081 -10.6578 -1.75863 1.92372 -10.695 -1.78718 1.90648 
-10.7322 -1.81579 1.88908 -10.7692 -1.84444 1.87151 -10.8062 -1.87313 1.85378 
-10.843 -1.90187 1.83587 -10.8797 -1.93064 1.81779 -10.9163 -1.95944 1.79952 
-10.9527 -1.98828 1.78107 -10.9891 -2.01715 1.76243 -11.0253 -2.04605 1.74359 
-11.0614 -2.07497 1.72455 -11.0974 -2.10391 1.7053 -11.1332 -2.13288 1.68585 
-11.169 -2.16186 1.66618 -11.2046 -2.19085 1.64629 -11.24 -2.21986 1.62617 
-11.2754 -2.24887 1.60583 -11.3106 -2.2779 1.58525 -11.3456 -2.30693 1.56443 
-11.3805 -2.33596 1.54336 -11.4152 -2.365 1.52205 -11.4498 -2.39403 1.50048 
-11.4842 -2.42306 1.47865 -11.5185 -2.45209 1.45655 -11.5526 -2.4811 1.43419 
-11.5865 -2.51011 1.41154 -11.6202 -2.53911 1.38862 -11.6537 -2.56809 1.36541 
-11.6871 -2.59705 1.34192 -11.7203 -2.626 1.31812 -11.7532 -2.65492 1.29403 
-11.786 -2.68382 1.26962 -11.8186 -2.7127 1.24491 -11.8509 -2.74155 1.21988 
-11.883 -2.77037 1.19453 -11.915 -2.79916 1.16886 -11.9467 -2.82792 1.14286 
-11.9781 -2.85664 1.11654 -12.0093 -2.88533 1.08989 -12.0403 -2.91399 1.06291 
-12.071 -2.9426 1.0356 -12.1014 -2.97119 1.00795 -12.1316 -2.99973 0.979974 
-12.1615 -3.02824 0.951658 -12.1911 -3.0567 0.923004 -12.2204 -3.08512 0.89401 
-12.2494 -3.1135 0.864674 -12.2781 -3.14184 0.834996 -12.3065 -3.17013 0.804972 
-12.3345 -3.19838 0.774602 -12.3622 -3.22658 0.743884 -12.3896 -3.25473 0.712816 
-12.4166 -3.28283 0.681396 -12.4433 -3.31089 0.649623 -12.4696 -3.33889 0.617496 
-12.4956 -3.36684 0.585016 -12.5212 -3.39474 0.552188 -12.5463 -3.42259 0.519016 
-12.5711 -3.45038 0.485505 -12.5955 -3.47813 0.451658 -12.6195 -3.50583 0.417479 
-12.6431 -3.53347 0.382974 -12.6663 -3.56107 0.348145 -12.689 -3.58861 0.312998 
-12.7113 -3.61611 0.277536 -12.7332 -3.64355 0.241764 -12.7546 -3.67094 0.205685 
-12.7756 -3.69829 0.169305 -12.7961 -3.72558 0.132626 -12.8161 -3.75282 0.0956545 
-12.8356 -3.78002 0.0583932 -12.8547 -3.80716 0.0208466 -12.8733 -3.83425 -0.0169811 
-12.8914 -3.8613 -0.0550857 -12.909 -3.88829 -0.0934629 -12.926 -3.91524 -0.132107 
-12.9426 -3.94214 -0.171008 -12.9586 -3.96899 -0.21016 -12.9741 -3.9958 -0.249554 
-12.9891 -4.02256 -0.28918 -13.0036 -4.04928 -0.329032 -13.0176 -4.07595 -0.369101 
-13.031 -4.10259 -0.409378 -13.0439 -4.12918 -0.449855 -13.0563 -4.15573 -0.490524 
-13.0681 -4.18225 -0.531377 -13.0794 -4.20873 -0.572404 -13.0902 -4.23517 -0.613599 
-13.1004 -4.26158 -0.654952 -13.1101 -4.28795 -0.696456 -13.1192 -4.31429 -0.738102 
-13.1278 -4.3406 -0.779882 -13.1358 -4.36688 -0.821787 -13.1433 -4.39313 -0.863809 
-13.1502 -4.41935 -0.90594 -13.1566 -4.44554 -0.948171 -13.1624 -4.47171 -0.990496 
-13.1676 -4.49785 -1.03291 -13.1723 -4.52397 -1.07539 -13.1765 -4.55007 -1.11795 
-13.1801 -4.57615 -1.16057 -13.1832 -4.60221 -1.20324 -13.1858 -4.62826 -1.24596 
-13.1878 -4.65429 -1.28872 -13.1893 -4.68031 -1.33151 -13.1902 -4.70632 -1.37432 
-13.1907 -4.73231 -1.41715 -13.1906 -4.75831 -1.45999 -13.19 -4.78429 -1.50282 
-13.1889 -4.81027 -1.54565 -13.1873 -4.83625 -1.58846 -13.1852 -4.86223 -1.63125 
-13.1826 -4.88821 -1.67401 -13.1795 -4.91419 -1.71673 -13.1758 -4.94017 -1.75941 
-13.1717 -4.96616 -1.80203 -13.1672 -4.99216 -1.84459 -13.1621 -5.01817 -1.88708 
-13.1565 -5.04419 -1.92951 -13.1505 -5.07022 -1.97186 -13.144 -5.09627 -2.01413 
[...]
CELL_DATA 1
FIELD FieldData 2
Length 1 1 double
63.857948525 
Tortuosity 1 1 double
1.0504750673 
POINT_DATA 1278
SCALARS MaximumInscribedSphereRadius float
LOOKUP_TABLE default
1.55 1.54299 1.53598 1.52897 1.52196 1.51495 1.50794 1.50093 1.49392 
1.48691 1.4799 1.47289 1.46588 1.45887 1.45186 1.44485 1.43784 1.43083 
1.42382 1.41681 1.4098 1.40283 1.397 1.39117 1.38534 1.37951 1.37368 
1.36784 1.36201 1.35618 1.35035 1.34452 1.33869 1.33286 1.32703 1.3212 
1.31537 1.30953 1.3037 1.29787 1.29204 1.28844 1.2867 1.28496 1.28322 
1.28149 1.27975 1.27801 1.27628 1.27454 1.2728 1.27107 1.26933 1.26759 
1.26585 1.26412 1.26238 1.26064 1.25891 1.25717 1.25543 1.25384 1.25316 
1.25247 1.25178 1.25109 1.25041 1.24972 1.24903 1.24834 1.24766 1.24697 
1.24628 1.2456 1.24491 1.24422 1.24353 1.24285 1.24216 1.24147 1.24079 
1.2401 1.24 1.24 1.24 1.24 1.24 1.24 1.24 1.24 
1.24 1.24 1.24 1.24 1.24 1.24 1.24 1.24 1.24 
1.24 1.24 1.24 1.24 1.24 1.24 1.24 1.24 1.24 
1.24 1.24 1.24 1.24 1.24 1.24 1.24 1.24 1.24 
1.24 1.24 1.24 1.24 1.24 1.24031 1.24134 1.24237 1.2434 
1.24443 1.24545 1.24648 1.24751 1.24854 1.24957 1.2506 1.25162 1.25265 
1.25368 1.25471 1.25574 1.25676 1.25779 1.25882 1.25985 1.26102 1.26748 
1.27393 1.28039 1.28684 1.29329 1.29975 1.3062 1.31266 1.31911 1.32557 
1.33202 1.33847 1.34493 1.35138 1.35784 1.36429 1.37075 1.3772 1.38366 
1.39011 1.39752 1.40525 1.41299 1.42072 1.42845 1.43619 1.44392 1.45165 
1.45939 1.46712 1.47485 1.48259 1.49032 1.49806 1.50579 1.51352 1.52126 
1.52899 1.53672 1.54446 1.54865 1.54872 1.54879 1.54886 1.54892 1.54899 
1.54906 1.54913 1.5492 1.54926 1.54933 1.5494 1.54947 1.54954 1.5496 
1.54967 1.54974 1.54981 1.54988 1.54994 1.55 1.55 1.55 1.55 
1.55 1.55 1.55 1.55 1.55 1.55 1.55 1.55 1.55 
1.55 1.55 1.55 1.55 1.55 1.55 1.55 1.55 1.55 
1.55 1.55 1.55 1.55 1.55 1.55 1.55 1.55 1.55 
1.55 1.55 1.55 1.55 1.55 1.55 1.55 1.55 1.55 
1.55 1.55 1.55 1.55 1.55 1.55 1.55 1.55 1.55 
1.55 1.55 1.55 1.55 1.55 1.55 1.55 1.55 1.55 
1.55 1.55 1.55 1.54999 1.54997 1.54995 1.54993 1.54991 1.54989 
1.54987 1.54984 1.54982 1.5498 1.54978 1.54976 1.54974 1.54972 1.5497 
1.54968 1.54965 1.54963 1.54961 1.54959 1.54947 1.54607 1.54266 1.53925 
1.53585 1.53244 1.52903 1.52563 1.52222 1.51881 1.51541 1.512 1.50859 
1.50519 1.50178 1.49837 1.49497 1.49156 1.48815 1.48474 1.48134 1.47754 
1.47361 1.46969 1.46576 1.46183 1.45791 1.45398 1.45005 1.44613 1.4422 
1.43827 1.43435 1.43042 1.4265 1.42257 1.41864 1.41472 1.41079 1.40686 
1.40294 1.4006 1.40001 1.39941 1.39881 1.39822 1.39762 1.39703 1.39643 
1.39583 1.39524 1.39464 1.39404 1.39345 1.39285 1.39225 1.39166 1.39106 
1.39046 1.38987 1.38927 1.38849 1.38703 1.38556 1.3841 1.38264 1.38117 
1.37971 1.37824 1.37678 1.37531 1.37385 1.37238 1.37092 1.36946 1.36799 
1.36653 1.36506 1.3636 1.36213 1.36067 1.3592 1.35544 1.35151 1.34758 
1.34366 1.33973 1.33581 1.33188 1.32796 1.32403 1.32011 1.31618 1.31225 
1.30833 1.3044 1.30048 1.29655 1.29263 1.2887 1.28477 1.28085 1.27823 
1.27628 1.27433 1.27238 1.27043 1.26849 1.26654 1.26459 1.26264 1.26069 
1.25874 1.2568 1.25485 1.2529 1.25095 1.249 1.24705 1.24511 1.24316 
1.24121 1.24 1.24 1.24 1.24 1.24 1.24 1.24 1.24 
1.24 1.24 1.24 1.24 1.24 1.24 1.24 1.24 1.24 
1.24 1.24 1.24 1.24065 1.24725 1.25385 1.26044 1.26704 1.27364 
1.28024 1.28683 1.29343 1.30003 1.30662 1.31322 1.31982 1.32642 1.33301 
1.33961 1.34621 1.3528 1.3594 1.366 1.3726 1.387 1.40309 1.41918 
1.43528 1.45137 1.46746 1.48356 1.49965 1.51574 1.53183 1.54793 1.56402 
1.58011 1.5962 1.6123 1.62839 1.64448 1.66057 1.67667 1.69276 1.72098 
1.75739 1.7938 1.83021 1.86662 1.90303 1.93944 1.97585 2.01226 2.04867 
2.08508 2.12149 2.1579 2.19431 2.23072 2.26713 2.30354 2.33995 2.37636 
2.41277 2.43149 2.43191 2.43232 2.43274 2.43315 2.43357 2.43398 2.43439 
2.43481 2.43522 2.43564 2.43605 2.43647 2.43688 2.43729 2.43771 2.43812 
2.43854 2.43895 2.43937 2.43217 2.41686 2.40154 2.38622 2.37091 2.35559 
2.34027 2.32496 2.30964 2.29432 2.27901 2.26369 2.24838 2.23306 2.21774 
2.20243 2.18711 2.17179 2.15648 2.14116 2.12748 2.1195 2.11152 2.10354 
2.09556 2.08759 2.07961 2.07163 2.06365 2.05568 2.0477 2.03972 2.03174 
2.02376 2.01579 2.00781 1.99983 1.99185 1.98387 1.9759 1.96792 1.98332 
2.00014 2.01696 2.03378 2.0506 2.06743 2.08425 2.10107 2.11789 2.13472 
2.15154 2.16836 2.18518 2.202 2.21883 2.23565 2.25247 2.26929 2.28612 
2.30294 2.31423 2.3226 2.33098 2.33935 2.34772 2.35609 2.36446 2.37283 
2.3812 2.38957 2.39794 2.40631 2.41468 2.42305 2.43143 2.4398 2.44817 
2.45654 2.46491 2.47328 2.47868 2.47891 2.47913 2.47935 2.47958 2.4798 
2.48002 2.48025 2.48047 2.4807 2.48092 2.48114 2.48137 2.48159 2.48181 
2.48204 2.48226 2.48249 2.48271 2.48293 2.48537 2.51389 2.54241 2.57092 
2.59944 2.62796 2.65648 2.685 2.71352 2.74204 2.77056 2.79908 2.8276 
2.85611 2.88463 2.91315 2.94167 2.97019 2.99871 3.02723 3.05575 3.05738 
3.05253 3.04769 3.04284 3.038 3.03315 3.02831 3.02346 3.01862 3.01377 
3.00893 3.00409 2.99924 2.9944 2.98955 2.98471 2.97986 2.97502 2.97017 
2.96533 2.93714 2.89646 2.85578 2.81509 2.77441 2.73373 2.69305 2.65236 
2.61168 2.571 2.53031 2.48963 2.44895 2.40827 2.36758 2.3269 2.28622 
2.24553 2.20485 2.16417 2.13635 2.12706 2.11777 2.10849 2.0992 2.08991 
2.08062 2.07133 2.06204 2.05275 2.04346 2.03417 2.02488 2.0156 2.00631 
1.99702 1.98773 1.97844 1.96915 1.95986 1.95122 1.94679 1.94237 1.93794 
1.93351 1.92909 1.92466 1.92023 1.91581 1.91138 1.90695 1.90253 1.8981 
1.89367 1.88924 1.88482 1.88039 1.87596 1.87154 1.86711 1.86268 1.86196 
1.86192 1.86187 1.86183 1.86178 1.86174 1.86169 1.86165 1.8616 1.86156 
1.86151 1.86147 1.86142 1.86138 1.86133 1.86129 1.86124 1.8612 1.86115 
1.86111 1.86563 1.87377 1.88191 1.89005 1.89819 1.90633 1.91447 1.92261 
1.93075 1.93889 1.94703 1.95517 1.96331 1.97145 1.97958 1.98772 1.99586 
2.004 2.01214 2.02028 2.03036 2.04572 2.06108 2.07644 2.09181 2.10717 
2.12253 2.13789 2.15325 2.16862 2.18398 2.19934 2.2147 2.23006 2.24543 
2.26079 2.27615 2.29151 2.30687 2.32223 2.3376 2.33635 2.33474 2.33313 
2.33152 2.32991 2.3283 2.32669 2.32508 2.32347 2.32186 2.32025 2.31864 
2.31703 2.31542 2.31381 2.3122 2.31059 2.30898 2.30737 2.30576 2.29498 
2.28005 2.26511 2.25018 2.23525 2.22031 2.20538 2.19045 2.17551 2.16058 
2.14565 2.13071 2.11578 2.10085 2.08592 2.07098 2.05605 2.04112 2.02618 
2.01125 2.00166 2.00007 1.99848 1.99689 1.9953 1.99371 1.99212 1.99053 
1.98894 1.98735 1.98576 1.98416 1.98257 1.98098 1.97939 1.9778 1.97621 
1.97462 1.97303 1.97144 1.97102 1.97964 1.98826 1.99688 2.0055 2.01412 
2.02275 2.03137 2.03999 2.04861 2.05723 2.06585 2.07448 2.0831 2.09172 
2.10034 2.10896 2.11758 2.12621 2.13483 2.14345 2.13296 2.11864 2.10432 
2.09 2.07568 2.06136 2.04704 2.03272 2.0184 2.00408 1.98976 1.97544 
1.96112 1.94679 1.93247 1.91815 1.90383 1.88951 1.87519 1.86087 1.8502 
1.84245 1.83471 1.82696 1.81922 1.81147 1.80373 1.79598 1.78823 1.78049 
1.77274 1.765 1.75725 1.7495 1.74176 1.73401 1.72627 1.71852 1.71078 
1.70303 1.70154 1.71598 1.73042 1.74486 1.75931 1.77375 1.78819 1.80263 
1.81707 1.83151 1.84595 1.86039 1.87483 1.88927 1.90371 1.91815 1.93259 
1.94703 1.96147 1.97591 1.99026 1.99502 1.99978 2.00454 2.0093 2.01406 
2.01881 2.02357 2.02833 2.03309 2.03785 2.04261 2.04737 2.05213 2.05688 
2.06164 2.0664 2.07116 2.07592 2.08068 2.08544 2.08099 2.07315 2.0653 
2.05746 2.04962 2.04177 2.03393 2.02609 2.01824 2.0104 2.00256 1.99471 
1.98687 1.97903 1.97118 1.96334 1.9555 1.94765 1.93981 1.93196 1.92647 
1.92388 1.92129 1.9187 1.91612 1.91353 1.91094 1.90836 1.90577 1.90318 
1.90059 1.89801 1.89542 1.89283 1.89024 1.88766 1.88507 1.88248 1.8799 
1.87731 1.8749 1.87344 1.87198 1.87052 1.86907 1.86761 1.86615 1.86469 
1.86323 1.86177 1.86032 1.85886 1.8574 1.85594 1.85448 1.85302 1.85157 
1.85011 1.84865 1.84719 1.84573 1.84038 1.83444 1.8285 1.82255 1.81661 
1.81066 1.80472 1.79878 1.79283 1.78689 1.78094 1.775 1.76906 1.76311 
1.75717 1.75122 1.74528 1.73934 1.73339 1.72745 1.72029 1.71224 1.70419 
1.69614 1.68808 1.68003 1.67198 1.66393 1.65588 1.64783 1.63978 1.63173 
1.62368 1.61563 1.60758 1.59953 1.59148 1.58343 1.57538 1.56733 1.57047 
1.60104 1.63161 1.66218 1.69275 1.72331 1.75388 1.78445 1.81502 1.84559 
1.87615 1.90672 1.93729 1.96786 1.99843 2.029 2.05956 2.09013 2.1207 
2.15127 2.1818 2.20527 2.22875 2.25222 2.27569 2.29917 2.32264 2.34611 
2.36959 2.39306 2.41653 2.44001 2.46348 2.48696 2.51043 2.5339 2.55738 
2.58085 2.60432 2.6278 2.65127 2.65531 2.65209 2.64887 2.64565 2.64243 
2.63921 2.63599 2.63277 2.62955 2.62633 2.62311 2.61989 2.61667 2.61345 
2.61023 2.60701 2.60379 2.60057 2.59735 2.59413 2.58413 2.5663 2.54847 
2.53064 2.51281 2.49498 2.47715 2.45932 2.44148 2.42365 2.40582 2.38799 
2.37016 2.35233 2.3345 2.31667 2.29884 2.28101 2.26318 2.24535 2.2257 
2.19899 2.17227 2.14556 2.11885 2.09213 2.06542 2.03871 2.01199 1.98528 
1.95856 1.93185 1.90514 1.87842 1.85171 1.825 1.79828 1.77157 1.74486 
1.71814 1.69143 1.6893 1.68883 1.68835 1.68787 1.6874 1.68692 1.68645 
1.68597 1.68549 1.68502 1.68454 1.68406 1.68359 1.68311 1.68263 1.68216 
1.68168 1.68121 1.68073 1.68025 1.68603 1.69507 1.70412 1.71316 1.7222 
1.73124 1.74028 1.74932 1.75837 1.76741 1.77645 1.78549 1.79453 1.80357 
1.81262 1.82166 1.8307 1.83974 1.84878 1.85782 1.8687 1.88265 1.89661 
1.91057 1.92452 1.93848 1.95244 1.96639 1.98035 1.99431 2.00826 2.02222 
2.03618 2.05013 2.06409 2.07805 2.092 2.10596 2.11992 2.13387 2.14798 
2.16372 2.17945 2.19518 2.21092 2.22665 2.24239 2.25812 2.27386 2.28959 
2.30533 2.32106 2.33679 2.35253 2.36826 2.384 2.39973 2.41547 2.4312 
2.44694 2.46267 2.45213 2.43473 2.41733 2.39993 2.38253 2.36513 2.34773 
2.33033 2.31293 2.29552 2.27812 2.26072 2.24332 2.22592 2.20852 2.19112 
2.17372 2.15632 2.13892 2.12151 2.11165 2.10983 2.10801 2.10618 2.10436 
2.10254 2.10072 2.0989 2.09708 2.09526 2.09343 2.09161 2.08979 2.08797 
2.08615 2.08433 2.08251 2.08068 2.07886 2.07704 2.08873 2.10829 2.12786 
2.14742 2.16698 2.18655 2.20611 2.22567 2.24524 2.2648 2.28436 2.30393 
2.32349 2.34305 2.36262 2.38218 2.40175 2.42131 2.44087 2.46044 2.48 

TEXTURE_COORDINATES TCoords 2 float
0 0 0.000783085 0 0.00156617 0 0.00234926 0 0.00313234 
0 0.00391543 0 0.00469851 0 0.0054816 0 0.00626468 0 
0.00704777 0 0.00783085 0 0.00861394 0 0.00939702 0 0.0101801 
0 0.0109632 0 0.0117463 0 0.0125294 0 0.0133125 0 
0.0140955 0 0.0148786 0 0.0156617 0 0.0164448 0 0.0172279 
0 0.018011 0 0.018794 0 0.0195771 0 0.0203602 0 
0.0211433 0 0.0219264 0 0.0227095 0 0.0234926 0 0.0242756 
0 0.0250587 0 0.0258418 0 0.0266249 0 0.027408 0 
0.0281911 0 0.0289742 0 0.0297572 0 0.0305403 0 0.0313234 
0 0.0321065 0 0.0328896 0 0.0336727 0 0.0344558 0 
0.0352388 0 0.0360219 0 0.036805 0 0.0375881 0 0.0383712 
0 0.0391543 0 0.0399374 0 0.0407204 0 0.0415035 0 
0.0422866 0 0.0430697 0 0.0438528 0 0.0446359 0 0.045419 
0 0.046202 0 0.0469851 0 0.0477682 0 0.0485513 0 
0.0493344 0 0.0501175 0 0.0509005 0 0.0516836 0 0.0524667 
0 0.0532498 0 0.0540329 0 0.054816 0 0.0555991 0 
0.0563821 0 0.0571652 0 0.0579483 0 0.0587314 0 0.0595145 
0 0.0602976 0 0.0610807 0 0.0618637 0 0.0626468 0 
0.0634299 0 0.064213 0 0.0649961 0 0.0657792 0 0.0665623 
0 0.0673453 0 0.0681284 0 0.0689115 0 0.0696946 0 
0.0704777 0 0.0712608 0 0.0720439 0 0.0728269 0 0.07361 
0 0.0743931 0 0.0751762 0 0.0759593 0 0.0767424 0 
0.0775255 0 0.0783085 0 0.0790916 0 0.0798747 0 0.0806578 
0 0.0814409 0 0.082224 0 0.083007 0 0.0837901 0 
0.0845732 0 0.0853563 0 0.0861394 0 0.0869225 0 0.0877056 
0 0.0884886 0 0.0892717 0 0.0900548 0 0.0908379 0 
0.091621 0 0.0924041 0 0.0931872 0 0.0939702 0 0.0947533 
0 0.0955364 0 0.0963195 0 0.0971026 0 0.0978857 0 
0.0986688 0 0.0994518 0 0.100235 0 0.101018 0 0.101801 
0 0.102584 0 0.103367 0 0.10415 0 0.104933 0 
0.105717 0 0.1065 0 0.107283 0 0.108066 0 0.108849 
0 0.109632 0 0.110415 0 0.111198 0 0.111981 0 
0.112764 0 0.113547 0 0.11433 0 0.115114 0 0.115897 
0 0.11668 0 0.117463 0 0.118246 0 0.119029 0 
0.119812 0 0.120595 0 0.121378 0 0.122161 0 0.122944 
0 0.123727 0 0.124511 0 0.125294 0 0.126077 0 
0.12686 0 0.127643 0 0.128426 0 0.129209 0 0.129992 
0 0.130775 0 0.131558 0 0.132341 0 0.133125 0 
0.133908 0 0.134691 0 0.135474 0 0.136257 0 0.13704 
0 0.137823 0 0.138606 0 0.139389 0 0.140172 0 
0.140955 0 0.141738 0 0.142522 0 0.143305 0 0.144088 
0 0.144871 0 0.145654 0 0.146437 0 0.14722 0 
0.148003 0 0.148786 0 0.149569 0 0.150352 0 0.151135 
0 0.151919 0 0.152702 0 0.153485 0 0.154268 0 
0.155051 0 0.155834 0 0.156617 0 0.1574 0 0.158183 
0 0.158966 0 0.159749 0 0.160533 0 0.161316 0 
0.162099 0 0.162882 0 0.163665 0 0.164448 0 0.165231 
0 0.166014 0 0.166797 0 0.16758 0 0.168363 0 
0.169146 0 0.16993 0 0.170713 0 0.171496 0 0.172279 
0 0.173062 0 0.173845 0 0.174628 0 0.175411 0 
0.176194 0 0.176977 0 0.17776 0 0.178543 0 0.179327 
0 0.18011 0 0.180893 0 0.181676 0 0.182459 0 
0.183242 0 0.184025 0 0.184808 0 0.185591 0 0.186374 
0 0.187157 0 0.18794 0 0.188724 0 0.189507 0 
0.19029 0 0.191073 0 0.191856 0 0.192639 0 0.193422 
0 0.194205 0 0.194988 0 0.195771 0 0.196554 0 
0.197338 0 0.198121 0 0.198904 0 0.199687 0 0.20047 
0 0.201253 0 0.202036 0 0.202819 0 0.203602 0 
0.204385 0 0.205168 0 0.205951 0 0.206735 0 0.207518 
0 0.208301 0 0.209084 0 0.209867 0 0.21065 0 
0.211433 0 0.212216 0 0.212999 0 0.213782 0 0.214565 
0 0.215348 0 0.216132 0 0.216915 0 0.217698 0 
0.218481 0 0.219264 0 0.220047 0 0.22083 0 0.221613 
0 0.222396 0 0.223179 0 0.223962 0 0.224745 0 
0.225529 0 0.226312 0 0.227095 0 0.227878 0 0.228661 
0 0.229444 0 0.230227 0 0.23101 0 0.231793 0 
0.232576 0 0.233359 0 0.234143 0 0.234926 0 0.235709 
0 0.236492 0 0.237275 0 0.238058 0 0.238841 0 
0.239624 0 0.240407 0 0.24119 0 0.241973 0 0.242756 
0 0.24354 0 0.244323 0 0.245106 0 0.245889 0 
0.246672 0 0.247455 0 0.248238 0 0.249021 0 0.249804 
0 0.250587 0 0.25137 0 0.252153 0 0.252937 0 
0.25372 0 0.254503 0 0.255286 0 0.256069 0 0.256852 
0 0.257635 0 0.258418 0 0.259201 0 0.259984 0 
0.260767 0 0.261551 0 0.262334 0 0.263117 0 0.2639 
0 0.264683 0 0.265466 0 0.266249 0 0.267032 0 
0.267815 0 0.268598 0 0.269381 0 0.270164 0 0.270948 
0 0.271731 0 0.272514 0 0.273297 0 0.27408 0 
0.274863 0 0.275646 0 0.276429 0 0.277212 0 0.277995 
0 0.278778 0 0.279561 0 0.280345 0 0.281128 0 
0.281911 0 0.282694 0 0.283477 0 0.28426 0 0.285043 
0 0.285826 0 0.286609 0 0.287392 0 0.288175 0 
0.288958 0 0.289742 0 0.290525 0 0.291308 0 0.292091 
0 0.292874 0 0.293657 0 0.29444 0 0.295223 0 
0.296006 0 0.296789 0 0.297572 0 0.298356 0 0.299139 
0 0.299922 0 0.300705 0 0.301488 0 0.302271 0 
0.303054 0 0.303837 0 0.30462 0 0.305403 0 0.306186 
0 0.306969 0 0.307753 0 0.308536 0 0.309319 0 
0.310102 0 0.310885 0 0.311668 0 0.312451 0 0.313234 
0 0.314017 0 0.3148 0 0.315583 0 0.316366 0 
0.31715 0 0.317933 0 0.318716 0 0.319499 0 0.320282 
0 0.321065 0 0.321848 0 0.322631 0 0.323414 0 
0.324197 0 0.32498 0 0.325763 0 0.326547 0 0.32733 
0 0.328113 0 0.328896 0 0.329679 0 0.330462 0 
0.331245 0 0.332028 0 0.332811 0 0.333594 0 0.334377 
0 0.335161 0 0.335944 0 0.336727 0 0.33751 0 
0.338293 0 0.339076 0 0.339859 0 0.340642 0 0.341425 
0 0.342208 0 0.342991 0 0.343774 0 0.344558 0 
0.345341 0 0.346124 0 0.346907 0 0.34769 0 0.348473 
0 0.349256 0 0.350039 0 0.350822 0 0.351605 0 
0.352388 0 0.353171 0 0.353955 0 0.354738 0 0.355521 
0 0.356304 0 0.357087 0 0.35787 0 0.358653 0 
0.359436 0 0.360219 0 0.361002 0 0.361785 0 0.362569 
0 0.363352 0 0.364135 0 0.364918 0 0.365701 0 
0.366484 0 0.367267 0 0.36805 0 0.368833 0 0.369616 
0 0.370399 0 0.371182 0 0.371966 0 0.372749 0 
0.373532 0 0.374315 0 0.375098 0 0.375881 0 0.376664 
0 0.377447 0 0.37823 0 0.379013 0 0.379796 0 
0.380579 0 0.381363 0 0.382146 0 0.382929 0 0.383712 
0 0.384495 0 0.385278 0 0.386061 0 0.386844 0 
0.387627 0 0.38841 0 0.389193 0 0.389977 0 0.39076 
0 0.391543 0 0.392326 0 0.393109 0 0.393892 0 
0.394675 0 0.395458 0 0.396241 0 0.397024 0 0.397807 
0 0.39859 0 0.399374 0 0.400157 0 0.40094 0 
0.401723 0 0.402506 0 0.403289 0 0.404072 0 0.404855 
0 0.405638 0 0.406421 0 0.407204 0 0.407987 0 
0.408771 0 0.409554 0 0.410337 0 0.41112 0 0.411903 
0 0.412686 0 0.413469 0 0.414252 0 0.415035 0 
0.415818 0 0.416601 0 0.417385 0 0.418168 0 0.418951 
0 0.419734 0 0.420517 0 0.4213 0 0.422083 0 
0.422866 0 0.423649 0 0.424432 0 0.425215 0 0.425998 
0 0.426782 0 0.427565 0 0.428348 0 0.429131 0 
0.429914 0 0.430697 0 0.43148 0 0.432263 0 0.433046 
0 0.433829 0 0.434612 0 0.435395 0 0.436179 0 
0.436962 0 0.437745 0 0.438528 0 0.439311 0 0.440094 
0 0.440877 0 0.44166 0 0.442443 0 0.443226 0 
0.444009 0 0.444792 0 0.445576 0 0.446359 0 0.447142 
0 0.447925 0 0.448708 0 0.449491 0 0.450274 0 
0.451057 0 0.45184 0 0.452623 0 0.453406 0 0.45419 
0 0.454973 0 0.455756 0 0.456539 0 0.457322 0 
0.458105 0 0.458888 0 0.459671 0 0.460454 0 0.461237 
0 0.46202 0 0.462803 0 0.463587 0 0.46437 0 
0.465153 0 0.465936 0 0.466719 0 0.467502 0 0.468285 
0 0.469068 0 0.469851 0 0.470634 0 0.471417 0 
0.4722 0 0.472984 0 0.473767 0 0.47455 0 0.475333 
0 0.476116 0 0.476899 0 0.477682 0 0.478465 0 
0.479248 0 0.480031 0 0.480814 0 0.481597 0 0.482381 
0 0.483164 0 0.483947 0 0.48473 0 0.485513 0 
0.486296 0 0.487079 0 0.487862 0 0.488645 0 0.489428 
0 0.490211 0 0.490995 0 0.491778 0 0.492561 0 
0.493344 0 0.494127 0 0.49491 0 0.495693 0 0.496476 
0 0.497259 0 0.498042 0 0.498825 0 0.499608 0 
0.500392 0 0.501175 0 0.501958 0 0.502741 0 0.503524 
0 0.504307 0 0.50509 0 0.505873 0 0.506656 0 
0.507439 0 0.508222 0 0.509005 0 0.509789 0 0.510572 
0 0.511355 0 0.512138 0 0.512921 0 0.513704 0 
0.514487 0 0.51527 0 0.516053 0 0.516836 0 0.517619 
0 0.518403 0 0.519186 0 0.519969 0 0.520752 0 
0.521535 0 0.522318 0 0.523101 0 0.523884 0 0.524667 
0 0.52545 0 0.526233 0 0.527016 0 0.5278 0 
0.528583 0 0.529366 0 0.530149 0 0.530932 0 0.531715 
0 0.532498 0 0.533281 0 0.534064 0 0.534847 0 
0.53563 0 0.536413 0 0.537197 0 0.53798 0 0.538763 
0 0.539546 0 0.540329 0 0.541112 0 0.541895 0 
0.542678 0 0.543461 0 0.544244 0 0.545027 0 0.545811 
0 0.546594 0 0.547377 0 0.54816 0 0.548943 0 
0.549726 0 0.550509 0 0.551292 0 0.552075 0 0.552858 
0 0.553641 0 0.554424 0 0.555207 0 0.555991 0 
0.556774 0 0.557557 0 0.55834 0 0.559123 0 0.559906 
0 0.560689 0 0.561472 0 0.562255 0 0.563038 0 
0.563821 0 0.564605 0 0.565388 0 0.566171 0 0.566954 
0 0.567737 0 0.56852 0 0.569303 0 0.570086 0 
0.570869 0 0.571652 0 0.572435 0 0.573218 0 0.574002 
0 0.574785 0 0.575568 0 0.576351 0 0.577134 0 
0.577917 0 0.5787 0 0.579483 0 0.580266 0 0.581049 
0 0.581832 0 0.582615 0 0.583399 0 0.584182 0 
0.584965 0 0.585748 0 0.586531 0 0.587314 0 0.588097 
0 0.58888 0 0.589663 0 0.590446 0 0.591229 0 
0.592013 0 0.592796 0 0.593579 0 0.594362 0 0.595145 
0 0.595928 0 0.596711 0 0.597494 0 0.598277 0 
0.59906 0 0.599843 0 0.600626 0 0.60141 0 0.602193 
0 0.602976 0 0.603759 0 0.604542 0 0.605325 0 
0.606108 0 0.606891 0 0.607674 0 0.608457 0 0.60924 
0 0.610023 0 0.610807 0 0.61159 0 0.612373 0 
0.613156 0 0.613939 0 0.614722 0 0.615505 0 0.616288 
0 0.617071 0 0.617854 0 0.618637 0 0.619421 0 
0.620204 0 0.620987 0 0.62177 0 0.622553 0 0.623336 
0 0.624119 0 0.624902 0 0.625685 0 0.626468 0 
0.627251 0 0.628034 0 0.628818 0 0.629601 0 0.630384 
0 0.631167 0 0.63195 0 0.632733 0 0.633516 0 
0.634299 0 0.635082 0 0.635865 0 0.636648 0 0.637432 
0 0.638215 0 0.638998 0 0.639781 0 0.640564 0 
0.641347 0 0.64213 0 0.642913 0 0.643696 0 0.644479 
0 0.645262 0 0.646045 0 0.646829 0 0.647612 0 
0.648395 0 0.649178 0 0.649961 0 0.650744 0 0.651527 
0 0.65231 0 0.653093 0 0.653876 0 0.654659 0 
0.655442 0 0.656226 0 0.657009 0 0.657792 0 0.658575 
0 0.659358 0 0.660141 0 0.660924 0 0.661707 0 
0.66249 0 0.663273 0 0.664056 0 0.664839 0 0.665623 
0 0.666406 0 0.667189 0 0.667972 0 0.668755 0 
0.669538 0 0.670321 0 0.671104 0 0.671887 0 0.67267 
0 0.673453 0 0.674236 0 0.67502 0 0.675803 0 
0.676586 0 0.677369 0 0.678152 0 0.678935 0 0.679718 
0 0.680501 0 0.681284 0 0.682067 0 0.68285 0 
0.683634 0 0.684417 0 0.6852 0 0.685983 0 0.686766 