# vtk DataFile Version 4.2
vtk output
ASCII
DATASET POLYDATA
POINTS 1276 float
0 0 0 -0.00285543 0.000338372 0.00291343 -0.0111821 0.00133374 0.0114113 
-0.0246207 0.0029565 0.0251299 -0.0428118 0.00517702 0.0437057 -0.0653961 0.00796568 0.0667749 
-0.0920141 0.0112929 0.093974 -0.122306 0.015129 0.124939 -0.155914 0.0194444 0.159307 
-0.192477 0.0242095 0.196714 -0.231636 0.0293946 0.236796 -0.273033 0.0349702 0.279189 
-0.316306 0.0409067 0.323531 -0.361098 0.0471743 0.369457 -0.407049 0.0537435 0.416604 
-0.453799 0.0605848 0.464607 -0.500989 0.0676683 0.513104 -0.548259 0.0749646 0.561731 
-0.595251 0.0824441 0.610124 -0.641605 0.090077 0.657919 -0.686961 0.0978339 0.704753 
-0.730961 0.105685 0.750263 -0.773369 0.11361 0.794208 -0.814247 0.121608 0.836647 
-0.853701 0.129683 0.87768 -0.891838 0.137838 0.917411 -0.928765 0.146076 0.95594 
-0.964587 0.154401 0.993369 -0.99941 0.162816 1.0298 -1.03334 0.171324 1.06533 
-1.06649 0.179928 1.10008 -1.09896 0.188632 1.13412 -1.13085 0.197438 1.16758 
-1.16228 0.206351 1.20055 -1.19334 0.215373 1.23313 -1.22416 0.224508 1.26542 
-1.25482 0.233758 1.29753 -1.28545 0.243128 1.32956 -1.31614 0.25262 1.3616 
-1.347 0.262237 1.39377 -1.37814 0.271984 1.42616 -1.40966 0.281862 1.45887 
-1.44161 0.291872 1.49195 -1.47397 0.302007 1.52537 -1.50672 0.312261 1.55911 
-1.53983 0.322629 1.59312 -1.57328 0.333105 1.6274 -1.60704 0.343681 1.6619 
-1.6411 0.354354 1.6966 -1.67542 0.365116 1.73147 -1.70998 0.375961 1.76648 
-1.74477 0.386884 1.8016 -1.77975 0.397879 1.83681 -1.8149 0.408939 1.87207 
-1.85019 0.420059 1.90736 -1.88561 0.431232 1.94264 -1.92114 0.442453 1.9779 
-1.95673 0.453716 2.01309 -1.99238 0.465014 2.0482 -2.02805 0.476342 2.0832 
-2.06373 0.487694 2.11804 -2.09939 0.499064 2.15272 -2.13502 0.510446 2.1872 
-2.17061 0.521834 2.22148 -2.20619 0.533223 2.25559 -2.24176 0.544609 2.28952 
-2.27732 0.555986 2.32327 -2.3129 0.567348 2.35686 -2.34849 0.578691 2.39029 
-2.38411 0.590009 2.42356 -2.41976 0.601297 2.45669 -2.45547 0.61255 2.48967 
-2.49122 0.623763 2.52252 -2.52705 0.634929 2.55524 -2.56295 0.646045 2.58784 
-2.59893 0.657104 2.62031 -2.635 0.668102 2.65268 -2.67118 0.679034 2.68494 
-2.70747 0.689893 2.7171 -2.74389 0.700675 2.74917 -2.78043 0.711375 2.78115 
-2.81711 0.721987 2.81306 -2.85394 0.732507 2.84488 -2.89092 0.742932 2.87663 
-2.92805 0.753259 2.9083 -2.96531 0.763487 2.9399 -3.00272 0.773615 2.97142 
-3.04025 0.783639 3.00286 -3.07792 0.793558 3.03422 -3.11572 0.803371 3.0655 
-3.15364 0.813075 3.0967 -3.19168 0.822668 3.12782 -3.22984 0.832148 3.15885 
-3.26811 0.841514 3.18981 -3.3065 0.850764 3.22067 -3.34499 0.859895 3.25145 
-3.38359 0.868905 3.28214 -3.42228 0.877794 3.31275 -3.46108 0.886558 3.34326 
-3.49996 0.895195 3.37369 -3.53894 0.903705 3.40403 -3.57801 0.912084 3.43427 
-3.61716 0.920332 3.46443 -3.65639 0.92845 3.49449 -3.6957 0.93644 3.52446 
-3.73508 0.944308 3.55436 -3.77454 0.952058 3.58417 -3.81406 0.959692 3.6139 
-3.85366 0.967216 3.64356 -3.89332 0.974632 3.67315 -3.93304 0.981945 3.70267 
-3.97282 0.989159 3.73213 -4.01266 0.996277 3.76153 -4.05256 1.0033 3.79087 
-4.0925 1.01024 3.82016 -4.1325 1.0171 3.84939 -4.17254 1.02387 3.87858 
-4.21263 1.03057 3.90773 -4.25275 1.0372 3.93683 -4.29292 1.04376 3.9659 
-4.33312 1.05025 3.99493 -4.37335 1.05669 4.02393 -4.41362 1.06306 4.05291 
-4.45391 1.06939 4.08186 -4.49423 1.07566 4.11078 -4.53458 1.08189 4.13969 
-4.57495 1.08808 4.16858 -4.61533 1.09423 4.19744 -4.65574 1.10034 4.22629 
-4.69617 1.10642 4.25513 -4.73661 1.11247 4.28395 -4.77706 1.1185 4.31276 
-4.81753 1.12451 4.34156 -4.858 1.1305 4.37035 -4.89849 1.13647 4.39914 
-4.93898 1.14243 4.42792 -4.97947 1.14839 4.45669 -5.01997 1.15434 4.48546 
-5.06047 1.16029 4.51423 -5.10097 1.16625 4.543 -5.14146 1.17221 4.57178 
-5.18195 1.17818 4.60056 -5.22243 1.18416 4.62934 -5.26291 1.19016 4.65813 
-5.30338 1.19618 4.68692 -5.34384 1.20221 4.71572 -5.38429 1.20826 4.74453 
-5.42474 1.21433 4.77334 -5.46518 1.2204 4.80215 -5.50562 1.2265 4.83097 
-5.54606 1.2326 4.85979 -5.58649 1.23872 4.88861 -5.62692 1.24485 4.91743 
-5.66734 1.25099 4.94625 -5.70777 1.25714 4.97507 -5.74819 1.26331 5.00389 
-5.78862 1.26948 5.0327 -5.82904 1.27567 5.06152 -5.86947 1.28186 5.09033 
-5.90989 1.28807 5.11914 -5.95032 1.29428 5.14794 -5.99076 1.3005 5.17674 
-6.03119 1.30672 5.20553 -6.07163 1.31296 5.23432 -6.11208 1.31919 5.26309 
-6.15253 1.32543 5.29186 -6.193 1.33166 5.3206 -6.23348 1.33787 5.34933 
-6.27398 1.34407 5.37804 -6.31451 1.35025 5.40672 -6.35505 1.3564 5.43538 
-6.39562 1.36252 5.464 -6.43623 1.36861 5.49259 -6.47686 1.37465 5.52114 
-6.51753 1.38065 5.54965 -6.55824 1.3866 5.57811 -6.59899 1.39249 5.60653 
-6.63979 1.39832 5.6349 -6.68063 1.40408 5.66321 -6.72152 1.40978 5.69147 
-6.76246 1.41539 5.71966 -6.80347 1.42093 5.7478 -6.84452 1.42638 5.77586 
-6.88565 1.43175 5.80386 -6.92683 1.43701 5.83178 -6.96809 1.44217 5.85962 
-7.00942 1.44721 5.88738 -7.05082 1.45212 5.91504 -7.09231 1.45689 5.9426 
-7.13389 1.46152 5.97006 -7.17556 1.46598 5.9974 -7.21732 1.47028 6.02463 
-7.25917 1.47441 6.05173 -7.30114 1.47834 6.0787 -7.34321 1.48207 6.10554 
-7.38539 1.4856 6.13223 -7.42768 1.48891 6.15877 -7.4701 1.49199 6.18516 
-7.51264 1.49483 6.21139 -7.55531 1.49742 6.23745 -7.59811 1.49975 6.26333 
-7.64104 1.50182 6.28904 -7.68412 1.50361 6.31455 -7.72734 1.5051 6.33988 
-7.77071 1.5063 6.365 -7.81422 1.50718 6.38992 -7.85788 1.50773 6.41461 
-7.90168 1.50794 6.43907 -7.94561 1.50779 6.4633 -7.98968 1.50726 6.48726 
-8.03387 1.50634 6.51097 -8.0782 1.50502 6.5344 -8.12265 1.50327 6.55755 
-8.16723 1.50109 6.5804 -8.21193 1.49847 6.60295 -8.25674 1.49537 6.62519 
-8.30167 1.4918 6.6471 -8.34671 1.48773 6.66867 -8.39186 1.48315 6.68989 
-8.43712 1.47805 6.71076 -8.48249 1.4724 6.73126 -8.52795 1.4662 6.75138 
-8.57352 1.45943 6.77112 -8.61918 1.45208 6.79045 -8.66493 1.44413 6.80938 
-8.71077 1.43557 6.82789 -8.75667 1.42642 6.846 -8.80262 1.41667 6.86369 
-8.84861 1.40633 6.88098 -8.89463 1.39538 6.89786 -8.94066 1.38384 6.91434 
-8.98669 1.3717 6.9304 -9.0327 1.35897 6.94606 -9.07868 1.34565 6.96132 
-9.12462 1.33174 6.97617 -9.1705 1.31723 6.99061 -9.21631 1.30213 7.00465 
-9.26203 1.28644 7.01828 -9.30766 1.27016 7.03151 -9.35317 1.2533 7.04434 
-9.39855 1.23584 7.05676 -9.4438 1.2178 7.06878 -9.48889 1.19917 7.0804 
-9.53382 1.17996 7.09162 -9.57856 1.16017 7.10244 -9.62312 1.1398 7.11287 
-9.66749 1.11888 7.12293 -9.71168 1.09742 7.13263 -9.75569 1.07544 7.14198 
-9.79951 1.05295 7.15102 -9.84314 1.02997 7.15974 -9.88659 1.00652 7.16817 
-9.92986 0.982622 7.17632 -9.97295 0.958282 7.18421 -10.0159 0.93352 7.19186 
-10.0586 0.908354 7.19928 -10.1011 0.8828 7.20648 -10.1435 0.856875 7.21349 
-10.1856 0.830596 7.22031 -10.2276 0.803979 7.22698 -10.2694 0.777042 7.23349 
-10.3111 0.7498 7.23987 -10.3525 0.722272 7.24613 -10.3938 0.694472 7.25229 
-10.4349 0.666419 7.25837 -10.4758 0.638126 7.26437 -10.5165 0.609605 7.27031 
-10.5571 0.580867 7.27619 -10.5975 0.551924 7.28202 -10.6378 0.522786 7.2878 
-10.678 0.493466 7.29355 -10.718 0.463973 7.29927 -10.7579 0.434321 7.30496 
-10.7977 0.404519 7.31065 -10.8373 0.374579 7.31632 -10.8769 0.344513 7.322 
-10.9164 0.314332 7.32768 -10.9558 0.284047 7.33337 -10.9951 0.253669 7.33909 
-11.0344 0.22321 7.34484 -11.0736 0.192681 7.35062 -11.1127 0.162094 7.35644 
-11.1518 0.131459 7.36232 -11.1909 0.100788 7.36825 -11.2299 0.0700918 7.37425 
-11.2689 0.0393817 7.38032 -11.3079 0.0086656 7.38645 -11.3469 -0.0220483 7.39264 
-11.3859 -0.0527519 7.39888 -11.4249 -0.0834372 7.40517 -11.4639 -0.114096 7.4115 
-11.5029 -0.14472 7.41786 -11.542 -0.175302 7.42425 -11.5811 -0.205833 7.43066 
-11.6202 -0.236305 7.43709 -11.6594 -0.26671 7.44353 -11.6987 -0.29704 7.44997 
-11.738 -0.327287 7.45641 -11.7774 -0.357442 7.46284 -11.8169 -0.387499 7.46925 
-11.8565 -0.417447 7.47565 -11.8961 -0.447281 7.48202 -11.9359 -0.476991 7.48836 
-11.9758 -0.506569 7.49466 -12.0158 -0.536007 7.50091 -12.056 -0.565297 7.50711 
-12.0962 -0.594432 7.51325 -12.1366 -0.623405 7.51929 -12.1772 -0.652208 7.52521 
-12.2179 -0.680834 7.531 -12.2587 -0.709276 7.53664 -12.2997 -0.737526 7.5421 
-12.3409 -0.765578 7.54735 -12.3822 -0.793424 7.55239 -12.4237 -0.821057 7.55718 
-12.4653 -0.848469 7.56171 -12.5071 -0.875653 7.56595 -12.5491 -0.902603 7.56989 
-12.5913 -0.929311 7.57349 -12.6337 -0.955769 7.57674 -12.6763 -0.981971 7.57962 
-12.719 -1.00791 7.58211 -12.762 -1.03358 7.58418 -12.8051 -1.05896 7.58581 
-12.8485 -1.08407 7.58699 -12.8921 -1.10888 7.58768 -12.9359 -1.13339 7.58788 
-12.9799 -1.1576 7.58756 -13.0241 -1.18151 7.58672 -13.0684 -1.20512 7.58534 
-13.1129 -1.22841 7.58341 -13.1575 -1.2514 7.58091 -13.2022 -1.27407 7.57782 
-13.2471 -1.29642 7.57415 -13.292 -1.31845 7.56986 -13.3371 -1.34017 7.56495 
-13.3822 -1.36155 7.5594 -13.4273 -1.38261 7.5532 -13.4725 -1.40334 7.54634 
-13.5178 -1.42373 7.5388 -13.563 -1.44379 7.53056 -13.6082 -1.4635 7.52162 
-13.6535 -1.48288 7.51195 -13.6987 -1.50191 7.50155 -13.7438 -1.52059 7.4904 
-13.7889 -1.53892 7.47849 -13.834 -1.55691 7.46581 -13.8789 -1.57455 7.45238 
-13.9238 -1.59187 7.4382 -13.9685 -1.60887 7.42329 -14.0132 -1.62556 7.40766 
-14.0577 -1.64195 7.39132 -14.1021 -1.65805 7.37428 -14.1463 -1.67387 7.35655 
-14.1903 -1.68942 7.33815 -14.2342 -1.70471 7.31909 -14.2779 -1.71975 7.29937 
-14.3214 -1.73455 7.27901 -14.3647 -1.74912 7.25803 -14.4077 -1.76348 7.23642 
-14.4505 -1.77762 7.21421 -14.4931 -1.79156 7.19141 -14.5354 -1.8053 7.16802 
-14.5775 -1.81887 7.14406 -14.6192 -1.83227 7.11954 -14.6607 -1.8455 7.09447 
-14.7018 -1.85859 7.06887 -14.7427 -1.87153 7.04274 -14.7832 -1.88435 7.01609 
-14.8234 -1.89704 6.98893 -14.8633 -1.90963 6.96128 -14.9029 -1.92212 6.93314 
-14.9421 -1.93452 6.90452 -14.9811 -1.94685 6.87544 -15.0197 -1.95912 6.8459 
-15.0579 -1.97132 6.81592 -15.0958 -1.98349 6.7855 -15.1334 -1.99562 6.75465 
-15.1707 -2.00774 6.72339 -15.2076 -2.01984 6.69172 -15.2442 -2.03194 6.65966 
[...]
CELL_DATA 1
FIELD FieldData 2
Length 1 1 double
63.793585831 
Tortuosity 1 1 double
1.4114046091 
POINT_DATA 1276
SCALARS MaximumInscribedSphereRadius float
LOOKUP_TABLE default
0.93 0.940074 0.950148 0.960222 0.970296 0.98037 0.990444 1.00052 1.01059 
1.02067 1.03074 1.04081 1.05089 1.06096 1.07104 1.08111 1.09118 1.10126 
1.11133 1.12141 1.13148 1.13966 1.13871 1.13777 1.13682 1.13588 1.13493 
1.13399 1.13304 1.1321 1.13116 1.13021 1.12927 1.12832 1.12738 1.12643 
1.12549 1.12454 1.1236 1.12265 1.12171 1.11756 1.10917 1.10078 1.09239 
1.08399 1.0756 1.06721 1.05882 1.05043 1.04203 1.03364 1.02525 1.01686 
1.00847 1.00007 0.991682 0.98329 0.974899 0.966507 0.958115 0.950971 0.949929 
0.948886 0.947844 0.946802 0.945759 0.944717 0.943674 0.942632 0.94159 0.940547 
0.939505 0.938463 0.93742 0.936378 0.935336 0.934293 0.933251 0.932209 0.931166 
0.930124 0.93 0.93 0.93 0.93 0.93 0.93 0.93 0.93 
0.93 0.93 0.93 0.93 0.93 0.93 0.93 0.93 0.93 
0.93 0.93 0.93 0.926455 0.920571 0.914687 0.908803 0.902919 0.897035 
0.89115 0.885266 0.879382 0.873498 0.867614 0.86173 0.855846 0.849962 0.844078 
0.838194 0.83231 0.826426 0.820542 0.814657 0.808828 0.803114 0.797399 0.791685 
0.78597 0.780256 0.774541 0.768827 0.763112 0.757398 0.751683 0.745969 0.740254 
0.73454 0.728825 0.723111 0.717396 0.711682 0.705967 0.700253 0.695101 0.702684 
0.710267 0.717851 0.725434 0.733017 0.7406 0.748184 0.755767 0.76335 0.770933 
0.778516 0.7861 0.793683 0.801266 0.808849 0.816433 0.824016 0.831599 0.839182 
0.846765 0.845964 0.842534 0.839104 0.835674 0.832244 0.828814 0.825384 0.821954 
0.818525 0.815095 0.811665 0.808235 0.804805 0.801375 0.797945 0.794516 0.791086 
0.787656 0.784226 0.780796 0.776742 0.772013 0.767283 0.762554 0.757825 0.753096 
0.748367 0.743638 0.738909 0.73418 0.729451 0.724722 0.719992 0.715263 0.710534 
0.705805 0.701076 0.696347 0.691618 0.686889 0.685037 0.69436 0.703682 0.713005 
0.722328 0.73165 0.740973 0.750296 0.759619 0.768941 0.778264 0.787587 0.79691 
0.806232 0.815555 0.824878 0.8342 0.843523 0.852846 0.862169 0.871491 0.865975 
0.859622 0.853269 0.846916 0.840563 0.83421 0.827857 0.821504 0.815151 0.808798 
0.802445 0.796092 0.789739 0.783387 0.777034 0.770681 0.764328 0.757975 0.751622 
0.745269 0.757922 0.778229 0.798536 0.818842 0.839149 0.859456 0.879762 0.900069 
0.920375 0.940682 0.960989 0.981295 1.0016 1.02191 1.04222 1.06252 1.08283 
1.10313 1.12344 1.14375 1.16009 1.1716 1.18311 1.19462 1.20612 1.21763 
1.22914 1.24065 1.25216 1.26366 1.27517 1.28668 1.29819 1.3097 1.3212 
1.33271 1.34422 1.35573 1.36723 1.37874 1.38505 1.36616 1.34727 1.32838 
1.30949 1.2906 1.27171 1.25282 1.23393 1.21504 1.19615 1.17726 1.15837 
1.13948 1.12059 1.1017 1.08281 1.06392 1.04503 1.02614 1.00725 1.01463 
1.02522 1.03581 1.04641 1.057 1.0676 1.07819 1.08878 1.09938 1.10997 
1.12056 1.13116 1.14175 1.15234 1.16294 1.17353 1.18412 1.19472 1.20531 
1.21591 1.22672 1.23767 1.24862 1.25957 1.27052 1.28147 1.29243 1.30338 
1.31433 1.32528 1.33623 1.34718 1.35813 1.36908 1.38003 1.39098 1.40194 
1.41289 1.42384 1.43479 1.44011 1.4364 1.4327 1.42899 1.42529 1.42158 
1.41788 1.41417 1.41047 1.40677 1.40306 1.39936 1.39565 1.39195 1.38824 
1.38454 1.38083 1.37713 1.37342 1.36972 1.36399 1.3465 1.329 1.31151 
1.29401 1.27652 1.25903 1.24153 1.22404 1.20654 1.18905 1.17156 1.15406 
1.13657 1.11907 1.10158 1.08409 1.06659 1.0491 1.0316 1.01411 1.04584 
1.08378 1.12171 1.15965 1.19759 1.23552 1.27346 1.3114 1.34934 1.38727 
1.42521 1.46315 1.50109 1.53902 1.57696 1.6149 1.65283 1.69077 1.72871 
1.76665 1.79147 1.80875 1.82602 1.84329 1.86057 1.87784 1.89512 1.91239 
1.92966 1.94694 1.96421 1.98149 1.99876 2.01603 2.03331 2.05058 2.06786 
2.08513 2.1024 2.11968 2.12488 2.11486 2.10485 2.09483 2.08482 2.0748 
2.06478 2.05477 2.04475 2.03474 2.02472 2.0147 2.00469 1.99467 1.98466 
1.97464 1.96462 1.95461 1.94459 1.93458 1.92196 1.90333 1.88469 1.86606 
1.84742 1.82879 1.81015 1.79151 1.77288 1.75424 1.73561 1.71697 1.69834 
1.6797 1.66107 1.64243 1.62379 1.60516 1.58652 1.56789 1.55 1.55004 
1.55008 1.55011 1.55015 1.55019 1.55023 1.55026 1.5503 1.55034 1.55038 
1.55041 1.55045 1.55049 1.55053 1.55056 1.5506 1.55064 1.55068 1.55071 
1.55075 1.55671 1.56451 1.5723 1.5801 1.5879 1.5957 1.6035 1.61129 
1.61909 1.62689 1.63469 1.64249 1.65028 1.65808 1.66588 1.67368 1.68147 
1.68927 1.69707 1.70487 1.71571 1.72971 1.74371 1.75772 1.77172 1.78572 
1.79972 1.81372 1.82772 1.84173 1.85573 1.86973 1.88373 1.89773 1.91173 
1.92574 1.93974 1.95374 1.96774 1.98174 1.99478 2.00425 2.01371 2.02318 
2.03265 2.04212 2.05159 2.06106 2.07052 2.07999 2.08946 2.09893 2.1084 
2.11786 2.12733 2.1368 2.14627 2.15574 2.1652 2.17467 2.17554 2.16867 
2.16179 2.15491 2.14803 2.14116 2.13428 2.1274 2.12052 2.11365 2.10677 
2.09989 2.09301 2.08614 2.07926 2.07238 2.06551 2.05863 2.05175 2.04487 
2.03708 2.02737 2.01766 2.00795 1.99824 1.98853 1.97882 1.96911 1.9594 
1.94969 1.93998 1.93027 1.92056 1.91085 1.90114 1.89143 1.88172 1.87201 
1.8623 1.85259 1.84409 1.84778 1.85147 1.85515 1.85884 1.86252 1.86621 
1.8699 1.87358 1.87727 1.88096 1.88464 1.88833 1.89202 1.8957 1.89939 
1.90308 1.90676 1.91045 1.91413 1.91782 1.92757 1.93792 1.94827 1.95862 
1.96896 1.97931 1.98966 2.00001 2.01035 2.0207 2.03105 2.0414 2.05174 
2.06209 2.07244 2.08279 2.09313 2.10348 2.11383 2.12418 2.11908 2.10658 
2.09407 2.08157 2.06907 2.05657 2.04407 2.03156 2.01906 2.00656 1.99406 
1.98156 1.96905 1.95655 1.94405 1.93155 1.91905 1.90654 1.89404 1.88154 
1.86978 1.859 1.84822 1.83744 1.82666 1.81588 1.8051 1.79432 1.78354 
1.77276 1.76198 1.7512 1.74042 1.72964 1.71886 1.70808 1.6973 1.68652 
1.67574 1.66496 1.65557 1.65102 1.64647 1.64192 1.63737 1.63282 1.62827 
1.62372 1.61918 1.61463 1.61008 1.60553 1.60098 1.59643 1.59188 1.58733 
1.58279 1.57824 1.57369 1.56914 1.56481 1.57266 1.58052 1.58838 1.59623 
1.60409 1.61195 1.6198 1.62766 1.63552 1.64337 1.65123 1.65909 1.66694 
1.6748 1.68266 1.69051 1.69837 1.70623 1.71408 1.72194 1.74012 1.76082 
1.78152 1.80222 1.82292 1.84362 1.86432 1.88502 1.90572 1.92641 1.94711 
1.96781 1.98851 2.00921 2.02991 2.05061 2.07131 2.09201 2.1127 2.1334 
2.1427 2.14518 2.14766 2.15015 2.15263 2.15511 2.15759 2.16007 2.16255 
2.16503 2.16751 2.16999 2.17248 2.17496 2.17744 2.17992 2.1824 2.18488 
2.18736 2.18984 2.19096 2.19115 2.19135 2.19155 2.19174 2.19194 2.19214 
2.19233 2.19253 2.19273 2.19292 2.19312 2.19331 2.19351 2.19371 2.1939 
2.1941 2.1943 2.19449 2.19469 2.19562 2.19749 2.19937 2.20124 2.20311 
2.20499 2.20686 2.20873 2.2106 2.21248 2.21435 2.21622 2.2181 2.21997 
2.22184 2.22371 2.22559 2.22746 2.22933 2.23121 2.23078 2.21913 2.20749 
2.19584 2.18419 2.17254 2.1609 2.14925 2.1376 2.12596 2.11431 2.10266 
2.09101 2.07937 2.06772 2.05607 2.04443 2.03278 2.02113 2.00948 1.99784 
1.98223 1.96616 1.9501 1.93404 1.91798 1.90192 1.88586 1.8698 1.85373 
1.83767 1.82161 1.80555 1.78949 1.77343 1.75737 1.7413 1.72524 1.70918 
1.69312 1.67706 1.67979 1.69181 1.70382 1.71583 1.72785 1.73986 1.75188 
1.76389 1.7759 1.78792 1.79993 1.81194 1.82396 1.83597 1.84799 1.86 
1.87201 1.88403 1.89604 1.90805 1.90608 1.88594 1.86581 1.84567 1.82554 
1.80541 1.78527 1.76514 1.745 1.72487 1.70473 1.6846 1.66447 1.64433 
1.6242 1.60406 1.58393 1.56379 1.54366 1.52353 1.50541 1.49708 1.48875 
1.48042 1.47209 1.46376 1.45543 1.4471 1.43877 1.43044 1.42211 1.41378 
1.40545 1.39712 1.38879 1.38046 1.37213 1.36379 1.35546 1.34713 1.3388 
1.34731 1.35781 1.36831 1.37881 1.38931 1.3998 1.4103 1.4208 1.4313 
1.4418 1.4523 1.4628 1.4733 1.4838 1.4943 1.5048 1.5153 1.5258 
1.5363 1.5468 1.55737 1.56799 1.57861 1.58923 1.59985 1.61047 1.62109 
1.63171 1.64233 1.65295 1.66356 1.67418 1.6848 1.69542 1.70604 1.71666 
1.72728 1.7379 1.74852 1.75914 1.76771 1.77234 1.77698 1.78161 1.78624 
1.79087 1.79551 1.80014 1.80477 1.8094 1.81404 1.81867 1.8233 1.82794 
1.83257 1.8372 1.84183 1.84647 1.8511 1.85573 1.85913 1.84808 1.83703 
1.82598 1.81492 1.80387 1.79282 1.78177 1.77072 1.75966 1.74861 1.73756 
1.72651 1.71546 1.7044 1.69335 1.6823 1.67125 1.6602 1.64914 1.63809 
1.61573 1.59106 1.56638 1.54171 1.51703 1.49236 1.46768 1.443 1.41833 
1.39365 1.36898 1.3443 1.31963 1.29495 1.27027 1.2456 1.22092 1.19625 
1.17157 1.1469 1.15006 1.17358 1.1971 1.22063 1.24415 1.26768 1.2912 
1.31472 1.33825 1.36177 1.3853 1.40882 1.43235 1.45587 1.47939 1.50292 
1.52644 1.54997 1.57349 1.59702 1.61925 1.63861 1.65797 1.67734 1.6967 
1.71606 1.73542 1.75479 1.77415 1.79351 1.81287 1.83223 1.8516 1.87096 
1.89032 1.90968 1.92904 1.94841 1.96777 1.98713 2.00592 2.00846 2.01099 
2.01353 2.01607 2.01861 2.02115 2.02368 2.02622 2.02876 2.0313 2.03384 
2.03638 2.03891 2.04145 2.04399 2.04653 2.04907 2.0516 2.05414 2.05668 
2.04107 2.0196 1.99812 1.97665 1.95517 1.9337 1.91223 1.89075 1.86928 
1.84781 1.82633 1.80486 1.78338 1.76191 1.74044 1.71896 1.69749 1.67602 
1.65454 1.63307 1.62909 1.64443 1.65976 1.6751 1.69044 1.70577 1.72111 
1.73645 1.75179 1.76712 1.78246 1.7978 1.81314 1.82847 1.84381 1.85915 
1.87448 1.88982 1.90516 1.9205 1.93413 1.94071 1.9473 1.95389 1.96048 
1.96707 1.97366 1.98025 1.98684 1.99342 2.00001 2.0066 2.01319 2.01978 
2.02637 2.03296 2.03955 2.04613 2.05272 2.05931 2.0659 2.06241 2.05799 
2.05356 2.04914 2.04471 2.04029 2.03587 2.03144 2.02702 2.02259 2.01817 
2.01375 2.00932 2.0049 2.00047 1.99605 1.99162 1.9872 1.98278 1.97835 
1.98824 2.00624 2.02425 2.04225 2.06025 2.07826 2.09626 2.11426 2.13227 
2.15027 2.16828 2.18628 2.20428 2.22229 2.24029 2.25829 2.2763 2.2943 
2.31231 2.33031 2.34576 2.35675 2.36774 2.37873 2.38972 2.40071 2.4117 
2.42269 2.43368 2.44467 2.45566 2.46665 2.47764 2.48863 2.49962 2.51061 
2.5216 2.53259 2.54358 2.55457 2.56468 2.56651 2.56833 2.57016 2.57198 
2.57381 2.57563 2.57746 2.57928 2.58111 2.58293 2.58475 2.58658 2.5884 
2.59023 2.59205 2.59388 2.5957 2.59753 2.59935 2.60118 2.59221 2.58118 
2.57014 2.5591 2.54806 2.53702 2.52598 2.51495 2.50391 2.49287 2.48183 
2.47079 2.45975 2.44872 2.43768 2.42664 2.4156 2.40456 2.39352 2.38248 
2.36031 2.33098 2.30165 2.27232 2.24299 2.21366 2.18433 2.155 2.12568 
2.09635 2.06702 2.03769 2.00836 1.97903 1.9497 1.92038 1.89105 1.86172 
1.83239 1.80306 1.78544 1.78019 1.77495 1.7697 1.76446 1.75921 1.75397 
1.74872 1.74348 1.73823 1.73299 1.72774 1.72249 1.71725 1.712 1.70676 
1.70151 1.69627 1.69102 1.68578 1.69132 1.69976 1.70819 1.71663 1.72506 
1.73349 1.74193 1.75036 1.75879 1.76723 1.77566 1.7841 1.79253 1.80096 
1.8094 1.81783 1.82626 1.8347 1.84313 1.85157 1.86 
TEXTURE_COORDINATES TCoords 2 float
0 0 0.000784314 0 0.00156863 0 0.00235294 0 0.00313725 
0 0.00392157 0 0.00470588 0 0.0054902 0 0.00627451 0 
0.00705882 0 0.00784314 0 0.00862745 0 0.00941176 0 0.0101961 
0 0.0109804 0 0.0117647 0 0.012549 0 0.0133333 0 
0.0141176 0 0.014902 0 0.0156863 0 0.0164706 0 0.0172549 
0 0.0180392 0 0.0188235 0 0.0196078 0 0.0203922 0 
0.0211765 0 0.0219608 0 0.0227451 0 0.0235294 0 0.0243137 
0 0.025098 0 0.0258824 0 0.0266667 0 0.027451 0 
0.0282353 0 0.0290196 0 0.0298039 0 0.0305882 0 0.0313726 
0 0.0321569 0 0.0329412 0 0.0337255 0 0.0345098 0 
0.0352941 0 0.0360784 0 0.0368627 0 0.0376471 0 0.0384314 
0 0.0392157 0 0.04 0 0.0407843 0 0.0415686 0 
0.0423529 0 0.0431373 0 0.0439216 0 0.0447059 0 0.0454902 
0 0.0462745 0 0.0470588 0 0.0478431 0 0.0486275 0 
0.0494118 0 0.0501961 0 0.0509804 0 0.0517647 0 0.052549 
0 0.0533333 0 0.0541176 0 0.054902 0 0.0556863 0 
0.0564706 0 0.0572549 0 0.0580392 0 0.0588235 0 0.0596078 
0 0.0603922 0 0.0611765 0 0.0619608 0 0.0627451 0 
0.0635294 0 0.0643137 0 0.065098 0 0.0658824 0 0.0666667 
0 0.067451 0 0.0682353 0 0.0690196 0 0.0698039 0 
0.0705882 0 0.0713725 0 0.0721569 0 0.0729412 0 0.0737255 
0 0.0745098 0 0.0752941 0 0.0760784 0 0.0768627 0 
0.0776471 0 0.0784314 0 0.0792157 0 0.08 0 0.0807843 
0 0.0815686 0 0.0823529 0 0.0831373 0 0.0839216 0 
0.0847059 0 0.0854902 0 0.0862745 0 0.0870588 0 0.0878431 
0 0.0886275 0 0.0894118 0 0.0901961 0 0.0909804 0 
0.0917647 0 0.092549 0 0.0933333 0 0.0941176 0 0.094902 
0 0.0956863 0 0.0964706 0 0.0972549 0 0.0980392 0 
0.0988235 0 0.0996078 0 0.100392 0 0.101176 0 0.101961 
0 0.102745 0 0.103529 0 0.104314 0 0.105098 0 
0.105882 0 0.106667 0 0.107451 0 0.108235 0 0.10902 
0 0.109804 0 0.110588 0 0.111373 0 0.112157 0 
0.112941 0 0.113725 0 0.11451 0 0.115294 0 0.116078 
0 0.116863 0 0.117647 0 0.118431 0 0.119216 0 
0.12 0 0.120784 0 0.121569 0 0.122353 0 0.123137 
0 0.123922 0 0.124706 0 0.12549 0 0.126275 0 
0.127059 0 0.127843 0 0.128627 0 0.129412 0 0.130196 
0 0.13098 0 0.131765 0 0.132549 0 0.133333 0 
0.134118 0 0.134902 0 0.135686 0 0.136471 0 0.137255 
0 0.138039 0 0.138824 0 0.139608 0 0.140392 0 
0.141176 0 0.141961 0 0.142745 0 0.143529 0 0.144314 
0 0.145098 0 0.145882 0 0.146667 0 0.147451 0 
0.148235 0 0.14902 0 0.149804 0 0.150588 0 0.151373 
0 0.152157 0 0.152941 0 0.153725 0 0.15451 0 
0.155294 0 0.156078 0 0.156863 0 0.157647 0 0.158431 
0 0.159216 0 0.16 0 0.160784 0 0.161569 0 
0.162353 0 0.163137 0 0.163922 0 0.164706 0 0.16549 
0 0.166275 0 0.167059 0 0.167843 0 0.168627 0 
0.169412 0 0.170196 0 0.17098 0 0.171765 0 0.172549 
0 0.173333 0 0.174118 0 0.174902 0 0.175686 0 
0.176471 0 0.177255 0 0.178039 0 0.178824 0 0.179608 
0 0.180392 0 0.181176 0 0.181961 0 0.182745 0 
0.183529 0 0.184314 0 0.185098 0 0.185882 0 0.186667 
0 0.187451 0 0.188235 0 0.18902 0 0.189804 0 
0.190588 0 0.191373 0 0.192157 0 0.192941 0 0.193725 
0 0.19451 0 0.195294 0 0.196078 0 0.196863 0 
0.197647 0 0.198431 0 0.199216 0 0.2 0 0.200784 
0 0.201569 0 0.202353 0 0.203137 0 0.203922 0 
0.204706 0 0.20549 0 0.206275 0 0.207059 0 0.207843 
0 0.208627 0 0.209412 0 0.210196 0 0.21098 0 
0.211765 0 0.212549 0 0.213333 0 0.214118 0 0.214902 
0 0.215686 0 0.216471 0 0.217255 0 0.218039 0 
0.218824 0 0.219608 0 0.220392 0 0.221176 0 0.221961 
0 0.222745 0 0.223529 0 0.224314 0 0.225098 0 
0.225882 0 0.226667 0 0.227451 0 0.228235 0 0.22902 
0 0.229804 0 0.230588 0 0.231373 0 0.232157 0 
0.232941 0 0.233725 0 0.23451 0 0.235294 0 0.236078 
0 0.236863 0 0.237647 0 0.238431 0 0.239216 0 
0.24 0 0.240784 0 0.241569 0 0.242353 0 0.243137 
0 0.243922 0 0.244706 0 0.24549 0 0.246275 0 
0.247059 0 0.247843 0 0.248627 0 0.249412 0 0.250196 
0 0.25098 0 0.251765 0 0.252549 0 0.253333 0 
0.254118 0 0.254902 0 0.255686 0 0.256471 0 0.257255 
0 0.258039 0 0.258824 0 0.259608 0 0.260392 0 
0.261176 0 0.261961 0 0.262745 0 0.263529 0 0.264314 
0 0.265098 0 0.265882 0 0.266667 0 0.267451 0 
0.268235 0 0.26902 0 0.269804 0 0.270588 0 0.271373 
0 0.272157 0 0.272941 0 0.273725 0 0.27451 0 
0.275294 0 0.276078 0 0.276863 0 0.277647 0 0.278431 
0 0.279216 0 0.28 0 0.280784 0 0.281569 0 
0.282353 0 0.283137 0 0.283922 0 0.284706 0 0.28549 
0 0.286275 0 0.287059 0 0.287843 0 0.288627 0 
0.289412 0 0.290196 0 0.29098 0 0.291765 0 0.292549 
0 0.293333 0 0.294118 0 0.294902 0 0.295686 0 
0.296471 0 0.297255 0 0.298039 0 0.298824 0 0.299608 
0 0.300392 0 0.301176 0 0.301961 0 0.302745 0 
0.303529 0 0.304314 0 0.305098 0 0.305882 0 0.306667 
0 0.307451 0 0.308235 0 0.30902 0 0.309804 0 
0.310588 0 0.311373 0 0.312157 0 0.312941 0 0.313726 
0 0.31451 0 0.315294 0 0.316078 0 0.316863 0 
0.317647 0 0.318431 0 0.319216 0 0.32 0 0.320784 
0 0.321569 0 0.322353 0 0.323137 0 0.323922 0 
0.324706 0 0.32549 0 0.326275 0 0.327059 0 0.327843 
0 0.328627 0 0.329412 0 0.330196 0 0.33098 0 
0.331765 0 0.332549 0 0.333333 0 0.334118 0 0.334902 
0 0.335686 0 0.336471 0 0.337255 0 0.338039 0 
0.338824 0 0.339608 0 0.340392 0 0.341176 0 0.341961 
0 0.342745 0 0.343529 0 0.344314 0 0.345098 0 
0.345882 0 0.346667 0 0.347451 0 0.348235 0 0.34902 
0 0.349804 0 0.350588 0 0.351373 0 0.352157 0 
0.352941 0 0.353725 0 0.35451 0 0.355294 0 0.356078 
0 0.356863 0 0.357647 0 0.358431 0 0.359216 0 
0.36 0 0.360784 0 0.361569 0 0.362353 0 0.363137 
0 0.363922 0 0.364706 0 0.36549 0 0.366275 0 
0.367059 0 0.367843 0 0.368627 0 0.369412 0 0.370196 
0 0.37098 0 0.371765 0 0.372549 0 0.373333 0 
0.374118 0 0.374902 0 0.375686 0 0.376471 0 0.377255 
0 0.378039 0 0.378824 0 0.379608 0 0.380392 0 
0.381176 0 0.381961 0 0.382745 0 0.383529 0 0.384314 
0 0.385098 0 0.385882 0 0.386667 0 0.387451 0 
0.388235 0 0.38902 0 0.389804 0 0.390588 0 0.391373 
0 0.392157 0 0.392941 0 0.393725 0 0.39451 0 
0.395294 0 0.396078 0 0.396863 0 0.397647 0 0.398431 
0 0.399216 0 0.4 0 0.400784 0 0.401569 0 
0.402353 0 0.403137 0 0.403922 0 0.404706 0 0.40549 
0 0.406274 0 0.407059 0 0.407843 0 0.408627 0 
0.409412 0 0.410196 0 0.41098 0 0.411765 0 0.412549 
0 0.413333 0 0.414118 0 0.414902 0 0.415686 0 
0.416471 0 0.417255 0 0.418039 0 0.418824 0 0.419608 
0 0.420392 0 0.421176 0 0.421961 0 0.422745 0 
0.423529 0 0.424314 0 0.425098 0 0.425882 0 0.426667 
0 0.427451 0 0.428235 0 0.42902 0 0.429804 0 
0.430588 0 0.431373 0 0.432157 0 0.432941 0 0.433725 
0 0.43451 0 0.435294 0 0.436078 0 0.436863 0 
0.437647 0 0.438431 0 0.439216 0 0.44 0 0.440784 
0 0.441569 0 0.442353 0 0.443137 0 0.443922 0 
0.444706 0 0.44549 0 0.446275 0 0.447059 0 0.447843 
0 0.448627 0 0.449412 0 0.450196 0 0.45098 0 
0.451765 0 0.452549 0 0.453333 0 0.454118 0 0.454902 
0 0.455686 0 0.456471 0 0.457255 0 0.458039 0 
0.458824 0 0.459608 0 0.460392 0 0.461176 0 0.461961 
0 0.462745 0 0.463529 0 0.464314 0 0.465098 0 
0.465882 0 0.466667 0 0.467451 0 0.468235 0 0.46902 
0 0.469804 0 0.470588 0 0.471373 0 0.472157 0 
0.472941 0 0.473725 0 0.47451 0 0.475294 0 0.476078 
0 0.476863 0 0.477647 0 0.478431 0 0.479216 0 
0.48 0 0.480784 0 0.481569 0 0.482353 0 0.483137 
0 0.483922 0 0.484706 0 0.48549 0 0.486275 0 
0.487059 0 0.487843 0 0.488627 0 0.489412 0 0.490196 
0 0.49098 0 0.491765 0 0.492549 0 0.493333 0 
0.494118 0 0.494902 0 0.495686 0 0.496471 0 0.497255 
0 0.498039 0 0.498824 0 0.499608 0 0.500392 0 
0.501176 0 0.501961 0 0.502745 0 0.503529 0 0.504314 
0 0.505098 0 0.505882 0 0.506667 0 0.507451 0 
0.508235 0 0.50902 0 0.509804 0 0.510588 0 0.511373 
0 0.512157 0 0.512941 0 0.513726 0 0.51451 0 
0.515294 0 0.516078 0 0.516863 0 0.517647 0 0.518431 
0 0.519216 0 0.52 0 0.520784 0 0.521569 0 
0.522353 0 0.523137 0 0.523922 0 0.524706 0 0.52549 
0 0.526275 0 0.527059 0 0.527843 0 0.528627 0 
0.529412 0 0.530196 0 0.53098 0 0.531765 0 0.532549 
0 0.533333 0 0.534118 0 0.534902 0 0.535686 0 
0.536471 0 0.537255 0 0.538039 0 0.538824 0 0.539608 
0 0.540392 0 0.541176 0 0.541961 0 0.542745 0 
0.543529 0 0.544314 0 0.545098 0 0.545882 0 0.546667 
0 0.547451 0 0.548235 0 0.54902 0 0.549804 0 
0.550588 0 0.551373 0 0.552157 0 0.552941 0 0.553725 
0 0.55451 0 0.555294 0 0.556078 0 0.556863 0 
0.557647 0 0.558431 0 0.559216 0 0.56 0 0.560784 
0 0.561569 0 0.562353 0 0.563137 0 0.563922 0 
0.564706 0 0.56549 0 0.566275 0 0.567059 0 0.567843 
0 0.568627 0 0.569412 0 0.570196 0 0.57098 0 
0.571765 0 0.572549 0 0.573333 0 0.574118 0 0.574902 
0 0.575686 0 0.576471 0 0.577255 0 0.578039 0 
0.578824 0 0.579608 0 0.580392 0 0.581176 0 0.581961 
0 0.582745 0 0.583529 0 0.584314 0 0.585098 0 
0.585882 0 0.586667 0 0.587451 0 0.588235 0 0.58902 
0 0.589804 0 0.590588 0 0.591373 0 0.592157 0 
0.592941 0 0.593726 0 0.59451 0 0.595294 0 0.596078 
0 0.596863 0 0.597647 0 0.598431 0 0.599216 0 
0.6 0 0.600784 0 0.601569 0 0.602353 0 0.603137 
0 0.603922 0 0.604706 0 0.60549 0 0.606274 0 
0.607059 0 0.607843 0 0.608627 0 0.609412 0 0.610196 
0 0.61098 0 0.611765 0 0.612549 0 0.613333 0 
0.614118 0 0.614902 0 0.615686 0 0.616471 0 0.617255 
0 0.618039 0 0.618824 0 0.619608 0 0.620392 0 
0.621176 0 0.621961 0 0.622745 0 0.623529 0 0.624314 
0 0.625098 0 0.625882 0 0.626667 0 0.627451 0 
0.628235 0 0.62902 0 0.629804 0 0.630588 0 0.631373 
0 0.632157 0 0.632941 0 0.633725 0 0.63451 0 
0.635294 0 0.636078 0 0.636863 0 0.637647 0 0.638431 
0 0.639216 0 0.64 0 0.640784 0 0.641569 0 
0.642353 0 0.643137 0 0.643922 0 0.644706 0 0.64549 
0 0.646275 0 0.647059 0 0.647843 0 0.648627 0 
0.649412 0 0.650196 0 0.65098 0 0.651765 0 0.652549 
0 0.653333 0 0.654118 0 0.654902 0 0.655686 0 
0.656471 0 0.657255 0 0.658039 0 0.658824 0 0.659608 