# vtk DataFile Version 4.2
vtk output
ASCII
DATASET POLYDATA
POINTS 1279 float
0 0 0 -0.00153463 0.0021031 0.00341999 -0.00599887 0.00823439 0.0133799 
-0.0131832 0.0181268 0.0294296 -0.0228783 0.0315134 0.051119 -0.0348745 0.048127 0.077998 
-0.0489624 0.0677007 0.109617 -0.0649325 0.0899673 0.145524 -0.0825754 0.11466 0.185272 
-0.101682 0.141512 0.228408 -0.122041 0.170255 0.274483 -0.143446 0.200623 0.323048 
-0.165685 0.23235 0.373651 -0.188549 0.265167 0.425843 -0.211829 0.298807 0.479173 
-0.235316 0.333005 0.533192 -0.2588 0.367492 0.58745 -0.282071 0.402002 0.641496 
-0.30492 0.436267 0.69488 -0.327138 0.470021 0.747152 -0.348516 0.502999 0.797867 
-0.368952 0.53507 0.846802 -0.388483 0.566281 0.894042 -0.407158 0.596698 0.939697 
-0.425027 0.626384 0.983875 -0.442138 0.655402 1.02668 -0.458541 0.683816 1.06823 
-0.474284 0.711689 1.10863 -0.489416 0.739084 1.14799 -0.503987 0.766066 1.18641 
-0.518046 0.792697 1.224 -0.531641 0.819042 1.26088 -0.544822 0.845163 1.29715 
-0.557637 0.871125 1.33292 -0.570137 0.89699 1.3683 -0.582368 0.922822 1.4034 
-0.594382 0.948685 1.43832 -0.606227 0.974643 1.47318 -0.617951 1.00076 1.50808 
-0.629604 1.02709 1.54314 -0.641235 1.05371 1.57845 -0.652893 1.08068 1.61413 
-0.664615 1.10805 1.65027 -0.676401 1.13579 1.68684 -0.688241 1.16389 1.72383 
-0.700127 1.19232 1.76119 -0.71205 1.22106 1.79891 -0.724001 1.25008 1.83694 
-0.735971 1.27936 1.87527 -0.74795 1.30886 1.91386 -0.759931 1.33858 1.95269 
-0.771904 1.36847 1.99171 -0.783859 1.39852 2.03091 -0.79579 1.4287 2.07025 
-0.807685 1.45899 2.1097 -0.819537 1.48935 2.14924 -0.831336 1.51977 2.18883 
-0.843074 1.55023 2.22845 -0.854741 1.58069 2.26806 -0.866329 1.61112 2.30764 
-0.877829 1.64152 2.34715 -0.889232 1.67184 2.38656 -0.900532 1.70208 2.42587 
-0.911734 1.73224 2.46507 -0.922839 1.76233 2.50418 -0.93385 1.79234 2.5432 
-0.944771 1.82229 2.58214 -0.955604 1.85217 2.62101 -0.966353 1.88199 2.65982 
-0.97702 1.91177 2.69858 -0.987609 1.94149 2.7373 -0.998123 1.97117 2.77598 
-1.00856 2.00081 2.81463 -1.01894 2.03042 2.85327 -1.02924 2.06 2.89189 
-1.03948 2.08955 2.93052 -1.04966 2.11908 2.96915 -1.05979 2.1486 3.0078 
-1.06986 2.17811 3.04647 -1.07987 2.20761 3.08518 -1.08984 2.2371 3.12393 
-1.09977 2.2666 3.16273 -1.10965 2.29611 3.20158 -1.11949 2.32563 3.2405 
-1.12929 2.35514 3.27948 -1.13906 2.38465 3.31851 -1.1488 2.41416 3.3576 
-1.15851 2.44365 3.39674 -1.16819 2.47313 3.43594 -1.17785 2.50258 3.47519 
-1.18748 2.53202 3.5145 -1.1971 2.56142 3.55385 -1.2067 2.5908 3.59325 
-1.21629 2.62013 3.63271 -1.22586 2.64943 3.6722 -1.23543 2.67868 3.71175 
-1.24499 2.70789 3.75134 -1.25455 2.73704 3.79097 -1.2641 2.76614 3.83064 
-1.27366 2.79517 3.87036 -1.28323 2.82414 3.91012 -1.2928 2.85304 3.94991 
-1.30237 2.88186 3.98974 -1.31197 2.91062 4.02961 -1.32157 2.93929 4.06952 
-1.33119 2.96789 4.10947 -1.34083 2.99642 4.14945 -1.35049 3.02487 4.18948 
-1.36017 3.05324 4.22954 -1.36988 3.08154 4.26964 -1.37961 3.10976 4.30978 
-1.38937 3.1379 4.34997 -1.39916 3.16597 4.39019 -1.40898 3.19396 4.43045 
-1.41884 3.22188 4.47075 -1.42874 3.24971 4.5111 -1.43867 3.27747 4.55149 
-1.44864 3.30516 4.59191 -1.45866 3.33276 4.63238 -1.46872 3.36029 4.6729 
-1.47883 3.38774 4.71345 -1.48899 3.41512 4.75405 -1.49919 3.44241 4.79469 
-1.50946 3.46963 4.83538 -1.51977 3.49676 4.8761 -1.53015 3.52382 4.91687 
-1.54059 3.5508 4.95768 -1.55109 3.57771 4.99852 -1.56167 3.60453 5.03941 
-1.57231 3.63127 5.08033 -1.58302 3.65793 5.12128 -1.59382 3.68452 5.16227 
-1.60469 3.71102 5.20328 -1.61564 3.73745 5.24433 -1.62668 3.76379 5.28541 
-1.63781 3.79005 5.32652 -1.64902 3.81623 5.36766 -1.66033 3.84234 5.40882 
-1.67174 3.86836 5.45001 -1.68325 3.8943 5.49122 -1.69485 3.92015 5.53245 
-1.70657 3.94593 5.57371 -1.71839 3.97162 5.61498 -1.73032 3.99724 5.65628 
-1.74237 4.02277 5.69759 -1.75453 4.04822 5.73891 -1.76681 4.07359 5.78025 
-1.77921 4.09888 5.8216 -1.79174 4.1241 5.86296 -1.80439 4.14924 5.90433 
-1.81717 4.1743 5.9457 -1.83009 4.19928 5.98708 -1.84314 4.2242 6.02846 
-1.85633 4.24903 6.06984 -1.86965 4.2738 6.11122 -1.88312 4.29849 6.1526 
-1.89674 4.32311 6.19397 -1.9105 4.34766 6.23533 -1.92442 4.37214 6.27669 
-1.93849 4.39655 6.31803 -1.95271 4.42089 6.35936 -1.9671 4.44517 6.40068 
-1.98164 4.46938 6.44198 -1.99635 4.49352 6.48326 -2.01123 4.51759 6.52453 
-2.02628 4.54161 6.56577 -2.04149 4.56556 6.60698 -2.05689 4.58944 6.64817 
-2.07246 4.61326 6.68933 -2.08821 4.63702 6.73045 -2.10414 4.66072 6.77154 
-2.12026 4.68436 6.81259 -2.13657 4.70794 6.85361 -2.15306 4.73146 6.89458 
-2.16975 4.75491 6.93551 -2.18664 4.77831 6.97639 -2.20372 4.80165 7.01722 
-2.221 4.82494 7.058 -2.23849 4.84817 7.09872 -2.25618 4.87134 7.13939 
-2.27408 4.89445 7.18 -2.29219 4.91751 7.22055 -2.31051 4.94052 7.26104 
-2.32906 4.96347 7.30146 -2.34781 4.98637 7.34181 -2.36679 5.00922 7.38209 
-2.386 5.03201 7.4223 -2.40542 5.05475 7.46243 -2.42508 5.07743 7.50248 
-2.44496 5.10006 7.54245 -2.46507 5.12264 7.58233 -2.48542 5.14516 7.62212 
-2.506 5.16763 7.66183 -2.52681 5.19005 7.70144 -2.54787 5.21241 7.74095 
-2.56917 5.23472 7.78036 -2.59071 5.25697 7.81968 -2.61249 5.27917 7.85888 
-2.63452 5.30132 7.89798 -2.65681 5.32341 7.93697 -2.67934 5.34545 7.97585 
-2.70212 5.36744 8.01461 -2.72516 5.38937 8.05325 -2.74846 5.41125 8.09177 
-2.77202 5.43307 8.13017 -2.79584 5.45483 8.16844 -2.81991 5.47655 8.20658 
-2.84426 5.4982 8.24459 -2.86886 5.51979 8.28246 -2.89373 5.54132 8.32019 
-2.91886 5.56279 8.35779 -2.94426 5.5842 8.39524 -2.96993 5.60554 8.43254 
-2.99587 5.62682 8.46969 -3.02208 5.64803 8.5067 -3.04856 5.66917 8.54354 
-3.07531 5.69025 8.58023 -3.10233 5.71125 8.61676 -3.12963 5.73218 8.65313 
-3.15721 5.75304 8.68933 -3.18506 5.77382 8.72536 -3.21318 5.79453 8.76122 
-3.24159 5.81516 8.79691 -3.27028 5.83571 8.83242 -3.29924 5.85619 8.86775 
-3.32849 5.87658 8.90289 -3.35802 5.89689 8.93786 -3.38783 5.91711 8.97264 
-3.41791 5.93724 9.00723 -3.44828 5.95728 9.04162 -3.47893 5.97722 9.07583 
-3.50986 5.99707 9.10984 -3.54106 6.01682 9.14365 -3.57255 6.03646 9.17726 
-3.60431 6.056 9.21067 -3.63635 6.07543 9.24388 -3.66868 6.09475 9.27688 
-3.70127 6.11396 9.30967 -3.73415 6.13305 9.34225 -3.76731 6.15202 9.37462 
-3.80074 6.17087 9.40677 -3.83445 6.1896 9.43871 -3.86843 6.2082 9.47042 
-3.9027 6.22667 9.50191 -3.93723 6.24501 9.53318 -3.97205 6.26322 9.56423 
-4.00714 6.28129 9.59504 -4.0425 6.29921 9.62563 -4.07813 6.317 9.656 
-4.11402 6.33463 9.68613 -4.15019 6.35211 9.71603 -4.18661 6.36944 9.74571 
-4.2233 6.38661 9.77515 -4.26025 6.40362 9.80436 -4.29746 6.42046 9.83333 
-4.33492 6.43713 9.86208 -4.37264 6.45363 9.89058 -4.41061 6.46996 9.91886 
-4.44883 6.48611 9.94689 -4.4873 6.50208 9.97469 -4.52601 6.51786 10.0023 
-4.56497 6.53345 10.0296 -4.60417 6.54885 10.0567 -4.64362 6.56406 10.0835 
-4.6833 6.57906 10.1101 -4.72322 6.59387 10.1365 -4.76337 6.60847 10.1626 
-4.80376 6.62286 10.1884 -4.84437 6.63704 10.2141 -4.8852 6.651 10.2395 
-4.92626 6.66474 10.2647 -4.96753 6.67827 10.2896 -5.00901 6.69156 10.3143 
-5.05071 6.70463 10.3387 -5.09262 6.71747 10.363 -5.13473 6.73007 10.387 
-5.17704 6.74244 10.4107 -5.21955 6.75456 10.4342 -5.26225 6.76644 10.4575 
-5.30515 6.77807 10.4806 -5.34823 6.78945 10.5035 -5.3915 6.80058 10.5261 
-5.43495 6.81144 10.5485 -5.47858 6.82205 10.5706 -5.52239 6.83239 10.5926 
-5.56636 6.84247 10.6143 -5.61051 6.85227 10.6358 -5.65482 6.86181 10.6571 
-5.69929 6.87107 10.6782 -5.74392 6.88005 10.699 -5.78871 6.88875 10.7196 
-5.83364 6.89717 10.7401 -5.87872 6.90531 10.7603 -5.92394 6.91317 10.7803 
-5.9693 6.92073 10.8001 -6.01479 6.92801 10.8197 -6.06042 6.935 10.8392 
-6.10617 6.94169 10.8584 -6.15205 6.94808 10.8774 -6.19804 6.95417 10.8962 
-6.24415 6.95997 10.9149 -6.29038 6.96546 10.9333 -6.33671 6.97064 10.9516 
-6.38315 6.97552 10.9697 -6.42968 6.98009 10.9876 -6.47632 6.98434 11.0053 
-6.52305 6.98828 11.0229 -6.56987 6.99191 11.0402 -6.61677 6.99522 11.0574 
-6.66376 6.99821 11.0745 -6.71082 7.00088 11.0914 -6.75796 7.00324 11.1081 
-6.80517 7.00527 11.1246 -6.85245 7.00698 11.141 -6.89979 7.00836 11.1572 
-6.9472 7.00942 11.1733 -6.99466 7.01015 11.1893 -7.04217 7.01055 11.2051 
-7.08973 7.01063 11.2207 -7.13734 7.01037 11.2362 -7.18499 7.00978 11.2516 
-7.23267 7.00886 11.2668 -7.2804 7.00761 11.2819 -7.32815 7.00602 11.2969 
-7.37593 7.00409 11.3117 -7.42373 7.00182 11.3265 -7.47155 6.99921 11.3411 
-7.51939 6.99627 11.3555 -7.56724 6.99298 11.3699 -7.6151 6.98935 11.3842 
-7.66297 6.98539 11.3983 -7.71084 6.98108 11.4123 -7.7587 6.97643 11.4262 
-7.80657 6.97144 11.4401 -7.85442 6.9661 11.4538 -7.90227 6.96042 11.4674 
-7.95009 6.9544 11.4809 -7.9979 6.94804 11.4944 -8.04569 6.94133 11.5077 
-8.09346 6.93428 11.521 -8.14119 6.92689 11.5341 -8.18889 6.91914 11.5472 
-8.23656 6.91106 11.5603 -8.28418 6.90263 11.5732 -8.33177 6.89385 11.5861 
-8.3793 6.88473 11.5988 -8.42679 6.87525 11.6116 -8.47423 6.86544 11.6242 
-8.5216 6.85528 11.6368 -8.56892 6.84477 11.6493 -8.61618 6.83393 11.6618 
-8.66338 6.82274 11.6742 -8.7105 6.81121 11.6866 -8.75756 6.79934 11.6989 
-8.80454 6.78714 11.7112 -8.85145 6.77459 11.7234 -8.89827 6.76171 11.7355 
-8.94501 6.7485 11.7477 -8.99167 6.73495 11.7598 -9.03824 6.72106 11.7718 
-9.08472 6.70685 11.7838 -9.1311 6.6923 11.7958 -9.17739 6.67742 11.8078 
-9.22357 6.66221 11.8197 -9.26965 6.64668 11.8316 -9.31562 6.63081 11.8435 
-9.36149 6.61462 11.8554 -9.40724 6.59811 11.8672 -9.45288 6.58127 11.879 
-9.4984 6.56411 11.8908 -9.5438 6.54664 11.9026 -9.58909 6.52885 11.9144 
-9.63425 6.51074 11.9262 -9.67929 6.49232 11.938 -9.7242 6.47359 11.9497 
-9.76898 6.45455 11.9615 -9.81364 6.43521 11.9733 -9.85816 6.41556 11.985 
-9.90255 6.39561 11.9968 -9.9468 6.37537 12.0085 -9.99091 6.35482 12.0203 
-10.0349 6.33398 12.032 -10.0787 6.31284 12.0438 -10.1224 6.29141 12.0556 
-10.1659 6.26969 12.0673 -10.2093 6.24768 12.0791 -10.2526 6.22539 12.0909 
-10.2957 6.20282 12.1028 -10.3386 6.17996 12.1146 -10.3814 6.15683 12.1264 
[...]
CELL_DATA 1
FIELD FieldData 2
Length 1 1 double
63.936672904 
Tortuosity 1 1 double
1.1085787116 
POINT_DATA 1279
SCALARS MaximumInscribedSphereRadius float
LOOKUP_TABLE default
0.62 0.643588 0.667177 0.690765 0.714354 0.737942 0.76153 0.785119 0.808707 
0.832295 0.855884 0.879472 0.903061 0.926649 0.950237 0.973826 0.997414 1.021 
1.04459 1.06818 1.08838 1.10292 1.11745 1.13199 1.14653 1.16106 1.1756 
1.19013 1.20467 1.21921 1.23374 1.24828 1.26282 1.27735 1.29189 1.30643 
1.32096 1.3355 1.35003 1.36457 1.37911 1.39187 1.37657 1.36126 1.34596 
1.33065 1.31535 1.30005 1.28474 1.26944 1.25413 1.23883 1.22353 1.20822 
1.19292 1.17761 1.16231 1.14701 1.1317 1.1164 1.10109 1.08653 1.07364 
1.06076 1.04787 1.03498 1.02209 1.00921 0.99632 0.983432 0.970544 0.957657 
0.944769 0.931882 0.918994 0.906107 0.893219 0.880332 0.867444 0.854556 0.841669 
0.828781 0.831032 0.836725 0.842417 0.84811 0.853803 0.859495 0.865188 0.870881 
0.876573 0.882266 0.887958 0.893651 0.899344 0.905036 0.910729 0.916422 0.922114 
0.927807 0.933499 0.939192 0.947324 0.957049 0.966775 0.9765 0.986226 0.995951 
1.00568 1.0154 1.02513 1.03485 1.04458 1.0543 1.06403 1.07376 1.08348 
1.09321 1.10293 1.11266 1.12238 1.13211 1.13846 1.13692 1.13538 1.13385 
1.13231 1.13077 1.12924 1.1277 1.12616 1.12462 1.12309 1.12155 1.12001 
1.11847 1.11694 1.1154 1.11386 1.11233 1.11079 1.10925 1.10759 1.10064 
1.0937 1.08676 1.07982 1.07287 1.06593 1.05899 1.05204 1.0451 1.03816 
1.03121 1.02427 1.01733 1.01039 1.00344 0.996501 0.989558 0.982615 0.975672 
0.968729 0.965571 0.963751 0.961931 0.960111 0.958291 0.956471 0.954651 0.952831 
0.951011 0.949191 0.947371 0.945551 0.943731 0.941911 0.940091 0.938271 0.936451 
0.934631 0.932811 0.930991 0.930085 0.930272 0.930459 0.930646 0.930833 0.93102 
0.931207 0.931394 0.931581 0.931768 0.931955 0.932142 0.932329 0.932516 0.932703 
0.93289 0.933077 0.933264 0.933451 0.933638 0.934564 0.939061 0.943558 0.948056 
0.952553 0.95705 0.961547 0.966044 0.970541 0.975039 0.979536 0.984033 0.98853 
0.993028 0.997525 1.00202 1.00652 1.01102 1.01551 1.02001 1.02451 1.0277 
1.03072 1.03374 1.03676 1.03978 1.0428 1.04582 1.04884 1.05186 1.05488 
1.0579 1.06092 1.06395 1.06697 1.06999 1.07301 1.07603 1.07905 1.08207 
1.08509 1.08428 1.08092 1.07755 1.07419 1.07082 1.06746 1.06409 1.06073 
1.05736 1.05399 1.05063 1.04726 1.0439 1.04053 1.03717 1.0338 1.03044 
1.02707 1.02371 1.02034 1.01769 1.01662 1.01555 1.01447 1.0134 1.01232 
1.01125 1.01017 1.0091 1.00802 1.00695 1.00588 1.0048 1.00373 1.00265 
1.00158 1.0005 0.999429 0.998354 0.99728 0.996362 1.00115 1.00593 1.01072 
1.01551 1.02029 1.02508 1.02987 1.03465 1.03944 1.04423 1.04901 1.0538 
1.05858 1.06337 1.06816 1.07294 1.07773 1.08252 1.0873 1.09209 1.09567 
1.09884 1.102 1.10516 1.10832 1.11149 1.11465 1.11781 1.12097 1.12414 
1.1273 1.13046 1.13362 1.13679 1.13995 1.14311 1.14627 1.14944 1.1526 
1.15576 1.15587 1.15231 1.14875 1.14518 1.14162 1.13806 1.13449 1.13093 
1.12736 1.1238 1.12024 1.11667 1.11311 1.10955 1.10598 1.10242 1.09886 
1.09529 1.09173 1.08817 1.08427 1.07871 1.07316 1.06761 1.06205 1.0565 
1.05095 1.04539 1.03984 1.03428 1.02873 1.02318 1.01762 1.01207 1.00652 
1.00096 0.995409 0.989855 0.984302 0.978748 0.973194 0.971641 0.970623 0.969604 
0.968586 0.967568 0.966549 0.965531 0.964513 0.963494 0.962476 0.961458 0.96044 
0.959421 0.958403 0.957385 0.956366 0.955348 0.95433 0.953311 0.952293 0.952804 
0.954351 0.955898 0.957444 0.958991 0.960537 0.962084 0.963631 0.965177 0.966724 
0.96827 0.969817 0.971364 0.97291 0.974457 0.976004 0.97755 0.979097 0.980644 
0.98219 0.985035 0.990759 0.996483 1.00221 1.00793 1.01365 1.01938 1.0251 
1.03083 1.03655 1.04227 1.048 1.05372 1.05944 1.06517 1.07089 1.07662 
1.08234 1.08806 1.09379 1.09956 1.10705 1.11455 1.12204 1.12953 1.13703 
1.14452 1.15202 1.15951 1.167 1.1745 1.18199 1.18949 1.19698 1.20447 
1.21197 1.21946 1.22696 1.23445 1.24194 1.24944 1.25942 1.27026 1.2811 
1.29195 1.30279 1.31363 1.32447 1.33532 1.34616 1.357 1.36784 1.37868 
1.38953 1.40037 1.41121 1.42205 1.4329 1.44374 1.45458 1.46542 1.47718 
1.49003 1.50287 1.51571 1.52855 1.54139 1.55423 1.56707 1.57992 1.59276 
1.6056 1.61844 1.63128 1.64412 1.65697 1.66981 1.68265 1.69549 1.70833 
1.72117 1.73122 1.72806 1.7249 1.72175 1.71859 1.71543 1.71228 1.70912 
1.70596 1.70281 1.69965 1.69649 1.69334 1.69018 1.68702 1.68387 1.68071 
1.67755 1.6744 1.67124 1.66808 1.65909 1.64945 1.63981 1.63017 1.62053 
1.61089 1.60125 1.59161 1.58197 1.57233 1.56269 1.55306 1.54342 1.53378 
1.52414 1.5145 1.50486 1.49522 1.48558 1.47594 1.47147 1.47109 1.4707 
1.47032 1.46993 1.46955 1.46916 1.46878 1.46839 1.468 1.46762 1.46723 
1.46685 1.46646 1.46608 1.46569 1.46531 1.46492 1.46453 1.46415 1.46565 
1.47102 1.4764 1.48177 1.48715 1.49252 1.4979 1.50327 1.50865 1.51402 
1.5194 1.52477 1.53015 1.53552 1.5409 1.54627 1.55165 1.55702 1.5624 
1.56777 1.573 1.57099 1.56899 1.56698 1.56498 1.56297 1.56097 1.55896 
1.55695 1.55495 1.55294 1.55094 1.54893 1.54693 1.54492 1.54291 1.54091 
1.5389 1.5369 1.53489 1.53288 1.52853 1.52324 1.51795 1.51266 1.50737 
1.50207 1.49678 1.49149 1.4862 1.48091 1.47561 1.47032 1.46503 1.45974 
1.45445 1.44915 1.44386 1.43857 1.43328 1.42799 1.42212 1.41552 1.40892 
1.40232 1.39572 1.38911 1.38251 1.37591 1.36931 1.3627 1.3561 1.3495 
1.3429 1.3363 1.32969 1.32309 1.31649 1.30989 1.30328 1.29668 1.29202 
1.2981 1.30418 1.31026 1.31634 1.32242 1.3285 1.33458 1.34066 1.34674 
1.35282 1.3589 1.36498 1.37106 1.37714 1.38322 1.3893 1.39538 1.40146 
1.40754 1.41363 1.41939 1.42511 1.43083 1.43654 1.44226 1.44798 1.4537 
1.45942 1.46513 1.47085 1.47657 1.48229 1.488 1.49372 1.49944 1.50516 
1.51088 1.51659 1.52231 1.52803 1.53097 1.53193 1.5329 1.53386 1.53483 
1.5358 1.53676 1.53773 1.5387 1.53966 1.54063 1.54159 1.54256 1.54353 
1.54449 1.54546 1.54643 1.54739 1.54836 1.54932 1.55 1.55 1.55 
1.55 1.55 1.55 1.55 1.55 1.55 1.55 1.55 1.55 
1.55 1.55 1.55 1.55 1.55 1.55 1.55 1.55 1.55 
1.55 1.55 1.55 1.55 1.55 1.55 1.55 1.55 1.55 
1.55 1.55 1.55 1.55 1.55 1.55 1.55 1.55 1.55 
1.55 1.55 1.55079 1.55188 1.55296 1.55404 1.55512 1.5562 1.55728 
1.55837 1.55945 1.56053 1.56161 1.56269 1.56377 1.56486 1.56594 1.56702 
1.5681 1.56918 1.57026 1.57135 1.57376 1.5778 1.58184 1.58588 1.58992 
1.59396 1.598 1.60204 1.60608 1.61012 1.61416 1.6182 1.62224 1.62628 
1.63032 1.63436 1.6384 1.64244 1.64648 1.65052 1.65487 1.66076 1.66664 
1.67253 1.67841 1.6843 1.69018 1.69607 1.70195 1.70784 1.71372 1.71961 
1.72549 1.73138 1.73726 1.74315 1.74903 1.75492 1.7608 1.76669 1.77257 
1.77509 1.77715 1.77922 1.78129 1.78335 1.78542 1.78749 1.78955 1.79162 
1.79369 1.79575 1.79782 1.79989 1.80195 1.80402 1.80609 1.80815 1.81022 
1.81229 1.81435 1.81249 1.808 1.80352 1.79904 1.79455 1.79007 1.78559 
1.7811 1.77662 1.77214 1.76765 1.76317 1.75869 1.7542 1.74972 1.74524 
1.74075 1.73627 1.73179 1.7273 1.72223 1.71589 1.70955 1.70321 1.69686 
1.69052 1.68418 1.67784 1.6715 1.66515 1.65881 1.65247 1.64613 1.63979 
1.63344 1.6271 1.62076 1.61442 1.60808 1.60173 1.59524 1.58431 1.57338 
1.56245 1.55152 1.54058 1.52965 1.51872 1.50779 1.49686 1.48593 1.475 
1.46407 1.45314 1.44221 1.43128 1.42035 1.40942 1.39849 1.38756 1.37663 
1.37375 1.37349 1.37324 1.37298 1.37273 1.37247 1.37222 1.37197 1.37171 
1.37146 1.3712 1.37095 1.37069 1.37044 1.37018 1.36993 1.36967 1.36942 
1.36916 1.36891 1.37291 1.382 1.39108 1.40017 1.40925 1.41834 1.42742 
1.43651 1.44559 1.45468 1.46377 1.47285 1.48194 1.49102 1.50011 1.50919 
1.51828 1.52737 1.53645 1.54554 1.55473 1.56596 1.57719 1.58842 1.59965 
1.61087 1.6221 1.63333 1.64456 1.65579 1.66701 1.67824 1.68947 1.7007 
1.71193 1.72316 1.73438 1.74561 1.75684 1.76807 1.7793 1.78922 1.79905 
1.80889 1.81873 1.82856 1.8384 1.84824 1.85807 1.86791 1.87775 1.88758 
1.89742 1.90726 1.91709 1.92693 1.93677 1.9466 1.95644 1.96628 1.97611 
1.98344 1.98842 1.99341 1.99839 2.00338 2.00837 2.01335 2.01834 2.02332 
2.02831 2.0333 2.03828 2.04327 2.04825 2.05324 2.05823 2.06321 2.0682 
2.07318 2.07817 2.08124 2.0789 2.07655 2.07421 2.07187 2.06953 2.06719 
2.06484 2.0625 2.06016 2.05782 2.05548 2.05313 2.05079 2.04845 2.04611 
2.04377 2.04143 2.03908 2.03674 2.0344 2.03008 2.02571 2.02133 2.01695 
2.01257 2.0082 2.00382 1.99944 1.99507 1.99069 1.98631 1.98194 1.97756 
1.97318 1.9688 1.96443 1.96005 1.95567 1.9513 1.94692 1.94805 1.95167 
1.95528 1.9589 1.96251 1.96612 1.96974 1.97335 1.97697 1.98058 1.9842 
1.98781 1.99142 1.99504 1.99865 2.00227 2.00588 2.0095 2.01311 2.01673 
2.02173 2.02877 2.0358 2.04284 2.04988 2.05692 2.06395 2.07099 2.07803 
2.08506 2.0921 2.09914 2.10617 2.11321 2.12025 2.12728 2.13432 2.14136 
2.14839 2.15543 2.16254 2.17019 2.17784 2.18549 2.19314 2.20079 2.20843 
2.21608 2.22373 2.23138 2.23903 2.24668 2.25433 2.26198 2.26963 2.27727 
2.28492 2.29257 2.30022 2.30787 2.31552 2.3239 2.33243 2.34096 2.34948 
2.35801 2.36653 2.37506 2.38359 2.39211 2.40064 2.40916 2.41769 2.42622 
2.43474 2.44327 2.45179 2.46032 2.46885 2.47737 2.4859 2.49763 2.51195 
2.52627 2.5406 2.55492 2.56924 2.58356 2.59788 2.6122 2.62652 2.64084 
2.65516 2.66948 2.6838 2.69812 2.71244 2.72676 2.74108 2.7554 2.76972 
2.7829 2.79301 2.80312 2.81323 2.82334 2.83345 2.84356 2.85367 2.86378 
2.87389 2.884 2.89411 2.90422 2.91433 2.92444 2.93455 2.94466 2.95477 
2.96488 2.97499 2.9851 2.98347 2.98167 2.97986 2.97805 2.97625 2.97444 
2.97264 2.97083 2.96903 2.96722 2.96542 2.96361 2.96181 2.96 2.95819 
2.95639 2.95458 2.95278 2.95097 2.94917 2.94475 2.93925 2.93375 2.92825 
2.92275 2.91725 2.91176 2.90626 2.90076 2.89526 2.88976 2.88426 2.87876 
2.87326 2.86777 2.86227 2.85677 2.85127 2.84577 2.84027 2.83627 2.83443 
2.83259 2.83075 2.82891 2.82707 2.82523 2.82339 2.82155 2.81971 2.81787 
2.81604 2.8142 2.81236 2.81052 2.80868 2.80684 2.805 2.80316 2.80132 
2.79943 2.79732 2.7952 2.79309 2.79098 2.78886 2.78675 2.78463 2.78252 
2.7804 2.77829 2.77618 2.77406 2.77195 2.76983 2.76772 2.7656 2.76349 
2.76138 2.75926 2.75715 2.74911 2.73899 2.72888 2.71876 2.70864 2.69853 
2.68841 2.6783 2.66818 2.65806 2.64795 2.63783 2.62772 2.6176 2.60748 
2.59737 2.58725 2.57714 2.56702 2.5569 2.54002 2.52201 2.504 2.48598 
2.46797 2.44995 2.43194 2.41393 2.39591 2.3779 2.35988 2.34187 2.32386 
2.30584 2.28783 2.26981 2.2518 2.23379 2.21577 2.19776 2.17974 2.15217 
2.12048 2.08878 2.05709 2.0254 1.9937 1.96201 1.93032 1.89863 1.86693 
1.83524 1.80355 1.77185 1.74016 1.70847 1.67677 1.64508 1.61339 1.58169 
1.55 
TEXTURE_COORDINATES TCoords 2 float
0 0 0.000782473 0 0.00156495 0 0.00234742 0 0.00312989 
0 0.00391236 0 0.00469484 0 0.00547731 0 0.00625978 0 
0.00704225 0 0.00782473 0 0.0086072 0 0.00938967 0 0.0101721 
0 0.0109546 0 0.0117371 0 0.0125196 0 0.013302 0 
0.0140845 0 0.014867 0 0.0156495 0 0.0164319 0 0.0172144 
0 0.0179969 0 0.0187793 0 0.0195618 0 0.0203443 0 
0.0211268 0 0.0219092 0 0.0226917 0 0.0234742 0 0.0242567 
0 0.0250391 0 0.0258216 0 0.0266041 0 0.0273865 0 
0.028169 0 0.0289515 0 0.029734 0 0.0305164 0 0.0312989 
0 0.0320814 0 0.0328638 0 0.0336463 0 0.0344288 0 
0.0352113 0 0.0359937 0 0.0367762 0 0.0375587 0 0.0383412 
0 0.0391236 0 0.0399061 0 0.0406886 0 0.041471 0 
0.0422535 0 0.043036 0 0.0438185 0 0.0446009 0 0.0453834 
0 0.0461659 0 0.0469484 0 0.0477308 0 0.0485133 0 
0.0492958 0 0.0500782 0 0.0508607 0 0.0516432 0 0.0524257 
0 0.0532081 0 0.0539906 0 0.0547731 0 0.0555556 0 
0.056338 0 0.0571205 0 0.057903 0 0.0586854 0 0.0594679 
0 0.0602504 0 0.0610329 0 0.0618153 0 0.0625978 0 
0.0633803 0 0.0641628 0 0.0649452 0 0.0657277 0 0.0665102 
0 0.0672926 0 0.0680751 0 0.0688576 0 0.0696401 0 
0.0704225 0 0.071205 0 0.0719875 0 0.07277 0 0.0735524 
0 0.0743349 0 0.0751174 0 0.0758998 0 0.0766823 0 
0.0774648 0 0.0782473 0 0.0790297 0 0.0798122 0 0.0805947 
0 0.0813771 0 0.0821596 0 0.0829421 0 0.0837246 0 
0.084507 0 0.0852895 0 0.086072 0 0.0868545 0 0.0876369 
0 0.0884194 0 0.0892019 0 0.0899843 0 0.0907668 0 
0.0915493 0 0.0923318 0 0.0931142 0 0.0938967 0 0.0946792 
0 0.0954617 0 0.0962441 0 0.0970266 0 0.0978091 0 
0.0985916 0 0.099374 0 0.100156 0 0.100939 0 0.101721 
0 0.102504 0 0.103286 0 0.104069 0 0.104851 0 
0.105634 0 0.106416 0 0.107199 0 0.107981 0 0.108764 
0 0.109546 0 0.110329 0 0.111111 0 0.111894 0 
0.112676 0 0.113459 0 0.114241 0 0.115023 0 0.115806 
0 0.116588 0 0.117371 0 0.118153 0 0.118936 0 
0.119718 0 0.120501 0 0.121283 0 0.122066 0 0.122848 
0 0.123631 0 0.124413 0 0.125196 0 0.125978 0 
0.126761 0 0.127543 0 0.128326 0 0.129108 0 0.12989 
0 0.130673 0 0.131455 0 0.132238 0 0.13302 0 
0.133803 0 0.134585 0 0.135368 0 0.13615 0 0.136933 
0 0.137715 0 0.138498 0 0.13928 0 0.140063 0 
0.140845 0 0.141628 0 0.14241 0 0.143192 0 0.143975 
0 0.144757 0 0.14554 0 0.146322 0 0.147105 0 
0.147887 0 0.14867 0 0.149452 0 0.150235 0 0.151017 
0 0.1518 0 0.152582 0 0.153365 0 0.154147 0 
0.15493 0 0.155712 0 0.156495 0 0.157277 0 0.158059 
0 0.158842 0 0.159624 0 0.160407 0 0.161189 0 
0.161972 0 0.162754 0 0.163537 0 0.164319 0 0.165102 
0 0.165884 0 0.166667 0 0.167449 0 0.168232 0 
0.169014 0 0.169797 0 0.170579 0 0.171362 0 0.172144 
0 0.172926 0 0.173709 0 0.174491 0 0.175274 0 
0.176056 0 0.176839 0 0.177621 0 0.178404 0 0.179186 
0 0.179969 0 0.180751 0 0.181534 0 0.182316 0 
0.183099 0 0.183881 0 0.184664 0 0.185446 0 0.186228 
0 0.187011 0 0.187793 0 0.188576 0 0.189358 0 
0.190141 0 0.190923 0 0.191706 0 0.192488 0 0.193271 
0 0.194053 0 0.194836 0 0.195618 0 0.196401 0 
0.197183 0 0.197966 0 0.198748 0 0.199531 0 0.200313 
0 0.201095 0 0.201878 0 0.20266 0 0.203443 0 
0.204225 0 0.205008 0 0.20579 0 0.206573 0 0.207355 
0 0.208138 0 0.20892 0 0.209703 0 0.210485 0 
0.211268 0 0.21205 0 0.212833 0 0.213615 0 0.214397 
0 0.21518 0 0.215962 0 0.216745 0 0.217527 0 
0.21831 0 0.219092 0 0.219875 0 0.220657 0 0.22144 
0 0.222222 0 0.223005 0 0.223787 0 0.22457 0 
0.225352 0 0.226135 0 0.226917 0 0.2277 0 0.228482 
0 0.229264 0 0.230047 0 0.230829 0 0.231612 0 
0.232394 0 0.233177 0 0.233959 0 0.234742 0 0.235524 
0 0.236307 0 0.237089 0 0.237872 0 0.238654 0 
0.239437 0 0.240219 0 0.241002 0 0.241784 0 0.242567 
0 0.243349 0 0.244131 0 0.244914 0 0.245696 0 
0.246479 0 0.247261 0 0.248044 0 0.248826 0 0.249609 
0 0.250391 0 0.251174 0 0.251956 0 0.252739 0 
0.253521 0 0.254304 0 0.255086 0 0.255869 0 0.256651 
0 0.257434 0 0.258216 0 0.258998 0 0.259781 0 
0.260563 0 0.261346 0 0.262128 0 0.262911 0 0.263693 
0 0.264476 0 0.265258 0 0.266041 0 0.266823 0 
0.267606 0 0.268388 0 0.269171 0 0.269953 0 0.270736 
0 0.271518 0 0.2723 0 0.273083 0 0.273865 0 
0.274648 0 0.27543 0 0.276213 0 0.276995 0 0.277778 
0 0.27856 0 0.279343 0 0.280125 0 0.280908 0 
0.28169 0 0.282473 0 0.283255 0 0.284038 0 0.28482 
0 0.285603 0 0.286385 0 0.287167 0 0.28795 0 
0.288732 0 0.289515 0 0.290297 0 0.29108 0 0.291862 
0 0.292645 0 0.293427 0 0.29421 0 0.294992 0 
0.295775 0 0.296557 0 0.29734 0 0.298122 0 0.298905 
0 0.299687 0 0.300469 0 0.301252 0 0.302034 0 
0.302817 0 0.303599 0 0.304382 0 0.305164 0 0.305947 
0 0.306729 0 0.307512 0 0.308294 0 0.309077 0 
0.309859 0 0.310642 0 0.311424 0 0.312207 0 0.312989 
0 0.313772 0 0.314554 0 0.315336 0 0.316119 0 
0.316901 0 0.317684 0 0.318466 0 0.319249 0 0.320031 
0 0.320814 0 0.321596 0 0.322379 0 0.323161 0 
0.323944 0 0.324726 0 0.325509 0 0.326291 0 0.327074 
0 0.327856 0 0.328638 0 0.329421 0 0.330203 0 
0.330986 0 0.331768 0 0.332551 0 0.333333 0 0.334116 
0 0.334898 0 0.335681 0 0.336463 0 0.337246 0 
0.338028 0 0.338811 0 0.339593 0 0.340376 0 0.341158 
0 0.341941 0 0.342723 0 0.343505 0 0.344288 0 
0.34507 0 0.345853 0 0.346635 0 0.347418 0 0.3482 
0 0.348983 0 0.349765 0 0.350548 0 0.35133 0 
0.352113 0 0.352895 0 0.353678 0 0.35446 0 0.355243 
0 0.356025 0 0.356808 0 0.35759 0 0.358372 0 
0.359155 0 0.359937 0 0.36072 0 0.361502 0 0.362285 
0 0.363067 0 0.36385 0 0.364632 0 0.365415 0 
0.366197 0 0.36698 0 0.367762 0 0.368545 0 0.369327 
0 0.37011 0 0.370892 0 0.371674 0 0.372457 0 
0.373239 0 0.374022 0 0.374804 0 0.375587 0 0.376369 
0 0.377152 0 0.377934 0 0.378717 0 0.379499 0 
0.380282 0 0.381064 0 0.381847 0 0.382629 0 0.383412 
0 0.384194 0 0.384977 0 0.385759 0 0.386541 0 
0.387324 0 0.388106 0 0.388889 0 0.389671 0 0.390454 
0 0.391236 0 0.392019 0 0.392801 0 0.393584 0 
0.394366 0 0.395149 0 0.395931 0 0.396714 0 0.397496 
0 0.398279 0 0.399061 0 0.399844 0 0.400626 0 
0.401408 0 0.402191 0 0.402973 0 0.403756 0 0.404538 
0 0.405321 0 0.406103 0 0.406886 0 0.407668 0 
0.408451 0 0.409233 0 0.410016 0 0.410798 0 0.411581 
0 0.412363 0 0.413146 0 0.413928 0 0.41471 0 
0.415493 0 0.416275 0 0.417058 0 0.41784 0 0.418623 
0 0.419405 0 0.420188 0 0.42097 0 0.421753 0 
0.422535 0 0.423318 0 0.4241 0 0.424883 0 0.425665 
0 0.426448 0 0.42723 0 0.428013 0 0.428795 0 
0.429577 0 0.43036 0 0.431142 0 0.431925 0 0.432707 
0 0.43349 0 0.434272 0 0.435055 0 0.435837 0 
0.43662 0 0.437402 0 0.438185 0 0.438967 0 0.43975 
0 0.440532 0 0.441315 0 0.442097 0 0.442879 0 
0.443662 0 0.444444 0 0.445227 0 0.446009 0 0.446792 
0 0.447574 0 0.448357 0 0.449139 0 0.449922 0 
0.450704 0 0.451487 0 0.452269 0 0.453052 0 0.453834 
0 0.454617 0 0.455399 0 0.456182 0 0.456964 0 
0.457746 0 0.458529 0 0.459311 0 0.460094 0 0.460876 
0 0.461659 0 0.462441 0 0.463224 0 0.464006 0 
0.464789 0 0.465571 0 0.466354 0 0.467136 0 0.467919 
0 0.468701 0 0.469484 0 0.470266 0 0.471049 0 
0.471831 0 0.472613 0 0.473396 0 0.474178 0 0.474961 
0 0.475743 0 0.476526 0 0.477308 0 0.478091 0 
0.478873 0 0.479656 0 0.480438 0 0.481221 0 0.482003 
0 0.482786 0 0.483568 0 0.484351 0 0.485133 0 
0.485915 0 0.486698 0 0.48748 0 0.488263 0 0.489045 
0 0.489828 0 0.49061 0 0.491393 0 0.492175 0 
0.492958 0 0.49374 0 0.494523 0 0.495305 0 0.496088 
0 0.49687 0 0.497653 0 0.498435 0 0.499218 0 
0.5 0 0.500782 0 0.501565 0 0.502347 0 0.50313 
0 0.503912 0 0.504695 0 0.505477 0 0.50626 0 
0.507042 0 0.507825 0 0.508607 0 0.50939 0 0.510172 
0 0.510955 0 0.511737 0 0.51252 0 0.513302 0 
0.514085 0 0.514867 0 0.515649 0 0.516432 0 0.517214 
0 0.517997 0 0.518779 0 0.519562 0 0.520344 0 
0.521127 0 0.521909 0 0.522692 0 0.523474 0 0.524257 
0 0.525039 0 0.525822 0 0.526604 0 0.527387 0 
0.528169 0 0.528951 0 0.529734 0 0.530516 0 0.531299 
0 0.532081 0 0.532864 0 0.533646 0 0.534429 0 
0.535211 0 0.535994 0 0.536776 0 0.537559 0 0.538341 
0 0.539124 0 0.539906 0 0.540689 0 0.541471 0 
0.542253 0 0.543036 0 0.543818 0 0.544601 0 0.545383 
0 0.546166 0 0.546948 0 0.547731 0 0.548513 0 
0.549296 0 0.550078 0 0.550861 0 0.551643 0 0.552426 
0 0.553208 0 0.553991 0 0.554773 0 0.555556 0 
0.556338 0 0.557121 0 0.557903 0 0.558685 0 0.559468 
0 0.56025 0 0.561033 0 0.561815 0 0.562598 0 
0.56338 0 0.564163 0 0.564945 0 0.565728 0 0.56651 
0 0.567293 0 0.568075 0 0.568858 0 0.56964 0 
0.570423 0 0.571205 0 0.571988 0 0.57277 0 0.573552 
0 0.574335 0 0.575117 0 0.5759 0 0.576682 0 
0.577465 0 0.578247 0 0.57903 0 0.579812 0 0.580595 
0 0.581377 0 0.58216 0 0.582942 0 0.583725 0 
0.584507 0 0.58529 0 0.586072 0 0.586854 0 0.587637 
0 0.588419 0 0.589202 0 0.589984 0 0.590767 0 
0.591549 0 0.592332 0 0.593114 0 0.593897 0 0.594679 
0 0.595462 0 0.596244 0 0.597027 0 0.597809 0 
0.598592 0 0.599374 0 0.600156 0 0.600939 0 0.601721 
0 0.602504 0 0.603286 0 0.604069 0 0.604851 0 
0.605634 0 0.606416 0 0.607199 0 0.607981 0 0.608764 
0 0.609546 0 0.610329 0 0.611111 0 0.611894 0 
0.612676 0 0.613459 0 0.614241 0 0.615023 0 0.615806 
0 0.616588 0 0.617371 0 0.618153 0 0.618936 0 
0.619718 0 0.620501 0 0.621283 0 0.622066 0 0.622848 
0 0.623631 0 0.624413 0 0.625196 0 0.625978 0 
0.626761 0 0.627543 0 0.628326 0 0.629108 0 0.62989 
0 0.630673 0 0.631455 0 0.632238 0 0.63302 0 
0.633803 0 0.634585 0 0.635368 0 0.63615 0 0.636933 
0 0.637715 0 0.638498 0 0.63928 0 0.640063 0 
0.640845 0 0.641628 0 0.64241 0 0.643192 0 0.643975 
0 0.644757 0 0.64554 0 0.646322 0 0.647105 0 
0.647887 0 0.64867 0 0.649452 0 0.650235 0 0.651017 
0 0.6518 0 0.652582 0 0.653365 0 0.654147 0 
0.65493 0 0.655712 0 0.656494 0 0.657277 0 0.658059 