# vtk DataFile Version 4.2
vtk output
ASCII
DATASET POLYDATA
POINTS 1277 float
0 0 0 -0.00391439 0.00122129 -0.00053516 -0.0153336 0.00476817 -0.00206748 
-0.0337715 0.0104652 -0.0044872 -0.0587422 0.018137 -0.00768459 -0.0897597 0.027608 -0.0115499 
-0.126338 0.0387028 -0.0159734 -0.167991 0.0512459 -0.0208453 -0.214233 0.065062 -0.0260559 
-0.264577 0.0799755 -0.0314954 -0.318538 0.095811 -0.0370541 -0.37563 0.112393 -0.0426223 
-0.435367 0.129546 -0.0480902 -0.497262 0.147095 -0.053348 -0.56083 0.164864 -0.058286 
-0.625585 0.182678 -0.0627945 -0.691041 0.200361 -0.0667637 -0.756711 0.217738 -0.0700839 
-0.82211 0.234633 -0.0726453 -0.886751 0.250872 -0.0743382 -0.95015 0.266277 -0.0750528 
-1.01182 0.280676 -0.0746797 -1.07146 0.293956 -0.073155 -1.12914 0.306147 -0.0705138 
-1.185 0.317295 -0.0668039 -1.23917 0.327449 -0.062073 -1.29178 0.336655 -0.0563691 
-1.34296 0.34496 -0.0497399 -1.39285 0.352412 -0.0422333 -1.44157 0.359056 -0.0338971 
-1.48926 0.364941 -0.0247792 -1.53605 0.370114 -0.0149273 -1.58207 0.374621 -0.00438924 
-1.62745 0.37851 0.00678706 -1.67232 0.381828 0.0185538 -1.71681 0.384622 0.0308632 
-1.76106 0.386938 0.0436674 -1.80519 0.388825 0.0569186 -1.84934 0.390328 0.0705689 
-1.89365 0.391496 0.0845705 -1.93823 0.392376 0.0988757 -1.98322 0.393011 0.113438 
-2.02864 0.393413 0.12824 -2.07447 0.393565 0.143283 -2.12066 0.39345 0.158571 
-2.16716 0.393053 0.174108 -2.21395 0.392354 0.189896 -2.26097 0.391339 0.205938 
-2.30819 0.389989 0.222239 -2.35557 0.388288 0.238801 -2.40306 0.38622 0.255627 
-2.45063 0.383767 0.272722 -2.49824 0.380911 0.290087 -2.54584 0.377638 0.307727 
-2.5934 0.373929 0.325644 -2.64088 0.369767 0.343842 -2.68822 0.365136 0.362324 
-2.7354 0.36002 0.381094 -2.78238 0.3544 0.400154 -2.8291 0.34826 0.419508 
-2.87554 0.341583 0.439159 -2.92165 0.334353 0.459111 -2.96741 0.326558 0.479363 
-3.01281 0.318205 0.4999 -3.05788 0.309304 0.520709 -3.10261 0.299864 0.541774 
-3.14703 0.289895 0.56308 -3.19114 0.279406 0.584612 -3.23496 0.268407 0.606354 
-3.27849 0.256908 0.628292 -3.32175 0.244917 0.650409 -3.36475 0.232446 0.672692 
-3.4075 0.219503 0.695124 -3.45001 0.206097 0.717691 -3.49229 0.192239 0.740378 
-3.53436 0.177939 0.763168 -3.57623 0.163205 0.786048 -3.6179 0.148047 0.809001 
-3.65939 0.132475 0.832014 -3.70071 0.116498 0.855069 -3.74187 0.100127 0.878153 
-3.78288 0.0833699 0.90125 -3.82376 0.0662364 0.924346 -3.8645 0.0487303 0.947435 
-3.90509 0.0308537 0.970513 -3.94555 0.012609 0.993576 -3.98587 -0.00600179 1.01662 
-4.02604 -0.0249763 1.03964 -4.06607 -0.0443124 1.06264 -4.10595 -0.0640078 1.0856 
-4.14568 -0.0840603 1.10854 -4.18526 -0.104468 1.13143 -4.22468 -0.125228 1.15428 
-4.26395 -0.146338 1.17709 -4.30307 -0.167797 1.19985 -4.34202 -0.189602 1.22256 
-4.38081 -0.211751 1.24521 -4.41945 -0.234241 1.2678 -4.45791 -0.25707 1.29033 
-4.49621 -0.280237 1.31278 -4.53435 -0.303739 1.33517 -4.57231 -0.327573 1.35748 
-4.6101 -0.351737 1.37972 -4.64773 -0.376228 1.40187 -4.68518 -0.401041 1.42393 
-4.72248 -0.426169 1.4459 -4.75961 -0.451607 1.46777 -4.79659 -0.47735 1.48955 
-4.83341 -0.503393 1.51123 -4.87009 -0.529731 1.53279 -4.90662 -0.556357 1.55425 
-4.94302 -0.583267 1.57559 -4.97927 -0.610456 1.59681 -5.01539 -0.637917 1.6179 
-5.05138 -0.665646 1.63887 -5.08724 -0.693637 1.65971 -5.12298 -0.721886 1.68041 
-5.1586 -0.750385 1.70098 -5.19411 -0.779132 1.7214 -5.2295 -0.808119 1.74167 
-5.26479 -0.837341 1.76179 -5.29997 -0.866794 1.78175 -5.33504 -0.896472 1.80156 
-5.37003 -0.926369 1.8212 -5.40491 -0.956483 1.84067 -5.4397 -0.986809 1.85998 
-5.47441 -1.01734 1.87912 -5.50903 -1.04808 1.89808 -5.54356 -1.07902 1.91687 
-5.57801 -1.11015 1.93549 -5.61239 -1.14148 1.95392 -5.64669 -1.17299 1.97217 
-5.68092 -1.20469 1.99024 -5.71508 -1.23657 2.00812 -5.74917 -1.26863 2.02581 
-5.78321 -1.30086 2.0433 -5.81718 -1.33325 2.06061 -5.85109 -1.36581 2.07772 
-5.88495 -1.39853 2.09463 -5.91875 -1.43141 2.11134 -5.95251 -1.46444 2.12784 
-5.98622 -1.49762 2.14414 -6.01989 -1.53095 2.16024 -6.05352 -1.56441 2.17612 
-6.08711 -1.59802 2.19179 -6.12066 -1.63175 2.20724 -6.15419 -1.66562 2.22247 
-6.18768 -1.69961 2.23748 -6.22115 -1.73373 2.25226 -6.2546 -1.76797 2.26681 
-6.28803 -1.80233 2.28113 -6.32144 -1.8368 2.2952 -6.35483 -1.87139 2.30904 
-6.38822 -1.90608 2.32264 -6.42159 -1.94087 2.33598 -6.45496 -1.97576 2.34908 
-6.48833 -2.01076 2.36192 -6.5217 -2.04584 2.37451 -6.55507 -2.08102 2.38683 
-6.58845 -2.11629 2.39889 -6.62183 -2.15164 2.41068 -6.65523 -2.18707 2.4222 
-6.68864 -2.22257 2.43345 -6.72207 -2.25816 2.44442 -6.75552 -2.29381 2.4551 
-6.78898 -2.32954 2.4655 -6.82247 -2.36533 2.47561 -6.85597 -2.40119 2.48541 
-6.88948 -2.43712 2.49492 -6.92301 -2.47312 2.50411 -6.95656 -2.50917 2.51299 
-6.99012 -2.54529 2.52156 -7.0237 -2.58147 2.5298 -7.0573 -2.61771 2.53771 
-7.0909 -2.654 2.54528 -7.12452 -2.69035 2.55251 -7.15816 -2.72676 2.5594 
-7.1918 -2.76322 2.56594 -7.22546 -2.79973 2.57213 -7.25913 -2.83629 2.57795 
-7.29282 -2.87289 2.58341 -7.32651 -2.90955 2.58849 -7.36022 -2.94625 2.5932 
-7.39393 -2.98299 2.59753 -7.42766 -3.01978 2.60147 -7.46138 -3.05661 2.60501 
-7.4951 -3.09349 2.60816 -7.5288 -3.13042 2.61089 -7.56248 -3.16739 2.61321 
-7.59614 -3.20441 2.6151 -7.62976 -3.24149 2.61656 -7.66334 -3.27861 2.61758 
-7.69687 -3.31579 2.61816 -7.73035 -3.35302 2.61828 -7.76376 -3.39031 2.61795 
-7.7971 -3.42766 2.61715 -7.83037 -3.46506 2.61587 -7.86356 -3.50252 2.61411 
-7.89665 -3.54004 2.61186 -7.92965 -3.57762 2.60912 -7.96254 -3.61527 2.60587 
-7.99532 -3.65298 2.60211 -8.02799 -3.69075 2.59783 -8.06053 -3.72859 2.59303 
-8.09293 -3.7665 2.5877 -8.12519 -3.80447 2.58183 -8.15727 -3.84252 2.57541 
-8.18916 -3.88063 2.56844 -8.22084 -3.91882 2.56092 -8.25229 -3.95708 2.55283 
-8.2835 -3.99541 2.54418 -8.31444 -4.03382 2.53495 -8.3451 -4.07231 2.52514 
-8.37545 -4.11087 2.51475 -8.40549 -4.14951 2.50376 -8.43518 -4.18823 2.49218 
-8.46451 -4.22703 2.47999 -8.49346 -4.26591 2.46718 -8.52202 -4.30488 2.45377 
-8.55016 -4.34393 2.43973 -8.57786 -4.38306 2.42506 -8.60511 -4.42229 2.40975 
-8.63189 -4.4616 2.39381 -8.65818 -4.50099 2.37722 -8.68395 -4.54048 2.35998 
-8.7092 -4.58005 2.34209 -8.73391 -4.6197 2.32358 -8.75806 -4.65943 2.30445 
-8.78163 -4.69922 2.28472 -8.80461 -4.73907 2.2644 -8.82699 -4.77897 2.2435 
-8.84874 -4.81893 2.22204 -8.86986 -4.85893 2.20002 -8.89032 -4.89897 2.17747 
-8.91011 -4.93903 2.1544 -8.92921 -4.97913 2.13082 -8.94761 -5.01924 2.10673 
-8.96529 -5.05936 2.08217 -8.98224 -5.0995 2.05713 -8.99844 -5.13963 2.03163 
-9.01387 -5.17976 2.00569 -9.02852 -5.21989 1.97931 -9.04237 -5.25999 1.95252 
-9.05541 -5.30007 1.92531 -9.06761 -5.34013 1.89772 -9.07899 -5.38015 1.86975 
-9.08955 -5.42014 1.84142 -9.09931 -5.46008 1.81274 -9.10827 -5.49999 1.78375 
-9.11645 -5.53984 1.75444 -9.12387 -5.57965 1.72484 -9.13052 -5.6194 1.69497 
-9.13643 -5.6591 1.66484 -9.14161 -5.69874 1.63448 -9.14607 -5.73831 1.60389 
-9.14982 -5.77781 1.5731 -9.15287 -5.81725 1.54212 -9.15524 -5.8566 1.51097 
-9.15693 -5.89588 1.47967 -9.15797 -5.93508 1.44824 -9.15835 -5.97419 1.41669 
-9.1581 -6.01322 1.38504 -9.15723 -6.05215 1.3533 -9.15574 -6.09098 1.3215 
-9.15365 -6.12972 1.28966 -9.15097 -6.16836 1.25777 -9.14772 -6.20689 1.22586 
-9.14391 -6.24534 1.19393 -9.13956 -6.28369 1.16198 -9.13467 -6.32196 1.13002 
-9.12927 -6.36014 1.09805 -9.12336 -6.39823 1.06609 -9.11696 -6.43625 1.03414 
-9.11009 -6.4742 1.0022 -9.10276 -6.51207 0.970281 -9.09498 -6.54987 0.93839 
-9.08677 -6.58761 0.906532 -9.07814 -6.62528 0.874713 -9.0691 -6.66289 0.84294 
-9.05967 -6.70045 0.811218 -9.04987 -6.73795 0.779554 -9.03971 -6.7754 0.747954 
-9.02919 -6.8128 0.716423 -9.01834 -6.85016 0.684969 -9.00718 -6.88748 0.653597 
-8.9957 -6.92476 0.622311 -8.98393 -6.96201 0.591108 -8.97187 -6.99921 0.559983 
-8.95953 -7.03638 0.52893 -8.94692 -7.0735 0.497944 -8.93406 -7.11059 0.46702 
-8.92094 -7.14764 0.436154 -8.90759 -7.18466 0.40534 -8.894 -7.22163 0.374572 
-8.8802 -7.25857 0.343846 -8.86618 -7.29547 0.313157 -8.85196 -7.33233 0.2825 
-8.83754 -7.36916 0.251869 -8.82294 -7.40594 0.22126 -8.80817 -7.44269 0.190667 
-8.79323 -7.4794 0.160085 -8.77814 -7.51607 0.129509 -8.76291 -7.55271 0.0989336 
-8.74753 -7.58931 0.0683545 -8.73203 -7.62586 0.0377661 -8.71641 -7.66239 0.00716549 
-8.70068 -7.69888 -0.0234337 -8.68482 -7.73535 -0.0540097 -8.66884 -7.77182 -0.0845407 
-8.65274 -7.80828 -0.115005 -8.63651 -7.84476 -0.145381 -8.62016 -7.88125 -0.175646 
-8.60367 -7.91778 -0.205779 -8.58705 -7.95436 -0.235758 -8.57029 -7.99098 -0.265561 
-8.55339 -8.02767 -0.295167 -8.53636 -8.06443 -0.324553 -8.51917 -8.10127 -0.353698 
-8.50185 -8.1382 -0.38258 -8.48437 -8.17524 -0.411177 -8.46675 -8.2124 -0.439468 
-8.44897 -8.24968 -0.46743 -8.43104 -8.28709 -0.495042 -8.41295 -8.32465 -0.522282 
-8.39469 -8.36236 -0.549128 -8.37628 -8.40024 -0.57556 -8.35772 -8.43827 -0.601596 
-8.33902 -8.47645 -0.627301 -8.32022 -8.51474 -0.652741 -8.30133 -8.55312 -0.677983 
-8.28238 -8.59158 -0.703094 -8.26339 -8.63008 -0.72814 -8.24439 -8.66861 -0.753187 
-8.22539 -8.70714 -0.778303 -8.20642 -8.74565 -0.803554 -8.18751 -8.78412 -0.829007 
-8.16867 -8.82252 -0.854728 -8.14993 -8.86084 -0.880784 -8.13132 -8.89904 -0.907242 
-8.11285 -8.93711 -0.934168 -8.09455 -8.97503 -0.961629 -8.07644 -9.01277 -0.989692 
-8.05854 -9.05031 -1.01842 -8.04088 -9.08762 -1.04789 -8.02348 -9.12469 -1.07816 
-8.00637 -9.16149 -1.10929 -7.98952 -9.19804 -1.14124 -7.97291 -9.23441 -1.17382 
-7.95648 -9.27067 -1.20682 -7.94017 -9.30688 -1.24005 -7.92394 -9.34313 -1.27329 
-7.90775 -9.37948 -1.30635 -7.89153 -9.41601 -1.33903 -7.87525 -9.45278 -1.37111 
-7.85885 -9.48987 -1.40241 -7.84227 -9.52735 -1.43272 -7.82549 -9.56529 -1.46182 
-7.80843 -9.60376 -1.48953 -7.79106 -9.64284 -1.51564 -7.77332 -9.68259 -1.53995 
-7.75517 -9.72308 -1.56225 -7.73655 -9.7644 -1.58234 -7.71742 -9.8066 -1.60002 
-7.69773 -9.84977 -1.61509 -7.67742 -9.89396 -1.62735 -7.65645 -9.93926 -1.63658 
[...]
CELL_DATA 1
FIELD FieldData 2
Length 1 1 double
63.776101023 
Tortuosity 1 1 double
0.78715746006 
POINT_DATA 1277
SCALARS MaximumInscribedSphereRadius float
LOOKUP_TABLE default
1.55 1.54111 1.53221 1.52332 1.51443 1.50554 1.49664 1.48775 1.47886 
1.46997 1.46107 1.45218 1.44329 1.4344 1.4255 1.41661 1.40772 1.39883 
1.38993 1.38104 1.37215 1.36379 1.35741 1.35103 1.34465 1.33827 1.33189 
1.32551 1.31913 1.31275 1.30637 1.29999 1.2936 1.28722 1.28084 1.27446 
1.26808 1.2617 1.25532 1.24894 1.24256 1.24 1.24 1.24 1.24 
1.24 1.24 1.24 1.24 1.24 1.24 1.24 1.24 1.24 
1.24 1.24 1.24 1.24 1.24 1.24 1.24 1.24 1.24 
1.24 1.24 1.24 1.24 1.24 1.24 1.24 1.24 1.24 
1.24 1.24 1.24 1.24 1.24 1.24 1.24 1.24 1.24 
1.24 1.24 1.24 1.24 1.24 1.24 1.24 1.24 1.24 
1.24 1.24 1.24 1.24 1.24 1.24 1.24 1.24 1.24 
1.24 1.24 1.24 1.24 1.24 1.24 1.24 1.24 1.24 
1.24 1.24 1.24 1.24 1.24 1.24 1.24 1.24 1.24 
1.24 1.24 1.24 1.24 1.24 1.24 1.24 1.24 1.24 
1.24 1.24 1.24 1.24 1.24 1.24 1.24 1.24 1.24 
1.24 1.24 1.24 1.24 1.24 1.24 1.24 1.24 1.24007 
1.24014 1.24021 1.24028 1.24035 1.24042 1.24049 1.24056 1.24064 1.24071 
1.24078 1.24085 1.24092 1.24099 1.24106 1.24113 1.2412 1.24127 1.24134 
1.24141 1.24216 1.24318 1.24419 1.24521 1.24622 1.24724 1.24825 1.24927 
1.25028 1.2513 1.25231 1.25333 1.25434 1.25536 1.25637 1.25739 1.2584 
1.25942 1.26043 1.26145 1.26217 1.26252 1.26287 1.26322 1.26357 1.26392 
1.26427 1.26462 1.26497 1.26532 1.26567 1.26602 1.26637 1.26672 1.26706 
1.26741 1.26776 1.26811 1.26846 1.26881 1.26809 1.26128 1.25447 1.24765 
1.24084 1.23402 1.22721 1.22039 1.21358 1.20677 1.19995 1.19314 1.18632 
1.17951 1.1727 1.16588 1.15907 1.15225 1.14544 1.13862 1.13181 1.13235 
1.134 1.13565 1.13731 1.13896 1.14062 1.14227 1.14392 1.14558 1.14723 
1.14888 1.15054 1.15219 1.15385 1.1555 1.15715 1.15881 1.16046 1.16212 
1.16377 1.17422 1.19022 1.20622 1.22222 1.23822 1.25422 1.27022 1.28622 
1.30222 1.31822 1.33422 1.35023 1.36623 1.38223 1.39823 1.41423 1.43023 
1.44623 1.46223 1.47823 1.48574 1.47717 1.4686 1.46002 1.45145 1.44288 
1.43431 1.42574 1.41717 1.4086 1.40003 1.39146 1.38289 1.37432 1.36574 
1.35717 1.3486 1.34003 1.33146 1.32289 1.31396 1.29933 1.2847 1.27006 
1.25543 1.2408 1.22617 1.21154 1.19691 1.18228 1.16765 1.15302 1.13839 
1.12375 1.10912 1.09449 1.07986 1.06523 1.0506 1.03597 1.02134 1.01936 
1.02106 1.02276 1.02447 1.02617 1.02787 1.02957 1.03128 1.03298 1.03468 
1.03638 1.03809 1.03979 1.04149 1.04319 1.0449 1.0466 1.0483 1.05 
1.05171 1.05565 1.06239 1.06913 1.07586 1.0826 1.08934 1.09608 1.10282 
1.10955 1.11629 1.12303 1.12977 1.13651 1.14324 1.14998 1.15672 1.16346 
1.1702 1.17693 1.18367 1.18873 1.19117 1.19362 1.19606 1.19851 1.20095 
1.20339 1.20584 1.20828 1.21073 1.21317 1.21562 1.21806 1.2205 1.22295 
1.22539 1.22784 1.23028 1.23273 1.23517 1.23761 1.24005 1.242 1.24396 
1.24591 1.24787 1.24983 1.25178 1.25374 1.25569 1.25765 1.2596 1.26156 
1.26351 1.26547 1.26743 1.26938 1.27134 1.27329 1.27741 1.28803 1.29866 
1.30928 1.3199 1.33053 1.34115 1.35177 1.3624 1.37302 1.38364 1.39427 
1.40489 1.41551 1.42614 1.43676 1.44738 1.458 1.46863 1.47925 1.48823 
1.49131 1.49439 1.49747 1.50055 1.50364 1.50672 1.5098 1.51288 1.51596 
1.51904 1.52212 1.5252 1.52828 1.53136 1.53444 1.53752 1.5406 1.54369 
1.54677 1.54985 1.55086 1.55177 1.55267 1.55358 1.55448 1.55539 1.55629 
1.5572 1.5581 1.55901 1.55991 1.56082 1.56172 1.56263 1.56353 1.56444 
1.56534 1.56625 1.56715 1.56806 1.57182 1.57725 1.58267 1.5881 1.59353 
1.59895 1.60438 1.6098 1.61523 1.62066 1.62608 1.63151 1.63693 1.64236 
1.64779 1.65321 1.65864 1.66406 1.66949 1.67491 1.68012 1.68493 1.68975 
1.69456 1.69937 1.70418 1.70899 1.7138 1.71861 1.72342 1.72823 1.73304 
1.73785 1.74266 1.74747 1.75228 1.7571 1.76191 1.76672 1.77153 1.77562 
1.76924 1.76286 1.75648 1.7501 1.74372 1.73734 1.73097 1.72459 1.71821 
1.71183 1.70545 1.69907 1.69269 1.68631 1.67993 1.67355 1.66717 1.66079 
1.65441 1.64803 1.64312 1.63862 1.63412 1.62962 1.62513 1.62063 1.61613 
1.61163 1.60713 1.60263 1.59813 1.59364 1.58914 1.58464 1.58014 1.57564 
1.57114 1.56665 1.56215 1.55765 1.55651 1.55776 1.55901 1.56026 1.56152 
1.56277 1.56402 1.56527 1.56652 1.56777 1.56902 1.57027 1.57153 1.57278 
1.57403 1.57528 1.57653 1.57778 1.57903 1.58028 1.58377 1.59225 1.60074 
1.60922 1.6177 1.62619 1.63467 1.64316 1.65164 1.66013 1.66861 1.6771 
1.68558 1.69407 1.70255 1.71103 1.71952 1.728 1.73649 1.74497 1.7533 
1.75518 1.75707 1.75895 1.76084 1.76272 1.76461 1.7665 1.76838 1.77027 
1.77215 1.77404 1.77592 1.77781 1.7797 1.78158 1.78347 1.78535 1.78724 
1.78912 1.79101 1.78572 1.77785 1.76997 1.7621 1.75423 1.74635 1.73848 
1.73061 1.72273 1.71486 1.70699 1.69911 1.69124 1.68337 1.67549 1.66762 
1.65974 1.65187 1.644 1.63612 1.62997 1.62596 1.62195 1.61793 1.61392 
1.60991 1.60589 1.60188 1.59787 1.59386 1.58984 1.58583 1.58182 1.57781 
1.57379 1.56978 1.56577 1.56175 1.55774 1.55373 1.55034 1.55032 1.5503 
1.55029 1.55027 1.55025 1.55024 1.55022 1.5502 1.55019 1.55017 1.55015 
1.55014 1.55012 1.5501 1.55009 1.55007 1.55005 1.55004 1.55002 1.55 
1.54602 1.54143 1.53684 1.53225 1.52765 1.52306 1.51847 1.51387 1.50928 
1.50469 1.50009 1.4955 1.49091 1.48631 1.48172 1.47713 1.47254 1.46794 
1.46335 1.45876 1.45234 1.44459 1.43684 1.4291 1.42135 1.4136 1.40585 
1.3981 1.39035 1.3826 1.37485 1.3671 1.35935 1.3516 1.34385 1.3361 
1.32835 1.3206 1.31285 1.3051 1.30022 1.3025 1.30478 1.30706 1.30934 
1.31162 1.3139 1.31618 1.31846 1.32074 1.32302 1.3253 1.32758 1.32986 
1.33214 1.33442 1.3367 1.33898 1.34126 1.34354 1.34582 1.35235 1.3589 
1.36545 1.372 1.37855 1.3851 1.39165 1.3982 1.40475 1.4113 1.41785 
1.4244 1.43095 1.4375 1.44405 1.4506 1.45715 1.4637 1.47026 1.47681 
1.47666 1.47372 1.47078 1.46785 1.46491 1.46198 1.45904 1.45611 1.45317 
1.45023 1.4473 1.44436 1.44143 1.43849 1.43555 1.43262 1.42968 1.42675 
1.42381 1.42087 1.41878 1.41783 1.41688 1.41594 1.41499 1.41404 1.41309 
1.41215 1.4112 1.41025 1.4093 1.40836 1.40741 1.40646 1.40551 1.40456 
1.40362 1.40267 1.40172 1.40077 1.40187 1.41442 1.42696 1.43951 1.45205 
1.4646 1.47714 1.48969 1.50223 1.51477 1.52732 1.53986 1.55241 1.56495 
1.5775 1.59004 1.60259 1.61513 1.62767 1.64022 1.65276 1.66681 1.68105 
1.6953 1.70955 1.7238 1.73805 1.7523 1.76655 1.7808 1.79505 1.8093 
1.82355 1.8378 1.85204 1.86629 1.88054 1.89479 1.90904 1.92329 1.93754 
1.95079 1.96335 1.97592 1.98849 2.00106 2.01363 2.0262 2.03877 2.05133 
2.0639 2.07647 2.08904 2.10161 2.11418 2.12675 2.13932 2.15188 2.16445 
2.17702 2.18959 2.1947 2.18315 2.1716 2.16005 2.1485 2.13695 2.1254 
2.11385 2.1023 2.09075 2.0792 2.06765 2.0561 2.04455 2.033 2.02145 
2.0099 1.99835 1.9868 1.97525 1.96364 1.94946 1.93528 1.9211 1.90692 
1.89274 1.87856 1.86438 1.8502 1.83602 1.82184 1.80765 1.79347 1.77929 
1.76511 1.75093 1.73675 1.72257 1.70839 1.69421 1.68003 1.68257 1.69123 
1.69989 1.70854 1.7172 1.72586 1.73452 1.74318 1.75184 1.7605 1.76915 
1.77781 1.78647 1.79513 1.80379 1.81245 1.8211 1.82976 1.83842 1.84708 
1.85659 1.86717 1.87776 1.88834 1.89892 1.90951 1.92009 1.93067 1.94125 
1.95184 1.96242 1.973 1.98359 1.99417 2.00475 2.01534 2.02592 2.0365 
2.04709 2.05767 2.06619 2.06318 2.06016 2.05715 2.05413 2.05112 2.0481 
2.04509 2.04207 2.03906 2.03604 2.03302 2.03001 2.02699 2.02398 2.02096 
2.01795 2.01493 2.01192 2.0089 2.00589 2.0035 2.00121 1.99893 1.99664 
1.99435 1.99206 1.98978 1.98749 1.9852 1.98292 1.98063 1.97834 1.97606 
1.97377 1.97148 1.9692 1.96691 1.96462 1.96234 1.96005 1.96298 1.96982 
1.97666 1.9835 1.99034 1.99718 2.00402 2.01086 2.0177 2.02454 2.03138 
2.03822 2.04507 2.05191 2.05875 2.06559 2.07243 2.07927 2.08611 2.09295 
2.10119 2.11302 2.12485 2.13669 2.14852 2.16035 2.17218 2.18401 2.19584 
2.20767 2.2195 2.23133 2.24316 2.25499 2.26682 2.27865 2.29048 2.30231 
2.31414 2.32597 2.3378 2.35189 2.36599 2.3801 2.3942 2.4083 2.42241 
2.43651 2.45062 2.46472 2.47882 2.49293 2.50703 2.52114 2.53524 2.54934 
2.56345 2.57755 2.59166 2.60576 2.61986 2.62288 2.62123 2.61957 2.61791 
2.61626 2.6146 2.61294 2.61129 2.60963 2.60797 2.60632 2.60466 2.603 
2.60134 2.59969 2.59803 2.59637 2.59472 2.59306 2.5914 2.58403 2.56851 
2.553 2.53749 2.52198 2.50647 2.49096 2.47545 2.45994 2.44443 2.42892 
2.4134 2.39789 2.38238 2.36687 2.35136 2.33585 2.32034 2.30483 2.28932 
2.27434 2.26319 2.25204 2.24089 2.22974 2.21859 2.20744 2.19629 2.18514 
2.17399 2.16284 2.15169 2.14054 2.12939 2.11824 2.10709 2.09594 2.08479 
2.07364 2.06249 2.05134 2.0437 2.03677 2.02984 2.02291 2.01598 2.00905 
2.00211 1.99518 1.98825 1.98132 1.97439 1.96746 1.96053 1.95359 1.94666 
1.93973 1.9328 1.92587 1.91894 1.91201 1.91172 1.91699 1.92225 1.92752 
1.93279 1.93806 1.94333 1.94859 1.95386 1.95913 1.9644 1.96966 1.97493 
1.9802 1.98547 1.99073 1.996 2.00127 2.00654 2.0118 2.01846 2.02903 
2.03961 2.05018 2.06076 2.07133 2.08191 2.09249 2.10306 2.11364 2.12421 
2.13479 2.14537 2.15594 2.16652 2.17709 2.18767 2.19825 2.20882 2.2194 
2.22997 2.24868 2.26754 2.28639 2.30525 2.3241 2.34296 2.36181 2.38067 
2.39952 2.41838 2.43723 2.45609 2.47494 2.4938 2.51265 2.53151 2.55036 
2.56922 2.58807 2.60693 2.61512 2.61883 2.62255 2.62626 2.62997 2.63369 
2.6374 2.64112 2.64483 2.64855 2.65226 2.65598 2.65969 2.66341 2.66712 
2.67083 2.67455 2.67826 2.68198 2.68569 2.68052 2.66329 2.64607 2.62885 
2.61163 2.59441 2.57718 2.55996 2.54274 2.52552 2.5083 2.49107 2.47385 
2.45663 2.43941 2.42219 2.40496 2.38774 2.37052 2.3533 2.33804 2.3354 
2.33275 2.33011 2.32746 2.32482 2.32217 2.31953 2.31688 2.31424 2.31159 
2.30895 2.3063 2.30366 2.30101 2.29837 2.29572 2.29308 2.29043 2.28779 
2.28514 2.29197 2.29995 2.30792 2.3159 2.32387 2.33184 2.33982 2.34779 
2.35576 2.36374 2.37171 2.37969 2.38766 2.39563 2.40361 2.41158 2.41955 
2.42753 2.4355 2.44348 2.44599 2.44092 2.43586 2.43079 2.42573 2.42066 
2.4156 2.41053 2.40546 2.4004 2.39533 2.39027 2.3852 2.38014 2.37507 
2.37001 2.36494 2.35987 2.35481 2.34974 2.34192 2.33333 2.32473 2.31613 
2.30754 2.29894 2.29035 2.28175 2.27315 2.26456 2.25596 2.24737 2.23877 
2.23017 2.22158 2.21298 2.20438 2.19579 2.18719 2.1786 2.17 
TEXTURE_COORDINATES TCoords 2 float
0 0 0.000783699 0 0.0015674 0 0.0023511 0 0.0031348 
0 0.0039185 0 0.00470219 0 0.00548589 0 0.00626959 0 
0.00705329 0 0.00783699 0 0.00862069 0 0.00940439 0 0.0101881 
0 0.0109718 0 0.0117555 0 0.0125392 0 0.0133229 0 
0.0141066 0 0.0148903 0 0.015674 0 0.0164577 0 0.0172414 
0 0.0180251 0 0.0188088 0 0.0195925 0 0.0203762 0 
0.0211599 0 0.0219436 0 0.0227273 0 0.023511 0 0.0242947 
0 0.0250784 0 0.0258621 0 0.0266458 0 0.0274295 0 
0.0282132 0 0.0289969 0 0.0297806 0 0.0305643 0 0.031348 
0 0.0321317 0 0.0329154 0 0.0336991 0 0.0344828 0 
0.0352665 0 0.0360502 0 0.0368339 0 0.0376176 0 0.0384013 
0 0.039185 0 0.0399687 0 0.0407524 0 0.0415361 0 
0.0423197 0 0.0431034 0 0.0438871 0 0.0446708 0 0.0454545 
0 0.0462382 0 0.0470219 0 0.0478056 0 0.0485893 0 
0.049373 0 0.0501567 0 0.0509404 0 0.0517241 0 0.0525078 
0 0.0532915 0 0.0540752 0 0.0548589 0 0.0556426 0 
0.0564263 0 0.05721 0 0.0579937 0 0.0587774 0 0.0595611 
0 0.0603448 0 0.0611285 0 0.0619122 0 0.0626959 0 
0.0634796 0 0.0642633 0 0.065047 0 0.0658307 0 0.0666144 
0 0.0673981 0 0.0681818 0 0.0689655 0 0.0697492 0 
0.0705329 0 0.0713166 0 0.0721003 0 0.072884 0 0.0736677 
0 0.0744514 0 0.0752351 0 0.0760188 0 0.0768025 0 
0.0775862 0 0.0783699 0 0.0791536 0 0.0799373 0 0.080721 
0 0.0815047 0 0.0822884 0 0.0830721 0 0.0838558 0 
0.0846395 0 0.0854232 0 0.0862069 0 0.0869906 0 0.0877743 
0 0.088558 0 0.0893417 0 0.0901254 0 0.0909091 0 
0.0916928 0 0.0924765 0 0.0932602 0 0.0940439 0 0.0948276 
0 0.0956113 0 0.096395 0 0.0971787 0 0.0979624 0 
0.0987461 0 0.0995298 0 0.100313 0 0.101097 0 0.101881 
0 0.102665 0 0.103448 0 0.104232 0 0.105016 0 
0.105799 0 0.106583 0 0.107367 0 0.10815 0 0.108934 
0 0.109718 0 0.110502 0 0.111285 0 0.112069 0 
0.112853 0 0.113636 0 0.11442 0 0.115204 0 0.115987 
0 0.116771 0 0.117555 0 0.118339 0 0.119122 0 
0.119906 0 0.12069 0 0.121473 0 0.122257 0 0.123041 
0 0.123824 0 0.124608 0 0.125392 0 0.126176 0 
0.126959 0 0.127743 0 0.128527 0 0.12931 0 0.130094 
0 0.130878 0 0.131661 0 0.132445 0 0.133229 0 
0.134013 0 0.134796 0 0.13558 0 0.136364 0 0.137147 
0 0.137931 0 0.138715 0 0.139498 0 0.140282 0 
0.141066 0 0.14185 0 0.142633 0 0.143417 0 0.144201 
0 0.144984 0 0.145768 0 0.146552 0 0.147335 0 
0.148119 0 0.148903 0 0.149687 0 0.15047 0 0.151254 
0 0.152038 0 0.152821 0 0.153605 0 0.154389 0 
0.155172 0 0.155956 0 0.15674 0 0.157524 0 0.158307 
0 0.159091 0 0.159875 0 0.160658 0 0.161442 0 
0.162226 0 0.163009 0 0.163793 0 0.164577 0 0.16536 
0 0.166144 0 0.166928 0 0.167712 0 0.168495 0 
0.169279 0 0.170063 0 0.170846 0 0.17163 0 0.172414 
0 0.173197 0 0.173981 0 0.174765 0 0.175549 0 
0.176332 0 0.177116 0 0.1779 0 0.178683 0 0.179467 
0 0.180251 0 0.181034 0 0.181818 0 0.182602 0 
0.183386 0 0.184169 0 0.184953 0 0.185737 0 0.18652 
0 0.187304 0 0.188088 0 0.188871 0 0.189655 0 
0.190439 0 0.191223 0 0.192006 0 0.19279 0 0.193574 
0 0.194357 0 0.195141 0 0.195925 0 0.196708 0 
0.197492 0 0.198276 0 0.19906 0 0.199843 0 0.200627 
0 0.201411 0 0.202194 0 0.202978 0 0.203762 0 
0.204545 0 0.205329 0 0.206113 0 0.206897 0 0.20768 
0 0.208464 0 0.209248 0 0.210031 0 0.210815 0 
0.211599 0 0.212382 0 0.213166 0 0.21395 0 0.214734 
0 0.215517 0 0.216301 0 0.217085 0 0.217868 0 
0.218652 0 0.219436 0 0.220219 0 0.221003 0 0.221787 
0 0.222571 0 0.223354 0 0.224138 0 0.224922 0 
0.225705 0 0.226489 0 0.227273 0 0.228056 0 0.22884 
0 0.229624 0 0.230408 0 0.231191 0 0.231975 0 
0.232759 0 0.233542 0 0.234326 0 0.23511 0 0.235893 
0 0.236677 0 0.237461 0 0.238245 0 0.239028 0 
0.239812 0 0.240596 0 0.241379 0 0.242163 0 0.242947 
0 0.24373 0 0.244514 0 0.245298 0 0.246082 0 
0.246865 0 0.247649 0 0.248433 0 0.249216 0 0.25 
0 0.250784 0 0.251567 0 0.252351 0 0.253135 0 
0.253918 0 0.254702 0 0.255486 0 0.25627 0 0.257053 
0 0.257837 0 0.258621 0 0.259404 0 0.260188 0 
0.260972 0 0.261755 0 0.262539 0 0.263323 0 0.264107 
0 0.26489 0 0.265674 0 0.266458 0 0.267241 0 
0.268025 0 0.268809 0 0.269592 0 0.270376 0 0.27116 
0 0.271944 0 0.272727 0 0.273511 0 0.274295 0 
0.275078 0 0.275862 0 0.276646 0 0.277429 0 0.278213 
0 0.278997 0 0.279781 0 0.280564 0 0.281348 0 
0.282132 0 0.282915 0 0.283699 0 0.284483 0 0.285266 
0 0.28605 0 0.286834 0 0.287618 0 0.288401 0 
0.289185 0 0.289969 0 0.290752 0 0.291536 0 0.29232 
0 0.293103 0 0.293887 0 0.294671 0 0.295455 0 
0.296238 0 0.297022 0 0.297806 0 0.298589 0 0.299373 
0 0.300157 0 0.30094 0 0.301724 0 0.302508 0 
0.303292 0 0.304075 0 0.304859 0 0.305643 0 0.306426 
0 0.30721 0 0.307994 0 0.308777 0 0.309561 0 
0.310345 0 0.311129 0 0.311912 0 0.312696 0 0.31348 
0 0.314263 0 0.315047 0 0.315831 0 0.316614 0 
0.317398 0 0.318182 0 0.318966 0 0.319749 0 0.320533 
0 0.321317 0 0.3221 0 0.322884 0 0.323668 0 
0.324451 0 0.325235 0 0.326019 0 0.326803 0 0.327586 
0 0.32837 0 0.329154 0 0.329937 0 0.330721 0 
0.331505 0 0.332288 0 0.333072 0 0.333856 0 0.334639 
0 0.335423 0 0.336207 0 0.336991 0 0.337774 0 
0.338558 0 0.339342 0 0.340125 0 0.340909 0 0.341693 
0 0.342476 0 0.34326 0 0.344044 0 0.344828 0 
0.345611 0 0.346395 0 0.347179 0 0.347962 0 0.348746 
0 0.34953 0 0.350313 0 0.351097 0 0.351881 0 
0.352665 0 0.353448 0 0.354232 0 0.355016 0 0.355799 
0 0.356583 0 0.357367 0 0.35815 0 0.358934 0 
0.359718 0 0.360502 0 0.361285 0 0.362069 0 0.362853 
0 0.363636 0 0.36442 0 0.365204 0 0.365987 0 
0.366771 0 0.367555 0 0.368339 0 0.369122 0 0.369906 
0 0.37069 0 0.371473 0 0.372257 0 0.373041 0 
0.373824 0 0.374608 0 0.375392 0 0.376176 0 0.376959 
0 0.377743 0 0.378527 0 0.37931 0 0.380094 0 
0.380878 0 0.381661 0 0.382445 0 0.383229 0 0.384013 
0 0.384796 0 0.38558 0 0.386364 0 0.387147 0 
0.387931 0 0.388715 0 0.389498 0 0.390282 0 0.391066 
0 0.39185 0 0.392633 0 0.393417 0 0.394201 0 
0.394984 0 0.395768 0 0.396552 0 0.397335 0 0.398119 
0 0.398903 0 0.399687 0 0.40047 0 0.401254 0 
0.402038 0 0.402821 0 0.403605 0 0.404389 0 0.405172 
0 0.405956 0 0.40674 0 0.407524 0 0.408307 0 
0.409091 0 0.409875 0 0.410658 0 0.411442 0 0.412226 
0 0.413009 0 0.413793 0 0.414577 0 0.415361 0 
0.416144 0 0.416928 0 0.417712 0 0.418495 0 0.419279 
0 0.420063 0 0.420846 0 0.42163 0 0.422414 0 
0.423197 0 0.423981 0 0.424765 0 0.425549 0 0.426332 
0 0.427116 0 0.4279 0 0.428683 0 0.429467 0 
0.430251 0 0.431034 0 0.431818 0 0.432602 0 0.433386 
0 0.434169 0 0.434953 0 0.435737 0 0.43652 0 
0.437304 0 0.438088 0 0.438871 0 0.439655 0 0.440439 
0 0.441223 0 0.442006 0 0.44279 0 0.443574 0 
0.444357 0 0.445141 0 0.445925 0 0.446708 0 0.447492 
0 0.448276 0 0.44906 0 0.449843 0 0.450627 0 
0.451411 0 0.452194 0 0.452978 0 0.453762 0 0.454545 
0 0.455329 0 0.456113 0 0.456897 0 0.45768 0 
0.458464 0 0.459248 0 0.460031 0 0.460815 0 0.461599 
0 0.462382 0 0.463166 0 0.46395 0 0.464734 0 
0.465517 0 0.466301 0 0.467085 0 0.467868 0 0.468652 
0 0.469436 0 0.470219 0 0.471003 0 0.471787 0 
0.472571 0 0.473354 0 0.474138 0 0.474922 0 0.475705 
0 0.476489 0 0.477273 0 0.478056 0 0.47884 0 
0.479624 0 0.480408 0 0.481191 0 0.481975 0 0.482759 
0 0.483542 0 0.484326 0 0.48511 0 0.485893 0 
0.486677 0 0.487461 0 0.488245 0 0.489028 0 0.489812 
0 0.490596 0 0.491379 0 0.492163 0 0.492947 0 
0.49373 0 0.494514 0 0.495298 0 0.496082 0 0.496865 
0 0.497649 0 0.498433 0 0.499216 0 0.5 0 
0.500784 0 0.501567 0 0.502351 0 0.503135 0 0.503918 
0 0.504702 0 0.505486 0 0.50627 0 0.507053 0 
0.507837 0 0.508621 0 0.509404 0 0.510188 0 0.510972 
0 0.511755 0 0.512539 0 0.513323 0 0.514107 0 
0.51489 0 0.515674 0 0.516458 0 0.517241 0 0.518025 
0 0.518809 0 0.519592 0 0.520376 0 0.52116 0 
0.521944 0 0.522727 0 0.523511 0 0.524295 0 0.525078 
0 0.525862 0 0.526646 0 0.527429 0 0.528213 0 
0.528997 0 0.529781 0 0.530564 0 0.531348 0 0.532132 
0 0.532915 0 0.533699 0 0.534483 0 0.535266 0 
0.53605 0 0.536834 0 0.537618 0 0.538401 0 0.539185 
0 0.539969 0 0.540752 0 0.541536 0 0.54232 0 
0.543103 0 0.543887 0 0.544671 0 0.545455 0 0.546238 
0 0.547022 0 0.547806 0 0.548589 0 0.549373 0 
0.550157 0 0.55094 0 0.551724 0 0.552508 0 0.553292 
0 0.554075 0 0.554859 0 0.555643 0 0.556426 0 
0.55721 0 0.557994 0 0.558777 0 0.559561 0 0.560345 
0 0.561128 0 0.561912 0 0.562696 0 0.56348 0 
0.564263 0 0.565047 0 0.565831 0 0.566614 0 0.567398 
0 0.568182 0 0.568965 0 0.569749 0 0.570533 0 
0.571317 0 0.5721 0 0.572884 0 0.573668 0 0.574451 
0 0.575235 0 0.576019 0 0.576802 0 0.577586 0 
0.57837 0 0.579154 0 0.579937 0 0.580721 0 0.581505 
0 0.582288 0 0.583072 0 0.583856 0 0.584639 0 
0.585423 0 0.586207 0 0.586991 0 0.587774 0 0.588558 
0 0.589342 0 0.590125 0 0.590909 0 0.591693 0 
0.592476 0 0.59326 0 0.594044 0 0.594828 0 0.595611 
0 0.596395 0 0.597179 0 0.597962 0 0.598746 0 
0.59953 0 0.600313 0 0.601097 0 0.601881 0 0.602665 
0 0.603448 0 0.604232 0 0.605016 0 0.605799 0 
0.606583 0 0.607367 0 0.60815 0 0.608934 0 0.609718 
0 0.610502 0 0.611285 0 0.612069 0 0.612853 0 
0.613636 0 0.61442 0 0.615204 0 0.615987 0 0.616771 
0 0.617555 0 0.618339 0 0.619122 0 0.619906 0 
0.62069 0 0.621473 0 0.622257 0 0.623041 0 0.623824 
0 0.624608 0 0.625392 0 0.626176 0 0.626959 0 
0.627743 0 0.628527 0 0.62931 0 0.630094 0 0.630878 
0 0.631661 0 0.632445 0 0.633229 0 0.634013 0 
0.634796 0 0.63558 0 0.636364 0 0.637147 0 0.637931 
0 0.638715 0 0.639498 0 0.640282 0 0.641066 0 
0.64185 0 0.642633 0 0.643417 0 0.644201 0 0.644984 
0 0.645768 0 0.646552 0 0.647335 0 0.648119 0 
0.648903 0 0.649687 0 0.65047 0 0.651254 0 0.652038 
0 0.652821 0 0.653605 0 0.654389 0 0.655172 0 
0.655956 0 0.65674 0 0.657524 0 0.658307 0 0.659091 
0 0.659875 0 0.660658 0 0.661442 0 0.662226 0 
0.663009 0 0.663793 0 0.664577 0 0.665361 0 0.666144 
0 0.666928 0 0.667712 0 0.668495 0 0.669279 0 
0.670063 0 0.670846 0 0.67163 0 0.672414 0 0.673198 
0 0.673981 0 0.674765 0 0.675549 0 0.676332 0 
0.677116 0 0.6779 0 0.678683 0 0.679467 0 0.680251 
0 0.681035 0 0.681818 0 0.682602 0 0.683386 0 
0.684169 0 0.684953 0 0.685737 0 0.68652 0 0.687304 