# vtk DataFile Version 4.2
vtk output
ASCII
DATASET POLYDATA
POINTS 1279 float
0 0 0 -0.000988147 0.00240709 0.00328078 -0.00387712 0.00941413 0.012847 
-0.00855374 0.0206998 0.0282847 -0.0149048 0.0359426 0.0491795 -0.0228171 0.0548214 0.0751174 
-0.0321775 0.0770148 0.105684 -0.0428727 0.102201 0.140466 -0.0547896 0.13006 0.179048 
-0.067815 0.160269 0.221017 -0.0818357 0.192507 0.265959 -0.0967385 0.226452 0.313459 
-0.11241 0.261785 0.363103 -0.128738 0.298182 0.414477 -0.145607 0.335323 0.467167 
-0.162907 0.372887 0.520758 -0.180522 0.410552 0.574838 -0.19834 0.447996 0.628991 
-0.216248 0.484899 0.682803 -0.234133 0.520938 0.735861 -0.251881 0.555794 0.78775 
-0.269388 0.589169 0.838088 -0.286634 0.62101 0.886805 -0.303646 0.651404 0.934009 
-0.320455 0.680437 0.979808 -0.337087 0.708195 1.02431 -0.353572 0.734765 1.06762 
-0.369938 0.760233 1.10986 -0.386213 0.784687 1.15112 -0.402427 0.808213 1.19153 
-0.418606 0.830898 1.23118 -0.434781 0.852828 1.27018 -0.450979 0.87409 1.30865 
-0.46723 0.894771 1.34669 -0.48356 0.914957 1.38441 -0.5 0.934735 1.42193 
-0.516577 0.954192 1.45934 -0.53332 0.973414 1.49676 -0.550257 0.992487 1.53429 
-0.567417 1.0115 1.57205 -0.584829 1.03054 1.61014 -0.602519 1.04969 1.64868 
-0.620502 1.06898 1.68769 -0.638767 1.08841 1.72717 -0.657307 1.10794 1.76708 
-0.676113 1.12756 1.80739 -0.695175 1.14723 1.84806 -0.714485 1.16695 1.88907 
-0.734033 1.18668 1.93039 -0.753811 1.2064 1.97198 -0.77381 1.22609 2.01381 
-0.79402 1.24573 2.05586 -0.814433 1.26529 2.09809 -0.83504 1.28476 2.14048 
-0.855832 1.3041 2.18298 -0.8768 1.3233 2.22557 -0.897934 1.34233 2.26823 
-0.919227 1.36117 2.31091 -0.940668 1.3798 2.35358 -0.962249 1.39819 2.39623 
-0.983962 1.41633 2.43881 -1.0058 1.43418 2.48129 -1.02775 1.45174 2.52366 
-1.04981 1.46901 2.56591 -1.072 1.48598 2.60806 -1.0943 1.50268 2.65011 
-1.11672 1.51911 2.69206 -1.13927 1.53526 2.73393 -1.16194 1.55116 2.77571 
-1.18473 1.5668 2.81743 -1.20765 1.58219 2.85907 -1.2307 1.59734 2.90066 
-1.25388 1.61225 2.94219 -1.27719 1.62694 2.98368 -1.30063 1.6414 3.02513 
-1.32421 1.65565 3.06655 -1.34792 1.66968 3.10794 -1.37176 1.68351 3.14931 
-1.39575 1.69714 3.19067 -1.41988 1.71059 3.23203 -1.44414 1.72384 3.27339 
-1.46855 1.73692 3.31475 -1.49311 1.74983 3.35613 -1.51781 1.76256 3.39753 
-1.54265 1.77512 3.43893 -1.56763 1.7875 3.48034 -1.59275 1.79971 3.52176 
-1.61801 1.81173 3.56317 -1.64342 1.82358 3.60458 -1.66896 1.83524 3.64599 
-1.69463 1.84671 3.68739 -1.72044 1.858 3.72877 -1.74639 1.8691 3.77014 
-1.77247 1.88001 3.81149 -1.79869 1.89073 3.85282 -1.82503 1.90125 3.89413 
-1.85151 1.91158 3.9354 -1.87812 1.92171 3.97664 -1.90486 1.93164 4.01785 
-1.93172 1.94137 4.05902 -1.95871 1.9509 4.10015 -1.98583 1.96022 4.14124 
-2.01308 1.96934 4.18227 -2.04045 1.97825 4.22326 -2.06794 1.98695 4.2642 
-2.09556 1.99544 4.30508 -2.1233 2.00373 4.34592 -2.15117 2.01182 4.3867 
-2.17916 2.0197 4.42743 -2.20728 2.02737 4.4681 -2.23552 2.03483 4.50872 
-2.26389 2.04209 4.54929 -2.29238 2.04915 4.5898 -2.321 2.056 4.63025 
-2.34974 2.06264 4.67064 -2.3786 2.06908 4.71098 -2.40759 2.07532 4.75126 
-2.4367 2.08135 4.79148 -2.46594 2.08718 4.83164 -2.49531 2.0928 4.87173 
-2.52479 2.09822 4.91177 -2.5544 2.10343 4.95174 -2.58414 2.10844 4.99165 
-2.614 2.11325 5.0315 -2.64398 2.11785 5.07128 -2.67409 2.12225 5.111 
-2.70432 2.12644 5.15064 -2.73468 2.13043 5.19021 -2.76516 2.1342 5.22971 
-2.79576 2.13777 5.26914 -2.82649 2.14113 5.30849 -2.85734 2.14428 5.34776 
-2.88832 2.14721 5.38695 -2.91942 2.14994 5.42606 -2.95064 2.15245 5.46508 
-2.98198 2.15475 5.50403 -3.01345 2.15683 5.54288 -3.04504 2.1587 5.58165 
-3.07676 2.16035 5.62032 -3.10859 2.16178 5.65891 -3.14055 2.163 5.69739 
-3.17264 2.164 5.73579 -3.20484 2.16478 5.77409 -3.23717 2.16534 5.81228 
-3.26962 2.16567 5.85038 -3.3022 2.16579 5.88837 -3.33489 2.16568 5.92626 
-3.36771 2.16535 5.96404 -3.40065 2.16479 6.00171 -3.43372 2.164 6.03927 
-3.4669 2.16298 6.07671 -3.50021 2.16174 6.11404 -3.53364 2.16026 6.15125 
-3.56719 2.15856 6.18834 -3.60087 2.15662 6.2253 -3.63466 2.15444 6.26214 
-3.66858 2.15204 6.29886 -3.70262 2.14939 6.33544 -3.73678 2.14651 6.3719 
-3.77106 2.14339 6.40822 -3.80547 2.14003 6.44441 -3.83999 2.13643 6.48046 
-3.87464 2.13259 6.51637 -3.90941 2.1285 6.55213 -3.9443 2.12418 6.58776 
-3.97931 2.1196 6.62323 -4.01444 2.11478 6.65856 -4.04969 2.10971 6.69373 
-4.08506 2.10439 6.72874 -4.12054 2.09881 6.7636 -4.15615 2.09298 6.79829 
-4.19187 2.0869 6.83282 -4.22771 2.08056 6.86718 -4.26367 2.07396 6.90137 
-4.29974 2.0671 6.93538 -4.33593 2.05998 6.96921 -4.37223 2.0526 7.00287 
-4.40865 2.04495 7.03634 -4.44519 2.03704 7.06963 -4.48183 2.02885 7.10273 
-4.51859 2.0204 7.13563 -4.55547 2.01168 7.16834 -4.59245 2.00268 7.20085 
-4.62955 1.99341 7.23316 -4.66676 1.98387 7.26526 -4.70408 1.97404 7.29716 
-4.7415 1.96394 7.32885 -4.77904 1.95356 7.36031 -4.81668 1.94289 7.39156 
-4.85442 1.93195 7.42259 -4.89226 1.92071 7.45338 -4.93021 1.90919 7.48395 
-4.96825 1.89739 7.51428 -5.0064 1.88529 7.54438 -5.04464 1.87291 7.57423 
-5.08297 1.86023 7.60383 -5.1214 1.84726 7.63318 -5.15992 1.83399 7.66228 
-5.19853 1.82043 7.69112 -5.23723 1.80657 7.7197 -5.27601 1.79241 7.74802 
-5.31489 1.77794 7.77606 -5.35385 1.76318 7.80384 -5.39289 1.74811 7.83133 
-5.43201 1.73274 7.85855 -5.47121 1.71706 7.88548 -5.51049 1.70107 7.91212 
-5.54984 1.68478 7.93847 -5.58927 1.66819 7.96453 -5.62875 1.65128 7.99028 
-5.66831 1.63408 8.01574 -5.70792 1.61656 8.04089 -5.7476 1.59874 8.06572 
-5.78733 1.58061 8.09025 -5.82711 1.56217 8.11445 -5.86694 1.54343 8.13833 
-5.90682 1.52438 8.16189 -5.94674 1.50502 8.18512 -5.98671 1.48536 8.20802 
-6.02671 1.46539 8.23058 -6.06675 1.44511 8.2528 -6.10683 1.42452 8.27468 
-6.14693 1.40362 8.29621 -6.18706 1.38242 8.31738 -6.22721 1.3609 8.33821 
-6.26739 1.33908 8.35867 -6.30758 1.31696 8.37878 -6.34779 1.29453 8.39852 
-6.388 1.2718 8.4179 -6.42822 1.24877 8.43691 -6.46845 1.22544 8.45556 
-6.50867 1.20182 8.47383 -6.54888 1.17791 8.49173 -6.58909 1.1537 8.50925 
-6.62929 1.12921 8.52639 -6.66947 1.10443 8.54316 -6.70963 1.07936 8.55954 
-6.74977 1.05402 8.57553 -6.78988 1.02839 8.59114 -6.82996 1.00248 8.60635 
-6.87 0.976291 8.62118 -6.91001 0.949829 8.63561 -6.94998 0.923095 8.64964 
-6.9899 0.896089 8.66328 -7.02977 0.868815 8.67651 -7.06959 0.841274 8.68934 
-7.10935 0.813471 8.70177 -7.14906 0.785409 8.7138 -7.18871 0.757094 8.72542 
-7.22829 0.728527 8.73665 -7.26781 0.699714 8.74748 -7.30725 0.670659 8.75791 
-7.34663 0.641365 8.76794 -7.38592 0.611835 8.77757 -7.42514 0.582075 8.78681 
-7.46428 0.552088 8.79565 -7.50334 0.521878 8.80409 -7.54231 0.491448 8.81214 
-7.58118 0.460803 8.81979 -7.61997 0.429946 8.82705 -7.65866 0.398882 8.83392 
-7.69725 0.367615 8.84039 -7.73574 0.336147 8.84647 -7.77413 0.304484 8.85216 
-7.81241 0.272629 8.85746 -7.85058 0.240586 8.86237 -7.88863 0.208359 8.86689 
-7.92658 0.175952 8.87102 -7.96442 0.14337 8.87478 -8.00214 0.110616 8.87815 
-8.03975 0.0776947 8.88115 -8.07724 0.0446102 8.88377 -8.11461 0.0113665 8.88602 
-8.15187 -0.0220323 8.8879 -8.18901 -0.055582 8.88941 -8.22604 -0.0892786 8.89056 
-8.26294 -0.123118 8.89135 -8.29972 -0.157096 8.89178 -8.33638 -0.191208 8.89185 
-8.37291 -0.225451 8.89157 -8.40932 -0.25982 8.89094 -8.44561 -0.294311 8.88996 
-8.48177 -0.32892 8.88863 -8.51781 -0.363643 8.88696 -8.55372 -0.398476 8.88495 
-8.58949 -0.433415 8.8826 -8.62515 -0.468456 8.87991 -8.66067 -0.503597 8.87689 
-8.69606 -0.538835 8.87354 -8.73133 -0.574166 8.86986 -8.76647 -0.609587 8.86586 
-8.80148 -0.645096 8.86153 -8.83637 -0.68069 8.85689 -8.87113 -0.716364 8.85193 
-8.90576 -0.752117 8.84665 -8.94026 -0.787945 8.84106 -8.97464 -0.823845 8.83516 
-9.0089 -0.859814 8.82896 -9.04302 -0.895849 8.82245 -9.07703 -0.931947 8.81564 
-9.1109 -0.968105 8.80853 -9.14466 -1.00432 8.80112 -9.17828 -1.04059 8.79342 
-9.21178 -1.07691 8.78543 -9.24516 -1.11328 8.77715 -9.27841 -1.14969 8.76859 
-9.31154 -1.18614 8.75974 -9.34455 -1.22264 8.75061 -9.37744 -1.25917 8.74121 
-9.4102 -1.29574 8.73152 -9.44284 -1.33234 8.72156 -9.47536 -1.36897 8.71132 
-9.50776 -1.40563 8.70082 -9.54004 -1.44232 8.69004 -9.57221 -1.47903 8.67899 
-9.60425 -1.51577 8.66768 -9.63618 -1.55252 8.65611 -9.66799 -1.5893 8.64427 
-9.69969 -1.62608 8.63217 -9.73127 -1.66289 8.61981 -9.76274 -1.6997 8.6072 
-9.79409 -1.73652 8.59434 -9.82533 -1.77335 8.58122 -9.85646 -1.81018 8.56785 
-9.88748 -1.84702 8.55423 -9.91838 -1.88386 8.54036 -9.94917 -1.92069 8.52625 
-9.97986 -1.95752 8.5119 -10.0104 -1.99435 8.4973 -10.0409 -2.03117 8.48246 
-10.0712 -2.06798 8.46738 -10.1015 -2.10478 8.45206 -10.1316 -2.14157 8.43649 
-10.1616 -2.17835 8.42069 -10.1916 -2.21511 8.40465 -10.2214 -2.25185 8.38838 
-10.2511 -2.28858 8.37187 -10.2807 -2.32529 8.35512 -10.3102 -2.36198 8.33814 
-10.3395 -2.39864 8.32092 -10.3688 -2.43528 8.30348 -10.398 -2.4719 8.2858 
-10.427 -2.50848 8.26789 -10.456 -2.54504 8.24975 -10.4848 -2.58157 8.23138 
-10.5136 -2.61806 8.21278 -10.5422 -2.65452 8.19396 -10.5708 -2.69095 8.17491 
-10.5992 -2.72734 8.15564 -10.6275 -2.76369 8.13613 -10.6557 -2.8 8.11641 
-10.6838 -2.83627 8.09645 -10.7118 -2.87249 8.07627 -10.7397 -2.90868 8.05586 
-10.7675 -2.94481 8.03523 -10.7952 -2.9809 8.01438 -10.8228 -3.01695 7.9933 
-10.8502 -3.05294 7.97199 -10.8776 -3.08888 7.95046 -10.9048 -3.12477 7.92871 
-10.932 -3.16061 7.90673 -10.959 -3.19638 7.88453 -10.9859 -3.23211 7.8621 
-11.0127 -3.26777 7.83946 -11.0394 -3.30338 7.81659 -11.066 -3.33892 7.79349 
-11.0925 -3.3744 7.77018 -11.1189 -3.40982 7.74664 -11.1451 -3.44517 7.72288 
-11.1713 -3.48046 7.69889 -11.1973 -3.51568 7.67469 -11.2232 -3.55083 7.65026 
-11.249 -3.58591 7.6256 -11.2747 -3.62092 7.60073 -11.3003 -3.65585 7.57563 
-11.3257 -3.69071 7.5503 -11.351 -3.72549 7.52476 -11.3763 -3.7602 7.49899 
-11.4013 -3.79483 7.47299 -11.4263 -3.82938 7.44678 -11.4511 -3.86385 7.42033 
-11.4758 -3.89823 7.39367 -11.5004 -3.93254 7.36678 -11.5249 -3.96675 7.33966 
[...]
CELL_DATA 1
FIELD FieldData 2
Length 1 1 double
63.924881869 
Tortuosity 1 1 double
0.94567405269 
POINT_DATA 1279
SCALARS MaximumInscribedSphereRadius float
LOOKUP_TABLE default
1.116 1.10317 1.09034 1.07751 1.06467 1.05184 1.03901 1.02618 1.01335 
1.00052 0.987686 0.974854 0.962023 0.949191 0.93636 0.923528 0.910697 0.897865 
0.885034 0.872203 0.859371 0.848225 0.837746 0.827266 0.816787 0.806307 0.795828 
0.785348 0.774868 0.764389 0.753909 0.74343 0.73295 0.722471 0.711991 0.701512 
0.691032 0.680552 0.670073 0.659593 0.649114 0.649625 0.664914 0.680203 0.695492 
0.710781 0.726069 0.741358 0.756647 0.771936 0.787225 0.802514 0.817803 0.833091 
0.84838 0.863669 0.878958 0.894247 0.909536 0.924825 0.940113 0.955232 0.969329 
0.983426 0.997523 1.01162 1.02572 1.03981 1.05391 1.06801 1.0821 1.0962 
1.1103 1.1244 1.13849 1.15259 1.16669 1.18078 1.19488 1.20898 1.22307 
1.23717 1.23923 1.23927 1.23931 1.23935 1.23939 1.23943 1.23947 1.23951 
1.23955 1.23959 1.23963 1.23967 1.23971 1.23975 1.23979 1.23983 1.23986 
1.2399 1.23994 1.23998 1.23986 1.23963 1.23939 1.23915 1.23892 1.23868 
1.23844 1.2382 1.23797 1.23773 1.23749 1.23726 1.23702 1.23678 1.23655 
1.23631 1.23607 1.23583 1.2356 1.23536 1.23305 1.22551 1.21798 1.21044 
1.2029 1.19537 1.18783 1.1803 1.17276 1.16522 1.15769 1.15015 1.14262 
1.13508 1.12755 1.12001 1.11247 1.10494 1.0974 1.08987 1.08233 1.07512 
1.06792 1.06071 1.0535 1.0463 1.03909 1.03188 1.02468 1.01747 1.01026 
1.00306 0.995851 0.988644 0.981437 0.974231 0.967024 0.959817 0.952611 0.945404 
0.938197 0.941674 0.949459 0.957245 0.96503 0.972815 0.980601 0.988386 0.996171 
1.00396 1.01174 1.01953 1.02731 1.0351 1.04288 1.05067 1.05845 1.06624 
1.07403 1.08181 1.0896 1.09716 1.10442 1.11169 1.11896 1.12622 1.13349 
1.14075 1.14802 1.15528 1.16255 1.16981 1.17708 1.18434 1.19161 1.19887 
1.20614 1.2134 1.22067 1.22793 1.2352 1.24159 1.24263 1.24367 1.24472 
1.24576 1.2468 1.24785 1.24889 1.24994 1.25098 1.25202 1.25307 1.25411 
1.25515 1.2562 1.25724 1.25828 1.25933 1.26037 1.26141 1.26246 1.26322 
1.26394 1.26465 1.26537 1.26608 1.26679 1.26751 1.26822 1.26894 1.26965 
1.27037 1.27108 1.2718 1.27251 1.27323 1.27394 1.27466 1.27537 1.27609 
1.2768 1.27711 1.27712 1.27712 1.27713 1.27713 1.27713 1.27714 1.27714 
1.27715 1.27715 1.27716 1.27716 1.27717 1.27717 1.27717 1.27718 1.27718 
1.27719 1.27719 1.2772 1.27707 1.2766 1.27614 1.27568 1.27521 1.27475 
1.27428 1.27382 1.27335 1.27289 1.27242 1.27196 1.2715 1.27103 1.27057 
1.2701 1.26964 1.26917 1.26871 1.26825 1.26778 1.26682 1.26586 1.2649 
1.26395 1.26299 1.26203 1.26107 1.26011 1.25915 1.25819 1.25723 1.25627 
1.25531 1.25435 1.25339 1.25243 1.25147 1.25052 1.24956 1.2486 1.24537 
1.24123 1.23708 1.23293 1.22879 1.22464 1.2205 1.21635 1.21221 1.20806 
1.20391 1.19977 1.19562 1.19148 1.18733 1.18319 1.17904 1.17489 1.17075 
1.1666 1.16145 1.15492 1.1484 1.14188 1.13536 1.12883 1.12231 1.11579 
1.10927 1.10274 1.09622 1.0897 1.08318 1.07665 1.07013 1.06361 1.05708 
1.05056 1.04404 1.03752 1.03155 1.02899 1.02643 1.02388 1.02132 1.01876 
1.01621 1.01365 1.01109 1.00854 1.00598 1.00342 1.00086 0.998308 0.995752 
0.993195 0.990638 0.988082 0.985525 0.982968 0.980412 0.98002 0.979998 0.979976 
0.979955 0.979933 0.979912 0.97989 0.979868 0.979847 0.979825 0.979804 0.979782 
0.97976 0.979739 0.979717 0.979696 0.979674 0.979653 0.979631 0.979609 0.985798 
0.996724 1.00765 1.01858 1.0295 1.04043 1.05135 1.06228 1.07321 1.08413 
1.09506 1.10598 1.11691 1.12784 1.13876 1.14969 1.16061 1.17154 1.18247 
1.19339 1.20578 1.22188 1.23798 1.25409 1.27019 1.28629 1.30239 1.3185 
1.3346 1.3507 1.36681 1.38291 1.39901 1.41512 1.43122 1.44732 1.46342 
1.47953 1.49563 1.51173 1.52784 1.52443 1.52094 1.51745 1.51395 1.51046 
1.50697 1.50347 1.49998 1.49649 1.49299 1.4895 1.48601 1.48252 1.47902 
1.47553 1.47204 1.46854 1.46505 1.46156 1.45806 1.45201 1.44492 1.43782 
1.43073 1.42363 1.41654 1.40944 1.40234 1.39525 1.38815 1.38106 1.37396 
1.36687 1.35977 1.35267 1.34558 1.33848 1.33139 1.32429 1.3172 1.31088 
1.30561 1.30034 1.29508 1.28981 1.28455 1.27928 1.27401 1.26875 1.26348 
1.25822 1.25295 1.24768 1.24242 1.23715 1.23188 1.22662 1.22135 1.21609 
1.21082 1.20575 1.20192 1.1981 1.19427 1.19044 1.18661 1.18278 1.17895 
1.17513 1.1713 1.16747 1.16364 1.15981 1.15598 1.15216 1.14833 1.1445 
1.14067 1.13684 1.13301 1.12919 1.13193 1.13582 1.13971 1.1436 1.14749 
1.15138 1.15527 1.15916 1.16305 1.16694 1.17083 1.17472 1.17861 1.1825 
1.18639 1.19028 1.19417 1.19806 1.20195 1.20584 1.20938 1.21265 1.21592 
1.21918 1.22245 1.22572 1.22899 1.23226 1.23553 1.23879 1.24206 1.24533 
1.2486 1.25187 1.25514 1.2584 1.26167 1.26494 1.26821 1.27148 1.2736 
1.27279 1.27197 1.27116 1.27034 1.26953 1.26872 1.2679 1.26709 1.26627 
1.26546 1.26464 1.26383 1.26302 1.2622 1.26139 1.26057 1.25976 1.25894 
1.25813 1.25731 1.25616 1.25501 1.25385 1.2527 1.25154 1.25039 1.24923 
1.24808 1.24692 1.24577 1.24461 1.24346 1.2423 1.24115 1.23999 1.23884 
1.23768 1.23653 1.23537 1.23422 1.22864 1.22125 1.21386 1.20647 1.19908 
1.19169 1.1843 1.17691 1.16952 1.16213 1.15474 1.14735 1.13996 1.13257 
1.12518 1.11779 1.1104 1.10301 1.09562 1.08823 1.08126 1.07486 1.06846 
1.06206 1.05567 1.04927 1.04287 1.03647 1.03007 1.02368 1.01728 1.01088 
1.00448 0.998082 0.991684 0.985286 0.978888 0.972489 0.966091 0.959693 0.95657 
0.974111 0.991653 1.00919 1.02674 1.04428 1.06182 1.07936 1.0969 1.11445 
1.13199 1.14953 1.16707 1.18461 1.20215 1.2197 1.23724 1.25478 1.27232 
1.28986 1.3074 1.31999 1.33173 1.34346 1.35519 1.36693 1.37866 1.3904 
1.40213 1.41386 1.4256 1.43733 1.44906 1.4608 1.47253 1.48426 1.496 
1.50773 1.51946 1.5312 1.54293 1.54856 1.54951 1.55046 1.5514 1.55235 
1.55329 1.55424 1.55519 1.55613 1.55708 1.55802 1.55897 1.55992 1.56086 
1.56181 1.56275 1.5637 1.56465 1.56559 1.56654 1.57018 1.58047 1.59075 
1.60104 1.61133 1.62162 1.63191 1.6422 1.65248 1.66277 1.67306 1.68335 
1.69364 1.70393 1.71421 1.7245 1.73479 1.74508 1.75537 1.76566 1.77591 
1.77562 1.77533 1.77504 1.77476 1.77447 1.77418 1.77389 1.7736 1.77331 
1.77303 1.77274 1.77245 1.77216 1.77187 1.77158 1.77129 1.77101 1.77072 
1.77043 1.77014 1.76493 1.75779 1.75065 1.74352 1.73638 1.72924 1.7221 
1.71497 1.70783 1.70069 1.69355 1.68641 1.67928 1.67214 1.665 1.65786 
1.65073 1.64359 1.63645 1.62931 1.62637 1.62893 1.63149 1.63406 1.63662 
1.63918 1.64175 1.64431 1.64687 1.64944 1.652 1.65457 1.65713 1.65969 
1.66226 1.66482 1.66738 1.66995 1.67251 1.67507 1.67822 1.6848 1.69139 
1.69797 1.70455 1.71113 1.71771 1.72429 1.73087 1.73745 1.74403 1.75061 
1.75719 1.76378 1.77036 1.77694 1.78352 1.7901 1.79668 1.80326 1.80984 
1.81285 1.81528 1.8177 1.82013 1.82256 1.82499 1.82741 1.82984 1.83227 
1.83469 1.83712 1.83955 1.84198 1.8444 1.84683 1.84926 1.85169 1.85411 
1.85654 1.85897 1.85997 1.85993 1.85988 1.85983 1.85978 1.85974 1.85969 
1.85964 1.85959 1.85955 1.8595 1.85945 1.8594 1.85936 1.85931 1.85926 
1.85922 1.85917 1.85912 1.85907 1.85756 1.85244 1.84732 1.8422 1.83708 
1.83196 1.82684 1.82172 1.8166 1.81148 1.80636 1.80124 1.79612 1.791 
1.78588 1.78076 1.77564 1.77052 1.76541 1.76029 1.75515 1.74641 1.73767 
1.72892 1.72018 1.71143 1.70269 1.69395 1.6852 1.67646 1.66771 1.65897 
1.65023 1.64148 1.63274 1.62399 1.61525 1.60651 1.59776 1.58902 1.58027 
1.57178 1.56338 1.55499 1.54659 1.53819 1.5298 1.5214 1.513 1.50461 
1.49621 1.48781 1.47942 1.47102 1.46262 1.45422 1.44583 1.43743 1.42903 
1.42064 1.41224 1.40697 1.4058 1.40464 1.40348 1.40232 1.40115 1.39999 
1.39883 1.39766 1.3965 1.39534 1.39418 1.39301 1.39185 1.39069 1.38952 
1.38836 1.3872 1.38603 1.38487 1.38676 1.40638 1.42599 1.44561 1.46522 
1.48484 1.50445 1.52406 1.54368 1.56329 1.58291 1.60252 1.62214 1.64175 
1.66136 1.68098 1.70059 1.72021 1.73982 1.75944 1.77905 1.78814 1.79552 
1.80289 1.81027 1.81765 1.82503 1.83241 1.83978 1.84716 1.85454 1.86192 
1.8693 1.87667 1.88405 1.89143 1.89881 1.90618 1.91356 1.92094 1.92832 
1.93008 1.92769 1.92531 1.92293 1.92054 1.91816 1.91578 1.91339 1.91101 
1.90863 1.90624 1.90386 1.90148 1.89909 1.89671 1.89433 1.89194 1.88956 
1.88718 1.88479 1.88277 1.88163 1.88049 1.87935 1.87822 1.87708 1.87594 
1.8748 1.87366 1.87252 1.87138 1.87025 1.86911 1.86797 1.86683 1.86569 
1.86455 1.86341 1.86227 1.86114 1.86 1.86003 1.86005 1.86008 1.86011 
1.86014 1.86016 1.86019 1.86022 1.86024 1.86027 1.8603 1.86033 1.86035 
1.86038 1.86041 1.86043 1.86046 1.86049 1.86052 1.86054 1.86191 1.86381 
1.86571 1.86761 1.86951 1.87141 1.87331 1.87521 1.87711 1.87901 1.88091 
1.88281 1.88471 1.88661 1.88851 1.89041 1.89231 1.89421 1.89611 1.89801 
1.90205 1.90889 1.91573 1.92257 1.92941 1.93626 1.9431 1.94994 1.95678 
1.96363 1.97047 1.97731 1.98415 1.991 1.99784 2.00468 2.01152 2.01837 
2.02521 2.03205 2.03885 2.0454 2.05196 2.05851 2.06506 2.07162 2.07817 
2.08472 2.09128 2.09783 2.10438 2.11093 2.11749 2.12404 2.13059 2.13715 
2.1437 2.15025 2.15681 2.16336 2.16991 2.17133 2.17191 2.1725 2.17308 
2.17366 2.17424 2.17483 2.17541 2.17599 2.17657 2.17716 2.17774 2.17832 
2.17891 2.17949 2.18007 2.18065 2.18124 2.18182 2.1824 2.18308 2.18383 
2.18458 2.18532 2.18607 2.18682 2.18757 2.18832 2.18907 2.18981 2.19056 
2.19131 2.19206 2.19281 2.19356 2.1943 2.19505 2.1958 2.19655 2.1973 
2.19988 2.20699 2.21409 2.2212 2.22831 2.23541 2.24252 2.24963 2.25673 
2.26384 2.27095 2.27805 2.28516 2.29227 2.29938 2.30648 2.31359 2.3207 
2.3278 2.33491 2.34202 2.34818 2.35435 2.36052 2.36668 2.37285 2.37902 
2.38519 2.39135 2.39752 2.40369 2.40986 2.41602 2.42219 2.42836 2.43453 
2.44069 2.44686 2.45303 2.4592 2.46536 2.46134 2.45325 2.44517 2.43708 
2.429 2.42091 2.41283 2.40474 2.39666 2.38857 2.38048 2.3724 2.36431 
2.35623 2.34814 2.34006 2.33197 2.32389 2.3158 2.30772 2.29849 2.28775 
2.277 2.26626 2.25552 2.24478 2.23403 2.22329 2.21255 2.20181 2.19106 
2.18032 2.16958 2.15884 2.14809 2.13735 2.12661 2.11586 2.10512 2.09438 
2.08184 2.05861 2.03538 2.01215 1.98891 1.96568 1.94245 1.91922 1.89599 
1.87276 1.84952 1.82629 1.80306 1.77983 1.7566 1.73337 1.71013 1.6869 
1.66367 1.64044 1.61721 1.60266 1.58956 1.57646 1.56335 1.55025 1.53715 
1.52405 1.51095 1.49784 1.48474 1.47164 1.45854 1.44544 1.43234 1.41923 
1.40613 1.39303 1.37993 1.36683 1.35373 1.36462 1.39317 1.42172 1.45027 
1.47882 1.50738 1.53593 1.56448 1.59303 1.62158 1.65014 1.67869 1.70724 
1.73579 1.76434 1.7929 1.82145 1.85 1.87855 1.9071 1.93529 1.96252 
1.98976 2.01699 2.04423 2.07147 2.0987 2.12594 2.15317 2.18041 2.20764 
2.23488 2.26212 2.28935 2.31659 2.34382 2.37106 2.39829 2.42553 2.45276 
2.48 
TEXTURE_COORDINATES TCoords 2 float
0 0 0.000782473 0 0.00156495 0 0.00234742 0 0.00312989 
0 0.00391236 0 0.00469484 0 0.00547731 0 0.00625978 0 
0.00704225 0 0.00782473 0 0.0086072 0 0.00938967 0 0.0101721 
0 0.0109546 0 0.0117371 0 0.0125196 0 0.013302 0 
0.0140845 0 0.014867 0 0.0156495 0 0.0164319 0 0.0172144 
0 0.0179969 0 0.0187793 0 0.0195618 0 0.0203443 0 
0.0211268 0 0.0219092 0 0.0226917 0 0.0234742 0 0.0242567 
0 0.0250391 0 0.0258216 0 0.0266041 0 0.0273865 0 
0.028169 0 0.0289515 0 0.029734 0 0.0305164 0 0.0312989 
0 0.0320814 0 0.0328638 0 0.0336463 0 0.0344288 0 
0.0352113 0 0.0359937 0 0.0367762 0 0.0375587 0 0.0383412 
0 0.0391236 0 0.0399061 0 0.0406886 0 0.041471 0 
0.0422535 0 0.043036 0 0.0438185 0 0.0446009 0 0.0453834 
0 0.0461659 0 0.0469484 0 0.0477308 0 0.0485133 0 
0.0492958 0 0.0500782 0 0.0508607 0 0.0516432 0 0.0524257 
0 0.0532081 0 0.0539906 0 0.0547731 0 0.0555556 0 
0.056338 0 0.0571205 0 0.057903 0 0.0586854 0 0.0594679 
0 0.0602504 0 0.0610329 0 0.0618153 0 0.0625978 0 
0.0633803 0 0.0641628 0 0.0649452 0 0.0657277 0 0.0665102 
0 0.0672926 0 0.0680751 0 0.0688576 0 0.0696401 0 
0.0704225 0 0.071205 0 0.0719875 0 0.07277 0 0.0735524 
0 0.0743349 0 0.0751174 0 0.0758998 0 0.0766823 0 
0.0774648 0 0.0782473 0 0.0790297 0 0.0798122 0 0.0805947 
0 0.0813771 0 0.0821596 0 0.0829421 0 0.0837246 0 
0.084507 0 0.0852895 0 0.086072 0 0.0868545 0 0.0876369 
0 0.0884194 0 0.0892019 0 0.0899843 0 0.0907668 0 
0.0915493 0 0.0923318 0 0.0931142 0 0.0938967 0 0.0946792 
0 0.0954617 0 0.0962441 0 0.0970266 0 0.0978091 0 
0.0985916 0 0.099374 0 0.100156 0 0.100939 0 0.101721 
0 0.102504 0 0.103286 0 0.104069 0 0.104851 0 
0.105634 0 0.106416 0 0.107199 0 0.107981 0 0.108764 
0 0.109546 0 0.110329 0 0.111111 0 0.111894 0 
0.112676 0 0.113459 0 0.114241 0 0.115023 0 0.115806 
0 0.116588 0 0.117371 0 0.118153 0 0.118936 0 
0.119718 0 0.120501 0 0.121283 0 0.122066 0 0.122848 
0 0.123631 0 0.124413 0 0.125196 0 0.125978 0 
0.126761 0 0.127543 0 0.128326 0 0.129108 0 0.12989 
0 0.130673 0 0.131455 0 0.132238 0 0.13302 0 
0.133803 0 0.134585 0 0.135368 0 0.13615 0 0.136933 
0 0.137715 0 0.138498 0 0.13928 0 0.140063 0 
0.140845 0 0.141628 0 0.14241 0 0.143192 0 0.143975 
0 0.144757 0 0.14554 0 0.146322 0 0.147105 0 
0.147887 0 0.14867 0 0.149452 0 0.150235 0 0.151017 
0 0.1518 0 0.152582 0 0.153365 0 0.154147 0 
0.15493 0 0.155712 0 0.156495 0 0.157277 0 0.158059 
0 0.158842 0 0.159624 0 0.160407 0 0.161189 0 
0.161972 0 0.162754 0 0.163537 0 0.164319 0 0.165102 
0 0.165884 0 0.166667 0 0.167449 0 0.168232 0 
0.169014 0 0.169797 0 0.170579 0 0.171362 0 0.172144 
0 0.172926 0 0.173709 0 0.174491 0 0.175274 0 
0.176056 0 0.176839 0 0.177621 0 0.178404 0 0.179186 
0 0.179969 0 0.180751 0 0.181534 0 0.182316 0 
0.183099 0 0.183881 0 0.184664 0 0.185446 0 0.186228 
0 0.187011 0 0.187793 0 0.188576 0 0.189358 0 
0.190141 0 0.190923 0 0.191706 0 0.192488 0 0.193271 
0 0.194053 0 0.194836 0 0.195618 0 0.196401 0 
0.197183 0 0.197966 0 0.198748 0 0.199531 0 0.200313 
0 0.201095 0 0.201878 0 0.20266 0 0.203443 0 
0.204225 0 0.205008 0 0.20579 0 0.206573 0 0.207355 
0 0.208138 0 0.20892 0 0.209703 0 0.210485 0 
0.211268 0 0.21205 0 0.212833 0 0.213615 0 0.214397 
0 0.21518 0 0.215962 0 0.216745 0 0.217527 0 
0.21831 0 0.219092 0 0.219875 0 0.220657 0 0.22144 
0 0.222222 0 0.223005 0 0.223787 0 0.22457 0 
0.225352 0 0.226135 0 0.226917 0 0.2277 0 0.228482 
0 0.229264 0 0.230047 0 0.230829 0 0.231612 0 
0.232394 0 0.233177 0 0.233959 0 0.234742 0 0.235524 
0 0.236307 0 0.237089 0 0.237872 0 0.238654 0 
0.239437 0 0.240219 0 0.241002 0 0.241784 0 0.242567 
0 0.243349 0 0.244131 0 0.244914 0 0.245696 0 
0.246479 0 0.247261 0 0.248044 0 0.248826 0 0.249609 
0 0.250391 0 0.251174 0 0.251956 0 0.252739 0 
0.253521 0 0.254304 0 0.255086 0 0.255869 0 0.256651 
0 0.257434 0 0.258216 0 0.258998 0 0.259781 0 
0.260563 0 0.261346 0 0.262128 0 0.262911 0 0.263693 
0 0.264476 0 0.265258 0 0.266041 0 0.266823 0 
0.267606 0 0.268388 0 0.269171 0 0.269953 0 0.270736 
0 0.271518 0 0.2723 0 0.273083 0 0.273865 0 
0.274648 0 0.27543 0 0.276213 0 0.276995 0 0.277778 
0 0.27856 0 0.279343 0 0.280125 0 0.280908 0 
0.28169 0 0.282473 0 0.283255 0 0.284038 0 0.28482 
0 0.285603 0 0.286385 0 0.287167 0 0.28795 0 
0.288732 0 0.289515 0 0.290297 0 0.29108 0 0.291862 
0 0.292645 0 0.293427 0 0.29421 0 0.294992 0 
0.295775 0 0.296557 0 0.29734 0 0.298122 0 0.298905 
0 0.299687 0 0.300469 0 0.301252 0 0.302034 0 
0.302817 0 0.303599 0 0.304382 0 0.305164 0 0.305947 
0 0.306729 0 0.307512 0 0.308294 0 0.309077 0 
0.309859 0 0.310642 0 0.311424 0 0.312207 0 0.312989 
0 0.313772 0 0.314554 0 0.315336 0 0.316119 0 
0.316901 0 0.317684 0 0.318466 0 0.319249 0 0.320031 
0 0.320814 0 0.321596 0 0.322379 0 0.323161 0 
0.323944 0 0.324726 0 0.325509 0 0.326291 0 0.327074 
0 0.327856 0 0.328638 0 0.329421 0 0.330203 0 
0.330986 0 0.331768 0 0.332551 0 0.333333 0 0.334116 
0 0.334898 0 0.335681 0 0.336463 0 0.337246 0 
0.338028 0 0.338811 0 0.339593 0 0.340376 0 0.341158 
0 0.341941 0 0.342723 0 0.343505 0 0.344288 0 
0.34507 0 0.345853 0 0.346635 0 0.347418 0 0.3482 
0 0.348983 0 0.349765 0 0.350548 0 0.35133 0 
0.352113 0 0.352895 0 0.353678 0 0.35446 0 0.355243 
0 0.356025 0 0.356808 0 0.35759 0 0.358372 0 
0.359155 0 0.359937 0 0.36072 0 0.361502 0 0.362285 
0 0.363067 0 0.36385 0 0.364632 0 0.365415 0 
0.366197 0 0.36698 0 0.367762 0 0.368545 0 0.369327 
0 0.37011 0 0.370892 0 0.371674 0 0.372457 0 
0.373239 0 0.374022 0 0.374804 0 0.375587 0 0.376369 
0 0.377152 0 0.377934 0 0.378717 0 0.379499 0 
0.380282 0 0.381064 0 0.381847 0 0.382629 0 0.383412 
0 0.384194 0 0.384977 0 0.385759 0 0.386541 0 
0.387324 0 0.388106 0 0.388889 0 0.389671 0 0.390454 
0 0.391236 0 0.392019 0 0.392801 0 0.393584 0 
0.394366 0 0.395149 0 0.395931 0 0.396714 0 0.397496 
0 0.398279 0 0.399061 0 0.399844 0 0.400626 0 
0.401408 0 0.402191 0 0.402973 0 0.403756 0 0.404538 
0 0.405321 0 0.406103 0 0.406886 0 0.407668 0 
0.408451 0 0.409233 0 0.410016 0 0.410798 0 0.411581 
0 0.412363 0 0.413146 0 0.413928 0 0.41471 0 
0.415493 0 0.416275 0 0.417058 0 0.41784 0 0.418623 
0 0.419405 0 0.420188 0 0.42097 0 0.421753 0 
0.422535 0 0.423318 0 0.4241 0 0.424883 0 0.425665 
0 0.426448 0 0.42723 0 0.428013 0 0.428795 0 
0.429577 0 0.43036 0 0.431142 0 0.431925 0 0.432707 
0 0.43349 0 0.434272 0 0.435055 0 0.435837 0 
0.43662 0 0.437402 0 0.438185 0 0.438967 0 0.43975 
0 0.440532 0 0.441315 0 0.442097 0 0.442879 0 
0.443662 0 0.444444 0 0.445227 0 0.446009 0 0.446792 
0 0.447574 0 0.448357 0 0.449139 0 0.449922 0 
0.450704 0 0.451487 0 0.452269 0 0.453052 0 0.453834 
0 0.454617 0 0.455399 0 0.456182 0 0.456964 0 
0.457746 0 0.458529 0 0.459311 0 0.460094 0 0.460876 
0 0.461659 0 0.462441 0 0.463224 0 0.464006 0 
0.464789 0 0.465571 0 0.466354 0 0.467136 0 0.467919 
0 0.468701 0 0.469484 0 0.470266 0 0.471049 0 
0.471831 0 0.472613 0 0.473396 0 0.474178 0 0.474961 
0 0.475743 0 0.476526 0 0.477308 0 0.478091 0 
0.478873 0 0.479656 0 0.480438 0 0.481221 0 0.482003 
0 0.482786 0 0.483568 0 0.484351 0 0.485133 0 
0.485915 0 0.486698 0 0.48748 0 0.488263 0 0.489045 
0 0.489828 0 0.49061 0 0.491393 0 0.492175 0 
0.492958 0 0.49374 0 0.494523 0 0.495305 0 0.496088 
0 0.49687 0 0.497653 0 0.498435 0 0.499218 0 
0.5 0 0.500782 0 0.501565 0 0.502347 0 0.50313 
0 0.503912 0 0.504695 0 0.505477 0 0.50626 0 
0.507042 0 0.507825 0 0.508607 0 0.50939 0 0.510172 
0 0.510955 0 0.511737 0 0.51252 0 0.513302 0 
0.514085 0 0.514867 0 0.515649 0 0.516432 0 0.517214 
0 0.517997 0 0.518779 0 0.519562 0 0.520344 0 
0.521127 0 0.521909 0 0.522692 0 0.523474 0 0.524257 
0 0.525039 0 0.525822 0 0.526604 0 0.527387 0 
0.528169 0 0.528951 0 0.529734 0 0.530516 0 0.531299 
0 0.532081 0 0.532864 0 0.533646 0 0.534429 0 
0.535211 0 0.535994 0 0.536776 0 0.537559 0 0.538341 
0 0.539124 0 0.539906 0 0.540689 0 0.541471 0 
0.542253 0 0.543036 0 0.543818 0 0.544601 0 0.545383 
0 0.546166 0 0.546948 0 0.547731 0 0.548513 0 
0.549296 0 0.550078 0 0.550861 0 0.551643 0 0.552426 
0 0.553208 0 0.553991 0 0.554773 0 0.555556 0 
0.556338 0 0.557121 0 0.557903 0 0.558685 0 0.559468 
0 0.56025 0 0.561033 0 0.561815 0 0.562598 0 
0.56338 0 0.564163 0 0.564945 0 0.565728 0 0.56651 
0 0.567293 0 0.568075 0 0.568858 0 0.56964 0 
0.570423 0 0.571205 0 0.571988 0 0.57277 0 0.573552 
0 0.574335 0 0.575117 0 0.5759 0 0.576682 0 
0.577465 0 0.578247 0 0.57903 0 0.579812 0 0.580595 
0 0.581377 0 0.58216 0 0.582942 0 0.583725 0 
0.584507 0 0.58529 0 0.586072 0 0.586854 0 0.587637 
0 0.588419 0 0.589202 0 0.589984 0 0.590767 0 
0.591549 0 0.592332 0 0.593114 0 0.593897 0 0.594679 
0 0.595462 0 0.596244 0 0.597027 0 0.597809 0 
0.598592 0 0.599374 0 0.600156 0 0.600939 0 0.601721 
0 0.602504 0 0.603286 0 0.604069 0 0.604851 0 
0.605634 0 0.606416 0 0.607199 0 0.607981 0 0.608764 
0 0.609546 0 0.610329 0 0.611111 0 0.611894 0 
0.612676 0 0.613459 0 0.614241 0 0.615023 0 0.615806 
0 0.616588 0 0.617371 0 0.618153 0 0.618936 0 
0.619718 0 0.620501 0 0.621283 0 0.622066 0 0.622848 
0 0.623631 0 0.624413 0 0.625196 0 0.625978 0 
0.626761 0 0.627543 0 0.628326 0 0.629108 0 0.62989 
0 0.630673 0 0.631455 0 0.632238 0 0.63302 0 
0.633803 0 0.634585 0 0.635368 0 0.63615 0 0.636933 
0 0.637715 0 0.638498 0 0.63928 0 0.640063 0 
0.640845 0 0.641628 0 0.64241 0 0.643192 0 0.643975 
0 0.644757 0 0.64554 0 0.646322 0 0.647105 0 
0.647887 0 0.64867 0 0.649452 0 0.650235 0 0.651017 
0 0.6518 0 0.652582 0 0.653365 0 0.654147 0 