# vtk DataFile Version 4.2
vtk output
ASCII
DATASET POLYDATA
POINTS 1278 float
0 0 0 -0.0025372 0.00213266 -0.0025262 -0.00995227 0.00836395 -0.00985155 
-0.0219504 0.0184438 -0.0215961 -0.0382369 0.0321221 -0.03738 -0.0585169 0.0491489 -0.0568233 
-0.0824955 0.069274 -0.0795462 -0.109878 0.0922474 -0.105169 -0.14037 0.117819 -0.133311 
-0.173676 0.145739 -0.163593 -0.209502 0.175757 -0.195634 -0.247552 0.207623 -0.229056 
-0.287533 0.241087 -0.263478 -0.329148 0.275899 -0.29852 -0.372104 0.311809 -0.333802 
-0.416106 0.348566 -0.368945 -0.460859 0.385922 -0.403568 -0.506067 0.423625 -0.437292 
-0.551437 0.461425 -0.469736 -0.596673 0.499073 -0.500521 -0.641481 0.536319 -0.529266 
-0.685566 0.572912 -0.555593 -0.728723 0.608678 -0.579246 -0.770979 0.643637 -0.600295 
-0.812403 0.677844 -0.618868 -0.853062 0.711352 -0.635088 -0.893023 0.744215 -0.649082 
-0.932354 0.776488 -0.660975 -0.971121 0.808224 -0.670893 -1.00939 0.839476 -0.67896 
-1.04723 0.870299 -0.685303 -1.08472 0.900747 -0.690046 -1.1219 0.930872 -0.693315 
-1.15886 0.96073 -0.695236 -1.19566 0.990374 -0.695934 -1.23237 1.01986 -0.695534 
-1.26905 1.04923 -0.694162 -1.30578 1.07856 -0.691943 -1.34262 1.10788 -0.689003 
-1.37963 1.13726 -0.685467 -1.41689 1.16675 -0.68146 -1.45445 1.1964 -0.677103 
-1.49234 1.22622 -0.672436 -1.53052 1.25618 -0.667435 -1.56898 1.28627 -0.662077 
-1.60768 1.31645 -0.656335 -1.64659 1.3467 -0.650187 -1.6857 1.37699 -0.643606 
-1.72497 1.40731 -0.636568 -1.76438 1.43762 -0.629048 -1.8039 1.4679 -0.621022 
-1.84351 1.49813 -0.612465 -1.88317 1.52828 -0.603351 -1.92286 1.55832 -0.593657 
-1.96256 1.58824 -0.583358 -2.00224 1.618 -0.572428 -2.04187 1.64759 -0.560844 
-2.08143 1.67697 -0.54858 -2.12089 1.70613 -0.535611 -2.16022 1.73503 -0.521913 
-2.19939 1.76365 -0.507461 -2.23838 1.79197 -0.492231 -2.27718 1.81997 -0.47621 
-2.31578 1.84765 -0.459415 -2.35419 1.87501 -0.441868 -2.39241 1.90205 -0.423589 
-2.43045 1.92877 -0.404599 -2.46831 1.95518 -0.384921 -2.50601 1.98128 -0.364574 
-2.54353 2.00706 -0.343581 -2.58089 2.03253 -0.321962 -2.6181 2.05769 -0.299738 
-2.65516 2.08254 -0.276931 -2.69206 2.10708 -0.253562 -2.72883 2.13132 -0.229652 
-2.76546 2.15525 -0.205223 -2.80195 2.17888 -0.180294 -2.83832 2.20221 -0.154888 
-2.87457 2.22524 -0.129026 -2.9107 2.24797 -0.102729 -2.94671 2.27041 -0.0760174 
-2.98262 2.29254 -0.0489132 -3.01843 2.31439 -0.0214347 -3.05413 2.33593 0.00641265 
-3.08972 2.35716 0.0346274 -3.1252 2.37808 0.0632081 -3.16057 2.39869 0.0921533 
-3.19582 2.41896 0.121461 -3.23096 2.43891 0.151131 -3.26597 2.45852 0.181161 
-3.30086 2.47778 0.21155 -3.33563 2.49669 0.242296 -3.37026 2.51524 0.273397 
-3.40476 2.53343 0.304853 -3.43913 2.55125 0.336662 -3.47336 2.56869 0.368823 
-3.50745 2.58575 0.401333 -3.54139 2.60242 0.434192 -3.5752 2.61869 0.467397 
-3.60885 2.63456 0.500949 -3.64235 2.65002 0.534845 -3.6757 2.66507 0.569083 
-3.70889 2.67969 0.603662 -3.74192 2.69389 0.638578 -3.7748 2.70765 0.673824 
-3.80751 2.72097 0.709393 -3.84006 2.73384 0.74528 -3.87245 2.74625 0.781477 
-3.90468 2.7582 0.817979 -3.93674 2.76968 0.854778 -3.96864 2.78067 0.891869 
-4.00037 2.79118 0.929244 -4.03193 2.8012 0.966898 -4.06332 2.81072 1.00482 
-4.09454 2.81973 1.04302 -4.12559 2.82822 1.08147 -4.15647 2.83619 1.12017 
-4.18718 2.84363 1.15912 -4.21771 2.85054 1.19831 -4.24806 2.8569 1.23773 
-4.27824 2.8627 1.27738 -4.30824 2.86795 1.31725 -4.33806 2.87264 1.35733 
-4.3677 2.87675 1.39762 -4.39716 2.88028 1.4381 -4.42643 2.88323 1.47877 
-4.45551 2.88558 1.51962 -4.48441 2.88733 1.56063 -4.51311 2.88848 1.6018 
-4.54161 2.88901 1.64311 -4.56992 2.88893 1.68456 -4.59803 2.88822 1.72613 
-4.62594 2.88687 1.76782 -4.65364 2.88489 1.80962 -4.68114 2.88226 1.85151 
-4.70843 2.87897 1.89348 -4.7355 2.87503 1.93553 -4.76237 2.87042 1.97765 
-4.78901 2.86513 2.01982 -4.81544 2.85917 2.06203 -4.84165 2.85252 2.10428 
-4.86763 2.84518 2.14655 -4.89339 2.83713 2.18884 -4.91892 2.82839 2.23113 
-4.94422 2.81894 2.27342 -4.9693 2.8088 2.31568 -4.99416 2.79796 2.35791 
-5.01879 2.78644 2.4001 -5.0432 2.77424 2.44223 -5.0674 2.76135 2.48429 
-5.09137 2.7478 2.52626 -5.11513 2.73357 2.56815 -5.13867 2.71869 2.60992 
-5.16199 2.70314 2.65158 -5.1851 2.68694 2.69311 -5.208 2.67008 2.73449 
-5.23069 2.65258 2.77572 -5.25317 2.63444 2.81678 -5.27544 2.61566 2.85766 
-5.2975 2.59625 2.89835 -5.31935 2.57622 2.93883 -5.34101 2.55556 2.97909 
-5.36245 2.53428 3.01913 -5.3837 2.51238 3.05892 -5.40475 2.48989 3.09847 
-5.4256 2.4668 3.13777 -5.44628 2.44315 3.17682 -5.46677 2.41892 3.21562 
-5.4871 2.39416 3.25416 -5.50725 2.36885 3.29245 -5.52725 2.34303 3.33047 
-5.5471 2.31669 3.36823 -5.56679 2.28986 3.40572 -5.58635 2.26255 3.44294 
-5.60577 2.23477 3.47989 -5.62507 2.20654 3.51657 -5.64424 2.17786 3.55297 
-5.66329 2.14876 3.5891 -5.68223 2.11924 3.62494 -5.70107 2.08932 3.66049 
-5.71982 2.05901 3.69576 -5.73847 2.02833 3.73074 -5.75703 1.99728 3.76543 
-5.77552 1.96589 3.79983 -5.79393 1.93416 3.83393 -5.81228 1.90211 3.86775 
-5.83057 1.86974 3.90128 -5.84881 1.83708 3.93454 -5.86701 1.80413 3.96754 
-5.88516 1.77089 4.00027 -5.90329 1.7374 4.03274 -5.92139 1.70365 4.06497 
-5.93948 1.66966 4.09694 -5.95755 1.63543 4.12868 -5.97562 1.60099 4.16019 
-5.9937 1.56635 4.19147 -6.01179 1.5315 4.22253 -6.02989 1.49648 4.25337 
-6.04802 1.46128 4.284 -6.06618 1.42592 4.31443 -6.08439 1.39041 4.34466 
-6.10263 1.35477 4.3747 -6.12093 1.319 4.40456 -6.13929 1.28312 4.43423 
-6.15771 1.24714 4.46373 -6.17621 1.21106 4.49306 -6.19478 1.1749 4.52224 
-6.21344 1.13866 4.55126 -6.23218 1.10236 4.58013 -6.25101 1.06599 4.60887 
-6.26994 1.02957 4.63748 -6.28898 0.993118 4.66597 -6.30812 0.956628 4.69434 
-6.32738 0.920114 4.7226 -6.34675 0.883585 4.75076 -6.36625 0.847049 4.77882 
-6.38588 0.810515 4.8068 -6.40564 0.773992 4.8347 -6.42554 0.737488 4.86252 
-6.44558 0.701012 4.89028 -6.46578 0.664574 4.91799 -6.48613 0.62818 4.94564 
-6.50664 0.591841 4.97325 -6.52732 0.555565 5.00082 -6.54817 0.51936 5.02836 
-6.56919 0.483232 5.05588 -6.59039 0.447187 5.08337 -6.61177 0.411231 5.11084 
-6.63333 0.37537 5.13829 -6.65509 0.339609 5.16572 -6.67703 0.303955 5.19314 
-6.69917 0.268412 5.22055 -6.7215 0.232987 5.24795 -6.74404 0.197686 5.27535 
-6.76678 0.162515 5.30274 -6.78972 0.127478 5.33012 -6.81288 0.0925828 5.35751 
-6.83625 0.0578341 5.38491 -6.85983 0.023238 5.41231 -6.88364 -0.0111998 5.43972 
-6.90767 -0.0454734 5.46714 -6.93193 -0.0795772 5.49458 -6.95642 -0.113505 5.52203 
-6.98114 -0.147252 5.5495 -7.0061 -0.180811 5.57699 -7.03129 -0.21418 5.6045 
-7.05673 -0.247356 5.63203 -7.08241 -0.280337 5.65958 -7.10833 -0.31312 5.68713 
-7.1345 -0.345703 5.7147 -7.16091 -0.378084 5.74227 -7.18757 -0.410261 5.76984 
-7.21448 -0.44223 5.79741 -7.24164 -0.47399 5.82498 -7.26905 -0.505538 5.85254 
-7.29671 -0.536871 5.88009 -7.32463 -0.567988 5.90763 -7.35281 -0.598887 5.93515 
-7.38124 -0.629564 5.96266 -7.40994 -0.660017 5.99015 -7.43889 -0.690244 6.01761 
-7.46811 -0.720243 6.04504 -7.49759 -0.750011 6.07244 -7.52733 -0.779546 6.09981 
-7.55735 -0.808845 6.12715 -7.58763 -0.837909 6.15444 -7.61818 -0.866736 6.18169 
-7.64899 -0.895329 6.20888 -7.68008 -0.923689 6.23602 -7.71143 -0.951815 6.26309 
-7.74306 -0.979709 6.29008 -7.77495 -1.00737 6.317 -7.80711 -1.0348 6.34383 
-7.83955 -1.06201 6.37057 -7.87225 -1.08898 6.39721 -7.90523 -1.11573 6.42375 
-7.93847 -1.14225 6.45018 -7.97199 -1.16854 6.47649 -8.00578 -1.19461 6.50268 
-8.03984 -1.22045 6.52873 -8.07418 -1.24607 6.55465 -8.10879 -1.27146 6.58043 
-8.14367 -1.29664 6.60606 -8.17882 -1.32159 6.63153 -8.21425 -1.34632 6.65685 
-8.24995 -1.37083 6.68199 -8.28593 -1.39513 6.70696 -8.32218 -1.41921 6.73174 
-8.35869 -1.44309 6.75633 -8.39548 -1.46675 6.78071 -8.43254 -1.49022 6.80489 
-8.46986 -1.51348 6.82885 -8.50745 -1.53654 6.85259 -8.5453 -1.5594 6.87609 
-8.58342 -1.58208 6.89935 -8.6218 -1.60456 6.92236 -8.66044 -1.62686 6.94511 
-8.69934 -1.64897 6.96759 -8.7385 -1.6709 6.9898 -8.77792 -1.69266 7.01172 
-8.8176 -1.71424 7.03336 -8.85753 -1.73565 7.05469 -8.89772 -1.75688 7.07572 
-8.93816 -1.77796 7.09643 -8.97886 -1.79887 7.11682 -9.0198 -1.81962 7.13687 
-9.061 -1.84021 7.15659 -9.10243 -1.86065 7.17595 -9.14411 -1.88094 7.19496 
-9.18602 -1.90109 7.21361 -9.22816 -1.92111 7.23189 -9.27052 -1.94098 7.24978 
-9.31311 -1.96073 7.26729 -9.35592 -1.98035 7.28441 -9.39894 -1.99984 7.30112 
-9.44217 -2.01922 7.31742 -9.48561 -2.03849 7.3333 -9.52924 -2.05764 7.34876 
-9.57308 -2.07669 7.36378 -9.6171 -2.09564 7.37836 -9.66131 -2.11449 7.39249 
-9.70571 -2.13325 7.40617 -9.75029 -2.15192 7.41938 -9.79504 -2.17051 7.43211 
-9.83997 -2.18902 7.44436 -9.88506 -2.20745 7.45613 -9.93031 -2.22581 7.4674 
-9.97571 -2.2441 7.47817 -10.0213 -2.26233 7.48844 -10.0669 -2.28051 7.49819 
-10.1128 -2.29864 7.50744 -10.1587 -2.31672 7.51616 -10.2047 -2.33477 7.52436 
-10.2509 -2.35277 7.53203 -10.2971 -2.37075 7.53916 -10.3435 -2.38871 7.54576 
-10.3899 -2.40665 7.55181 -10.4364 -2.42457 7.55732 -10.4829 -2.44249 7.56227 
-10.5295 -2.4604 7.56666 -10.5762 -2.47832 7.57049 -10.6229 -2.49624 7.57375 
-10.6696 -2.51418 7.57643 -10.7164 -2.53213 7.57854 -10.7631 -2.55011 7.58007 
-10.8099 -2.56811 7.58101 -10.8567 -2.58615 7.58135 -10.9035 -2.60423 7.58111 
-10.9502 -2.62236 7.58027 -10.9969 -2.64053 7.57884 -11.0436 -2.65877 7.57681 
-11.0902 -2.67706 7.57419 -11.1367 -2.69543 7.57097 -11.1832 -2.71387 7.56715 
-11.2296 -2.73239 7.56273 -11.2759 -2.751 7.55772 -11.3221 -2.7697 7.5521 
-11.3682 -2.7885 7.54588 -11.4141 -2.80741 7.53906 -11.4599 -2.82642 7.53164 
-11.5056 -2.84555 7.52361 -11.5511 -2.8648 7.51498 -11.5965 -2.88418 7.50574 
-11.6416 -2.90369 7.4959 -11.6866 -2.92334 7.48544 -11.7314 -2.94314 7.47438 
-11.7759 -2.96309 7.46271 -11.8203 -2.9832 7.45043 -11.8643 -3.00346 7.43754 
-11.9082 -3.0239 7.42404 -11.9517 -3.04451 7.40993 -11.995 -3.0653 7.39521 
-12.038 -3.08628 7.37988 -12.0806 -3.10745 7.36394 -12.1229 -3.12881 7.34739 
[...]
CELL_DATA 1
FIELD FieldData 2
Length 1 1 double
63.888158946 
Tortuosity 1 1 double
1.2167879342 
POINT_DATA 1278
SCALARS MaximumInscribedSphereRadius float
LOOKUP_TABLE default
1.116 1.10392 1.09184 1.07975 1.06767 1.05559 1.04351 1.03143 1.01935 
1.00726 0.995182 0.9831 0.971019 0.958937 0.946855 0.934773 0.922692 0.91061 
0.898528 0.886446 0.874364 0.863207 0.857716 0.852224 0.846732 0.841241 0.835749 
0.830257 0.824765 0.819274 0.813782 0.80829 0.802798 0.797307 0.791815 0.786323 
0.780832 0.77534 0.769848 0.764356 0.758865 0.759884 0.765403 0.770923 0.776442 
0.781962 0.787481 0.793001 0.79852 0.80404 0.809559 0.815079 0.820598 0.826118 
0.831637 0.837157 0.842676 0.848196 0.853715 0.859235 0.864754 0.868206 0.862432 
0.856658 0.850884 0.845111 0.839337 0.833563 0.827789 0.822015 0.816242 0.810468 
0.804694 0.79892 0.793146 0.787373 0.781599 0.775825 0.770051 0.764277 0.758503 
0.75273 0.749569 0.7466 0.743632 0.740663 0.737695 0.734726 0.731758 0.728789 
0.725821 0.722852 0.719884 0.716915 0.713947 0.710978 0.70801 0.705041 0.702073 
0.699104 0.696136 0.693167 0.699162 0.709762 0.720361 0.730961 0.74156 0.75216 
0.762759 0.773359 0.783958 0.794558 0.805157 0.815757 0.826356 0.836956 0.847555 
0.858155 0.868754 0.879354 0.889953 0.900553 0.911348 0.922446 0.933543 0.944641 
0.955739 0.966837 0.977935 0.989032 1.00013 1.01123 1.02233 1.03342 1.04452 
1.05562 1.06672 1.07781 1.08891 1.10001 1.11111 1.12221 1.13081 1.12271 
1.11461 1.10652 1.09842 1.09033 1.08223 1.07413 1.06604 1.05794 1.04985 
1.04175 1.03365 1.02556 1.01746 1.00937 1.00127 0.993173 0.985077 0.976981 
0.968885 0.957593 0.945832 0.934071 0.92231 0.910549 0.898789 0.887028 0.875267 
0.863506 0.851745 0.839984 0.828223 0.816463 0.804702 0.792941 0.78118 0.769419 
0.757658 0.745897 0.734137 0.735245 0.744805 0.754364 0.763923 0.773483 0.783042 
0.792601 0.80216 0.81172 0.821279 0.830838 0.840398 0.849957 0.859516 0.869075 
0.878635 0.888194 0.897753 0.907313 0.916872 0.927142 0.93889 0.950638 0.962386 
0.974134 0.985882 0.99763 1.00938 1.02113 1.03287 1.04462 1.05637 1.06812 
1.07987 1.09161 1.10336 1.11511 1.12686 1.13861 1.15035 1.16184 1.16754 
1.17324 1.17894 1.18464 1.19034 1.19605 1.20175 1.20745 1.21315 1.21885 
1.22455 1.23025 1.23595 1.24165 1.24735 1.25305 1.25875 1.26445 1.27015 
1.27585 1.27949 1.28248 1.28548 1.28847 1.29147 1.29446 1.29746 1.30046 
1.30345 1.30645 1.30944 1.31244 1.31544 1.31843 1.32143 1.32442 1.32742 
1.33042 1.33341 1.33641 1.34204 1.35047 1.35891 1.36734 1.37577 1.3842 
1.39264 1.40107 1.4095 1.41793 1.42637 1.4348 1.44323 1.45166 1.46009 
1.46853 1.47696 1.48539 1.49382 1.50226 1.51051 1.51807 1.52563 1.53319 
1.54076 1.54832 1.55588 1.56344 1.57101 1.57857 1.58613 1.59369 1.60126 
1.60882 1.61638 1.62394 1.6315 1.63907 1.64663 1.65419 1.66175 1.66651 
1.67106 1.67562 1.68017 1.68473 1.68928 1.69384 1.69839 1.70295 1.7075 
1.71206 1.71661 1.72117 1.72572 1.73028 1.73483 1.73939 1.74394 1.7485 
1.75305 1.75557 1.75705 1.75852 1.75999 1.76147 1.76294 1.76441 1.76588 
1.76736 1.76883 1.7703 1.77178 1.77325 1.77472 1.7762 1.77767 1.77914 
1.78062 1.78209 1.78356 1.78688 1.79308 1.79927 1.80546 1.81165 1.81784 
1.82404 1.83023 1.83642 1.84261 1.8488 1.85499 1.86119 1.86738 1.87357 
1.87976 1.88595 1.89214 1.89834 1.90453 1.90981 1.90867 1.90754 1.9064 
1.90527 1.90413 1.903 1.90187 1.90073 1.8996 1.89846 1.89733 1.89619 
1.89506 1.89392 1.89279 1.89165 1.89052 1.88938 1.88825 1.88711 1.87837 
1.86845 1.85852 1.8486 1.83867 1.82875 1.81882 1.8089 1.79897 1.78904 
1.77912 1.76919 1.75927 1.74934 1.73942 1.72949 1.71956 1.70964 1.69971 
1.68979 1.67658 1.66136 1.64614 1.63093 1.61571 1.6005 1.58528 1.57007 
1.55485 1.53964 1.52442 1.5092 1.49399 1.47877 1.46356 1.44834 1.43313 
1.41791 1.4027 1.38748 1.37623 1.37124 1.36626 1.36127 1.35629 1.3513 
1.34632 1.34133 1.33634 1.33136 1.32637 1.32139 1.3164 1.31142 1.30643 
1.30145 1.29646 1.29147 1.28649 1.2815 1.27801 1.28394 1.28987 1.2958 
1.30173 1.30766 1.31359 1.31952 1.32545 1.33138 1.33731 1.34324 1.34917 
1.3551 1.36103 1.36696 1.37289 1.37882 1.38475 1.39068 1.39661 1.40883 
1.422 1.43517 1.44835 1.46152 1.4747 1.48787 1.50105 1.51422 1.5274 
1.54057 1.55375 1.56692 1.5801 1.59327 1.60645 1.61962 1.63279 1.64597 
1.65914 1.66606 1.66873 1.6714 1.67408 1.67675 1.67942 1.68209 1.68476 
1.68743 1.69011 1.69278 1.69545 1.69812 1.70079 1.70346 1.70614 1.70881 
1.71148 1.71415 1.71682 1.71691 1.7116 1.70629 1.70098 1.69566 1.69035 
1.68504 1.67973 1.67442 1.66911 1.66379 1.65848 1.65317 1.64786 1.64255 
1.63723 1.63192 1.62661 1.6213 1.61599 1.61024 1.59714 1.58405 1.57095 
1.55786 1.54477 1.53167 1.51858 1.50548 1.49239 1.47929 1.4662 1.4531 
1.44001 1.42691 1.41382 1.40072 1.38763 1.37453 1.36144 1.34834 1.34231 
1.33809 1.33387 1.32965 1.32543 1.32121 1.31699 1.31277 1.30855 1.30433 
1.30011 1.29589 1.29167 1.28745 1.28323 1.27901 1.27479 1.27057 1.26635 
1.26213 1.25941 1.25769 1.25597 1.25426 1.25254 1.25082 1.2491 1.24738 
1.24566 1.24395 1.24223 1.24051 1.23879 1.23707 1.23535 1.23364 1.23192 
1.2302 1.22848 1.22676 1.2242 1.22021 1.21622 1.21223 1.20824 1.20425 
1.20026 1.19627 1.19228 1.18829 1.1843 1.18031 1.17632 1.17233 1.16834 
1.16435 1.16036 1.15637 1.15238 1.14839 1.14521 1.14904 1.15286 1.15669 
1.16052 1.16434 1.16817 1.172 1.17583 1.17965 1.18348 1.18731 1.19114 
1.19496 1.19879 1.20262 1.20644 1.21027 1.2141 1.21793 1.22175 1.22596 
1.23026 1.23455 1.23884 1.24313 1.24743 1.25172 1.25601 1.2603 1.26459 
1.26889 1.27318 1.27747 1.28176 1.28605 1.29035 1.29464 1.29893 1.30322 
1.30752 1.31111 1.31413 1.31715 1.32016 1.32318 1.3262 1.32921 1.33223 
1.33525 1.33826 1.34128 1.34429 1.34731 1.35033 1.35334 1.35636 1.35938 
1.36239 1.36541 1.36843 1.36865 1.36106 1.35347 1.34588 1.33829 1.3307 
1.32311 1.31552 1.30793 1.30034 1.29275 1.28516 1.27757 1.26998 1.26239 
1.2548 1.24721 1.23962 1.23203 1.22444 1.21685 1.2143 1.21184 1.20937 
1.2069 1.20444 1.20197 1.19951 1.19704 1.19457 1.19211 1.18964 1.18718 
1.18471 1.18224 1.17978 1.17731 1.17484 1.17238 1.16991 1.16745 1.1691 
1.17241 1.17572 1.17903 1.18234 1.18565 1.18896 1.19227 1.19558 1.19888 
1.20219 1.2055 1.20881 1.21212 1.21543 1.21874 1.22205 1.22536 1.22867 
1.23198 1.23391 1.23422 1.23453 1.23483 1.23514 1.23545 1.23576 1.23606 
1.23637 1.23668 1.23699 1.23729 1.2376 1.23791 1.23822 1.23852 1.23883 
1.23914 1.23945 1.23975 1.24 1.24 1.24 1.24 1.24 1.24 
1.24 1.24 1.24 1.24 1.24 1.24 1.24 1.24 1.24 
1.24 1.24 1.24 1.24 1.24 1.24 1.24571 1.2519 1.25808 
1.26427 1.27046 1.27665 1.28283 1.28902 1.29521 1.3014 1.30758 1.31377 
1.31996 1.32614 1.33233 1.33852 1.34471 1.35089 1.35708 1.36327 1.36949 
1.37574 1.38198 1.38823 1.39447 1.40072 1.40696 1.41321 1.41945 1.4257 
1.43194 1.43818 1.44443 1.45067 1.45692 1.46316 1.46941 1.47565 1.4819 
1.48814 1.48906 1.48107 1.47309 1.4651 1.45711 1.44913 1.44114 1.43315 
1.42517 1.41718 1.40919 1.4012 1.39322 1.38523 1.37724 1.36926 1.36127 
1.35328 1.3453 1.33731 1.33126 1.34293 1.35459 1.36626 1.37793 1.38959 
1.40126 1.41293 1.42459 1.43626 1.44793 1.45959 1.47126 1.48292 1.49459 
1.50626 1.51792 1.52959 1.54126 1.55292 1.56459 1.58823 1.61443 1.64064 
1.66684 1.69305 1.71925 1.74546 1.77167 1.79787 1.82408 1.85028 1.87649 
1.90269 1.9289 1.9551 1.98131 2.00751 2.03372 2.05992 2.08613 2.08525 
2.06186 2.03848 2.01509 1.9917 1.96832 1.94493 1.92155 1.89816 1.87478 
1.85139 1.828 1.80462 1.78123 1.75785 1.73446 1.71108 1.68769 1.66431 
1.64092 1.6207 1.60914 1.59758 1.58602 1.57446 1.5629 1.55134 1.53977 
1.52821 1.51665 1.50509 1.49353 1.48197 1.47041 1.45885 1.44729 1.43572 
1.42416 1.4126 1.40104 1.38948 1.4067 1.42422 1.44173 1.45925 1.47677 
1.49429 1.51181 1.52933 1.54685 1.56437 1.58188 1.5994 1.61692 1.63444 
1.65196 1.66948 1.687 1.70452 1.72203 1.73955 1.74865 1.75434 1.76004 
1.76573 1.77142 1.77712 1.78281 1.78851 1.7942 1.7999 1.80559 1.81129 
1.81698 1.82267 1.82837 1.83406 1.83976 1.84545 1.85115 1.85684 1.8577 
1.85252 1.84734 1.84217 1.83699 1.83181 1.82664 1.82146 1.81628 1.81111 
1.80593 1.80075 1.79558 1.7904 1.78522 1.78005 1.77487 1.76969 1.76452 
1.75934 1.75351 1.74486 1.7362 1.72755 1.71889 1.71024 1.70158 1.69293 
1.68427 1.67562 1.66696 1.65831 1.64965 1.641 1.63234 1.62369 1.61503 
1.60638 1.59773 1.58907 1.58042 1.5788 1.57777 1.57674 1.5757 1.57467 
1.57364 1.57261 1.57158 1.57055 1.56952 1.56848 1.56745 1.56642 1.56539 
1.56436 1.56333 1.5623 1.56127 1.56023 1.5592 1.55856 1.55812 1.55769 
1.55725 1.55681 1.55638 1.55594 1.55551 1.55507 1.55463 1.5542 1.55376 
1.55333 1.55289 1.55245 1.55202 1.55158 1.55115 1.55071 1.55027 1.54919 
1.54699 1.54479 1.54259 1.54039 1.5382 1.536 1.5338 1.5316 1.5294 
1.52721 1.52501 1.52281 1.52061 1.51841 1.51621 1.51402 1.51182 1.50962 
1.50742 1.50443 1.49341 1.4824 1.47138 1.46036 1.44934 1.43832 1.4273 
1.41628 1.40526 1.39424 1.38322 1.3722 1.36118 1.35016 1.33914 1.32812 
1.31711 1.30609 1.29507 1.28405 1.27928 1.276 1.27272 1.26944 1.26616 
1.26288 1.25959 1.25631 1.25303 1.24975 1.24647 1.24319 1.23991 1.23663 
1.23335 1.23007 1.22679 1.2235 1.22022 1.21694 1.2206 1.23049 1.24038 
1.25027 1.26016 1.27005 1.27994 1.28983 1.29972 1.30961 1.3195 1.32939 
1.33928 1.34917 1.35906 1.36895 1.37884 1.38873 1.39862 1.40851 1.41405 
1.40615 1.39826 1.39036 1.38246 1.37457 1.36667 1.35877 1.35088 1.34298 
1.33508 1.32718 1.31929 1.31139 1.30349 1.2956 1.2877 1.2798 1.27191 
1.26401 1.25611 1.245 1.23376 1.22253 1.21129 1.20005 1.18881 1.17757 
1.16633 1.1551 1.14386 1.13262 1.12138 1.11014 1.09891 1.08767 1.07643 
1.06519 1.05395 1.04271 1.03148 1.0324 1.03908 1.04575 1.05243 1.0591 
1.06578 1.07245 1.07913 1.0858 1.09248 1.09915 1.10583 1.1125 1.11918 
1.12585 1.13253 1.1392 1.14588 1.15255 1.15923 1.16475 1.16854 1.17232 
1.1761 1.17989 1.18367 1.18746 1.19124 1.19502 1.19881 1.20259 1.20637 
1.21016 1.21394 1.21772 1.22151 1.22529 1.22908 1.23286 1.23664 1.24003 
1.24031 1.24059 1.24088 1.24116 1.24144 1.24172 1.242 1.24228 1.24256 
1.24284 1.24312 1.24341 1.24369 1.24397 1.24425 1.24453 1.24481 1.24509 
1.24537 1.24565 1.24659 1.24762 1.24865 1.24968 1.25071 1.25173 1.25276 
1.25379 1.25482 1.25585 1.25688 1.25791 1.25894 1.25997 1.261 1.26203 
1.26306 1.26408 1.26511 1.26614 1.26671 1.26649 1.26627 1.26606 1.26584 
1.26562 1.26541 1.26519 1.26497 1.26475 1.26454 1.26432 1.2641 1.26389 
1.26367 1.26345 1.26323 1.26302 1.2628 1.26258 1.26159 1.26051 1.25943 
1.25835 1.25727 1.25619 1.25511 1.25403 1.25295 1.25187 1.2508 1.24972 
1.24864 1.24756 1.24648 1.2454 1.24432 1.24324 1.24216 1.24108 1.24 

TEXTURE_COORDINATES TCoords 2 float
0 0 0.000783085 0 0.00156617 0 0.00234926 0 0.00313234 
0 0.00391543 0 0.00469851 0 0.0054816 0 0.00626468 0 
0.00704777 0 0.00783085 0 0.00861394 0 0.00939702 0 0.0101801 
0 0.0109632 0 0.0117463 0 0.0125294 0 0.0133125 0 
0.0140955 0 0.0148786 0 0.0156617 0 0.0164448 0 0.0172279 
0 0.018011 0 0.018794 0 0.0195771 0 0.0203602 0 
0.0211433 0 0.0219264 0 0.0227095 0 0.0234926 0 0.0242756 
0 0.0250587 0 0.0258418 0 0.0266249 0 0.027408 0 
0.0281911 0 0.0289742 0 0.0297572 0 0.0305403 0 0.0313234 
0 0.0321065 0 0.0328896 0 0.0336727 0 0.0344558 0 
0.0352388 0 0.0360219 0 0.036805 0 0.0375881 0 0.0383712 
0 0.0391543 0 0.0399374 0 0.0407204 0 0.0415035 0 
0.0422866 0 0.0430697 0 0.0438528 0 0.0446359 0 0.045419 
0 0.046202 0 0.0469851 0 0.0477682 0 0.0485513 0 
0.0493344 0 0.0501175 0 0.0509005 0 0.0516836 0 0.0524667 
0 0.0532498 0 0.0540329 0 0.054816 0 0.0555991 0 
0.0563821 0 0.0571652 0 0.0579483 0 0.0587314 0 0.0595145 
0 0.0602976 0 0.0610807 0 0.0618637 0 0.0626468 0 
0.0634299 0 0.064213 0 0.0649961 0 0.0657792 0 0.0665623 
0 0.0673453 0 0.0681284 0 0.0689115 0 0.0696946 0 
0.0704777 0 0.0712608 0 0.0720439 0 0.0728269 0 0.07361 
0 0.0743931 0 0.0751762 0 0.0759593 0 0.0767424 0 
0.0775255 0 0.0783085 0 0.0790916 0 0.0798747 0 0.0806578 
0 0.0814409 0 0.082224 0 0.083007 0 0.0837901 0 
0.0845732 0 0.0853563 0 0.0861394 0 0.0869225 0 0.0877056 
0 0.0884886 0 0.0892717 0 0.0900548 0 0.0908379 0 
0.091621 0 0.0924041 0 0.0931872 0 0.0939702 0 0.0947533 
0 0.0955364 0 0.0963195 0 0.0971026 0 0.0978857 0 
0.0986688 0 0.0994518 0 0.100235 0 0.101018 0 0.101801 
0 0.102584 0 0.103367 0 0.10415 0 0.104933 0 
0.105717 0 0.1065 0 0.107283 0 0.108066 0 0.108849 
0 0.109632 0 0.110415 0 0.111198 0 0.111981 0 
0.112764 0 0.113547 0 0.11433 0 0.115114 0 0.115897 
0 0.11668 0 0.117463 0 0.118246 0 0.119029 0 
0.119812 0 0.120595 0 0.121378 0 0.122161 0 0.122944 
0 0.123727 0 0.124511 0 0.125294 0 0.126077 0 
0.12686 0 0.127643 0 0.128426 0 0.129209 0 0.129992 
0 0.130775 0 0.131558 0 0.132341 0 0.133125 0 
0.133908 0 0.134691 0 0.135474 0 0.136257 0 0.13704 
0 0.137823 0 0.138606 0 0.139389 0 0.140172 0 
0.140955 0 0.141738 0 0.142522 0 0.143305 0 0.144088 
0 0.144871 0 0.145654 0 0.146437 0 0.14722 0 
0.148003 0 0.148786 0 0.149569 0 0.150352 0 0.151135 
0 0.151919 0 0.152702 0 0.153485 0 0.154268 0 
0.155051 0 0.155834 0 0.156617 0 0.1574 0 0.158183 
0 0.158966 0 0.159749 0 0.160533 0 0.161316 0 
0.162099 0 0.162882 0 0.163665 0 0.164448 0 0.165231 
0 0.166014 0 0.166797 0 0.16758 0 0.168363 0 
0.169146 0 0.16993 0 0.170713 0 0.171496 0 0.172279 
0 0.173062 0 0.173845 0 0.174628 0 0.175411 0 
0.176194 0 0.176977 0 0.17776 0 0.178543 0 0.179327 
0 0.18011 0 0.180893 0 0.181676 0 0.182459 0 
0.183242 0 0.184025 0 0.184808 0 0.185591 0 0.186374 
0 0.187157 0 0.18794 0 0.188724 0 0.189507 0 
0.19029 0 0.191073 0 0.191856 0 0.192639 0 0.193422 
0 0.194205 0 0.194988 0 0.195771 0 0.196554 0 
0.197338 0 0.198121 0 0.198904 0 0.199687 0 0.20047 
0 0.201253 0 0.202036 0 0.202819 0 0.203602 0 
0.204385 0 0.205168 0 0.205951 0 0.206735 0 0.207518 
0 0.208301 0 0.209084 0 0.209867 0 0.21065 0 
0.211433 0 0.212216 0 0.212999 0 0.213782 0 0.214565 
0 0.215348 0 0.216132 0 0.216915 0 0.217698 0 
0.218481 0 0.219264 0 0.220047 0 0.22083 0 0.221613 
0 0.222396 0 0.223179 0 0.223962 0 0.224745 0 
0.225529 0 0.226312 0 0.227095 0 0.227878 0 0.228661 
0 0.229444 0 0.230227 0 0.23101 0 0.231793 0 
0.232576 0 0.233359 0 0.234143 0 0.234926 0 0.235709 
0 0.236492 0 0.237275 0 0.238058 0 0.238841 0 
0.239624 0 0.240407 0 0.24119 0 0.241973 0 0.242756 
0 0.24354 0 0.244323 0 0.245106 0 0.245889 0 
0.246672 0 0.247455 0 0.248238 0 0.249021 0 0.249804 
0 0.250587 0 0.25137 0 0.252153 0 0.252937 0 
0.25372 0 0.254503 0 0.255286 0 0.256069 0 0.256852 
0 0.257635 0 0.258418 0 0.259201 0 0.259984 0 
0.260767 0 0.261551 0 0.262334 0 0.263117 0 0.2639 
0 0.264683 0 0.265466 0 0.266249 0 0.267032 0 
0.267815 0 0.268598 0 0.269381 0 0.270164 0 0.270948 
0 0.271731 0 0.272514 0 0.273297 0 0.27408 0 
0.274863 0 0.275646 0 0.276429 0 0.277212 0 0.277995 
0 0.278778 0 0.279561 0 0.280345 0 0.281128 0 
0.281911 0 0.282694 0 0.283477 0 0.28426 0 0.285043 
0 0.285826 0 0.286609 0 0.287392 0 0.288175 0 
0.288958 0 0.289742 0 0.290525 0 0.291308 0 0.292091 
0 0.292874 0 0.293657 0 0.29444 0 0.295223 0 
0.296006 0 0.296789 0 0.297572 0 0.298356 0 0.299139 
0 0.299922 0 0.300705 0 0.301488 0 0.302271 0 
0.303054 0 0.303837 0 0.30462 0 0.305403 0 0.306186 
0 0.306969 0 0.307753 0 0.308536 0 0.309319 0 
0.310102 0 0.310885 0 0.311668 0 0.312451 0 0.313234 
0 0.314017 0 0.3148 0 0.315583 0 0.316366 0 
0.31715 0 0.317933 0 0.318716 0 0.319499 0 0.320282 
0 0.321065 0 0.321848 0 0.322631 0 0.323414 0 
0.324197 0 0.32498 0 0.325763 0 0.326547 0 0.32733 
0 0.328113 0 0.328896 0 0.329679 0 0.330462 0 
0.331245 0 0.332028 0 0.332811 0 0.333594 0 0.334377 
0 0.335161 0 0.335944 0 0.336727 0 0.33751 0 
0.338293 0 0.339076 0 0.339859 0 0.340642 0 0.341425 
0 0.342208 0 0.342991 0 0.343774 0 0.344558 0 
0.345341 0 0.346124 0 0.346907 0 0.34769 0 0.348473 
0 0.349256 0 0.350039 0 0.350822 0 0.351605 0 
0.352388 0 0.353171 0 0.353955 0 0.354738 0 0.355521 
0 0.356304 0 0.357087 0 0.35787 0 0.358653 0 
0.359436 0 0.360219 0 0.361002 0 0.361785 0 0.362569 
0 0.363352 0 0.364135 0 0.364918 0 0.365701 0 
0.366484 0 0.367267 0 0.36805 0 0.368833 0 0.369616 
0 0.370399 0 0.371182 0 0.371966 0 0.372749 0 
0.373532 0 0.374315 0 0.375098 0 0.375881 0 0.376664 
0 0.377447 0 0.37823 0 0.379013 0 0.379796 0 
0.380579 0 0.381363 0 0.382146 0 0.382929 0 0.383712 
0 0.384495 0 0.385278 0 0.386061 0 0.386844 0 
0.387627 0 0.38841 0 0.389193 0 0.389977 0 0.39076 
0 0.391543 0 0.392326 0 0.393109 0 0.393892 0 
0.394675 0 0.395458 0 0.396241 0 0.397024 0 0.397807 
0 0.39859 0 0.399374 0 0.400157 0 0.40094 0 
0.401723 0 0.402506 0 0.403289 0 0.404072 0 0.404855 
0 0.405638 0 0.406421 0 0.407204 0 0.407987 0 
0.408771 0 0.409554 0 0.410337 0 0.41112 0 0.411903 
0 0.412686 0 0.413469 0 0.414252 0 0.415035 0 
0.415818 0 0.416601 0 0.417385 0 0.418168 0 0.418951 
0 0.419734 0 0.420517 0 0.4213 0 0.422083 0 
0.422866 0 0.423649 0 0.424432 0 0.425215 0 0.425998 
0 0.426782 0 0.427565 0 0.428348 0 0.429131 0 
0.429914 0 0.430697 0 0.43148 0 0.432263 0 0.433046 
0 0.433829 0 0.434612 0 0.435395 0 0.436179 0 
0.436962 0 0.437745 0 0.438528 0 0.439311 0 0.440094 
0 0.440877 0 0.44166 0 0.442443 0 0.443226 0 
0.444009 0 0.444792 0 0.445576 0 0.446359 0 0.447142 
0 0.447925 0 0.448708 0 0.449491 0 0.450274 0 
0.451057 0 0.45184 0 0.452623 0 0.453406 0 0.45419 
0 0.454973 0 0.455756 0 0.456539 0 0.457322 0 
0.458105 0 0.458888 0 0.459671 0 0.460454 0 0.461237 
0 0.46202 0 0.462803 0 0.463587 0 0.46437 0 
0.465153 0 0.465936 0 0.466719 0 0.467502 0 0.468285 
0 0.469068 0 0.469851 0 0.470634 0 0.471417 0 
0.4722 0 0.472984 0 0.473767 0 0.47455 0 0.475333 
0 0.476116 0 0.476899 0 0.477682 0 0.478465 0 
0.479248 0 0.480031 0 0.480814 0 0.481597 0 0.482381 
0 0.483164 0 0.483947 0 0.48473 0 0.485513 0 
0.486296 0 0.487079 0 0.487862 0 0.488645 0 0.489428 
0 0.490211 0 0.490995 0 0.491778 0 0.492561 0 
0.493344 0 0.494127 0 0.49491 0 0.495693 0 0.496476 
0 0.497259 0 0.498042 0 0.498825 0 0.499608 0 
0.500392 0 0.501175 0 0.501958 0 0.502741 0 0.503524 
0 0.504307 0 0.50509 0 0.505873 0 0.506656 0 
0.507439 0 0.508222 0 0.509005 0 0.509789 0 0.510572 
0 0.511355 0 0.512138 0 0.512921 0 0.513704 0 
0.514487 0 0.51527 0 0.516053 0 0.516836 0 0.517619 
0 0.518403 0 0.519186 0 0.519969 0 0.520752 0 
0.521535 0 0.522318 0 0.523101 0 0.523884 0 0.524667 
0 0.52545 0 0.526233 0 0.527016 0 0.5278 0 
0.528583 0 0.529366 0 0.530149 0 0.530932 0 0.531715 
0 0.532498 0 0.533281 0 0.534064 0 0.534847 0 
0.53563 0 0.536413 0 0.537197 0 0.53798 0 0.538763 
0 0.539546 0 0.540329 0 0.541112 0 0.541895 0 
0.542678 0 0.543461 0 0.544244 0 0.545027 0 0.545811 
0 0.546594 0 0.547377 0 0.54816 0 0.548943 0 
0.549726 0 0.550509 0 0.551292 0 0.552075 0 0.552858 
0 0.553641 0 0.554424 0 0.555207 0 0.555991 0 
0.556774 0 0.557557 0 0.55834 0 0.559123 0 0.559906 
0 0.560689 0 0.561472 0 0.562255 0 0.563038 0 
0.563821 0 0.564605 0 0.565388 0 0.566171 0 0.566954 
0 0.567737 0 0.56852 0 0.569303 0 0.570086 0 
0.570869 0 0.571652 0 0.572435 0 0.573218 0 0.574002 
0 0.574785 0 0.575568 0 0.576351 0 0.577134 0 
0.577917 0 0.5787 0 0.579483 0 0.580266 0 0.581049 
0 0.581832 0 0.582615 0 0.583399 0 0.584182 0 
0.584965 0 0.585748 0 0.586531 0 0.587314 0 0.588097 
0 0.58888 0 0.589663 0 0.590446 0 0.591229 0 
0.592013 0 0.592796 0 0.593579 0 0.594362 0 0.595145 
0 0.595928 0 0.596711 0 0.597494 0 0.598277 0 
0.59906 0 0.599843 0 0.600626 0 0.60141 0 0.602193 
0 0.602976 0 0.603759 0 0.604542 0 0.605325 0 
0.606108 0 0.606891 0 0.607674 0 0.608457 0 0.60924 
0 0.610023 0 0.610807 0 0.61159 0 0.612373 0 
0.613156 0 0.613939 0 0.614722 0 0.615505 0 0.616288 
0 0.617071 0 0.617854 0 0.618637 0 0.619421 0 
0.620204 0 0.620987 0 0.62177 0 0.622553 0 0.623336 
0 0.624119 0 0.624902 0 0.625685 0 0.626468 0 
0.627251 0 0.628034 0 0.628818 0 0.629601 0 0.630384 
0 0.631167 0 0.63195 0 0.632733 0 0.633516 0 
0.634299 0 0.635082 0 0.635865 0 0.636648 0 0.637432 
0 0.638215 0 0.638998 0 0.639781 0 0.640564 0 
0.641347 0 0.64213 0 0.642913 0 0.643696 0 0.644479 
0 0.645262 0 0.646045 0 0.646829 0 0.647612 0 
0.648395 0 0.649178 0 0.649961 0 0.650744 0 0.651527 
0 0.65231 0 0.653093 0 0.653876 0 0.654659 0 