# vtk DataFile Version 4.2
vtk output
ASCII
DATASET POLYDATA
POINTS 1278 float
0 0 0 -0.00342061 0.002121 -0.000766438 -0.013408 0.00828942 -0.00299595 
-0.0295504 0.0182134 -0.00658385 -0.0514363 0.0316009 -0.0114254 -0.0786538 0.0481603 -0.017416 
-0.110791 0.0675994 -0.0244509 -0.147437 0.0896265 -0.0324253 -0.18818 0.11395 -0.0412347 
-0.232607 0.140277 -0.0507743 -0.280307 0.168317 -0.0609393 -0.330869 0.197777 -0.0716252 
-0.383881 0.228365 -0.0827272 -0.438931 0.25979 -0.0941406 -0.495608 0.29176 -0.105761 
-0.553499 0.323983 -0.117483 -0.612194 0.356167 -0.129202 -0.671279 0.388019 -0.140815 
-0.730345 0.419249 -0.152215 -0.788978 0.449564 -0.163298 -0.846768 0.478673 -0.17396 
-0.903302 0.506283 -0.184096 -0.958286 0.532186 -0.19363 -1.01177 0.556419 -0.202577 
-1.06387 0.579065 -0.210966 -1.1147 0.600207 -0.218825 -1.16438 0.619929 -0.226185 
-1.21302 0.638312 -0.233076 -1.26073 0.65544 -0.239526 -1.30763 0.671396 -0.245565 
-1.35383 0.686262 -0.251222 -1.39946 0.700122 -0.256528 -1.44462 0.713058 -0.261511 
-1.48943 0.725154 -0.266201 -1.534 0.736492 -0.270627 -1.57845 0.747154 -0.27482 
-1.6229 0.757225 -0.278808 -1.66745 0.766787 -0.282621 -1.71222 0.775922 -0.286288 
-1.75734 0.784714 -0.289839 -1.8029 0.793246 -0.293303 -1.84903 0.801596 -0.296709 
-1.89575 0.809781 -0.300062 -1.94301 0.817774 -0.303352 -1.99079 0.825549 -0.306569 
-2.03904 0.833078 -0.309703 -2.08774 0.840333 -0.312744 -2.13684 0.847286 -0.315682 
-2.1863 0.853911 -0.318506 -2.2361 0.860181 -0.321206 -2.28618 0.866066 -0.323772 
-2.33653 0.871541 -0.326195 -2.38709 0.876577 -0.328463 -2.43783 0.881148 -0.330566 
-2.48872 0.885225 -0.332495 -2.53972 0.888781 -0.33424 -2.59079 0.891789 -0.335789 
-2.64189 0.894222 -0.337133 -2.693 0.896051 -0.338262 -2.74406 0.89725 -0.339166 
-2.79505 0.89779 -0.339834 -2.84593 0.897645 -0.340257 -2.89667 0.896798 -0.340427 
-2.94726 0.895261 -0.340348 -2.99772 0.893049 -0.340026 -3.04805 0.890178 -0.339466 
-3.09824 0.886665 -0.338672 -3.14831 0.882525 -0.337651 -3.19824 0.877775 -0.336405 
-3.24806 0.87243 -0.334942 -3.29775 0.866506 -0.333266 -3.34732 0.860019 -0.331382 
-3.39678 0.852986 -0.329295 -3.44612 0.845422 -0.32701 -3.49536 0.837343 -0.324532 
-3.54449 0.828765 -0.321867 -3.59351 0.819705 -0.319019 -3.64243 0.810177 -0.315994 
-3.69125 0.800199 -0.312796 -3.73998 0.789786 -0.309431 -3.78861 0.778954 -0.305904 
-3.83715 0.767719 -0.30222 -3.88561 0.756096 -0.298383 -3.93397 0.744093 -0.294396 
-3.98224 0.731714 -0.290261 -4.03042 0.718966 -0.28598 -4.0785 0.705855 -0.281554 
-4.12648 0.692385 -0.276985 -4.17436 0.678563 -0.272275 -4.22213 0.664394 -0.267427 
-4.2698 0.649883 -0.262441 -4.31736 0.635037 -0.257319 -4.36481 0.61986 -0.252064 
-4.41215 0.604359 -0.246677 -4.45937 0.588539 -0.24116 -4.50647 0.572405 -0.235514 
-4.55345 0.555963 -0.229742 -4.60032 0.539219 -0.223846 -4.64705 0.522178 -0.217827 
-4.69366 0.504846 -0.211686 -4.74014 0.487228 -0.205427 -4.78649 0.46933 -0.19905 
-4.8327 0.451158 -0.192557 -4.87878 0.432717 -0.185952 -4.92473 0.414016 -0.179237 
-4.97056 0.395061 -0.172416 -5.01625 0.375859 -0.165493 -5.06183 0.356416 -0.158471 
-5.10729 0.336741 -0.151353 -5.15263 0.316839 -0.144142 -5.19786 0.296718 -0.136843 
-5.24298 0.276385 -0.129458 -5.28799 0.255847 -0.121991 -5.3329 0.235111 -0.114445 
-5.37771 0.214184 -0.106824 -5.42241 0.193072 -0.0991306 -5.46702 0.171784 -0.0913691 
-5.51154 0.150325 -0.0835425 -5.55597 0.128703 -0.0756542 -5.60031 0.106924 -0.0677076 
-5.64456 0.0849965 -0.0597062 -5.68874 0.0629265 -0.0516533 -5.73283 0.0407212 -0.0435523 
-5.77685 0.0183863 -0.035407 -5.8208 -0.0040744 -0.0272217 -5.86467 -0.026657 -0.0190006 
-5.90848 -0.0493579 -0.010748 -5.95222 -0.0721733 -0.00246817 -5.9959 -0.0950995 0.00583456 
-6.03952 -0.118133 0.0141559 -6.08308 -0.141269 0.0224916 -6.12659 -0.164505 0.0308374 
-6.17004 -0.187837 0.039189 -6.21345 -0.211261 0.047542 -6.25681 -0.234774 0.0558923 
-6.30013 -0.258371 0.0642355 -6.3434 -0.282048 0.0725673 -6.38663 -0.305803 0.0808835 
-6.42983 -0.329632 0.0891798 -6.473 -0.35353 0.0974518 -6.51613 -0.377494 0.105695 
-6.55924 -0.40152 0.113906 -6.60232 -0.425605 0.12208 -6.64538 -0.449745 0.130212 
-6.68842 -0.473937 0.138295 -6.73144 -0.498181 0.146325 -6.77444 -0.522473 0.154292 
-6.81743 -0.546813 0.162192 -6.86041 -0.571197 0.170017 -6.90337 -0.595624 0.177761 
-6.94633 -0.620091 0.185417 -6.98928 -0.644598 0.192979 -7.03223 -0.669142 0.20044 
-7.07518 -0.69372 0.207794 -7.11812 -0.718332 0.215033 -7.16107 -0.742974 0.222151 
-7.20402 -0.767645 0.229142 -7.24698 -0.792343 0.235999 -7.28995 -0.817066 0.242715 
-7.33293 -0.841812 0.249284 -7.37592 -0.866579 0.255699 -7.41892 -0.891364 0.261954 
-7.46195 -0.916167 0.268042 -7.50499 -0.940985 0.273955 -7.54805 -0.965816 0.279685 
-7.59113 -0.990662 0.28522 -7.63422 -1.01552 0.290548 -7.67734 -1.04039 0.295658 
-7.72048 -1.06528 0.30054 -7.76363 -1.09018 0.305181 -7.80681 -1.11509 0.309571 
-7.85 -1.14001 0.313698 -7.89321 -1.16495 0.317551 -7.93644 -1.1899 0.321119 
-7.97969 -1.21485 0.324391 -8.02296 -1.23982 0.327354 -8.06625 -1.2648 0.329999 
-8.10955 -1.28979 0.332314 -8.15287 -1.31479 0.334287 -8.19622 -1.3398 0.335907 
-8.23958 -1.36482 0.337164 -8.28296 -1.38985 0.338045 -8.32635 -1.41489 0.33854 
-8.36977 -1.43993 0.338637 -8.4132 -1.46499 0.338322 -8.45663 -1.49005 0.337579 
-8.50006 -1.51512 0.336392 -8.54347 -1.5402 0.334744 -8.58685 -1.56529 0.33262 
-8.63021 -1.59039 0.330001 -8.67351 -1.61549 0.326874 -8.71677 -1.64061 0.32322 
-8.75996 -1.66573 0.319023 -8.80308 -1.69086 0.314268 -8.84612 -1.716 0.308937 
-8.88907 -1.74114 0.303015 -8.93192 -1.7663 0.296485 -8.97466 -1.79146 0.289331 
-9.01727 -1.81664 0.281536 -9.05976 -1.84182 0.273084 -9.10211 -1.86701 0.263959 
-9.14431 -1.89221 0.254144 -9.18635 -1.91741 0.243623 -9.22823 -1.94263 0.232379 
-9.26993 -1.96785 0.220403 -9.31143 -1.99308 0.207695 -9.35272 -2.01832 0.19426 
-9.39378 -2.04357 0.1801 -9.43459 -2.06883 0.165217 -9.47515 -2.09409 0.149616 
-9.51542 -2.11936 0.133299 -9.55539 -2.14464 0.116269 -9.59506 -2.16992 0.0985297 
-9.63439 -2.19522 0.0800836 -9.67337 -2.22051 0.060934 -9.712 -2.24582 0.0410838 
-9.75024 -2.27113 0.0205362 -9.78808 -2.29645 -0.000705756 -9.82551 -2.32177 -0.022639 
-9.8625 -2.3471 -0.0452606 -9.89905 -2.37243 -0.0685673 -9.93514 -2.39777 -0.0925562 
-9.97074 -2.42312 -0.117224 -10.0058 -2.44847 -0.142568 -10.0404 -2.47382 -0.168582 
-10.0745 -2.49918 -0.195251 -10.1081 -2.52455 -0.222556 -10.1411 -2.54993 -0.250479 
-10.1736 -2.57532 -0.279 -10.2056 -2.60073 -0.308102 -10.2371 -2.62615 -0.337765 
-10.2681 -2.65159 -0.367971 -10.2985 -2.67704 -0.398702 -10.3284 -2.70252 -0.42994 
-10.3579 -2.72802 -0.461664 -10.3867 -2.75354 -0.493858 -10.4151 -2.77909 -0.526501 
-10.4429 -2.80467 -0.559577 -10.4703 -2.83028 -0.593066 -10.4971 -2.85592 -0.626949 
-10.5233 -2.88159 -0.661208 -10.5491 -2.9073 -0.695825 -10.5743 -2.93304 -0.730781 
-10.599 -2.95882 -0.766057 -10.6232 -2.98464 -0.801636 -10.6468 -3.01051 -0.837503 
-10.67 -3.03641 -0.873648 -10.6926 -3.06237 -0.910061 -10.7148 -3.08837 -0.946729 
-10.7364 -3.11442 -0.983644 -10.7576 -3.14053 -1.02079 -10.7783 -3.16669 -1.05817 
-10.7985 -3.19291 -1.09575 -10.8183 -3.21918 -1.13354 -10.8376 -3.24552 -1.17152 
-10.8565 -3.27191 -1.20968 -10.875 -3.29838 -1.24801 -10.893 -3.32491 -1.2865 
-10.9106 -3.35151 -1.32513 -10.9278 -3.37818 -1.36391 -10.9445 -3.40492 -1.40281 
-10.9609 -3.43174 -1.44183 -10.9769 -3.45863 -1.48095 -10.9925 -3.4856 -1.52016 
-11.0077 -3.51266 -1.55946 -11.0226 -3.5398 -1.59883 -11.0371 -3.56702 -1.63828 
-11.0512 -3.59433 -1.67778 -11.065 -3.62172 -1.71735 -11.0784 -3.6492 -1.75697 
-11.0915 -3.67677 -1.79665 -11.1043 -3.70444 -1.83637 -11.1167 -3.73219 -1.87612 
-11.1288 -3.76004 -1.91592 -11.1406 -3.78799 -1.95574 -11.1521 -3.81603 -1.99559 
-11.1632 -3.84416 -2.03546 -11.1741 -3.8724 -2.07534 -11.1846 -3.90074 -2.11523 
-11.1949 -3.92917 -2.15513 -11.2049 -3.95772 -2.19503 -11.2146 -3.98636 -2.23493 
-11.224 -4.01511 -2.27481 -11.2331 -4.04397 -2.31468 -11.242 -4.07294 -2.35453 
-11.2506 -4.10201 -2.39436 -11.259 -4.1312 -2.43415 -11.2671 -4.1605 -2.47392 
-11.2749 -4.18991 -2.51365 -11.2825 -4.21943 -2.55335 -11.2899 -4.24907 -2.59301 
-11.297 -4.27882 -2.63262 -11.3039 -4.30869 -2.67219 -11.3105 -4.33868 -2.7117 
-11.3169 -4.36879 -2.75117 -11.3231 -4.39901 -2.79058 -11.329 -4.42936 -2.82993 
-11.3347 -4.45983 -2.86921 -11.3402 -4.49042 -2.90844 -11.3455 -4.52114 -2.94759 
-11.3505 -4.55198 -2.98667 -11.3554 -4.58294 -3.02568 -11.36 -4.61404 -3.06461 
-11.3644 -4.64526 -3.10346 -11.3687 -4.67661 -3.14223 -11.3727 -4.70809 -3.18091 
-11.3765 -4.7397 -3.2195 -11.3801 -4.77144 -3.25799 -11.3835 -4.80333 -3.29639 
-11.3867 -4.83535 -3.3347 -11.3898 -4.86751 -3.3729 -11.3926 -4.89981 -3.41099 
-11.3952 -4.93226 -3.44898 -11.3977 -4.96485 -3.48685 -11.3999 -4.9976 -3.52462 
-11.402 -5.03049 -3.56226 -11.4039 -5.06354 -3.59979 -11.4056 -5.09675 -3.63719 
-11.4071 -5.13011 -3.67447 -11.4084 -5.16363 -3.71162 -11.4096 -5.19732 -3.74864 
-11.4106 -5.23117 -3.78552 -11.4113 -5.26518 -3.82227 -11.4119 -5.29937 -3.85888 
-11.4124 -5.33372 -3.89534 -11.4126 -5.36825 -3.93166 -11.4127 -5.40295 -3.96782 
-11.4126 -5.43783 -4.00383 -11.4124 -5.47288 -4.03967 -11.4119 -5.50812 -4.07533 
-11.4113 -5.54353 -4.11081 -11.4105 -5.57912 -4.14611 -11.4095 -5.6149 -4.18121 
-11.4083 -5.65086 -4.2161 -11.407 -5.687 -4.25078 -11.4055 -5.72333 -4.28524 
-11.4038 -5.75984 -4.31948 -11.4019 -5.79654 -4.35348 -11.3999 -5.83343 -4.38724 
-11.3976 -5.87051 -4.42075 -11.3952 -5.90779 -4.454 -11.3926 -5.94525 -4.48699 
-11.3898 -5.98291 -4.51971 -11.3869 -6.02076 -4.55215 -11.3837 -6.05881 -4.5843 
-11.3804 -6.09706 -4.61616 -11.3769 -6.13551 -4.64771 -11.3732 -6.17417 -4.67895 
-11.3693 -6.21306 -4.70987 -11.3652 -6.25218 -4.74044 -11.3609 -6.29156 -4.77067 
-11.3564 -6.33119 -4.80054 -11.3517 -6.3711 -4.83003 -11.3467 -6.41129 -4.85915 
[...]
CELL_DATA 1
FIELD FieldData 2
Length 1 1 double
63.885606389 
Tortuosity 1 1 double
1.1902665582 
POINT_DATA 1278
SCALARS MaximumInscribedSphereRadius float
LOOKUP_TABLE default
0.62 0.627065 0.634129 0.641194 0.648259 0.655324 0.662388 0.669453 0.676518 
0.683582 0.690647 0.697712 0.704776 0.711841 0.718906 0.72597 0.733035 0.7401 
0.747165 0.754229 0.761294 0.768893 0.781251 0.79361 0.805968 0.818327 0.830685 
0.843044 0.855403 0.867761 0.88012 0.892478 0.904837 0.917196 0.929554 0.941913 
0.954271 0.96663 0.978988 0.991347 1.00371 1.023 1.04642 1.06983 1.09325 
1.11667 1.14008 1.1635 1.18691 1.21033 1.23375 1.25716 1.28058 1.30399 
1.32741 1.35082 1.37424 1.39766 1.42107 1.44449 1.4679 1.4896 1.50134 
1.51309 1.52484 1.53659 1.54834 1.56009 1.57184 1.58358 1.59533 1.60708 
1.61883 1.63058 1.64233 1.65408 1.66582 1.67757 1.68932 1.70107 1.71282 
1.72457 1.71375 1.70075 1.68775 1.67475 1.66175 1.64875 1.63576 1.62276 
1.60976 1.59676 1.58376 1.57077 1.55777 1.54477 1.53177 1.51877 1.50578 
1.49278 1.47978 1.46678 1.45556 1.44538 1.4352 1.42502 1.41483 1.40465 
1.39447 1.38429 1.37411 1.36392 1.35374 1.34356 1.33338 1.3232 1.31301 
1.30283 1.29265 1.28247 1.27228 1.2621 1.25391 1.2494 1.24488 1.24037 
1.23585 1.23133 1.22682 1.2223 1.21779 1.21327 1.20875 1.20424 1.19972 
1.19521 1.19069 1.18618 1.18166 1.17714 1.17263 1.16811 1.16401 1.16547 
1.16694 1.1684 1.16986 1.17133 1.17279 1.17425 1.17571 1.17718 1.17864 
1.1801 1.18157 1.18303 1.18449 1.18595 1.18742 1.18888 1.19034 1.1918 
1.19327 1.19913 1.20619 1.21325 1.2203 1.22736 1.23442 1.24148 1.24854 
1.2556 1.26265 1.26971 1.27677 1.28383 1.29089 1.29794 1.305 1.31206 
1.31912 1.32618 1.33323 1.34928 1.37405 1.39883 1.4236 1.44837 1.47314 
1.49791 1.52268 1.54745 1.57223 1.597 1.62177 1.64654 1.67131 1.69608 
1.72085 1.74563 1.7704 1.79517 1.81994 1.84084 1.84935 1.85787 1.86638 
1.87489 1.88341 1.89192 1.90043 1.90895 1.91746 1.92597 1.93449 1.943 
1.95151 1.96003 1.96854 1.97705 1.98557 1.99408 2.00259 2.01111 1.99534 
1.97925 1.96316 1.94707 1.93098 1.91489 1.8988 1.88271 1.86661 1.85052 
1.83443 1.81834 1.80225 1.78616 1.77007 1.75398 1.73789 1.7218 1.70571 
1.68961 1.68623 1.68764 1.68905 1.69047 1.69188 1.6933 1.69471 1.69612 
1.69754 1.69895 1.70037 1.70178 1.7032 1.70461 1.70602 1.70744 1.70885 
1.71027 1.71168 1.71309 1.71686 1.72349 1.73013 1.73676 1.74339 1.75002 
1.75666 1.76329 1.76992 1.77655 1.78319 1.78982 1.79645 1.80308 1.80972 
1.81635 1.82298 1.82961 1.83625 1.84288 1.84847 1.84904 1.84962 1.85019 
1.85076 1.85134 1.85191 1.85248 1.85306 1.85363 1.8542 1.85478 1.85535 
1.85592 1.8565 1.85707 1.85764 1.85822 1.85879 1.85936 1.85994 1.85844 
1.85669 1.85494 1.85319 1.85144 1.84969 1.84794 1.84619 1.84444 1.84269 
1.84094 1.83919 1.83744 1.83569 1.83395 1.8322 1.83045 1.8287 1.82695 
1.8252 1.81977 1.81202 1.80426 1.79651 1.78875 1.781 1.77325 1.76549 
1.75774 1.74999 1.74223 1.73448 1.72672 1.71897 1.71122 1.70346 1.69571 
1.68796 1.6802 1.67245 1.66419 1.6549 1.64561 1.63633 1.62704 1.61775 
1.60846 1.59917 1.58989 1.5806 1.57131 1.56202 1.55273 1.54345 1.53416 
1.52487 1.51558 1.50629 1.49701 1.48772 1.47833 1.46787 1.4574 1.44694 
1.43648 1.42602 1.41556 1.4051 1.39463 1.38417 1.37371 1.36325 1.35279 
1.34233 1.33186 1.3214 1.31094 1.30048 1.29002 1.27956 1.26909 1.27795 
1.29083 1.3037 1.31658 1.32946 1.34234 1.35522 1.3681 1.38098 1.39385 
1.40673 1.41961 1.43249 1.44537 1.45825 1.47112 1.484 1.49688 1.50976 
1.52264 1.53763 1.55321 1.56879 1.58436 1.59994 1.61551 1.63109 1.64667 
1.66224 1.67782 1.6934 1.70897 1.72455 1.74012 1.7557 1.77128 1.78685 
1.80243 1.81801 1.83358 1.84874 1.86351 1.87829 1.89306 1.90784 1.92261 
1.93738 1.95216 1.96693 1.9817 1.99648 2.01125 2.02603 2.0408 2.05557 
2.07035 2.08512 2.09989 2.11467 2.12944 2.14401 2.15805 2.17208 2.18612 
2.20016 2.21419 2.22823 2.24227 2.2563 2.27034 2.28437 2.29841 2.31245 
2.32648 2.34052 2.35456 2.36859 2.38263 2.39667 2.4107 2.42474 2.40233 
2.37984 2.35736 2.33487 2.31238 2.28989 2.2674 2.24491 2.22242 2.19993 
2.17744 2.15495 2.13247 2.10998 2.08749 2.065 2.04251 2.02002 1.99753 
1.97504 1.95002 1.92401 1.89799 1.87198 1.84597 1.81995 1.79394 1.76792 
1.74191 1.7159 1.68988 1.66387 1.63785 1.61184 1.58583 1.55981 1.5338 
1.50779 1.48177 1.45576 1.44349 1.44886 1.45422 1.45959 1.46495 1.47032 
1.47568 1.48105 1.48641 1.49178 1.49715 1.50251 1.50788 1.51324 1.51861 
1.52397 1.52934 1.5347 1.54007 1.54544 1.55132 1.55996 1.56861 1.57726 
1.58591 1.59456 1.6032 1.61185 1.6205 1.62915 1.6378 1.64644 1.65509 
1.66374 1.67239 1.68104 1.68968 1.69833 1.70698 1.71563 1.72428 1.71543 
1.70413 1.69283 1.68154 1.67024 1.65894 1.64764 1.63634 1.62504 1.61374 
1.60244 1.59115 1.57985 1.56855 1.55725 1.54595 1.53465 1.52335 1.51206 
1.50076 1.49309 1.48781 1.48253 1.47725 1.47197 1.46669 1.46141 1.45614 
1.45086 1.44558 1.4403 1.43502 1.42974 1.42446 1.41918 1.4139 1.40863 
1.40335 1.39807 1.39279 1.39695 1.41952 1.44209 1.46465 1.48722 1.50979 
1.53236 1.55493 1.57749 1.60006 1.62263 1.6452 1.66777 1.69033 1.7129 
1.73547 1.75804 1.78061 1.80317 1.82574 1.8479 1.86606 1.88422 1.90238 
1.92054 1.93871 1.95687 1.97503 1.99319 2.01135 2.02951 2.04767 2.06583 
2.08399 2.10215 2.12031 2.13847 2.15663 2.17479 2.19295 2.21111 2.22328 
2.23429 2.2453 2.25631 2.26732 2.27832 2.28933 2.30034 2.31135 2.32236 
2.33336 2.34437 2.35538 2.36639 2.37739 2.3884 2.39941 2.41042 2.42143 
2.43243 2.4384 2.44051 2.44262 2.44473 2.44684 2.44895 2.45106 2.45317 
2.45528 2.45739 2.4595 2.46162 2.46373 2.46584 2.46795 2.47006 2.47217 
2.47428 2.47639 2.4785 2.47902 2.47565 2.47228 2.4689 2.46553 2.46216 
2.45879 2.45542 2.45204 2.44867 2.4453 2.44193 2.43855 2.43518 2.43181 
2.42844 2.42506 2.42169 2.41832 2.41495 2.41146 2.39654 2.38163 2.36671 
2.35179 2.33688 2.32196 2.30705 2.29213 2.27722 2.2623 2.24739 2.23247 
2.21756 2.20264 2.18772 2.17281 2.15789 2.14298 2.12806 2.11315 2.10596 
2.10163 2.0973 2.09297 2.08864 2.08431 2.07998 2.07564 2.07131 2.06698 
2.06265 2.05832 2.05399 2.04966 2.04532 2.04099 2.03666 2.03233 2.028 
2.02367 2.0295 2.0478 2.06609 2.08439 2.10269 2.12099 2.13929 2.15759 
2.17589 2.19419 2.21249 2.23078 2.24908 2.26738 2.28568 2.30398 2.32228 
2.34058 2.35888 2.37718 2.39453 2.40718 2.41983 2.43248 2.44512 2.45777 
2.47042 2.48306 2.49571 2.50836 2.52101 2.53365 2.5463 2.55895 2.57159 
2.58424 2.59689 2.60954 2.62218 2.63483 2.64748 2.63142 2.61157 2.59173 
2.57188 2.55204 2.53219 2.51235 2.4925 2.47266 2.45281 2.43297 2.41312 
2.39328 2.37343 2.35358 2.33374 2.31389 2.29405 2.2742 2.25436 2.23508 
2.21618 2.19728 2.17838 2.15948 2.14058 2.12168 2.10278 2.08388 2.06498 
2.04608 2.02717 2.00827 1.98937 1.97047 1.95157 1.93267 1.91377 1.89487 
1.87597 1.86304 1.86289 1.86274 1.86258 1.86243 1.86228 1.86213 1.86197 
1.86182 1.86167 1.86152 1.86137 1.86121 1.86106 1.86091 1.86076 1.8606 
1.86045 1.8603 1.86015 1.8604 1.87079 1.88119 1.89158 1.90198 1.91237 
1.92277 1.93316 1.94356 1.95395 1.96435 1.97474 1.98514 1.99553 2.00593 
2.01632 2.02672 2.03712 2.04751 2.05791 2.0683 2.08534 2.10443 2.12353 
2.14262 2.16172 2.18081 2.19991 2.219 2.2381 2.25719 2.27629 2.29538 
2.31447 2.33357 2.35266 2.37176 2.39085 2.40995 2.42904 2.44814 2.46115 
2.46801 2.47487 2.48173 2.48859 2.49546 2.50232 2.50918 2.51604 2.52291 
2.52977 2.53663 2.54349 2.55035 2.55722 2.56408 2.57094 2.5778 2.58467 
2.59153 2.59424 2.58362 2.57301 2.56239 2.55178 2.54116 2.53055 2.51993 
2.50932 2.4987 2.48809 2.47747 2.46686 2.45624 2.44563 2.43501 2.4244 
2.41378 2.40317 2.39255 2.38194 2.36256 2.343 2.32345 2.3039 2.28435 
2.26479 2.24524 2.22569 2.20614 2.18658 2.16703 2.14748 2.12793 2.10837 
2.08882 2.06927 2.04972 2.03016 2.01061 1.99106 1.97356 1.95685 1.94014 
1.92344 1.90673 1.89003 1.87332 1.85661 1.83991 1.8232 1.8065 1.78979 
1.77308 1.75638 1.73967 1.72297 1.70626 1.68955 1.67285 1.65614 1.64207 
1.63124 1.62041 1.60958 1.59875 1.58793 1.5771 1.56627 1.55544 1.54461 
1.53378 1.52295 1.51212 1.5013 1.49047 1.47964 1.46881 1.45798 1.44715 
1.43632 1.42624 1.4198 1.41337 1.40693 1.40049 1.39406 1.38762 1.38119 
1.37475 1.36831 1.36188 1.35544 1.34901 1.34257 1.33613 1.3297 1.32326 
1.31683 1.31039 1.30395 1.29752 1.30725 1.31901 1.33077 1.34253 1.35429 
1.36605 1.37781 1.38957 1.40133 1.41309 1.42485 1.43661 1.44837 1.46013 
1.47189 1.48365 1.49541 1.50717 1.51893 1.53069 1.5451 1.56122 1.57735 
1.59348 1.60961 1.62573 1.64186 1.65799 1.67412 1.69025 1.70637 1.7225 
1.73863 1.75476 1.77088 1.78701 1.80314 1.81927 1.83539 1.85152 1.86751 
1.88322 1.89893 1.91464 1.93035 1.94606 1.96177 1.97748 1.99319 2.0089 
2.02461 2.04032 2.05603 2.07174 2.08745 2.10316 2.11887 2.13458 2.15029 
2.16599 2.1817 2.19724 2.21278 2.22833 2.24387 2.25941 2.27495 2.2905 
2.30604 2.32158 2.33713 2.35267 2.36821 2.38375 2.3993 2.41484 2.43038 
2.44592 2.46147 2.47701 2.49255 2.50527 2.51709 2.5289 2.54072 2.55254 
2.56435 2.57617 2.58799 2.59981 2.61162 2.62344 2.63526 2.64707 2.65889 
2.67071 2.68253 2.69434 2.70616 2.71798 2.72979 2.73774 2.74145 2.74516 
2.74888 2.75259 2.75631 2.76002 2.76373 2.76745 2.77116 2.77488 2.77859 
2.7823 2.78602 2.78973 2.79345 2.79716 2.80087 2.80459 2.8083 2.80756 
2.7888 2.77004 2.75128 2.73252 2.71376 2.695 2.67624 2.65748 2.63872 
2.61996 2.6012 2.58244 2.56368 2.54492 2.52616 2.5074 2.48864 2.46987 
2.45111 2.43235 2.42252 2.41347 2.40443 2.39538 2.38633 2.37729 2.36824 
2.3592 2.35015 2.3411 2.33206 2.32301 2.31397 2.30492 2.29587 2.28683 
2.27778 2.26873 2.25969 2.25064 2.25022 2.25465 2.25907 2.2635 2.26792 
2.27235 2.27677 2.2812 2.28562 2.29005 2.29447 2.29889 2.30332 2.30774 
2.31217 2.31659 2.32102 2.32544 2.32987 2.33429 2.34409 2.36333 2.38256 
2.4018 2.42103 2.44027 2.4595 2.47874 2.49797 2.51721 2.53644 2.55568 
2.57491 2.59414 2.61338 2.63261 2.65185 2.67108 2.69032 2.70955 2.72805 
2.73868 2.7493 2.75992 2.77055 2.78117 2.79179 2.80241 2.81304 2.82366 
2.83428 2.84491 2.85553 2.86615 2.87677 2.8874 2.89802 2.90864 2.91927 
2.92989 2.94051 2.92748 2.91003 2.89259 2.87514 2.8577 2.84026 2.82281 
2.80537 2.78793 2.77048 2.75304 2.73559 2.71815 2.70071 2.68326 2.66582 
2.64838 2.63093 2.61349 2.59604 2.57781 2.55828 2.53874 2.51921 2.49967 
2.48014 2.4606 2.44107 2.42154 2.402 2.38247 2.36293 2.3434 2.32386 
2.30433 2.28479 2.26526 2.24572 2.22619 2.20665 2.18984 2.17334 2.15685 
2.14036 2.12387 2.10738 2.09089 2.07439 2.0579 2.04141 2.02492 2.00843 
1.99193 1.97544 1.95895 1.94246 1.92597 1.90948 1.89298 1.87649 1.86 

TEXTURE_COORDINATES TCoords 2 float
0 0 0.000783085 0 0.00156617 0 0.00234926 0 0.00313234 
0 0.00391543 0 0.00469851 0 0.0054816 0 0.00626468 0 
0.00704777 0 0.00783085 0 0.00861394 0 0.00939702 0 0.0101801 
0 0.0109632 0 0.0117463 0 0.0125294 0 0.0133125 0 
0.0140955 0 0.0148786 0 0.0156617 0 0.0164448 0 0.0172279 
0 0.018011 0 0.018794 0 0.0195771 0 0.0203602 0 
0.0211433 0 0.0219264 0 0.0227095 0 0.0234926 0 0.0242756 
0 0.0250587 0 0.0258418 0 0.0266249 0 0.027408 0 
0.0281911 0 0.0289742 0 0.0297572 0 0.0305403 0 0.0313234 
0 0.0321065 0 0.0328896 0 0.0336727 0 0.0344558 0 
0.0352388 0 0.0360219 0 0.036805 0 0.0375881 0 0.0383712 
0 0.0391543 0 0.0399374 0 0.0407204 0 0.0415035 0 
0.0422866 0 0.0430697 0 0.0438528 0 0.0446359 0 0.045419 
0 0.046202 0 0.0469851 0 0.0477682 0 0.0485513 0 
0.0493344 0 0.0501175 0 0.0509005 0 0.0516836 0 0.0524667 
0 0.0532498 0 0.0540329 0 0.054816 0 0.0555991 0 
0.0563821 0 0.0571652 0 0.0579483 0 0.0587314 0 0.0595145 
0 0.0602976 0 0.0610807 0 0.0618637 0 0.0626468 0 
0.0634299 0 0.064213 0 0.0649961 0 0.0657792 0 0.0665623 
0 0.0673453 0 0.0681284 0 0.0689115 0 0.0696946 0 
0.0704777 0 0.0712608 0 0.0720439 0 0.0728269 0 0.07361 
0 0.0743931 0 0.0751762 0 0.0759593 0 0.0767424 0 
0.0775255 0 0.0783085 0 0.0790916 0 0.0798747 0 0.0806578 
0 0.0814409 0 0.082224 0 0.083007 0 0.0837901 0 
0.0845732 0 0.0853563 0 0.0861394 0 0.0869225 0 0.0877056 
0 0.0884886 0 0.0892717 0 0.0900548 0 0.0908379 0 
0.091621 0 0.0924041 0 0.0931872 0 0.0939702 0 0.0947533 
0 0.0955364 0 0.0963195 0 0.0971026 0 0.0978857 0 
0.0986688 0 0.0994518 0 0.100235 0 0.101018 0 0.101801 
0 0.102584 0 0.103367 0 0.10415 0 0.104933 0 
0.105717 0 0.1065 0 0.107283 0 0.108066 0 0.108849 
0 0.109632 0 0.110415 0 0.111198 0 0.111981 0 
0.112764 0 0.113547 0 0.11433 0 0.115114 0 0.115897 
0 0.11668 0 0.117463 0 0.118246 0 0.119029 0 
0.119812 0 0.120595 0 0.121378 0 0.122161 0 0.122944 
0 0.123727 0 0.124511 0 0.125294 0 0.126077 0 
0.12686 0 0.127643 0 0.128426 0 0.129209 0 0.129992 
0 0.130775 0 0.131558 0 0.132341 0 0.133125 0 
0.133908 0 0.134691 0 0.135474 0 0.136257 0 0.13704 
0 0.137823 0 0.138606 0 0.139389 0 0.140172 0 
0.140955 0 0.141738 0 0.142522 0 0.143305 0 0.144088 
0 0.144871 0 0.145654 0 0.146437 0 0.14722 0 
0.148003 0 0.148786 0 0.149569 0 0.150352 0 0.151135 
0 0.151919 0 0.152702 0 0.153485 0 0.154268 0 
0.155051 0 0.155834 0 0.156617 0 0.1574 0 0.158183 
0 0.158966 0 0.159749 0 0.160533 0 0.161316 0 
0.162099 0 0.162882 0 0.163665 0 0.164448 0 0.165231 
0 0.166014 0 0.166797 0 0.16758 0 0.168363 0 
0.169146 0 0.16993 0 0.170713 0 0.171496 0 0.172279 
0 0.173062 0 0.173845 0 0.174628 0 0.175411 0 
0.176194 0 0.176977 0 0.17776 0 0.178543 0 0.179327 
0 0.18011 0 0.180893 0 0.181676 0 0.182459 0 
0.183242 0 0.184025 0 0.184808 0 0.185591 0 0.186374 
0 0.187157 0 0.18794 0 0.188724 0 0.189507 0 
0.19029 0 0.191073 0 0.191856 0 0.192639 0 0.193422 
0 0.194205 0 0.194988 0 0.195771 0 0.196554 0 
0.197338 0 0.198121 0 0.198904 0 0.199687 0 0.20047 
0 0.201253 0 0.202036 0 0.202819 0 0.203602 0 
0.204385 0 0.205168 0 0.205951 0 0.206735 0 0.207518 
0 0.208301 0 0.209084 0 0.209867 0 0.21065 0 
0.211433 0 0.212216 0 0.212999 0 0.213782 0 0.214565 
0 0.215348 0 0.216132 0 0.216915 0 0.217698 0 
0.218481 0 0.219264 0 0.220047 0 0.22083 0 0.221613 
0 0.222396 0 0.223179 0 0.223962 0 0.224745 0 
0.225529 0 0.226312 0 0.227095 0 0.227878 0 0.228661 
0 0.229444 0 0.230227 0 0.23101 0 0.231793 0 
0.232576 0 0.233359 0 0.234143 0 0.234926 0 0.235709 
0 0.236492 0 0.237275 0 0.238058 0 0.238841 0 
0.239624 0 0.240407 0 0.24119 0 0.241973 0 0.242756 
0 0.24354 0 0.244323 0 0.245106 0 0.245889 0 
0.246672 0 0.247455 0 0.248238 0 0.249021 0 0.249804 
0 0.250587 0 0.25137 0 0.252153 0 0.252937 0 
0.25372 0 0.254503 0 0.255286 0 0.256069 0 0.256852 
0 0.257635 0 0.258418 0 0.259201 0 0.259984 0 
0.260767 0 0.261551 0 0.262334 0 0.263117 0 0.2639 
0 0.264683 0 0.265466 0 0.266249 0 0.267032 0 
0.267815 0 0.268598 0 0.269381 0 0.270164 0 0.270948 
0 0.271731 0 0.272514 0 0.273297 0 0.27408 0 
0.274863 0 0.275646 0 0.276429 0 0.277212 0 0.277995 
0 0.278778 0 0.279561 0 0.280345 0 0.281128 0 
0.281911 0 0.282694 0 0.283477 0 0.28426 0 0.285043 
0 0.285826 0 0.286609 0 0.287392 0 0.288175 0 
0.288958 0 0.289742 0 0.290525 0 0.291308 0 0.292091 
0 0.292874 0 0.293657 0 0.29444 0 0.295223 0 
0.296006 0 0.296789 0 0.297572 0 0.298356 0 0.299139 
0 0.299922 0 0.300705 0 0.301488 0 0.302271 0 
0.303054 0 0.303837 0 0.30462 0 0.305403 0 0.306186 
0 0.306969 0 0.307753 0 0.308536 0 0.309319 0 
0.310102 0 0.310885 0 0.311668 0 0.312451 0 0.313234 
0 0.314017 0 0.3148 0 0.315583 0 0.316366 0 
0.31715 0 0.317933 0 0.318716 0 0.319499 0 0.320282 
0 0.321065 0 0.321848 0 0.322631 0 0.323414 0 
0.324197 0 0.32498 0 0.325763 0 0.326547 0 0.32733 
0 0.328113 0 0.328896 0 0.329679 0 0.330462 0 
0.331245 0 0.332028 0 0.332811 0 0.333594 0 0.334377 
0 0.335161 0 0.335944 0 0.336727 0 0.33751 0 
0.338293 0 0.339076 0 0.339859 0 0.340642 0 0.341425 
0 0.342208 0 0.342991 0 0.343774 0 0.344558 0 
0.345341 0 0.346124 0 0.346907 0 0.34769 0 0.348473 
0 0.349256 0 0.350039 0 0.350822 0 0.351605 0 
0.352388 0 0.353171 0 0.353955 0 0.354738 0 0.355521 
0 0.356304 0 0.357087 0 0.35787 0 0.358653 0 
0.359436 0 0.360219 0 0.361002 0 0.361785 0 0.362569 
0 0.363352 0 0.364135 0 0.364918 0 0.365701 0 
0.366484 0 0.367267 0 0.36805 0 0.368833 0 0.369616 
0 0.370399 0 0.371182 0 0.371966 0 0.372749 0 
0.373532 0 0.374315 0 0.375098 0 0.375881 0 0.376664 
0 0.377447 0 0.37823 0 0.379013 0 0.379796 0 
0.380579 0 0.381363 0 0.382146 0 0.382929 0 0.383712 
0 0.384495 0 0.385278 0 0.386061 0 0.386844 0 
0.387627 0 0.38841 0 0.389193 0 0.389977 0 0.39076 
0 0.391543 0 0.392326 0 0.393109 0 0.393892 0 
0.394675 0 0.395458 0 0.396241 0 0.397024 0 0.397807 
0 0.39859 0 0.399374 0 0.400157 0 0.40094 0 
0.401723 0 0.402506 0 0.403289 0 0.404072 0 0.404855 
0 0.405638 0 0.406421 0 0.407204 0 0.407987 0 
0.408771 0 0.409554 0 0.410337 0 0.41112 0 0.411903 
0 0.412686 0 0.413469 0 0.414252 0 0.415035 0 
0.415818 0 0.416601 0 0.417385 0 0.418168 0 0.418951 
0 0.419734 0 0.420517 0 0.4213 0 0.422083 0 
0.422866 0 0.423649 0 0.424432 0 0.425215 0 0.425998 
0 0.426782 0 0.427565 0 0.428348 0 0.429131 0 
0.429914 0 0.430697 0 0.43148 0 0.432263 0 0.433046 
0 0.433829 0 0.434612 0 0.435395 0 0.436179 0 
0.436962 0 0.437745 0 0.438528 0 0.439311 0 0.440094 
0 0.440877 0 0.44166 0 0.442443 0 0.443226 0 
0.444009 0 0.444792 0 0.445576 0 0.446359 0 0.447142 
0 0.447925 0 0.448708 0 0.449491 0 0.450274 0 
0.451057 0 0.45184 0 0.452623 0 0.453406 0 0.45419 
0 0.454973 0 0.455756 0 0.456539 0 0.457322 0 
0.458105 0 0.458888 0 0.459671 0 0.460454 0 0.461237 
0 0.46202 0 0.462803 0 0.463587 0 0.46437 0 
0.465153 0 0.465936 0 0.466719 0 0.467502 0 0.468285 
0 0.469068 0 0.469851 0 0.470634 0 0.471417 0 
0.4722 0 0.472984 0 0.473767 0 0.47455 0 0.475333 
0 0.476116 0 0.476899 0 0.477682 0 0.478465 0 
0.479248 0 0.480031 0 0.480814 0 0.481597 0 0.482381 
0 0.483164 0 0.483947 0 0.48473 0 0.485513 0 
0.486296 0 0.487079 0 0.487862 0 0.488645 0 0.489428 
0 0.490211 0 0.490995 0 0.491778 0 0.492561 0 
0.493344 0 0.494127 0 0.49491 0 0.495693 0 0.496476 
0 0.497259 0 0.498042 0 0.498825 0 0.499608 0 
0.500392 0 0.501175 0 0.501958 0 0.502741 0 0.503524 
0 0.504307 0 0.50509 0 0.505873 0 0.506656 0 
0.507439 0 0.508222 0 0.509005 0 0.509789 0 0.510572 
0 0.511355 0 0.512138 0 0.512921 0 0.513704 0 
0.514487 0 0.51527 0 0.516053 0 0.516836 0 0.517619 
0 0.518403 0 0.519186 0 0.519969 0 0.520752 0 
0.521535 0 0.522318 0 0.523101 0 0.523884 0 0.524667 
0 0.52545 0 0.526233 0 0.527016 0 0.5278 0 
0.528583 0 0.529366 0 0.530149 0 0.530932 0 0.531715 
0 0.532498 0 0.533281 0 0.534064 0 0.534847 0 
0.53563 0 0.536413 0 0.537197 0 0.53798 0 0.538763 
0 0.539546 0 0.540329 0 0.541112 0 0.541895 0 
0.542678 0 0.543461 0 0.544244 0 0.545027 0 0.545811 
0 0.546594 0 0.547377 0 0.54816 0 0.548943 0 
0.549726 0 0.550509 0 0.551292 0 0.552075 0 0.552858 
0 0.553641 0 0.554424 0 0.555207 0 0.555991 0 
0.556774 0 0.557557 0 0.55834 0 0.559123 0 0.559906 
0 0.560689 0 0.561472 0 0.562255 0 0.563038 0 
0.563821 0 0.564605 0 0.565388 0 0.566171 0 0.566954 
0 0.567737 0 0.56852 0 0.569303 0 0.570086 0 
0.570869 0 0.571652 0 0.572435 0 0.573218 0 0.574002 
0 0.574785 0 0.575568 0 0.576351 0 0.577134 0 
0.577917 0 0.5787 0 0.579483 0 0.580266 0 0.581049 
0 0.581832 0 0.582615 0 0.583399 0 0.584182 0 
0.584965 0 0.585748 0 0.586531 0 0.587314 0 0.588097 
0 0.58888 0 0.589663 0 0.590446 0 0.591229 0 
0.592013 0 0.592796 0 0.593579 0 0.594362 0 0.595145 
0 0.595928 0 0.596711 0 0.597494 0 0.598277 0 
0.59906 0 0.599843 0 0.600626 0 0.60141 0 0.602193 
0 0.602976 0 0.603759 0 0.604542 0 0.605325 0 
0.606108 0 0.606891 0 0.607674 0 0.608457 0 0.60924 
0 0.610023 0 0.610807 0 0.61159 0 0.612373 0 
0.613156 0 0.613939 0 0.614722 0 0.615505 0 0.616288 
0 0.617071 0 0.617854 0 0.618637 0 0.619421 0 
0.620204 0 0.620987 0 0.62177 0 0.622553 0 0.623336 
0 0.624119 0 0.624902 0 0.625685 0 0.626468 0 
0.627251 0 0.628034 0 0.628818 0 0.629601 0 0.630384 
0 0.631167 0 0.63195 0 0.632733 0 0.633516 0 
0.634299 0 0.635082 0 0.635865 0 0.636648 0 0.637432 
0 0.638215 0 0.638998 0 0.639781 0 0.640564 0 
0.641347 0 0.64213 0 0.642913 0 0.643696 0 0.644479 
0 0.645262 0 0.646045 0 0.646829 0 0.647612 0 
0.648395 0 0.649178 0 0.649961 0 0.650744 0 0.651527 
0 0.65231 0 0.653093 0 0.653876 0 0.654659 0 
0.655442 0 0.656226 0 0.657009 0 0.657792 0 0.658575 