# vtk DataFile Version 4.2
vtk output
ASCII
DATASET POLYDATA
POINTS 1276 float
0 0 0 -0.00356987 0.0016697 0.00106677 -0.0139831 0.00653852 0.00417884 
-0.0307952 0.0143961 0.00920386 -0.0535616 0.0250319 0.0160095 -0.0818377 0.0382357 0.0244634 
-0.115179 0.053797 0.0344332 -0.153141 0.0715054 0.0457865 -0.195279 0.0911504 0.0583911 
-0.241149 0.112522 0.0721145 -0.290306 0.135409 0.0868244 -0.342305 0.159602 0.102389 
-0.396703 0.18489 0.118674 -0.453054 0.211062 0.13555 -0.510913 0.237909 0.152882 
-0.569838 0.26522 0.17054 -0.629382 0.292784 0.188389 -0.689101 0.320391 0.206299 
-0.748551 0.347831 0.224137 -0.807288 0.374893 0.241769 -0.864866 0.401367 0.259065 
-0.920841 0.427043 0.275892 -0.974911 0.451774 0.292159 -1.02715 0.475582 0.307887 
-1.07768 0.498519 0.323114 -1.12664 0.520635 0.337879 -1.17417 0.541979 0.35222 
-1.22038 0.562604 0.366175 -1.26543 0.582557 0.379785 -1.30943 0.601892 0.393085 
-1.35252 0.620656 0.406117 -1.39484 0.638902 0.418917 -1.43651 0.656679 0.431524 
-1.47766 0.674038 0.443978 -1.51844 0.691028 0.456315 -1.55896 0.707702 0.468576 
-1.59937 0.724108 0.480798 -1.6398 0.740297 0.49302 -1.68037 0.756321 0.50528 
-1.72122 0.772228 0.517618 -1.76248 0.788069 0.530071 -1.80429 0.803895 0.542677 
-1.84669 0.819721 0.555454 -1.88967 0.835523 0.568393 -1.9332 0.851276 0.581486 
-1.97723 0.866952 0.594722 -2.02175 0.882525 0.608091 -2.06671 0.897969 0.621585 
-2.11208 0.913257 0.635192 -2.15784 0.928362 0.648904 -2.20395 0.943258 0.662711 
-2.25038 0.957919 0.676603 -2.2971 0.972318 0.690571 -2.34407 0.986428 0.704604 
-2.39126 1.00022 0.718693 -2.43865 1.01368 0.732829 -2.48619 1.02676 0.747001 
-2.53386 1.03945 0.7612 -2.58162 1.05172 0.775417 -2.62945 1.06355 0.789641 
-2.6773 1.0749 0.803863 -2.72516 1.08574 0.818073 -2.77299 1.09607 0.832264 
-2.82079 1.10586 0.846438 -2.86857 1.11511 0.860595 -2.91633 1.12381 0.874738 
-2.96407 1.13194 0.888868 -3.0118 1.13951 0.902987 -3.05951 1.1465 0.917096 
-3.10722 1.15289 0.931198 -3.15491 1.1587 0.945295 -3.2026 1.16389 0.959387 
-3.25029 1.16847 0.973477 -3.29798 1.17242 0.987567 -3.34567 1.17575 1.00166 
-3.39336 1.17842 1.01575 -3.44107 1.18045 1.02985 -3.48878 1.18181 1.04396 
-3.53651 1.18251 1.05807 -3.58425 1.18252 1.07219 -3.63201 1.18185 1.08633 
-3.67979 1.18048 1.10048 -3.7276 1.1784 1.11464 -3.77541 1.17562 1.12882 
-3.82323 1.17214 1.14301 -3.87103 1.16796 1.15721 -3.9188 1.16308 1.17142 
-3.96654 1.15751 1.18563 -4.01422 1.15126 1.19985 -4.06183 1.14432 1.21407 
-4.10937 1.1367 1.22829 -4.15681 1.1284 1.24251 -4.20415 1.11943 1.25673 
-4.25137 1.10978 1.27094 -4.29846 1.09947 1.28514 -4.34541 1.08849 1.29934 
-4.3922 1.07685 1.31352 -4.43881 1.06456 1.3277 -4.48525 1.0516 1.34185 
-4.53148 1.038 1.35599 -4.57751 1.02375 1.37012 -4.62332 1.00886 1.38422 
-4.66889 0.993325 1.3983 -4.71422 0.977162 1.41236 -4.75931 0.960385 1.42639 
-4.80417 0.943011 1.4404 -4.84879 0.925057 1.45439 -4.89318 0.906537 1.46836 
-4.93734 0.88747 1.48231 -4.98127 0.867871 1.49624 -5.02498 0.847756 1.51015 
-5.06846 0.827141 1.52404 -5.11172 0.806044 1.53791 -5.15476 0.784479 1.55176 
-5.19759 0.762464 1.56559 -5.24019 0.740014 1.57941 -5.28258 0.717146 1.59321 
-5.32476 0.693876 1.60699 -5.36672 0.67022 1.62075 -5.40848 0.646196 1.6345 
-5.45003 0.621817 1.64823 -5.49137 0.597102 1.66194 -5.53252 0.572067 1.67564 
-5.57346 0.546724 1.68933 -5.61421 0.521087 1.70299 -5.65477 0.495164 1.71664 
-5.69516 0.468968 1.73027 -5.73538 0.442508 1.74387 -5.77543 0.415796 1.75744 
-5.81533 0.388842 1.77099 -5.85507 0.361658 1.78451 -5.89468 0.334253 1.798 
-5.93415 0.30664 1.81145 -5.9735 0.278828 1.82487 -6.01273 0.250828 1.83825 
-6.05184 0.222651 1.85159 -6.09085 0.194308 1.86489 -6.12976 0.16581 1.87815 
-6.16858 0.137168 1.89136 -6.20731 0.108391 1.90452 -6.24597 0.079492 1.91763 
-6.28456 0.0504806 1.93069 -6.32309 0.0213678 1.9437 -6.36156 -0.00783672 1.95665 
-6.39999 -0.0371269 1.96954 -6.43837 -0.0664977 1.98236 -6.47672 -0.0959437 1.9951 
-6.51505 -0.12546 2.00775 -6.55335 -0.155041 2.02032 -6.59164 -0.184681 2.03278 
-6.62992 -0.214376 2.04513 -6.66819 -0.24412 2.05736 -6.70648 -0.273908 2.06948 
-6.74478 -0.303735 2.08146 -6.78309 -0.333595 2.09331 -6.82144 -0.363483 2.10501 
-6.85981 -0.393394 2.11656 -6.89823 -0.423323 2.12794 -6.93669 -0.453265 2.13916 
-6.9752 -0.483214 2.15021 -7.01378 -0.513165 2.16107 -7.05242 -0.543113 2.17174 
-7.09113 -0.573053 2.18222 -7.12992 -0.60298 2.19248 -7.16879 -0.632896 2.20253 
-7.20774 -0.662806 2.21232 -7.24676 -0.692715 2.22184 -7.28585 -0.722628 2.23106 
-7.325 -0.752549 2.23996 -7.36422 -0.782484 2.24851 -7.40349 -0.812437 2.25669 
-7.44282 -0.842414 2.26448 -7.48221 -0.872419 2.27184 -7.52164 -0.902457 2.27876 
-7.56112 -0.932533 2.28522 -7.60065 -0.962652 2.29118 -7.64021 -0.992819 2.29662 
-7.67981 -1.02304 2.30152 -7.71944 -1.05332 2.30586 -7.7591 -1.08365 2.30961 
-7.79879 -1.11406 2.31274 -7.83851 -1.14454 2.31524 -7.87824 -1.1751 2.31707 
-7.91799 -1.20574 2.31821 -7.95775 -1.23646 2.31866 -7.99747 -1.26728 2.31839 
-8.03715 -1.29818 2.31741 -8.07675 -1.32919 2.3157 -8.11624 -1.3603 2.31325 
-8.15561 -1.39151 2.31007 -8.19481 -1.42283 2.30613 -8.23384 -1.45426 2.30144 
-8.27265 -1.48581 2.29599 -8.31122 -1.51748 2.28976 -8.34953 -1.54927 2.28275 
-8.38755 -1.58119 2.27496 -8.42525 -1.61324 2.26637 -8.46261 -1.64542 2.25698 
-8.4996 -1.67774 2.24678 -8.53619 -1.71021 2.23576 -8.57235 -1.74282 2.22391 
-8.60807 -1.77558 2.21123 -8.64331 -1.80849 2.19771 -8.67804 -1.84156 2.18335 
-8.71225 -1.87478 2.16813 -8.74594 -1.90817 2.15211 -8.77909 -1.94171 2.13529 
-8.81172 -1.97541 2.11772 -8.84381 -2.00926 2.09942 -8.87537 -2.04327 2.08042 
-8.90639 -2.07744 2.06076 -8.93688 -2.11175 2.04045 -8.96682 -2.14622 2.01954 
-8.99621 -2.18084 1.99805 -9.02506 -2.21561 1.97601 -9.05336 -2.25052 1.95345 
-9.08111 -2.28559 1.93041 -9.10831 -2.3208 1.9069 -9.13495 -2.35616 1.88296 
-9.16104 -2.39167 1.85862 -9.18656 -2.42732 1.83391 -9.21152 -2.46311 1.80886 
-9.23592 -2.49905 1.7835 -9.25976 -2.53513 1.75785 -9.28302 -2.57135 1.73195 
-9.30572 -2.60771 1.70581 -9.32787 -2.64421 1.67945 -9.34945 -2.68086 1.65287 
-9.3705 -2.71766 1.62609 -9.391 -2.7546 1.59912 -9.41095 -2.79169 1.57197 
-9.43038 -2.82892 1.54467 -9.44928 -2.86631 1.51721 -9.46766 -2.90385 1.48961 
-9.48551 -2.94153 1.46189 -9.50286 -2.97938 1.43406 -9.51969 -3.01737 1.40612 
-9.53603 -3.05552 1.37811 -9.55186 -3.09382 1.35001 -9.5672 -3.13228 1.32186 
-9.58206 -3.1709 1.29366 -9.59643 -3.20968 1.26542 -9.61032 -3.24861 1.23716 
-9.62374 -3.28771 1.20889 -9.63669 -3.32697 1.18062 -9.64918 -3.36639 1.15236 
-9.66119 -3.40597 1.12412 -9.67273 -3.4457 1.09589 -9.68379 -3.48558 1.06768 
-9.69438 -3.52561 1.0395 -9.70448 -3.56578 1.01135 -9.71411 -3.6061 0.983226 
-9.72324 -3.64655 0.955143 -9.73189 -3.68715 0.9271 -9.74004 -3.72787 0.899103 
-9.7477 -3.76873 0.871155 -9.75487 -3.80971 0.84326 -9.76153 -3.85082 0.815423 
-9.7677 -3.89205 0.787646 -9.77336 -3.9334 0.759935 -9.77851 -3.97487 0.732293 
-9.78316 -4.01644 0.704725 -9.7873 -4.05813 0.677234 -9.79092 -4.09993 0.649824 
-9.79402 -4.14183 0.622499 -9.79661 -4.18383 0.595262 -9.79867 -4.22592 0.568112 
-9.80021 -4.26809 0.54105 -9.80123 -4.31033 0.514076 -9.80172 -4.35265 0.48719 
-9.80168 -4.39502 0.460393 -9.80111 -4.43744 0.433684 -9.8 -4.4799 0.407063 
-9.79835 -4.5224 0.380532 -9.79617 -4.56492 0.354089 -9.79344 -4.60746 0.327736 
-9.79018 -4.65001 0.301471 -9.78636 -4.69256 0.275296 -9.782 -4.7351 0.249211 
-9.77709 -4.77763 0.223216 -9.77162 -4.82014 0.19731 -9.7656 -4.86261 0.171494 
-9.75902 -4.90505 0.145769 -9.75189 -4.94744 0.120134 -9.74419 -4.98977 0.0945899 
-9.73593 -5.03204 0.069134 -9.72711 -5.07423 0.0437592 -9.71772 -5.11635 0.0184577 
-9.70777 -5.15837 -0.00677827 -9.69726 -5.20029 -0.0319566 -9.68618 -5.2421 -0.057085 
-9.67455 -5.28379 -0.0821713 -9.66235 -5.32535 -0.107223 -9.64959 -5.36677 -0.132249 
-9.63627 -5.40804 -0.157256 -9.62238 -5.44915 -0.182253 -9.60794 -5.4901 -0.207246 
-9.59293 -5.53087 -0.232244 -9.57737 -5.57146 -0.257255 -9.56124 -5.61185 -0.282287 
-9.54455 -5.65203 -0.307347 -9.5273 -5.692 -0.332443 -9.50949 -5.73175 -0.357583 
-9.49113 -5.77126 -0.382775 -9.4722 -5.81053 -0.408026 -9.45271 -5.84955 -0.433342 
-9.43268 -5.88831 -0.458712 -9.4121 -5.9268 -0.484122 -9.39099 -5.965 -0.509558 
-9.36937 -6.00292 -0.535006 -9.34724 -6.04053 -0.560452 -9.32461 -6.07783 -0.585881 
-9.30149 -6.11482 -0.611279 -9.27789 -6.15147 -0.636633 -9.25383 -6.18778 -0.661929 
-9.22931 -6.22375 -0.687151 -9.20435 -6.25935 -0.712286 -9.17894 -6.29458 -0.737319 
-9.15312 -6.32944 -0.762238 -9.12687 -6.36391 -0.787026 -9.10022 -6.39797 -0.811671 
-9.07318 -6.43163 -0.836158 -9.04575 -6.46487 -0.860474 -9.01795 -6.49769 -0.884603 
-8.98978 -6.53006 -0.908531 -8.96126 -6.56199 -0.932249 -8.93237 -6.59347 -0.955778 
-8.9031 -6.62451 -0.979163 -8.87341 -6.65512 -1.00245 -8.84329 -6.68529 -1.02568 
-8.81272 -6.71504 -1.04889 -8.78167 -6.74437 -1.07214 -8.75011 -6.77329 -1.09546 
-8.71804 -6.80179 -1.11891 -8.68542 -6.8299 -1.14251 -8.65223 -6.8576 -1.16633 
-8.61845 -6.88492 -1.19039 -8.58406 -6.91185 -1.21476 -8.54904 -6.93839 -1.23946 
-8.51336 -6.96456 -1.26455 -8.477 -6.99036 -1.29006 -8.43993 -7.0158 -1.31605 
-8.40215 -7.04088 -1.34255 -8.36361 -7.0656 -1.36961 -8.32431 -7.08998 -1.39728 
-8.28422 -7.11401 -1.42559 -8.24336 -7.13768 -1.45443 -8.2018 -7.16093 -1.48355 
-8.1596 -7.18373 -1.51268 -8.11683 -7.20601 -1.54156 -8.07357 -7.22774 -1.56991 
-8.02987 -7.24885 -1.59749 -7.9858 -7.26932 -1.62401 -7.94144 -7.28908 -1.64922 
-7.89684 -7.30809 -1.67286 -7.85208 -7.32629 -1.69465 -7.80722 -7.34365 -1.71433 
-7.76233 -7.36011 -1.73164 -7.71748 -7.37562 -1.74632 -7.67273 -7.39013 -1.75809 
-7.62815 -7.4036 -1.7667 -7.58381 -7.41598 -1.77188 -7.53978 -7.42722 -1.77336 
-7.49612 -7.43727 -1.77088 -7.45291 -7.44608 -1.76418 -7.4102 -7.4536 -1.75299 
-7.36808 -7.45984 -1.73726 -7.32668 -7.46484 -1.71725 -7.28612 -7.46869 -1.69322 
[...]
CELL_DATA 1
FIELD FieldData 2
Length 1 1 double
63.738335772 
Tortuosity 1 1 double
1.0152818023 
POINT_DATA 1276
SCALARS MaximumInscribedSphereRadius float
LOOKUP_TABLE default
1.55 1.5414 1.5328 1.5242 1.5156 1.50699 1.49839 1.48979 1.48119 
1.47259 1.46399 1.45539 1.44679 1.43819 1.42958 1.42098 1.41238 1.40378 
1.39518 1.38658 1.37798 1.37 1.36587 1.36173 1.35759 1.35346 1.34932 
1.34518 1.34105 1.33691 1.33277 1.32864 1.3245 1.32036 1.31623 1.31209 
1.30796 1.30382 1.29968 1.29555 1.29141 1.29308 1.30286 1.31263 1.32241 
1.33218 1.34195 1.35173 1.3615 1.37128 1.38105 1.39083 1.4006 1.41038 
1.42015 1.42993 1.4397 1.44948 1.45925 1.46903 1.4788 1.4885 1.49774 
1.50698 1.51622 1.52546 1.53471 1.54395 1.55319 1.56243 1.57167 1.58092 
1.59016 1.5994 1.60864 1.61788 1.62713 1.63637 1.64561 1.65485 1.66409 
1.67334 1.68116 1.68878 1.69639 1.70401 1.71163 1.71925 1.72687 1.73449 
1.74211 1.74973 1.75735 1.76497 1.77259 1.78021 1.78783 1.79545 1.80307 
1.81068 1.8183 1.82592 1.83019 1.83246 1.83472 1.83698 1.83924 1.8415 
1.84377 1.84603 1.84829 1.85055 1.85281 1.85507 1.85734 1.8596 1.86186 
1.86412 1.86638 1.86865 1.87091 1.87317 1.87402 1.87229 1.87056 1.86883 
1.8671 1.86538 1.86365 1.86192 1.86019 1.85846 1.85673 1.85501 1.85328 
1.85155 1.84982 1.84809 1.84637 1.84464 1.84291 1.84118 1.83912 1.83248 
1.82584 1.8192 1.81255 1.80591 1.79927 1.79263 1.78599 1.77935 1.77271 
1.76607 1.75943 1.75279 1.74615 1.73951 1.73286 1.72622 1.71958 1.71294 
1.7063 1.69583 1.68426 1.67269 1.66112 1.64956 1.63799 1.62642 1.61485 
1.60329 1.59172 1.58015 1.56859 1.55702 1.54545 1.53388 1.52232 1.51075 
1.49918 1.48761 1.47605 1.46908 1.46673 1.46439 1.46204 1.4597 1.45735 
1.45501 1.45266 1.45032 1.44797 1.44563 1.44328 1.44094 1.43859 1.43625 
1.4339 1.43156 1.42921 1.42687 1.42452 1.42689 1.44199 1.4571 1.4722 
1.4873 1.50241 1.51751 1.53261 1.54772 1.56282 1.57792 1.59303 1.60813 
1.62324 1.63834 1.65344 1.66855 1.68365 1.69875 1.71386 1.72819 1.71569 
1.70319 1.69069 1.67819 1.66569 1.65319 1.64069 1.62819 1.61568 1.60318 
1.59068 1.57818 1.56568 1.55318 1.54068 1.52818 1.51568 1.50318 1.49068 
1.47818 1.46999 1.46318 1.45636 1.44955 1.44274 1.43592 1.42911 1.4223 
1.41548 1.40867 1.40186 1.39504 1.38823 1.38142 1.3746 1.36779 1.36098 
1.35416 1.34735 1.34054 1.34308 1.35542 1.36777 1.38011 1.39246 1.4048 
1.41715 1.42949 1.44184 1.45418 1.46653 1.47887 1.49122 1.50356 1.51591 
1.52825 1.5406 1.55294 1.56529 1.57763 1.59139 1.61013 1.62887 1.64761 
1.66635 1.68509 1.70383 1.72257 1.74131 1.76005 1.77879 1.79753 1.81627 
1.83501 1.85375 1.87249 1.89123 1.90996 1.9287 1.94744 1.96618 1.98615 
2.00617 2.02619 2.04621 2.06623 2.08625 2.10627 2.12629 2.14631 2.16633 
2.18635 2.20637 2.2264 2.24642 2.26644 2.28646 2.30648 2.3265 2.34652 
2.36654 2.35281 2.32387 2.29493 2.26599 2.23706 2.20812 2.17918 2.15024 
2.1213 2.09236 2.06342 2.03448 2.00554 1.9766 1.94766 1.91873 1.88979 
1.86085 1.83191 1.80297 1.77858 1.75889 1.73919 1.71949 1.6998 1.6801 
1.66041 1.64071 1.62102 1.60132 1.58163 1.56193 1.54223 1.52254 1.50284 
1.48315 1.46345 1.44376 1.42406 1.40436 1.39502 1.4036 1.41217 1.42075 
1.42932 1.4379 1.44648 1.45505 1.46363 1.4722 1.48078 1.48936 1.49793 
1.50651 1.51508 1.52366 1.53223 1.54081 1.54939 1.56566 1.58253 1.59939 
1.61626 1.63312 1.64999 1.66685 1.68372 1.70058 1.71745 1.73432 1.75118 
1.76805 1.78491 1.80178 1.81864 1.83551 1.85237 1.86924 1.88611 1.90608 
1.92997 1.95385 1.97773 2.00162 2.0255 2.04938 2.07326 2.09715 2.12103 
2.14491 2.16879 2.19268 2.21656 2.24044 2.26432 2.28821 2.31209 2.33597 
2.35986 2.38015 2.37582 2.37148 2.36715 2.36282 2.35849 2.35415 2.34982 
2.34549 2.34116 2.33682 2.33249 2.32816 2.32383 2.31949 2.31516 2.31083 
2.3065 2.30217 2.29783 2.2935 2.28796 2.28219 2.27643 2.27067 2.26491 
2.25915 2.25339 2.24763 2.24186 2.2361 2.23034 2.22458 2.21882 2.21306 
2.20729 2.20153 2.19577 2.19001 2.18425 2.17849 2.17502 2.17336 2.17171 
2.17006 2.16841 2.16675 2.1651 2.16345 2.16179 2.16014 2.15849 2.15683 
2.15518 2.15353 2.15188 2.15022 2.14857 2.14692 2.14526 2.14361 2.1395 
2.12946 2.11941 2.10936 2.09931 2.08926 2.07921 2.06916 2.05912 2.04907 
2.03902 2.02897 2.01892 2.00887 1.99882 1.98878 1.97873 1.96868 1.95863 
1.94858 1.94048 1.94317 1.94586 1.94854 1.95123 1.95392 1.9566 1.95929 
1.96198 1.96467 1.96735 1.97004 1.97273 1.97542 1.9781 1.98079 1.98348 
1.98616 1.98885 1.99154 1.99423 2.00173 2.00951 2.01729 2.02507 2.03285 
2.04063 2.04841 2.05619 2.06397 2.07175 2.07953 2.08731 2.09509 2.10287 
2.11065 2.11842 2.1262 2.13398 2.14176 2.14954 2.15251 2.15341 2.1543 
2.1552 2.15609 2.15699 2.15788 2.15877 2.15967 2.16056 2.16146 2.16235 
2.16324 2.16414 2.16503 2.16593 2.16682 2.16771 2.16861 2.1695 2.16513 
2.15416 2.1432 2.13224 2.12127 2.11031 2.09934 2.08838 2.07742 2.06645 
2.05549 2.04452 2.03356 2.0226 2.01163 2.00067 1.9897 1.97874 1.96777 
1.95681 1.94322 1.91861 1.89401 1.86941 1.8448 1.8202 1.79559 1.77099 
1.74639 1.72178 1.69718 1.67257 1.64797 1.62337 1.59876 1.57416 1.54955 
1.52495 1.50035 1.47574 1.45114 1.44524 1.44083 1.43642 1.43201 1.42761 
1.4232 1.41879 1.41438 1.40997 1.40557 1.40116 1.39675 1.39234 1.38793 
1.38352 1.37912 1.37471 1.3703 1.36589 1.36148 1.36654 1.37696 1.38738 
1.39779 1.40821 1.41863 1.42905 1.43947 1.44988 1.4603 1.47072 1.48114 
1.49156 1.50198 1.51239 1.52281 1.53323 1.54365 1.55407 1.56448 1.57755 
1.59544 1.61332 1.63121 1.6491 1.66699 1.68487 1.70276 1.72065 1.73854 
1.75642 1.77431 1.7922 1.81008 1.82797 1.84586 1.86375 1.88163 1.89952 
1.91741 1.93507 1.95089 1.96671 1.98253 1.99835 2.01417 2.02999 2.04581 
2.06163 2.07745 2.09327 2.10909 2.12491 2.14073 2.15655 2.17237 2.18819 
2.20401 2.21983 2.23565 2.25147 2.26185 2.27155 2.28125 2.29096 2.30066 
2.31037 2.32007 2.32978 2.33948 2.34918 2.35889 2.36859 2.3783 2.388 
2.39771 2.40741 2.41712 2.42682 2.43652 2.44623 2.44541 2.43906 2.43271 
2.42636 2.42001 2.41367 2.40732 2.40097 2.39462 2.38827 2.38193 2.37558 
2.36923 2.36288 2.35653 2.35019 2.34384 2.33749 2.33114 2.32479 2.31917 
2.31462 2.31007 2.30552 2.30097 2.29642 2.29187 2.28732 2.28277 2.27822 
2.27367 2.26912 2.26457 2.26002 2.25547 2.25092 2.24637 2.24182 2.23727 
2.23271 2.23005 2.23858 2.24711 2.25564 2.26417 2.2727 2.28123 2.28976 
2.29829 2.30682 2.31535 2.32388 2.33241 2.34094 2.34947 2.358 2.36653 
2.37506 2.38359 2.39212 2.40065 2.40158 2.40139 2.4012 2.40101 2.40082 
2.40063 2.40044 2.40025 2.40006 2.39988 2.39969 2.3995 2.39931 2.39912 
2.39893 2.39874 2.39855 2.39837 2.39818 2.39799 2.39289 2.38438 2.37588 
2.36737 2.35887 2.35036 2.34186 2.33335 2.32485 2.31634 2.30784 2.29933 
2.29083 2.28232 2.27382 2.26531 2.2568 2.2483 2.23979 2.23129 2.22471 
2.22256 2.2204 2.21825 2.21609 2.21394 2.21178 2.20962 2.20747 2.20531 
2.20316 2.201 2.19884 2.19669 2.19453 2.19238 2.19022 2.18807 2.18591 
2.18375 2.18164 2.18208 2.18252 2.18296 2.18341 2.18385 2.18429 2.18473 
2.18518 2.18562 2.18606 2.1865 2.18695 2.18739 2.18783 2.18827 2.18872 
2.18916 2.1896 2.19005 2.19049 2.19019 2.18961 2.18902 2.18844 2.18786 
2.18728 2.18669 2.18611 2.18553 2.18495 2.18436 2.18378 2.1832 2.18261 
2.18203 2.18145 2.18087 2.18028 2.1797 2.17912 2.18029 2.18374 2.18719 
2.19064 2.19408 2.19753 2.20098 2.20443 2.20788 2.21132 2.21477 2.21822 
2.22167 2.22512 2.22857 2.23201 2.23546 2.23891 2.24236 2.24581 2.2502 
2.25982 2.26945 2.27908 2.28871 2.29834 2.30797 2.31759 2.32722 2.33685 
2.34648 2.35611 2.36574 2.37536 2.38499 2.39462 2.40425 2.41388 2.42351 
2.43313 2.44276 2.43835 2.43204 2.42573 2.41942 2.41311 2.4068 2.40049 
2.39417 2.38786 2.38155 2.37524 2.36893 2.36262 2.35631 2.35 2.34369 
2.33738 2.33106 2.32475 2.31844 2.31178 2.30489 2.298 2.29111 2.28422 
2.27733 2.27044 2.26355 2.25666 2.24977 2.24288 2.23599 2.2291 2.22221 
2.21532 2.20843 2.20154 2.19466 2.18777 2.18088 2.17647 2.17667 2.17687 
2.17707 2.17727 2.17747 2.17768 2.17788 2.17808 2.17828 2.17848 2.17868 
2.17888 2.17908 2.17928 2.17948 2.17968 2.17988 2.18009 2.18029 2.18108 
2.18827 2.19547 2.20266 2.20986 2.21705 2.22425 2.23144 2.23864 2.24583 
2.25303 2.26023 2.26742 2.27462 2.28181 2.28901 2.2962 2.3034 2.31059 
2.31779 2.32498 2.33455 2.34463 2.3547 2.36477 2.37484 2.38491 2.39498 
2.40505 2.41512 2.4252 2.43527 2.44534 2.45541 2.46548 2.47555 2.48562 
2.49569 2.50576 2.51584 2.52591 2.53506 2.54354 2.55201 2.56048 2.56895 
2.57743 2.5859 2.59437 2.60285 2.61132 2.61979 2.62826 2.63674 2.64521 
2.65368 2.66216 2.67063 2.6791 2.68757 2.69605 2.69837 2.6865 2.67463 
2.66276 2.65088 2.63901 2.62714 2.61527 2.60339 2.59152 2.57965 2.56778 
2.5559 2.54403 2.53216 2.52029 2.50842 2.49654 2.48467 2.4728 2.46057 
2.43421 2.40785 2.38149 2.35513 2.32878 2.30242 2.27606 2.2497 2.22334 
2.19698 2.17063 2.14427 2.11791 2.09155 2.06519 2.03884 2.01248 1.98612 
1.95976 1.9334 1.93614 1.94877 1.9614 1.97404 1.98667 1.9993 2.01194 
2.02457 2.0372 2.04984 2.06247 2.07511 2.08774 2.10037 2.11301 2.12564 
2.13827 2.15091 2.16354 2.17617 2.18855 2.20063 2.2127 2.22478 2.23686 
2.24894 2.26102 2.27309 2.28517 2.29725 2.30933 2.3214 2.33348 2.34556 
2.35764 2.36972 2.38179 2.39387 2.40595 2.41803 2.42614 2.41709 2.40803 
2.39898 2.38992 2.38087 2.37181 2.36276 2.3537 2.34465 2.33559 2.32654 
2.31748 2.30843 2.29937 2.29032 2.28127 2.27221 2.26316 2.2541 2.24505 
2.27052 2.29937 2.32821 2.35706 2.38591 2.41475 2.4436 2.47244 2.50129 
2.53014 2.55898 2.58783 2.61668 2.64552 2.67437 2.70322 2.73206 2.76091 
2.78976 2.8186 2.85127 2.88594 2.92062 2.95529 2.98996 3.02463 3.05931 
3.09398 3.12865 3.16332 3.198 3.23267 3.26734 3.30202 3.33669 3.37136 
3.40603 3.44071 3.47538 3.51005 3.5261 3.51468 3.50326 3.49185 3.48043 
3.46902 3.4576 3.44619 3.43477 3.42336 3.41194 3.40052 3.38911 3.37769 
3.36628 3.35486 3.34345 3.33203 3.32062 3.3092 3.298 3.28817 3.27835 
3.26852 3.2587 3.24887 3.23904 3.22922 3.21939 3.20957 3.19974 3.18992 
3.18009 3.17026 3.16044 3.15061 3.14079 3.13096 3.12113 3.11131 3.10148 
3.1 3.1 3.1 3.1 3.1 3.1 3.1 3.1 3.1 
3.1 3.1 3.1 3.1 3.1 3.1 3.1 3.1 3.1 
3.1 3.1 3.09295 3.08074 3.06853 3.05632 3.04411 3.0319 3.01969 
3.00748 2.99527 2.98306 2.97085 2.95864 2.94643 2.93422 2.92201 2.9098 
2.89759 2.88538 2.87317 2.86096 2.8437 2.82551 2.80733 2.78914 2.77096 
2.75277 2.73459 2.7164 2.69822 2.68003 2.66185 2.64366 2.62548 2.60729 
2.58911 2.57092 2.55274 2.53455 2.51637 2.49818 2.48 
TEXTURE_COORDINATES TCoords 2 float
0 0 0.000784314 0 0.00156863 0 0.00235294 0 0.00313725 
0 0.00392157 0 0.00470588 0 0.0054902 0 0.00627451 0 
0.00705882 0 0.00784314 0 0.00862745 0 0.00941176 0 0.0101961 
0 0.0109804 0 0.0117647 0 0.012549 0 0.0133333 0 
0.0141176 0 0.014902 0 0.0156863 0 0.0164706 0 0.0172549 
0 0.0180392 0 0.0188235 0 0.0196078 0 0.0203922 0 
0.0211765 0 0.0219608 0 0.0227451 0 0.0235294 0 0.0243137 
0 0.025098 0 0.0258824 0 0.0266667 0 0.027451 0 
0.0282353 0 0.0290196 0 0.0298039 0 0.0305882 0 0.0313726 
0 0.0321569 0 0.0329412 0 0.0337255 0 0.0345098 0 
0.0352941 0 0.0360784 0 0.0368627 0 0.0376471 0 0.0384314 
0 0.0392157 0 0.04 0 0.0407843 0 0.0415686 0 
0.0423529 0 0.0431373 0 0.0439216 0 0.0447059 0 0.0454902 
0 0.0462745 0 0.0470588 0 0.0478431 0 0.0486275 0 
0.0494118 0 0.0501961 0 0.0509804 0 0.0517647 0 0.052549 
0 0.0533333 0 0.0541176 0 0.054902 0 0.0556863 0 
0.0564706 0 0.0572549 0 0.0580392 0 0.0588235 0 0.0596078 
0 0.0603922 0 0.0611765 0 0.0619608 0 0.0627451 0 
0.0635294 0 0.0643137 0 0.065098 0 0.0658824 0 0.0666667 
0 0.067451 0 0.0682353 0 0.0690196 0 0.0698039 0 
0.0705882 0 0.0713725 0 0.0721569 0 0.0729412 0 0.0737255 
0 0.0745098 0 0.0752941 0 0.0760784 0 0.0768627 0 
0.0776471 0 0.0784314 0 0.0792157 0 0.08 0 0.0807843 
0 0.0815686 0 0.0823529 0 0.0831373 0 0.0839216 0 
0.0847059 0 0.0854902 0 0.0862745 0 0.0870588 0 0.0878431 
0 0.0886275 0 0.0894118 0 0.0901961 0 0.0909804 0 
0.0917647 0 0.092549 0 0.0933333 0 0.0941176 0 0.094902 
0 0.0956863 0 0.0964706 0 0.0972549 0 0.0980392 0 
0.0988235 0 0.0996078 0 0.100392 0 0.101176 0 0.101961 
0 0.102745 0 0.103529 0 0.104314 0 0.105098 0 
0.105882 0 0.106667 0 0.107451 0 0.108235 0 0.10902 
0 0.109804 0 0.110588 0 0.111373 0 0.112157 0 
0.112941 0 0.113725 0 0.11451 0 0.115294 0 0.116078 
0 0.116863 0 0.117647 0 0.118431 0 0.119216 0 
0.12 0 0.120784 0 0.121569 0 0.122353 0 0.123137 
0 0.123922 0 0.124706 0 0.12549 0 0.126275 0 
0.127059 0 0.127843 0 0.128627 0 0.129412 0 0.130196 
0 0.13098 0 0.131765 0 0.132549 0 0.133333 0 
0.134118 0 0.134902 0 0.135686 0 0.136471 0 0.137255 
0 0.138039 0 0.138824 0 0.139608 0 0.140392 0 
0.141176 0 0.141961 0 0.142745 0 0.143529 0 0.144314 
0 0.145098 0 0.145882 0 0.146667 0 0.147451 0 
0.148235 0 0.14902 0 0.149804 0 0.150588 0 0.151373 
0 0.152157 0 0.152941 0 0.153725 0 0.15451 0 
0.155294 0 0.156078 0 0.156863 0 0.157647 0 0.158431 
0 0.159216 0 0.16 0 0.160784 0 0.161569 0 
0.162353 0 0.163137 0 0.163922 0 0.164706 0 0.16549 
0 0.166275 0 0.167059 0 0.167843 0 0.168627 0 
0.169412 0 0.170196 0 0.17098 0 0.171765 0 0.172549 
0 0.173333 0 0.174118 0 0.174902 0 0.175686 0 
0.176471 0 0.177255 0 0.178039 0 0.178824 0 0.179608 
0 0.180392 0 0.181176 0 0.181961 0 0.182745 0 
0.183529 0 0.184314 0 0.185098 0 0.185882 0 0.186667 
0 0.187451 0 0.188235 0 0.18902 0 0.189804 0 
0.190588 0 0.191373 0 0.192157 0 0.192941 0 0.193725 
0 0.19451 0 0.195294 0 0.196078 0 0.196863 0 
0.197647 0 0.198431 0 0.199216 0 0.2 0 0.200784 
0 0.201569 0 0.202353 0 0.203137 0 0.203922 0 
0.204706 0 0.20549 0 0.206275 0 0.207059 0 0.207843 
0 0.208627 0 0.209412 0 0.210196 0 0.21098 0 
0.211765 0 0.212549 0 0.213333 0 0.214118 0 0.214902 
0 0.215686 0 0.216471 0 0.217255 0 0.218039 0 
0.218824 0 0.219608 0 0.220392 0 0.221176 0 0.221961 
0 0.222745 0 0.223529 0 0.224314 0 0.225098 0 
0.225882 0 0.226667 0 0.227451 0 0.228235 0 0.22902 
0 0.229804 0 0.230588 0 0.231373 0 0.232157 0 
0.232941 0 0.233725 0 0.23451 0 0.235294 0 0.236078 
0 0.236863 0 0.237647 0 0.238431 0 0.239216 0 
0.24 0 0.240784 0 0.241569 0 0.242353 0 0.243137 
0 0.243922 0 0.244706 0 0.24549 0 0.246275 0 
0.247059 0 0.247843 0 0.248627 0 0.249412 0 0.250196 
0 0.25098 0 0.251765 0 0.252549 0 0.253333 0 
0.254118 0 0.254902 0 0.255686 0 0.256471 0 0.257255 
0 0.258039 0 0.258824 0 0.259608 0 0.260392 0 
0.261176 0 0.261961 0 0.262745 0 0.263529 0 0.264314 
0 0.265098 0 0.265882 0 0.266667 0 0.267451 0 
0.268235 0 0.26902 0 0.269804 0 0.270588 0 0.271373 
0 0.272157 0 0.272941 0 0.273725 0 0.27451 0 
0.275294 0 0.276078 0 0.276863 0 0.277647 0 0.278431 
0 0.279216 0 0.28 0 0.280784 0 0.281569 0 
0.282353 0 0.283137 0 0.283922 0 0.284706 0 0.28549 
0 0.286275 0 0.287059 0 0.287843 0 0.288627 0 
0.289412 0 0.290196 0 0.29098 0 0.291765 0 0.292549 
0 0.293333 0 0.294118 0 0.294902 0 0.295686 0 
0.296471 0 0.297255 0 0.298039 0 0.298824 0 0.299608 
0 0.300392 0 0.301176 0 0.301961 0 0.302745 0 
0.303529 0 0.304314 0 0.305098 0 0.305882 0 0.306667 
0 0.307451 0 0.308235 0 0.30902 0 0.309804 0 
0.310588 0 0.311373 0 0.312157 0 0.312941 0 0.313726 
0 0.31451 0 0.315294 0 0.316078 0 0.316863 0 
0.317647 0 0.318431 0 0.319216 0 0.32 0 0.320784 
0 0.321569 0 0.322353 0 0.323137 0 0.323922 0 
0.324706 0 0.32549 0 0.326275 0 0.327059 0 0.327843 
0 0.328627 0 0.329412 0 0.330196 0 0.33098 0 
0.331765 0 0.332549 0 0.333333 0 0.334118 0 0.334902 
0 0.335686 0 0.336471 0 0.337255 0 0.338039 0 
0.338824 0 0.339608 0 0.340392 0 0.341176 0 0.341961 
0 0.342745 0 0.343529 0 0.344314 0 0.345098 0 
0.345882 0 0.346667 0 0.347451 0 0.348235 0 0.34902 
0 0.349804 0 0.350588 0 0.351373 0 0.352157 0 
0.352941 0 0.353725 0 0.35451 0 0.355294 0 0.356078 
0 0.356863 0 0.357647 0 0.358431 0 0.359216 0 
0.36 0 0.360784 0 0.361569 0 0.362353 0 0.363137 
0 0.363922 0 0.364706 0 0.36549 0 0.366275 0 
0.367059 0 0.367843 0 0.368627 0 0.369412 0 0.370196 
0 0.37098 0 0.371765 0 0.372549 0 0.373333 0 
0.374118 0 0.374902 0 0.375686 0 0.376471 0 0.377255 
0 0.378039 0 0.378824 0 0.379608 0 0.380392 0 
0.381176 0 0.381961 0 0.382745 0 0.383529 0 0.384314 
0 0.385098 0 0.385882 0 0.386667 0 0.387451 0 
0.388235 0 0.38902 0 0.389804 0 0.390588 0 0.391373 
0 0.392157 0 0.392941 0 0.393725 0 0.39451 0 
0.395294 0 0.396078 0 0.396863 0 0.397647 0 0.398431 
0 0.399216 0 0.4 0 0.400784 0 0.401569 0 
0.402353 0 0.403137 0 0.403922 0 0.404706 0 0.40549 
0 0.406274 0 0.407059 0 0.407843 0 0.408627 0 
0.409412 0 0.410196 0 0.41098 0 0.411765 0 0.412549 
0 0.413333 0 0.414118 0 0.414902 0 0.415686 0 
0.416471 0 0.417255 0 0.418039 0 0.418824 0 0.419608 
0 0.420392 0 0.421176 0 0.421961 0 0.422745 0 
0.423529 0 0.424314 0 0.425098 0 0.425882 0 0.426667 
0 0.427451 0 0.428235 0 0.42902 0 0.429804 0 
0.430588 0 0.431373 0 0.432157 0 0.432941 0 0.433725 
0 0.43451 0 0.435294 0 0.436078 0 0.436863 0 
0.437647 0 0.438431 0 0.439216 0 0.44 0 0.440784 
0 0.441569 0 0.442353 0 0.443137 0 0.443922 0 
0.444706 0 0.44549 0 0.446275 0 0.447059 0 0.447843 
0 0.448627 0 0.449412 0 0.450196 0 0.45098 0 
0.451765 0 0.452549 0 0.453333 0 0.454118 0 0.454902 
0 0.455686 0 0.456471 0 0.457255 0 0.458039 0 
0.458824 0 0.459608 0 0.460392 0 0.461176 0 0.461961 
0 0.462745 0 0.463529 0 0.464314 0 0.465098 0 
0.465882 0 0.466667 0 0.467451 0 0.468235 0 0.46902 
0 0.469804 0 0.470588 0 0.471373 0 0.472157 0 
0.472941 0 0.473725 0 0.47451 0 0.475294 0 0.476078 
0 0.476863 0 0.477647 0 0.478431 0 0.479216 0 
0.48 0 0.480784 0 0.481569 0 0.482353 0 0.483137 
0 0.483922 0 0.484706 0 0.48549 0 0.486275 0 
0.487059 0 0.487843 0 0.488627 0 0.489412 0 0.490196 
0 0.49098 0 0.491765 0 0.492549 0 0.493333 0 
0.494118 0 0.494902 0 0.495686 0 0.496471 0 0.497255 
0 0.498039 0 0.498824 0 0.499608 0 0.500392 0 
0.501176 0 0.501961 0 0.502745 0 0.503529 0 0.504314 
0 0.505098 0 0.505882 0 0.506667 0 0.507451 0 
0.508235 0 0.50902 0 0.509804 0 0.510588 0 0.511373 
0 0.512157 0 0.512941 0 0.513726 0 0.51451 0 
0.515294 0 0.516078 0 0.516863 0 0.517647 0 0.518431 
0 0.519216 0 0.52 0 0.520784 0 0.521569 0 
0.522353 0 0.523137 0 0.523922 0 0.524706 0 0.52549 
0 0.526275 0 0.527059 0 0.527843 0 0.528627 0 
0.529412 0 0.530196 0 0.53098 0 0.531765 0 0.532549 
0 0.533333 0 0.534118 0 0.534902 0 0.535686 0 
0.536471 0 0.537255 0 0.538039 0 0.538824 0 0.539608 
0 0.540392 0 0.541176 0 0.541961 0 0.542745 0 
0.543529 0 0.544314 0 0.545098 0 0.545882 0 0.546667 
0 0.547451 0 0.548235 0 0.54902 0 0.549804 0 
0.550588 0 0.551373 0 0.552157 0 0.552941 0 0.553725 
0 0.55451 0 0.555294 0 0.556078 0 0.556863 0 
0.557647 0 0.558431 0 0.559216 0 0.56 0 0.560784 
0 0.561569 0 0.562353 0 0.563137 0 0.563922 0 
0.564706 0 0.56549 0 0.566275 0 0.567059 0 0.567843 
0 0.568627 0 0.569412 0 0.570196 0 0.57098 0 
0.571765 0 0.572549 0 0.573333 0 0.574118 0 0.574902 
0 0.575686 0 0.576471 0 0.577255 0 0.578039 0 
0.578824 0 0.579608 0 0.580392 0 0.581176 0 0.581961 
0 0.582745 0 0.583529 0 0.584314 0 0.585098 0 
0.585882 0 0.586667 0 0.587451 0 0.588235 0 0.58902 
0 0.589804 0 0.590588 0 0.591373 0 0.592157 0 
0.592941 0 0.593726 0 0.59451 0 0.595294 0 0.596078 
0 0.596863 0 0.597647 0 0.598431 0 0.599216 0 
0.6 0 0.600784 0 0.601569 0 0.602353 0 0.603137 
0 0.603922 0 0.604706 0 0.60549 0 0.606274 0 
0.607059 0 0.607843 0 0.608627 0 0.609412 0 0.610196 
0 0.61098 0 0.611765 0 0.612549 0 0.613333 0 
0.614118 0 0.614902 0 0.615686 0 0.616471 0 0.617255 
0 0.618039 0 0.618824 0 0.619608 0 0.620392 0 
0.621176 0 0.621961 0 0.622745 0 0.623529 0 0.624314 
0 0.625098 0 0.625882 0 0.626667 0 0.627451 0 
0.628235 0 0.62902 0 0.629804 0 0.630588 0 0.631373 
0 0.632157 0 0.632941 0 0.633725 0 0.63451 0 
0.635294 0 0.636078 0 0.636863 0 0.637647 0 0.638431 
0 0.639216 0 0.64 0 0.640784 0 0.641569 0 
0.642353 0 0.643137 0 0.643922 0 0.644706 0 0.64549 
0 0.646275 0 0.647059 0 0.647843 0 0.648627 0 
0.649412 0 0.650196 0 0.65098 0 0.651765 0 0.652549 
0 0.653333 0 0.654118 0 0.654902 0 0.655686 0 
0.656471 0 0.657255 0 0.658039 0 0.658824 0 0.659608 
0 0.660392 0 0.661176 0 0.661961 0 0.662745 0 
0.663529 0 0.664314 0 0.665098 0 0.665882 0 0.666667 
0 0.667451 0 0.668235 0 0.66902 0 0.669804 0 