# vtk DataFile Version 4.2
vtk output
ASCII
DATASET POLYDATA
POINTS 1273 float
0 0 0 -0.00385075 0.0015801 5.23337e-05 -0.0150889 0.00614397 0.000197278 
-0.0332433 0.013427 0.000416748 -0.0578428 0.0231646 0.000692658 -0.0884164 0.0350921 0.00100692 
-0.124493 0.0489448 0.00134146 -0.165601 0.0644583 0.00167818 -0.211269 0.0813677 0.001999 
-0.261028 0.0994086 0.00228583 -0.314404 0.118316 0.0025206 -0.370928 0.137826 0.00268521 
-0.430127 0.157674 0.00276157 -0.491532 0.177594 0.00273162 -0.55467 0.197323 0.00257725 
-0.619071 0.216595 0.00228038 -0.684263 0.235146 0.00182294 -0.749775 0.252712 0.00118682 
-0.815137 0.269028 0.000353958 -0.879877 0.283829 -0.000693743 -0.943524 0.29685 -0.00197437 
-1.00561 0.307828 -0.00350599 -1.06579 0.316581 -0.00529737 -1.12412 0.323171 -0.00733018 
-1.18072 0.327704 -0.00958124 -1.23571 0.330288 -0.0120273 -1.28921 0.331027 -0.0146453 
-1.34134 0.330028 -0.0174118 -1.39223 0.327397 -0.0203038 -1.44199 0.323241 -0.0232981 
-1.49074 0.317665 -0.0263713 -1.53861 0.310776 -0.0295004 -1.58572 0.302679 -0.0326621 
-1.63218 0.293481 -0.0358333 -1.67811 0.283288 -0.0389906 -1.72365 0.272206 -0.042111 
-1.7689 0.260341 -0.0451712 -1.81399 0.2478 -0.048148 -1.85904 0.234688 -0.0510182 
-1.90417 0.221112 -0.0537587 -1.94951 0.207177 -0.0563462 -1.99515 0.192987 -0.0587581 
-2.04116 0.178581 -0.0609824 -2.08747 0.163944 -0.0630163 -2.13407 0.14906 -0.064857 
-2.18091 0.133912 -0.0665019 -2.22796 0.118486 -0.0679485 -2.27518 0.102765 -0.069194 
-2.32254 0.0867318 -0.0702358 -2.36999 0.0703714 -0.0710712 -2.4175 0.0536675 -0.0716977 
-2.46503 0.0366037 -0.0721125 -2.51255 0.0191641 -0.072313 -2.56002 0.00133259 -0.0722966 
-2.6074 -0.0169071 -0.0720607 -2.65466 -0.0355709 -0.0716025 -2.70176 -0.0546751 -0.0709194 
-2.74866 -0.0742358 -0.0700089 -2.79533 -0.094269 -0.0688682 -2.84173 -0.114791 -0.0674947 
-2.88782 -0.135818 -0.0658858 -2.93356 -0.157365 -0.0640388 -2.97894 -0.179441 -0.0619514 
-3.02396 -0.20203 -0.0596226 -3.06863 -0.225115 -0.057051 -3.11295 -0.248677 -0.0542357 
-3.15694 -0.2727 -0.0511756 -3.20062 -0.297165 -0.0478695 -3.24398 -0.322055 -0.0443164 
-3.28704 -0.347351 -0.0405151 -3.32982 -0.373037 -0.0364646 -3.37232 -0.399094 -0.0321637 
-3.41455 -0.425505 -0.0276115 -3.45652 -0.452251 -0.0228067 -3.49824 -0.479316 -0.0177482 
-3.53973 -0.506681 -0.012435 -3.581 -0.534328 -0.00686606 -3.62204 -0.562241 -0.00104016 
-3.66288 -0.5904 0.00504377 -3.70353 -0.618789 0.0113868 -3.74399 -0.647389 0.0179901 
-3.78428 -0.676184 0.0248546 -3.82441 -0.705156 0.0319809 -3.86437 -0.734299 0.0393654 
-3.90417 -0.763612 0.0470035 -3.94381 -0.79309 0.0548905 -3.98329 -0.82273 0.0630219 
-4.0226 -0.852531 0.0713928 -4.06176 -0.882488 0.0799986 -4.10075 -0.912598 0.0888348 
-4.13958 -0.942859 0.0978965 -4.17825 -0.973268 0.107179 -4.21676 -1.00382 0.116678 
-4.25511 -1.03452 0.126389 -4.29329 -1.06535 0.136306 -4.33132 -1.09632 0.146426 
-4.36919 -1.12742 0.156743 -4.40689 -1.15865 0.167253 -4.44444 -1.19001 0.177952 
-4.48182 -1.22149 0.188834 -4.51905 -1.25309 0.199895 -4.55611 -1.28481 0.211131 
-4.59302 -1.31664 0.222535 -4.62977 -1.34859 0.234104 -4.66636 -1.38064 0.245828 
-4.70282 -1.41279 0.257701 -4.73913 -1.44505 0.269715 -4.77531 -1.4774 0.281863 
-4.81136 -1.50984 0.294138 -4.84729 -1.54237 0.306533 -4.88311 -1.57499 0.31904 
-4.91881 -1.60769 0.331653 -4.9544 -1.64046 0.344362 -4.9899 -1.67331 0.357163 
-5.0253 -1.70622 0.370046 -5.06061 -1.73921 0.383005 -5.09583 -1.77225 0.396033 
-5.13098 -1.80535 0.409123 -5.16606 -1.83851 0.422266 -5.20107 -1.87172 0.435456 
-5.23602 -1.90497 0.448685 -5.27091 -1.93827 0.461947 -5.30575 -1.97161 0.475233 
-5.34055 -2.00498 0.488535 -5.37531 -2.03839 0.501842 -5.41004 -2.07183 0.515141 
-5.44474 -2.1053 0.528421 -5.47943 -2.13881 0.54167 -5.5141 -2.17234 0.554877 
-5.54877 -2.20591 0.568029 -5.58343 -2.23949 0.581115 -5.6181 -2.27311 0.594123 
-5.65279 -2.30674 0.607042 -5.68749 -2.3404 0.619859 -5.72222 -2.37408 0.632564 
-5.75698 -2.40778 0.645144 -5.79178 -2.44149 0.657587 -5.82662 -2.47523 0.669882 
-5.86151 -2.50897 0.682017 -5.89646 -2.54273 0.693981 -5.93147 -2.57651 0.705761 
-5.96655 -2.61029 0.717346 -6.00171 -2.64408 0.728724 -6.03695 -2.67788 0.739881 
-6.07227 -2.71168 0.750793 -6.10768 -2.74549 0.761436 -6.14318 -2.7793 0.771782 
-6.17877 -2.81311 0.781808 -6.21446 -2.84692 0.791488 -6.25024 -2.88072 0.800796 
-6.28612 -2.91452 0.809708 -6.3221 -2.94831 0.818197 -6.35819 -2.98209 0.826239 
-6.39438 -3.01586 0.833809 -6.43069 -3.04961 0.84088 -6.4671 -3.08335 0.847428 
-6.50363 -3.11707 0.853427 -6.54028 -3.15077 0.858853 -6.57704 -3.18445 0.863679 
-6.61393 -3.21811 0.86788 -6.65094 -3.25174 0.871431 -6.68808 -3.28534 0.874307 
-6.72535 -3.31892 0.876483 -6.76275 -3.35246 0.877933 -6.80026 -3.38597 0.878639 
-6.83786 -3.41944 0.878587 -6.87551 -3.45288 0.87776 -6.9132 -3.48627 0.876142 
-6.9509 -3.51961 0.873718 -6.98859 -3.55291 0.870473 -7.02623 -3.58616 0.866391 
-7.0638 -3.61935 0.861457 -7.10128 -3.65248 0.855654 -7.13863 -3.68556 0.848967 
-7.17584 -3.71857 0.841381 -7.21288 -3.75151 0.832881 -7.24972 -3.78439 0.823449 
-7.28634 -3.81719 0.813072 -7.32271 -3.84992 0.801733 -7.3588 -3.88258 0.789417 
-7.39459 -3.91515 0.776108 -7.43005 -3.94764 0.76179 -7.46516 -3.98004 0.746449 
-7.49989 -4.01235 0.730069 -7.53422 -4.04458 0.712659 -7.56813 -4.07672 0.694242 
-7.6016 -4.10877 0.674846 -7.63461 -4.14076 0.654498 -7.66715 -4.17266 0.633221 
-7.69918 -4.2045 0.611045 -7.73069 -4.23627 0.587993 -7.76167 -4.26798 0.564093 
-7.79209 -4.29963 0.539371 -7.82194 -4.33123 0.513853 -7.85119 -4.36277 0.487565 
-7.87982 -4.39427 0.460533 -7.90782 -4.42572 0.432784 -7.93517 -4.45713 0.404344 
-7.96184 -4.48851 0.375238 -7.98781 -4.51986 0.345494 -8.01308 -4.55117 0.315137 
-8.03761 -4.58246 0.284193 -8.06139 -4.61373 0.252689 -8.0844 -4.64498 0.220651 
-8.10663 -4.67622 0.188104 -8.12809 -4.70745 0.15507 -8.14877 -4.73867 0.121573 
-8.16869 -4.76989 0.0876343 -8.18785 -4.80111 0.053277 -8.20626 -4.83234 0.0185238 
-8.22392 -4.86358 -0.0166026 -8.24084 -4.89484 -0.0520797 -8.25702 -4.92611 -0.0878849 
-8.27248 -4.95741 -0.123995 -8.28721 -4.98873 -0.160389 -8.30122 -5.02009 -0.197042 
-8.31452 -5.05148 -0.233933 -8.32712 -5.08291 -0.271038 -8.33902 -5.11438 -0.308336 
-8.35022 -5.14591 -0.345804 -8.36073 -5.17748 -0.383418 -8.37056 -5.20911 -0.421157 
-8.37972 -5.24079 -0.458997 -8.3882 -5.27255 -0.496916 -8.39602 -5.30436 -0.534895 
-8.40319 -5.33625 -0.572926 -8.40971 -5.36819 -0.611003 -8.41561 -5.4002 -0.64912 
-8.42088 -5.43227 -0.68727 -8.42555 -5.46439 -0.725448 -8.42962 -5.49656 -0.763647 
-8.4331 -5.52878 -0.801863 -8.43601 -5.56106 -0.840088 -8.43836 -5.59338 -0.878317 
-8.44016 -5.62574 -0.916543 -8.44142 -5.65814 -0.954762 -8.44214 -5.69059 -0.992966 
-8.44236 -5.72307 -1.03115 -8.44206 -5.75558 -1.06931 -8.44127 -5.78813 -1.10743 
-8.44 -5.8207 -1.14552 -8.43825 -5.8533 -1.18356 -8.43605 -5.88593 -1.22156 
-8.43339 -5.91858 -1.25949 -8.43029 -5.95125 -1.29737 -8.42676 -5.98394 -1.33518 
-8.4228 -6.01665 -1.37291 -8.4184 -6.04938 -1.41058 -8.41357 -6.08212 -1.44817 
-8.40831 -6.11488 -1.48568 -8.40262 -6.14766 -1.52311 -8.3965 -6.18046 -1.56045 
-8.38996 -6.21327 -1.59771 -8.38298 -6.2461 -1.63486 -8.37558 -6.27894 -1.67193 
-8.36776 -6.3118 -1.70889 -8.35951 -6.34467 -1.74575 -8.35084 -6.37756 -1.78251 
-8.34175 -6.41046 -1.81915 -8.33224 -6.44337 -1.85569 -8.32231 -6.47629 -1.8921 
-8.31197 -6.50923 -1.9284 -8.3012 -6.54218 -1.96457 -8.29002 -6.57514 -2.00062 
-8.27843 -6.6081 -2.03654 -8.26644 -6.64108 -2.07233 -8.25409 -6.67405 -2.10802 
-8.24142 -6.70701 -2.14362 -8.22846 -6.73995 -2.17913 -8.21525 -6.77287 -2.21459 
-8.20182 -6.80574 -2.24999 -8.18821 -6.83857 -2.28536 -8.17446 -6.87135 -2.32072 
-8.16059 -6.90406 -2.35607 -8.14666 -6.9367 -2.39143 -8.13268 -6.96926 -2.42682 
-8.1187 -7.00173 -2.46226 -8.10476 -7.03411 -2.49775 -8.09088 -7.06637 -2.53331 
-8.07711 -7.09853 -2.56896 -8.06348 -7.13056 -2.60471 -8.05003 -7.16246 -2.64058 
-8.03679 -7.19422 -2.67658 -8.02379 -7.22583 -2.71273 -8.01108 -7.25728 -2.74904 
-7.99864 -7.28857 -2.78551 -7.98638 -7.31974 -2.8221 -7.97418 -7.35079 -2.85876 
-7.96195 -7.38176 -2.89545 -7.94958 -7.41267 -2.93214 -7.93696 -7.44355 -2.96877 
-7.92398 -7.47441 -3.0053 -7.91054 -7.50529 -3.04169 -7.89654 -7.5362 -3.0779 
-7.88187 -7.56717 -3.11388 -7.86643 -7.59822 -3.14959 -7.8501 -7.62939 -3.18498 
-7.83278 -7.66069 -3.22003 -7.81437 -7.69215 -3.25467 -7.79476 -7.72378 -3.28887 
-7.77384 -7.75563 -3.32258 -7.75152 -7.7877 -3.35577 -7.72768 -7.82003 -3.38838 
-7.70221 -7.85264 -3.42037 -7.67502 -7.88555 -3.45171 -7.64609 -7.91876 -3.48239 
-7.61569 -7.9522 -3.51251 -7.58417 -7.98579 -3.54221 -7.55185 -8.01944 -3.57162 
-7.51908 -8.05306 -3.60089 -7.48618 -8.08656 -3.63013 -7.45351 -8.11986 -3.65949 
-7.42139 -8.15287 -3.68911 -7.39015 -8.1855 -3.71911 -7.36015 -8.21767 -3.74963 
-7.3317 -8.24928 -3.7808 -7.30515 -8.28026 -3.81276 -7.28084 -8.31051 -3.84565 
-7.25909 -8.33995 -3.87959 -7.24025 -8.36849 -3.91472 -7.22466 -8.39604 -3.95118 
-7.21264 -8.42253 -3.98909 -7.20453 -8.44785 -4.0286 -7.20068 -8.47192 -4.06984 
-7.20142 -8.49466 -4.11293 -7.20707 -8.51598 -4.15803 -7.21797 -8.53579 -4.20524 
-7.23402 -8.55402 -4.25423 -7.25462 -8.57059 -4.30419 -7.27918 -8.58546 -4.35426 
-7.30708 -8.59856 -4.40357 -7.33773 -8.60981 -4.45129 -7.37051 -8.61917 -4.49655 
-7.40483 -8.62656 -4.5385 -7.44006 -8.63193 -4.57629 -7.47561 -8.6352 -4.60906 
-7.51087 -8.63632 -4.63596 -7.54523 -8.63522 -4.65613 -7.5781 -8.63184 -4.66873 
-7.60909 -8.62619 -4.67333 -7.63827 -8.6184 -4.6703 -7.66577 -8.60862 -4.66013 
-7.69168 -8.59699 -4.64326 -7.71613 -8.58367 -4.62017 -7.73922 -8.5688 -4.59132 
-7.76107 -8.55254 -4.55717 -7.7818 -8.53502 -4.5182 -7.80151 -8.51641 -4.47486 
-7.82032 -8.49684 -4.42762 -7.83833 -8.47646 -4.37694 -7.85568 -8.45543 -4.3233 
-7.87246 -8.4339 -4.26716 -7.88879 -8.412 -4.20897 -7.90478 -8.38989 -4.14922 
[...]
CELL_DATA 1
FIELD FieldData 2
Length 1 1 double
63.498127396 
Tortuosity 1 1 double
0.92928994508 
POINT_DATA 1273
SCALARS MaximumInscribedSphereRadius float
LOOKUP_TABLE default
0.93 0.93 0.93 0.93 0.93 0.93 0.93 0.93 0.93 
0.93 0.93 0.93 0.93 0.93 0.93 0.93 0.93 0.93 
0.93 0.93 0.93 0.93 0.93 0.93 0.93 0.93 0.93 
0.93 0.93 0.93 0.93 0.93 0.93 0.93 0.93 0.93 
0.93 0.93 0.93 0.93 0.93 0.93 0.93 0.93 0.93 
0.93 0.93 0.93 0.93 0.93 0.93 0.93 0.93 0.93 
0.93 0.93 0.93 0.93 0.93 0.93 0.93 0.928801 0.921905 
0.915008 0.908112 0.901215 0.894319 0.887422 0.880526 0.873629 0.866733 0.859836 
0.85294 0.846043 0.839147 0.83225 0.825354 0.818457 0.811561 0.804664 0.797768 
0.790871 0.786888 0.783198 0.779508 0.775819 0.772129 0.76844 0.76475 0.76106 
0.757371 0.753681 0.749991 0.746302 0.742612 0.738922 0.735233 0.731543 0.727854 
0.724164 0.720474 0.716785 0.723295 0.735752 0.748208 0.760664 0.773121 0.785577 
0.798033 0.810489 0.822946 0.835402 0.847858 0.860315 0.872771 0.885227 0.897684 
0.91014 0.922596 0.935052 0.947509 0.959965 0.971717 0.982154 0.992591 1.00303 
1.01346 1.0239 1.03434 1.04477 1.05521 1.06565 1.07608 1.08652 1.09696 
1.1074 1.11783 1.12827 1.13871 1.14914 1.15958 1.17002 1.17923 1.17103 
1.16282 1.15461 1.1464 1.13819 1.12999 1.12178 1.11357 1.10536 1.09715 
1.08895 1.08074 1.07253 1.06432 1.05611 1.0479 1.0397 1.03149 1.02328 
1.01507 1.0101 1.00598 1.00186 0.997736 0.993617 0.989497 0.985378 0.981258 
0.977138 0.973019 0.968899 0.96478 0.96066 0.956541 0.952421 0.948301 0.944182 
0.940062 0.935943 0.931823 0.936215 0.947364 0.958513 0.969662 0.980811 0.99196 
1.00311 1.01426 1.02541 1.03656 1.04771 1.05885 1.07 1.08115 1.0923 
1.10345 1.1146 1.12575 1.1369 1.14805 1.16353 1.18759 1.21166 1.23573 
1.2598 1.28387 1.30794 1.332 1.35607 1.38014 1.40421 1.42828 1.45235 
1.47641 1.50048 1.52455 1.54862 1.57269 1.59676 1.62082 1.64183 1.62791 
1.61399 1.60008 1.58616 1.57224 1.55833 1.54441 1.53049 1.51658 1.50266 
1.48874 1.47483 1.46091 1.44699 1.43308 1.41916 1.40524 1.39133 1.37741 
1.36349 1.34671 1.32927 1.31184 1.2944 1.27697 1.25953 1.2421 1.22466 
1.20723 1.18979 1.17236 1.15492 1.13749 1.12005 1.10262 1.08518 1.06775 
1.05031 1.03288 1.01544 1.00527 1.00145 0.997635 0.99382 0.990004 0.986189 
0.982373 0.978558 0.974742 0.970927 0.967111 0.963296 0.95948 0.955665 0.951849 
0.948034 0.944218 0.940403 0.936587 0.932772 0.930281 0.931306 0.932332 0.933358 
0.934383 0.935409 0.936435 0.93746 0.938486 0.939512 0.940537 0.941563 0.942589 
0.943614 0.94464 0.945665 0.946691 0.947717 0.948742 0.949768 0.95144 0.961089 
0.970738 0.980387 0.990036 0.999685 1.00933 1.01898 1.02863 1.03828 1.04793 
1.05758 1.06723 1.07688 1.08653 1.09618 1.10582 1.11547 1.12512 1.13477 
1.14442 1.15407 1.14808 1.12335 1.09861 1.07388 1.04915 1.02441 0.99968 
0.974947 0.950214 0.92548 0.900747 0.876014 0.856625 0.852114 0.847603 0.843091 
0.83858 0.834069 0.829558 0.825047 0.820536 0.816025 0.811513 0.807002 0.802491 
0.79798 0.793469 0.788958 0.784447 0.779935 0.775424 0.770913 0.766402 0.761891 
0.75738 0.763822 0.771788 0.779754 0.787719 0.795685 0.80365 0.811616 0.819582 
0.827547 0.835513 0.843479 0.851444 0.85941 0.867376 0.875341 0.883307 0.891273 
0.899238 0.907204 0.914695 0.915451 0.916207 0.916963 0.917719 0.918474 0.91923 
0.919986 0.920742 0.921498 0.922254 0.92301 0.923766 0.924522 0.925278 0.926034 
0.92679 0.927545 0.928301 0.929057 0.929813 0.93 0.93 0.93 0.93 
0.93 0.93 0.93 0.93 0.93 0.93 0.93 0.93 0.93 
0.93 0.93 0.93 0.93 0.93 0.93 0.93 0.930171 0.930542 
0.930912 0.931282 0.931653 0.932023 0.932394 0.932764 0.933134 0.933505 0.933875 
0.934246 0.934616 0.934987 0.935357 0.935728 0.936098 0.936468 0.936839 0.937209 
0.938899 0.946488 0.954077 0.961667 0.969256 0.976845 0.984434 0.992024 0.999613 
1.0072 1.01479 1.02238 1.02997 1.03756 1.04515 1.05274 1.06033 1.06792 
1.07551 1.0831 1.09069 1.09804 1.10536 1.11269 1.12001 1.12734 1.13467 
1.14199 1.14932 1.15664 1.16397 1.1713 1.17862 1.18595 1.19327 1.2006 
1.20793 1.21525 1.22258 1.2299 1.23723 1.24 1.24 1.24 1.24 
1.24 1.24 1.24 1.24 1.24 1.24 1.24 1.24 1.24 
1.24 1.24 1.24 1.24 1.24 1.24 1.24 1.24 1.24 
1.24 1.24 1.24 1.24 1.24 1.24 1.24 1.24 1.24 
1.24 1.24 1.24 1.24 1.24 1.24 1.24 1.24 1.24 
1.24 1.24 1.24 1.24 1.24 1.24 1.24 1.24 1.24 
1.24 1.24 1.24 1.24 1.24 1.24 1.24 1.24 1.24 
1.24 1.24 1.24 1.24063 1.24135 1.24208 1.2428 1.24352 1.24425 
1.24497 1.24569 1.24642 1.24714 1.24787 1.24859 1.24931 1.25004 1.25076 
1.25148 1.25221 1.25293 1.25366 1.25438 1.25795 1.26342 1.26889 1.27436 
1.27983 1.28531 1.29078 1.29625 1.30172 1.3072 1.31267 1.31814 1.32361 
1.32909 1.33456 1.34003 1.3455 1.35098 1.35645 1.36192 1.3683 1.37659 
1.38489 1.39318 1.40147 1.40976 1.41805 1.42634 1.43463 1.44292 1.45122 
1.45951 1.4678 1.47609 1.48438 1.49267 1.50096 1.50925 1.51755 1.52584 
1.53347 1.52654 1.51962 1.51269 1.50576 1.49884 1.49191 1.48498 1.47806 
1.47113 1.4642 1.45727 1.45035 1.44342 1.43649 1.42957 1.42264 1.41571 
1.40879 1.40186 1.39493 1.38997 1.38562 1.38128 1.37693 1.37259 1.36824 
1.3639 1.35955 1.3552 1.35086 1.34651 1.34217 1.33782 1.33348 1.32913 
1.32478 1.32044 1.31609 1.31175 1.3074 1.30833 1.31493 1.32153 1.32813 
1.33473 1.34133 1.34793 1.35453 1.36113 1.36773 1.37433 1.38093 1.38753 
1.39413 1.40073 1.40733 1.41393 1.42053 1.42713 1.43373 1.43869 1.43702 
1.43536 1.43369 1.43202 1.43036 1.42869 1.42702 1.42536 1.42369 1.42203 
1.42036 1.41869 1.41703 1.41536 1.41369 1.41203 1.41036 1.40869 1.40703 
1.40536 1.39121 1.37589 1.36058 1.34526 1.32995 1.31463 1.29932 1.28401 
1.26869 1.25338 1.23806 1.22275 1.20743 1.19212 1.1768 1.16149 1.14618 
1.13086 1.11555 1.10023 1.09771 1.10257 1.10743 1.11228 1.11714 1.122 
1.12685 1.13171 1.13657 1.14143 1.14628 1.15114 1.156 1.16086 1.16571 
1.17057 1.17543 1.18029 1.18514 1.19 1.19819 1.21231 1.22642 1.24054 
1.25466 1.26877 1.28289 1.297 1.31112 1.32523 1.33935 1.35347 1.36758 
1.3817 1.39581 1.40993 1.42405 1.43816 1.45228 1.46639 1.47877 1.47286 
1.46696 1.46105 1.45514 1.44924 1.44333 1.43743 1.43152 1.42562 1.41971 
1.41381 1.4079 1.402 1.39609 1.39019 1.38428 1.37837 1.37247 1.36656 
1.36066 1.35217 1.34309 1.33401 1.32493 1.31584 1.30676 1.29768 1.2886 
1.27951 1.27043 1.26135 1.25227 1.24319 1.2341 1.22502 1.21594 1.20686 
1.19777 1.18869 1.17961 1.1705 1.16137 1.15224 1.14311 1.13398 1.12485 
1.11572 1.10658 1.09745 1.08832 1.07919 1.07006 1.06093 1.0518 1.04267 
1.03354 1.02441 1.01527 1.00614 0.997012 0.994881 1.01171 1.02854 1.04538 
1.06221 1.07904 1.09587 1.1127 1.12953 1.14637 1.1632 1.18003 1.19686 
1.21369 1.23052 1.24736 1.26419 1.28102 1.29785 1.31468 1.33156 1.35546 
1.37936 1.40326 1.42716 1.45106 1.47496 1.49885 1.52275 1.54665 1.57055 
1.59445 1.61835 1.64225 1.66615 1.69005 1.71395 1.73785 1.76175 1.78565 
1.80955 1.81269 1.80862 1.80455 1.80048 1.79641 1.79234 1.78827 1.7842 
1.78012 1.77605 1.77198 1.76791 1.76384 1.75977 1.7557 1.75163 1.74756 
1.74349 1.73942 1.73535 1.733 1.7326 1.7322 1.7318 1.7314 1.73101 
1.73061 1.73021 1.72981 1.72941 1.72901 1.72861 1.72821 1.72781 1.72741 
1.72701 1.72661 1.72621 1.72581 1.72541 1.72604 1.73101 1.73599 1.74097 
1.74594 1.75092 1.75589 1.76087 1.76585 1.77082 1.7758 1.78077 1.78575 
1.79073 1.7957 1.80068 1.80565 1.81063 1.81561 1.82058 1.82556 1.81627 
1.80553 1.79478 1.78404 1.77329 1.76255 1.7518 1.74106 1.73031 1.71957 
1.70882 1.69808 1.68733 1.67659 1.66584 1.6551 1.64435 1.63361 1.62287 
1.61212 1.59917 1.58489 1.57062 1.55634 1.54206 1.52779 1.51351 1.49923 
1.48495 1.47068 1.4564 1.44212 1.42785 1.41357 1.39929 1.38501 1.37074 
1.35646 1.34218 1.32791 1.31751 1.31463 1.31175 1.30887 1.30599 1.30312 
1.30024 1.29736 1.29448 1.2916 1.28872 1.28584 1.28296 1.28009 1.27721 
1.27433 1.27145 1.26857 1.26569 1.26281 1.26015 1.26099 1.26183 1.26268 
1.26352 1.26436 1.26521 1.26605 1.26689 1.26774 1.26858 1.26942 1.27027 
1.27111 1.27195 1.2728 1.27364 1.27448 1.27532 1.27617 1.27701 1.2772 
1.2772 1.2772 1.2772 1.2772 1.2772 1.2772 1.2772 1.2772 1.2772 
1.2772 1.2772 1.2772 1.2772 1.2772 1.2772 1.2772 1.2772 1.2772 
1.2772 1.27749 1.27806 1.27863 1.27921 1.27978 1.28035 1.28093 1.2815 
1.28207 1.28265 1.28322 1.28379 1.28437 1.28494 1.28551 1.28609 1.28666 
1.28723 1.28781 1.28838 1.28909 1.29026 1.29142 1.29259 1.29376 1.29492 
1.29609 1.29725 1.29842 1.29959 1.30075 1.30192 1.30308 1.30425 1.30542 
1.30658 1.30775 1.30892 1.31008 1.31125 1.31241 1.31022 1.30797 1.30573 
1.30348 1.30124 1.29899 1.29674 1.2945 1.29225 1.29001 1.28776 1.28552 
1.28327 1.28103 1.27878 1.27654 1.27429 1.27205 1.2698 1.26756 1.266 
1.26467 1.26333 1.262 1.26067 1.25933 1.258 1.25666 1.25533 1.254 
1.25266 1.25133 1.25 1.24866 1.24733 1.246 1.24466 1.24333 1.24199 
1.24066 1.24055 1.24165 1.24275 1.24385 1.24495 1.24605 1.24715 1.24825 
1.24935 1.25045 1.25154 1.25264 1.25374 1.25484 1.25594 1.25704 1.25814 
1.25924 1.26034 1.26144 1.26594 1.28171 1.29747 1.31324 1.329 1.34476 
1.36053 1.37629 1.39206 1.40782 1.42358 1.43935 1.45511 1.47088 1.48664 
1.5024 1.51817 1.53393 1.54969 1.56546 1.58122 1.59545 1.6096 1.62375 
1.6379 1.65206 1.66621 1.68036 1.69451 1.70867 1.72282 1.73697 1.75112 
1.76528 1.77943 1.79358 1.80773 1.82188 1.83604 1.85019 1.86434 1.86885 
1.86878 1.86872 1.86865 1.86858 1.86851 1.86844 1.86837 1.8683 1.86823 
1.86816 1.86809 1.86802 1.86796 1.86789 1.86782 1.86775 1.86768 1.86761 
1.86754 1.86559 1.86079 1.85599 1.8512 1.8464 1.8416 1.83681 1.83201 
1.82722 1.82242 1.81762 1.81283 1.80803 1.80323 1.79844 1.79364 1.78885 
1.78405 1.77925 1.77446 1.76914 1.75996 1.75078 1.74161 1.73243 1.72325 
1.71407 1.70489 1.69571 1.68653 1.67736 1.66818 1.659 1.64982 1.64064 
1.63146 1.62228 1.61311 1.60393 1.59475 1.58557 1.57066 1.5546 1.53854 
1.52248 1.50642 1.49037 1.47431 1.45825 1.44219 1.42613 1.41007 1.39401 
1.37796 1.3619 1.34584 1.32978 1.31372 1.29766 1.2816 1.26555 1.25776 
1.2561 1.25443 1.25276 1.2511 1.24943 1.24776 1.2461 1.24443 1.24277 
1.2411 1.23943 1.23777 1.2361 1.23443 1.23277 1.2311 1.22943 1.22777 
1.2261 1.23693 1.26809 1.29924 1.33039 1.36155 1.3927 1.42385 1.45501 
1.48616 1.51731 1.54847 1.57962 1.61077 1.64193 1.67308 1.70423 1.73539 
1.76654 1.79769 1.82885 1.86 
TEXTURE_COORDINATES TCoords 2 float
0 0 0.000786163 0 0.00157233 0 0.00235849 0 0.00314465 
0 0.00393082 0 0.00471698 0 0.00550314 0 0.00628931 0 
0.00707547 0 0.00786164 0 0.0086478 0 0.00943396 0 0.0102201 
0 0.0110063 0 0.0117925 0 0.0125786 0 0.0133648 0 
0.0141509 0 0.0149371 0 0.0157233 0 0.0165094 0 0.0172956 
0 0.0180818 0 0.0188679 0 0.0196541 0 0.0204403 0 
0.0212264 0 0.0220126 0 0.0227987 0 0.0235849 0 0.0243711 
0 0.0251572 0 0.0259434 0 0.0267296 0 0.0275157 0 
0.0283019 0 0.0290881 0 0.0298742 0 0.0306604 0 0.0314465 
0 0.0322327 0 0.0330189 0 0.033805 0 0.0345912 0 
0.0353774 0 0.0361635 0 0.0369497 0 0.0377358 0 0.038522 
0 0.0393082 0 0.0400943 0 0.0408805 0 0.0416667 0 
0.0424528 0 0.043239 0 0.0440252 0 0.0448113 0 0.0455975 
0 0.0463836 0 0.0471698 0 0.047956 0 0.0487421 0 
0.0495283 0 0.0503145 0 0.0511006 0 0.0518868 0 0.052673 
0 0.0534591 0 0.0542453 0 0.0550314 0 0.0558176 0 
0.0566038 0 0.0573899 0 0.0581761 0 0.0589623 0 0.0597484 
0 0.0605346 0 0.0613208 0 0.0621069 0 0.0628931 0 
0.0636792 0 0.0644654 0 0.0652516 0 0.0660377 0 0.0668239 
0 0.0676101 0 0.0683962 0 0.0691824 0 0.0699686 0 
0.0707547 0 0.0715409 0 0.072327 0 0.0731132 0 0.0738994 
0 0.0746855 0 0.0754717 0 0.0762579 0 0.077044 0 
0.0778302 0 0.0786164 0 0.0794025 0 0.0801887 0 0.0809748 
0 0.081761 0 0.0825472 0 0.0833333 0 0.0841195 0 
0.0849057 0 0.0856918 0 0.086478 0 0.0872642 0 0.0880503 
0 0.0888365 0 0.0896226 0 0.0904088 0 0.091195 0 
0.0919811 0 0.0927673 0 0.0935535 0 0.0943396 0 0.0951258 
0 0.0959119 0 0.0966981 0 0.0974843 0 0.0982704 0 
0.0990566 0 0.0998428 0 0.100629 0 0.101415 0 0.102201 
0 0.102987 0 0.103774 0 0.10456 0 0.105346 0 
0.106132 0 0.106918 0 0.107704 0 0.108491 0 0.109277 
0 0.110063 0 0.110849 0 0.111635 0 0.112421 0 
0.113208 0 0.113994 0 0.11478 0 0.115566 0 0.116352 
0 0.117138 0 0.117925 0 0.118711 0 0.119497 0 
0.120283 0 0.121069 0 0.121855 0 0.122642 0 0.123428 
0 0.124214 0 0.125 0 0.125786 0 0.126572 0 
0.127358 0 0.128145 0 0.128931 0 0.129717 0 0.130503 
0 0.131289 0 0.132075 0 0.132862 0 0.133648 0 
0.134434 0 0.13522 0 0.136006 0 0.136792 0 0.137579 
0 0.138365 0 0.139151 0 0.139937 0 0.140723 0 
0.141509 0 0.142296 0 0.143082 0 0.143868 0 0.144654 
0 0.14544 0 0.146226 0 0.147013 0 0.147799 0 
0.148585 0 0.149371 0 0.150157 0 0.150943 0 0.15173 
0 0.152516 0 0.153302 0 0.154088 0 0.154874 0 
0.15566 0 0.156447 0 0.157233 0 0.158019 0 0.158805 
0 0.159591 0 0.160377 0 0.161164 0 0.16195 0 
0.162736 0 0.163522 0 0.164308 0 0.165094 0 0.165881 
0 0.166667 0 0.167453 0 0.168239 0 0.169025 0 
0.169811 0 0.170597 0 0.171384 0 0.17217 0 0.172956 
0 0.173742 0 0.174528 0 0.175314 0 0.176101 0 
0.176887 0 0.177673 0 0.178459 0 0.179245 0 0.180031 
0 0.180818 0 0.181604 0 0.18239 0 0.183176 0 
0.183962 0 0.184748 0 0.185535 0 0.186321 0 0.187107 
0 0.187893 0 0.188679 0 0.189465 0 0.190252 0 
0.191038 0 0.191824 0 0.19261 0 0.193396 0 0.194182 
0 0.194969 0 0.195755 0 0.196541 0 0.197327 0 
0.198113 0 0.198899 0 0.199686 0 0.200472 0 0.201258 
0 0.202044 0 0.20283 0 0.203616 0 0.204403 0 
0.205189 0 0.205975 0 0.206761 0 0.207547 0 0.208333 
0 0.209119 0 0.209906 0 0.210692 0 0.211478 0 
0.212264 0 0.21305 0 0.213836 0 0.214623 0 0.215409 
0 0.216195 0 0.216981 0 0.217767 0 0.218553 0 
0.21934 0 0.220126 0 0.220912 0 0.221698 0 0.222484 
0 0.22327 0 0.224057 0 0.224843 0 0.225629 0 
0.226415 0 0.227201 0 0.227987 0 0.228774 0 0.22956 
0 0.230346 0 0.231132 0 0.231918 0 0.232704 0 
0.233491 0 0.234277 0 0.235063 0 0.235849 0 0.236635 
0 0.237421 0 0.238208 0 0.238994 0 0.23978 0 
0.240566 0 0.241352 0 0.242138 0 0.242925 0 0.243711 
0 0.244497 0 0.245283 0 0.246069 0 0.246855 0 
0.247642 0 0.248428 0 0.249214 0 0.25 0 0.250786 
0 0.251572 0 0.252358 0 0.253145 0 0.253931 0 
0.254717 0 0.255503 0 0.256289 0 0.257075 0 0.257862 
0 0.258648 0 0.259434 0 0.26022 0 0.261006 0 
0.261792 0 0.262579 0 0.263365 0 0.264151 0 0.264937 
0 0.265723 0 0.266509 0 0.267296 0 0.268082 0 
0.268868 0 0.269654 0 0.27044 0 0.271226 0 0.272013 
0 0.272799 0 0.273585 0 0.274371 0 0.275157 0 
0.275943 0 0.27673 0 0.277516 0 0.278302 0 0.279088 
0 0.279874 0 0.28066 0 0.281447 0 0.282233 0 
0.283019 0 0.283805 0 0.284591 0 0.285377 0 0.286164 
0 0.28695 0 0.287736 0 0.288522 0 0.289308 0 
0.290094 0 0.290881 0 0.291667 0 0.292453 0 0.293239 
0 0.294025 0 0.294811 0 0.295597 0 0.296384 0 
0.29717 0 0.297956 0 0.298742 0 0.299528 0 0.300314 
0 0.301101 0 0.301887 0 0.302673 0 0.303459 0 
0.304245 0 0.305031 0 0.305818 0 0.306604 0 0.30739 
0 0.308176 0 0.308962 0 0.309748 0 0.310535 0 
0.311321 0 0.312107 0 0.312893 0 0.313679 0 0.314465 
0 0.315252 0 0.316038 0 0.316824 0 0.31761 0 
0.318396 0 0.319182 0 0.319969 0 0.320755 0 0.321541 
0 0.322327 0 0.323113 0 0.323899 0 0.324686 0 
0.325472 0 0.326258 0 0.327044 0 0.32783 0 0.328616 
0 0.329403 0 0.330189 0 0.330975 0 0.331761 0 
0.332547 0 0.333333 0 0.334119 0 0.334906 0 0.335692 
0 0.336478 0 0.337264 0 0.33805 0 0.338836 0 
0.339623 0 0.340409 0 0.341195 0 0.341981 0 0.342767 
0 0.343553 0 0.34434 0 0.345126 0 0.345912 0 
0.346698 0 0.347484 0 0.34827 0 0.349057 0 0.349843 
0 0.350629 0 0.351415 0 0.352201 0 0.352987 0 
0.353774 0 0.35456 0 0.355346 0 0.356132 0 0.356918 
0 0.357704 0 0.358491 0 0.359277 0 0.360063 0 
0.360849 0 0.361635 0 0.362421 0 0.363208 0 0.363994 
0 0.36478 0 0.365566 0 0.366352 0 0.367138 0 
0.367925 0 0.368711 0 0.369497 0 0.370283 0 0.371069 
0 0.371855 0 0.372642 0 0.373428 0 0.374214 0 
0.375 0 0.375786 0 0.376572 0 0.377358 0 0.378145 
0 0.378931 0 0.379717 0 0.380503 0 0.381289 0 
0.382075 0 0.382862 0 0.383648 0 0.384434 0 0.38522 
0 0.386006 0 0.386792 0 0.387579 0 0.388365 0 
0.389151 0 0.389937 0 0.390723 0 0.391509 0 0.392296 
0 0.393082 0 0.393868 0 0.394654 0 0.39544 0 
0.396226 0 0.397013 0 0.397799 0 0.398585 0 0.399371 
0 0.400157 0 0.400943 0 0.40173 0 0.402516 0 
0.403302 0 0.404088 0 0.404874 0 0.40566 0 0.406447 
0 0.407233 0 0.408019 0 0.408805 0 0.409591 0 
0.410377 0 0.411164 0 0.41195 0 0.412736 0 0.413522 
0 0.414308 0 0.415094 0 0.415881 0 0.416667 0 
0.417453 0 0.418239 0 0.419025 0 0.419811 0 0.420597 
0 0.421384 0 0.42217 0 0.422956 0 0.423742 0 
0.424528 0 0.425314 0 0.426101 0 0.426887 0 0.427673 
0 0.428459 0 0.429245 0 0.430031 0 0.430818 0 
0.431604 0 0.43239 0 0.433176 0 0.433962 0 0.434748 
0 0.435535 0 0.436321 0 0.437107 0 0.437893 0 
0.438679 0 0.439465 0 0.440252 0 0.441038 0 0.441824 
0 0.44261 0 0.443396 0 0.444182 0 0.444969 0 
0.445755 0 0.446541 0 0.447327 0 0.448113 0 0.448899 
0 0.449686 0 0.450472 0 0.451258 0 0.452044 0 
0.45283 0 0.453616 0 0.454403 0 0.455189 0 0.455975 
0 0.456761 0 0.457547 0 0.458333 0 0.459119 0 
0.459906 0 0.460692 0 0.461478 0 0.462264 0 0.46305 
0 0.463836 0 0.464623 0 0.465409 0 0.466195 0 
0.466981 0 0.467767 0 0.468553 0 0.46934 0 0.470126 
0 0.470912 0 0.471698 0 0.472484 0 0.47327 0 
0.474057 0 0.474843 0 0.475629 0 0.476415 0 0.477201 
0 0.477987 0 0.478774 0 0.47956 0 0.480346 0 
0.481132 0 0.481918 0 0.482704 0 0.483491 0 0.484277 
0 0.485063 0 0.485849 0 0.486635 0 0.487421 0 
0.488208 0 0.488994 0 0.48978 0 0.490566 0 0.491352 
0 0.492138 0 0.492925 0 0.493711 0 0.494497 0 
0.495283 0 0.496069 0 0.496855 0 0.497642 0 0.498428 
0 0.499214 0 0.5 0 0.500786 0 0.501572 0 
0.502358 0 0.503145 0 0.503931 0 0.504717 0 0.505503 
0 0.506289 0 0.507075 0 0.507862 0 0.508648 0 
0.509434 0 0.51022 0 0.511006 0 0.511792 0 0.512579 
0 0.513365 0 0.514151 0 0.514937 0 0.515723 0 
0.516509 0 0.517296 0 0.518082 0 0.518868 0 0.519654 
0 0.52044 0 0.521226 0 0.522013 0 0.522799 0 
0.523585 0 0.524371 0 0.525157 0 0.525943 0 0.52673 
0 0.527516 0 0.528302 0 0.529088 0 0.529874 0 
0.53066 0 0.531447 0 0.532233 0 0.533019 0 0.533805 
0 0.534591 0 0.535377 0 0.536164 0 0.53695 0 
0.537736 0 0.538522 0 0.539308 0 0.540094 0 0.540881 
0 0.541667 0 0.542453 0 0.543239 0 0.544025 0 
0.544811 0 0.545597 0 0.546384 0 0.54717 0 0.547956 
0 0.548742 0 0.549528 0 0.550314 0 0.551101 0 
0.551887 0 0.552673 0 0.553459 0 0.554245 0 0.555031 
0 0.555818 0 0.556604 0 0.55739 0 0.558176 0 
0.558962 0 0.559748 0 0.560535 0 0.561321 0 0.562107 
0 0.562893 0 0.563679 0 0.564465 0 0.565252 0 
0.566038 0 0.566824 0 0.56761 0 0.568396 0 0.569182 
0 0.569969 0 0.570755 0 0.571541 0 0.572327 0 
0.573113 0 0.573899 0 0.574686 0 0.575472 0 0.576258 
0 0.577044 0 0.57783 0 0.578616 0 0.579403 0 
0.580189 0 0.580975 0 0.581761 0 0.582547 0 0.583333 
0 0.584119 0 0.584906 0 0.585692 0 0.586478 0 
0.587264 0 0.58805 0 0.588836 0 0.589623 0 0.590409 
0 0.591195 0 0.591981 0 0.592767 0 0.593553 0 
0.59434 0 0.595126 0 0.595912 0 0.596698 0 0.597484 
0 0.59827 0 0.599057 0 0.599843 0 0.600629 0 
0.601415 0 0.602201 0 0.602987 0 0.603774 0 0.60456 
0 0.605346 0 0.606132 0 0.606918 0 0.607704 0 
0.608491 0 0.609277 0 0.610063 0 0.610849 0 0.611635 
0 0.612421 0 0.613208 0 0.613994 0 0.61478 0 
0.615566 0 0.616352 0 0.617138 0 0.617925 0 0.618711 
0 0.619497 0 0.620283 0 0.621069 0 0.621855 0 
0.622642 0 0.623428 0 0.624214 0 0.625 0 0.625786 
0 0.626572 0 0.627358 0 0.628145 0 0.628931 0 
0.629717 0 0.630503 0 0.631289 0 0.632075 0 0.632862 
0 0.633648 0 0.634434 0 0.63522 0 0.636006 0 
0.636792 0 0.637579 0 0.638365 0 0.639151 0 0.639937 
0 0.640723 0 0.641509 0 0.642296 0 0.643082 0 
0.643868 0 0.644654 0 0.64544 0 0.646226 0 0.647013 
0 0.647799 0 0.648585 0 0.649371 0 0.650157 0 
0.650943 0 0.65173 0 0.652516 0 0.653302 0 0.654088 
0 0.654874 0 0.65566 0 0.656447 0 0.657233 0 
0.658019 0 0.658805 0 0.659591 0 0.660377 0 0.661164 
0 0.66195 0 0.662736 0 0.663522 0 0.664308 0 
0.665094 0 0.665881 0 0.666667 0 0.667453 0 0.668239 
0 0.669025 0 0.669811 0 0.670597 0 0.671384 0 
0.67217 0 0.672956 0 0.673742 0 0.674528 0 0.675314 
0 0.676101 0 0.676887 0 0.677673 0 0.678459 0 
0.679245 0 0.680031 0 0.680818 0 0.681604 0 0.68239 