# vtk DataFile Version 4.2
vtk output
ASCII
DATASET POLYDATA
POINTS 1276 float
0 0 0 -0.00224882 0.0029485 0.00176748 -0.00881988 0.0115284 0.00693378 
-0.0194501 0.0253414 0.0152947 -0.0338764 0.0439891 0.0266461 -0.0518356 0.067073 0.0407838 
-0.0730648 0.094195 0.0575035 -0.0973007 0.124956 0.0766012 -0.12428 0.158959 0.0978725 
-0.153741 0.195805 0.121113 -0.185418 0.235095 0.14612 -0.219051 0.276431 0.172687 
-0.254374 0.319415 0.200611 -0.291126 0.363648 0.229688 -0.329043 0.408732 0.259714 
-0.367862 0.454269 0.290484 -0.40732 0.49986 0.321795 -0.447154 0.545107 0.353441 
-0.487101 0.589611 0.385219 -0.526897 0.632975 0.416925 -0.56628 0.674799 0.448355 
-0.604987 0.714686 0.479303 -0.642833 0.75236 0.509625 -0.679853 0.787888 0.539334 
-0.71612 0.821396 0.568473 -0.751706 0.853008 0.597083 -0.786685 0.882852 0.625207 
-0.821127 0.911052 0.652886 -0.855107 0.937734 0.680164 -0.888696 0.963024 0.707081 
-0.921968 0.987048 0.733681 -0.954995 1.00993 0.760005 -0.987849 1.0318 0.786095 
-1.0206 1.05278 0.811994 -1.05333 1.07299 0.837743 -1.0861 1.09257 0.863385 
-1.11899 1.11163 0.888961 -1.15207 1.13031 0.914515 -1.18542 1.14873 0.940087 
-1.2191 1.16701 0.965721 -1.25319 1.18528 0.991458 -1.28775 1.20366 1.01734 
-1.32283 1.22221 1.04338 -1.3584 1.24089 1.06955 -1.39445 1.25966 1.09584 
-1.43097 1.27849 1.12222 -1.46793 1.29734 1.14868 -1.50532 1.31618 1.17519 
-1.54313 1.33498 1.20173 -1.58134 1.35369 1.22828 -1.61993 1.37229 1.25482 
-1.65889 1.39074 1.28133 -1.6982 1.409 1.30779 -1.73784 1.42703 1.33417 
-1.77781 1.44481 1.36046 -1.81807 1.46229 1.38663 -1.85862 1.47944 1.41267 
-1.89945 1.49623 1.43855 -1.94053 1.51263 1.46425 -1.98184 1.52858 1.48975 
-2.02338 1.54407 1.51503 -2.06513 1.55905 1.54007 -2.10707 1.5735 1.56485 
-2.14921 1.58741 1.58937 -2.19155 1.6008 1.61362 -2.23409 1.61365 1.63758 
-2.27683 1.62597 1.66127 -2.31978 1.63776 1.68467 -2.36293 1.64902 1.70778 
-2.4063 1.65975 1.73059 -2.44988 1.66996 1.7531 -2.49367 1.67963 1.7753 
-2.53769 1.68878 1.79718 -2.58192 1.6974 1.81875 -2.62638 1.7055 1.83999 
-2.67106 1.71307 1.8609 -2.71596 1.72011 1.88147 -2.7611 1.72664 1.9017 
-2.80647 1.73264 1.92158 -2.85207 1.73811 1.94111 -2.89791 1.74307 1.96029 
-2.94399 1.74751 1.9791 -2.99031 1.75142 1.99754 -3.03685 1.75481 2.01561 
-3.08361 1.75766 2.03332 -3.13057 1.75997 2.05066 -3.17772 1.76173 2.06764 
-3.22504 1.76294 2.08426 -3.27252 1.76358 2.10052 -3.32014 1.76365 2.11643 
-3.36789 1.76313 2.13197 -3.41575 1.76204 2.14717 -3.46372 1.76034 2.16201 
-3.51177 1.75804 2.1765 -3.5599 1.75514 2.19064 -3.60808 1.75161 2.20443 
-3.65631 1.74747 2.21788 -3.70457 1.74268 2.23098 -3.75284 1.73726 2.24374 
-3.80112 1.73119 2.25616 -3.84938 1.72447 2.26824 -3.89762 1.71708 2.27999 
-3.94582 1.70903 2.2914 -3.99397 1.7003 2.30249 -4.04205 1.69091 2.31327 
-4.09005 1.68087 2.32376 -4.13797 1.67017 2.33399 -4.1858 1.65882 2.34397 
-4.23351 1.64683 2.35371 -4.28111 1.63421 2.36325 -4.32858 1.62095 2.37258 
-4.37591 1.60707 2.38174 -4.42308 1.59257 2.39073 -4.47009 1.57746 2.39959 
-4.51693 1.56174 2.40832 -4.56358 1.54541 2.41695 -4.61004 1.52849 2.42549 
-4.65629 1.51098 2.43396 -4.70232 1.49288 2.44238 -4.74812 1.47419 2.45077 
-4.79368 1.45493 2.45914 -4.83899 1.43511 2.46751 -4.88404 1.41471 2.47591 
-4.92882 1.39376 2.48434 -4.97332 1.37227 2.49282 -5.01755 1.35024 2.50136 
-5.06149 1.32768 2.50998 -5.10515 1.30461 2.51867 -5.14852 1.28104 2.52746 
-5.19159 1.25698 2.53636 -5.23437 1.23244 2.54537 -5.27684 1.20743 2.55451 
-5.31901 1.18195 2.56379 -5.36088 1.15604 2.57323 -5.40242 1.12968 2.58283 
-5.44365 1.1029 2.5926 -5.48456 1.0757 2.60256 -5.52515 1.0481 2.61272 
-5.5654 1.02011 2.62309 -5.60533 0.991731 2.63367 -5.64491 0.962983 2.6445 
-5.68416 0.933875 2.65556 -5.72306 0.904418 2.66688 -5.76162 0.87462 2.67847 
-5.79983 0.844493 2.69031 -5.8377 0.814043 2.70242 -5.87523 0.78328 2.71477 
-5.91243 0.752212 2.72737 -5.9493 0.720847 2.74022 -5.98584 0.689195 2.7533 
-6.02205 0.657263 2.76662 -6.05795 0.625059 2.78017 -6.09352 0.592594 2.79395 
-6.12878 0.559874 2.80795 -6.16372 0.526909 2.82217 -6.19836 0.493707 2.8366 
-6.23269 0.460276 2.85125 -6.26671 0.426626 2.86609 -6.30044 0.392764 2.88114 
-6.33387 0.358699 2.89639 -6.36701 0.32444 2.91183 -6.39985 0.289995 2.92745 
-6.43241 0.255372 2.94326 -6.46468 0.220579 2.95925 -6.49668 0.18562 2.97541 
-6.5284 0.150494 2.99173 -6.55985 0.115203 3.0082 -6.59104 0.0797472 3.0248 
-6.62196 0.0441282 3.04153 -6.65264 0.00834663 3.05837 -6.68306 -0.0275965 3.07531 
-6.71324 -0.0637004 3.09235 -6.74318 -0.0999641 3.10947 -6.77288 -0.136387 3.12666 
-6.80236 -0.172967 3.1439 -6.83161 -0.209705 3.1612 -6.86064 -0.246598 3.17853 
-6.88945 -0.283647 3.19589 -6.91806 -0.32085 3.21326 -6.94646 -0.358206 3.23063 
-6.97466 -0.395715 3.248 -7.00267 -0.433375 3.26535 -7.03049 -0.471186 3.28267 
-7.05812 -0.509147 3.29995 -7.08557 -0.54726 3.31717 -7.11284 -0.585531 3.33431 
-7.13994 -0.623964 3.35137 -7.16687 -0.662564 3.36831 -7.19362 -0.701337 3.38512 
-7.22021 -0.740287 3.40178 -7.24663 -0.77942 3.41827 -7.2729 -0.81874 3.43458 
-7.299 -0.858253 3.45068 -7.32495 -0.897964 3.46656 -7.35075 -0.937877 3.48219 
-7.3764 -0.977997 3.49757 -7.4019 -1.01833 3.51267 -7.42726 -1.05888 3.52747 
-7.45247 -1.09965 3.54195 -7.47755 -1.14066 3.5561 -7.50249 -1.18189 3.56989 
-7.5273 -1.22336 3.58332 -7.55198 -1.26507 3.59635 -7.57653 -1.30704 3.60898 
-7.60095 -1.34925 3.62117 -7.62525 -1.3917 3.63291 -7.6494 -1.43438 3.64416 
-7.67341 -1.47729 3.6549 -7.69727 -1.52041 3.66509 -7.72098 -1.56375 3.67472 
-7.74453 -1.60728 3.68376 -7.76791 -1.65101 3.69217 -7.79113 -1.69493 3.69993 
-7.81416 -1.73902 3.70702 -7.83702 -1.78328 3.7134 -7.85968 -1.82771 3.71904 
-7.88216 -1.87229 3.72393 -7.90443 -1.91701 3.72803 -7.9265 -1.96187 3.73131 
-7.94837 -2.00687 3.73376 -7.97002 -2.05198 3.73533 -7.99145 -2.09721 3.736 
-8.01265 -2.14255 3.73575 -8.03362 -2.18799 3.73454 -8.05436 -2.23351 3.73237 
-8.07486 -2.27911 3.72923 -8.09512 -2.32477 3.72516 -8.11514 -2.37048 3.72015 
-8.13493 -2.41621 3.71424 -8.15447 -2.46195 3.70743 -8.17378 -2.50768 3.69975 
-8.19284 -2.5534 3.6912 -8.21167 -2.59908 3.68182 -8.23025 -2.64471 3.67161 
-8.24859 -2.69027 3.66058 -8.26669 -2.73574 3.64877 -8.28454 -2.78112 3.63618 
-8.30215 -2.82638 3.62282 -8.31951 -2.87152 3.60873 -8.33663 -2.9165 3.59391 
-8.3535 -2.96132 3.57838 -8.37012 -3.00596 3.56216 -8.3865 -3.05041 3.54526 
-8.40263 -3.09465 3.5277 -8.41851 -3.13866 3.5095 -8.43414 -3.18246 3.49067 
-8.44954 -3.22603 3.47125 -8.46471 -3.2694 3.45126 -8.47966 -3.31257 3.43071 
-8.49438 -3.35554 3.40964 -8.5089 -3.39832 3.38806 -8.52321 -3.44093 3.366 
-8.53732 -3.48336 3.34348 -8.55124 -3.52562 3.32053 -8.56497 -3.56772 3.29716 
-8.57852 -3.60967 3.2734 -8.5919 -3.65147 3.24928 -8.60511 -3.69314 3.22482 
-8.61816 -3.73467 3.20003 -8.63106 -3.77608 3.17495 -8.64381 -3.81736 3.14959 
-8.65642 -3.85854 3.12399 -8.6689 -3.89961 3.09816 -8.68124 -3.94058 3.07212 
-8.69346 -3.98147 3.0459 -8.70557 -4.02227 3.01952 -8.71755 -4.06299 2.99297 
-8.7294 -4.10363 2.96628 -8.74113 -4.14421 2.93944 -8.75274 -4.18473 2.91247 
-8.76421 -4.2252 2.88538 -8.77555 -4.26562 2.85816 -8.78676 -4.30599 2.83083 
-8.79783 -4.34633 2.8034 -8.80877 -4.38663 2.77588 -8.81957 -4.42692 2.74827 
-8.83023 -4.46718 2.72058 -8.84074 -4.50743 2.69282 -8.85112 -4.54767 2.665 
-8.86134 -4.58791 2.63712 -8.87142 -4.62816 2.6092 -8.88135 -4.66842 2.58123 
-8.89113 -4.70869 2.55324 -8.90076 -4.74899 2.52522 -8.91023 -4.78932 2.49719 
-8.91954 -4.82968 2.46915 -8.92868 -4.87007 2.4411 -8.93764 -4.9105 2.41304 
-8.94642 -4.95096 2.38497 -8.95499 -4.99146 2.35688 -8.96335 -5.03199 2.32878 
-8.9715 -5.07256 2.30067 -8.97941 -5.11316 2.27254 -8.98708 -5.1538 2.2444 
-8.9945 -5.19448 2.21623 -9.00166 -5.2352 2.18805 -9.00855 -5.27595 2.15986 
-9.01516 -5.31674 2.13164 -9.02147 -5.35757 2.1034 -9.02748 -5.39844 2.07514 
-9.03318 -5.43935 2.04686 -9.03856 -5.4803 2.01855 -9.04361 -5.5213 1.99023 
-9.04831 -5.56233 1.96187 -9.05266 -5.6034 1.9335 -9.05664 -5.64451 1.90509 
-9.06025 -5.68566 1.87665 -9.06347 -5.72682 1.84818 -9.06629 -5.76798 1.81966 
-9.0687 -5.80914 1.79108 -9.07067 -5.85029 1.76246 -9.07221 -5.8914 1.73376 
-9.0733 -5.93247 1.705 -9.07392 -5.97348 1.67617 -9.07407 -6.01444 1.64725 
-9.07372 -6.05531 1.61825 -9.07288 -6.09609 1.58915 -9.07152 -6.13677 1.55995 
-9.06963 -6.17733 1.53065 -9.0672 -6.21777 1.50124 -9.06422 -6.25808 1.4717 
-9.06067 -6.29823 1.44205 -9.05654 -6.33822 1.41226 -9.05182 -6.37804 1.38234 
-9.0465 -6.41767 1.35227 -9.04057 -6.4571 1.32206 -9.03402 -6.49633 1.2917 
-9.02686 -6.53534 1.26118 -9.0191 -6.57413 1.23052 -9.01075 -6.61269 1.1997 
-9.00182 -6.651 1.16874 -8.9923 -6.68907 1.13762 -8.98221 -6.72689 1.10634 
-8.97155 -6.76444 1.07492 -8.96034 -6.80172 1.04333 -8.94857 -6.83872 1.0116 
-8.93625 -6.87543 0.979708 -8.9234 -6.91184 0.947662 -8.91001 -6.94795 0.91546 
-8.8961 -6.98374 0.883101 -8.88167 -7.01922 0.850586 -8.86673 -7.05436 0.817913 
-8.85128 -7.08917 0.785082 -8.83534 -7.12363 0.752093 -8.8189 -7.15774 0.718945 
-8.80198 -7.19149 0.685638 -8.78458 -7.22488 0.652182 -8.76674 -7.25792 0.618598 
-8.74846 -7.29063 0.584904 -8.72976 -7.32302 0.551122 -8.71067 -7.3551 0.517272 
-8.6912 -7.38688 0.483374 -8.67136 -7.41838 0.449449 -8.65119 -7.44962 0.415516 
-8.63069 -7.4806 0.381597 -8.60989 -7.51133 0.347711 -8.58881 -7.54183 0.313879 
-8.56746 -7.57212 0.280121 -8.54586 -7.6022 0.246457 -8.52403 -7.6321 0.212909 
-8.50199 -7.66181 0.179495 -8.47975 -7.69135 0.146236 -8.45735 -7.72075 0.113153 
-8.43479 -7.75 0.0802664 -8.41209 -7.77913 0.0475958 -8.38928 -7.80814 0.0151616 
-8.36635 -7.83706 -0.0170335 -8.34331 -7.86588 -0.0490227 -8.32014 -7.89464 -0.0808437 
-8.29681 -7.92334 -0.112534 -8.27333 -7.95201 -0.144132 -8.24968 -7.98064 -0.175674 
-8.22584 -8.00927 -0.207198 -8.20181 -8.03791 -0.238742 -8.17756 -8.06656 -0.270344 
-8.15308 -8.09526 -0.30204 -8.12837 -8.124 -0.33387 -8.1034 -8.15281 -0.365869 
[...]
CELL_DATA 1
FIELD FieldData 2
Length 1 1 double
63.760943045 
Tortuosity 1 1 double
1.0442238961 
POINT_DATA 1276
SCALARS MaximumInscribedSphereRadius float
LOOKUP_TABLE default
1.116 1.116 1.116 1.116 1.116 1.116 1.116 1.116 1.116 
1.116 1.116 1.116 1.116 1.116 1.116 1.116 1.116 1.116 
1.116 1.116 1.116 1.11626 1.11837 1.12047 1.12258 1.12469 1.1268 
1.12891 1.13101 1.13312 1.13523 1.13734 1.13945 1.14156 1.14366 1.14577 
1.14788 1.14999 1.1521 1.1542 1.15631 1.159 1.16233 1.16566 1.169 
1.17233 1.17566 1.17899 1.18232 1.18565 1.18898 1.19232 1.19565 1.19898 
1.20231 1.20564 1.20897 1.2123 1.21564 1.21897 1.2223 1.22516 1.22589 
1.22663 1.22737 1.22811 1.22885 1.22959 1.23033 1.23107 1.23181 1.23255 
1.23329 1.23402 1.23476 1.2355 1.23624 1.23698 1.23772 1.23846 1.2392 
1.23994 1.2381 1.23602 1.23394 1.23185 1.22977 1.22769 1.22561 1.22353 
1.22145 1.21937 1.21729 1.21521 1.21313 1.21105 1.20897 1.20689 1.20481 
1.20273 1.20065 1.19857 1.1963 1.19395 1.1916 1.18924 1.18689 1.18453 
1.18218 1.17983 1.17747 1.17512 1.17277 1.17041 1.16806 1.16571 1.16335 
1.161 1.15864 1.15629 1.15394 1.15158 1.15199 1.15628 1.16056 1.16485 
1.16913 1.17342 1.1777 1.18199 1.18627 1.19056 1.19484 1.19913 1.20341 
1.2077 1.21198 1.21627 1.22055 1.22484 1.22912 1.23341 1.23847 1.24776 
1.25706 1.26635 1.27564 1.28493 1.29422 1.30352 1.31281 1.3221 1.33139 
1.34069 1.34998 1.35927 1.36856 1.37785 1.38715 1.39644 1.40573 1.41502 
1.42431 1.43598 1.44794 1.45991 1.47188 1.48384 1.49581 1.50778 1.51974 
1.53171 1.54368 1.55564 1.56761 1.57957 1.59154 1.60351 1.61547 1.62744 
1.63941 1.65137 1.66334 1.67183 1.67808 1.68433 1.69058 1.69682 1.70307 
1.70932 1.71557 1.72181 1.72806 1.73431 1.74056 1.7468 1.75305 1.7593 
1.76555 1.77179 1.77804 1.78429 1.79054 1.79386 1.79122 1.78859 1.78595 
1.78331 1.78067 1.77803 1.7754 1.77276 1.77012 1.76748 1.76484 1.76221 
1.75957 1.75693 1.75429 1.75165 1.74902 1.74638 1.74374 1.74058 1.73164 
1.72269 1.71375 1.7048 1.69586 1.68691 1.67797 1.66902 1.66007 1.65113 
1.64218 1.63324 1.62429 1.61535 1.6064 1.59746 1.58851 1.57957 1.57062 
1.56168 1.55997 1.55946 1.55894 1.55843 1.55792 1.5574 1.55689 1.55637 
1.55586 1.55535 1.55483 1.55432 1.55381 1.55329 1.55278 1.55227 1.55175 
1.55124 1.55073 1.55021 1.54583 1.53873 1.53163 1.52453 1.51742 1.51032 
1.50322 1.49611 1.48901 1.48191 1.4748 1.4677 1.4606 1.4535 1.44639 
1.43929 1.43219 1.42508 1.41798 1.41088 1.4046 1.40021 1.39582 1.39144 
1.38705 1.38266 1.37828 1.37389 1.3695 1.36512 1.36073 1.35634 1.35195 
1.34757 1.34318 1.33879 1.33441 1.33002 1.32563 1.32124 1.31715 1.3251 
1.33306 1.34102 1.34898 1.35694 1.3649 1.37285 1.38081 1.38877 1.39673 
1.40469 1.41264 1.4206 1.42856 1.43652 1.44448 1.45244 1.46039 1.46835 
1.47631 1.4751 1.47096 1.46681 1.46267 1.45852 1.45438 1.45023 1.44609 
1.44194 1.4378 1.43366 1.42951 1.42537 1.42122 1.41708 1.41293 1.40879 
1.40464 1.4005 1.39635 1.38912 1.37884 1.36856 1.35827 1.34799 1.33771 
1.32743 1.31715 1.30687 1.29659 1.28631 1.27603 1.26575 1.25547 1.24519 
1.23491 1.22463 1.21435 1.20407 1.19379 1.18393 1.17546 1.16699 1.15852 
1.15005 1.14159 1.13312 1.12465 1.11618 1.10772 1.09925 1.09078 1.08231 
1.07385 1.06538 1.05691 1.04844 1.03998 1.03151 1.02304 1.01509 1.02233 
1.02957 1.03681 1.04405 1.05129 1.05853 1.06577 1.07301 1.08025 1.08749 
1.09473 1.10197 1.10921 1.11645 1.12369 1.13093 1.13817 1.14541 1.15265 
1.15989 1.17528 1.19704 1.2188 1.24056 1.26232 1.28408 1.30584 1.3276 
1.34937 1.37113 1.39289 1.41465 1.43641 1.45817 1.47993 1.50169 1.52345 
1.54521 1.56697 1.58921 1.61174 1.63428 1.65681 1.67934 1.70187 1.7244 
1.74693 1.76946 1.79199 1.81452 1.83705 1.85958 1.88211 1.90464 1.92717 
1.9497 1.97223 1.99476 2.01729 2.03647 2.04389 2.0513 2.05871 2.06612 
2.07354 2.08095 2.08836 2.09578 2.10319 2.1106 2.11802 2.12543 2.13284 
2.14026 2.14767 2.15508 2.16249 2.16991 2.17732 2.18472 2.1871 2.18947 
2.19185 2.19423 2.19661 2.19898 2.20136 2.20374 2.20612 2.20849 2.21087 
2.21325 2.21563 2.218 2.22038 2.22276 2.22514 2.22751 2.22989 2.23227 
2.24501 2.26104 2.27706 2.29308 2.3091 2.32512 2.34114 2.35716 2.37318 
2.3892 2.40522 2.42124 2.43726 2.45328 2.4693 2.48532 2.50134 2.51736 
2.53338 2.5494 2.55765 2.55786 2.55808 2.5583 2.55852 2.55874 2.55895 
2.55917 2.55939 2.55961 2.55982 2.56004 2.56026 2.56048 2.56069 2.56091 
2.56113 2.56135 2.56156 2.56178 2.55443 2.52154 2.48865 2.45576 2.42287 
2.38998 2.35709 2.3242 2.29131 2.25842 2.22553 2.19264 2.15975 2.12686 
2.09397 2.06109 2.0282 1.99531 1.96242 1.92953 1.89762 1.90646 1.91529 
1.92413 1.93297 1.9418 1.95064 1.95948 1.96832 1.97715 1.98599 1.99483 
2.00367 2.0125 2.02134 2.03018 2.03902 2.04785 2.05669 2.06553 2.06856 
2.06134 2.05412 2.0469 2.03969 2.03247 2.02525 2.01803 2.01081 2.00359 
1.99637 1.98915 1.98194 1.97472 1.9675 1.96028 1.95306 1.94584 1.93862 
1.93141 1.92489 1.92224 1.91958 1.91693 1.91427 1.91162 1.90896 1.9063 
1.90365 1.90099 1.89834 1.89568 1.89303 1.89037 1.88772 1.88506 1.88241 
1.87975 1.8771 1.87444 1.87179 1.87569 1.88016 1.88462 1.88909 1.89356 
1.89802 1.90249 1.90695 1.91142 1.91588 1.92035 1.92481 1.92928 1.93374 
1.93821 1.94267 1.94714 1.95161 1.95607 1.96054 1.97301 1.98964 2.00626 
2.02289 2.03951 2.05614 2.07276 2.08939 2.10602 2.12264 2.13927 2.15589 
2.17252 2.18914 2.20577 2.22239 2.23902 2.25564 2.27227 2.28889 2.30252 
2.31136 2.32021 2.32905 2.3379 2.34674 2.35559 2.36443 2.37328 2.38212 
2.39097 2.39981 2.40866 2.4175 2.42635 2.43519 2.44404 2.45288 2.46173 
2.47058 2.47835 2.47763 2.47691 2.47619 2.47547 2.47475 2.47403 2.47331 
2.47258 2.47186 2.47114 2.47042 2.4697 2.46898 2.46826 2.46754 2.46682 
2.4661 2.46538 2.46466 2.46394 2.45723 2.44936 2.44148 2.43361 2.42573 
2.41785 2.40998 2.4021 2.39423 2.38635 2.37848 2.3706 2.36273 2.35485 
2.34698 2.3391 2.33123 2.32335 2.31548 2.3076 2.29875 2.28912 2.27949 
2.26986 2.26023 2.2506 2.24097 2.23134 2.22171 2.21208 2.20245 2.19282 
2.18319 2.17356 2.16393 2.1543 2.14467 2.13504 2.12541 2.11578 2.10609 
2.09623 2.08638 2.07653 2.06668 2.05682 2.04697 2.03712 2.02726 2.01741 
2.00756 1.99771 1.98785 1.978 1.96815 1.9583 1.94844 1.93859 1.92874 
1.91889 1.90903 1.89888 1.88873 1.87858 1.86843 1.85828 1.84813 1.83798 
1.82784 1.81769 1.80754 1.79739 1.78724 1.77709 1.76694 1.75679 1.74664 
1.73649 1.72634 1.71619 1.70604 1.70206 1.7002 1.69834 1.69648 1.69462 
1.69276 1.69091 1.68905 1.68719 1.68533 1.68347 1.68161 1.67975 1.67789 
1.67604 1.67418 1.67232 1.67046 1.6686 1.66674 1.67571 1.69583 1.71596 
1.73608 1.7562 1.77632 1.79644 1.81656 1.83668 1.85681 1.87693 1.89705 
1.91717 1.93729 1.95741 1.97753 1.99766 2.01778 2.0379 2.05802 2.07458 
2.07934 2.08411 2.08887 2.09363 2.09839 2.10315 2.10791 2.11267 2.11743 
2.12219 2.12696 2.13172 2.13648 2.14124 2.146 2.15076 2.15552 2.16028 
2.16504 2.16981 2.17025 2.1705 2.17076 2.17101 2.17127 2.17153 2.17178 
2.17204 2.17229 2.17255 2.17281 2.17306 2.17332 2.17357 2.17383 2.17408 
2.17434 2.1746 2.17485 2.17511 2.17526 2.17535 2.17545 2.17555 2.17564 
2.17574 2.17584 2.17594 2.17603 2.17613 2.17623 2.17633 2.17642 2.17652 
2.17662 2.17671 2.17681 2.17691 2.17701 2.1771 2.17391 2.16593 2.15794 
2.14996 2.14197 2.13399 2.126 2.11802 2.11003 2.10205 2.09406 2.08608 
2.0781 2.07011 2.06213 2.05414 2.04616 2.03817 2.03019 2.0222 2.01437 
2.00754 2.0007 1.99387 1.98703 1.9802 1.97337 1.96653 1.9597 1.95287 
1.94603 1.9392 1.93237 1.92553 1.9187 1.91187 1.90503 1.8982 1.89136 
1.88453 1.8777 1.87446 1.87181 1.86917 1.86652 1.86387 1.86123 1.85858 
1.85594 1.85329 1.85064 1.848 1.84535 1.84271 1.84006 1.83741 1.83477 
1.83212 1.82948 1.82683 1.82418 1.81838 1.81034 1.8023 1.79426 1.78622 
1.77818 1.77014 1.7621 1.75407 1.74603 1.73799 1.72995 1.72191 1.71387 
1.70583 1.69779 1.68975 1.68172 1.67368 1.66564 1.6587 1.65426 1.64982 
1.64539 1.64095 1.63651 1.63208 1.62764 1.6232 1.61877 1.61433 1.60989 
1.60546 1.60102 1.59658 1.59215 1.58771 1.58327 1.57884 1.5744 1.57003 
1.56916 1.56828 1.5674 1.56653 1.56565 1.56478 1.5639 1.56302 1.56215 
1.56127 1.56039 1.55952 1.55864 1.55777 1.55689 1.55601 1.55514 1.55426 
1.55339 1.55251 1.5522 1.55208 1.55197 1.55186 1.55175 1.55163 1.55152 
1.55141 1.5513 1.55119 1.55107 1.55096 1.55085 1.55074 1.55062 1.55051 
1.5504 1.55029 1.55017 1.55006 1.55177 1.55564 1.55951 1.56338 1.56724 
1.57111 1.57498 1.57885 1.58272 1.58659 1.59046 1.59433 1.5982 1.60207 
1.60594 1.60981 1.61367 1.61754 1.62141 1.62528 1.63002 1.63886 1.64769 
1.65652 1.66535 1.67418 1.68301 1.69184 1.70067 1.7095 1.71833 1.72716 
1.73599 1.74483 1.75366 1.76249 1.77132 1.78015 1.78898 1.79781 1.80664 
1.80988 1.81246 1.81505 1.81764 1.82022 1.82281 1.82539 1.82798 1.83057 
1.83315 1.83574 1.83833 1.84091 1.8435 1.84608 1.84867 1.85126 1.85384 
1.85643 1.85901 1.85828 1.85549 1.85271 1.84992 1.84714 1.84435 1.84156 
1.83878 1.83599 1.83321 1.83042 1.82764 1.82485 1.82207 1.81928 1.8165 
1.81371 1.81093 1.80814 1.80536 1.79844 1.78368 1.76892 1.75416 1.7394 
1.72464 1.70988 1.69512 1.68036 1.6656 1.65084 1.63608 1.62132 1.60656 
1.5918 1.57704 1.56228 1.54752 1.53276 1.518 1.50423 1.50189 1.49956 
1.49723 1.4949 1.49256 1.49023 1.4879 1.48557 1.48323 1.4809 1.47857 
1.47624 1.4739 1.47157 1.46924 1.46691 1.46457 1.46224 1.45991 1.45758 
1.46241 1.4687 1.47499 1.48129 1.48758 1.49387 1.50017 1.50646 1.51275 
1.51904 1.52534 1.53163 1.53792 1.54422 1.55051 1.5568 1.5631 1.56939 
1.57568 1.58198 1.5903 1.60003 1.60975 1.61947 1.6292 1.63892 1.64864 
1.65837 1.66809 1.67782 1.68754 1.69726 1.70699 1.71671 1.72644 1.73616 
1.74588 1.75561 1.76533 1.77506 1.78277 1.78664 1.79052 1.7944 1.79827 
1.80215 1.80603 1.80991 1.81378 1.81766 1.82154 1.82542 1.82929 1.83317 
1.83705 1.84092 1.8448 1.84868 1.85256 1.85643 1.86024 1.8632 1.86616 
1.86913 1.87209 1.87505 1.87801 1.88098 1.88394 1.8869 1.88987 1.89283 
1.89579 1.89875 1.90172 1.90468 1.90764 1.9106 1.91357 1.91653 1.91949 
1.93314 1.94959 1.96604 1.98249 1.99895 2.0154 2.03185 2.0483 2.06476 
2.08121 2.09766 2.11411 2.13056 2.14702 2.16347 2.17992 2.19637 2.21283 
2.22928 2.24573 2.25986 2.27161 2.28335 2.2951 2.30685 2.3186 2.33035 
2.34209 2.35384 2.36559 2.37734 2.38909 2.40083 2.41258 2.42433 2.43608 
2.44783 2.45957 2.47132 2.48307 2.48668 2.48727 2.48787 2.48846 2.48906 
2.48966 2.49025 2.49085 2.49145 2.49204 2.49264 2.49323 2.49383 2.49443 
2.49502 2.49562 2.49622 2.49681 2.49741 2.498 2.4986 
TEXTURE_COORDINATES TCoords 2 float
0 0 0.000784314 0 0.00156863 0 0.00235294 0 0.00313725 
0 0.00392157 0 0.00470588 0 0.0054902 0 0.00627451 0 
0.00705882 0 0.00784314 0 0.00862745 0 0.00941176 0 0.0101961 
0 0.0109804 0 0.0117647 0 0.012549 0 0.0133333 0 
0.0141176 0 0.014902 0 0.0156863 0 0.0164706 0 0.0172549 
0 0.0180392 0 0.0188235 0 0.0196078 0 0.0203922 0 
0.0211765 0 0.0219608 0 0.0227451 0 0.0235294 0 0.0243137 
0 0.025098 0 0.0258824 0 0.0266667 0 0.027451 0 
0.0282353 0 0.0290196 0 0.0298039 0 0.0305882 0 0.0313726 
0 0.0321569 0 0.0329412 0 0.0337255 0 0.0345098 0 
0.0352941 0 0.0360784 0 0.0368627 0 0.0376471 0 0.0384314 
0 0.0392157 0 0.04 0 0.0407843 0 0.0415686 0 
0.0423529 0 0.0431373 0 0.0439216 0 0.0447059 0 0.0454902 
0 0.0462745 0 0.0470588 0 0.0478431 0 0.0486275 0 
0.0494118 0 0.0501961 0 0.0509804 0 0.0517647 0 0.052549 
0 0.0533333 0 0.0541176 0 0.054902 0 0.0556863 0 
0.0564706 0 0.0572549 0 0.0580392 0 0.0588235 0 0.0596078 
0 0.0603922 0 0.0611765 0 0.0619608 0 0.0627451 0 
0.0635294 0 0.0643137 0 0.065098 0 0.0658824 0 0.0666667 
0 0.067451 0 0.0682353 0 0.0690196 0 0.0698039 0 
0.0705882 0 0.0713725 0 0.0721569 0 0.0729412 0 0.0737255 
0 0.0745098 0 0.0752941 0 0.0760784 0 0.0768627 0 
0.0776471 0 0.0784314 0 0.0792157 0 0.08 0 0.0807843 
0 0.0815686 0 0.0823529 0 0.0831373 0 0.0839216 0 
0.0847059 0 0.0854902 0 0.0862745 0 0.0870588 0 0.0878431 
0 0.0886275 0 0.0894118 0 0.0901961 0 0.0909804 0 
0.0917647 0 0.092549 0 0.0933333 0 0.0941176 0 0.094902 
0 0.0956863 0 0.0964706 0 0.0972549 0 0.0980392 0 
0.0988235 0 0.0996078 0 0.100392 0 0.101176 0 0.101961 
0 0.102745 0 0.103529 0 0.104314 0 0.105098 0 
0.105882 0 0.106667 0 0.107451 0 0.108235 0 0.10902 
0 0.109804 0 0.110588 0 0.111373 0 0.112157 0 
0.112941 0 0.113725 0 0.11451 0 0.115294 0 0.116078 
0 0.116863 0 0.117647 0 0.118431 0 0.119216 0 
0.12 0 0.120784 0 0.121569 0 0.122353 0 0.123137 
0 0.123922 0 0.124706 0 0.12549 0 0.126275 0 
0.127059 0 0.127843 0 0.128627 0 0.129412 0 0.130196 
0 0.13098 0 0.131765 0 0.132549 0 0.133333 0 
0.134118 0 0.134902 0 0.135686 0 0.136471 0 0.137255 
0 0.138039 0 0.138824 0 0.139608 0 0.140392 0 
0.141176 0 0.141961 0 0.142745 0 0.143529 0 0.144314 
0 0.145098 0 0.145882 0 0.146667 0 0.147451 0 
0.148235 0 0.14902 0 0.149804 0 0.150588 0 0.151373 
0 0.152157 0 0.152941 0 0.153725 0 0.15451 0 
0.155294 0 0.156078 0 0.156863 0 0.157647 0 0.158431 
0 0.159216 0 0.16 0 0.160784 0 0.161569 0 
0.162353 0 0.163137 0 0.163922 0 0.164706 0 0.16549 
0 0.166275 0 0.167059 0 0.167843 0 0.168627 0 
0.169412 0 0.170196 0 0.17098 0 0.171765 0 0.172549 
0 0.173333 0 0.174118 0 0.174902 0 0.175686 0 
0.176471 0 0.177255 0 0.178039 0 0.178824 0 0.179608 
0 0.180392 0 0.181176 0 0.181961 0 0.182745 0 
0.183529 0 0.184314 0 0.185098 0 0.185882 0 0.186667 
0 0.187451 0 0.188235 0 0.18902 0 0.189804 0 
0.190588 0 0.191373 0 0.192157 0 0.192941 0 0.193725 
0 0.19451 0 0.195294 0 0.196078 0 0.196863 0 
0.197647 0 0.198431 0 0.199216 0 0.2 0 0.200784 
0 0.201569 0 0.202353 0 0.203137 0 0.203922 0 
0.204706 0 0.20549 0 0.206275 0 0.207059 0 0.207843 
0 0.208627 0 0.209412 0 0.210196 0 0.21098 0 
0.211765 0 0.212549 0 0.213333 0 0.214118 0 0.214902 
0 0.215686 0 0.216471 0 0.217255 0 0.218039 0 
0.218824 0 0.219608 0 0.220392 0 0.221176 0 0.221961 
0 0.222745 0 0.223529 0 0.224314 0 0.225098 0 
0.225882 0 0.226667 0 0.227451 0 0.228235 0 0.22902 
0 0.229804 0 0.230588 0 0.231373 0 0.232157 0 
0.232941 0 0.233725 0 0.23451 0 0.235294 0 0.236078 
0 0.236863 0 0.237647 0 0.238431 0 0.239216 0 
0.24 0 0.240784 0 0.241569 0 0.242353 0 0.243137 
0 0.243922 0 0.244706 0 0.24549 0 0.246275 0 
0.247059 0 0.247843 0 0.248627 0 0.249412 0 0.250196 
0 0.25098 0 0.251765 0 0.252549 0 0.253333 0 
0.254118 0 0.254902 0 0.255686 0 0.256471 0 0.257255 
0 0.258039 0 0.258824 0 0.259608 0 0.260392 0 
0.261176 0 0.261961 0 0.262745 0 0.263529 0 0.264314 
0 0.265098 0 0.265882 0 0.266667 0 0.267451 0 
0.268235 0 0.26902 0 0.269804 0 0.270588 0 0.271373 
0 0.272157 0 0.272941 0 0.273725 0 0.27451 0 
0.275294 0 0.276078 0 0.276863 0 0.277647 0 0.278431 
0 0.279216 0 0.28 0 0.280784 0 0.281569 0 
0.282353 0 0.283137 0 0.283922 0 0.284706 0 0.28549 
0 0.286275 0 0.287059 0 0.287843 0 0.288627 0 
0.289412 0 0.290196 0 0.29098 0 0.291765 0 0.292549 
0 0.293333 0 0.294118 0 0.294902 0 0.295686 0 
0.296471 0 0.297255 0 0.298039 0 0.298824 0 0.299608 
0 0.300392 0 0.301176 0 0.301961 0 0.302745 0 
0.303529 0 0.304314 0 0.305098 0 0.305882 0 0.306667 
0 0.307451 0 0.308235 0 0.30902 0 0.309804 0 
0.310588 0 0.311373 0 0.312157 0 0.312941 0 0.313726 
0 0.31451 0 0.315294 0 0.316078 0 0.316863 0 
0.317647 0 0.318431 0 0.319216 0 0.32 0 0.320784 
0 0.321569 0 0.322353 0 0.323137 0 0.323922 0 
0.324706 0 0.32549 0 0.326275 0 0.327059 0 0.327843 
0 0.328627 0 0.329412 0 0.330196 0 0.33098 0 
0.331765 0 0.332549 0 0.333333 0 0.334118 0 0.334902 
0 0.335686 0 0.336471 0 0.337255 0 0.338039 0 
0.338824 0 0.339608 0 0.340392 0 0.341176 0 0.341961 
0 0.342745 0 0.343529 0 0.344314 0 0.345098 0 
0.345882 0 0.346667 0 0.347451 0 0.348235 0 0.34902 
0 0.349804 0 0.350588 0 0.351373 0 0.352157 0 
0.352941 0 0.353725 0 0.35451 0 0.355294 0 0.356078 
0 0.356863 0 0.357647 0 0.358431 0 0.359216 0 
0.36 0 0.360784 0 0.361569 0 0.362353 0 0.363137 
0 0.363922 0 0.364706 0 0.36549 0 0.366275 0 
0.367059 0 0.367843 0 0.368627 0 0.369412 0 0.370196 
0 0.37098 0 0.371765 0 0.372549 0 0.373333 0 
0.374118 0 0.374902 0 0.375686 0 0.376471 0 0.377255 
0 0.378039 0 0.378824 0 0.379608 0 0.380392 0 
0.381176 0 0.381961 0 0.382745 0 0.383529 0 0.384314 
0 0.385098 0 0.385882 0 0.386667 0 0.387451 0 
0.388235 0 0.38902 0 0.389804 0 0.390588 0 0.391373 
0 0.392157 0 0.392941 0 0.393725 0 0.39451 0 
0.395294 0 0.396078 0 0.396863 0 0.397647 0 0.398431 
0 0.399216 0 0.4 0 0.400784 0 0.401569 0 
0.402353 0 0.403137 0 0.403922 0 0.404706 0 0.40549 
0 0.406274 0 0.407059 0 0.407843 0 0.408627 0 
0.409412 0 0.410196 0 0.41098 0 0.411765 0 0.412549 
0 0.413333 0 0.414118 0 0.414902 0 0.415686 0 
0.416471 0 0.417255 0 0.418039 0 0.418824 0 0.419608 
0 0.420392 0 0.421176 0 0.421961 0 0.422745 0 
0.423529 0 0.424314 0 0.425098 0 0.425882 0 0.426667 
0 0.427451 0 0.428235 0 0.42902 0 0.429804 0 
0.430588 0 0.431373 0 0.432157 0 0.432941 0 0.433725 
0 0.43451 0 0.435294 0 0.436078 0 0.436863 0 
0.437647 0 0.438431 0 0.439216 0 0.44 0 0.440784 
0 0.441569 0 0.442353 0 0.443137 0 0.443922 0 
0.444706 0 0.44549 0 0.446275 0 0.447059 0 0.447843 
0 0.448627 0 0.449412 0 0.450196 0 0.45098 0 
0.451765 0 0.452549 0 0.453333 0 0.454118 0 0.454902 
0 0.455686 0 0.456471 0 0.457255 0 0.458039 0 
0.458824 0 0.459608 0 0.460392 0 0.461176 0 0.461961 
0 0.462745 0 0.463529 0 0.464314 0 0.465098 0 
0.465882 0 0.466667 0 0.467451 0 0.468235 0 0.46902 
0 0.469804 0 0.470588 0 0.471373 0 0.472157 0 
0.472941 0 0.473725 0 0.47451 0 0.475294 0 0.476078 
0 0.476863 0 0.477647 0 0.478431 0 0.479216 0 
0.48 0 0.480784 0 0.481569 0 0.482353 0 0.483137 
0 0.483922 0 0.484706 0 0.48549 0 0.486275 0 
0.487059 0 0.487843 0 0.488627 0 0.489412 0 0.490196 
0 0.49098 0 0.491765 0 0.492549 0 0.493333 0 
0.494118 0 0.494902 0 0.495686 0 0.496471 0 0.497255 
0 0.498039 0 0.498824 0 0.499608 0 0.500392 0 
0.501176 0 0.501961 0 0.502745 0 0.503529 0 0.504314 
0 0.505098 0 0.505882 0 0.506667 0 0.507451 0 
0.508235 0 0.50902 0 0.509804 0 0.510588 0 0.511373 
0 0.512157 0 0.512941 0 0.513726 0 0.51451 0 
0.515294 0 0.516078 0 0.516863 0 0.517647 0 0.518431 
0 0.519216 0 0.52 0 0.520784 0 0.521569 0 
0.522353 0 0.523137 0 0.523922 0 0.524706 0 0.52549 
0 0.526275 0 0.527059 0 0.527843 0 0.528627 0 
0.529412 0 0.530196 0 0.53098 0 0.531765 0 0.532549 
0 0.533333 0 0.534118 0 0.534902 0 0.535686 0 
0.536471 0 0.537255 0 0.538039 0 0.538824 0 0.539608 
0 0.540392 0 0.541176 0 0.541961 0 0.542745 0 
0.543529 0 0.544314 0 0.545098 0 0.545882 0 0.546667 
0 0.547451 0 0.548235 0 0.54902 0 0.549804 0 
0.550588 0 0.551373 0 0.552157 0 0.552941 0 0.553725 
0 0.55451 0 0.555294 0 0.556078 0 0.556863 0 
0.557647 0 0.558431 0 0.559216 0 0.56 0 0.560784 
0 0.561569 0 0.562353 0 0.563137 0 0.563922 0 
0.564706 0 0.56549 0 0.566275 0 0.567059 0 0.567843 
0 0.568627 0 0.569412 0 0.570196 0 0.57098 0 
0.571765 0 0.572549 0 0.573333 0 0.574118 0 0.574902 
0 0.575686 0 0.576471 0 0.577255 0 0.578039 0 
0.578824 0 0.579608 0 0.580392 0 0.581176 0 0.581961 
0 0.582745 0 0.583529 0 0.584314 0 0.585098 0 
0.585882 0 0.586667 0 0.587451 0 0.588235 0 0.58902 
0 0.589804 0 0.590588 0 0.591373 0 0.592157 0 
0.592941 0 0.593726 0 0.59451 0 0.595294 0 0.596078 
0 0.596863 0 0.597647 0 0.598431 0 0.599216 0 
0.6 0 0.600784 0 0.601569 0 0.602353 0 0.603137 
0 0.603922 0 0.604706 0 0.60549 0 0.606274 0 
0.607059 0 0.607843 0 0.608627 0 0.609412 0 0.610196 
0 0.61098 0 0.611765 0 0.612549 0 0.613333 0 
0.614118 0 0.614902 0 0.615686 0 0.616471 0 0.617255 
0 0.618039 0 0.618824 0 0.619608 0 0.620392 0 
0.621176 0 0.621961 0 0.622745 0 0.623529 0 0.624314 
0 0.625098 0 0.625882 0 0.626667 0 0.627451 0 
0.628235 0 0.62902 0 0.629804 0 0.630588 0 0.631373 
0 0.632157 0 0.632941 0 0.633725 0 0.63451 0 
0.635294 0 0.636078 0 0.636863 0 0.637647 0 0.638431 
0 0.639216 0 0.64 0 0.640784 0 0.641569 0 
0.642353 0 0.643137 0 0.643922 0 0.644706 0 0.64549 
0 0.646275 0 0.647059 0 0.647843 0 0.648627 0 
0.649412 0 0.650196 0 0.65098 0 0.651765 0 0.652549 
0 0.653333 0 0.654118 0 0.654902 0 0.655686 0 
0.656471 0 0.657255 0 0.658039 0 0.658824 0 0.659608 
0 0.660392 0 0.661176 0 0.661961 0 0.662745 0 
0.663529 0 0.664314 0 0.665098 0 0.665882 0 0.666667 
0 0.667451 0 0.668235 0 0.66902 0 0.669804 0 