# vtk DataFile Version 4.2
vtk output
ASCII
DATASET POLYDATA
POINTS 1278 float
0 0 0 -0.00331375 0.000428483 0.00234096 -0.0129855 0.00167915 0.00916043 
-0.028611 0.00369984 0.0201533 -0.0497861 0.00643838 0.0350143 -0.0761065 0.0098426 0.0534384 
-0.107168 0.0138603 0.0751205 -0.142566 0.0184394 0.0997554 -0.181897 0.0235277 0.127038 
-0.224756 0.0290729 0.156663 -0.27074 0.035023 0.188326 -0.319443 0.0413258 0.22172 
-0.370462 0.0479291 0.256542 -0.423393 0.0547807 0.292486 -0.47783 0.0618284 0.329247 
-0.533371 0.0690202 0.366519 -0.58961 0.0763038 0.403998 -0.646144 0.0836271 0.441378 
-0.702568 0.0909378 0.478355 -0.758478 0.0981839 0.514622 -0.81347 0.105313 0.549876 
-0.867139 0.112273 0.583811 -0.919187 0.119025 0.616202 -0.969656 0.12557 0.647091 
-1.01866 0.131919 0.676576 -1.06632 0.138083 0.704752 -1.11274 0.144073 0.731715 
-1.15805 0.149898 0.757563 -1.20235 0.15557 0.782392 -1.24576 0.161099 0.806298 
-1.28839 0.166496 0.829378 -1.33037 0.171771 0.851728 -1.3718 0.176936 0.873445 
-1.4128 0.182 0.894626 -1.45349 0.186974 0.915366 -1.49397 0.191869 0.935762 
-1.53437 0.196695 0.955911 -1.5748 0.201464 0.97591 -1.61537 0.206185 0.995854 
-1.65619 0.21087 1.01584 -1.69739 0.215528 1.03597 -1.73908 0.22017 1.05632 
-1.78127 0.224797 1.07693 -1.82395 0.229402 1.09777 -1.86709 0.23398 1.11882 
-1.91065 0.238523 1.14005 -1.95461 0.243027 1.16143 -1.99894 0.247484 1.18295 
-2.04361 0.251888 1.20457 -2.08859 0.256234 1.22628 -2.13385 0.260515 1.24804 
-2.17938 0.264726 1.26983 -2.22512 0.268858 1.29163 -2.27107 0.272908 1.31342 
-2.31718 0.276868 1.33516 -2.36343 0.280732 1.35683 -2.4098 0.284494 1.37841 
-2.45625 0.288148 1.39987 -2.50275 0.291688 1.42119 -2.54928 0.295108 1.44235 
-2.5958 0.2984 1.46331 -2.64229 0.30156 1.48405 -2.68873 0.304582 1.50457 
-2.73512 0.307462 1.52485 -2.78147 0.310197 1.5449 -2.82779 0.312785 1.56475 
-2.87407 0.315222 1.58438 -2.92033 0.317506 1.60381 -2.96658 0.319634 1.62304 
-3.01282 0.321602 1.64209 -3.05905 0.323409 1.66096 -3.10529 0.325049 1.67965 
-3.15155 0.326522 1.69818 -3.19782 0.327824 1.71655 -3.24412 0.328951 1.73476 
-3.29045 0.329901 1.75283 -3.33681 0.330672 1.77076 -3.38323 0.331259 1.78856 
-3.42969 0.331661 1.80624 -3.47622 0.331873 1.8238 -3.52281 0.331894 1.84125 
-3.56947 0.33172 1.8586 -3.61622 0.331348 1.87586 -3.66304 0.330772 1.89301 
-3.70993 0.329986 1.91007 -3.75689 0.328984 1.92702 -3.80392 0.32776 1.94386 
-3.85102 0.326308 1.96059 -3.89817 0.32462 1.97721 -3.94538 0.322691 1.99371 
-3.99264 0.320515 2.01009 -4.03995 0.318085 2.02634 -4.08731 0.315395 2.04247 
-4.1347 0.312439 2.05847 -4.18214 0.30921 2.07433 -4.22961 0.305703 2.09005 
-4.27711 0.30191 2.10563 -4.32464 0.297827 2.12107 -4.37219 0.293445 2.13636 
-4.41977 0.288761 2.1515 -4.46736 0.283766 2.16649 -4.51496 0.278454 2.18131 
-4.56258 0.27282 2.19598 -4.6102 0.266856 2.21048 -4.65782 0.260554 2.22482 
-4.70544 0.253905 2.23898 -4.75305 0.246902 2.25298 -4.80065 0.239535 2.26681 
-4.84823 0.231796 2.28046 -4.89579 0.223678 2.29393 -4.94333 0.215172 2.30723 
-4.99084 0.20627 2.32035 -5.03832 0.196963 2.33328 -5.08576 0.187244 2.34603 
-5.13315 0.177103 2.35859 -5.1805 0.166533 2.37097 -5.2278 0.155525 2.38315 
-5.27505 0.144072 2.39514 -5.32223 0.132164 2.40694 -5.36935 0.119794 2.41853 
-5.4164 0.106953 2.42993 -5.46338 0.0936326 2.44113 -5.51028 0.0798253 2.45213 
-5.5571 0.0655242 2.46292 -5.60382 0.0507256 2.4735 -5.65045 0.0354261 2.48387 
-5.69695 0.0196224 2.49403 -5.74334 0.00331082 2.50398 -5.78959 -0.0135119 2.5137 
-5.8357 -0.0308493 2.52321 -5.88166 -0.0487047 2.5325 -5.92745 -0.0670816 2.54155 
-5.97308 -0.0859834 2.55039 -6.01851 -0.105414 2.55899 -6.06376 -0.125376 2.56736 
-6.1088 -0.145873 2.57549 -6.15363 -0.166909 2.58339 -6.19824 -0.188487 2.59104 
-6.24262 -0.210611 2.59846 -6.28675 -0.233283 2.60563 -6.33063 -0.256508 2.61255 
-6.37425 -0.280289 2.61922 -6.4176 -0.304629 2.62564 -6.46066 -0.329529 2.63181 
-6.50344 -0.354982 2.63772 -6.54594 -0.380979 2.64338 -6.58813 -0.407509 2.64879 
-6.63003 -0.434563 2.65396 -6.67163 -0.462133 2.65888 -6.71293 -0.490209 2.66355 
-6.75391 -0.518782 2.66799 -6.79459 -0.547842 2.67218 -6.83494 -0.57738 2.67613 
-6.87498 -0.607386 2.67985 -6.91469 -0.637852 2.68333 -6.95408 -0.668768 2.68657 
-6.99313 -0.700125 2.68959 -7.03185 -0.731912 2.69237 -7.07023 -0.764122 2.69493 
-7.10826 -0.796745 2.69726 -7.14595 -0.829771 2.69936 -7.18329 -0.863191 2.70124 
-7.22027 -0.896995 2.7029 -7.2569 -0.931175 2.70433 -7.29317 -0.96572 2.70556 
-7.3291 -1.00062 2.70656 -7.36468 -1.03586 2.70736 -7.39992 -1.07144 2.70795 
-7.43484 -1.10734 2.70833 -7.46944 -1.14355 2.70852 -7.50371 -1.18006 2.7085 
-7.53768 -1.21687 2.7083 -7.57134 -1.25395 2.7079 -7.60471 -1.29131 2.70731 
-7.63778 -1.32892 2.70654 -7.67057 -1.36678 2.70559 -7.70308 -1.40489 2.70446 
-7.73531 -1.44322 2.70315 -7.76728 -1.48176 2.70168 -7.79899 -1.52052 2.70003 
-7.83044 -1.55946 2.69822 -7.86164 -1.5986 2.69625 -7.89261 -1.63791 2.69412 
-7.92334 -1.67738 2.69183 -7.95383 -1.71701 2.68939 -7.98411 -1.75679 2.6868 
-8.01418 -1.79672 2.68406 -8.04403 -1.83678 2.68117 -8.07369 -1.87698 2.67814 
-8.10316 -1.9173 2.67496 -8.13244 -1.95774 2.67163 -8.16155 -1.99829 2.66816 
-8.19049 -2.03895 2.66455 -8.21926 -2.07972 2.6608 -8.24788 -2.12058 2.65691 
-8.27636 -2.16153 2.65288 -8.30469 -2.20256 2.64872 -8.33289 -2.24367 2.64443 
-8.36097 -2.28485 2.64 -8.38893 -2.3261 2.63544 -8.41678 -2.36741 2.63075 
-8.44453 -2.40877 2.62593 -8.47219 -2.45018 2.62099 -8.49976 -2.49163 2.61592 
-8.52724 -2.53311 2.61072 -8.55466 -2.57463 2.6054 -8.582 -2.61617 2.59996 
-8.60928 -2.65774 2.59439 -8.63651 -2.69932 2.58869 -8.66369 -2.74092 2.58286 
-8.69082 -2.78253 2.5769 -8.71792 -2.82414 2.57081 -8.74498 -2.86576 2.5646 
-8.77203 -2.90737 2.55825 -8.79905 -2.94897 2.55177 -8.82605 -2.99056 2.54516 
-8.85306 -3.03214 2.53841 -8.88006 -3.07369 2.53154 -8.90706 -3.11522 2.52452 
-8.93408 -3.15672 2.51737 -8.96111 -3.19818 2.51009 -8.98817 -3.2396 2.50267 
-9.01526 -3.28099 2.49511 -9.04239 -3.32232 2.48741 -9.06955 -3.36361 2.47958 
-9.09676 -3.40484 2.4716 -9.12403 -3.446 2.46348 -9.15134 -3.48711 2.45521 
-9.17872 -3.52814 2.44678 -9.20616 -3.5691 2.43821 -9.23367 -3.60998 2.42948 
-9.26125 -3.65077 2.42059 -9.2889 -3.69148 2.41154 -9.31664 -3.7321 2.40232 
-9.34445 -3.77262 2.39293 -9.37236 -3.81304 2.38337 -9.40036 -3.85335 2.37364 
-9.42846 -3.89355 2.36373 -9.45666 -3.93364 2.35364 -9.48496 -3.97361 2.34337 
-9.51337 -4.01345 2.33291 -9.5419 -4.05316 2.32226 -9.57055 -4.09274 2.31142 
-9.59931 -4.13219 2.30038 -9.62821 -4.17149 2.28915 -9.65723 -4.21064 2.27772 
-9.68638 -4.24964 2.26608 -9.71566 -4.28848 2.25422 -9.74507 -4.32716 2.24215 
-9.77461 -4.36567 2.22986 -9.80429 -4.40401 2.21734 -9.83409 -4.44216 2.20459 
-9.86403 -4.48014 2.1916 -9.8941 -4.51792 2.17838 -9.9243 -4.5555 2.1649 
-9.95464 -4.59289 2.15118 -9.98511 -4.63007 2.1372 -10.0157 -4.66704 2.12296 
-10.0465 -4.70379 2.10845 -10.0773 -4.74032 2.09368 -10.1084 -4.77662 2.07863 
-10.1395 -4.81269 2.0633 -10.1708 -4.84852 2.04768 -10.2022 -4.8841 2.03177 
-10.2338 -4.91944 2.01557 -10.2655 -4.95453 1.99907 -10.2974 -4.98936 1.98227 
-10.3293 -5.02392 1.96516 -10.3614 -5.05822 1.94774 -10.3937 -5.09225 1.93 
-10.426 -5.126 1.91194 -10.4584 -5.15947 1.89356 -10.491 -5.19267 1.87485 
-10.5236 -5.22557 1.8558 -10.5563 -5.25818 1.83642 -10.5891 -5.2905 1.8167 
-10.622 -5.32251 1.79664 -10.655 -5.35422 1.77622 -10.688 -5.38563 1.75546 
-10.7212 -5.41672 1.73433 -10.7543 -5.44749 1.71285 -10.7876 -5.47794 1.691 
-10.8209 -5.50807 1.66878 -10.8542 -5.53786 1.64618 -10.8876 -5.56733 1.62321 
-10.921 -5.59645 1.59985 -10.9544 -5.62524 1.57612 -10.9879 -5.65369 1.552 
-11.0213 -5.68181 1.5275 -11.0548 -5.70959 1.50262 -11.0883 -5.73704 1.47736 
-11.1217 -5.76415 1.45172 -11.1552 -5.79094 1.42569 -11.1885 -5.81739 1.39928 
-11.2219 -5.84351 1.37249 -11.2552 -5.8693 1.34532 -11.2884 -5.89476 1.31777 
-11.3216 -5.91989 1.28983 -11.3547 -5.9447 1.26152 -11.3877 -5.96917 1.23282 
-11.4206 -5.99333 1.20374 -11.4534 -6.01715 1.17427 -11.486 -6.04065 1.14443 
-11.5186 -6.06383 1.1142 -11.551 -6.08668 1.08359 -11.5833 -6.10921 1.0526 
-11.6155 -6.13143 1.02123 -11.6475 -6.15333 0.989478 -11.6793 -6.17492 0.957358 
-11.7109 -6.19621 0.924869 -11.7424 -6.21721 0.892014 -11.7737 -6.23791 0.858796 
-11.8048 -6.25833 0.825219 -11.8357 -6.27847 0.791286 -11.8663 -6.29833 0.757 
-11.8968 -6.31792 0.722365 -11.927 -6.33725 0.687384 -11.957 -6.35632 0.65206 
-11.9868 -6.37514 0.616397 -12.0163 -6.39371 0.580399 -12.0455 -6.41203 0.544067 
-12.0745 -6.43012 0.507406 -12.1032 -6.44797 0.47042 -12.1316 -6.4656 0.433111 
-12.1598 -6.483 0.395482 -12.1876 -6.50019 0.357538 -12.2151 -6.51717 0.319282 
-12.2424 -6.53395 0.280719 -12.2693 -6.55053 0.241855 -12.2959 -6.56691 0.202693 
-12.3221 -6.58312 0.16324 -12.3481 -6.59915 0.123499 -12.3737 -6.61501 0.0834759 
-12.399 -6.63071 0.0431755 -12.4239 -6.64625 0.00260261 -12.4485 -6.66164 -0.0382379 
-12.4728 -6.67689 -0.079341 -12.4967 -6.692 -0.120702 -12.5202 -6.70698 -0.162316 
-12.5434 -6.72184 -0.204178 -12.5662 -6.73659 -0.246283 -12.5886 -6.75123 -0.288626 
-12.6106 -6.76576 -0.331203 -12.6323 -6.7802 -0.374008 -12.6536 -6.79455 -0.417036 
-12.6744 -6.80882 -0.460284 -12.6949 -6.82301 -0.503745 -12.715 -6.83713 -0.547414 
-12.7347 -6.85119 -0.591287 -12.7539 -6.86519 -0.635357 -12.7728 -6.87913 -0.679621 
-12.7913 -6.89303 -0.724072 -12.8093 -6.90688 -0.768706 -12.8269 -6.92069 -0.813516 
-12.8442 -6.93447 -0.858499 -12.8609 -6.94822 -0.903649 -12.8773 -6.96194 -0.94896 
-12.8933 -6.97565 -0.994427 -12.9088 -6.98935 -1.04005 -12.9239 -7.00304 -1.08581 
-12.9385 -7.01673 -1.13172 -12.9527 -7.03043 -1.17776 -12.9665 -7.04413 -1.22393 
-12.9799 -7.05785 -1.27022 -12.9928 -7.07158 -1.31664 -13.0052 -7.08534 -1.36317 
-13.0172 -7.09913 -1.40981 -13.0288 -7.11296 -1.45656 -13.0399 -7.12682 -1.5034 
-13.0505 -7.14072 -1.55034 -13.0607 -7.15466 -1.59736 -13.0705 -7.16865 -1.64447 
[...]
CELL_DATA 1
FIELD FieldData 2
Length 1 1 double
63.88936743 
Tortuosity 1 1 double
1.4519787891 
POINT_DATA 1278
SCALARS MaximumInscribedSphereRadius float
LOOKUP_TABLE default
0.9796 0.978395 0.977189 0.975984 0.974779 0.973574 0.972368 0.971163 0.969958 
0.968753 0.967547 0.966342 0.965137 0.963932 0.962726 0.961521 0.960316 0.959111 
0.957905 0.9567 0.955495 0.95486 0.962405 0.96995 0.977495 0.985041 0.992586 
1.00013 1.00768 1.01522 1.02277 1.03031 1.03786 1.0454 1.05295 1.06049 
1.06804 1.07558 1.08313 1.09067 1.09822 1.11201 1.12955 1.14709 1.16463 
1.18216 1.1997 1.21724 1.23478 1.25232 1.26986 1.2874 1.30493 1.32247 
1.34001 1.35755 1.37509 1.39263 1.41017 1.42771 1.44524 1.46113 1.46552 
1.46992 1.47432 1.47872 1.48312 1.48752 1.49192 1.49632 1.50072 1.50512 
1.50952 1.51392 1.51832 1.52272 1.52712 1.53152 1.53592 1.54032 1.54472 
1.54912 1.54855 1.54729 1.54602 1.54476 1.5435 1.54223 1.54097 1.53971 
1.53844 1.53718 1.53592 1.53465 1.53339 1.53213 1.53086 1.5296 1.52834 
1.52707 1.52581 1.52455 1.51861 1.50955 1.50049 1.49144 1.48238 1.47332 
1.46426 1.4552 1.44614 1.43708 1.42802 1.41897 1.40991 1.40085 1.39179 
1.38273 1.37367 1.36461 1.35556 1.3465 1.3388 1.33395 1.32909 1.32424 
1.31938 1.31453 1.30968 1.30482 1.29997 1.29511 1.29026 1.2854 1.28055 
1.27569 1.27084 1.26598 1.26113 1.25627 1.25142 1.24656 1.24212 1.24387 
1.24562 1.24737 1.24913 1.25088 1.25263 1.25438 1.25613 1.25788 1.25963 
1.26139 1.26314 1.26489 1.26664 1.26839 1.27014 1.2719 1.27365 1.2754 
1.27715 1.2918 1.30966 1.32752 1.34538 1.36324 1.3811 1.39896 1.41682 
1.43468 1.45254 1.4704 1.48826 1.50612 1.52398 1.54184 1.5597 1.57756 
1.59542 1.61328 1.63114 1.64496 1.65517 1.66539 1.6756 1.68581 1.69602 
1.70624 1.71645 1.72666 1.73687 1.74709 1.7573 1.76751 1.77772 1.78793 
1.79815 1.80836 1.81857 1.82878 1.839 1.84614 1.84402 1.84191 1.83979 
1.83767 1.83555 1.83343 1.83131 1.82919 1.82707 1.82496 1.82284 1.82072 
1.8186 1.81648 1.81436 1.81224 1.81013 1.80801 1.80589 1.80377 1.79314 
1.78223 1.77131 1.7604 1.74948 1.73857 1.72765 1.71674 1.70582 1.69491 
1.68399 1.67308 1.66216 1.65125 1.64033 1.62942 1.6185 1.60759 1.59667 
1.58576 1.5755 1.56554 1.55558 1.54562 1.53565 1.52569 1.51573 1.50577 
1.49581 1.48585 1.47589 1.46593 1.45597 1.44601 1.43604 1.42608 1.41612 
1.40616 1.3962 1.38624 1.39099 1.41677 1.44254 1.46831 1.49408 1.51985 
1.54562 1.5714 1.59717 1.62294 1.64871 1.67448 1.70026 1.72603 1.7518 
1.77757 1.80334 1.82911 1.85489 1.88066 1.90256 1.9006 1.89865 1.8967 
1.89475 1.8928 1.89084 1.88889 1.88694 1.88499 1.88303 1.88108 1.87913 
1.87718 1.87523 1.87327 1.87132 1.86937 1.86742 1.86546 1.86351 1.84683 
1.82797 1.80911 1.79025 1.7714 1.75254 1.73368 1.71482 1.69596 1.6771 
1.65824 1.63939 1.62053 1.60167 1.58281 1.56395 1.54509 1.52623 1.50738 
1.48852 1.49312 1.5133 1.53348 1.55367 1.57385 1.59403 1.61422 1.6344 
1.65458 1.67477 1.69495 1.71513 1.73532 1.7555 1.77568 1.79587 1.81605 
1.83623 1.85642 1.8766 1.89154 1.89578 1.90002 1.90426 1.9085 1.91274 
1.91698 1.92122 1.92546 1.9297 1.93395 1.93819 1.94243 1.94667 1.95091 
1.95515 1.95939 1.96363 1.96787 1.97211 1.97525 1.96037 1.94548 1.9306 
1.91572 1.90083 1.88595 1.87106 1.85618 1.84129 1.82641 1.81153 1.79664 
1.78176 1.76687 1.75199 1.7371 1.72222 1.70733 1.69245 1.67757 1.67589 
1.6778 1.67972 1.68163 1.68355 1.68546 1.68738 1.68929 1.69121 1.69312 
1.69504 1.69695 1.69887 1.70078 1.7027 1.70461 1.70653 1.70844 1.71036 
1.71227 1.71887 1.72988 1.74089 1.7519 1.76291 1.77393 1.78494 1.79595 
1.80696 1.81797 1.82898 1.83999 1.851 1.86202 1.87303 1.88404 1.89505 
1.90606 1.91707 1.92808 1.94052 1.95736 1.9742 1.99105 2.00789 2.02473 
2.04157 2.05842 2.07526 2.0921 2.10895 2.12579 2.14263 2.15947 2.17632 
2.19316 2.21 2.22684 2.24369 2.26053 2.27737 2.27674 2.27562 2.27451 
2.27339 2.27227 2.27115 2.27004 2.26892 2.2678 2.26668 2.26557 2.26445 
2.26333 2.26221 2.2611 2.25998 2.25886 2.25774 2.25663 2.25551 2.24377 
2.22763 2.21148 2.19534 2.17919 2.16305 2.14691 2.13076 2.11462 2.09847 
2.08233 2.06619 2.05004 2.0339 2.01775 2.00161 1.98547 1.96932 1.95318 
1.93703 1.92717 1.92484 1.92252 1.9202 1.91787 1.91555 1.91323 1.9109 
1.90858 1.90626 1.90394 1.90161 1.89929 1.89697 1.89464 1.89232 1.89 
1.88767 1.88535 1.88303 1.88189 1.88443 1.88697 1.88951 1.89205 1.89459 
1.89713 1.89967 1.90221 1.90475 1.90729 1.90983 1.91238 1.91492 1.91746 
1.92 1.92254 1.92508 1.92762 1.93016 1.93214 1.92518 1.91823 1.91128 
1.90433 1.89738 1.89042 1.88347 1.87652 1.86957 1.86262 1.85566 1.84871 
1.84176 1.83481 1.82786 1.8209 1.81395 1.807 1.80005 1.7931 1.78932 
1.78619 1.78305 1.77991 1.77677 1.77364 1.7705 1.76736 1.76422 1.76109 
1.75795 1.75481 1.75167 1.74854 1.7454 1.74226 1.73912 1.73599 1.73285 
1.72971 1.73615 1.74949 1.76282 1.77615 1.78948 1.80281 1.81614 1.82947 
1.8428 1.85613 1.86946 1.88279 1.89613 1.90946 1.92279 1.93612 1.94945 
1.96278 1.97611 1.98944 1.99612 1.98814 1.98015 1.97217 1.96419 1.95621 
1.94823 1.94024 1.93226 1.92428 1.9163 1.90831 1.90033 1.89235 1.88437 
1.87639 1.8684 1.86042 1.85244 1.84446 1.8364 1.82648 1.81655 1.80663 
1.79671 1.78678 1.77686 1.76693 1.75701 1.74708 1.73716 1.72723 1.71731 
1.70738 1.69746 1.68753 1.67761 1.66768 1.65776 1.64783 1.63791 1.63987 
1.64563 1.65138 1.65714 1.6629 1.66865 1.67441 1.68016 1.68592 1.69167 
1.69743 1.70318 1.70894 1.71469 1.72045 1.7262 1.73196 1.73771 1.74347 
1.74922 1.75461 1.75958 1.76456 1.76953 1.77451 1.77948 1.78446 1.78943 
1.79441 1.79938 1.80436 1.80933 1.8143 1.81928 1.82425 1.82923 1.8342 
1.83918 1.84415 1.84913 1.85332 1.85436 1.85541 1.85646 1.8575 1.85855 
1.85959 1.86064 1.86168 1.86273 1.86378 1.86482 1.86587 1.86691 1.86796 
1.869 1.87005 1.8711 1.87214 1.87319 1.87423 1.88234 1.891 1.89967 
1.90833 1.91699 1.92566 1.93432 1.94299 1.95165 1.96032 1.96898 1.97764 
1.98631 1.99497 2.00364 2.0123 2.02097 2.02963 2.03829 2.04696 2.04622 
2.0408 2.03537 2.02995 2.02453 2.0191 2.01368 2.00826 2.00283 1.99741 
1.99199 1.98657 1.98114 1.97572 1.9703 1.96487 1.95945 1.95403 1.9486 
1.94318 1.93275 1.91558 1.89841 1.88124 1.86407 1.84691 1.82974 1.81257 
1.7954 1.77823 1.76106 1.7439 1.72673 1.70956 1.69239 1.67522 1.65805 
1.64089 1.62372 1.60655 1.59193 1.58972 1.5875 1.58529 1.58307 1.58086 
1.57864 1.57643 1.57421 1.572 1.56979 1.56757 1.56536 1.56314 1.56093 
1.55871 1.5565 1.55428 1.55207 1.54985 1.54764 1.54385 1.53988 1.53592 
1.53195 1.52799 1.52402 1.52006 1.5161 1.51213 1.50817 1.5042 1.50024 
1.49627 1.49231 1.48835 1.48438 1.48042 1.47645 1.47249 1.46852 1.46215 
1.45433 1.4465 1.43868 1.43086 1.42304 1.41522 1.40739 1.39957 1.39175 
1.38393 1.37611 1.36829 1.36046 1.35264 1.34482 1.337 1.32918 1.32135 
1.31353 1.31276 1.3253 1.33784 1.35038 1.36292 1.37546 1.388 1.40054 
1.41308 1.42562 1.43816 1.4507 1.46324 1.47578 1.48832 1.50086 1.5134 
1.52594 1.53848 1.55102 1.56433 1.58867 1.61301 1.63736 1.6617 1.68605 
1.71039 1.73474 1.75908 1.78342 1.80777 1.83211 1.85646 1.8808 1.90515 
1.92949 1.95383 1.97818 2.00252 2.02687 2.05121 2.0502 2.04221 2.03422 
2.02624 2.01825 2.01027 2.00228 1.9943 1.98631 1.97832 1.97034 1.96235 
1.95437 1.94638 1.9384 1.93041 1.92242 1.91444 1.90645 1.89847 1.88869 
1.87713 1.86558 1.85402 1.84246 1.8309 1.81935 1.80779 1.79623 1.78468 
1.77312 1.76156 1.75001 1.73845 1.72689 1.71534 1.70378 1.69222 1.68066 
1.66911 1.66132 1.6667 1.67208 1.67746 1.68284 1.68822 1.6936 1.69898 
1.70436 1.70974 1.71512 1.7205 1.72588 1.73127 1.73665 1.74203 1.74741 
1.75279 1.75817 1.76355 1.76893 1.76709 1.76487 1.76265 1.76043 1.7582 
1.75598 1.75376 1.75154 1.74932 1.7471 1.74487 1.74265 1.74043 1.73821 
1.73599 1.73377 1.73155 1.72932 1.7271 1.72488 1.72153 1.71769 1.71384 
1.71 1.70615 1.70231 1.69847 1.69462 1.69078 1.68693 1.68309 1.67924 
1.6754 1.67155 1.66771 1.66386 1.66002 1.65618 1.65233 1.64849 1.65469 
1.67347 1.69224 1.71102 1.72979 1.74856 1.76734 1.78611 1.80489 1.82366 
1.84243 1.86121 1.87998 1.89876 1.91753 1.9363 1.95508 1.97385 1.99263 
2.0114 2.02777 2.03278 2.03779 2.0428 2.04781 2.05283 2.05784 2.06285 
2.06786 2.07287 2.07789 2.0829 2.08791 2.09292 2.09794 2.10295 2.10796 
2.11297 2.11798 2.123 2.12801 2.12509 2.12126 2.11744 2.11362 2.10979 
2.10597 2.10215 2.09833 2.0945 2.09068 2.08686 2.08303 2.07921 2.07539 
2.07156 2.06774 2.06392 2.06009 2.05627 2.05245 2.04298 2.03001 2.01704 
2.00406 1.99109 1.97812 1.96515 1.95217 1.9392 1.92623 1.91326 1.90028 
1.88731 1.87434 1.86137 1.84839 1.83542 1.82245 1.80948 1.7965 1.78292 
1.76811 1.7533 1.73849 1.72368 1.70887 1.69406 1.67925 1.66444 1.64963 
1.63482 1.62001 1.6052 1.59039 1.57558 1.56077 1.54596 1.53115 1.51634 
1.50153 1.48656 1.46875 1.45095 1.43315 1.41534 1.39754 1.37973 1.36193 
1.34413 1.32632 1.30852 1.29072 1.27291 1.25511 1.23731 1.2195 1.2017 
1.18389 1.16609 1.14829 1.13048 1.12276 1.11801 1.11325 1.10849 1.10374 
1.09898 1.09422 1.08947 1.08471 1.07995 1.0752 1.07044 1.06568 1.06093 
1.05617 1.05141 1.04666 1.0419 1.03714 1.03239 1.03408 1.04243 1.05078 
1.05913 1.06748 1.07583 1.08418 1.09254 1.10089 1.10924 1.11759 1.12594 
1.13429 1.14264 1.15099 1.15934 1.16769 1.17604 1.18439 1.19275 1.20253 
1.21765 1.23276 1.24788 1.263 1.27812 1.29324 1.30835 1.32347 1.33859 
1.35371 1.36883 1.38394 1.39906 1.41418 1.4293 1.44442 1.45953 1.47465 
1.48977 1.50489 1.51531 1.52538 1.53545 1.54552 1.55558 1.56565 1.57572 
1.58579 1.59586 1.60593 1.616 1.62607 1.63614 1.64621 1.65628 1.66635 
1.67642 1.68649 1.69656 1.70663 1.70232 1.69032 1.67832 1.66632 1.65432 
1.64232 1.63032 1.61832 1.60632 1.59431 1.58231 1.57031 1.55831 1.54631 
1.53431 1.52231 1.51031 1.49831 1.48631 1.47431 1.46509 1.46056 1.45603 
1.4515 1.44698 1.44245 1.43792 1.4334 1.42887 1.42434 1.41982 1.41529 
1.41076 1.40623 1.40171 1.39718 1.39265 1.38813 1.3836 1.37907 1.37625 
1.38981 1.40338 1.41695 1.43052 1.44409 1.45766 1.47123 1.48479 1.49836 
1.51193 1.5255 1.53907 1.55264 1.5662 1.57977 1.59334 1.60691 1.62048 
1.63405 1.64761 1.649 1.64807 1.64713 1.6462 1.64526 1.64433 1.64339 
1.64246 1.64152 1.64059 1.63965 1.63872 1.63778 1.63685 1.63591 1.63498 
1.63404 1.63311 1.63217 1.63124 1.63132 1.63291 1.63449 1.63608 1.63766 
1.63925 1.64083 1.64242 1.64401 1.64559 1.64718 1.64876 1.65035 1.65193 
1.65352 1.65511 1.65669 1.65828 1.65986 1.66145 1.67018 1.67968 1.68917 
1.69866 1.70815 1.71764 1.72713 1.73662 1.74611 1.7556 1.76509 1.77458 
1.78407 1.79356 1.80306 1.81255 1.82204 1.83153 1.84102 1.85051 1.86 

TEXTURE_COORDINATES TCoords 2 float
0 0 0.000783085 0 0.00156617 0 0.00234926 0 0.00313234 
0 0.00391543 0 0.00469851 0 0.0054816 0 0.00626468 0 
0.00704777 0 0.00783085 0 0.00861394 0 0.00939702 0 0.0101801 
0 0.0109632 0 0.0117463 0 0.0125294 0 0.0133125 0 
0.0140955 0 0.0148786 0 0.0156617 0 0.0164448 0 0.0172279 
0 0.018011 0 0.018794 0 0.0195771 0 0.0203602 0 
0.0211433 0 0.0219264 0 0.0227095 0 0.0234926 0 0.0242756 
0 0.0250587 0 0.0258418 0 0.0266249 0 0.027408 0 
0.0281911 0 0.0289742 0 0.0297572 0 0.0305403 0 0.0313234 
0 0.0321065 0 0.0328896 0 0.0336727 0 0.0344558 0 
0.0352388 0 0.0360219 0 0.036805 0 0.0375881 0 0.0383712 
0 0.0391543 0 0.0399374 0 0.0407204 0 0.0415035 0 
0.0422866 0 0.0430697 0 0.0438528 0 0.0446359 0 0.045419 
0 0.046202 0 0.0469851 0 0.0477682 0 0.0485513 0 
0.0493344 0 0.0501175 0 0.0509005 0 0.0516836 0 0.0524667 
0 0.0532498 0 0.0540329 0 0.054816 0 0.0555991 0 
0.0563821 0 0.0571652 0 0.0579483 0 0.0587314 0 0.0595145 
0 0.0602976 0 0.0610807 0 0.0618637 0 0.0626468 0 
0.0634299 0 0.064213 0 0.0649961 0 0.0657792 0 0.0665623 
0 0.0673453 0 0.0681284 0 0.0689115 0 0.0696946 0 
0.0704777 0 0.0712608 0 0.0720439 0 0.0728269 0 0.07361 
0 0.0743931 0 0.0751762 0 0.0759593 0 0.0767424 0 
0.0775255 0 0.0783085 0 0.0790916 0 0.0798747 0 0.0806578 
0 0.0814409 0 0.082224 0 0.083007 0 0.0837901 0 
0.0845732 0 0.0853563 0 0.0861394 0 0.0869225 0 0.0877056 
0 0.0884886 0 0.0892717 0 0.0900548 0 0.0908379 0 
0.091621 0 0.0924041 0 0.0931872 0 0.0939702 0 0.0947533 
0 0.0955364 0 0.0963195 0 0.0971026 0 0.0978857 0 
0.0986688 0 0.0994518 0 0.100235 0 0.101018 0 0.101801 
0 0.102584 0 0.103367 0 0.10415 0 0.104933 0 
0.105717 0 0.1065 0 0.107283 0 0.108066 0 0.108849 
0 0.109632 0 0.110415 0 0.111198 0 0.111981 0 
0.112764 0 0.113547 0 0.11433 0 0.115114 0 0.115897 
0 0.11668 0 0.117463 0 0.118246 0 0.119029 0 
0.119812 0 0.120595 0 0.121378 0 0.122161 0 0.122944 
0 0.123727 0 0.124511 0 0.125294 0 0.126077 0 
0.12686 0 0.127643 0 0.128426 0 0.129209 0 0.129992 
0 0.130775 0 0.131558 0 0.132341 0 0.133125 0 
0.133908 0 0.134691 0 0.135474 0 0.136257 0 0.13704 
0 0.137823 0 0.138606 0 0.139389 0 0.140172 0 
0.140955 0 0.141738 0 0.142522 0 0.143305 0 0.144088 
0 0.144871 0 0.145654 0 0.146437 0 0.14722 0 
0.148003 0 0.148786 0 0.149569 0 0.150352 0 0.151135 
0 0.151919 0 0.152702 0 0.153485 0 0.154268 0 
0.155051 0 0.155834 0 0.156617 0 0.1574 0 0.158183 
0 0.158966 0 0.159749 0 0.160533 0 0.161316 0 
0.162099 0 0.162882 0 0.163665 0 0.164448 0 0.165231 
0 0.166014 0 0.166797 0 0.16758 0 0.168363 0 
0.169146 0 0.16993 0 0.170713 0 0.171496 0 0.172279 
0 0.173062 0 0.173845 0 0.174628 0 0.175411 0 
0.176194 0 0.176977 0 0.17776 0 0.178543 0 0.179327 
0 0.18011 0 0.180893 0 0.181676 0 0.182459 0 
0.183242 0 0.184025 0 0.184808 0 0.185591 0 0.186374 
0 0.187157 0 0.18794 0 0.188724 0 0.189507 0 
0.19029 0 0.191073 0 0.191856 0 0.192639 0 0.193422 
0 0.194205 0 0.194988 0 0.195771 0 0.196554 0 
0.197338 0 0.198121 0 0.198904 0 0.199687 0 0.20047 
0 0.201253 0 0.202036 0 0.202819 0 0.203602 0 
0.204385 0 0.205168 0 0.205951 0 0.206735 0 0.207518 
0 0.208301 0 0.209084 0 0.209867 0 0.21065 0 
0.211433 0 0.212216 0 0.212999 0 0.213782 0 0.214565 
0 0.215348 0 0.216132 0 0.216915 0 0.217698 0 
0.218481 0 0.219264 0 0.220047 0 0.22083 0 0.221613 
0 0.222396 0 0.223179 0 0.223962 0 0.224745 0 
0.225529 0 0.226312 0 0.227095 0 0.227878 0 0.228661 
0 0.229444 0 0.230227 0 0.23101 0 0.231793 0 
0.232576 0 0.233359 0 0.234143 0 0.234926 0 0.235709 
0 0.236492 0 0.237275 0 0.238058 0 0.238841 0 
0.239624 0 0.240407 0 0.24119 0 0.241973 0 0.242756 
0 0.24354 0 0.244323 0 0.245106 0 0.245889 0 
0.246672 0 0.247455 0 0.248238 0 0.249021 0 0.249804 
0 0.250587 0 0.25137 0 0.252153 0 0.252937 0 
0.25372 0 0.254503 0 0.255286 0 0.256069 0 0.256852 
0 0.257635 0 0.258418 0 0.259201 0 0.259984 0 
0.260767 0 0.261551 0 0.262334 0 0.263117 0 0.2639 
0 0.264683 0 0.265466 0 0.266249 0 0.267032 0 
0.267815 0 0.268598 0 0.269381 0 0.270164 0 0.270948 
0 0.271731 0 0.272514 0 0.273297 0 0.27408 0 
0.274863 0 0.275646 0 0.276429 0 0.277212 0 0.277995 
0 0.278778 0 0.279561 0 0.280345 0 0.281128 0 
0.281911 0 0.282694 0 0.283477 0 0.28426 0 0.285043 
0 0.285826 0 0.286609 0 0.287392 0 0.288175 0 
0.288958 0 0.289742 0 0.290525 0 0.291308 0 0.292091 
0 0.292874 0 0.293657 0 0.29444 0 0.295223 0 
0.296006 0 0.296789 0 0.297572 0 0.298356 0 0.299139 
0 0.299922 0 0.300705 0 0.301488 0 0.302271 0 
0.303054 0 0.303837 0 0.30462 0 0.305403 0 0.306186 
0 0.306969 0 0.307753 0 0.308536 0 0.309319 0 
0.310102 0 0.310885 0 0.311668 0 0.312451 0 0.313234 
0 0.314017 0 0.3148 0 0.315583 0 0.316366 0 
0.31715 0 0.317933 0 0.318716 0 0.319499 0 0.320282 
0 0.321065 0 0.321848 0 0.322631 0 0.323414 0 
0.324197 0 0.32498 0 0.325763 0 0.326547 0 0.32733 
0 0.328113 0 0.328896 0 0.329679 0 0.330462 0 
0.331245 0 0.332028 0 0.332811 0 0.333594 0 0.334377 
0 0.335161 0 0.335944 0 0.336727 0 0.33751 0 
0.338293 0 0.339076 0 0.339859 0 0.340642 0 0.341425 
0 0.342208 0 0.342991 0 0.343774 0 0.344558 0 
0.345341 0 0.346124 0 0.346907 0 0.34769 0 0.348473 
0 0.349256 0 0.350039 0 0.350822 0 0.351605 0 
0.352388 0 0.353171 0 0.353955 0 0.354738 0 0.355521 
0 0.356304 0 0.357087 0 0.35787 0 0.358653 0 
0.359436 0 0.360219 0 0.361002 0 0.361785 0 0.362569 
0 0.363352 0 0.364135 0 0.364918 0 0.365701 0 
0.366484 0 0.367267 0 0.36805 0 0.368833 0 0.369616 
0 0.370399 0 0.371182 0 0.371966 0 0.372749 0 
0.373532 0 0.374315 0 0.375098 0 0.375881 0 0.376664 
0 0.377447 0 0.37823 0 0.379013 0 0.379796 0 
0.380579 0 0.381363 0 0.382146 0 0.382929 0 0.383712 
0 0.384495 0 0.385278 0 0.386061 0 0.386844 0 
0.387627 0 0.38841 0 0.389193 0 0.389977 0 0.39076 
0 0.391543 0 0.392326 0 0.393109 0 0.393892 0 
0.394675 0 0.395458 0 0.396241 0 0.397024 0 0.397807 
0 0.39859 0 0.399374 0 0.400157 0 0.40094 0 
0.401723 0 0.402506 0 0.403289 0 0.404072 0 0.404855 
0 0.405638 0 0.406421 0 0.407204 0 0.407987 0 
0.408771 0 0.409554 0 0.410337 0 0.41112 0 0.411903 
0 0.412686 0 0.413469 0 0.414252 0 0.415035 0 
0.415818 0 0.416601 0 0.417385 0 0.418168 0 0.418951 
0 0.419734 0 0.420517 0 0.4213 0 0.422083 0 
0.422866 0 0.423649 0 0.424432 0 0.425215 0 0.425998 
0 0.426782 0 0.427565 0 0.428348 0 0.429131 0 
0.429914 0 0.430697 0 0.43148 0 0.432263 0 0.433046 
0 0.433829 0 0.434612 0 0.435395 0 0.436179 0 
0.436962 0 0.437745 0 0.438528 0 0.439311 0 0.440094 
0 0.440877 0 0.44166 0 0.442443 0 0.443226 0 
0.444009 0 0.444792 0 0.445576 0 0.446359 0 0.447142 
0 0.447925 0 0.448708 0 0.449491 0 0.450274 0 
0.451057 0 0.45184 0 0.452623 0 0.453406 0 0.45419 
0 0.454973 0 0.455756 0 0.456539 0 0.457322 0 
0.458105 0 0.458888 0 0.459671 0 0.460454 0 0.461237 
0 0.46202 0 0.462803 0 0.463587 0 0.46437 0 
0.465153 0 0.465936 0 0.466719 0 0.467502 0 0.468285 
0 0.469068 0 0.469851 0 0.470634 0 0.471417 0 
0.4722 0 0.472984 0 0.473767 0 0.47455 0 0.475333 
0 0.476116 0 0.476899 0 0.477682 0 0.478465 0 
0.479248 0 0.480031 0 0.480814 0 0.481597 0 0.482381 
0 0.483164 0 0.483947 0 0.48473 0 0.485513 0 
0.486296 0 0.487079 0 0.487862 0 0.488645 0 0.489428 
0 0.490211 0 0.490995 0 0.491778 0 0.492561 0 
0.493344 0 0.494127 0 0.49491 0 0.495693 0 0.496476 
0 0.497259 0 0.498042 0 0.498825 0 0.499608 0 
0.500392 0 0.501175 0 0.501958 0 0.502741 0 0.503524 
0 0.504307 0 0.50509 0 0.505873 0 0.506656 0 
0.507439 0 0.508222 0 0.509005 0 0.509789 0 0.510572 
0 0.511355 0 0.512138 0 0.512921 0 0.513704 0 
0.514487 0 0.51527 0 0.516053 0 0.516836 0 0.517619 
0 0.518403 0 0.519186 0 0.519969 0 0.520752 0 
0.521535 0 0.522318 0 0.523101 0 0.523884 0 0.524667 
0 0.52545 0 0.526233 0 0.527016 0 0.5278 0 
0.528583 0 0.529366 0 0.530149 0 0.530932 0 0.531715 
0 0.532498 0 0.533281 0 0.534064 0 0.534847 0 
0.53563 0 0.536413 0 0.537197 0 0.53798 0 0.538763 
0 0.539546 0 0.540329 0 0.541112 0 0.541895 0 
0.542678 0 0.543461 0 0.544244 0 0.545027 0 0.545811 
0 0.546594 0 0.547377 0 0.54816 0 0.548943 0 
0.549726 0 0.550509 0 0.551292 0 0.552075 0 0.552858 
0 0.553641 0 0.554424 0 0.555207 0 0.555991 0 
0.556774 0 0.557557 0 0.55834 0 0.559123 0 0.559906 
0 0.560689 0 0.561472 0 0.562255 0 0.563038 0 
0.563821 0 0.564605 0 0.565388 0 0.566171 0 0.566954 
0 0.567737 0 0.56852 0 0.569303 0 0.570086 0 
0.570869 0 0.571652 0 0.572435 0 0.573218 0 0.574002 
0 0.574785 0 0.575568 0 0.576351 0 0.577134 0 
0.577917 0 0.5787 0 0.579483 0 0.580266 0 0.581049 
0 0.581832 0 0.582615 0 0.583399 0 0.584182 0 
0.584965 0 0.585748 0 0.586531 0 0.587314 0 0.588097 
0 0.58888 0 0.589663 0 0.590446 0 0.591229 0 
0.592013 0 0.592796 0 0.593579 0 0.594362 0 0.595145 
0 0.595928 0 0.596711 0 0.597494 0 0.598277 0 
0.59906 0 0.599843 0 0.600626 0 0.60141 0 0.602193 
0 0.602976 0 0.603759 0 0.604542 0 0.605325 0 
0.606108 0 0.606891 0 0.607674 0 0.608457 0 0.60924 
0 0.610023 0 0.610807 0 0.61159 0 0.612373 0 
0.613156 0 0.613939 0 0.614722 0 0.615505 0 0.616288 
0 0.617071 0 0.617854 0 0.618637 0 0.619421 0 
0.620204 0 0.620987 0 0.62177 0 0.622553 0 0.623336 
0 0.624119 0 0.624902 0 0.625685 0 0.626468 0 
0.627251 0 0.628034 0 0.628818 0 0.629601 0 0.630384 
0 0.631167 0 0.63195 0 0.632733 0 0.633516 0 
0.634299 0 0.635082 0 0.635865 0 0.636648 0 0.637432 
0 0.638215 0 0.638998 0 0.639781 0 0.640564 0 
0.641347 0 0.64213 0 0.642913 0 0.643696 0 0.644479 
0 0.645262 0 0.646045 0 0.646829 0 0.647612 0 
0.648395 0 0.649178 0 0.649961 0 0.650744 0 0.651527 
0 0.65231 0 0.653093 0 0.653876 0 0.654659 0 
0.655442 0 0.656226 0 0.657009 0 0.657792 0 0.658575 
0 0.659358 0 0.660141 0 0.660924 0 0.661707 0 