# vtk DataFile Version 4.2
vtk output
ASCII
DATASET POLYDATA
POINTS 1277 float
0 0 0 -0.0037986 0.00154515 0.000300118 -0.0148852 0.00602074 0.0011863 
-0.0327961 0.013187 0.00263728 -0.0570674 0.0228041 0.00463181 -0.0872355 0.0346323 0.00714863 
-0.122837 0.0484317 0.0101665 -0.163407 0.0639627 0.0136641 -0.208483 0.0809853 0.0176202 
-0.2576 0.0992599 0.0220136 -0.310295 0.118547 0.026823 -0.366105 0.138606 0.0320271 
-0.424565 0.159197 0.0376047 -0.485211 0.180081 0.0435345 -0.54758 0.201019 0.0497952 
-0.611209 0.221769 0.0563657 -0.675633 0.242093 0.0632246 -0.740388 0.26175 0.0703507 
-0.805011 0.280502 0.0777227 -0.869039 0.298107 0.0853194 -0.932006 0.314326 0.0931195 
-0.993451 0.32892 0.101102 -1.05304 0.341715 0.109251 -1.11081 0.352735 0.117567 
-1.16687 0.362039 0.126056 -1.22136 0.369688 0.134721 -1.27436 0.375742 0.143568 
-1.32601 0.380261 0.152599 -1.37642 0.383304 0.16182 -1.42569 0.384933 0.171235 
-1.47395 0.385206 0.180849 -1.52131 0.384185 0.190665 -1.56788 0.381928 0.200689 
-1.61377 0.378497 0.210923 -1.6591 0.37395 0.221374 -1.70399 0.368349 0.232045 
-1.74854 0.361753 0.24294 -1.79288 0.354222 0.254064 -1.83712 0.345816 0.265422 
-1.88136 0.336596 0.277017 -1.92573 0.326621 0.288854 -1.97034 0.31595 0.300937 
-2.01521 0.304615 0.313264 -2.06033 0.29262 0.325824 -2.10564 0.279969 0.338609 
-2.1511 0.266664 0.351607 -2.19668 0.252708 0.36481 -2.24234 0.238105 0.378208 
-2.28802 0.222858 0.39179 -2.33371 0.206968 0.405547 -2.37934 0.190441 0.419469 
-2.42489 0.173278 0.433547 -2.47031 0.155482 0.447769 -2.51556 0.137057 0.462127 
-2.5606 0.118006 0.476611 -2.60539 0.0983315 0.49121 -2.64989 0.0780367 0.505916 
-2.69407 0.0571247 0.520717 -2.73787 0.0355985 0.535605 -2.78126 0.0134611 0.550569 
-2.8242 -0.00928435 0.5656 -2.86664 -0.0326349 0.580688 -2.90858 -0.0565813 0.595824 
-2.95001 -0.0811022 0.611005 -2.99097 -0.106175 0.626226 -3.03148 -0.131775 0.641483 
-3.07155 -0.157882 0.656772 -3.11121 -0.184471 0.67209 -3.15048 -0.211519 0.687431 
-3.18938 -0.239005 0.702793 -3.22793 -0.266903 0.71817 -3.26615 -0.295193 0.73356 
-3.30406 -0.32385 0.748958 -3.3417 -0.352852 0.764359 -3.37906 -0.382176 0.779761 
-3.41619 -0.411799 0.795159 -3.45309 -0.441697 0.810548 -3.48979 -0.471848 0.825926 
-3.52631 -0.50223 0.841287 -3.56268 -0.532818 0.856628 -3.59891 -0.56359 0.871945 
-3.63502 -0.594523 0.887233 -3.67103 -0.625596 0.90249 -3.70696 -0.6568 0.91771 
-3.74281 -0.688126 0.932891 -3.77859 -0.719567 0.948028 -3.8143 -0.751117 0.963119 
-3.84995 -0.782768 0.978158 -3.88555 -0.814512 0.993143 -3.92111 -0.846343 1.00807 
-3.95663 -0.878253 1.02293 -3.99212 -0.910236 1.03773 -4.02759 -0.942283 1.05246 
-4.06304 -0.974387 1.06712 -4.09848 -1.00654 1.0817 -4.13392 -1.03874 1.0962 
-4.16937 -1.07097 1.11061 -4.20483 -1.10324 1.12494 -4.2403 -1.13552 1.13918 
-4.27581 -1.16782 1.15332 -4.31135 -1.20012 1.16736 -4.34692 -1.23243 1.1813 
-4.38255 -1.26472 1.19513 -4.41823 -1.29701 1.20885 -4.45397 -1.32927 1.22246 
-4.48978 -1.36151 1.23594 -4.52566 -1.39372 1.24929 -4.56161 -1.42589 1.26252 
-4.59765 -1.45803 1.2756 -4.63378 -1.49011 1.28854 -4.67 -1.52215 1.30134 
-4.70632 -1.55413 1.31397 -4.74275 -1.58605 1.32645 -4.77929 -1.6179 1.33877 
-4.81595 -1.64967 1.35091 -4.85273 -1.68137 1.36288 -4.88964 -1.71299 1.37467 
-4.92669 -1.74451 1.38627 -4.96388 -1.77594 1.39768 -5.00121 -1.80727 1.4089 
-5.0387 -1.8385 1.41991 -5.07635 -1.86961 1.43072 -5.11416 -1.90061 1.44131 
-5.15214 -1.93148 1.45168 -5.19029 -1.96224 1.46183 -5.2286 -1.99287 1.47175 
-5.26708 -2.02337 1.48143 -5.30573 -2.05374 1.49086 -5.34454 -2.08398 1.50005 
-5.38351 -2.11409 1.50898 -5.42266 -2.14406 1.51764 -5.46196 -2.17389 1.52604 
-5.50143 -2.20359 1.53416 -5.54106 -2.23313 1.54199 -5.58086 -2.26254 1.54954 
-5.62081 -2.29179 1.5568 -5.66093 -2.3209 1.56375 -5.70121 -2.34985 1.57039 
-5.74165 -2.37865 1.57672 -5.78225 -2.40729 1.58273 -5.82301 -2.43577 1.58841 
-5.86393 -2.4641 1.59376 -5.90501 -2.49225 1.59877 -5.94624 -2.52025 1.60343 
-5.98763 -2.54808 1.60775 -6.02916 -2.57575 1.61171 -6.07083 -2.60326 1.61531 
-6.11264 -2.63062 1.61855 -6.15458 -2.65782 1.62142 -6.19664 -2.68487 1.62393 
-6.23881 -2.71177 1.62606 -6.2811 -2.73853 1.62781 -6.32349 -2.76514 1.62918 
-6.36598 -2.79161 1.63017 -6.40856 -2.81794 1.63076 -6.45123 -2.84414 1.63096 
-6.49398 -2.8702 1.63077 -6.53681 -2.89612 1.63017 -6.57971 -2.92192 1.62917 
-6.62267 -2.94759 1.62776 -6.66569 -2.97313 1.62593 -6.70877 -2.99856 1.62369 
-6.75188 -3.02386 1.62102 -6.79504 -3.04904 1.61793 -6.83824 -3.07411 1.61442 
-6.88145 -3.09908 1.61047 -6.92468 -3.12395 1.6061 -6.96792 -3.14873 1.60131 
-7.01115 -3.17343 1.59608 -7.05438 -3.19806 1.59043 -7.09758 -3.22262 1.58435 
-7.14076 -3.24712 1.57785 -7.1839 -3.27157 1.57091 -7.22699 -3.29598 1.56354 
-7.27003 -3.32035 1.55575 -7.313 -3.34469 1.54753 -7.35591 -3.36902 1.53888 
-7.39873 -3.39332 1.52979 -7.44146 -3.41763 1.52028 -7.4841 -3.44193 1.51034 
-7.52663 -3.46625 1.49997 -7.56904 -3.49058 1.48917 -7.61134 -3.51494 1.47793 
-7.65349 -3.53932 1.46627 -7.69551 -3.56375 1.45417 -7.73737 -3.58823 1.44165 
-7.77907 -3.61277 1.42869 -7.82059 -3.63737 1.41531 -7.86193 -3.66205 1.4015 
-7.90307 -3.68682 1.38727 -7.94401 -3.71168 1.37262 -7.98472 -3.73665 1.35754 
-8.02521 -3.76172 1.34204 -8.06546 -3.78692 1.32612 -8.10545 -3.81225 1.30978 
-8.14519 -3.83772 1.29303 -8.18465 -3.86334 1.27585 -8.22383 -3.88912 1.25827 
-8.26271 -3.91506 1.24027 -8.3013 -3.94118 1.22185 -8.33956 -3.96749 1.20302 
-8.3775 -3.99399 1.18379 -8.4151 -4.02069 1.16414 -8.45235 -4.0476 1.14408 
-8.48925 -4.07474 1.12362 -8.52576 -4.1021 1.10276 -8.56189 -4.12968 1.0815 
-8.5976 -4.15751 1.05984 -8.63289 -4.18557 1.0378 -8.66774 -4.21388 1.01538 
-8.70214 -4.24244 0.992572 -8.73606 -4.27126 0.969392 -8.76949 -4.30033 0.945841 
-8.80242 -4.32967 0.921924 -8.83483 -4.35928 0.897646 -8.8667 -4.38917 0.87301 
-8.89802 -4.41934 0.848022 -8.92877 -4.44979 0.822685 -8.95894 -4.48053 0.797005 
-8.9885 -4.51157 0.770985 -9.01745 -4.54291 0.744631 -9.04577 -4.57456 0.717947 
-9.07344 -4.60651 0.690936 -9.10044 -4.63878 0.663604 -9.12676 -4.67137 0.635956 
-9.1524 -4.70428 0.608003 -9.17734 -4.73749 0.579754 -9.20157 -4.77099 0.551221 
-9.22508 -4.80479 0.522415 -9.24788 -4.83886 0.493347 -9.26994 -4.87321 0.464027 
-9.29126 -4.90783 0.434467 -9.31183 -4.9427 0.404678 -9.33165 -4.97783 0.37467 
-9.3507 -5.01319 0.344455 -9.36897 -5.04879 0.314043 -9.38647 -5.08462 0.283445 
-9.40317 -5.12067 0.252673 -9.41907 -5.15692 0.221736 -9.43417 -5.19338 0.190647 
-9.44844 -5.23004 0.159416 -9.4619 -5.26688 0.128053 -9.47452 -5.3039 0.0965711 
-9.48629 -5.3411 0.0649796 -9.49722 -5.37845 0.0332896 -9.5073 -5.41597 0.00151064 
-9.51655 -5.45362 -0.0303486 -9.52497 -5.49141 -0.0622792 -9.53257 -5.52933 -0.0942727 
-9.53936 -5.56735 -0.12632 -9.54535 -5.60549 -0.158413 -9.55056 -5.64371 -0.190542 
-9.55498 -5.68202 -0.222699 -9.55863 -5.7204 -0.254875 -9.56151 -5.75885 -0.287061 
-9.56364 -5.79735 -0.319248 -9.56503 -5.8359 -0.351429 -9.56568 -5.87447 -0.383593 
-9.56561 -5.91307 -0.415733 -9.56482 -5.95169 -0.447839 -9.56332 -5.9903 -0.479902 
-9.56112 -6.02891 -0.511915 -9.55823 -6.06751 -0.543868 -9.55466 -6.10607 -0.575752 
-9.55042 -6.1446 -0.60756 -9.54552 -6.18309 -0.639285 -9.53997 -6.22153 -0.670928 
-9.53378 -6.25992 -0.702487 -9.52696 -6.29826 -0.733962 -9.51952 -6.33655 -0.765352 
-9.51147 -6.37478 -0.796655 -9.50283 -6.41295 -0.827871 -9.4936 -6.45107 -0.859 
-9.48379 -6.48912 -0.89004 -9.47341 -6.5271 -0.92099 -9.46248 -6.56502 -0.95185 
-9.45101 -6.60286 -0.982618 -9.439 -6.64063 -1.01329 -9.42647 -6.67833 -1.04388 
-9.41342 -6.71595 -1.07437 -9.39988 -6.75348 -1.10476 -9.38584 -6.79094 -1.13506 
-9.37132 -6.82831 -1.16527 -9.35633 -6.86559 -1.19537 -9.34088 -6.90278 -1.22538 
-9.32498 -6.93987 -1.25529 -9.30863 -6.97687 -1.28508 -9.29183 -7.01378 -1.31476 
-9.2746 -7.05058 -1.3443 -9.25692 -7.08728 -1.3737 -9.23881 -7.12388 -1.40295 
-9.22026 -7.16037 -1.43204 -9.20128 -7.19675 -1.46097 -9.18187 -7.23303 -1.48971 
-9.16204 -7.26918 -1.51826 -9.14179 -7.30523 -1.54661 -9.12111 -7.34115 -1.57475 
-9.10002 -7.37696 -1.60267 -9.07852 -7.41264 -1.63036 -9.05661 -7.4482 -1.65781 
-9.03428 -7.48363 -1.68502 -9.01156 -7.51894 -1.71196 -8.98843 -7.55411 -1.73864 
-8.9649 -7.58915 -1.76503 -8.94097 -7.62405 -1.79114 -8.91665 -7.65882 -1.81695 
-8.89195 -7.69346 -1.84248 -8.86686 -7.72797 -1.86775 -8.8414 -7.76236 -1.89278 
-8.81556 -7.79663 -1.91759 -8.78936 -7.8308 -1.94219 -8.7628 -7.86487 -1.9666 
-8.73589 -7.89884 -1.99085 -8.70864 -7.93272 -2.01495 -8.68104 -7.96651 -2.03892 
-8.6531 -8.00023 -2.06279 -8.62484 -8.03387 -2.08656 -8.59625 -8.06745 -2.11026 
-8.56735 -8.10096 -2.1339 -8.53813 -8.13443 -2.15751 -8.50861 -8.16784 -2.18111 
-8.47878 -8.20121 -2.20471 -8.44866 -8.23454 -2.22833 -8.41826 -8.26785 -2.252 
-8.38757 -8.30112 -2.27572 -8.3566 -8.33438 -2.29952 -8.32533 -8.3676 -2.32331 
-8.29373 -8.40075 -2.34696 -8.26177 -8.43381 -2.37034 -8.22941 -8.46674 -2.39332 
-8.19662 -8.49952 -2.41577 -8.16336 -8.53211 -2.43754 -8.12961 -8.56449 -2.45852 
-8.09533 -8.59662 -2.47857 -8.06049 -8.62848 -2.49756 -8.02505 -8.66004 -2.51535 
-7.98899 -8.69127 -2.53181 -7.95226 -8.72214 -2.54681 -7.91484 -8.75261 -2.56022 
-7.87668 -8.78267 -2.5719 -7.83777 -8.81228 -2.58173 -7.79807 -8.84141 -2.58957 
-7.75753 -8.87003 -2.59528 -7.71614 -8.89812 -2.59875 -7.67386 -8.92563 -2.59982 
-7.63064 -8.95256 -2.59838 -7.58654 -8.97884 -2.59436 -7.54174 -9.00441 -2.5878 
-7.49641 -9.02921 -2.57876 -7.45075 -9.05316 -2.56732 -7.40495 -9.07619 -2.55354 
-7.3592 -9.09824 -2.53748 -7.3137 -9.11922 -2.5192 -7.26863 -9.13907 -2.49877 
-7.22418 -9.15772 -2.47626 -7.18055 -9.1751 -2.45172 -7.13792 -9.19114 -2.42523 
-7.09649 -9.20576 -2.39684 -7.05645 -9.2189 -2.36663 -7.01798 -9.23049 -2.33465 
-6.98129 -9.24045 -2.30097 -6.94655 -9.24871 -2.26565 -6.91396 -9.25521 -2.22876 
-6.88372 -9.25987 -2.19036 -6.85599 -9.26263 -2.15052 -6.83083 -9.2635 -2.10931 
[...]
CELL_DATA 1
FIELD FieldData 2
Length 1 1 double
63.803742851 
Tortuosity 1 1 double
0.8297835762 
POINT_DATA 1277
SCALARS MaximumInscribedSphereRadius float
LOOKUP_TABLE default
1.24 1.23282 1.22565 1.21847 1.2113 1.20412 1.19695 1.18977 1.1826 
1.17542 1.16825 1.16107 1.1539 1.14672 1.13955 1.13237 1.1252 1.11802 
1.11085 1.10367 1.0965 1.08946 1.0837 1.07795 1.07219 1.06643 1.06067 
1.05491 1.04915 1.04339 1.03764 1.03188 1.02612 1.02036 1.0146 1.00884 
1.00308 0.997324 0.991566 0.985807 0.980048 0.981275 0.989673 0.998071 1.00647 
1.01487 1.02326 1.03166 1.04006 1.04846 1.05686 1.06525 1.07365 1.08205 
1.09045 1.09885 1.10724 1.11564 1.12404 1.13244 1.14083 1.14849 1.15367 
1.15886 1.16404 1.16923 1.17441 1.1796 1.18478 1.18997 1.19515 1.20034 
1.20552 1.21071 1.21589 1.22108 1.22626 1.23145 1.23663 1.24182 1.247 
1.25219 1.25509 1.25787 1.26065 1.26343 1.26621 1.26899 1.27177 1.27455 
1.27733 1.28011 1.28289 1.28567 1.28845 1.29123 1.29401 1.29679 1.29957 
1.30235 1.30513 1.30791 1.32219 1.34245 1.36271 1.38296 1.40322 1.42348 
1.44373 1.46399 1.48425 1.5045 1.52476 1.54502 1.56528 1.58553 1.60579 
1.62605 1.6463 1.66656 1.68682 1.70708 1.72533 1.74018 1.75503 1.76988 
1.78473 1.79959 1.81444 1.82929 1.84414 1.85899 1.87385 1.8887 1.90355 
1.9184 1.93325 1.94811 1.96296 1.97781 1.99266 2.00751 2.02021 2.01129 
2.00237 1.99345 1.98453 1.97561 1.96669 1.95777 1.94885 1.93993 1.93101 
1.92209 1.91316 1.90424 1.89532 1.8864 1.87748 1.86856 1.85964 1.85072 
1.8418 1.84715 1.85576 1.86437 1.87298 1.88159 1.8902 1.89881 1.90743 
1.91604 1.92465 1.93326 1.94187 1.95048 1.95909 1.9677 1.97631 1.98492 
1.99354 2.00215 2.01076 2.02268 2.03746 2.05224 2.06701 2.08179 2.09657 
2.11134 2.12612 2.1409 2.15567 2.17045 2.18523 2.20001 2.21478 2.22956 
2.24434 2.25911 2.27389 2.28867 2.30344 2.31315 2.30879 2.30442 2.30006 
2.29569 2.29133 2.28696 2.28259 2.27823 2.27386 2.2695 2.26513 2.26076 
2.2564 2.25203 2.24767 2.2433 2.23893 2.23457 2.2302 2.22577 2.21223 
2.19869 2.18516 2.17162 2.15808 2.14454 2.13101 2.11747 2.10393 2.09039 
2.07686 2.06332 2.04978 2.03625 2.02271 2.00917 1.99563 1.9821 1.96856 
1.95502 1.93869 1.92151 1.90434 1.88717 1.87 1.85283 1.83566 1.81849 
1.80132 1.78414 1.76697 1.7498 1.73263 1.71546 1.69829 1.68112 1.66394 
1.64677 1.6296 1.61243 1.59955 1.59059 1.58163 1.57267 1.56372 1.55476 
1.5458 1.53685 1.52789 1.51893 1.50997 1.50102 1.49206 1.4831 1.47415 
1.46519 1.45623 1.44727 1.43832 1.42936 1.42264 1.4225 1.42235 1.42221 
1.42206 1.42192 1.42177 1.42163 1.42148 1.42134 1.42119 1.42105 1.4209 
1.42076 1.42061 1.42047 1.42032 1.42018 1.42003 1.41989 1.41974 1.4378 
1.45616 1.47452 1.49289 1.51125 1.52961 1.54797 1.56633 1.58469 1.60305 
1.62141 1.63977 1.65814 1.6765 1.69486 1.71322 1.73158 1.74994 1.7683 
1.78666 1.78898 1.78401 1.77904 1.77408 1.76911 1.76414 1.75917 1.7542 
1.74923 1.74426 1.73929 1.73432 1.72935 1.72438 1.71941 1.71444 1.70947 
1.70451 1.69954 1.69457 1.69074 1.69024 1.68974 1.68924 1.68873 1.68823 
1.68773 1.68723 1.68673 1.68623 1.68572 1.68522 1.68472 1.68422 1.68372 
1.68321 1.68271 1.68221 1.68171 1.67843 1.6724 1.66638 1.66036 1.65433 
1.64831 1.64228 1.63626 1.63024 1.62421 1.61819 1.61217 1.60614 1.60012 
1.5941 1.58807 1.58205 1.57603 1.57 1.56398 1.55792 1.55174 1.54555 
1.53937 1.53319 1.527 1.52082 1.51464 1.50845 1.50227 1.49608 1.4899 
1.48372 1.47753 1.47135 1.46517 1.45898 1.4528 1.44661 1.44043 1.43425 
1.45448 1.47672 1.49896 1.5212 1.54344 1.56568 1.58793 1.61017 1.63241 
1.65465 1.67689 1.69913 1.72137 1.74361 1.76585 1.7881 1.81034 1.83258 
1.85482 1.87706 1.89132 1.9011 1.91088 1.92066 1.93044 1.94021 1.94999 
1.95977 1.96955 1.97933 1.98911 1.99889 2.00866 2.01844 2.02822 2.038 
2.04778 2.05756 2.06734 2.07711 2.08005 2.07051 2.06097 2.05143 2.04189 
2.03235 2.02281 2.01327 2.00373 1.99419 1.98466 1.97512 1.96558 1.95604 
1.9465 1.93696 1.92742 1.91788 1.90834 1.8988 1.88989 1.88841 1.88693 
1.88545 1.88396 1.88248 1.881 1.87952 1.87803 1.87655 1.87507 1.87358 
1.8721 1.87062 1.86914 1.86765 1.86617 1.86469 1.86321 1.86172 1.86024 
1.86968 1.88125 1.89282 1.90439 1.91596 1.92753 1.93909 1.95066 1.96223 
1.9738 1.98537 1.99694 2.0085 2.02007 2.03164 2.04321 2.05478 2.06634 
2.07791 2.08948 2.10401 2.12015 2.1363 2.15244 2.16859 2.18473 2.20087 
2.21702 2.23316 2.24931 2.26545 2.28159 2.29774 2.31388 2.33003 2.34617 
2.36231 2.37846 2.3946 2.41075 2.41386 2.39719 2.38053 2.36386 2.34719 
2.33052 2.31386 2.29719 2.28052 2.26385 2.24718 2.23052 2.21385 2.19718 
2.18051 2.16385 2.14718 2.13051 2.11384 2.09718 2.08128 2.07126 2.06124 
2.05122 2.0412 2.03118 2.02117 2.01115 2.00113 1.99111 1.98109 1.97107 
1.96105 1.95103 1.94101 1.93099 1.92098 1.91096 1.90094 1.89092 1.8809 
1.87862 1.87796 1.8773 1.87664 1.87598 1.87532 1.87466 1.874 1.87334 
1.87268 1.87203 1.87137 1.87071 1.87005 1.86939 1.86873 1.86807 1.86741 
1.86675 1.86609 1.86564 1.86536 1.86508 1.8648 1.86452 1.86423 1.86395 
1.86367 1.86339 1.86311 1.86283 1.86255 1.86227 1.86199 1.86171 1.86142 
1.86114 1.86086 1.86058 1.8603 1.86009 1.86008 1.86008 1.86008 1.86007 
1.86007 1.86006 1.86006 1.86005 1.86005 1.86004 1.86004 1.86004 1.86003 
1.86003 1.86002 1.86002 1.86001 1.86001 1.86 1.86 1.86 1.86 
1.86 1.86 1.86 1.86 1.86 1.86 1.86 1.86 1.86 
1.86 1.86 1.86 1.86 1.86 1.86 1.86 1.86 1.86 
1.86 1.86 1.86 1.86 1.86 1.86 1.86 1.86 1.86 
1.86 1.86 1.86 1.86 1.86 1.86 1.86 1.86 1.86 
1.86 1.86 1.86 1.86 1.86 1.86 1.86 1.86 1.86 
1.86 1.86 1.86 1.86 1.86 1.86 1.86 1.86 1.86 
1.86 1.86 1.86 1.86 1.85982 1.8585 1.85719 1.85587 1.85456 
1.85324 1.85192 1.85061 1.84929 1.84798 1.84666 1.84535 1.84403 1.84271 
1.8414 1.84008 1.83877 1.83745 1.83614 1.83482 1.8335 1.83095 1.8282 
1.82546 1.82271 1.81997 1.81722 1.81448 1.81173 1.80899 1.80624 1.8035 
1.80075 1.798 1.79526 1.79251 1.78977 1.78702 1.78428 1.78153 1.77879 
1.77839 1.77961 1.78083 1.78205 1.78326 1.78448 1.7857 1.78692 1.78814 
1.78936 1.79057 1.79179 1.79301 1.79423 1.79545 1.79666 1.79788 1.7991 
1.80032 1.80154 1.80317 1.80569 1.80821 1.81074 1.81326 1.81578 1.81831 
1.82083 1.82335 1.82588 1.8284 1.83093 1.83345 1.83597 1.8385 1.84102 
1.84354 1.84607 1.84859 1.85111 1.85356 1.85388 1.8542 1.85452 1.85483 
1.85515 1.85547 1.85579 1.85611 1.85642 1.85674 1.85706 1.85738 1.8577 
1.85801 1.85833 1.85865 1.85897 1.85929 1.8596 1.85992 1.86232 1.86541 
1.86849 1.87158 1.87466 1.87775 1.88083 1.88392 1.88701 1.89009 1.89318 
1.89626 1.89935 1.90243 1.90552 1.9086 1.91169 1.91478 1.91786 1.92095 
1.92669 1.93545 1.94422 1.95298 1.96175 1.97051 1.97928 1.98804 1.99681 
2.00557 2.01434 2.0231 2.03187 2.04063 2.0494 2.05816 2.06693 2.07569 
2.08446 2.09322 2.10006 2.09819 2.09632 2.09445 2.09258 2.09071 2.08884 
2.08697 2.0851 2.08323 2.08136 2.07949 2.07761 2.07574 2.07387 2.072 
2.07013 2.06826 2.06639 2.06452 2.06265 2.0573 2.05153 2.04576 2.03999 
2.03422 2.02845 2.02268 2.01691 2.01114 2.00537 1.99959 1.99382 1.98805 
1.98228 1.97651 1.97074 1.96497 1.9592 1.95343 1.94766 1.95238 1.96396 
1.97554 1.98712 1.9987 2.01028 2.02185 2.03343 2.04501 2.05659 2.06817 
2.07975 2.09133 2.10291 2.11449 2.12607 2.13765 2.14923 2.16081 2.17238 
2.18324 2.19253 2.20182 2.21112 2.22041 2.2297 2.23899 2.24828 2.25757 
2.26687 2.27616 2.28545 2.29474 2.30403 2.31332 2.32261 2.33191 2.3412 
2.35049 2.35978 2.36796 2.34077 2.31357 2.28637 2.25918 2.23198 2.20479 
2.17759 2.15039 2.1232 2.096 2.0688 2.04161 2.01441 1.98722 1.96002 
1.93282 1.90563 1.87843 1.85123 1.82404 1.80777 1.79514 1.7825 1.76987 
1.75723 1.7446 1.73196 1.71933 1.70669 1.69405 1.68142 1.66878 1.65615 
1.64351 1.63088 1.61824 1.60561 1.59297 1.58034 1.5677 1.56377 1.5694 
1.57503 1.58065 1.58628 1.59191 1.59753 1.60316 1.60879 1.61441 1.62004 
1.62567 1.6313 1.63692 1.64255 1.64818 1.6538 1.65943 1.66506 1.67068 
1.67983 1.70238 1.72493 1.74748 1.77003 1.79258 1.81513 1.83768 1.86023 
1.88278 1.90533 1.92788 1.95043 1.97298 1.99553 2.01808 2.04063 2.06318 
2.08573 2.10829 2.13084 2.13823 2.14462 2.151 2.15739 2.16377 2.17016 
2.17654 2.18293 2.18931 2.1957 2.20208 2.20846 2.21485 2.22123 2.22762 
2.234 2.24039 2.24677 2.25316 2.25954 2.25036 2.23328 2.21621 2.19913 
2.18205 2.16497 2.1479 2.13082 2.11374 2.09667 2.07959 2.06251 2.04543 
2.02836 2.01128 1.9942 1.97712 1.96005 1.94297 1.92589 1.92017 1.93269 
1.9452 1.95772 1.97023 1.98274 1.99526 2.00777 2.02029 2.0328 2.04531 
2.05783 2.07034 2.08286 2.09537 2.10789 2.1204 2.13291 2.14543 2.15794 
2.17033 2.18167 2.19301 2.20434 2.21568 2.22702 2.23836 2.24969 2.26103 
2.27237 2.28371 2.29504 2.30638 2.31772 2.32906 2.34039 2.35173 2.36307 
2.3744 2.38574 2.39708 2.39396 2.38772 2.38149 2.37525 2.36901 2.36278 
2.35654 2.35031 2.34407 2.33783 2.3316 2.32536 2.31912 2.31289 2.30665 
2.30042 2.29418 2.28794 2.28171 2.27547 2.27223 2.27152 2.2708 2.27009 
2.26937 2.26866 2.26794 2.26723 2.26651 2.2658 2.26509 2.26437 2.26366 
2.26294 2.26223 2.26151 2.2608 2.26008 2.25937 2.25865 2.26065 2.27004 
2.27944 2.28883 2.29823 2.30763 2.31702 2.32642 2.33581 2.34521 2.35461 
2.364 2.3734 2.38279 2.39219 2.40159 2.41098 2.42038 2.42977 2.43917 
2.44857 2.45793 2.46729 2.47665 2.48601 2.49538 2.50474 2.5141 2.52346 
2.53282 2.54219 2.55155 2.56091 2.57027 2.57963 2.58899 2.59836 2.60772 
2.61708 2.62644 2.6358 2.64027 2.64285 2.64542 2.64799 2.65057 2.65314 
2.65571 2.65829 2.66086 2.66343 2.66601 2.66858 2.67115 2.67373 2.6763 
2.67887 2.68145 2.68402 2.68659 2.68917 2.68348 2.66726 2.65103 2.63481 
2.61859 2.60237 2.58614 2.56992 2.5537 2.53748 2.52125 2.50503 2.48881 
2.47259 2.45636 2.44014 2.42392 2.40769 2.39147 2.37525 2.36073 2.35563 
2.35054 2.34544 2.34035 2.33525 2.33015 2.32506 2.31996 2.31487 2.30977 
2.30467 2.29958 2.29448 2.28938 2.28429 2.27919 2.2741 2.269 2.2639 
2.25881 2.26559 2.27444 2.28329 2.29215 2.301 2.30985 2.31871 2.32756 
2.33641 2.34527 2.35412 2.36297 2.37183 2.38068 2.38953 2.39839 2.40724 
2.4161 2.42495 2.4338 2.44611 2.46147 2.47684 2.4922 2.50757 2.52293 
2.5383 2.55366 2.56903 2.58439 2.59976 2.61513 2.63049 2.64586 2.66122 
2.67659 2.69195 2.70732 2.72268 2.73805 2.75512 2.77236 2.78961 2.80685 
2.82409 2.84134 2.85858 2.87583 2.89307 2.91031 2.92756 2.9448 2.96205 
2.97929 2.99654 3.01378 3.03102 3.04827 3.06551 3.08276 3.1 
TEXTURE_COORDINATES TCoords 2 float
0 0 0.000783699 0 0.0015674 0 0.0023511 0 0.0031348 
0 0.0039185 0 0.00470219 0 0.00548589 0 0.00626959 0 
0.00705329 0 0.00783699 0 0.00862069 0 0.00940439 0 0.0101881 
0 0.0109718 0 0.0117555 0 0.0125392 0 0.0133229 0 
0.0141066 0 0.0148903 0 0.015674 0 0.0164577 0 0.0172414 
0 0.0180251 0 0.0188088 0 0.0195925 0 0.0203762 0 
0.0211599 0 0.0219436 0 0.0227273 0 0.023511 0 0.0242947 
0 0.0250784 0 0.0258621 0 0.0266458 0 0.0274295 0 
0.0282132 0 0.0289969 0 0.0297806 0 0.0305643 0 0.031348 
0 0.0321317 0 0.0329154 0 0.0336991 0 0.0344828 0 
0.0352665 0 0.0360502 0 0.0368339 0 0.0376176 0 0.0384013 
0 0.039185 0 0.0399687 0 0.0407524 0 0.0415361 0 
0.0423197 0 0.0431034 0 0.0438871 0 0.0446708 0 0.0454545 
0 0.0462382 0 0.0470219 0 0.0478056 0 0.0485893 0 
0.049373 0 0.0501567 0 0.0509404 0 0.0517241 0 0.0525078 
0 0.0532915 0 0.0540752 0 0.0548589 0 0.0556426 0 
0.0564263 0 0.05721 0 0.0579937 0 0.0587774 0 0.0595611 
0 0.0603448 0 0.0611285 0 0.0619122 0 0.0626959 0 
0.0634796 0 0.0642633 0 0.065047 0 0.0658307 0 0.0666144 
0 0.0673981 0 0.0681818 0 0.0689655 0 0.0697492 0 
0.0705329 0 0.0713166 0 0.0721003 0 0.072884 0 0.0736677 
0 0.0744514 0 0.0752351 0 0.0760188 0 0.0768025 0 
0.0775862 0 0.0783699 0 0.0791536 0 0.0799373 0 0.080721 
0 0.0815047 0 0.0822884 0 0.0830721 0 0.0838558 0 
0.0846395 0 0.0854232 0 0.0862069 0 0.0869906 0 0.0877743 
0 0.088558 0 0.0893417 0 0.0901254 0 0.0909091 0 
0.0916928 0 0.0924765 0 0.0932602 0 0.0940439 0 0.0948276 
0 0.0956113 0 0.096395 0 0.0971787 0 0.0979624 0 
0.0987461 0 0.0995298 0 0.100313 0 0.101097 0 0.101881 
0 0.102665 0 0.103448 0 0.104232 0 0.105016 0 
0.105799 0 0.106583 0 0.107367 0 0.10815 0 0.108934 
0 0.109718 0 0.110502 0 0.111285 0 0.112069 0 
0.112853 0 0.113636 0 0.11442 0 0.115204 0 0.115987 
0 0.116771 0 0.117555 0 0.118339 0 0.119122 0 
0.119906 0 0.12069 0 0.121473 0 0.122257 0 0.123041 
0 0.123824 0 0.124608 0 0.125392 0 0.126176 0 
0.126959 0 0.127743 0 0.128527 0 0.12931 0 0.130094 
0 0.130878 0 0.131661 0 0.132445 0 0.133229 0 
0.134013 0 0.134796 0 0.13558 0 0.136364 0 0.137147 
0 0.137931 0 0.138715 0 0.139498 0 0.140282 0 
0.141066 0 0.14185 0 0.142633 0 0.143417 0 0.144201 
0 0.144984 0 0.145768 0 0.146552 0 0.147335 0 
0.148119 0 0.148903 0 0.149687 0 0.15047 0 0.151254 
0 0.152038 0 0.152821 0 0.153605 0 0.154389 0 
0.155172 0 0.155956 0 0.15674 0 0.157524 0 0.158307 
0 0.159091 0 0.159875 0 0.160658 0 0.161442 0 
0.162226 0 0.163009 0 0.163793 0 0.164577 0 0.16536 
0 0.166144 0 0.166928 0 0.167712 0 0.168495 0 
0.169279 0 0.170063 0 0.170846 0 0.17163 0 0.172414 
0 0.173197 0 0.173981 0 0.174765 0 0.175549 0 
0.176332 0 0.177116 0 0.1779 0 0.178683 0 0.179467 
0 0.180251 0 0.181034 0 0.181818 0 0.182602 0 
0.183386 0 0.184169 0 0.184953 0 0.185737 0 0.18652 
0 0.187304 0 0.188088 0 0.188871 0 0.189655 0 
0.190439 0 0.191223 0 0.192006 0 0.19279 0 0.193574 
0 0.194357 0 0.195141 0 0.195925 0 0.196708 0 
0.197492 0 0.198276 0 0.19906 0 0.199843 0 0.200627 
0 0.201411 0 0.202194 0 0.202978 0 0.203762 0 
0.204545 0 0.205329 0 0.206113 0 0.206897 0 0.20768 
0 0.208464 0 0.209248 0 0.210031 0 0.210815 0 
0.211599 0 0.212382 0 0.213166 0 0.21395 0 0.214734 
0 0.215517 0 0.216301 0 0.217085 0 0.217868 0 
0.218652 0 0.219436 0 0.220219 0 0.221003 0 0.221787 
0 0.222571 0 0.223354 0 0.224138 0 0.224922 0 
0.225705 0 0.226489 0 0.227273 0 0.228056 0 0.22884 
0 0.229624 0 0.230408 0 0.231191 0 0.231975 0 
0.232759 0 0.233542 0 0.234326 0 0.23511 0 0.235893 
0 0.236677 0 0.237461 0 0.238245 0 0.239028 0 
0.239812 0 0.240596 0 0.241379 0 0.242163 0 0.242947 
0 0.24373 0 0.244514 0 0.245298 0 0.246082 0 
0.246865 0 0.247649 0 0.248433 0 0.249216 0 0.25 
0 0.250784 0 0.251567 0 0.252351 0 0.253135 0 
0.253918 0 0.254702 0 0.255486 0 0.25627 0 0.257053 
0 0.257837 0 0.258621 0 0.259404 0 0.260188 0 
0.260972 0 0.261755 0 0.262539 0 0.263323 0 0.264107 
0 0.26489 0 0.265674 0 0.266458 0 0.267241 0 
0.268025 0 0.268809 0 0.269592 0 0.270376 0 0.27116 
0 0.271944 0 0.272727 0 0.273511 0 0.274295 0 
0.275078 0 0.275862 0 0.276646 0 0.277429 0 0.278213 
0 0.278997 0 0.279781 0 0.280564 0 0.281348 0 
0.282132 0 0.282915 0 0.283699 0 0.284483 0 0.285266 
0 0.28605 0 0.286834 0 0.287618 0 0.288401 0 
0.289185 0 0.289969 0 0.290752 0 0.291536 0 0.29232 
0 0.293103 0 0.293887 0 0.294671 0 0.295455 0 
0.296238 0 0.297022 0 0.297806 0 0.298589 0 0.299373 
0 0.300157 0 0.30094 0 0.301724 0 0.302508 0 
0.303292 0 0.304075 0 0.304859 0 0.305643 0 0.306426 
0 0.30721 0 0.307994 0 0.308777 0 0.309561 0 
0.310345 0 0.311129 0 0.311912 0 0.312696 0 0.31348 
0 0.314263 0 0.315047 0 0.315831 0 0.316614 0 
0.317398 0 0.318182 0 0.318966 0 0.319749 0 0.320533 
0 0.321317 0 0.3221 0 0.322884 0 0.323668 0 
0.324451 0 0.325235 0 0.326019 0 0.326803 0 0.327586 
0 0.32837 0 0.329154 0 0.329937 0 0.330721 0 
0.331505 0 0.332288 0 0.333072 0 0.333856 0 0.334639 
0 0.335423 0 0.336207 0 0.336991 0 0.337774 0 
0.338558 0 0.339342 0 0.340125 0 0.340909 0 0.341693 
0 0.342476 0 0.34326 0 0.344044 0 0.344828 0 
0.345611 0 0.346395 0 0.347179 0 0.347962 0 0.348746 
0 0.34953 0 0.350313 0 0.351097 0 0.351881 0 
0.352665 0 0.353448 0 0.354232 0 0.355016 0 0.355799 
0 0.356583 0 0.357367 0 0.35815 0 0.358934 0 
0.359718 0 0.360502 0 0.361285 0 0.362069 0 0.362853 
0 0.363636 0 0.36442 0 0.365204 0 0.365987 0 
0.366771 0 0.367555 0 0.368339 0 0.369122 0 0.369906 
0 0.37069 0 0.371473 0 0.372257 0 0.373041 0 
0.373824 0 0.374608 0 0.375392 0 0.376176 0 0.376959 
0 0.377743 0 0.378527 0 0.37931 0 0.380094 0 
0.380878 0 0.381661 0 0.382445 0 0.383229 0 0.384013 
0 0.384796 0 0.38558 0 0.386364 0 0.387147 0 
0.387931 0 0.388715 0 0.389498 0 0.390282 0 0.391066 
0 0.39185 0 0.392633 0 0.393417 0 0.394201 0 
0.394984 0 0.395768 0 0.396552 0 0.397335 0 0.398119 
0 0.398903 0 0.399687 0 0.40047 0 0.401254 0 
0.402038 0 0.402821 0 0.403605 0 0.404389 0 0.405172 
0 0.405956 0 0.40674 0 0.407524 0 0.408307 0 
0.409091 0 0.409875 0 0.410658 0 0.411442 0 0.412226 
0 0.413009 0 0.413793 0 0.414577 0 0.415361 0 
0.416144 0 0.416928 0 0.417712 0 0.418495 0 0.419279 
0 0.420063 0 0.420846 0 0.42163 0 0.422414 0 
0.423197 0 0.423981 0 0.424765 0 0.425549 0 0.426332 
0 0.427116 0 0.4279 0 0.428683 0 0.429467 0 
0.430251 0 0.431034 0 0.431818 0 0.432602 0 0.433386 
0 0.434169 0 0.434953 0 0.435737 0 0.43652 0 
0.437304 0 0.438088 0 0.438871 0 0.439655 0 0.440439 
0 0.441223 0 0.442006 0 0.44279 0 0.443574 0 
0.444357 0 0.445141 0 0.445925 0 0.446708 0 0.447492 
0 0.448276 0 0.44906 0 0.449843 0 0.450627 0 
0.451411 0 0.452194 0 0.452978 0 0.453762 0 0.454545 
0 0.455329 0 0.456113 0 0.456897 0 0.45768 0 
0.458464 0 0.459248 0 0.460031 0 0.460815 0 0.461599 
0 0.462382 0 0.463166 0 0.46395 0 0.464734 0 
0.465517 0 0.466301 0 0.467085 0 0.467868 0 0.468652 
0 0.469436 0 0.470219 0 0.471003 0 0.471787 0 
0.472571 0 0.473354 0 0.474138 0 0.474922 0 0.475705 
0 0.476489 0 0.477273 0 0.478056 0 0.47884 0 
0.479624 0 0.480408 0 0.481191 0 0.481975 0 0.482759 
0 0.483542 0 0.484326 0 0.48511 0 0.485893 0 
0.486677 0 0.487461 0 0.488245 0 0.489028 0 0.489812 
0 0.490596 0 0.491379 0 0.492163 0 0.492947 0 
0.49373 0 0.494514 0 0.495298 0 0.496082 0 0.496865 
0 0.497649 0 0.498433 0 0.499216 0 0.5 0 
0.500784 0 0.501567 0 0.502351 0 0.503135 0 0.503918 
0 0.504702 0 0.505486 0 0.50627 0 0.507053 0 
0.507837 0 0.508621 0 0.509404 0 0.510188 0 0.510972 
0 0.511755 0 0.512539 0 0.513323 0 0.514107 0 
0.51489 0 0.515674 0 0.516458 0 0.517241 0 0.518025 
0 0.518809 0 0.519592 0 0.520376 0 0.52116 0 
0.521944 0 0.522727 0 0.523511 0 0.524295 0 0.525078 
0 0.525862 0 0.526646 0 0.527429 0 0.528213 0 
0.528997 0 0.529781 0 0.530564 0 0.531348 0 0.532132 
0 0.532915 0 0.533699 0 0.534483 0 0.535266 0 
0.53605 0 0.536834 0 0.537618 0 0.538401 0 0.539185 
0 0.539969 0 0.540752 0 0.541536 0 0.54232 0 
0.543103 0 0.543887 0 0.544671 0 0.545455 0 0.546238 
0 0.547022 0 0.547806 0 0.548589 0 0.549373 0 
0.550157 0 0.55094 0 0.551724 0 0.552508 0 0.553292 
0 0.554075 0 0.554859 0 0.555643 0 0.556426 0 
0.55721 0 0.557994 0 0.558777 0 0.559561 0 0.560345 
0 0.561128 0 0.561912 0 0.562696 0 0.56348 0 
0.564263 0 0.565047 0 0.565831 0 0.566614 0 0.567398 
0 0.568182 0 0.568965 0 0.569749 0 0.570533 0 
0.571317 0 0.5721 0 0.572884 0 0.573668 0 0.574451 
0 0.575235 0 0.576019 0 0.576802 0 0.577586 0 
0.57837 0 0.579154 0 0.579937 0 0.580721 0 0.581505 
0 0.582288 0 0.583072 0 0.583856 0 0.584639 0 
0.585423 0 0.586207 0 0.586991 0 0.587774 0 0.588558 
0 0.589342 0 0.590125 0 0.590909 0 0.591693 0 
0.592476 0 0.59326 0 0.594044 0 0.594828 0 0.595611 
0 0.596395 0 0.597179 0 0.597962 0 0.598746 0 
0.59953 0 0.600313 0 0.601097 0 0.601881 0 0.602665 
0 0.603448 0 0.604232 0 0.605016 0 0.605799 0 
0.606583 0 0.607367 0 0.60815 0 0.608934 0 0.609718 
0 0.610502 0 0.611285 0 0.612069 0 0.612853 0 
0.613636 0 0.61442 0 0.615204 0 0.615987 0 0.616771 
0 0.617555 0 0.618339 0 0.619122 0 0.619906 0 
0.62069 0 0.621473 0 0.622257 0 0.623041 0 0.623824 
0 0.624608 0 0.625392 0 0.626176 0 0.626959 0 
0.627743 0 0.628527 0 0.62931 0 0.630094 0 0.630878 
0 0.631661 0 0.632445 0 0.633229 0 0.634013 0 
0.634796 0 0.63558 0 0.636364 0 0.637147 0 0.637931 
0 0.638715 0 0.639498 0 0.640282 0 0.641066 0 
0.64185 0 0.642633 0 0.643417 0 0.644201 0 0.644984 
0 0.645768 0 0.646552 0 0.647335 0 0.648119 0 
0.648903 0 0.649687 0 0.65047 0 0.651254 0 0.652038 
0 0.652821 0 0.653605 0 0.654389 0 0.655172 0 
0.655956 0 0.65674 0 0.657524 0 0.658307 0 0.659091 
0 0.659875 0 0.660658 0 0.661442 0 0.662226 0 
0.663009 0 0.663793 0 0.664577 0 0.665361 0 0.666144 
0 0.666928 0 0.667712 0 0.668495 0 0.669279 0 
0.670063 0 0.670846 0 0.67163 0 0.672414 0 0.673198 
0 0.673981 0 0.674765 0 0.675549 0 0.676332 0 