# vtk DataFile Version 4.2
vtk output
ASCII
DATASET POLYDATA
POINTS 1277 float
0 0 0 -0.00363286 0.0012011 0.00144897 -0.0142271 0.00469863 0.00568381 
-0.031326 0.0103339 0.0125364 -0.0544733 0.0179483 0.0218386 -0.0832122 0.027383 0.0334224 
-0.117086 0.0384795 0.0471195 -0.155639 0.0510791 0.0627619 -0.198413 0.0650231 0.0801814 
-0.244953 0.0801528 0.09921 -0.294802 0.0963095 0.11968 -0.347503 0.113335 0.141422 
-0.4026 0.13107 0.164269 -0.459636 0.149355 0.188052 -0.518155 0.168034 0.212604 
-0.5777 0.186946 0.237757 -0.637815 0.205933 0.263341 -0.698042 0.224836 0.28919 
-0.757926 0.243497 0.315135 -0.817009 0.261757 0.341007 -0.874836 0.279457 0.366639 
-0.93095 0.29644 0.391863 -0.985042 0.312595 0.416563 -1.03718 0.327945 0.440758 
-1.08751 0.342534 0.464489 -1.13616 0.356403 0.487799 -1.18327 0.369596 0.510727 
-1.22896 0.382155 0.533316 -1.27338 0.394123 0.555607 -1.31666 0.405543 0.57764 
-1.35894 0.416458 0.599458 -1.40034 0.426911 0.621102 -1.44101 0.436943 0.642613 
-1.48108 0.4466 0.664031 -1.52068 0.455922 0.6854 -1.55995 0.464952 0.706759 
-1.59903 0.473735 0.72815 -1.63804 0.482312 0.749614 -1.67713 0.490726 0.771194 
-1.71643 0.49902 0.792929 -1.75606 0.507237 0.814861 -1.79618 0.515418 0.837032 
-1.83682 0.52358 0.859455 -1.87797 0.531705 0.882117 -1.91959 0.539779 0.905005 
-1.96165 0.547783 0.928102 -2.00411 0.555702 0.951395 -2.04694 0.563517 0.974869 
-2.09011 0.571213 0.998508 -2.13358 0.578772 1.0223 -2.17733 0.586178 1.04622 
-2.22131 0.593413 1.07027 -2.2655 0.600462 1.09443 -2.30987 0.607306 1.11867 
-2.35437 0.61393 1.143 -2.39898 0.620317 1.16738 -2.44367 0.626448 1.19181 
-2.48839 0.632309 1.21628 -2.53312 0.637882 1.24076 -2.57783 0.643149 1.26525 
-2.62248 0.648095 1.28973 -2.66704 0.652702 1.31417 -2.71148 0.656958 1.33859 
-2.75582 0.660855 1.36296 -2.80005 0.664392 1.38728 -2.8442 0.667562 1.41157 
-2.88827 0.670361 1.4358 -2.93227 0.672786 1.45999 -2.9762 0.674833 1.48413 
-3.02009 0.676495 1.50821 -3.06393 0.67777 1.53224 -3.10773 0.678654 1.55621 
-3.15151 0.679141 1.58013 -3.19528 0.679227 1.60398 -3.23904 0.678908 1.62777 
-3.2828 0.678181 1.65149 -3.32657 0.677039 1.67515 -3.37037 0.67548 1.69874 
-3.41419 0.673499 1.72226 -3.45805 0.671091 1.7457 -3.50197 0.668252 1.76907 
-3.54593 0.664979 1.79236 -3.58997 0.661265 1.81558 -3.63406 0.657103 1.8387 
-3.67821 0.652485 1.86173 -3.72241 0.6474 1.88465 -3.76664 0.641841 1.90746 
-3.81091 0.635797 1.93015 -3.8552 0.629261 1.95271 -3.8995 0.622223 1.97512 
-3.94382 0.614674 1.99739 -3.98814 0.606606 2.0195 -4.03246 0.598009 2.04144 
-4.07676 0.588874 2.0632 -4.12104 0.579193 2.08478 -4.1653 0.568956 2.10617 
-4.20952 0.558154 2.12735 -4.2537 0.54678 2.14832 -4.29784 0.534822 2.16907 
-4.34192 0.522273 2.18959 -4.38593 0.509124 2.20988 -4.42987 0.495365 2.22991 
-4.47374 0.480989 2.24969 -4.51752 0.465993 2.26921 -4.56121 0.450381 2.28846 
-4.60479 0.434156 2.30743 -4.64827 0.41732 2.32613 -4.69163 0.399877 2.34453 
-4.73486 0.38183 2.36264 -4.77795 0.363181 2.38046 -4.82091 0.343934 2.39797 
-4.86371 0.324092 2.41517 -4.90636 0.303658 2.43205 -4.94884 0.282634 2.44861 
-4.99114 0.261024 2.46484 -5.03326 0.238832 2.48073 -5.07519 0.216059 2.49628 
-5.11691 0.192709 2.51149 -5.15844 0.168784 2.52634 -5.19974 0.144289 2.54084 
-5.24082 0.119226 2.55497 -5.28167 0.0935978 2.56873 -5.32228 0.0674077 2.58211 
-5.36264 0.0406631 2.59512 -5.40276 0.0133768 2.60774 -5.44263 -0.0144383 2.62 
-5.48226 -0.042769 2.63188 -5.52163 -0.0716024 2.64339 -5.56076 -0.100925 2.65454 
-5.59963 -0.130725 2.66532 -5.63825 -0.160988 2.67575 -5.67662 -0.191702 2.68581 
-5.71474 -0.222853 2.69553 -5.75261 -0.254429 2.70488 -5.79022 -0.286417 2.71389 
-5.82757 -0.318803 2.72255 -5.86467 -0.351574 2.73087 -5.90151 -0.384718 2.73885 
-5.93809 -0.418221 2.74648 -5.97442 -0.45207 2.75378 -6.01048 -0.486253 2.76075 
-6.04628 -0.520756 2.76738 -6.08183 -0.555566 2.77369 -6.11711 -0.590672 2.77967 
-6.15214 -0.626062 2.78533 -6.18692 -0.661727 2.79068 -6.22146 -0.697656 2.79572 
-6.25577 -0.73384 2.80045 -6.28985 -0.770268 2.80489 -6.32371 -0.80693 2.80903 
-6.35737 -0.843817 2.81288 -6.39081 -0.880917 2.81645 -6.42406 -0.918222 2.81974 
-6.45712 -0.95572 2.82276 -6.49 -0.993402 2.82551 -6.5227 -1.03126 2.828 
-6.55523 -1.06928 2.83024 -6.58759 -1.10745 2.83222 -6.61981 -1.14577 2.83396 
-6.65187 -1.18422 2.83545 -6.68379 -1.22279 2.83671 -6.71558 -1.26148 2.83774 
-6.74724 -1.30027 2.83855 -6.77878 -1.33915 2.83913 -6.81021 -1.37812 2.8395 
-6.84153 -1.41717 2.83965 -6.87276 -1.45629 2.83959 -6.9039 -1.49547 2.83932 
-6.93496 -1.53472 2.83884 -6.96595 -1.57401 2.83816 -6.99688 -1.61335 2.83727 
-7.02775 -1.65273 2.83618 -7.05857 -1.69213 2.83489 -7.08936 -1.73156 2.8334 
-7.12011 -1.77101 2.83172 -7.15085 -1.81046 2.82984 -7.18156 -1.84992 2.82778 
-7.21228 -1.88938 2.82552 -7.24299 -1.92882 2.82308 -7.27371 -1.96824 2.82046 
-7.30445 -2.00764 2.81765 -7.33522 -2.04701 2.81466 -7.36602 -2.08634 2.81149 
-7.39687 -2.12562 2.80815 -7.42776 -2.16485 2.80464 -7.45872 -2.20402 2.80094 
-7.48973 -2.24313 2.79707 -7.52081 -2.28216 2.79302 -7.55197 -2.32111 2.78878 
-7.58321 -2.35997 2.78437 -7.61454 -2.39874 2.77976 -7.64597 -2.4374 2.77498 
-7.6775 -2.47596 2.77 -7.70913 -2.51441 2.76483 -7.74088 -2.55273 2.75948 
-7.77276 -2.59093 2.75393 -7.80475 -2.62899 2.74818 -7.83689 -2.6669 2.74225 
-7.86916 -2.70467 2.73611 -7.90158 -2.74229 2.72978 -7.93416 -2.77974 2.72324 
-7.96689 -2.81702 2.71651 -7.9998 -2.85412 2.70957 -8.03287 -2.89104 2.70242 
-8.06612 -2.92777 2.69507 -8.09956 -2.9643 2.68751 -8.13317 -3.00063 2.67973 
-8.16696 -3.03674 2.67173 -8.20093 -3.07263 2.6635 -8.23509 -3.1083 2.65505 
-8.26944 -3.14373 2.64635 -8.30397 -3.17891 2.63742 -8.33868 -3.21385 2.62825 
-8.37359 -3.24853 2.61882 -8.40868 -3.28295 2.60915 -8.44396 -3.31709 2.59921 
-8.47944 -3.35095 2.58901 -8.51511 -3.38452 2.57855 -8.55097 -3.4178 2.56781 
-8.58703 -3.45078 2.5568 -8.62328 -3.48345 2.5455 -8.65973 -3.5158 2.53392 
-8.69638 -3.54783 2.52205 -8.73323 -3.57952 2.50989 -8.77027 -3.61087 2.49743 
-8.80751 -3.64189 2.48466 -8.84494 -3.67256 2.47159 -8.88255 -3.70288 2.4582 
-8.92032 -3.73285 2.44451 -8.95826 -3.76247 2.43049 -8.99636 -3.79174 2.41616 
-9.03461 -3.82064 2.4015 -9.07301 -3.84919 2.38651 -9.11154 -3.87737 2.37119 
-9.1502 -3.90519 2.35553 -9.18898 -3.93264 2.33953 -9.22788 -3.95972 2.32319 
-9.26689 -3.98642 2.30651 -9.306 -4.01275 2.28947 -9.34521 -4.03869 2.27208 
-9.3845 -4.06426 2.25433 -9.42387 -4.08944 2.23623 -9.46332 -4.11424 2.21775 
-9.50283 -4.13864 2.19891 -9.54241 -4.16265 2.1797 -9.58203 -4.18628 2.16011 
-9.6217 -4.20952 2.14015 -9.66139 -4.23238 2.11982 -9.70111 -4.25487 2.09911 
-9.74084 -4.27699 2.07803 -9.78057 -4.29875 2.05658 -9.8203 -4.32015 2.03475 
-9.86001 -4.3412 2.01256 -9.89969 -4.3619 1.98998 -9.93934 -4.38226 1.96704 
-9.97894 -4.40229 1.94372 -10.0185 -4.42198 1.92003 -10.058 -4.44135 1.89596 
-10.0974 -4.4604 1.87152 -10.1367 -4.47913 1.84671 -10.1759 -4.49755 1.82153 
-10.2151 -4.51567 1.79597 -10.2541 -4.53348 1.77003 -10.293 -4.55101 1.74372 
-10.3318 -4.56824 1.71704 -10.3704 -4.58519 1.68999 -10.4089 -4.60187 1.66256 
-10.4472 -4.61828 1.63477 -10.4854 -4.63444 1.6066 -10.5234 -4.65035 1.57808 
-10.5612 -4.66602 1.54919 -10.5988 -4.68147 1.51993 -10.6363 -4.69669 1.49032 
-10.6735 -4.7117 1.46035 -10.7105 -4.72651 1.43002 -10.7474 -4.74112 1.39934 
-10.784 -4.75555 1.36831 -10.8203 -4.7698 1.33692 -10.8565 -4.78389 1.30519 
-10.8924 -4.79781 1.27311 -10.928 -4.81158 1.24069 -10.9634 -4.82522 1.20792 
-10.9985 -4.83872 1.17481 -11.0333 -4.85209 1.14136 -11.0679 -4.86535 1.10757 
-11.1022 -4.87851 1.07345 -11.1361 -4.89156 1.039 -11.1698 -4.90453 1.00422 
-11.2031 -4.91741 0.969105 -11.2362 -4.93022 0.93367 -11.2689 -4.94297 0.897913 
-11.3013 -4.95565 0.861838 -11.3333 -4.96829 0.825448 -11.3651 -4.98089 0.788744 
-11.3964 -4.99346 0.75173 -11.4274 -5.006 0.714408 -11.458 -5.01853 0.676782 
-11.4883 -5.03105 0.638855 -11.5182 -5.04357 0.600628 -11.5477 -5.0561 0.562104 
-11.5768 -5.06865 0.523288 -11.6055 -5.08122 0.484181 -11.6338 -5.09383 0.444785 
-11.6617 -5.10648 0.405105 -11.6891 -5.11918 0.365143 -11.7162 -5.13193 0.324901 
-11.7428 -5.14476 0.284386 -11.769 -5.15765 0.243603 -11.7947 -5.17062 0.202557 
-11.82 -5.18367 0.161254 -11.8448 -5.19681 0.119699 -11.8691 -5.21005 0.0778993 
-11.893 -5.22338 0.0358589 -11.9164 -5.23683 -0.00641619 -11.9392 -5.25038 -0.0489204 
-11.9616 -5.26405 -0.0916481 -11.9835 -5.27785 -0.134594 -12.0049 -5.29177 -0.177752 
-12.0258 -5.30583 -0.221117 -12.0462 -5.32004 -0.264683 -12.066 -5.33439 -0.308444 
-12.0853 -5.34889 -0.352396 -12.104 -5.36355 -0.396532 -12.1222 -5.37838 -0.440847 
-12.1398 -5.39338 -0.485336 -12.1569 -5.40856 -0.529992 -12.1734 -5.42392 -0.574807 
-12.1893 -5.43946 -0.619772 -12.2047 -5.45518 -0.664879 -12.2195 -5.47108 -0.710118 
-12.2337 -5.48718 -0.75548 -12.2473 -5.50345 -0.800956 -12.2603 -5.51992 -0.846537 
-12.2728 -5.53658 -0.892214 -12.2846 -5.55343 -0.937978 -12.2958 -5.57047 -0.983819 
-12.3065 -5.58771 -1.02973 -12.3165 -5.60515 -1.0757 -12.3259 -5.62278 -1.12172 
-12.3348 -5.64061 -1.16778 -12.343 -5.65865 -1.21388 -12.3505 -5.67689 -1.26 
-12.3575 -5.69533 -1.30613 -12.3638 -5.71397 -1.35227 -12.3695 -5.73283 -1.3984 
-12.3746 -5.75189 -1.44453 -12.379 -5.77116 -1.49063 -12.3828 -5.79064 -1.5367 
-12.386 -5.81032 -1.58273 -12.3886 -5.8302 -1.62872 -12.3905 -5.85028 -1.67466 
-12.3919 -5.87055 -1.72053 -12.3926 -5.89102 -1.76634 -12.3927 -5.91168 -1.81207 
-12.3922 -5.93252 -1.85771 -12.3911 -5.95355 -1.90326 -12.3894 -5.97476 -1.94871 
-12.3872 -5.99616 -1.99405 -12.3843 -6.01773 -2.03927 -12.3808 -6.03947 -2.08436 
-12.3768 -6.06139 -2.12933 -12.3722 -6.08348 -2.17415 -12.367 -6.10573 -2.21882 
-12.3613 -6.12815 -2.26333 -12.3549 -6.15073 -2.30768 -12.348 -6.17347 -2.35185 
-12.3406 -6.19637 -2.39585 -12.3326 -6.21942 -2.43966 -12.324 -6.24263 -2.48328 
-12.3149 -6.26598 -2.52671 -12.3053 -6.28947 -2.56994 -12.2951 -6.31311 -2.61298 
[...]
CELL_DATA 1
FIELD FieldData 2
Length 1 1 double
63.855421919 
Tortuosity 1 1 double
1.2712146884 
POINT_DATA 1277
SCALARS MaximumInscribedSphereRadius float
LOOKUP_TABLE default
0.93 0.939874 0.949747 0.959621 0.969495 0.979368 0.989242 0.999115 1.00899 
1.01886 1.02874 1.03861 1.04848 1.05836 1.06823 1.0781 1.08798 1.09785 
1.10773 1.1176 1.12747 1.13595 1.13625 1.13654 1.13684 1.13714 1.13743 
1.13773 1.13802 1.13832 1.13861 1.13891 1.1392 1.1395 1.1398 1.14009 
1.14039 1.14068 1.14098 1.14127 1.14157 1.13787 1.12937 1.12088 1.11238 
1.10389 1.09539 1.08689 1.0784 1.0699 1.06141 1.05291 1.04441 1.03592 
1.02742 1.01893 1.01043 1.00193 0.993438 0.984942 0.976447 0.969187 0.967236 
0.965285 0.963334 0.961384 0.959433 0.957482 0.955531 0.95358 0.95163 0.949679 
0.947728 0.945777 0.943826 0.941876 0.939925 0.937974 0.936023 0.934072 0.932122 
0.930171 0.93 0.93 0.93 0.93 0.93 0.93 0.93 0.93 
0.93 0.93 0.93 0.93 0.93 0.93 0.93 0.93 0.93 
0.93 0.93 0.93 0.931771 0.934459 0.937148 0.939836 0.942524 0.945212 
0.947901 0.950589 0.953277 0.955966 0.958654 0.961342 0.96403 0.966719 0.969407 
0.972095 0.974784 0.977472 0.98016 0.982848 0.989241 1.00074 1.01223 1.02373 
1.03523 1.04672 1.05822 1.06972 1.08121 1.09271 1.10421 1.1157 1.1272 
1.1387 1.15019 1.16169 1.17319 1.18468 1.19618 1.20768 1.21915 1.23048 
1.24181 1.25314 1.26448 1.27581 1.28714 1.29847 1.30981 1.32114 1.33247 
1.34381 1.35514 1.36647 1.3778 1.38914 1.40047 1.4118 1.42313 1.43447 
1.4458 1.45147 1.45655 1.46164 1.46673 1.47182 1.4769 1.48199 1.48708 
1.49217 1.49726 1.50234 1.50743 1.51252 1.51761 1.5227 1.52778 1.53287 
1.53796 1.54305 1.54813 1.54933 1.54828 1.54722 1.54617 1.54512 1.54406 
1.54301 1.54195 1.5409 1.53984 1.53879 1.53774 1.53668 1.53563 1.53457 
1.53352 1.53247 1.53141 1.53036 1.5293 1.52704 1.52264 1.51824 1.51384 
1.50944 1.50504 1.50064 1.49624 1.49184 1.48744 1.48304 1.47864 1.47424 
1.46984 1.46544 1.46104 1.45664 1.45224 1.44784 1.44344 1.44003 1.44576 
1.4515 1.45723 1.46296 1.4687 1.47443 1.48016 1.48589 1.49163 1.49736 
1.50309 1.50883 1.51456 1.52029 1.52603 1.53176 1.53749 1.54323 1.54896 
1.55469 1.55853 1.56201 1.56549 1.56897 1.57245 1.57593 1.5794 1.58288 
1.58636 1.58984 1.59332 1.5968 1.60028 1.60376 1.60724 1.61072 1.6142 
1.61768 1.62116 1.62464 1.6245 1.6218 1.6191 1.6164 1.6137 1.611 
1.6083 1.60561 1.60291 1.60021 1.59751 1.59481 1.59211 1.58941 1.58671 
1.58401 1.58131 1.57861 1.57591 1.57321 1.57228 1.575 1.57773 1.58046 
1.58318 1.58591 1.58864 1.59136 1.59409 1.59682 1.59955 1.60227 1.605 
1.60773 1.61045 1.61318 1.61591 1.61863 1.62136 1.62409 1.62626 1.6203 
1.61434 1.60838 1.60243 1.59647 1.59051 1.58455 1.57859 1.57263 1.56668 
1.56072 1.55476 1.5488 1.54284 1.53688 1.53093 1.52497 1.51901 1.51305 
1.50709 1.50332 1.50005 1.49678 1.49351 1.49024 1.48697 1.4837 1.48044 
1.47717 1.4739 1.47063 1.46736 1.46409 1.46082 1.45755 1.45428 1.45102 
1.44775 1.44448 1.44121 1.44262 1.44762 1.45262 1.45762 1.46262 1.46762 
1.47262 1.47762 1.48262 1.48762 1.49262 1.49761 1.50261 1.50761 1.51261 
1.51761 1.52261 1.52761 1.53261 1.53761 1.54116 1.54161 1.54206 1.54252 
1.54297 1.54342 1.54388 1.54433 1.54479 1.54524 1.54569 1.54615 1.5466 
1.54705 1.54751 1.54796 1.54842 1.54887 1.54932 1.54978 1.55024 1.55082 
1.5514 1.55198 1.55256 1.55314 1.55372 1.5543 1.55488 1.55546 1.55604 
1.55662 1.5572 1.55778 1.55836 1.55894 1.55952 1.5601 1.56068 1.56126 
1.56184 1.56112 1.56009 1.55907 1.55804 1.55702 1.55599 1.55496 1.55394 
1.55291 1.55189 1.55086 1.54983 1.54881 1.54778 1.54675 1.54573 1.5447 
1.54368 1.54265 1.54162 1.53562 1.52551 1.5154 1.50529 1.49518 1.48507 
1.47497 1.46486 1.45475 1.44464 1.43453 1.42442 1.41431 1.4042 1.39409 
1.38398 1.37387 1.36376 1.35366 1.34355 1.33845 1.34563 1.3528 1.35998 
1.36716 1.37433 1.38151 1.38868 1.39586 1.40304 1.41021 1.41739 1.42457 
1.43174 1.43892 1.44609 1.45327 1.46045 1.46762 1.4748 1.48226 1.49507 
1.50789 1.5207 1.53352 1.54633 1.55914 1.57196 1.58477 1.59758 1.6104 
1.62321 1.63602 1.64884 1.66165 1.67447 1.68728 1.70009 1.71291 1.72572 
1.73853 1.74398 1.74851 1.75304 1.75758 1.76211 1.76664 1.77117 1.7757 
1.78024 1.78477 1.7893 1.79383 1.79836 1.80289 1.80743 1.81196 1.81649 
1.82102 1.82555 1.83009 1.83542 1.8409 1.84638 1.85186 1.85733 1.86281 
1.86829 1.87377 1.87924 1.88472 1.8902 1.89568 1.90115 1.90663 1.91211 
1.91759 1.92306 1.92854 1.93402 1.9395 1.93837 1.93349 1.92861 1.92374 
1.91886 1.91398 1.9091 1.90423 1.89935 1.89447 1.88959 1.88472 1.87984 
1.87496 1.87008 1.86521 1.86033 1.85545 1.85057 1.8457 1.83873 1.8284 
1.81807 1.80774 1.79741 1.78708 1.77675 1.76642 1.75609 1.74576 1.73543 
1.7251 1.71477 1.70444 1.69411 1.68378 1.67345 1.66312 1.65279 1.64246 
1.63376 1.63692 1.64007 1.64323 1.64639 1.64954 1.6527 1.65585 1.65901 
1.66217 1.66532 1.66848 1.67163 1.67479 1.67794 1.6811 1.68426 1.68741 
1.69057 1.69372 1.69688 1.70374 1.71121 1.71867 1.72614 1.7336 1.74107 
1.74854 1.756 1.76347 1.77093 1.7784 1.78586 1.79333 1.80079 1.80826 
1.81572 1.82319 1.83066 1.83812 1.84559 1.84889 1.84946 1.85002 1.85059 
1.85115 1.85172 1.85228 1.85285 1.85341 1.85398 1.85454 1.85511 1.85567 
1.85624 1.8568 1.85737 1.85793 1.8585 1.85906 1.85963 1.86 1.86 
1.86 1.86 1.86 1.86 1.86 1.86 1.86 1.86 1.86 
1.86 1.86 1.86 1.86 1.86 1.86 1.86 1.86 1.86 
1.86 1.86 1.86 1.86 1.86 1.86 1.86 1.86 1.86 
1.86 1.86 1.86 1.86 1.86 1.86 1.86 1.86 1.86 
1.86 1.86 1.86 1.86153 1.86341 1.8653 1.86719 1.86907 1.87096 
1.87284 1.87473 1.87662 1.8785 1.88039 1.88228 1.88416 1.88605 1.88793 
1.88982 1.89171 1.89359 1.89548 1.89737 1.90204 1.90908 1.91612 1.92316 
1.9302 1.93724 1.94428 1.95132 1.95836 1.9654 1.97244 1.97948 1.98652 
1.99356 2.0006 2.00764 2.01468 2.02172 2.02876 2.03579 2.04381 2.05436 
2.06492 2.07548 2.08604 2.0966 2.10715 2.11771 2.12827 2.13883 2.14939 
2.15994 2.1705 2.18106 2.19162 2.20218 2.21273 2.22329 2.23385 2.24441 
2.25483 2.25681 2.25879 2.26077 2.26275 2.26473 2.26671 2.26869 2.27067 
2.27265 2.27463 2.27661 2.27859 2.28057 2.28255 2.28453 2.28651 2.28849 
2.29047 2.29245 2.29443 2.28096 2.26266 2.24436 2.22606 2.20776 2.18947 
2.17117 2.15287 2.13457 2.11627 2.09798 2.07968 2.06138 2.04308 2.02479 
2.00649 1.98819 1.96989 1.95159 1.9333 1.9228 1.91961 1.91643 1.91325 
1.91007 1.90688 1.9037 1.90052 1.89734 1.89415 1.89097 1.88779 1.8846 
1.88142 1.87824 1.87506 1.87187 1.86869 1.86551 1.86233 1.86 1.86 
1.86 1.86 1.86 1.86 1.86 1.86 1.86 1.86 1.86 
1.86 1.86 1.86 1.86 1.86 1.86 1.86 1.86 1.86 
1.86002 1.86144 1.86285 1.86426 1.86568 1.86709 1.86851 1.86992 1.87133 
1.87275 1.87416 1.87557 1.87699 1.8784 1.87981 1.88123 1.88264 1.88406 
1.88547 1.88688 1.8883 1.89649 1.90687 1.91725 1.92763 1.938 1.94838 
1.95876 1.96914 1.97951 1.98989 2.00027 2.01065 2.02103 2.0314 2.04178 
2.05216 2.06254 2.07292 2.08329 2.09367 2.09399 2.08386 2.07372 2.06359 
2.05345 2.04332 2.03319 2.02305 2.01292 2.00278 1.99265 1.98252 1.97238 
1.96225 1.95211 1.94198 1.93185 1.92171 1.91158 1.90144 1.89063 1.87741 
1.86419 1.85098 1.83776 1.82455 1.81133 1.79811 1.7849 1.77168 1.75846 
1.74525 1.73203 1.71881 1.7056 1.69238 1.67916 1.66595 1.65273 1.63951 
1.6263 1.62985 1.63429 1.63872 1.64315 1.64759 1.65202 1.65646 1.66089 
1.66532 1.66976 1.67419 1.67862 1.68306 1.68749 1.69193 1.69636 1.70079 
1.70523 1.70966 1.7141 1.71875 1.7235 1.72825 1.73301 1.73776 1.74252 
1.74727 1.75203 1.75678 1.76153 1.76629 1.77104 1.7758 1.78055 1.7853 
1.79006 1.79481 1.79957 1.80432 1.80907 1.8146 1.82127 1.82793 1.8346 
1.84126 1.84793 1.85459 1.86126 1.86792 1.87459 1.88125 1.88792 1.89458 
1.90125 1.90791 1.91458 1.92124 1.92791 1.93457 1.94124 1.94856 1.96016 
1.97176 1.98336 1.99496 2.00656 2.01816 2.02976 2.04136 2.05296 2.06456 
2.07616 2.08776 2.09936 2.11096 2.12256 2.13416 2.14576 2.15736 2.16896 
2.18055 2.19154 2.20243 2.21332 2.22421 2.2351 2.24599 2.25688 2.26777 
2.27866 2.28955 2.30044 2.31133 2.32222 2.33311 2.344 2.35488 2.36577 
2.37666 2.38755 2.39844 2.3961 2.38447 2.37285 2.36123 2.3496 2.33798 
2.32636 2.31473 2.30311 2.29149 2.27986 2.26824 2.25661 2.24499 2.23337 
2.22174 2.21012 2.1985 2.18687 2.17525 2.16371 2.15233 2.14095 2.12958 
2.1182 2.10683 2.09545 2.08408 2.0727 2.06133 2.04995 2.03858 2.0272 
2.01583 2.00445 1.99308 1.9817 1.97033 1.95895 1.94758 1.93709 1.94673 
1.95637 1.96602 1.97566 1.98531 1.99495 2.00459 2.01424 2.02388 2.03353 
2.04317 2.05282 2.06246 2.0721 2.08175 2.09139 2.10104 2.11068 2.12032 
2.12997 2.13437 2.13724 2.14012 2.143 2.14587 2.14875 2.15162 2.1545 
2.15738 2.16025 2.16313 2.166 2.16888 2.17176 2.17463 2.17751 2.18038 
2.18326 2.18614 2.18901 2.19373 2.20017 2.20661 2.21306 2.2195 2.22594 
2.23238 2.23882 2.24527 2.25171 2.25815 2.26459 2.27103 2.27747 2.28392 
2.29036 2.2968 2.30324 2.30968 2.31612 2.32192 2.32598 2.33004 2.33409 
2.33815 2.3422 2.34626 2.35032 2.35437 2.35843 2.36249 2.36654 2.3706 
2.37465 2.37871 2.38277 2.38682 2.39088 2.39494 2.39899 2.40249 2.38897 
2.37545 2.36192 2.3484 2.33488 2.32135 2.30783 2.29431 2.28078 2.26726 
2.25373 2.24021 2.22669 2.21316 2.19964 2.18612 2.17259 2.15907 2.14554 
2.13202 2.12483 2.11923 2.11363 2.10803 2.10243 2.09683 2.09123 2.08563 
2.08004 2.07444 2.06884 2.06324 2.05764 2.05204 2.04644 2.04084 2.03524 
2.02964 2.02405 2.01845 2.01706 2.01896 2.02086 2.02276 2.02466 2.02656 
2.02846 2.03036 2.03226 2.03416 2.03606 2.03796 2.03986 2.04176 2.04366 
2.04556 2.04746 2.04936 2.05126 2.05316 2.05596 2.06072 2.06548 2.07024 
2.075 2.07975 2.08451 2.08927 2.09403 2.09879 2.10355 2.10831 2.11307 
2.11783 2.12259 2.12735 2.13211 2.13687 2.14163 2.14638 2.1504 2.14013 
2.12985 2.11957 2.10929 2.09902 2.08874 2.07846 2.06818 2.0579 2.04763 
2.03735 2.02707 2.01679 2.00652 1.99624 1.98596 1.97568 1.96541 1.95513 
1.94485 1.95929 1.98118 2.00307 2.02495 2.04684 2.06873 2.09062 2.1125 
2.13439 2.15628 2.17817 2.20006 2.22194 2.24383 2.26572 2.28761 2.30949 
2.33138 2.35327 2.37516 2.39928 2.42563 2.45197 2.47832 2.50467 2.53102 
2.55736 2.58371 2.61006 2.6364 2.66275 2.6891 2.71544 2.74179 2.76814 
2.79448 2.82083 2.84718 2.87353 2.89987 2.89328 2.87262 2.85195 2.83129 
2.81063 2.78996 2.7693 2.74863 2.72797 2.7073 2.68664 2.66598 2.64531 
2.62465 2.60398 2.58332 2.56266 2.54199 2.52133 2.50066 2.48 
TEXTURE_COORDINATES TCoords 2 float
0 0 0.000783699 0 0.0015674 0 0.0023511 0 0.0031348 
0 0.0039185 0 0.00470219 0 0.00548589 0 0.00626959 0 
0.00705329 0 0.00783699 0 0.00862069 0 0.00940439 0 0.0101881 
0 0.0109718 0 0.0117555 0 0.0125392 0 0.0133229 0 
0.0141066 0 0.0148903 0 0.015674 0 0.0164577 0 0.0172414 
0 0.0180251 0 0.0188088 0 0.0195925 0 0.0203762 0 
0.0211599 0 0.0219436 0 0.0227273 0 0.023511 0 0.0242947 
0 0.0250784 0 0.0258621 0 0.0266458 0 0.0274295 0 
0.0282132 0 0.0289969 0 0.0297806 0 0.0305643 0 0.031348 
0 0.0321317 0 0.0329154 0 0.0336991 0 0.0344828 0 
0.0352665 0 0.0360502 0 0.0368339 0 0.0376176 0 0.0384013 
0 0.039185 0 0.0399687 0 0.0407524 0 0.0415361 0 
0.0423197 0 0.0431034 0 0.0438871 0 0.0446708 0 0.0454545 
0 0.0462382 0 0.0470219 0 0.0478056 0 0.0485893 0 
0.049373 0 0.0501567 0 0.0509404 0 0.0517241 0 0.0525078 
0 0.0532915 0 0.0540752 0 0.0548589 0 0.0556426 0 
0.0564263 0 0.05721 0 0.0579937 0 0.0587774 0 0.0595611 
0 0.0603448 0 0.0611285 0 0.0619122 0 0.0626959 0 
0.0634796 0 0.0642633 0 0.065047 0 0.0658307 0 0.0666144 
0 0.0673981 0 0.0681818 0 0.0689655 0 0.0697492 0 
0.0705329 0 0.0713166 0 0.0721003 0 0.072884 0 0.0736677 
0 0.0744514 0 0.0752351 0 0.0760188 0 0.0768025 0 
0.0775862 0 0.0783699 0 0.0791536 0 0.0799373 0 0.080721 
0 0.0815047 0 0.0822884 0 0.0830721 0 0.0838558 0 
0.0846395 0 0.0854232 0 0.0862069 0 0.0869906 0 0.0877743 
0 0.088558 0 0.0893417 0 0.0901254 0 0.0909091 0 
0.0916928 0 0.0924765 0 0.0932602 0 0.0940439 0 0.0948276 
0 0.0956113 0 0.096395 0 0.0971787 0 0.0979624 0 
0.0987461 0 0.0995298 0 0.100313 0 0.101097 0 0.101881 
0 0.102665 0 0.103448 0 0.104232 0 0.105016 0 
0.105799 0 0.106583 0 0.107367 0 0.10815 0 0.108934 
0 0.109718 0 0.110502 0 0.111285 0 0.112069 0 
0.112853 0 0.113636 0 0.11442 0 0.115204 0 0.115987 
0 0.116771 0 0.117555 0 0.118339 0 0.119122 0 
0.119906 0 0.12069 0 0.121473 0 0.122257 0 0.123041 
0 0.123824 0 0.124608 0 0.125392 0 0.126176 0 
0.126959 0 0.127743 0 0.128527 0 0.12931 0 0.130094 
0 0.130878 0 0.131661 0 0.132445 0 0.133229 0 
0.134013 0 0.134796 0 0.13558 0 0.136364 0 0.137147 
0 0.137931 0 0.138715 0 0.139498 0 0.140282 0 
0.141066 0 0.14185 0 0.142633 0 0.143417 0 0.144201 
0 0.144984 0 0.145768 0 0.146552 0 0.147335 0 
0.148119 0 0.148903 0 0.149687 0 0.15047 0 0.151254 
0 0.152038 0 0.152821 0 0.153605 0 0.154389 0 
0.155172 0 0.155956 0 0.15674 0 0.157524 0 0.158307 
0 0.159091 0 0.159875 0 0.160658 0 0.161442 0 
0.162226 0 0.163009 0 0.163793 0 0.164577 0 0.16536 
0 0.166144 0 0.166928 0 0.167712 0 0.168495 0 
0.169279 0 0.170063 0 0.170846 0 0.17163 0 0.172414 
0 0.173197 0 0.173981 0 0.174765 0 0.175549 0 
0.176332 0 0.177116 0 0.1779 0 0.178683 0 0.179467 
0 0.180251 0 0.181034 0 0.181818 0 0.182602 0 
0.183386 0 0.184169 0 0.184953 0 0.185737 0 0.18652 
0 0.187304 0 0.188088 0 0.188871 0 0.189655 0 
0.190439 0 0.191223 0 0.192006 0 0.19279 0 0.193574 
0 0.194357 0 0.195141 0 0.195925 0 0.196708 0 
0.197492 0 0.198276 0 0.19906 0 0.199843 0 0.200627 
0 0.201411 0 0.202194 0 0.202978 0 0.203762 0 
0.204545 0 0.205329 0 0.206113 0 0.206897 0 0.20768 
0 0.208464 0 0.209248 0 0.210031 0 0.210815 0 
0.211599 0 0.212382 0 0.213166 0 0.21395 0 0.214734 
0 0.215517 0 0.216301 0 0.217085 0 0.217868 0 
0.218652 0 0.219436 0 0.220219 0 0.221003 0 0.221787 
0 0.222571 0 0.223354 0 0.224138 0 0.224922 0 
0.225705 0 0.226489 0 0.227273 0 0.228056 0 0.22884 
0 0.229624 0 0.230408 0 0.231191 0 0.231975 0 
0.232759 0 0.233542 0 0.234326 0 0.23511 0 0.235893 
0 0.236677 0 0.237461 0 0.238245 0 0.239028 0 
0.239812 0 0.240596 0 0.241379 0 0.242163 0 0.242947 
0 0.24373 0 0.244514 0 0.245298 0 0.246082 0 
0.246865 0 0.247649 0 0.248433 0 0.249216 0 0.25 
0 0.250784 0 0.251567 0 0.252351 0 0.253135 0 
0.253918 0 0.254702 0 0.255486 0 0.25627 0 0.257053 
0 0.257837 0 0.258621 0 0.259404 0 0.260188 0 
0.260972 0 0.261755 0 0.262539 0 0.263323 0 0.264107 
0 0.26489 0 0.265674 0 0.266458 0 0.267241 0 
0.268025 0 0.268809 0 0.269592 0 0.270376 0 0.27116 
0 0.271944 0 0.272727 0 0.273511 0 0.274295 0 
0.275078 0 0.275862 0 0.276646 0 0.277429 0 0.278213 
0 0.278997 0 0.279781 0 0.280564 0 0.281348 0 
0.282132 0 0.282915 0 0.283699 0 0.284483 0 0.285266 
0 0.28605 0 0.286834 0 0.287618 0 0.288401 0 
0.289185 0 0.289969 0 0.290752 0 0.291536 0 0.29232 
0 0.293103 0 0.293887 0 0.294671 0 0.295455 0 
0.296238 0 0.297022 0 0.297806 0 0.298589 0 0.299373 
0 0.300157 0 0.30094 0 0.301724 0 0.302508 0 
0.303292 0 0.304075 0 0.304859 0 0.305643 0 0.306426 
0 0.30721 0 0.307994 0 0.308777 0 0.309561 0 
0.310345 0 0.311129 0 0.311912 0 0.312696 0 0.31348 
0 0.314263 0 0.315047 0 0.315831 0 0.316614 0 
0.317398 0 0.318182 0 0.318966 0 0.319749 0 0.320533 
0 0.321317 0 0.3221 0 0.322884 0 0.323668 0 
0.324451 0 0.325235 0 0.326019 0 0.326803 0 0.327586 
0 0.32837 0 0.329154 0 0.329937 0 0.330721 0 
0.331505 0 0.332288 0 0.333072 0 0.333856 0 0.334639 
0 0.335423 0 0.336207 0 0.336991 0 0.337774 0 
0.338558 0 0.339342 0 0.340125 0 0.340909 0 0.341693 
0 0.342476 0 0.34326 0 0.344044 0 0.344828 0 
0.345611 0 0.346395 0 0.347179 0 0.347962 0 0.348746 
0 0.34953 0 0.350313 0 0.351097 0 0.351881 0 
0.352665 0 0.353448 0 0.354232 0 0.355016 0 0.355799 
0 0.356583 0 0.357367 0 0.35815 0 0.358934 0 
0.359718 0 0.360502 0 0.361285 0 0.362069 0 0.362853 
0 0.363636 0 0.36442 0 0.365204 0 0.365987 0 
0.366771 0 0.367555 0 0.368339 0 0.369122 0 0.369906 
0 0.37069 0 0.371473 0 0.372257 0 0.373041 0 
0.373824 0 0.374608 0 0.375392 0 0.376176 0 0.376959 
0 0.377743 0 0.378527 0 0.37931 0 0.380094 0 
0.380878 0 0.381661 0 0.382445 0 0.383229 0 0.384013 
0 0.384796 0 0.38558 0 0.386364 0 0.387147 0 
0.387931 0 0.388715 0 0.389498 0 0.390282 0 0.391066 
0 0.39185 0 0.392633 0 0.393417 0 0.394201 0 
0.394984 0 0.395768 0 0.396552 0 0.397335 0 0.398119 
0 0.398903 0 0.399687 0 0.40047 0 0.401254 0 
0.402038 0 0.402821 0 0.403605 0 0.404389 0 0.405172 
0 0.405956 0 0.40674 0 0.407524 0 0.408307 0 
0.409091 0 0.409875 0 0.410658 0 0.411442 0 0.412226 
0 0.413009 0 0.413793 0 0.414577 0 0.415361 0 
0.416144 0 0.416928 0 0.417712 0 0.418495 0 0.419279 
0 0.420063 0 0.420846 0 0.42163 0 0.422414 0 
0.423197 0 0.423981 0 0.424765 0 0.425549 0 0.426332 
0 0.427116 0 0.4279 0 0.428683 0 0.429467 0 
0.430251 0 0.431034 0 0.431818 0 0.432602 0 0.433386 
0 0.434169 0 0.434953 0 0.435737 0 0.43652 0 
0.437304 0 0.438088 0 0.438871 0 0.439655 0 0.440439 
0 0.441223 0 0.442006 0 0.44279 0 0.443574 0 
0.444357 0 0.445141 0 0.445925 0 0.446708 0 0.447492 
0 0.448276 0 0.44906 0 0.449843 0 0.450627 0 
0.451411 0 0.452194 0 0.452978 0 0.453762 0 0.454545 
0 0.455329 0 0.456113 0 0.456897 0 0.45768 0 
0.458464 0 0.459248 0 0.460031 0 0.460815 0 0.461599 
0 0.462382 0 0.463166 0 0.46395 0 0.464734 0 
0.465517 0 0.466301 0 0.467085 0 0.467868 0 0.468652 
0 0.469436 0 0.470219 0 0.471003 0 0.471787 0 
0.472571 0 0.473354 0 0.474138 0 0.474922 0 0.475705 
0 0.476489 0 0.477273 0 0.478056 0 0.47884 0 
0.479624 0 0.480408 0 0.481191 0 0.481975 0 0.482759 
0 0.483542 0 0.484326 0 0.48511 0 0.485893 0 
0.486677 0 0.487461 0 0.488245 0 0.489028 0 0.489812 
0 0.490596 0 0.491379 0 0.492163 0 0.492947 0 
0.49373 0 0.494514 0 0.495298 0 0.496082 0 0.496865 
0 0.497649 0 0.498433 0 0.499216 0 0.5 0 
0.500784 0 0.501567 0 0.502351 0 0.503135 0 0.503918 
0 0.504702 0 0.505486 0 0.50627 0 0.507053 0 
0.507837 0 0.508621 0 0.509404 0 0.510188 0 0.510972 
0 0.511755 0 0.512539 0 0.513323 0 0.514107 0 
0.51489 0 0.515674 0 0.516458 0 0.517241 0 0.518025 
0 0.518809 0 0.519592 0 0.520376 0 0.52116 0 
0.521944 0 0.522727 0 0.523511 0 0.524295 0 0.525078 
0 0.525862 0 0.526646 0 0.527429 0 0.528213 0 
0.528997 0 0.529781 0 0.530564 0 0.531348 0 0.532132 
0 0.532915 0 0.533699 0 0.534483 0 0.535266 0 
0.53605 0 0.536834 0 0.537618 0 0.538401 0 0.539185 
0 0.539969 0 0.540752 0 0.541536 0 0.54232 0 
0.543103 0 0.543887 0 0.544671 0 0.545455 0 0.546238 
0 0.547022 0 0.547806 0 0.548589 0 0.549373 0 
0.550157 0 0.55094 0 0.551724 0 0.552508 0 0.553292 
0 0.554075 0 0.554859 0 0.555643 0 0.556426 0 
0.55721 0 0.557994 0 0.558777 0 0.559561 0 0.560345 
0 0.561128 0 0.561912 0 0.562696 0 0.56348 0 
0.564263 0 0.565047 0 0.565831 0 0.566614 0 0.567398 
0 0.568182 0 0.568965 0 0.569749 0 0.570533 0 
0.571317 0 0.5721 0 0.572884 0 0.573668 0 0.574451 
0 0.575235 0 0.576019 0 0.576802 0 0.577586 0 
0.57837 0 0.579154 0 0.579937 0 0.580721 0 0.581505 
0 0.582288 0 0.583072 0 0.583856 0 0.584639 0 
0.585423 0 0.586207 0 0.586991 0 0.587774 0 0.588558 
0 0.589342 0 0.590125 0 0.590909 0 0.591693 0 
0.592476 0 0.59326 0 0.594044 0 0.594828 0 0.595611 
0 0.596395 0 0.597179 0 0.597962 0 0.598746 0 
0.59953 0 0.600313 0 0.601097 0 0.601881 0 0.602665 
0 0.603448 0 0.604232 0 0.605016 0 0.605799 0 
0.606583 0 0.607367 0 0.60815 0 0.608934 0 0.609718 
0 0.610502 0 0.611285 0 0.612069 0 0.612853 0 
0.613636 0 0.61442 0 0.615204 0 0.615987 0 0.616771 
0 0.617555 0 0.618339 0 0.619122 0 0.619906 0 
0.62069 0 0.621473 0 0.622257 0 0.623041 0 0.623824 
0 0.624608 0 0.625392 0 0.626176 0 0.626959 0 
0.627743 0 0.628527 0 0.62931 0 0.630094 0 0.630878 
0 0.631661 0 0.632445 0 0.633229 0 0.634013 0 
0.634796 0 0.63558 0 0.636364 0 0.637147 0 0.637931 
0 0.638715 0 0.639498 0 0.640282 0 0.641066 0 
0.64185 0 0.642633 0 0.643417 0 0.644201 0 0.644984 
0 0.645768 0 0.646552 0 0.647335 0 0.648119 0 
0.648903 0 0.649687 0 0.65047 0 0.651254 0 0.652038 
0 0.652821 0 0.653605 0 0.654389 0 0.655172 0 
0.655956 0 0.65674 0 0.657524 0 0.658307 0 0.659091 
0 0.659875 0 0.660658 0 0.661442 0 0.662226 0 
0.663009 0 0.663793 0 0.664577 0 0.665361 0 0.666144 
0 0.666928 0 0.667712 0 0.668495 0 0.669279 0 
0.670063 0 0.670846 0 0.67163 0 0.672414 0 0.673198 
0 0.673981 0 0.674765 0 0.675549 0 0.676332 0 