# vtk DataFile Version 4.2
vtk output
ASCII
DATASET POLYDATA
POINTS 1277 float
0 0 0 -0.00318195 0.00239247 0.000931352 -0.0124705 0.00935543 0.00365697 
-0.0274797 0.0205672 0.00807419 -0.0478235 0.0357061 0.0140804 -0.0731159 0.0544505 0.0215728 
-0.102971 0.0764786 0.0304489 -0.137003 0.101469 0.040606 -0.174826 0.1291 0.0519413 
-0.216053 0.159049 0.0643524 -0.260299 0.190996 0.0777364 -0.307178 0.224618 0.0919908 
-0.356304 0.259593 0.107013 -0.407291 0.295601 0.1227 -0.459753 0.332319 0.138949 
-0.513304 0.369426 0.155658 -0.567557 0.4066 0.172725 -0.622128 0.443519 0.190045 
-0.67663 0.479862 0.207517 -0.730677 0.515307 0.225039 -0.783882 0.549532 0.242507 
-0.835861 0.582216 0.259818 -0.886333 0.613125 0.276898 -0.935341 0.642299 0.293758 
-0.982994 0.669831 0.310424 -1.0294 0.695813 0.326923 -1.07467 0.72034 0.343283 
-1.1189 0.743503 0.359531 -1.16222 0.765395 0.375694 -1.20471 0.78611 0.391799 
-1.2465 0.805739 0.407873 -1.28769 0.824377 0.423944 -1.32839 0.842116 0.440038 
-1.36871 0.859048 0.456182 -1.40875 0.875267 0.472405 -1.44862 0.890865 0.488733 
-1.48844 0.905936 0.505192 -1.5283 0.920572 0.521811 -1.56832 0.934866 0.538616 
-1.6086 0.948911 0.555635 -1.64925 0.962799 0.572894 -1.69038 0.976622 0.59042 
-1.73203 0.990414 0.608224 -1.77417 1.00415 0.626298 -1.81677 1.01779 0.644634 
-1.8598 1.03132 0.663224 -1.90322 1.04469 0.68206 -1.947 1.05789 0.701134 
-1.99111 1.07088 0.720438 -2.03552 1.08363 0.739963 -2.0802 1.09611 0.759703 
-2.12512 1.10829 0.779648 -2.17024 1.12015 0.79979 -2.21553 1.13164 0.820123 
-2.26097 1.14275 0.840636 -2.30651 1.15344 0.861324 -2.35213 1.16368 0.882176 
-2.39779 1.17345 0.903186 -2.44347 1.1827 0.924346 -2.48913 1.19142 0.945646 
-2.53473 1.19956 0.96708 -2.58026 1.20711 0.988639 -2.62568 1.21404 1.01032 
-2.671 1.22036 1.03211 -2.71621 1.22605 1.05402 -2.76133 1.23114 1.07604 
-2.80634 1.23561 1.09818 -2.85125 1.23948 1.12043 -2.89607 1.24275 1.14278 
-2.9408 1.24542 1.16525 -2.98543 1.24749 1.18782 -3.02998 1.24898 1.2105 
-3.07444 1.24987 1.23328 -3.11882 1.25018 1.25616 -3.16311 1.24991 1.27914 
-3.20732 1.24906 1.30222 -3.25145 1.24764 1.3254 -3.29551 1.24564 1.34868 
-3.33949 1.24308 1.37205 -3.38341 1.23995 1.39551 -3.42725 1.23626 1.41907 
-3.47102 1.23202 1.44272 -3.51473 1.22722 1.46645 -3.55836 1.22186 1.49027 
-3.60191 1.21595 1.51417 -3.64538 1.20948 1.53814 -3.68874 1.20246 1.56219 
-3.732 1.19487 1.58629 -3.77515 1.18671 1.61045 -3.81817 1.178 1.63466 
-3.86107 1.16871 1.65892 -3.90383 1.15886 1.68322 -3.94644 1.14844 1.70756 
-3.9889 1.13745 1.73193 -4.03119 1.12589 1.75633 -4.07332 1.11375 1.78074 
-4.11527 1.10103 1.80517 -4.15703 1.08774 1.82961 -4.19859 1.07388 1.85406 
-4.23996 1.05943 1.8785 -4.28111 1.04439 1.90294 -4.32204 1.02878 1.92736 
-4.36275 1.01258 1.95177 -4.40322 0.995801 1.97616 -4.44346 0.978445 2.00052 
-4.48346 0.960521 2.02485 -4.52323 0.942036 2.04914 -4.56275 0.922995 2.0734 
-4.60203 0.903405 2.09761 -4.64106 0.883273 2.12178 -4.67984 0.862605 2.1459 
-4.71837 0.841408 2.16996 -4.75664 0.819688 2.19396 -4.79465 0.797453 2.21789 
-4.83241 0.774707 2.24176 -4.8699 0.751459 2.26555 -4.90713 0.727714 2.28927 
-4.94409 0.70348 2.3129 -4.98078 0.678761 2.33645 -5.0172 0.653566 2.3599 
-5.05334 0.627901 2.38327 -5.08921 0.601772 2.40653 -5.12479 0.575185 2.42969 
-5.1601 0.548148 2.45275 -5.19512 0.52067 2.47569 -5.22987 0.492758 2.49853 
-5.26434 0.46442 2.52125 -5.29855 0.435666 2.54385 -5.33249 0.406502 2.56633 
-5.36616 0.376938 2.5887 -5.39956 0.346981 2.61093 -5.43271 0.31664 2.63305 
-5.4656 0.285923 2.65503 -5.49823 0.254839 2.67688 -5.53061 0.223394 2.6986 
-5.56274 0.191599 2.72018 -5.59462 0.159461 2.74162 -5.62626 0.126988 2.76292 
-5.65765 0.0941879 2.78408 -5.68881 0.06107 2.80509 -5.71972 0.027642 2.82596 
-5.7504 -0.00608781 2.84667 -5.78085 -0.0401112 2.86722 -5.81107 -0.0744204 2.88763 
-5.84106 -0.109009 2.90787 -5.87084 -0.143871 2.92796 -5.9004 -0.179001 2.94788 
-5.92975 -0.214392 2.96764 -5.9589 -0.250039 2.98724 -5.98785 -0.285935 3.00667 
-6.01661 -0.322075 3.02594 -6.04518 -0.358452 3.04504 -6.07357 -0.39506 3.06396 
-6.10178 -0.431894 3.08272 -6.12982 -0.468947 3.1013 -6.15769 -0.506214 3.1197 
-6.18541 -0.543688 3.13793 -6.21296 -0.581363 3.15598 -6.24037 -0.619233 3.17385 
-6.26763 -0.657293 3.19154 -6.29475 -0.695537 3.20904 -6.32174 -0.733957 3.22636 
-6.3486 -0.772549 3.24349 -6.37533 -0.811306 3.26044 -6.40195 -0.850225 3.27719 
-6.42845 -0.8893 3.29375 -6.45484 -0.928529 3.31011 -6.48114 -0.967906 3.32627 
-6.50734 -1.00743 3.34223 -6.53344 -1.04709 3.35798 -6.55947 -1.0869 3.37352 
-6.58541 -1.12683 3.38885 -6.61128 -1.1669 3.40396 -6.63708 -1.20709 3.41885 
-6.66282 -1.24741 3.43352 -6.6885 -1.28784 3.44796 -6.71413 -1.32839 3.46217 
-6.73972 -1.36904 3.47615 -6.76526 -1.40981 3.48989 -6.79078 -1.45067 3.5034 
-6.81626 -1.49164 3.51666 -6.84172 -1.5327 3.52967 -6.86716 -1.57385 3.54244 
-6.89259 -1.61509 3.55496 -6.91801 -1.65641 3.56722 -6.94343 -1.69782 3.57921 
-6.96886 -1.7393 3.59094 -6.99429 -1.78085 3.60239 -7.01973 -1.82247 3.61355 
-7.04518 -1.86416 3.62442 -7.07066 -1.90592 3.635 -7.09616 -1.94773 3.64527 
-7.12169 -1.9896 3.65523 -7.14725 -2.03152 3.66488 -7.17285 -2.07349 3.6742 
-7.19849 -2.11551 3.68318 -7.22418 -2.15758 3.69183 -7.24992 -2.19968 3.70014 
-7.27571 -2.24182 3.70809 -7.30157 -2.28399 3.71569 -7.32749 -2.3262 3.72292 
-7.35348 -2.36842 3.72978 -7.37954 -2.41068 3.73626 -7.40568 -2.45295 3.74235 
-7.4319 -2.49524 3.74806 -7.4582 -2.53754 3.75335 -7.48458 -2.57984 3.75823 
-7.51103 -2.62215 3.76268 -7.53756 -2.66446 3.76668 -7.56417 -2.70676 3.77023 
-7.59084 -2.74905 3.77331 -7.61759 -2.79133 3.77591 -7.64441 -2.83359 3.77801 
-7.6713 -2.87582 3.77961 -7.69826 -2.91802 3.78069 -7.72528 -2.96019 3.78124 
-7.75237 -3.00233 3.78125 -7.77952 -3.04442 3.7807 -7.80673 -3.08646 3.77959 
-7.83401 -3.12846 3.77789 -7.86134 -3.1704 3.7756 -7.88874 -3.21227 3.7727 
-7.91619 -3.25409 3.76919 -7.94369 -3.29584 3.76504 -7.97125 -3.33751 3.76025 
-7.99885 -3.3791 3.75481 -8.02646 -3.42061 3.7487 -8.05407 -3.46203 3.74191 
-8.08165 -3.50335 3.73443 -8.1092 -3.54456 3.72625 -8.13669 -3.58567 3.71735 
-8.16409 -3.62666 3.70772 -8.19141 -3.66753 3.69736 -8.2186 -3.70827 3.68625 
-8.24566 -3.74887 3.67438 -8.27256 -3.78934 3.66173 -8.29929 -3.82965 3.6483 
-8.32582 -3.86982 3.63406 -8.35215 -3.90982 3.61902 -8.37824 -3.94966 3.60316 
-8.40408 -3.98933 3.58647 -8.42965 -4.02882 3.56893 -8.45493 -4.06813 3.55053 
-8.47991 -4.10725 3.53126 -8.50455 -4.14617 3.51112 -8.52885 -4.18489 3.4901 
-8.55277 -4.2234 3.46822 -8.57628 -4.2617 3.44549 -8.59936 -4.29978 3.42193 
-8.62199 -4.33763 3.39755 -8.64413 -4.37525 3.37237 -8.66576 -4.41263 3.34639 
-8.68686 -4.44977 3.31963 -8.70739 -4.48666 3.29211 -8.72733 -4.52329 3.26383 
-8.74666 -4.55966 3.23482 -8.76534 -4.59576 3.20509 -8.78336 -4.63159 3.17464 
-8.80068 -4.66713 3.14349 -8.81728 -4.70239 3.11167 -8.83313 -4.73736 3.07917 
-8.84821 -4.77203 3.04601 -8.86248 -4.80639 3.01221 -8.87593 -4.84045 2.97778 
-8.88852 -4.87419 2.94274 -8.90025 -4.9076 2.9071 -8.91112 -4.94071 2.87089 
-8.92113 -4.97349 2.83415 -8.93027 -5.00597 2.79689 -8.93857 -5.03813 2.75914 
-8.94601 -5.06997 2.72093 -8.95261 -5.10151 2.6823 -8.95836 -5.13274 2.64326 
-8.96326 -5.16367 2.60384 -8.96732 -5.19429 2.56407 -8.97055 -5.2246 2.52398 
-8.97294 -5.25462 2.48359 -8.97449 -5.28433 2.44294 -8.97522 -5.31374 2.40205 
-8.97512 -5.34286 2.36094 -8.97419 -5.37168 2.31965 -8.97244 -5.40021 2.2782 
-8.96987 -5.42844 2.23662 -8.96649 -5.45638 2.19493 -8.96229 -5.48403 2.15317 
-8.95728 -5.5114 2.11135 -8.95149 -5.53848 2.06949 -8.94492 -5.56529 2.02759 
-8.93759 -5.59184 1.98567 -8.92952 -5.61812 1.94372 -8.92074 -5.64414 1.90177 
-8.91124 -5.66992 1.85983 -8.90106 -5.69545 1.81789 -8.8902 -5.72075 1.77597 
-8.87869 -5.74582 1.73409 -8.86654 -5.77067 1.69224 -8.85376 -5.7953 1.65045 
-8.84038 -5.81971 1.60871 -8.82642 -5.84393 1.56704 -8.81188 -5.86794 1.52545 
-8.79679 -5.89177 1.48395 -8.78116 -5.91541 1.44254 -8.76501 -5.93887 1.40124 
-8.74836 -5.96216 1.36005 -8.73122 -5.98528 1.31899 -8.7136 -6.00825 1.27806 
-8.69553 -6.03106 1.23727 -8.67701 -6.05371 1.19661 -8.65804 -6.07623 1.15609 
-8.63864 -6.0986 1.11571 -8.61881 -6.12083 1.07546 -8.59857 -6.14293 1.03536 
-8.57793 -6.16491 0.995396 -8.55688 -6.18676 0.955576 -8.53546 -6.20849 0.9159 
-8.51365 -6.23011 0.876367 -8.49147 -6.25162 0.83698 -8.46894 -6.27302 0.797739 
-8.44606 -6.29432 0.758645 -8.42283 -6.31553 0.719699 -8.39927 -6.33664 0.680903 
-8.37539 -6.35767 0.642257 -8.3512 -6.37862 0.603763 -8.3267 -6.39949 0.565421 
-8.30192 -6.42028 0.527233 -8.27684 -6.44101 0.489198 -8.25148 -6.46167 0.451319 
-8.22585 -6.48227 0.413594 -8.19996 -6.50281 0.376024 -8.1738 -6.5233 0.33861 
-8.14738 -6.54373 0.30135 -8.12071 -6.56412 0.264245 -8.09379 -6.58446 0.227296 
-8.06662 -6.60476 0.190502 -8.03923 -6.62502 0.153863 -8.01159 -6.64525 0.11738 
-7.98374 -6.66544 0.0810521 -7.95566 -6.68561 0.0448799 -7.92736 -6.70574 0.00886337 
-7.89885 -6.72586 -0.0269974 -7.87014 -6.74596 -0.0627024 -7.84123 -6.76604 -0.0982515 
-7.81212 -6.78612 -0.133645 -7.78282 -6.80618 -0.168882 -7.75334 -6.82624 -0.203963 
-7.72367 -6.84629 -0.238887 -7.69383 -6.86635 -0.273656 -7.66382 -6.88641 -0.308267 
-7.63363 -6.90648 -0.342722 -7.60328 -6.92655 -0.377019 -7.57275 -6.94664 -0.411158 
-7.54207 -6.96675 -0.445139 -7.51121 -6.98687 -0.478962 -7.4802 -7.00702 -0.512625 
-7.44903 -7.02719 -0.54613 -7.4177 -7.04739 -0.579475 -7.38621 -7.06762 -0.61266 
-7.35458 -7.08788 -0.645685 -7.32279 -7.10818 -0.678549 -7.29085 -7.12851 -0.711252 
-7.25876 -7.14889 -0.743794 -7.22653 -7.16932 -0.776174 -7.19416 -7.18979 -0.808393 
-7.16165 -7.21032 -0.840449 -7.129 -7.23089 -0.872342 -7.09621 -7.25153 -0.904072 
-7.06329 -7.27222 -0.935637 -7.03024 -7.29298 -0.967032 -6.99705 -7.31381 -0.998251 
-6.96374 -7.33471 -1.02929 -6.9303 -7.35568 -1.06014 -6.89673 -7.37673 -1.09079 
[...]
CELL_DATA 1
FIELD FieldData 2
Length 1 1 double
63.818640562 
Tortuosity 1 1 double
1.2597234258 
POINT_DATA 1277
SCALARS MaximumInscribedSphereRadius float
LOOKUP_TABLE default
0.93 0.939752 0.949504 0.959256 0.969007 0.978759 0.988511 0.998263 1.00801 
1.01777 1.02752 1.03727 1.04702 1.05677 1.06653 1.07628 1.08603 1.09578 
1.10553 1.11528 1.12504 1.13441 1.13964 1.14488 1.15012 1.15536 1.1606 
1.16584 1.17108 1.17632 1.18156 1.1868 1.19204 1.19728 1.20252 1.20775 
1.21299 1.21823 1.22347 1.22871 1.23395 1.23593 1.23431 1.23269 1.23107 
1.22945 1.22784 1.22622 1.2246 1.22298 1.22136 1.21974 1.21812 1.2165 
1.21488 1.21327 1.21165 1.21003 1.20841 1.20679 1.20517 1.20208 1.19189 
1.1817 1.17151 1.16132 1.15113 1.14094 1.13075 1.12056 1.11037 1.10018 
1.08999 1.0798 1.06961 1.05941 1.04922 1.03903 1.02884 1.01865 1.00846 
0.998274 0.994235 0.990919 0.987603 0.984287 0.980971 0.977656 0.97434 0.971024 
0.967708 0.964392 0.961076 0.95776 0.954445 0.951129 0.947813 0.944497 0.941181 
0.937865 0.934549 0.931234 0.930459 0.931156 0.931852 0.932549 0.933246 0.933942 
0.934639 0.935335 0.936032 0.936729 0.937425 0.938122 0.938819 0.939515 0.940212 
0.940908 0.941605 0.942302 0.942998 0.943695 0.944818 0.946669 0.94852 0.950372 
0.952223 0.954074 0.955926 0.957777 0.959628 0.961479 0.963331 0.965182 0.967033 
0.968885 0.970736 0.972587 0.974438 0.97629 0.978141 0.979992 0.982522 0.991451 
1.00038 1.00931 1.01824 1.02717 1.0361 1.04502 1.05395 1.06288 1.07181 
1.08074 1.08967 1.0986 1.10753 1.11646 1.12538 1.13431 1.14324 1.15217 
1.1611 1.16084 1.15849 1.15614 1.15379 1.15145 1.1491 1.14675 1.1444 
1.14205 1.13971 1.13736 1.13501 1.13266 1.13032 1.12797 1.12562 1.12327 
1.12093 1.11858 1.11623 1.11043 1.10158 1.09273 1.08389 1.07504 1.06619 
1.05734 1.0485 1.03965 1.0308 1.02195 1.01311 1.00426 0.995411 0.986564 
0.977716 0.968869 0.960021 0.951174 0.942326 0.935616 0.935335 0.935055 0.934774 
0.934494 0.934213 0.933933 0.933652 0.933372 0.933091 0.932811 0.93253 0.93225 
0.931969 0.931689 0.931408 0.931128 0.930847 0.930567 0.930286 0.930006 0.93 
0.93 0.93 0.93 0.93 0.93 0.93 0.93 0.93 0.93 
0.93 0.93 0.93 0.93 0.93 0.93 0.93 0.93 0.93 
0.93 0.93 0.93 0.93 0.93 0.93 0.93 0.93 0.93 
0.93 0.93 0.93 0.93 0.93 0.93 0.93 0.93 0.93 
0.93 0.93 0.93 0.93 0.93 0.93 0.93 0.93 0.93 
0.93 0.93 0.93 0.93 0.93 0.93 0.93 0.93 0.93 
0.93 0.93 0.93 0.93 0.93 0.93 0.93 0.93 0.93 
0.93 0.93 0.93 0.93 0.93 0.93 0.93 0.93 0.93 
0.93 0.93 0.93 0.93 0.93 0.93 0.93 0.930036 0.930885 
0.931733 0.932582 0.93343 0.934279 0.935128 0.935976 0.936825 0.937674 0.938522 
0.939371 0.94022 0.941068 0.941917 0.942766 0.943614 0.944463 0.945312 0.94616 
0.947009 0.953942 0.96274 0.971537 0.980335 0.989132 0.99793 1.00673 1.01552 
1.02432 1.03312 1.04192 1.05072 1.05951 1.06831 1.07711 1.08591 1.0947 
1.1035 1.1123 1.1211 1.12825 1.13364 1.13903 1.14442 1.14981 1.1552 
1.16059 1.16598 1.17137 1.17677 1.18216 1.18755 1.19294 1.19833 1.20372 
1.20911 1.2145 1.21989 1.22528 1.23067 1.23494 1.23465 1.23436 1.23407 
1.23378 1.23349 1.2332 1.23291 1.23262 1.23232 1.23203 1.23174 1.23145 
1.23116 1.23087 1.23058 1.23029 1.23 1.22971 1.22942 1.22913 1.22171 
1.21362 1.20552 1.19743 1.18933 1.18124 1.17314 1.16505 1.15695 1.14886 
1.14076 1.13267 1.12457 1.11648 1.10838 1.10029 1.09219 1.0841 1.076 
1.06791 1.06561 1.06651 1.06742 1.06832 1.06922 1.07013 1.07103 1.07193 
1.07283 1.07374 1.07464 1.07554 1.07645 1.07735 1.07825 1.07915 1.08006 
1.08096 1.08186 1.08277 1.09411 1.11929 1.14447 1.16965 1.19483 1.22001 
1.24519 1.27037 1.29555 1.32073 1.34591 1.37109 1.39627 1.42145 1.44663 
1.47181 1.49699 1.52217 1.54735 1.57254 1.59233 1.60747 1.6226 1.63774 
1.65287 1.668 1.68314 1.69827 1.71341 1.72854 1.74367 1.75881 1.77394 
1.78907 1.80421 1.81934 1.83448 1.84961 1.86474 1.87988 1.88816 1.88104 
1.87392 1.8668 1.85968 1.85256 1.84544 1.83832 1.8312 1.82408 1.81696 
1.80984 1.80272 1.79559 1.78847 1.78135 1.77423 1.76711 1.75999 1.75287 
1.74575 1.73857 1.73139 1.72421 1.71702 1.70984 1.70266 1.69548 1.6883 
1.68112 1.67394 1.66676 1.65957 1.65239 1.64521 1.63803 1.63085 1.62367 
1.61649 1.6093 1.60212 1.59867 1.59617 1.59367 1.59117 1.58867 1.58617 
1.58366 1.58116 1.57866 1.57616 1.57366 1.57116 1.56866 1.56616 1.56366 
1.56116 1.55866 1.55616 1.55366 1.55116 1.55 1.55 1.55 1.55 
1.55 1.55 1.55 1.55 1.55 1.55 1.55 1.55 1.55 
1.55 1.55 1.55 1.55 1.55 1.55 1.55 1.55001 1.55006 
1.55011 1.55016 1.55021 1.55026 1.55031 1.55036 1.55041 1.55046 1.55051 
1.55056 1.55061 1.55066 1.5507 1.55075 1.5508 1.55085 1.5509 1.55095 
1.55118 1.56078 1.57037 1.57997 1.58956 1.59915 1.60875 1.61834 1.62793 
1.63753 1.64712 1.65672 1.66631 1.6759 1.6855 1.69509 1.70468 1.71428 
1.72387 1.73347 1.74306 1.73238 1.71498 1.69757 1.68017 1.66277 1.64536 
1.62796 1.61055 1.59315 1.57574 1.55834 1.54093 1.52353 1.50612 1.48872 
1.47131 1.45391 1.4365 1.4191 1.4017 1.39402 1.39562 1.39721 1.39881 
1.40041 1.40201 1.40361 1.40521 1.4068 1.4084 1.41 1.4116 1.4132 
1.4148 1.41639 1.41799 1.41959 1.42119 1.42279 1.42439 1.43912 1.46064 
1.48215 1.50367 1.52519 1.5467 1.56822 1.58974 1.61125 1.63277 1.65429 
1.6758 1.69732 1.71884 1.74035 1.76187 1.78338 1.8049 1.82642 1.84793 
1.85556 1.84645 1.83735 1.82824 1.81914 1.81003 1.80093 1.79182 1.78272 
1.77361 1.76451 1.7554 1.7463 1.73719 1.72808 1.71898 1.70987 1.70077 
1.69166 1.68256 1.66949 1.64054 1.61159 1.58264 1.55369 1.52474 1.49579 
1.46684 1.43789 1.40894 1.37999 1.35105 1.3221 1.29315 1.2642 1.23525 
1.2063 1.17735 1.1484 1.11945 1.0905 1.08825 1.08803 1.08781 1.08759 
1.08737 1.08715 1.08693 1.08671 1.08649 1.08627 1.08605 1.08583 1.08561 
1.08539 1.08517 1.08495 1.08473 1.08451 1.08429 1.08407 1.09232 1.10504 
1.11775 1.13047 1.14318 1.1559 1.16861 1.18133 1.19404 1.20676 1.21947 
1.23219 1.2449 1.25762 1.27033 1.28305 1.29576 1.30848 1.32119 1.33391 
1.3493 1.36907 1.38883 1.4086 1.42837 1.44814 1.4679 1.48767 1.50744 
1.52721 1.54698 1.56674 1.58651 1.60628 1.62605 1.64581 1.66558 1.68535 
1.70512 1.72489 1.74256 1.74076 1.73896 1.73716 1.73537 1.73357 1.73177 
1.72997 1.72818 1.72638 1.72458 1.72279 1.72099 1.71919 1.71739 1.7156 
1.7138 1.712 1.71021 1.70841 1.70661 1.69752 1.68671 1.67591 1.6651 
1.6543 1.64349 1.63269 1.62188 1.61108 1.60028 1.58947 1.57867 1.56786 
1.55706 1.54625 1.53545 1.52464 1.51384 1.50303 1.49223 1.48125 1.47011 
1.45897 1.44783 1.43669 1.42555 1.41441 1.40327 1.39213 1.381 1.36986 
1.35872 1.34758 1.33644 1.3253 1.31416 1.30302 1.29188 1.28074 1.2696 
1.25844 1.2472 1.23597 1.22473 1.21349 1.20225 1.19102 1.17978 1.16854 
1.15731 1.14607 1.13483 1.1236 1.11236 1.10112 1.08989 1.07865 1.06741 
1.05617 1.04494 1.0337 1.04014 1.04691 1.05368 1.06046 1.06723 1.074 
1.08078 1.08755 1.09432 1.1011 1.10787 1.11464 1.12142 1.12819 1.13496 
1.14174 1.14851 1.15528 1.16206 1.16883 1.18256 1.1991 1.21564 1.23218 
1.24872 1.26526 1.2818 1.29834 1.31488 1.33142 1.34796 1.3645 1.38104 
1.39758 1.41412 1.43066 1.4472 1.46374 1.48028 1.49682 1.50703 1.5092 
1.51137 1.51353 1.5157 1.51787 1.52003 1.5222 1.52437 1.52653 1.5287 
1.53087 1.53303 1.5352 1.53737 1.53953 1.5417 1.54387 1.54603 1.5482 
1.55 1.55 1.55 1.55 1.55 1.55 1.55 1.55 1.55 
1.55 1.55 1.55 1.55 1.55 1.55 1.55 1.55 1.55 
1.55 1.55 1.55 1.55344 1.55725 1.56106 1.56488 1.56869 1.5725 
1.57632 1.58013 1.58394 1.58776 1.59157 1.59538 1.5992 1.60301 1.60682 
1.61064 1.61445 1.61826 1.62208 1.62589 1.63376 1.64396 1.65416 1.66436 
1.67456 1.68476 1.69496 1.70515 1.71535 1.72555 1.73575 1.74595 1.75615 
1.76635 1.77655 1.78675 1.79694 1.80714 1.81734 1.82754 1.83793 1.84865 
1.85937 1.87009 1.88082 1.89154 1.90226 1.91298 1.9237 1.93442 1.94514 
1.95586 1.96659 1.97731 1.98803 1.99875 2.00947 2.02019 2.03091 2.04163 
2.05078 2.04221 2.03365 2.02508 2.01651 2.00795 1.99938 1.99081 1.98225 
1.97368 1.96511 1.95655 1.94798 1.93941 1.93084 1.92228 1.91371 1.90514 
1.89658 1.88801 1.87944 1.85839 1.83413 1.80986 1.78559 1.76133 1.73706 
1.7128 1.68853 1.66426 1.64 1.61573 1.59146 1.5672 1.54293 1.51867 
1.4944 1.47013 1.44587 1.4216 1.39734 1.3872 1.3908 1.3944 1.398 
1.4016 1.4052 1.4088 1.4124 1.416 1.4196 1.4232 1.4268 1.4304 
1.434 1.4376 1.44121 1.44481 1.44841 1.45201 1.45561 1.46215 1.4792 
1.49624 1.51328 1.53032 1.54736 1.56441 1.58145 1.59849 1.61553 1.63258 
1.64962 1.66666 1.6837 1.70074 1.71779 1.73483 1.75187 1.76891 1.78595 
1.803 1.81759 1.832 1.84641 1.86082 1.87523 1.88965 1.90406 1.91847 
1.93288 1.94729 1.9617 1.97611 1.99053 2.00494 2.01935 2.03376 2.04817 
2.06258 2.07699 2.09141 2.09193 2.08482 2.07771 2.07059 2.06348 2.05637 
2.04926 2.04214 2.03503 2.02792 2.02081 2.01369 2.00658 1.99947 1.99236 
1.98524 1.97813 1.97102 1.96391 1.95679 1.95079 1.94675 1.94272 1.93868 
1.93465 1.93061 1.92658 1.92254 1.91851 1.91447 1.91044 1.9064 1.90237 
1.89834 1.8943 1.89027 1.88623 1.8822 1.87816 1.87413 1.87056 1.87271 
1.87485 1.877 1.87914 1.88129 1.88343 1.88558 1.88772 1.88987 1.89201 
1.89416 1.8963 1.89845 1.9006 1.90274 1.90489 1.90703 1.90918 1.91132 
1.91347 1.92078 1.92941 1.93804 1.94666 1.95529 1.96392 1.97255 1.98118 
1.9898 1.99843 2.00706 2.01569 2.02432 2.03294 2.04157 2.0502 2.05883 
2.06745 2.07608 2.08471 2.08616 2.08121 2.07626 2.07131 2.06636 2.06141 
2.05645 2.0515 2.04655 2.0416 2.03665 2.0317 2.02674 2.02179 2.01684 
2.01189 2.00694 2.00199 1.99703 1.99208 1.98511 1.97305 1.961 1.94894 
1.93689 1.92483 1.91278 1.90073 1.88867 1.87662 1.86456 1.85251 1.84045 
1.8284 1.81634 1.80429 1.79223 1.78018 1.76812 1.75607 1.74461 1.74197 
1.73932 1.73667 1.73403 1.73138 1.72873 1.72609 1.72344 1.72079 1.71815 
1.7155 1.71285 1.71021 1.70756 1.70491 1.70227 1.69962 1.69697 1.69432 
1.69168 1.70539 1.72281 1.74022 1.75763 1.77505 1.79246 1.80988 1.82729 
1.84471 1.86212 1.87953 1.89695 1.91436 1.93178 1.94919 1.9666 1.98402 
2.00143 2.01885 2.03626 2.05147 2.06467 2.07786 2.09105 2.10425 2.11744 
2.13064 2.14383 2.15702 2.17022 2.18341 2.1966 2.2098 2.22299 2.23619 
2.24938 2.26257 2.27577 2.28896 2.30216 2.311 2.31945 2.3279 2.33635 
2.3448 2.35325 2.3617 2.37015 2.3786 2.38705 2.3955 2.40395 2.4124 
2.42085 2.4293 2.43775 2.4462 2.45465 2.4631 2.47155 2.48 
TEXTURE_COORDINATES TCoords 2 float
0 0 0.000783699 0 0.0015674 0 0.0023511 0 0.0031348 
0 0.0039185 0 0.00470219 0 0.00548589 0 0.00626959 0 
0.00705329 0 0.00783699 0 0.00862069 0 0.00940439 0 0.0101881 
0 0.0109718 0 0.0117555 0 0.0125392 0 0.0133229 0 
0.0141066 0 0.0148903 0 0.015674 0 0.0164577 0 0.0172414 
0 0.0180251 0 0.0188088 0 0.0195925 0 0.0203762 0 
0.0211599 0 0.0219436 0 0.0227273 0 0.023511 0 0.0242947 
0 0.0250784 0 0.0258621 0 0.0266458 0 0.0274295 0 
0.0282132 0 0.0289969 0 0.0297806 0 0.0305643 0 0.031348 
0 0.0321317 0 0.0329154 0 0.0336991 0 0.0344828 0 
0.0352665 0 0.0360502 0 0.0368339 0 0.0376176 0 0.0384013 
0 0.039185 0 0.0399687 0 0.0407524 0 0.0415361 0 
0.0423197 0 0.0431034 0 0.0438871 0 0.0446708 0 0.0454545 
0 0.0462382 0 0.0470219 0 0.0478056 0 0.0485893 0 
0.049373 0 0.0501567 0 0.0509404 0 0.0517241 0 0.0525078 
0 0.0532915 0 0.0540752 0 0.0548589 0 0.0556426 0 
0.0564263 0 0.05721 0 0.0579937 0 0.0587774 0 0.0595611 
0 0.0603448 0 0.0611285 0 0.0619122 0 0.0626959 0 
0.0634796 0 0.0642633 0 0.065047 0 0.0658307 0 0.0666144 
0 0.0673981 0 0.0681818 0 0.0689655 0 0.0697492 0 
0.0705329 0 0.0713166 0 0.0721003 0 0.072884 0 0.0736677 
0 0.0744514 0 0.0752351 0 0.0760188 0 0.0768025 0 
0.0775862 0 0.0783699 0 0.0791536 0 0.0799373 0 0.080721 
0 0.0815047 0 0.0822884 0 0.0830721 0 0.0838558 0 
0.0846395 0 0.0854232 0 0.0862069 0 0.0869906 0 0.0877743 
0 0.088558 0 0.0893417 0 0.0901254 0 0.0909091 0 
0.0916928 0 0.0924765 0 0.0932602 0 0.0940439 0 0.0948276 
0 0.0956113 0 0.096395 0 0.0971787 0 0.0979624 0 
0.0987461 0 0.0995298 0 0.100313 0 0.101097 0 0.101881 
0 0.102665 0 0.103448 0 0.104232 0 0.105016 0 
0.105799 0 0.106583 0 0.107367 0 0.10815 0 0.108934 
0 0.109718 0 0.110502 0 0.111285 0 0.112069 0 
0.112853 0 0.113636 0 0.11442 0 0.115204 0 0.115987 
0 0.116771 0 0.117555 0 0.118339 0 0.119122 0 
0.119906 0 0.12069 0 0.121473 0 0.122257 0 0.123041 
0 0.123824 0 0.124608 0 0.125392 0 0.126176 0 
0.126959 0 0.127743 0 0.128527 0 0.12931 0 0.130094 
0 0.130878 0 0.131661 0 0.132445 0 0.133229 0 
0.134013 0 0.134796 0 0.13558 0 0.136364 0 0.137147 
0 0.137931 0 0.138715 0 0.139498 0 0.140282 0 
0.141066 0 0.14185 0 0.142633 0 0.143417 0 0.144201 
0 0.144984 0 0.145768 0 0.146552 0 0.147335 0 
0.148119 0 0.148903 0 0.149687 0 0.15047 0 0.151254 
0 0.152038 0 0.152821 0 0.153605 0 0.154389 0 
0.155172 0 0.155956 0 0.15674 0 0.157524 0 0.158307 
0 0.159091 0 0.159875 0 0.160658 0 0.161442 0 
0.162226 0 0.163009 0 0.163793 0 0.164577 0 0.16536 
0 0.166144 0 0.166928 0 0.167712 0 0.168495 0 
0.169279 0 0.170063 0 0.170846 0 0.17163 0 0.172414 
0 0.173197 0 0.173981 0 0.174765 0 0.175549 0 
0.176332 0 0.177116 0 0.1779 0 0.178683 0 0.179467 
0 0.180251 0 0.181034 0 0.181818 0 0.182602 0 
0.183386 0 0.184169 0 0.184953 0 0.185737 0 0.18652 
0 0.187304 0 0.188088 0 0.188871 0 0.189655 0 
0.190439 0 0.191223 0 0.192006 0 0.19279 0 0.193574 
0 0.194357 0 0.195141 0 0.195925 0 0.196708 0 
0.197492 0 0.198276 0 0.19906 0 0.199843 0 0.200627 
0 0.201411 0 0.202194 0 0.202978 0 0.203762 0 
0.204545 0 0.205329 0 0.206113 0 0.206897 0 0.20768 
0 0.208464 0 0.209248 0 0.210031 0 0.210815 0 
0.211599 0 0.212382 0 0.213166 0 0.21395 0 0.214734 
0 0.215517 0 0.216301 0 0.217085 0 0.217868 0 
0.218652 0 0.219436 0 0.220219 0 0.221003 0 0.221787 
0 0.222571 0 0.223354 0 0.224138 0 0.224922 0 
0.225705 0 0.226489 0 0.227273 0 0.228056 0 0.22884 
0 0.229624 0 0.230408 0 0.231191 0 0.231975 0 
0.232759 0 0.233542 0 0.234326 0 0.23511 0 0.235893 
0 0.236677 0 0.237461 0 0.238245 0 0.239028 0 
0.239812 0 0.240596 0 0.241379 0 0.242163 0 0.242947 
0 0.24373 0 0.244514 0 0.245298 0 0.246082 0 
0.246865 0 0.247649 0 0.248433 0 0.249216 0 0.25 
0 0.250784 0 0.251567 0 0.252351 0 0.253135 0 
0.253918 0 0.254702 0 0.255486 0 0.25627 0 0.257053 
0 0.257837 0 0.258621 0 0.259404 0 0.260188 0 
0.260972 0 0.261755 0 0.262539 0 0.263323 0 0.264107 
0 0.26489 0 0.265674 0 0.266458 0 0.267241 0 
0.268025 0 0.268809 0 0.269592 0 0.270376 0 0.27116 
0 0.271944 0 0.272727 0 0.273511 0 0.274295 0 
0.275078 0 0.275862 0 0.276646 0 0.277429 0 0.278213 
0 0.278997 0 0.279781 0 0.280564 0 0.281348 0 
0.282132 0 0.282915 0 0.283699 0 0.284483 0 0.285266 
0 0.28605 0 0.286834 0 0.287618 0 0.288401 0 
0.289185 0 0.289969 0 0.290752 0 0.291536 0 0.29232 
0 0.293103 0 0.293887 0 0.294671 0 0.295455 0 
0.296238 0 0.297022 0 0.297806 0 0.298589 0 0.299373 
0 0.300157 0 0.30094 0 0.301724 0 0.302508 0 
0.303292 0 0.304075 0 0.304859 0 0.305643 0 0.306426 
0 0.30721 0 0.307994 0 0.308777 0 0.309561 0 
0.310345 0 0.311129 0 0.311912 0 0.312696 0 0.31348 
0 0.314263 0 0.315047 0 0.315831 0 0.316614 0 
0.317398 0 0.318182 0 0.318966 0 0.319749 0 0.320533 
0 0.321317 0 0.3221 0 0.322884 0 0.323668 0 
0.324451 0 0.325235 0 0.326019 0 0.326803 0 0.327586 
0 0.32837 0 0.329154 0 0.329937 0 0.330721 0 
0.331505 0 0.332288 0 0.333072 0 0.333856 0 0.334639 
0 0.335423 0 0.336207 0 0.336991 0 0.337774 0 
0.338558 0 0.339342 0 0.340125 0 0.340909 0 0.341693 
0 0.342476 0 0.34326 0 0.344044 0 0.344828 0 
0.345611 0 0.346395 0 0.347179 0 0.347962 0 0.348746 
0 0.34953 0 0.350313 0 0.351097 0 0.351881 0 
0.352665 0 0.353448 0 0.354232 0 0.355016 0 0.355799 
0 0.356583 0 0.357367 0 0.35815 0 0.358934 0 
0.359718 0 0.360502 0 0.361285 0 0.362069 0 0.362853 
0 0.363636 0 0.36442 0 0.365204 0 0.365987 0 
0.366771 0 0.367555 0 0.368339 0 0.369122 0 0.369906 
0 0.37069 0 0.371473 0 0.372257 0 0.373041 0 
0.373824 0 0.374608 0 0.375392 0 0.376176 0 0.376959 
0 0.377743 0 0.378527 0 0.37931 0 0.380094 0 
0.380878 0 0.381661 0 0.382445 0 0.383229 0 0.384013 
0 0.384796 0 0.38558 0 0.386364 0 0.387147 0 
0.387931 0 0.388715 0 0.389498 0 0.390282 0 0.391066 
0 0.39185 0 0.392633 0 0.393417 0 0.394201 0 
0.394984 0 0.395768 0 0.396552 0 0.397335 0 0.398119 
0 0.398903 0 0.399687 0 0.40047 0 0.401254 0 
0.402038 0 0.402821 0 0.403605 0 0.404389 0 0.405172 
0 0.405956 0 0.40674 0 0.407524 0 0.408307 0 
0.409091 0 0.409875 0 0.410658 0 0.411442 0 0.412226 
0 0.413009 0 0.413793 0 0.414577 0 0.415361 0 
0.416144 0 0.416928 0 0.417712 0 0.418495 0 0.419279 
0 0.420063 0 0.420846 0 0.42163 0 0.422414 0 
0.423197 0 0.423981 0 0.424765 0 0.425549 0 0.426332 
0 0.427116 0 0.4279 0 0.428683 0 0.429467 0 
0.430251 0 0.431034 0 0.431818 0 0.432602 0 0.433386 
0 0.434169 0 0.434953 0 0.435737 0 0.43652 0 
0.437304 0 0.438088 0 0.438871 0 0.439655 0 0.440439 
0 0.441223 0 0.442006 0 0.44279 0 0.443574 0 
0.444357 0 0.445141 0 0.445925 0 0.446708 0 0.447492 
0 0.448276 0 0.44906 0 0.449843 0 0.450627 0 
0.451411 0 0.452194 0 0.452978 0 0.453762 0 0.454545 
0 0.455329 0 0.456113 0 0.456897 0 0.45768 0 
0.458464 0 0.459248 0 0.460031 0 0.460815 0 0.461599 
0 0.462382 0 0.463166 0 0.46395 0 0.464734 0 
0.465517 0 0.466301 0 0.467085 0 0.467868 0 0.468652 
0 0.469436 0 0.470219 0 0.471003 0 0.471787 0 
0.472571 0 0.473354 0 0.474138 0 0.474922 0 0.475705 
0 0.476489 0 0.477273 0 0.478056 0 0.47884 0 
0.479624 0 0.480408 0 0.481191 0 0.481975 0 0.482759 
0 0.483542 0 0.484326 0 0.48511 0 0.485893 0 
0.486677 0 0.487461 0 0.488245 0 0.489028 0 0.489812 
0 0.490596 0 0.491379 0 0.492163 0 0.492947 0 
0.49373 0 0.494514 0 0.495298 0 0.496082 0 0.496865 
0 0.497649 0 0.498433 0 0.499216 0 0.5 0 
0.500784 0 0.501567 0 0.502351 0 0.503135 0 0.503918 
0 0.504702 0 0.505486 0 0.50627 0 0.507053 0 
0.507837 0 0.508621 0 0.509404 0 0.510188 0 0.510972 
0 0.511755 0 0.512539 0 0.513323 0 0.514107 0 
0.51489 0 0.515674 0 0.516458 0 0.517241 0 0.518025 
0 0.518809 0 0.519592 0 0.520376 0 0.52116 0 
0.521944 0 0.522727 0 0.523511 0 0.524295 0 0.525078 
0 0.525862 0 0.526646 0 0.527429 0 0.528213 0 
0.528997 0 0.529781 0 0.530564 0 0.531348 0 0.532132 
0 0.532915 0 0.533699 0 0.534483 0 0.535266 0 
0.53605 0 0.536834 0 0.537618 0 0.538401 0 0.539185 
0 0.539969 0 0.540752 0 0.541536 0 0.54232 0 
0.543103 0 0.543887 0 0.544671 0 0.545455 0 0.546238 
0 0.547022 0 0.547806 0 0.548589 0 0.549373 0 
0.550157 0 0.55094 0 0.551724 0 0.552508 0 0.553292 
0 0.554075 0 0.554859 0 0.555643 0 0.556426 0 
0.55721 0 0.557994 0 0.558777 0 0.559561 0 0.560345 
0 0.561128 0 0.561912 0 0.562696 0 0.56348 0 
0.564263 0 0.565047 0 0.565831 0 0.566614 0 0.567398 
0 0.568182 0 0.568965 0 0.569749 0 0.570533 0 
0.571317 0 0.5721 0 0.572884 0 0.573668 0 0.574451 
0 0.575235 0 0.576019 0 0.576802 0 0.577586 0 
0.57837 0 0.579154 0 0.579937 0 0.580721 0 0.581505 
0 0.582288 0 0.583072 0 0.583856 0 0.584639 0 
0.585423 0 0.586207 0 0.586991 0 0.587774 0 0.588558 
0 0.589342 0 0.590125 0 0.590909 0 0.591693 0 
0.592476 0 0.59326 0 0.594044 0 0.594828 0 0.595611 
0 0.596395 0 0.597179 0 0.597962 0 0.598746 0 
0.59953 0 0.600313 0 0.601097 0 0.601881 0 0.602665 
0 0.603448 0 0.604232 0 0.605016 0 0.605799 0 
0.606583 0 0.607367 0 0.60815 0 0.608934 0 0.609718 
0 0.610502 0 0.611285 0 0.612069 0 0.612853 0 
0.613636 0 0.61442 0 0.615204 0 0.615987 0 0.616771 
0 0.617555 0 0.618339 0 0.619122 0 0.619906 0 
0.62069 0 0.621473 0 0.622257 0 0.623041 0 0.623824 
0 0.624608 0 0.625392 0 0.626176 0 0.626959 0 
0.627743 0 0.628527 0 0.62931 0 0.630094 0 0.630878 
0 0.631661 0 0.632445 0 0.633229 0 0.634013 0 
0.634796 0 0.63558 0 0.636364 0 0.637147 0 0.637931 
0 0.638715 0 0.639498 0 0.640282 0 0.641066 0 
0.64185 0 0.642633 0 0.643417 0 0.644201 0 0.644984 
0 0.645768 0 0.646552 0 0.647335 0 0.648119 0 
0.648903 0 0.649687 0 0.65047 0 0.651254 0 0.652038 
0 0.652821 0 0.653605 0 0.654389 0 0.655172 0 
0.655956 0 0.65674 0 0.657524 0 0.658307 0 0.659091 
0 0.659875 0 0.660658 0 0.661442 0 0.662226 0 
0.663009 0 0.663793 0 0.664577 0 0.665361 0 0.666144 
0 0.666928 0 0.667712 0 0.668495 0 0.669279 0 
0.670063 0 0.670846 0 0.67163 0 0.672414 0 0.673198 
0 0.673981 0 0.674765 0 0.675549 0 0.676332 0 
0.677116 0 0.6779 0 0.678683 0 0.679467 0 0.680251 
0 0.681035 0 0.681818 0 0.682602 0 0.683386 0 