# vtk DataFile Version 4.2
vtk output
ASCII
DATASET POLYDATA
POINTS 1278 float
0 0 0 -0.00377663 0.00153276 -0.000302757 -0.0147961 0.00599383 -0.00117856 
-0.0325929 0.0131774 -0.00257869 -0.0567014 0.0228776 -0.00445446 -0.086656 0.0348887 -0.00675716 
-0.121991 0.0490048 -0.00943808 -0.162241 0.0650201 -0.0124485 -0.206941 0.0827288 -0.0157397 
-0.255624 0.101925 -0.0192631 -0.307825 0.122403 -0.0229698 -0.36308 0.143957 -0.0268113 
-0.420921 0.166381 -0.0307387 -0.480883 0.18947 -0.0347034 -0.542502 0.213016 -0.0386567 
-0.605311 0.236816 -0.0425498 -0.668844 0.260662 -0.0463342 -0.732637 0.28435 -0.0499609 
-0.796223 0.307672 -0.0533815 -0.859137 0.330424 -0.0565471 -0.920914 0.3524 -0.059409 
-0.981088 0.373393 -0.0619186 -1.03933 0.393259 -0.0640412 -1.0957 0.412025 -0.0657832 
-1.15034 0.429753 -0.0671578 -1.20338 0.4465 -0.0681785 -1.25496 0.462327 -0.0688587 
-1.30521 0.477293 -0.0692117 -1.35425 0.491457 -0.0692512 -1.40224 0.50488 -0.0689903 
-1.4493 0.517621 -0.0684426 -1.49556 0.529739 -0.0676215 -1.54117 0.541294 -0.0665403 
-1.58625 0.552345 -0.0652126 -1.63094 0.562953 -0.0636517 -1.67537 0.573176 -0.0618709 
-1.71968 0.583073 -0.0598839 -1.764 0.592706 -0.0577038 -1.80847 0.602132 -0.0553443 
-1.85322 0.611413 -0.0528186 -1.89838 0.620606 -0.0501403 -1.94409 0.629769 -0.0473217 
-1.99037 0.638912 -0.044363 -2.03719 0.648013 -0.0412555 -2.08451 0.65705 -0.0379901 
-2.1323 0.665999 -0.0345579 -2.18051 0.674839 -0.0309498 -2.22912 0.683545 -0.027157 
-2.27809 0.692097 -0.0231703 -2.32738 0.70047 -0.0189808 -2.37695 0.708642 -0.0145796 
-2.42676 0.716591 -0.00995755 -2.47679 0.724294 -0.00510579 -2.52698 0.731727 -1.52948e-05 
-2.57732 0.738869 0.00532292 -2.62775 0.745697 0.0109179 -2.67825 0.752187 0.0167785 
-2.72877 0.758318 0.0229138 -2.77928 0.764066 0.0293328 -2.82974 0.769409 0.0360444 
-2.88012 0.774324 0.0430577 -2.93038 0.778788 0.0503815 -2.98049 0.782785 0.0580229 
-3.03046 0.786313 0.0659823 -3.08027 0.789376 0.0742589 -3.12994 0.791975 0.0828521 
-3.17947 0.794114 0.0917612 -3.22886 0.795795 0.100986 -3.27812 0.79702 0.110524 
-3.32725 0.797793 0.120377 -3.37624 0.798115 0.130543 -3.42512 0.797989 0.141021 
-3.47387 0.797419 0.151811 -3.5225 0.796405 0.162913 -3.57102 0.794952 0.174324 
-3.61942 0.793061 0.186046 -3.66772 0.790736 0.198076 -3.71591 0.787978 0.210415 
-3.764 0.78479 0.223061 -3.81198 0.781175 0.236015 -3.85987 0.777136 0.249274 
-3.90767 0.772674 0.26284 -3.95538 0.767793 0.27671 -4.00298 0.762493 0.290883 
-4.05049 0.756775 0.305358 -4.09788 0.75064 0.320132 -4.14515 0.744089 0.335203 
-4.19229 0.737121 0.35057 -4.23929 0.729738 0.366232 -4.28615 0.72194 0.382184 
-4.33285 0.713728 0.398427 -4.3794 0.705103 0.414959 -4.42577 0.696065 0.431776 
-4.47196 0.686615 0.448878 -4.51797 0.676754 0.466262 -4.56379 0.666481 0.483927 
-4.6094 0.655799 0.50187 -4.65481 0.644707 0.520091 -4.7 0.633206 0.538586 
-4.74496 0.621297 0.557355 -4.78968 0.60898 0.576395 -4.83417 0.596257 0.595704 
-4.8784 0.583127 0.61528 -4.92238 0.569596 0.63512 -4.96611 0.555671 0.65522 
-5.00959 0.541361 0.675574 -5.05281 0.526672 0.696177 -5.09579 0.511613 0.717026 
-5.13851 0.496192 0.738115 -5.18099 0.480416 0.759439 -5.22322 0.464293 0.780994 
-5.2652 0.447831 0.802775 -5.30693 0.431038 0.824777 -5.34841 0.413921 0.846996 
-5.38966 0.396489 0.869427 -5.43065 0.378748 0.892065 -5.4714 0.360708 0.914905 
-5.51191 0.342375 0.937943 -5.55217 0.323758 0.961173 -5.5922 0.304864 0.984592 
-5.63198 0.285701 1.00819 -5.67152 0.266277 1.03198 -5.71082 0.246599 1.05593 
-5.74988 0.226676 1.08006 -5.7887 0.206514 1.10435 -5.8273 0.186122 1.1288 
-5.86568 0.165506 1.15341 -5.90383 0.144674 1.17818 -5.94177 0.123634 1.2031 
-5.97949 0.102392 1.22817 -6.01701 0.0809558 1.25339 -6.05433 0.0593334 1.27875 
-6.09145 0.0375319 1.30424 -6.12838 0.0155586 1.32988 -6.16512 -0.0065791 1.35564 
-6.20168 -0.0288737 1.38153 -6.23805 -0.0513179 1.40755 -6.27426 -0.0739043 1.43369 
-6.31029 -0.0966255 1.45994 -6.34616 -0.119474 1.48632 -6.38187 -0.142443 1.5128 
-6.41742 -0.165524 1.53939 -6.45282 -0.18871 1.56608 -6.48807 -0.211995 1.59288 
-6.52318 -0.235372 1.61977 -6.55815 -0.258837 1.64676 -6.593 -0.282385 1.67384 
-6.62772 -0.30601 1.70102 -6.66231 -0.329708 1.72827 -6.6968 -0.353473 1.75561 
-6.73117 -0.377301 1.78304 -6.76545 -0.401186 1.81054 -6.79962 -0.425123 1.83811 
-6.8337 -0.449107 1.86576 -6.8677 -0.473133 1.89347 -6.90161 -0.497196 1.92125 
-6.93545 -0.521291 1.9491 -6.96922 -0.545412 1.97701 -7.00292 -0.569556 2.00497 
-7.03656 -0.593716 2.03299 -7.07015 -0.617887 2.06106 -7.10369 -0.642065 2.08918 
-7.13718 -0.666245 2.11735 -7.17064 -0.69042 2.14556 -7.20407 -0.714589 2.17381 
-7.23747 -0.738747 2.20209 -7.27084 -0.762891 2.23041 -7.30421 -0.787019 2.25877 
-7.33756 -0.811127 2.28715 -7.37091 -0.835211 2.31555 -7.40426 -0.85927 2.34398 
-7.43762 -0.883299 2.37242 -7.47099 -0.907295 2.40088 -7.50438 -0.931256 2.42936 
-7.53779 -0.955178 2.45784 -7.57124 -0.979059 2.48633 -7.60472 -1.00289 2.51483 
-7.63824 -1.02668 2.54332 -7.67181 -1.05042 2.57181 -7.70543 -1.0741 2.6003 
-7.73911 -1.09772 2.62878 -7.77285 -1.12128 2.65724 -7.80666 -1.14478 2.6857 
-7.84055 -1.16821 2.71413 -7.87452 -1.19158 2.74254 -7.90857 -1.21487 2.77092 
-7.94271 -1.23808 2.79926 -7.97695 -1.26122 2.82755 -8.01128 -1.28428 2.8558 
-8.04571 -1.30726 2.88398 -8.08025 -1.33016 2.91209 -8.11489 -1.35297 2.94012 
-8.14966 -1.37569 2.96807 -8.18453 -1.39832 2.99593 -8.21954 -1.42087 3.02369 
-8.25466 -1.44331 3.05134 -8.28992 -1.46566 3.07888 -8.32531 -1.48792 3.10629 
-8.36085 -1.51007 3.13357 -8.39652 -1.53211 3.16072 -8.43234 -1.55406 3.18772 
-8.46832 -1.57589 3.21457 -8.50445 -1.59762 3.24125 -8.54074 -1.61923 3.26777 
-8.57719 -1.64073 3.29411 -8.61382 -1.66211 3.32026 -8.65065 -1.68339 3.34621 
-8.68768 -1.70455 3.37195 -8.72492 -1.7256 3.39747 -8.7624 -1.74654 3.42274 
-8.80012 -1.76737 3.44778 -8.83809 -1.78809 3.47255 -8.87633 -1.80871 3.49705 
-8.91485 -1.82921 3.52127 -8.95366 -1.84961 3.54519 -8.99279 -1.8699 3.56881 
-9.03223 -1.89009 3.59211 -9.072 -1.91018 3.61508 -9.11212 -1.93015 3.63771 
-9.15259 -1.95003 3.65998 -9.19344 -1.9698 3.6819 -9.23466 -1.98947 3.70343 
-9.27629 -2.00904 3.72457 -9.31832 -2.02851 3.74532 -9.36077 -2.04788 3.76564 
-9.40363 -2.06717 3.78548 -9.44685 -2.08639 3.80476 -9.49043 -2.10556 3.82338 
-9.53432 -2.12469 3.84127 -9.57851 -2.1438 3.85834 -9.62297 -2.16291 3.87452 
-9.66767 -2.18204 3.88971 -9.71258 -2.2012 3.90385 -9.75769 -2.22041 3.91684 
-9.80296 -2.23968 3.9286 -9.84836 -2.25904 3.93906 -9.89388 -2.2785 3.94812 
-9.93947 -2.29807 3.9557 -9.98513 -2.31777 3.96173 -10.0308 -2.33763 3.96613 
-10.0765 -2.35765 3.96879 -10.1222 -2.37786 3.96966 -10.1678 -2.39826 3.96864 
-10.2133 -2.41888 3.96564 -10.2588 -2.43973 3.96061 -10.304 -2.46082 3.95352 
-10.3491 -2.48213 3.94443 -10.3938 -2.50364 3.93339 -10.4381 -2.52534 3.92046 
-10.4819 -2.54722 3.90568 -10.5251 -2.56927 3.88912 -10.5677 -2.59147 3.87082 
-10.6095 -2.61381 3.85083 -10.6505 -2.63628 3.82922 -10.6907 -2.65886 3.80602 
-10.7298 -2.68154 3.7813 -10.7678 -2.70431 3.75511 -10.8047 -2.72715 3.7275 
-10.8404 -2.75005 3.69852 -10.8747 -2.773 3.66822 -10.9077 -2.79598 3.63666 
-10.9391 -2.81899 3.6039 -10.969 -2.842 3.56998 -10.9973 -2.865 3.53495 
-11.0238 -2.88799 3.49887 -11.0486 -2.91096 3.4618 -11.0718 -2.93391 3.4238 
-11.0934 -2.95686 3.38491 -11.1134 -2.9798 3.34521 -11.132 -3.00274 3.30474 
-11.1491 -3.02568 3.26356 -11.1649 -3.04863 3.22174 -11.1793 -3.07159 3.17933 
-11.1926 -3.09458 3.13639 -11.2046 -3.11758 3.09298 -11.2155 -3.14061 3.04915 
-11.2253 -3.16368 3.00496 -11.2341 -3.18678 2.96048 -11.2419 -3.20992 2.91575 
-11.2488 -3.2331 2.87084 -11.2549 -3.25634 2.8258 -11.2602 -3.27963 2.7807 
-11.2648 -3.30298 2.73558 -11.2687 -3.32639 2.69051 -11.2719 -3.34987 2.64555 
-11.2746 -3.37342 2.60073 -11.2767 -3.39705 2.55604 -11.2782 -3.42074 2.5115 
-11.2792 -3.4445 2.46708 -11.2797 -3.46834 2.42279 -11.2796 -3.49225 2.37863 
-11.2789 -3.51622 2.3346 -11.2778 -3.54027 2.29068 -11.2761 -3.56438 2.24688 
-11.2739 -3.58857 2.2032 -11.2712 -3.61283 2.15963 -11.268 -3.63716 2.11617 
-11.2643 -3.66155 2.07281 -11.2601 -3.68602 2.02956 -11.2555 -3.71056 1.9864 
-11.2503 -3.73516 1.94335 -11.2448 -3.75984 1.90038 -11.2388 -3.78458 1.85751 
-11.2323 -3.8094 1.81473 -11.2254 -3.83428 1.77203 -11.218 -3.85923 1.72941 
-11.2103 -3.88425 1.68689 -11.2021 -3.90935 1.64445 -11.1935 -3.93451 1.60212 
-11.1845 -3.95975 1.55989 -11.1751 -3.98506 1.51777 -11.1653 -4.01044 1.47577 
-11.1551 -4.03591 1.43389 -11.1445 -4.06144 1.39214 -11.1335 -4.08706 1.35051 
-11.1222 -4.11275 1.30903 -11.1104 -4.13852 1.26769 -11.0983 -4.16437 1.22649 
-11.0859 -4.1903 1.18545 -11.073 -4.21631 1.14457 -11.0599 -4.24241 1.10386 
-11.0463 -4.26859 1.06331 -11.0325 -4.29485 1.02295 -11.0182 -4.3212 0.982759 
-11.0037 -4.34763 0.942758 -10.9888 -4.37415 0.90295 -10.9736 -4.40076 0.863337 
-10.9581 -4.42745 0.82392 -10.9422 -4.45423 0.784703 -10.926 -4.4811 0.745688 
-10.9095 -4.50806 0.706876 -10.8927 -4.5351 0.668269 -10.8756 -4.56223 0.62987 
-10.8581 -4.58946 0.591681 -10.8403 -4.61676 0.553704 -10.8222 -4.64416 0.515941 
-10.8038 -4.67165 0.478394 -10.7851 -4.69923 0.441065 -10.7661 -4.72689 0.403957 
-10.7467 -4.75464 0.367071 -10.7271 -4.78249 0.33041 -10.7071 -4.81042 0.293976 
-10.6869 -4.83845 0.25777 -10.6663 -4.86656 0.221795 -10.6454 -4.89476 0.186054 
-10.6243 -4.92306 0.150547 -10.6028 -4.95144 0.115282 -10.581 -4.97992 0.0802683 
-10.5589 -5.00849 0.0455143 -10.5365 -5.03716 0.01103 -10.5139 -5.06592 -0.023175 
-10.4909 -5.09478 -0.0570914 -10.4676 -5.12374 -0.0907096 -10.444 -5.1528 -0.12402 
-10.4201 -5.18196 -0.157014 -10.3959 -5.21122 -0.18968 -10.3713 -5.24059 -0.222011 
-10.3465 -5.27007 -0.253996 -10.3214 -5.29964 -0.285626 -10.2959 -5.32933 -0.316891 
-10.2702 -5.35913 -0.347782 -10.2441 -5.38904 -0.378289 -10.2178 -5.41905 -0.408404 
-10.1911 -5.44919 -0.438115 -10.1641 -5.47943 -0.467415 -10.1368 -5.50979 -0.496293 
[...]
CELL_DATA 1
FIELD FieldData 2
Length 1 1 double
63.864274744 
Tortuosity 1 1 double
1.0957137911 
POINT_DATA 1278
SCALARS MaximumInscribedSphereRadius float
LOOKUP_TABLE default
1.24 1.24 1.24 1.24 1.24 1.24 1.24 1.24 1.24 
1.24 1.24 1.24 1.24 1.24 1.24 1.24 1.24 1.24 
1.24 1.24 1.24 1.24 1.24 1.24 1.24 1.24 1.24 
1.24 1.24 1.24 1.24 1.24 1.24 1.24 1.24 1.24 
1.24 1.24 1.24 1.24 1.24 1.24 1.24 1.24 1.24 
1.24 1.24 1.24 1.24 1.24 1.24 1.24 1.24 1.24 
1.24 1.24 1.24 1.24 1.24 1.24 1.24 1.24 1.24 
1.24 1.24 1.24 1.24 1.24 1.24 1.24 1.24 1.24 
1.24 1.24 1.24 1.24 1.24 1.24 1.24 1.24 1.24 
1.24 1.24 1.24 1.24 1.24 1.24 1.24 1.24 1.24 
1.24 1.24 1.24 1.24 1.24 1.24 1.24 1.24 1.24 
1.24 1.24 1.24 1.24 1.24 1.24 1.24 1.24 1.24 
1.24 1.24 1.24 1.24 1.23999 1.23999 1.23999 1.23999 1.23999 
1.23999 1.23999 1.23999 1.23999 1.23999 1.2397 1.23875 1.23779 1.23684 
1.23589 1.23494 1.23398 1.23303 1.23208 1.23113 1.23017 1.22922 1.22827 
1.22732 1.22636 1.22541 1.22446 1.22351 1.22255 1.2216 1.2206 1.21709 
1.21359 1.21009 1.20659 1.20308 1.19958 1.19608 1.19258 1.18907 1.18557 
1.18207 1.17857 1.17507 1.17156 1.16806 1.16456 1.16106 1.15755 1.15405 
1.15055 1.14985 1.15018 1.15051 1.15084 1.15117 1.1515 1.15183 1.15216 
1.15249 1.15281 1.15314 1.15347 1.1538 1.15413 1.15446 1.15479 1.15512 
1.15545 1.15578 1.15611 1.15785 1.16137 1.16489 1.16841 1.17194 1.17546 
1.17898 1.1825 1.18602 1.18954 1.19306 1.19658 1.2001 1.20362 1.20715 
1.21067 1.21419 1.21771 1.22123 1.22475 1.22913 1.23824 1.24735 1.25646 
1.26557 1.27468 1.28379 1.29289 1.302 1.31111 1.32022 1.32933 1.33844 
1.34755 1.35666 1.36577 1.37487 1.38398 1.39309 1.4022 1.41131 1.41829 
1.42494 1.43159 1.43824 1.44489 1.45154 1.4582 1.46485 1.4715 1.47815 
1.4848 1.49145 1.49811 1.50476 1.51141 1.51806 1.52471 1.53136 1.53802 
1.54467 1.53779 1.52182 1.50585 1.48988 1.47391 1.45794 1.44196 1.42599 
1.41002 1.39405 1.37808 1.36211 1.34614 1.33017 1.3142 1.29823 1.28226 
1.26629 1.25032 1.23435 1.21826 1.20212 1.18598 1.16984 1.15371 1.13757 
1.12143 1.10529 1.08916 1.07302 1.05688 1.04074 1.02461 1.00847 0.992331 
0.976193 0.960056 0.943918 0.927781 0.911643 0.905982 0.918773 0.931563 0.944354 
0.957144 0.969935 0.982725 0.995516 1.00831 1.0211 1.03389 1.04668 1.05947 
1.07226 1.08505 1.09784 1.11063 1.12342 1.13621 1.149 1.16055 1.16106 
1.16156 1.16207 1.16257 1.16308 1.16358 1.16409 1.16459 1.1651 1.1656 
1.16611 1.16661 1.16712 1.16763 1.16813 1.16864 1.16914 1.16965 1.17015 
1.17066 1.16634 1.16095 1.15556 1.15016 1.14477 1.13938 1.13398 1.12859 
1.12319 1.1178 1.11241 1.10701 1.10162 1.09622 1.09083 1.08544 1.08004 
1.07465 1.06926 1.06386 1.06584 1.07424 1.08265 1.09105 1.09945 1.10786 
1.11626 1.12467 1.13307 1.14147 1.14988 1.15828 1.16668 1.17509 1.18349 
1.1919 1.2003 1.2087 1.21711 1.22551 1.23497 1.24762 1.26028 1.27294 
1.28559 1.29825 1.3109 1.32356 1.33621 1.34887 1.36152 1.37418 1.38684 
1.39949 1.41215 1.4248 1.43746 1.45011 1.46277 1.47542 1.48808 1.49126 
1.49431 1.49736 1.50041 1.50345 1.5065 1.50955 1.5126 1.51565 1.5187 
1.52175 1.5248 1.52785 1.5309 1.53395 1.537 1.54004 1.54309 1.54614 
1.54919 1.55551 1.56301 1.5705 1.578 1.5855 1.59299 1.60049 1.60798 
1.61548 1.62298 1.63047 1.63797 1.64547 1.65296 1.66046 1.66796 1.67545 
1.68295 1.69045 1.69794 1.70414 1.70973 1.71533 1.72092 1.72651 1.7321 
1.73769 1.74328 1.74887 1.75446 1.76005 1.76565 1.77124 1.77683 1.78242 
1.78801 1.7936 1.79919 1.80478 1.81037 1.80946 1.79979 1.79012 1.78046 
1.77079 1.76113 1.75146 1.74179 1.73213 1.72246 1.7128 1.70313 1.69346 
1.6838 1.67413 1.66447 1.6548 1.64514 1.63547 1.6258 1.61442 1.59658 
1.57874 1.5609 1.54306 1.52522 1.50738 1.48954 1.4717 1.45386 1.43602 
1.41817 1.40033 1.38249 1.36465 1.34681 1.32897 1.31113 1.29329 1.27545 
1.25761 1.25991 1.26427 1.26863 1.27299 1.27734 1.2817 1.28606 1.29042 
1.29478 1.29913 1.30349 1.30785 1.31221 1.31656 1.32092 1.32528 1.32964 
1.33399 1.33835 1.34271 1.35064 1.36076 1.37087 1.38099 1.39111 1.40122 
1.41134 1.42145 1.43157 1.44168 1.4518 1.46191 1.47203 1.48214 1.49226 
1.50237 1.51249 1.52261 1.53272 1.54284 1.54943 1.54906 1.54869 1.54832 
1.54795 1.54758 1.54721 1.54684 1.54647 1.5461 1.54573 1.54536 1.54499 
1.54462 1.54425 1.54388 1.54351 1.54314 1.54277 1.5424 1.54178 1.53731 
1.53283 1.52836 1.52388 1.51941 1.51494 1.51046 1.50599 1.50151 1.49704 
1.49256 1.48809 1.48361 1.47914 1.47466 1.47019 1.46571 1.46124 1.45676 
1.45229 1.44408 1.43492 1.42576 1.4166 1.40743 1.39827 1.38911 1.37995 
1.37079 1.36163 1.35246 1.3433 1.33414 1.32498 1.31582 1.30666 1.2975 
1.28833 1.27917 1.27001 1.26027 1.25004 1.2398 1.22957 1.21934 1.2091 
1.19887 1.18864 1.1784 1.16817 1.15794 1.1477 1.13747 1.12724 1.117 
1.10677 1.09653 1.0863 1.07607 1.06583 1.05874 1.05993 1.06113 1.06232 
1.06351 1.06471 1.0659 1.06709 1.06829 1.06948 1.07068 1.07187 1.07306 
1.07426 1.07545 1.07665 1.07784 1.07903 1.08023 1.08142 1.08268 1.09869 
1.1147 1.13072 1.14673 1.16274 1.17876 1.19477 1.21078 1.2268 1.24281 
1.25882 1.27484 1.29085 1.30686 1.32287 1.33889 1.3549 1.37091 1.38693 
1.40294 1.41241 1.41945 1.42649 1.43352 1.44056 1.4476 1.45464 1.46167 
1.46871 1.47575 1.48279 1.48982 1.49686 1.5039 1.51094 1.51797 1.52501 
1.53205 1.53909 1.54612 1.55038 1.55123 1.55209 1.55294 1.55379 1.55464 
1.55549 1.55634 1.55719 1.55805 1.5589 1.55975 1.5606 1.56145 1.5623 
1.56315 1.56401 1.56486 1.56571 1.56656 1.56821 1.57389 1.57957 1.58525 
1.59093 1.59661 1.60229 1.60797 1.61365 1.61933 1.62502 1.6307 1.63638 
1.64206 1.64774 1.65342 1.6591 1.66478 1.67046 1.67614 1.68182 1.68956 
1.69759 1.70562 1.71365 1.72168 1.72971 1.73773 1.74576 1.75379 1.76182 
1.76985 1.77788 1.78591 1.79394 1.80197 1.81 1.81803 1.82606 1.83409 
1.84212 1.84585 1.84657 1.84729 1.84801 1.84872 1.84944 1.85016 1.85088 
1.8516 1.85232 1.85303 1.85375 1.85447 1.85519 1.85591 1.85662 1.85734 
1.85806 1.85878 1.8595 1.86 1.86 1.86 1.86 1.86 1.86 
1.86 1.86 1.86 1.86 1.86 1.86 1.86 1.86 1.86 
1.86 1.86 1.86 1.86 1.86 1.86 1.85999 1.85997 1.85996 
1.85994 1.85993 1.85992 1.8599 1.85989 1.85988 1.85986 1.85985 1.85983 
1.85982 1.85981 1.85979 1.85978 1.85977 1.85975 1.85974 1.85972 1.85264 
1.84301 1.83337 1.82374 1.81411 1.80447 1.79484 1.78521 1.77557 1.76594 
1.7563 1.74667 1.73704 1.7274 1.71777 1.70814 1.6985 1.68887 1.67923 
1.6696 1.65614 1.63806 1.61998 1.6019 1.58382 1.56574 1.54766 1.52958 
1.5115 1.49342 1.47533 1.45725 1.43917 1.42109 1.40301 1.38493 1.36685 
1.34877 1.33069 1.31261 1.29989 1.31288 1.32587 1.33885 1.35184 1.36483 
1.37781 1.3908 1.40379 1.41677 1.42976 1.44275 1.45573 1.46872 1.48171 
1.49469 1.50768 1.52067 1.53365 1.54664 1.55963 1.57018 1.58045 1.59072 
1.60099 1.61126 1.62154 1.63181 1.64208 1.65235 1.66262 1.67289 1.68316 
1.69343 1.7037 1.71397 1.72424 1.73452 1.74479 1.75506 1.76533 1.75882 
1.74232 1.72583 1.70933 1.69284 1.67634 1.65985 1.64335 1.62685 1.61036 
1.59386 1.57737 1.56087 1.54438 1.52788 1.51139 1.49489 1.4784 1.4619 
1.44541 1.43833 1.44769 1.45704 1.4664 1.47576 1.48511 1.49447 1.50383 
1.51318 1.52254 1.5319 1.54125 1.55061 1.55997 1.56932 1.57868 1.58804 
1.59739 1.60675 1.61611 1.62695 1.65207 1.67719 1.70231 1.72743 1.75255 
1.77767 1.80279 1.82791 1.85303 1.87815 1.90327 1.92839 1.95351 1.97862 
2.00374 2.02886 2.05398 2.0791 2.10422 2.12934 2.13099 2.1273 2.1236 
2.11991 2.11621 2.11252 2.10883 2.10513 2.10144 2.09774 2.09405 2.09035 
2.08666 2.08297 2.07927 2.07558 2.07188 2.06819 2.0645 2.0608 2.05372 
2.04361 2.03351 2.0234 2.0133 2.0032 1.99309 1.98299 1.97288 1.96278 
1.95267 1.94257 1.93246 1.92236 1.91225 1.90215 1.89205 1.88194 1.87184 
1.86173 1.85017 1.834 1.81784 1.80167 1.78551 1.76934 1.75318 1.73701 
1.72085 1.70469 1.68852 1.67236 1.65619 1.64003 1.62386 1.6077 1.59153 
1.57537 1.5592 1.54304 1.52687 1.51725 1.50795 1.49865 1.48935 1.48006 
1.47076 1.46146 1.45216 1.44287 1.43357 1.42427 1.41497 1.40568 1.39638 
1.38708 1.37778 1.36849 1.35919 1.34989 1.3406 1.341 1.34631 1.35163 
1.35694 1.36225 1.36757 1.37288 1.3782 1.38351 1.38883 1.39414 1.39945 
1.40477 1.41008 1.4154 1.42071 1.42603 1.43134 1.43665 1.44197 1.45043 
1.4641 1.47777 1.49144 1.5051 1.51877 1.53244 1.54611 1.55978 1.57345 
1.58712 1.60078 1.61445 1.62812 1.64179 1.65546 1.66913 1.6828 1.69646 
1.71013 1.72423 1.74237 1.76052 1.77866 1.79681 1.81495 1.8331 1.85124 
1.86939 1.88753 1.90568 1.92382 1.94197 1.96011 1.97826 1.9964 2.01455 
2.03269 2.05084 2.06899 2.08713 2.09371 2.09763 2.10155 2.10547 2.10938 
2.1133 2.11722 2.12114 2.12505 2.12897 2.13289 2.13681 2.14072 2.14464 
2.14856 2.15248 2.15639 2.16031 2.16423 2.16815 2.17017 2.17048 2.1708 
2.17111 2.17143 2.17174 2.17206 2.17237 2.17269 2.173 2.17332 2.17364 
2.17395 2.17427 2.17458 2.1749 2.17521 2.17553 2.17584 2.17616 2.17657 
2.17729 2.17801 2.17873 2.17945 2.18017 2.18089 2.18161 2.18233 2.18305 
2.18377 2.18449 2.18521 2.18593 2.18665 2.18736 2.18808 2.1888 2.18952 
2.19024 2.19096 2.19118 2.19137 2.19155 2.19174 2.19193 2.19211 2.1923 
2.19249 2.19268 2.19286 2.19305 2.19324 2.19343 2.19361 2.1938 2.19399 
2.19418 2.19436 2.19455 2.19474 2.19344 2.19139 2.18934 2.18729 2.18525 
2.1832 2.18115 2.1791 2.17705 2.175 2.17295 2.17091 2.16886 2.16681 
2.16476 2.16271 2.16066 2.15862 2.15657 2.15452 2.1509 2.14472 2.13854 
2.13236 2.12618 2.12 2.11382 2.10764 2.10145 2.09527 2.08909 2.08291 
2.07673 2.07055 2.06437 2.05819 2.05201 2.04583 2.03965 2.03347 2.02795 
2.02866 2.02937 2.03008 2.03079 2.0315 2.03221 2.03293 2.03364 2.03435 
2.03506 2.03577 2.03648 2.03719 2.0379 2.03861 2.03932 2.04004 2.04075 
2.04146 2.04217 2.04379 2.04559 2.04738 2.04917 2.05096 2.05275 2.05455 
2.05634 2.05813 2.05992 2.06172 2.06351 2.0653 2.06709 2.06889 2.07068 
2.07247 2.07426 2.07605 2.07785 2.07419 2.062 2.04981 2.03763 2.02544 
2.01325 2.00107 1.98888 1.9767 1.96451 1.95232 1.94014 1.92795 1.91577 
1.90358 1.89139 1.87921 1.86702 1.85483 1.84265 1.82892 1.81498 1.80103 
1.78709 1.77314 1.75919 1.74525 1.7313 1.71735 1.70341 1.68946 1.67552 
1.66157 1.64762 1.63368 1.61973 1.60578 1.59184 1.57789 1.56395 1.55 

TEXTURE_COORDINATES TCoords 2 float
0 0 0.000783085 0 0.00156617 0 0.00234926 0 0.00313234 
0 0.00391543 0 0.00469851 0 0.0054816 0 0.00626468 0 
0.00704777 0 0.00783085 0 0.00861394 0 0.00939702 0 0.0101801 
0 0.0109632 0 0.0117463 0 0.0125294 0 0.0133125 0 
0.0140955 0 0.0148786 0 0.0156617 0 0.0164448 0 0.0172279 
0 0.018011 0 0.018794 0 0.0195771 0 0.0203602 0 
0.0211433 0 0.0219264 0 0.0227095 0 0.0234926 0 0.0242756 
0 0.0250587 0 0.0258418 0 0.0266249 0 0.027408 0 
0.0281911 0 0.0289742 0 0.0297572 0 0.0305403 0 0.0313234 
0 0.0321065 0 0.0328896 0 0.0336727 0 0.0344558 0 
0.0352388 0 0.0360219 0 0.036805 0 0.0375881 0 0.0383712 
0 0.0391543 0 0.0399374 0 0.0407204 0 0.0415035 0 
0.0422866 0 0.0430697 0 0.0438528 0 0.0446359 0 0.045419 
0 0.046202 0 0.0469851 0 0.0477682 0 0.0485513 0 
0.0493344 0 0.0501175 0 0.0509005 0 0.0516836 0 0.0524667 
0 0.0532498 0 0.0540329 0 0.054816 0 0.0555991 0 
0.0563821 0 0.0571652 0 0.0579483 0 0.0587314 0 0.0595145 
0 0.0602976 0 0.0610807 0 0.0618637 0 0.0626468 0 
0.0634299 0 0.064213 0 0.0649961 0 0.0657792 0 0.0665623 
0 0.0673453 0 0.0681284 0 0.0689115 0 0.0696946 0 
0.0704777 0 0.0712608 0 0.0720439 0 0.0728269 0 0.07361 
0 0.0743931 0 0.0751762 0 0.0759593 0 0.0767424 0 
0.0775255 0 0.0783085 0 0.0790916 0 0.0798747 0 0.0806578 
0 0.0814409 0 0.082224 0 0.083007 0 0.0837901 0 
0.0845732 0 0.0853563 0 0.0861394 0 0.0869225 0 0.0877056 
0 0.0884886 0 0.0892717 0 0.0900548 0 0.0908379 0 
0.091621 0 0.0924041 0 0.0931872 0 0.0939702 0 0.0947533 
0 0.0955364 0 0.0963195 0 0.0971026 0 0.0978857 0 
0.0986688 0 0.0994518 0 0.100235 0 0.101018 0 0.101801 
0 0.102584 0 0.103367 0 0.10415 0 0.104933 0 
0.105717 0 0.1065 0 0.107283 0 0.108066 0 0.108849 
0 0.109632 0 0.110415 0 0.111198 0 0.111981 0 
0.112764 0 0.113547 0 0.11433 0 0.115114 0 0.115897 
0 0.11668 0 0.117463 0 0.118246 0 0.119029 0 
0.119812 0 0.120595 0 0.121378 0 0.122161 0 0.122944 
0 0.123727 0 0.124511 0 0.125294 0 0.126077 0 
0.12686 0 0.127643 0 0.128426 0 0.129209 0 0.129992 
0 0.130775 0 0.131558 0 0.132341 0 0.133125 0 
0.133908 0 0.134691 0 0.135474 0 0.136257 0 0.13704 
0 0.137823 0 0.138606 0 0.139389 0 0.140172 0 
0.140955 0 0.141738 0 0.142522 0 0.143305 0 0.144088 
0 0.144871 0 0.145654 0 0.146437 0 0.14722 0 
0.148003 0 0.148786 0 0.149569 0 0.150352 0 0.151135 
0 0.151919 0 0.152702 0 0.153485 0 0.154268 0 
0.155051 0 0.155834 0 0.156617 0 0.1574 0 0.158183 
0 0.158966 0 0.159749 0 0.160533 0 0.161316 0 
0.162099 0 0.162882 0 0.163665 0 0.164448 0 0.165231 
0 0.166014 0 0.166797 0 0.16758 0 0.168363 0 
0.169146 0 0.16993 0 0.170713 0 0.171496 0 0.172279 
0 0.173062 0 0.173845 0 0.174628 0 0.175411 0 
0.176194 0 0.176977 0 0.17776 0 0.178543 0 0.179327 
0 0.18011 0 0.180893 0 0.181676 0 0.182459 0 
0.183242 0 0.184025 0 0.184808 0 0.185591 0 0.186374 
0 0.187157 0 0.18794 0 0.188724 0 0.189507 0 
0.19029 0 0.191073 0 0.191856 0 0.192639 0 0.193422 
0 0.194205 0 0.194988 0 0.195771 0 0.196554 0 
0.197338 0 0.198121 0 0.198904 0 0.199687 0 0.20047 
0 0.201253 0 0.202036 0 0.202819 0 0.203602 0 
0.204385 0 0.205168 0 0.205951 0 0.206735 0 0.207518 
0 0.208301 0 0.209084 0 0.209867 0 0.21065 0 
0.211433 0 0.212216 0 0.212999 0 0.213782 0 0.214565 
0 0.215348 0 0.216132 0 0.216915 0 0.217698 0 
0.218481 0 0.219264 0 0.220047 0 0.22083 0 0.221613 
0 0.222396 0 0.223179 0 0.223962 0 0.224745 0 
0.225529 0 0.226312 0 0.227095 0 0.227878 0 0.228661 
0 0.229444 0 0.230227 0 0.23101 0 0.231793 0 
0.232576 0 0.233359 0 0.234143 0 0.234926 0 0.235709 
0 0.236492 0 0.237275 0 0.238058 0 0.238841 0 
0.239624 0 0.240407 0 0.24119 0 0.241973 0 0.242756 
0 0.24354 0 0.244323 0 0.245106 0 0.245889 0 
0.246672 0 0.247455 0 0.248238 0 0.249021 0 0.249804 
0 0.250587 0 0.25137 0 0.252153 0 0.252937 0 
0.25372 0 0.254503 0 0.255286 0 0.256069 0 0.256852 
0 0.257635 0 0.258418 0 0.259201 0 0.259984 0 
0.260767 0 0.261551 0 0.262334 0 0.263117 0 0.2639 
0 0.264683 0 0.265466 0 0.266249 0 0.267032 0 
0.267815 0 0.268598 0 0.269381 0 0.270164 0 0.270948 
0 0.271731 0 0.272514 0 0.273297 0 0.27408 0 
0.274863 0 0.275646 0 0.276429 0 0.277212 0 0.277995 
0 0.278778 0 0.279561 0 0.280345 0 0.281128 0 
0.281911 0 0.282694 0 0.283477 0 0.28426 0 0.285043 
0 0.285826 0 0.286609 0 0.287392 0 0.288175 0 
0.288958 0 0.289742 0 0.290525 0 0.291308 0 0.292091 
0 0.292874 0 0.293657 0 0.29444 0 0.295223 0 
0.296006 0 0.296789 0 0.297572 0 0.298356 0 0.299139 
0 0.299922 0 0.300705 0 0.301488 0 0.302271 0 
0.303054 0 0.303837 0 0.30462 0 0.305403 0 0.306186 
0 0.306969 0 0.307753 0 0.308536 0 0.309319 0 
0.310102 0 0.310885 0 0.311668 0 0.312451 0 0.313234 
0 0.314017 0 0.3148 0 0.315583 0 0.316366 0 
0.31715 0 0.317933 0 0.318716 0 0.319499 0 0.320282 
0 0.321065 0 0.321848 0 0.322631 0 0.323414 0 
0.324197 0 0.32498 0 0.325763 0 0.326547 0 0.32733 
0 0.328113 0 0.328896 0 0.329679 0 0.330462 0 
0.331245 0 0.332028 0 0.332811 0 0.333594 0 0.334377 
0 0.335161 0 0.335944 0 0.336727 0 0.33751 0 
0.338293 0 0.339076 0 0.339859 0 0.340642 0 0.341425 
0 0.342208 0 0.342991 0 0.343774 0 0.344558 0 
0.345341 0 0.346124 0 0.346907 0 0.34769 0 0.348473 
0 0.349256 0 0.350039 0 0.350822 0 0.351605 0 
0.352388 0 0.353171 0 0.353955 0 0.354738 0 0.355521 
0 0.356304 0 0.357087 0 0.35787 0 0.358653 0 
0.359436 0 0.360219 0 0.361002 0 0.361785 0 0.362569 
0 0.363352 0 0.364135 0 0.364918 0 0.365701 0 
0.366484 0 0.367267 0 0.36805 0 0.368833 0 0.369616 
0 0.370399 0 0.371182 0 0.371966 0 0.372749 0 
0.373532 0 0.374315 0 0.375098 0 0.375881 0 0.376664 
0 0.377447 0 0.37823 0 0.379013 0 0.379796 0 
0.380579 0 0.381363 0 0.382146 0 0.382929 0 0.383712 
0 0.384495 0 0.385278 0 0.386061 0 0.386844 0 
0.387627 0 0.38841 0 0.389193 0 0.389977 0 0.39076 
0 0.391543 0 0.392326 0 0.393109 0 0.393892 0 
0.394675 0 0.395458 0 0.396241 0 0.397024 0 0.397807 
0 0.39859 0 0.399374 0 0.400157 0 0.40094 0 
0.401723 0 0.402506 0 0.403289 0 0.404072 0 0.404855 
0 0.405638 0 0.406421 0 0.407204 0 0.407987 0 
0.408771 0 0.409554 0 0.410337 0 0.41112 0 0.411903 
0 0.412686 0 0.413469 0 0.414252 0 0.415035 0 
0.415818 0 0.416601 0 0.417385 0 0.418168 0 0.418951 
0 0.419734 0 0.420517 0 0.4213 0 0.422083 0 
0.422866 0 0.423649 0 0.424432 0 0.425215 0 0.425998 
0 0.426782 0 0.427565 0 0.428348 0 0.429131 0 
0.429914 0 0.430697 0 0.43148 0 0.432263 0 0.433046 
0 0.433829 0 0.434612 0 0.435395 0 0.436179 0 
0.436962 0 0.437745 0 0.438528 0 0.439311 0 0.440094 
0 0.440877 0 0.44166 0 0.442443 0 0.443226 0 
0.444009 0 0.444792 0 0.445576 0 0.446359 0 0.447142 
0 0.447925 0 0.448708 0 0.449491 0 0.450274 0 
0.451057 0 0.45184 0 0.452623 0 0.453406 0 0.45419 
0 0.454973 0 0.455756 0 0.456539 0 0.457322 0 
0.458105 0 0.458888 0 0.459671 0 0.460454 0 0.461237 
0 0.46202 0 0.462803 0 0.463587 0 0.46437 0 
0.465153 0 0.465936 0 0.466719 0 0.467502 0 0.468285 
0 0.469068 0 0.469851 0 0.470634 0 0.471417 0 
0.4722 0 0.472984 0 0.473767 0 0.47455 0 0.475333 
0 0.476116 0 0.476899 0 0.477682 0 0.478465 0 
0.479248 0 0.480031 0 0.480814 0 0.481597 0 0.482381 
0 0.483164 0 0.483947 0 0.48473 0 0.485513 0 
0.486296 0 0.487079 0 0.487862 0 0.488645 0 0.489428 
0 0.490211 0 0.490995 0 0.491778 0 0.492561 0 
0.493344 0 0.494127 0 0.49491 0 0.495693 0 0.496476 
0 0.497259 0 0.498042 0 0.498825 0 0.499608 0 
0.500392 0 0.501175 0 0.501958 0 0.502741 0 0.503524 
0 0.504307 0 0.50509 0 0.505873 0 0.506656 0 
0.507439 0 0.508222 0 0.509005 0 0.509789 0 0.510572 
0 0.511355 0 0.512138 0 0.512921 0 0.513704 0 
0.514487 0 0.51527 0 0.516053 0 0.516836 0 0.517619 
0 0.518403 0 0.519186 0 0.519969 0 0.520752 0 
0.521535 0 0.522318 0 0.523101 0 0.523884 0 0.524667 
0 0.52545 0 0.526233 0 0.527016 0 0.5278 0 
0.528583 0 0.529366 0 0.530149 0 0.530932 0 0.531715 
0 0.532498 0 0.533281 0 0.534064 0 0.534847 0 
0.53563 0 0.536413 0 0.537197 0 0.53798 0 0.538763 
0 0.539546 0 0.540329 0 0.541112 0 0.541895 0 
0.542678 0 0.543461 0 0.544244 0 0.545027 0 0.545811 
0 0.546594 0 0.547377 0 0.54816 0 0.548943 0 
0.549726 0 0.550509 0 0.551292 0 0.552075 0 0.552858 
0 0.553641 0 0.554424 0 0.555207 0 0.555991 0 
0.556774 0 0.557557 0 0.55834 0 0.559123 0 0.559906 
0 0.560689 0 0.561472 0 0.562255 0 0.563038 0 
0.563821 0 0.564605 0 0.565388 0 0.566171 0 0.566954 
0 0.567737 0 0.56852 0 0.569303 0 0.570086 0 
0.570869 0 0.571652 0 0.572435 0 0.573218 0 0.574002 
0 0.574785 0 0.575568 0 0.576351 0 0.577134 0 
0.577917 0 0.5787 0 0.579483 0 0.580266 0 0.581049 
0 0.581832 0 0.582615 0 0.583399 0 0.584182 0 
0.584965 0 0.585748 0 0.586531 0 0.587314 0 0.588097 
0 0.58888 0 0.589663 0 0.590446 0 0.591229 0 
0.592013 0 0.592796 0 0.593579 0 0.594362 0 0.595145 
0 0.595928 0 0.596711 0 0.597494 0 0.598277 0 
0.59906 0 0.599843 0 0.600626 0 0.60141 0 0.602193 
0 0.602976 0 0.603759 0 0.604542 0 0.605325 0 
0.606108 0 0.606891 0 0.607674 0 0.608457 0 0.60924 
0 0.610023 0 0.610807 0 0.61159 0 0.612373 0 
0.613156 0 0.613939 0 0.614722 0 0.615505 0 0.616288 
0 0.617071 0 0.617854 0 0.618637 0 0.619421 0 
0.620204 0 0.620987 0 0.62177 0 0.622553 0 0.623336 
0 0.624119 0 0.624902 0 0.625685 0 0.626468 0 
0.627251 0 0.628034 0 0.628818 0 0.629601 0 0.630384 
0 0.631167 0 0.63195 0 0.632733 0 0.633516 0 
0.634299 0 0.635082 0 0.635865 0 0.636648 0 0.637432 
0 0.638215 0 0.638998 0 0.639781 0 0.640564 0 
0.641347 0 0.64213 0 0.642913 0 0.643696 0 0.644479 
0 0.645262 0 0.646045 0 0.646829 0 0.647612 0 
0.648395 0 0.649178 0 0.649961 0 0.650744 0 0.651527 
0 0.65231 0 0.653093 0 0.653876 0 0.654659 0 
0.655442 0 0.656226 0 0.657009 0 0.657792 0 0.658575 
0 0.659358 0 0.660141 0 0.660924 0 0.661707 0 
0.66249 0 0.663273 0 0.664056 0 0.664839 0 0.665623 
0 0.666406 0 0.667189 0 0.667972 0 0.668755 0 
0.669538 0 0.670321 0 0.671104 0 0.671887 0 0.67267 
0 0.673453 0 0.674236 0 0.67502 0 0.675803 0 
0.676586 0 0.677369 0 0.678152 0 0.678935 0 0.679718 
0 0.680501 0 0.681284 0 0.682067 0 0.68285 0 
0.683634 0 0.684417 0 0.6852 0 0.685983 0 0.686766 
0 0.687549 0 0.688332 0 0.689115 0 0.689898 0 