# vtk DataFile Version 4.2
vtk output
ASCII
DATASET POLYDATA
POINTS 1278 float
0 0 0 -0.00376483 0.00164291 4.36829e-05 -0.0147541 0.00640677 0.000168177 
-0.03251 0.0140443 0.000363649 -0.0565748 0.0243082 0.000620267 -0.0864905 0.0369512 0.000928199 
-0.121799 0.0517261 0.00127761 -0.162044 0.0683854 0.00165867 -0.206766 0.086682 0.00206155 
-0.255507 0.106369 0.00247641 -0.307811 0.127198 0.00289342 -0.363219 0.148922 0.00330275 
-0.421273 0.171295 0.00369457 -0.481515 0.194069 0.00405904 -0.543489 0.216996 0.00438634 
-0.606735 0.239829 0.00466662 -0.670796 0.262321 0.00489005 -0.735214 0.284225 0.00504682 
-0.799532 0.305293 0.00512707 -0.863292 0.325279 0.00512098 -0.926035 0.343934 0.00501872 
-0.987305 0.361012 0.00481045 -1.04677 0.376335 0.00448969 -1.10447 0.389944 0.00406033 
-1.16053 0.401921 0.00352825 -1.21508 0.412349 0.00289938 -1.26824 0.42131 0.0021796 
-1.32012 0.428887 0.00137482 -1.37086 0.435162 0.000490931 -1.42058 0.440219 -0.000466158 
-1.46939 0.444139 -0.00149055 -1.51742 0.447005 -0.00257634 -1.5648 0.4489 -0.00371764 
-1.61164 0.449906 -0.00490854 -1.65808 0.450105 -0.00614314 -1.70422 0.449581 -0.00741554 
-1.7502 0.448416 -0.00871984 -1.79613 0.446692 -0.0100501 -1.84214 0.444491 -0.0114005 
-1.88835 0.441898 -0.0127651 -1.93489 0.438993 -0.014138 -1.98187 0.435857 -0.0155135 
-2.02934 0.432525 -0.0168883 -2.07726 0.428982 -0.018262 -2.1256 0.425213 -0.0196344 
-2.17431 0.421202 -0.021005 -2.22337 0.416934 -0.0223736 -2.27274 0.412392 -0.0237399 
-2.32237 0.407562 -0.0251034 -2.37224 0.402427 -0.026464 -2.42231 0.396972 -0.0278211 
-2.47253 0.391181 -0.0291746 -2.52288 0.385038 -0.0305241 -2.57331 0.378528 -0.0318693 
-2.62379 0.371636 -0.0332098 -2.67429 0.364345 -0.0345453 -2.72475 0.35664 -0.0358754 
-2.77516 0.348505 -0.0372 -2.82547 0.339924 -0.0385186 -2.87565 0.330883 -0.0398308 
-2.92566 0.321364 -0.0411365 -2.97545 0.311353 -0.0424351 -3.02502 0.300841 -0.0437263 
-3.07435 0.289838 -0.0450091 -3.12347 0.278355 -0.0462825 -3.17237 0.266405 -0.0475455 
-3.22106 0.253999 -0.048797 -3.26956 0.241148 -0.050036 -3.31787 0.227866 -0.0512616 
-3.366 0.214164 -0.0524727 -3.41396 0.200054 -0.0536683 -3.46175 0.185548 -0.0548475 
-3.50938 0.170657 -0.0560091 -3.55687 0.155393 -0.0571523 -3.60421 0.139769 -0.0582759 
-3.65142 0.123797 -0.059379 -3.6985 0.107488 -0.0604605 -3.74547 0.0908536 -0.0615195 
-3.79233 0.0739066 -0.062555 -3.83908 0.0566585 -0.0635658 -3.88574 0.0391213 -0.0645511 
-3.93232 0.0213069 -0.0655098 -3.97882 0.00322598 -0.0664412 -4.02524 -0.0151167 -0.0673458 
-4.07158 -0.0337186 -0.0682249 -4.11783 -0.0525774 -0.0690794 -4.16401 -0.0716904 -0.0699105 
-4.21009 -0.0910553 -0.0707194 -4.25609 -0.11067 -0.0715071 -4.302 -0.130531 -0.0722748 
-4.34781 -0.150636 -0.0730235 -4.39353 -0.170983 -0.0737545 -4.43916 -0.19157 -0.0744687 
-4.48469 -0.212394 -0.0751673 -4.53011 -0.233452 -0.0758515 -4.57544 -0.254742 -0.0765223 
-4.62066 -0.276261 -0.0771809 -4.66577 -0.298007 -0.0778283 -4.71078 -0.319978 -0.0784657 
-4.75568 -0.342171 -0.0790942 -4.80046 -0.364583 -0.0797149 -4.84513 -0.387212 -0.080329 
-4.88969 -0.410056 -0.0809375 -4.93413 -0.433111 -0.0815433 -4.97845 -0.456375 -0.0821501 
-5.02266 -0.479843 -0.0827618 -5.06676 -0.503513 -0.0833822 -5.11074 -0.52738 -0.0840151 
-5.15462 -0.551443 -0.0846644 -5.19838 -0.575697 -0.0853339 -5.24203 -0.600138 -0.0860274 
-5.28557 -0.624765 -0.0867487 -5.329 -0.649572 -0.0875018 -5.37233 -0.674558 -0.0882904 
-5.41555 -0.699718 -0.0891184 -5.45866 -0.72505 -0.0899896 -5.50167 -0.750549 -0.0909078 
-5.54458 -0.776213 -0.0918769 -5.58738 -0.802038 -0.0929007 -5.63007 -0.82802 -0.0939831 
-5.67267 -0.854157 -0.0951278 -5.71517 -0.880446 -0.0963388 -5.75756 -0.906882 -0.0976199 
-5.79986 -0.933464 -0.0989832 -5.84205 -0.960198 -0.100454 -5.88413 -0.987085 -0.102057 
-5.92611 -1.01413 -0.103821 -5.96797 -1.04134 -0.10577 -6.00971 -1.06871 -0.10793 
-6.05133 -1.09625 -0.110329 -6.09282 -1.12396 -0.112992 -6.13419 -1.15185 -0.115946 
-6.17542 -1.17992 -0.119216 -6.21652 -1.20817 -0.122828 -6.25747 -1.23661 -0.12681 
-6.29829 -1.26524 -0.131186 -6.33896 -1.29406 -0.135984 -6.37948 -1.32309 -0.141229 
-6.41984 -1.35231 -0.146948 -6.46005 -1.38174 -0.153166 -6.5001 -1.41138 -0.15991 
-6.53999 -1.44124 -0.167207 -6.5797 -1.47131 -0.175081 -6.61924 -1.5016 -0.18356 
-6.65857 -1.53209 -0.192666 -6.69766 -1.56279 -0.202423 -6.73645 -1.59367 -0.212854 
-6.77493 -1.62472 -0.223984 -6.81304 -1.65594 -0.235834 -6.85076 -1.68731 -0.248429 
-6.88804 -1.71882 -0.261792 -6.92485 -1.75046 -0.275946 -6.96114 -1.78222 -0.290914 
-6.99689 -1.81408 -0.306721 -7.03206 -1.84604 -0.323388 -7.0666 -1.87808 -0.340941 
-7.10047 -1.9102 -0.359401 -7.13365 -1.94238 -0.378793 -7.1661 -1.9746 -0.39914 
-7.19777 -2.00687 -0.420465 -7.22863 -2.03916 -0.442791 -7.25864 -2.07147 -0.466142 
-7.28776 -2.10379 -0.490542 -7.31596 -2.13609 -0.516006 -7.34325 -2.16839 -0.54251 
-7.36962 -2.20067 -0.570008 -7.3951 -2.23292 -0.598458 -7.41969 -2.26514 -0.627816 
-7.44341 -2.29733 -0.658038 -7.46628 -2.32948 -0.689081 -7.48829 -2.36158 -0.7209 
-7.50947 -2.39364 -0.753452 -7.52982 -2.42563 -0.786693 -7.54936 -2.45756 -0.82058 
-7.5681 -2.48943 -0.855068 -7.58605 -2.52122 -0.890115 -7.60322 -2.55294 -0.925676 
-7.61963 -2.58457 -0.961707 -7.63528 -2.61612 -0.998166 -7.6502 -2.64757 -1.03501 
-7.66439 -2.67891 -1.07219 -7.67786 -2.71016 -1.10967 -7.69062 -2.74129 -1.1474 
-7.7027 -2.77231 -1.18533 -7.71409 -2.80321 -1.22346 -7.72484 -2.83401 -1.26176 
-7.73495 -2.86472 -1.30022 -7.74445 -2.89534 -1.33883 -7.75336 -2.92588 -1.37759 
-7.7617 -2.95635 -1.41648 -7.76949 -2.98677 -1.45549 -7.77675 -3.01713 -1.49461 
-7.78351 -3.04745 -1.53383 -7.78979 -3.07773 -1.57313 -7.7956 -3.10799 -1.61252 
-7.80096 -3.13824 -1.65197 -7.80591 -3.16847 -1.69148 -7.81045 -3.19871 -1.73103 
-7.81462 -3.22896 -1.77062 -7.81843 -3.25923 -1.81023 -7.8219 -3.28952 -1.84986 
-7.82505 -3.31985 -1.88949 -7.82792 -3.35023 -1.92911 -7.8305 -3.38066 -1.96871 
-7.83283 -3.41115 -2.00829 -7.83491 -3.44171 -2.04783 -7.83674 -3.47233 -2.08734 
-7.83832 -3.50302 -2.12681 -7.83968 -3.53378 -2.16624 -7.8408 -3.56461 -2.20562 
-7.84169 -3.59552 -2.24495 -7.84236 -3.6265 -2.28423 -7.84282 -3.65757 -2.32345 
-7.84307 -3.68872 -2.3626 -7.84311 -3.71995 -2.40169 -7.84295 -3.75127 -2.44071 
-7.8426 -3.78269 -2.47966 -7.84206 -3.81419 -2.51853 -7.84134 -3.84579 -2.55731 
-7.84043 -3.87749 -2.59601 -7.83936 -3.90929 -2.63462 -7.83811 -3.94119 -2.67314 
-7.83671 -3.9732 -2.71155 -7.83514 -4.00531 -2.74987 -7.83343 -4.03753 -2.78808 
-7.83156 -4.06987 -2.82619 -7.82955 -4.10233 -2.86418 -7.82741 -4.1349 -2.90206 
-7.82512 -4.16759 -2.93983 -7.8227 -4.20041 -2.97747 -7.82015 -4.23336 -3.015 
-7.81748 -4.26644 -3.05241 -7.81468 -4.29965 -3.08968 -7.81177 -4.333 -3.12683 
-7.80874 -4.36649 -3.16385 -7.80561 -4.40013 -3.20074 -7.80237 -4.43391 -3.23749 
-7.79902 -4.46784 -3.2741 -7.79558 -4.50192 -3.31058 -7.79204 -4.53616 -3.34691 
-7.78841 -4.57055 -3.38309 -7.7847 -4.60511 -3.41912 -7.7809 -4.63983 -3.45501 
-7.77702 -4.67472 -3.49074 -7.77307 -4.70978 -3.52631 -7.76905 -4.74501 -3.56173 
-7.76496 -4.78041 -3.59697 -7.7608 -4.81599 -3.63204 -7.75659 -4.85175 -3.66692 
-7.75232 -4.88768 -3.70161 -7.748 -4.92379 -3.73611 -7.74364 -4.96008 -3.7704 
-7.73923 -4.99655 -3.80447 -7.73478 -5.0332 -3.83833 -7.7303 -5.07004 -3.87196 
-7.72579 -5.10706 -3.90536 -7.72125 -5.14427 -3.93851 -7.71669 -5.18167 -3.97142 
-7.71211 -5.21925 -4.00407 -7.70752 -5.25703 -4.03645 -7.70291 -5.295 -4.06857 
-7.69831 -5.33315 -4.10041 -7.6937 -5.37151 -4.13196 -7.68909 -5.41006 -4.16322 
-7.68449 -5.4488 -4.19419 -7.67989 -5.48775 -4.22484 -7.67532 -5.52692 -4.25519 
-7.67076 -5.56631 -4.28521 -7.66622 -5.60594 -4.31491 -7.66171 -5.64582 -4.34428 
-7.65723 -5.68597 -4.37332 -7.65278 -5.72639 -4.40201 -7.64837 -5.7671 -4.43035 
-7.644 -5.80811 -4.45833 -7.63968 -5.84943 -4.48595 -7.6354 -5.89108 -4.51321 
-7.63118 -5.93307 -4.54009 -7.62701 -5.9754 -4.56659 -7.6229 -6.01809 -4.5927 
-7.61886 -6.06116 -4.61842 -7.61489 -6.10461 -4.64374 -7.61098 -6.14846 -4.66866 
-7.60716 -6.19272 -4.69316 -7.60341 -6.2374 -4.71725 -7.59975 -6.28252 -4.74091 
-7.59618 -6.32807 -4.76412 -7.59273 -6.37403 -4.78679 -7.58945 -6.42039 -4.80884 
-7.58635 -6.46712 -4.83018 -7.58347 -6.51421 -4.85072 -7.58084 -6.56162 -4.87037 
-7.57849 -6.60933 -4.88905 -7.57645 -6.65733 -4.90667 -7.57476 -6.7056 -4.92315 
-7.57345 -6.7541 -4.93839 -7.57254 -6.80282 -4.9523 -7.57207 -6.85174 -4.96481 
-7.57207 -6.90083 -4.97582 -7.57258 -6.95007 -4.98525 -7.57361 -6.99944 -4.993 
-7.57521 -7.04892 -4.999 -7.57741 -7.09849 -5.00315 -7.58023 -7.14812 -5.00536 
-7.58371 -7.19779 -5.00556 -7.58788 -7.24748 -5.00364 -7.59277 -7.29716 -4.99956 
-7.59835 -7.34675 -4.99333 -7.6046 -7.39618 -4.98503 -7.61149 -7.44535 -4.9747 
-7.61901 -7.49419 -4.9624 -7.62713 -7.54261 -4.94819 -7.63582 -7.59053 -4.93212 
-7.64506 -7.63787 -4.91425 -7.65483 -7.68454 -4.89463 -7.66509 -7.73046 -4.87332 
-7.67583 -7.77555 -4.85039 -7.68703 -7.81973 -4.82587 -7.69865 -7.86291 -4.79983 
-7.71067 -7.90501 -4.77233 -7.72307 -7.94594 -4.74342 -7.73583 -7.98563 -4.71315 
-7.74891 -8.024 -4.68159 -7.7623 -8.06095 -4.64879 -7.77597 -8.0964 -4.6148 
-7.7899 -8.13028 -4.57968 -7.80406 -8.16253 -4.54349 -7.81843 -8.1932 -4.50627 
-7.83301 -8.22234 -4.46809 -7.84776 -8.25002 -4.42899 -7.86269 -8.2763 -4.38902 
-7.87775 -8.30123 -4.34824 -7.89295 -8.32488 -4.30669 -7.90827 -8.3473 -4.26444 
-7.92368 -8.36856 -4.22152 -7.93917 -8.38872 -4.178 -7.95473 -8.40783 -4.13393 
-7.97033 -8.42596 -4.08935 -7.98596 -8.44317 -4.04432 -8.0016 -8.45952 -3.99889 
-8.01724 -8.47506 -3.95311 -8.03286 -8.48986 -3.90704 -8.04844 -8.50397 -3.86072 
-8.06397 -8.51747 -3.81421 -8.07942 -8.5304 -3.76757 -8.09479 -8.54283 -3.72083 
-8.11005 -8.55481 -3.67405 -8.1252 -8.56637 -3.62724 -8.14024 -8.57751 -3.5804 
-8.15517 -8.58824 -3.53352 -8.16999 -8.59858 -3.48661 -8.18469 -8.60853 -3.43966 
[...]
CELL_DATA 1
FIELD FieldData 2
Length 1 1 double
63.866803561 
Tortuosity 1 1 double
0.71338955966 
POINT_DATA 1278
SCALARS MaximumInscribedSphereRadius float
LOOKUP_TABLE default
1.24 1.24 1.24 1.24 1.24 1.24 1.24 1.24 1.24 
1.24 1.24 1.24 1.24 1.24 1.24 1.24 1.24 1.24 
1.24 1.24 1.24 1.24012 1.24155 1.24299 1.24442 1.24585 1.24728 
1.24871 1.25015 1.25158 1.25301 1.25444 1.25587 1.25731 1.25874 1.26017 
1.2616 1.26303 1.26447 1.2659 1.26733 1.27015 1.27436 1.27857 1.28279 
1.287 1.29121 1.29543 1.29964 1.30385 1.30807 1.31228 1.31649 1.32071 
1.32492 1.32913 1.33335 1.33756 1.34177 1.34599 1.3502 1.35503 1.36277 
1.37052 1.37826 1.386 1.39374 1.40149 1.40923 1.41697 1.42472 1.43246 
1.4402 1.44794 1.45569 1.46343 1.47117 1.47891 1.48666 1.4944 1.50214 
1.50989 1.52045 1.53137 1.54229 1.55321 1.56413 1.57505 1.58597 1.5969 
1.60782 1.61874 1.62966 1.64058 1.6515 1.66243 1.67335 1.68427 1.69519 
1.70611 1.71703 1.72796 1.72451 1.71163 1.69876 1.68589 1.67302 1.66015 
1.64728 1.63441 1.62154 1.60867 1.5958 1.58293 1.57006 1.55719 1.54431 
1.53144 1.51857 1.5057 1.49283 1.47996 1.46986 1.46566 1.46147 1.45728 
1.45309 1.4489 1.44471 1.44052 1.43633 1.43214 1.42795 1.42375 1.41956 
1.41537 1.41118 1.40699 1.4028 1.39861 1.39442 1.39023 1.38655 1.39465 
1.40276 1.41087 1.41897 1.42708 1.43518 1.44329 1.4514 1.4595 1.46761 
1.47571 1.48382 1.49193 1.50003 1.50814 1.51624 1.52435 1.53246 1.54056 
1.54867 1.55 1.55 1.55 1.55 1.55 1.55 1.55 1.55 
1.55 1.55 1.55 1.55 1.55 1.55 1.55 1.55 1.55 
1.55 1.55 1.55 1.55 1.55 1.55 1.55 1.55 1.55 
1.55 1.55 1.55 1.55 1.55 1.55 1.55 1.55 1.55 
1.55 1.55 1.55 1.55 1.55 1.55 1.55 1.55 1.55 
1.55 1.55 1.55 1.55 1.55 1.55 1.55 1.55 1.55 
1.55 1.55 1.55 1.55 1.55 1.55 1.55 1.55011 1.55223 
1.55434 1.55646 1.55857 1.56069 1.56281 1.56492 1.56704 1.56915 1.57127 
1.57339 1.5755 1.57762 1.57973 1.58185 1.58396 1.58608 1.5882 1.59031 
1.59243 1.60974 1.63166 1.65358 1.6755 1.69742 1.71933 1.74125 1.76317 
1.78509 1.80701 1.82893 1.85085 1.87277 1.89469 1.91661 1.93852 1.96044 
1.98236 2.00428 2.0262 2.04686 2.06618 2.0855 2.10481 2.12413 2.14345 
2.16276 2.18208 2.2014 2.22072 2.24003 2.25935 2.27867 2.29798 2.3173 
2.33662 2.35593 2.37525 2.39457 2.41389 2.42939 2.43193 2.43446 2.43699 
2.43952 2.44206 2.44459 2.44712 2.44965 2.45219 2.45472 2.45725 2.45978 
2.46232 2.46485 2.46738 2.46991 2.47244 2.47498 2.47751 2.47986 2.47121 
2.46256 2.45391 2.44526 2.43662 2.42797 2.41932 2.41067 2.40202 2.39338 
2.38473 2.37608 2.36743 2.35878 2.35014 2.34149 2.33284 2.32419 2.31554 
2.30983 2.32772 2.34561 2.3635 2.38139 2.39928 2.41717 2.43506 2.45295 
2.47084 2.48873 2.50663 2.52452 2.54241 2.5603 2.57819 2.59608 2.61397 
2.63186 2.64975 2.66764 2.68407 2.70019 2.71632 2.73244 2.74856 2.76468 
2.7808 2.79692 2.81304 2.82916 2.84528 2.8614 2.87752 2.89364 2.90976 
2.92588 2.942 2.95812 2.97424 2.99036 2.98777 2.96997 2.95217 2.93437 
2.91657 2.89877 2.88097 2.86317 2.84537 2.82757 2.80977 2.79197 2.77417 
2.75637 2.73857 2.72077 2.70297 2.68517 2.66737 2.64957 2.63311 2.62033 
2.60754 2.59475 2.58196 2.56917 2.55638 2.54359 2.5308 2.51801 2.50522 
2.49243 2.47965 2.46686 2.45407 2.44128 2.42849 2.4157 2.40291 2.39012 
2.37733 2.37197 2.36673 2.36149 2.35624 2.351 2.34576 2.34052 2.33528 
2.33004 2.3248 2.31956 2.31432 2.30908 2.30384 2.2986 2.29336 2.28812 
2.28288 2.27764 2.2724 2.28134 2.29622 2.31111 2.32599 2.34087 2.35576 
2.37064 2.38552 2.40041 2.41529 2.43017 2.44506 2.45994 2.47482 2.48971 
2.50459 2.51947 2.53436 2.54924 2.56412 2.57214 2.57149 2.57083 2.57018 
2.56952 2.56887 2.56821 2.56756 2.5669 2.56625 2.56559 2.56494 2.56429 
2.56363 2.56298 2.56232 2.56167 2.56101 2.56036 2.5597 2.5576 2.54911 
2.54063 2.53215 2.52367 2.51519 2.50671 2.49823 2.48975 2.48127 2.47278 
2.4643 2.45582 2.44734 2.43886 2.43038 2.4219 2.41342 2.40493 2.39645 
2.38797 2.41058 2.436 2.46142 2.48683 2.51225 2.53767 2.56308 2.5885 
2.61392 2.63933 2.66475 2.69017 2.71558 2.741 2.76642 2.79183 2.81725 
2.84267 2.86808 2.8935 2.90081 2.89801 2.89521 2.89241 2.88961 2.8868 
2.884 2.8812 2.8784 2.8756 2.8728 2.86999 2.86719 2.86439 2.86159 
2.85879 2.85599 2.85318 2.85038 2.84758 2.83952 2.82214 2.80477 2.7874 
2.77002 2.75265 2.73527 2.7179 2.70052 2.68315 2.66577 2.6484 2.63102 
2.61365 2.59628 2.5789 2.56153 2.54415 2.52678 2.5094 2.49258 2.48239 
2.47221 2.46202 2.45183 2.44165 2.43146 2.42127 2.41109 2.4009 2.39072 
2.38053 2.37034 2.36016 2.34997 2.33978 2.3296 2.31941 2.30923 2.29904 
2.28885 2.28226 2.27664 2.27101 2.26538 2.25975 2.25413 2.2485 2.24287 
2.23725 2.23162 2.22599 2.22036 2.21474 2.20911 2.20348 2.19786 2.19223 
2.1866 2.18098 2.17535 2.17248 2.17235 2.17223 2.1721 2.17198 2.17185 
2.17173 2.1716 2.17148 2.17135 2.17123 2.1711 2.17097 2.17085 2.17072 
2.1706 2.17047 2.17035 2.17022 2.1701 2.17135 2.17764 2.18394 2.19024 
2.19653 2.20283 2.20912 2.21542 2.22172 2.22801 2.23431 2.24061 2.2469 
2.2532 2.25949 2.26579 2.27209 2.27838 2.28468 2.29098 2.29727 2.30292 
2.30852 2.31411 2.31971 2.32531 2.33091 2.33651 2.3421 2.3477 2.3533 
2.3589 2.3645 2.3701 2.37569 2.38129 2.38689 2.39249 2.39809 2.40368 
2.40928 2.40123 2.38601 2.37079 2.35556 2.34034 2.32512 2.30989 2.29467 
2.27945 2.26423 2.249 2.23378 2.21856 2.20333 2.18811 2.17289 2.15767 
2.14244 2.12722 2.112 2.10084 2.09621 2.09158 2.08695 2.08232 2.07769 
2.07306 2.06843 2.0638 2.05917 2.05454 2.04991 2.04528 2.04065 2.03602 
2.03139 2.02676 2.02213 2.01751 2.01288 2.01079 2.02955 2.04831 2.06707 
2.08583 2.10459 2.12335 2.14211 2.16087 2.17963 2.19839 2.21715 2.23591 
2.25467 2.27343 2.29219 2.31095 2.32971 2.34847 2.36723 2.38599 2.38294 
2.37543 2.36791 2.3604 2.35288 2.34537 2.33785 2.33034 2.32282 2.31531 
2.30779 2.30028 2.29276 2.28525 2.27773 2.27022 2.2627 2.25518 2.24767 
2.24015 2.22858 2.21367 2.19876 2.18385 2.16893 2.15402 2.13911 2.1242 
2.10928 2.09437 2.07946 2.06455 2.04963 2.03472 2.01981 2.0049 1.98998 
1.97507 1.96016 1.94525 1.93491 1.93725 1.93959 1.94194 1.94428 1.94662 
1.94896 1.9513 1.95365 1.95599 1.95833 1.96067 1.96301 1.96535 1.9677 
1.97004 1.97238 1.97472 1.97706 1.9794 1.98175 1.9833 1.98485 1.98639 
1.98794 1.98948 1.99102 1.99257 1.99411 1.99565 1.9972 1.99874 2.00028 
2.00183 2.00337 2.00492 2.00646 2.008 2.00955 2.01109 2.01263 2.00712 
1.99854 1.98996 1.98138 1.9728 1.96422 1.95564 1.94706 1.93848 1.9299 
1.92132 1.91275 1.90417 1.89559 1.88701 1.87843 1.86985 1.86127 1.85269 
1.84411 1.84254 1.85091 1.85929 1.86766 1.87603 1.8844 1.89278 1.90115 
1.90952 1.91789 1.92627 1.93464 1.94301 1.95138 1.95976 1.96813 1.9765 
1.98487 1.99324 2.00162 2.01149 2.03152 2.05154 2.07156 2.09159 2.11161 
2.13164 2.15166 2.17168 2.19171 2.21173 2.23175 2.25178 2.2718 2.29183 
2.31185 2.33187 2.3519 2.37192 2.39194 2.41197 2.41812 2.42172 2.42531 
2.4289 2.4325 2.43609 2.43968 2.44328 2.44687 2.45046 2.45405 2.45765 
2.46124 2.46483 2.46843 2.47202 2.47561 2.47921 2.4828 2.48639 2.48601 
2.48251 2.47901 2.47551 2.47201 2.46851 2.46501 2.46151 2.45801 2.45451 
2.45102 2.44752 2.44402 2.44052 2.43702 2.43352 2.43002 2.42652 2.42302 
2.41952 2.41435 2.40487 2.39538 2.38589 2.3764 2.36691 2.35743 2.34794 
2.33845 2.32896 2.31947 2.30998 2.3005 2.29101 2.28152 2.27203 2.26254 
2.25306 2.24357 2.23408 2.22459 2.22188 2.21919 2.2165 2.21381 2.21112 
2.20843 2.20574 2.20305 2.20035 2.19766 2.19497 2.19228 2.18959 2.1869 
2.18421 2.18152 2.17882 2.17613 2.17344 2.17075 2.17407 2.17972 2.18536 
2.19101 2.19665 2.2023 2.20795 2.21359 2.21924 2.22488 2.23053 2.23618 
2.24182 2.24747 2.25311 2.25876 2.26441 2.27005 2.2757 2.28134 2.29257 
2.31068 2.32879 2.3469 2.365 2.38311 2.40122 2.41933 2.43744 2.45554 
2.47365 2.49176 2.50987 2.52797 2.54608 2.56419 2.5823 2.60041 2.61851 
2.63662 2.65214 2.65617 2.6602 2.66423 2.66826 2.67229 2.67632 2.68035 
2.68438 2.68841 2.69244 2.69647 2.7005 2.70453 2.70857 2.7126 2.71663 
2.72066 2.72469 2.72872 2.73275 2.72675 2.71987 2.713 2.70612 2.69925 
2.69237 2.6855 2.67862 2.67175 2.66487 2.658 2.65112 2.64425 2.63737 
2.6305 2.62362 2.61674 2.60987 2.60299 2.59612 2.5857 2.57337 2.56103 
2.5487 2.53637 2.52404 2.5117 2.49937 2.48704 2.4747 2.46237 2.45004 
2.43771 2.42537 2.41304 2.40071 2.38838 2.37604 2.36371 2.35138 2.33818 
2.32353 2.30887 2.29422 2.27957 2.26492 2.25027 2.23561 2.22096 2.20631 
2.19166 2.17701 2.16236 2.1477 2.13305 2.1184 2.10375 2.0891 2.07444 
2.05979 2.04498 2.02855 2.01212 1.99569 1.97927 1.96284 1.94641 1.92998 
1.91355 1.89713 1.8807 1.86427 1.84784 1.83141 1.81498 1.79856 1.78213 
1.7657 1.74927 1.73284 1.71642 1.72592 1.74161 1.7573 1.77299 1.78868 
1.80437 1.82006 1.83575 1.85144 1.86713 1.88282 1.89851 1.9142 1.92989 
1.94558 1.96127 1.97697 1.99266 2.00835 2.02404 2.04905 2.08267 2.1163 
2.14992 2.18354 2.21716 2.25079 2.28441 2.31803 2.35166 2.38528 2.4189 
2.45252 2.48615 2.51977 2.55339 2.58702 2.62064 2.65426 2.68788 2.71652 
2.729 2.74149 2.75398 2.76646 2.77895 2.79143 2.80392 2.81641 2.82889 
2.84138 2.85386 2.86635 2.87884 2.89132 2.90381 2.91629 2.92878 2.94127 
2.95375 2.96624 2.97614 2.98592 2.9957 3.00547 3.01525 3.02503 3.03481 
3.04459 3.05437 3.06414 3.07392 3.0837 3.09348 3.10326 3.11304 3.12282 
3.13259 3.14237 3.15215 3.16193 3.17134 3.18057 3.1898 3.19903 3.20827 
3.2175 3.22673 3.23596 3.2452 3.25443 3.26366 3.2729 3.28213 3.29136 
3.30059 3.30983 3.31906 3.32829 3.33753 3.34676 3.34105 3.31427 3.28749 
3.26071 3.23393 3.20715 3.18037 3.15359 3.12681 3.10003 3.07325 3.04647 
3.01969 2.99291 2.96613 2.93935 2.91257 2.88579 2.859 2.83222 2.80448 
2.77095 2.73742 2.7039 2.67037 2.63684 2.60331 2.56979 2.53626 2.50273 
2.4692 2.43568 2.40215 2.36862 2.33509 2.30157 2.26804 2.23451 2.20098 
2.16746 2.13393 2.11153 2.0911 2.07067 2.05024 2.02981 2.00938 1.98894 
1.96851 1.94808 1.92765 1.90722 1.88679 1.86636 1.84593 1.8255 1.80507 
1.78464 1.76421 1.74378 1.72335 1.70903 1.70069 1.69235 1.68401 1.67567 
1.66733 1.65899 1.65065 1.64231 1.63397 1.62563 1.61729 1.60895 1.60061 
1.59227 1.58393 1.57559 1.56725 1.55891 1.55057 1.55 1.55 1.55 
1.55 1.55 1.55 1.55 1.55 1.55 1.55 1.55 1.55 
1.55 1.55 1.55 1.55 1.55 1.55 1.55 1.55 1.55 

TEXTURE_COORDINATES TCoords 2 float
0 0 0.000783085 0 0.00156617 0 0.00234926 0 0.00313234 
0 0.00391543 0 0.00469851 0 0.0054816 0 0.00626468 0 
0.00704777 0 0.00783085 0 0.00861394 0 0.00939702 0 0.0101801 
0 0.0109632 0 0.0117463 0 0.0125294 0 0.0133125 0 
0.0140955 0 0.0148786 0 0.0156617 0 0.0164448 0 0.0172279 
0 0.018011 0 0.018794 0 0.0195771 0 0.0203602 0 
0.0211433 0 0.0219264 0 0.0227095 0 0.0234926 0 0.0242756 
0 0.0250587 0 0.0258418 0 0.0266249 0 0.027408 0 
0.0281911 0 0.0289742 0 0.0297572 0 0.0305403 0 0.0313234 
0 0.0321065 0 0.0328896 0 0.0336727 0 0.0344558 0 
0.0352388 0 0.0360219 0 0.036805 0 0.0375881 0 0.0383712 
0 0.0391543 0 0.0399374 0 0.0407204 0 0.0415035 0 
0.0422866 0 0.0430697 0 0.0438528 0 0.0446359 0 0.045419 
0 0.046202 0 0.0469851 0 0.0477682 0 0.0485513 0 
0.0493344 0 0.0501175 0 0.0509005 0 0.0516836 0 0.0524667 
0 0.0532498 0 0.0540329 0 0.054816 0 0.0555991 0 
0.0563821 0 0.0571652 0 0.0579483 0 0.0587314 0 0.0595145 
0 0.0602976 0 0.0610807 0 0.0618637 0 0.0626468 0 
0.0634299 0 0.064213 0 0.0649961 0 0.0657792 0 0.0665623 
0 0.0673453 0 0.0681284 0 0.0689115 0 0.0696946 0 
0.0704777 0 0.0712608 0 0.0720439 0 0.0728269 0 0.07361 
0 0.0743931 0 0.0751762 0 0.0759593 0 0.0767424 0 
0.0775255 0 0.0783085 0 0.0790916 0 0.0798747 0 0.0806578 
0 0.0814409 0 0.082224 0 0.083007 0 0.0837901 0 
0.0845732 0 0.0853563 0 0.0861394 0 0.0869225 0 0.0877056 
0 0.0884886 0 0.0892717 0 0.0900548 0 0.0908379 0 
0.091621 0 0.0924041 0 0.0931872 0 0.0939702 0 0.0947533 
0 0.0955364 0 0.0963195 0 0.0971026 0 0.0978857 0 
0.0986688 0 0.0994518 0 0.100235 0 0.101018 0 0.101801 
0 0.102584 0 0.103367 0 0.10415 0 0.104933 0 
0.105717 0 0.1065 0 0.107283 0 0.108066 0 0.108849 
0 0.109632 0 0.110415 0 0.111198 0 0.111981 0 
0.112764 0 0.113547 0 0.11433 0 0.115114 0 0.115897 
0 0.11668 0 0.117463 0 0.118246 0 0.119029 0 
0.119812 0 0.120595 0 0.121378 0 0.122161 0 0.122944 
0 0.123727 0 0.124511 0 0.125294 0 0.126077 0 
0.12686 0 0.127643 0 0.128426 0 0.129209 0 0.129992 
0 0.130775 0 0.131558 0 0.132341 0 0.133125 0 
0.133908 0 0.134691 0 0.135474 0 0.136257 0 0.13704 
0 0.137823 0 0.138606 0 0.139389 0 0.140172 0 
0.140955 0 0.141738 0 0.142522 0 0.143305 0 0.144088 
0 0.144871 0 0.145654 0 0.146437 0 0.14722 0 
0.148003 0 0.148786 0 0.149569 0 0.150352 0 0.151135 
0 0.151919 0 0.152702 0 0.153485 0 0.154268 0 
0.155051 0 0.155834 0 0.156617 0 0.1574 0 0.158183 
0 0.158966 0 0.159749 0 0.160533 0 0.161316 0 
0.162099 0 0.162882 0 0.163665 0 0.164448 0 0.165231 
0 0.166014 0 0.166797 0 0.16758 0 0.168363 0 
0.169146 0 0.16993 0 0.170713 0 0.171496 0 0.172279 
0 0.173062 0 0.173845 0 0.174628 0 0.175411 0 
0.176194 0 0.176977 0 0.17776 0 0.178543 0 0.179327 
0 0.18011 0 0.180893 0 0.181676 0 0.182459 0 
0.183242 0 0.184025 0 0.184808 0 0.185591 0 0.186374 
0 0.187157 0 0.18794 0 0.188724 0 0.189507 0 
0.19029 0 0.191073 0 0.191856 0 0.192639 0 0.193422 
0 0.194205 0 0.194988 0 0.195771 0 0.196554 0 
0.197338 0 0.198121 0 0.198904 0 0.199687 0 0.20047 
0 0.201253 0 0.202036 0 0.202819 0 0.203602 0 
0.204385 0 0.205168 0 0.205951 0 0.206735 0 0.207518 
0 0.208301 0 0.209084 0 0.209867 0 0.21065 0 
0.211433 0 0.212216 0 0.212999 0 0.213782 0 0.214565 
0 0.215348 0 0.216132 0 0.216915 0 0.217698 0 
0.218481 0 0.219264 0 0.220047 0 0.22083 0 0.221613 
0 0.222396 0 0.223179 0 0.223962 0 0.224745 0 
0.225529 0 0.226312 0 0.227095 0 0.227878 0 0.228661 
0 0.229444 0 0.230227 0 0.23101 0 0.231793 0 
0.232576 0 0.233359 0 0.234143 0 0.234926 0 0.235709 
0 0.236492 0 0.237275 0 0.238058 0 0.238841 0 
0.239624 0 0.240407 0 0.24119 0 0.241973 0 0.242756 
0 0.24354 0 0.244323 0 0.245106 0 0.245889 0 
0.246672 0 0.247455 0 0.248238 0 0.249021 0 0.249804 
0 0.250587 0 0.25137 0 0.252153 0 0.252937 0 
0.25372 0 0.254503 0 0.255286 0 0.256069 0 0.256852 
0 0.257635 0 0.258418 0 0.259201 0 0.259984 0 
0.260767 0 0.261551 0 0.262334 0 0.263117 0 0.2639 
0 0.264683 0 0.265466 0 0.266249 0 0.267032 0 
0.267815 0 0.268598 0 0.269381 0 0.270164 0 0.270948 
0 0.271731 0 0.272514 0 0.273297 0 0.27408 0 
0.274863 0 0.275646 0 0.276429 0 0.277212 0 0.277995 
0 0.278778 0 0.279561 0 0.280345 0 0.281128 0 
0.281911 0 0.282694 0 0.283477 0 0.28426 0 0.285043 
0 0.285826 0 0.286609 0 0.287392 0 0.288175 0 
0.288958 0 0.289742 0 0.290525 0 0.291308 0 0.292091 
0 0.292874 0 0.293657 0 0.29444 0 0.295223 0 
0.296006 0 0.296789 0 0.297572 0 0.298356 0 0.299139 
0 0.299922 0 0.300705 0 0.301488 0 0.302271 0 
0.303054 0 0.303837 0 0.30462 0 0.305403 0 0.306186 
0 0.306969 0 0.307753 0 0.308536 0 0.309319 0 
0.310102 0 0.310885 0 0.311668 0 0.312451 0 0.313234 
0 0.314017 0 0.3148 0 0.315583 0 0.316366 0 
0.31715 0 0.317933 0 0.318716 0 0.319499 0 0.320282 
0 0.321065 0 0.321848 0 0.322631 0 0.323414 0 
0.324197 0 0.32498 0 0.325763 0 0.326547 0 0.32733 
0 0.328113 0 0.328896 0 0.329679 0 0.330462 0 
0.331245 0 0.332028 0 0.332811 0 0.333594 0 0.334377 
0 0.335161 0 0.335944 0 0.336727 0 0.33751 0 
0.338293 0 0.339076 0 0.339859 0 0.340642 0 0.341425 
0 0.342208 0 0.342991 0 0.343774 0 0.344558 0 
0.345341 0 0.346124 0 0.346907 0 0.34769 0 0.348473 
0 0.349256 0 0.350039 0 0.350822 0 0.351605 0 
0.352388 0 0.353171 0 0.353955 0 0.354738 0 0.355521 
0 0.356304 0 0.357087 0 0.35787 0 0.358653 0 
0.359436 0 0.360219 0 0.361002 0 0.361785 0 0.362569 
0 0.363352 0 0.364135 0 0.364918 0 0.365701 0 
0.366484 0 0.367267 0 0.36805 0 0.368833 0 0.369616 
0 0.370399 0 0.371182 0 0.371966 0 0.372749 0 
0.373532 0 0.374315 0 0.375098 0 0.375881 0 0.376664 
0 0.377447 0 0.37823 0 0.379013 0 0.379796 0 
0.380579 0 0.381363 0 0.382146 0 0.382929 0 0.383712 
0 0.384495 0 0.385278 0 0.386061 0 0.386844 0 
0.387627 0 0.38841 0 0.389193 0 0.389977 0 0.39076 
0 0.391543 0 0.392326 0 0.393109 0 0.393892 0 
0.394675 0 0.395458 0 0.396241 0 0.397024 0 0.397807 
0 0.39859 0 0.399374 0 0.400157 0 0.40094 0 
0.401723 0 0.402506 0 0.403289 0 0.404072 0 0.404855 
0 0.405638 0 0.406421 0 0.407204 0 0.407987 0 
0.408771 0 0.409554 0 0.410337 0 0.41112 0 0.411903 
0 0.412686 0 0.413469 0 0.414252 0 0.415035 0 
0.415818 0 0.416601 0 0.417385 0 0.418168 0 0.418951 
0 0.419734 0 0.420517 0 0.4213 0 0.422083 0 
0.422866 0 0.423649 0 0.424432 0 0.425215 0 0.425998 
0 0.426782 0 0.427565 0 0.428348 0 0.429131 0 
0.429914 0 0.430697 0 0.43148 0 0.432263 0 0.433046 
0 0.433829 0 0.434612 0 0.435395 0 0.436179 0 
0.436962 0 0.437745 0 0.438528 0 0.439311 0 0.440094 
0 0.440877 0 0.44166 0 0.442443 0 0.443226 0 
0.444009 0 0.444792 0 0.445576 0 0.446359 0 0.447142 
0 0.447925 0 0.448708 0 0.449491 0 0.450274 0 
0.451057 0 0.45184 0 0.452623 0 0.453406 0 0.45419 
0 0.454973 0 0.455756 0 0.456539 0 0.457322 0 
0.458105 0 0.458888 0 0.459671 0 0.460454 0 0.461237 
0 0.46202 0 0.462803 0 0.463587 0 0.46437 0 
0.465153 0 0.465936 0 0.466719 0 0.467502 0 0.468285 
0 0.469068 0 0.469851 0 0.470634 0 0.471417 0 
0.4722 0 0.472984 0 0.473767 0 0.47455 0 0.475333 
0 0.476116 0 0.476899 0 0.477682 0 0.478465 0 
0.479248 0 0.480031 0 0.480814 0 0.481597 0 0.482381 
0 0.483164 0 0.483947 0 0.48473 0 0.485513 0 
0.486296 0 0.487079 0 0.487862 0 0.488645 0 0.489428 
0 0.490211 0 0.490995 0 0.491778 0 0.492561 0 
0.493344 0 0.494127 0 0.49491 0 0.495693 0 0.496476 
0 0.497259 0 0.498042 0 0.498825 0 0.499608 0 
0.500392 0 0.501175 0 0.501958 0 0.502741 0 0.503524 
0 0.504307 0 0.50509 0 0.505873 0 0.506656 0 
0.507439 0 0.508222 0 0.509005 0 0.509789 0 0.510572 
0 0.511355 0 0.512138 0 0.512921 0 0.513704 0 
0.514487 0 0.51527 0 0.516053 0 0.516836 0 0.517619 
0 0.518403 0 0.519186 0 0.519969 0 0.520752 0 
0.521535 0 0.522318 0 0.523101 0 0.523884 0 0.524667 
0 0.52545 0 0.526233 0 0.527016 0 0.5278 0 
0.528583 0 0.529366 0 0.530149 0 0.530932 0 0.531715 
0 0.532498 0 0.533281 0 0.534064 0 0.534847 0 
0.53563 0 0.536413 0 0.537197 0 0.53798 0 0.538763 
0 0.539546 0 0.540329 0 0.541112 0 0.541895 0 
0.542678 0 0.543461 0 0.544244 0 0.545027 0 0.545811 
0 0.546594 0 0.547377 0 0.54816 0 0.548943 0 
0.549726 0 0.550509 0 0.551292 0 0.552075 0 0.552858 
0 0.553641 0 0.554424 0 0.555207 0 0.555991 0 
0.556774 0 0.557557 0 0.55834 0 0.559123 0 0.559906 
0 0.560689 0 0.561472 0 0.562255 0 0.563038 0 
0.563821 0 0.564605 0 0.565388 0 0.566171 0 0.566954 
0 0.567737 0 0.56852 0 0.569303 0 0.570086 0 
0.570869 0 0.571652 0 0.572435 0 0.573218 0 0.574002 
0 0.574785 0 0.575568 0 0.576351 0 0.577134 0 
0.577917 0 0.5787 0 0.579483 0 0.580266 0 0.581049 
0 0.581832 0 0.582615 0 0.583399 0 0.584182 0 
0.584965 0 0.585748 0 0.586531 0 0.587314 0 0.588097 
0 0.58888 0 0.589663 0 0.590446 0 0.591229 0 
0.592013 0 0.592796 0 0.593579 0 0.594362 0 0.595145 
0 0.595928 0 0.596711 0 0.597494 0 0.598277 0 
0.59906 0 0.599843 0 0.600626 0 0.60141 0 0.602193 
0 0.602976 0 0.603759 0 0.604542 0 0.605325 0 
0.606108 0 0.606891 0 0.607674 0 0.608457 0 0.60924 
0 0.610023 0 0.610807 0 0.61159 0 0.612373 0 
0.613156 0 0.613939 0 0.614722 0 0.615505 0 0.616288 
0 0.617071 0 0.617854 0 0.618637 0 0.619421 0 
0.620204 0 0.620987 0 0.62177 0 0.622553 0 0.623336 
0 0.624119 0 0.624902 0 0.625685 0 0.626468 0 
0.627251 0 0.628034 0 0.628818 0 0.629601 0 0.630384 
0 0.631167 0 0.63195 0 0.632733 0 0.633516 0 
0.634299 0 0.635082 0 0.635865 0 0.636648 0 0.637432 
0 0.638215 0 0.638998 0 0.639781 0 0.640564 0 
0.641347 0 0.64213 0 0.642913 0 0.643696 0 0.644479 
0 0.645262 0 0.646045 0 0.646829 0 0.647612 0 
0.648395 0 0.649178 0 0.649961 0 0.650744 0 0.651527 
0 0.65231 0 0.653093 0 0.653876 0 0.654659 0 
0.655442 0 0.656226 0 0.657009 0 0.657792 0 0.658575 
0 0.659358 0 0.660141 0 0.660924 0 0.661707 0 
0.66249 0 0.663273 0 0.664056 0 0.664839 0 0.665623 
0 0.666406 0 0.667189 0 0.667972 0 0.668755 0 
0.669538 0 0.670321 0 0.671104 0 0.671887 0 0.67267 
0 0.673453 0 0.674236 0 0.67502 0 0.675803 0 
0.676586 0 0.677369 0 0.678152 0 0.678935 0 0.679718 
0 0.680501 0 0.681284 0 0.682067 0 0.68285 0 