# vtk DataFile Version 4.2
vtk output
ASCII
DATASET POLYDATA
POINTS 1279 float
0 0 0 -0.000978941 0.000543973 -0.0040033 -0.00386045 0.00211006 -0.015668 
-0.00856155 0.00459952 -0.0344762 -0.0149993 0.0079136 -0.0599102 -0.0230907 0.0119536 -0.0914522 
-0.0327527 0.0166206 -0.128584 -0.0439025 0.0218161 -0.170789 -0.056457 0.0274412 -0.217547 
-0.0703333 0.0333972 -0.268343 -0.0854483 0.0395853 -0.322657 -0.101719 0.0459069 -0.379972 
-0.119063 0.0522631 -0.439771 -0.137397 0.0585552 -0.501535 -0.156637 0.0646844 -0.564746 
-0.176702 0.0705521 -0.628887 -0.197507 0.0760594 -0.69344 -0.21897 0.0811076 -0.757887 
-0.241009 0.085598 -0.821711 -0.263539 0.0894319 -0.884393 -0.286479 0.0925104 -0.945415 
-0.309746 0.0947362 -1.00427 -0.333305 0.09606 -1.06071 -0.35718 0.0964915 -1.11483 
-0.381396 0.0960444 -1.16672 -0.405979 0.094732 -1.21651 -0.430955 0.0925679 -1.2643 
-0.456351 0.0895655 -1.3102 -0.482192 0.0857384 -1.3543 -0.508505 0.0811001 -1.39673 
-0.535316 0.075664 -1.43759 -0.562651 0.0694437 -1.47698 -0.590535 0.0624526 -1.51502 
-0.618996 0.0547042 -1.55181 -0.64806 0.0462121 -1.58746 -0.677751 0.0369898 -1.62208 
-0.708097 0.0270506 -1.65577 -0.739124 0.0164082 -1.68865 -0.770858 0.00507597 -1.72081 
-0.803324 -0.00693252 -1.75238 -0.836549 -0.0196038 -1.78345 -0.870558 -0.0329244 -1.81413 
-0.90534 -0.0468819 -1.84444 -0.940858 -0.0614645 -1.87435 -0.977072 -0.0766605 -1.9038 
-1.01394 -0.0924583 -1.93276 -1.05144 -0.108846 -1.96118 -1.08951 -0.125812 -1.98903 
-1.12812 -0.143345 -2.01624 -1.16724 -0.161433 -2.04279 -1.20681 -0.180064 -2.06863 
-1.24682 -0.199227 -2.09371 -1.2872 -0.21891 -2.11799 -1.32794 -0.239101 -2.14143 
-1.36898 -0.259788 -2.16399 -1.41029 -0.280961 -2.18561 -1.45183 -0.302606 -2.20626 
-1.49356 -0.324714 -2.2259 -1.53544 -0.347271 -2.24447 -1.57744 -0.370266 -2.26194 
-1.61951 -0.393687 -2.27827 -1.66161 -0.417523 -2.2934 -1.70372 -0.441761 -2.30732 
-1.74583 -0.466385 -2.32007 -1.78793 -0.491378 -2.33169 -1.83001 -0.516725 -2.34222 
-1.87208 -0.542408 -2.3517 -1.91412 -0.568411 -2.36017 -1.95614 -0.594719 -2.36769 
-1.99812 -0.621314 -2.37429 -2.04006 -0.64818 -2.38001 -2.08195 -0.675302 -2.38491 
-2.1238 -0.702662 -2.38901 -2.16559 -0.730244 -2.39237 -2.20732 -0.758032 -2.39503 
-2.24899 -0.786009 -2.39703 -2.29058 -0.814159 -2.39841 -2.3321 -0.842467 -2.39922 
-2.37354 -0.870914 -2.3995 -2.41489 -0.899486 -2.39929 -2.45615 -0.928165 -2.39864 
-2.49731 -0.956935 -2.39758 -2.53838 -0.985783 -2.39616 -2.57934 -1.0147 -2.3944 
-2.6202 -1.04369 -2.39228 -2.66096 -1.07275 -2.38983 -2.70162 -1.10188 -2.38705 
-2.74218 -1.13108 -2.38393 -2.78264 -1.16035 -2.3805 -2.82301 -1.18968 -2.37674 
-2.86329 -1.21908 -2.37267 -2.90346 -1.24854 -2.36829 -2.94355 -1.27807 -2.36361 
-2.98354 -1.30765 -2.35863 -3.02344 -1.3373 -2.35336 -3.06325 -1.36701 -2.3478 
-3.10297 -1.39678 -2.34195 -3.1426 -1.42661 -2.33583 -3.18214 -1.45649 -2.32944 
-3.22159 -1.48644 -2.32277 -3.26096 -1.51643 -2.31585 -3.30024 -1.54648 -2.30867 
-3.33943 -1.57659 -2.30123 -3.37854 -1.60674 -2.29356 -3.41757 -1.63695 -2.28564 
-3.45652 -1.66721 -2.2775 -3.4954 -1.69751 -2.26913 -3.53419 -1.72786 -2.26056 
-3.57291 -1.75826 -2.25178 -3.61156 -1.78869 -2.24281 -3.65014 -1.81918 -2.23365 
-3.68865 -1.8497 -2.22431 -3.72709 -1.88026 -2.21481 -3.76546 -1.91086 -2.20514 
-3.80377 -1.94149 -2.19532 -3.84202 -1.97216 -2.18535 -3.88021 -2.00286 -2.17525 
-3.91833 -2.0336 -2.16502 -3.95641 -2.06437 -2.15468 -3.99442 -2.09516 -2.14422 
-4.03239 -2.12598 -2.13366 -4.0703 -2.15683 -2.123 -4.10816 -2.18771 -2.11226 
-4.14597 -2.2186 -2.10144 -4.18374 -2.24953 -2.09055 -4.22147 -2.28047 -2.07959 
-4.25915 -2.31144 -2.06857 -4.29679 -2.34244 -2.0575 -4.3344 -2.37346 -2.04638 
-4.37196 -2.40451 -2.03522 -4.4095 -2.43558 -2.02402 -4.447 -2.46668 -2.01279 
-4.48447 -2.49781 -2.00154 -4.52192 -2.52896 -1.99027 -4.55934 -2.56014 -1.97898 
-4.59673 -2.59134 -1.96769 -4.6341 -2.62257 -1.9564 -4.67145 -2.65383 -1.94512 
-4.70879 -2.68512 -1.93384 -4.74611 -2.71644 -1.92259 -4.78341 -2.74778 -1.91135 
-4.8207 -2.77916 -1.90015 -4.85798 -2.81056 -1.88898 -4.89526 -2.84199 -1.87785 
-4.93252 -2.87345 -1.86677 -4.96979 -2.90493 -1.85574 -5.00704 -2.93645 -1.84477 
-5.04429 -2.96799 -1.83386 -5.08155 -2.99955 -1.82301 -5.11879 -3.03115 -1.81224 
-5.15604 -3.06276 -1.80155 -5.1933 -3.0944 -1.79093 -5.23055 -3.12607 -1.78041 
-5.26781 -3.15775 -1.76997 -5.30507 -3.18946 -1.75964 -5.34234 -3.22119 -1.7494 
-5.37961 -3.25295 -1.73927 -5.41689 -3.28472 -1.72926 -5.45419 -3.31651 -1.71936 
-5.49149 -3.34832 -1.70959 -5.5288 -3.38015 -1.69995 -5.56613 -3.412 -1.69043 
-5.60347 -3.44386 -1.68106 -5.64083 -3.47575 -1.67183 -5.67821 -3.50765 -1.66276 
-5.71561 -3.53957 -1.65389 -5.75303 -3.57151 -1.64525 -5.79049 -3.60348 -1.63685 
-5.82799 -3.63547 -1.62873 -5.86552 -3.6675 -1.62092 -5.9031 -3.69955 -1.61345 
-5.94072 -3.73164 -1.60634 -5.9784 -3.76377 -1.59962 -6.01614 -3.79593 -1.59332 
-6.05394 -3.82814 -1.58747 -6.0918 -3.86038 -1.5821 -6.12974 -3.89267 -1.57724 
-6.16775 -3.92501 -1.57291 -6.20583 -3.9574 -1.56915 -6.244 -3.98984 -1.56597 
-6.28226 -4.02233 -1.56342 -6.3206 -4.05488 -1.56151 -6.35905 -4.08748 -1.56028 
-6.39759 -4.12015 -1.55976 -6.43621 -4.15287 -1.55997 -6.47488 -4.18564 -1.56095 
-6.51355 -4.21845 -1.56273 -6.55219 -4.25128 -1.56535 -6.59075 -4.28413 -1.56884 
-6.62919 -4.31698 -1.57323 -6.66747 -4.34983 -1.57855 -6.70556 -4.38266 -1.58485 
-6.74341 -4.41547 -1.59214 -6.78098 -4.44824 -1.60047 -6.81822 -4.48096 -1.60987 
-6.85511 -4.51363 -1.62037 -6.8916 -4.54623 -1.63201 -6.92766 -4.57875 -1.64481 
-6.96322 -4.61119 -1.65882 -6.99827 -4.64353 -1.67407 -7.03276 -4.67576 -1.69058 
-7.06665 -4.70787 -1.70839 -7.09989 -4.73985 -1.72754 -7.13245 -4.77169 -1.74806 
-7.16429 -4.80339 -1.76996 -7.19541 -4.83493 -1.7932 -7.22578 -4.86632 -1.81773 
-7.25539 -4.89756 -1.8435 -7.28423 -4.92864 -1.87046 -7.3123 -4.95955 -1.89856 
-7.33957 -4.99031 -1.92775 -7.36603 -5.0209 -1.95797 -7.39168 -5.05133 -1.98917 
-7.41649 -5.08159 -2.02132 -7.44046 -5.11167 -2.05434 -7.46358 -5.14159 -2.0882 
-7.48583 -5.17133 -2.12285 -7.5072 -5.20089 -2.15822 -7.52768 -5.23027 -2.19428 
-7.54726 -5.25947 -2.23097 -7.56591 -5.28849 -2.26823 -7.58364 -5.31732 -2.30603 
-7.60043 -5.34596 -2.3443 -7.61626 -5.37441 -2.383 -7.63114 -5.40268 -2.42208 
-7.64507 -5.43076 -2.46152 -7.65809 -5.45868 -2.50129 -7.67022 -5.48644 -2.54137 
-7.68148 -5.51406 -2.58175 -7.69191 -5.54156 -2.62239 -7.70152 -5.56894 -2.66328 
-7.71035 -5.59623 -2.70439 -7.71841 -5.62342 -2.74571 -7.72574 -5.65054 -2.78722 
-7.73235 -5.67761 -2.82888 -7.73829 -5.70462 -2.87069 -7.74356 -5.7316 -2.91261 
-7.7482 -5.75856 -2.95464 -7.75223 -5.78552 -2.99674 -7.75568 -5.81248 -3.03889 
-7.75857 -5.83945 -3.08108 -7.76093 -5.86646 -3.12327 -7.76278 -5.89352 -3.16546 
-7.76415 -5.92063 -3.20762 -7.76507 -5.94782 -3.24973 -7.76554 -5.97508 -3.29177 
-7.76558 -6.00242 -3.33375 -7.7652 -6.02984 -3.37566 -7.76439 -6.05734 -3.41751 
-7.76316 -6.08492 -3.45927 -7.76153 -6.11257 -3.50097 -7.7595 -6.14031 -3.54258 
-7.75707 -6.16813 -3.58411 -7.75426 -6.19603 -3.62556 -7.75107 -6.22402 -3.66693 
-7.7475 -6.25209 -3.7082 -7.74356 -6.28024 -3.74938 -7.73926 -6.30847 -3.79046 
-7.73461 -6.3368 -3.83145 -7.72961 -6.3652 -3.87233 -7.72428 -6.3937 -3.91312 
-7.7186 -6.42228 -3.95379 -7.7126 -6.45095 -3.99436 -7.70628 -6.47971 -4.03481 
-7.69965 -6.50856 -4.07515 -7.69271 -6.53749 -4.11537 -7.68547 -6.56652 -4.15547 
-7.67792 -6.59564 -4.19545 -7.67008 -6.62485 -4.23531 -7.66195 -6.65415 -4.27504 
-7.65353 -6.68355 -4.31464 -7.64483 -6.71304 -4.35411 -7.63585 -6.74262 -4.39345 
-7.62659 -6.7723 -4.43266 -7.61706 -6.80207 -4.47173 -7.60726 -6.83194 -4.51066 
-7.5972 -6.86191 -4.54944 -7.58687 -6.89197 -4.58809 -7.5763 -6.92214 -4.62659 
-7.56547 -6.9524 -4.66494 -7.55439 -6.98276 -4.70314 -7.54307 -7.01322 -4.74119 
-7.53151 -7.04378 -4.77909 -7.51971 -7.07444 -4.81683 -7.50768 -7.1052 -4.85441 
-7.49542 -7.13607 -4.89183 -7.48294 -7.16704 -4.92909 -7.47023 -7.19811 -4.96619 
-7.4573 -7.22928 -5.00313 -7.44416 -7.26055 -5.0399 -7.43079 -7.29192 -5.07651 
-7.41722 -7.32338 -5.11295 -7.40343 -7.35495 -5.14923 -7.38943 -7.38662 -5.18534 
-7.37522 -7.41838 -5.22129 -7.36081 -7.45024 -5.25706 -7.3462 -7.48219 -5.29267 
-7.33139 -7.51425 -5.32811 -7.31637 -7.54639 -5.36338 -7.30117 -7.57863 -5.39848 
-7.28577 -7.61097 -5.43341 -7.27018 -7.6434 -5.46817 -7.2544 -7.67592 -5.50275 
-7.23843 -7.70854 -5.53716 -7.22228 -7.74124 -5.5714 -7.20594 -7.77404 -5.60546 
-7.18943 -7.80693 -5.63934 -7.17274 -7.83991 -5.67305 -7.15587 -7.87298 -5.70658 
-7.13883 -7.90614 -5.73993 -7.12161 -7.93939 -5.77311 -7.10422 -7.97272 -5.80611 
-7.08665 -8.00614 -5.83892 -7.06892 -8.03965 -5.87156 -7.05102 -8.07325 -5.90402 
-7.03295 -8.10692 -5.93629 -7.01472 -8.14069 -5.96839 -6.99632 -8.17453 -6.0003 
-6.97776 -8.20847 -6.03203 -6.95904 -8.24248 -6.06357 -6.94016 -8.27658 -6.09493 
-6.92113 -8.31075 -6.1261 -6.90193 -8.34501 -6.15709 -6.88258 -8.37935 -6.1879 
-6.86308 -8.41377 -6.21851 -6.84343 -8.44827 -6.24894 -6.82362 -8.48284 -6.27918 
-6.80367 -8.5175 -6.30923 -6.78356 -8.55223 -6.33909 -6.76331 -8.58704 -6.36876 
-6.74291 -8.62192 -6.39824 -6.72236 -8.65688 -6.42753 -6.70167 -8.69192 -6.45662 
-6.68083 -8.72703 -6.48552 -6.65985 -8.76222 -6.51422 -6.63873 -8.79748 -6.54273 
-6.61746 -8.83281 -6.57103 -6.59605 -8.86822 -6.59915 -6.57451 -8.9037 -6.62706 
-6.55282 -8.93925 -6.65477 -6.53099 -8.97488 -6.68229 -6.50903 -9.01057 -6.7096 
-6.48693 -9.04634 -6.73671 -6.46469 -9.08217 -6.76362 -6.44232 -9.11808 -6.79032 
-6.41982 -9.15406 -6.81682 -6.39718 -9.1901 -6.84311 -6.37441 -9.22622 -6.8692 
-6.3515 -9.2624 -6.89506 -6.32846 -9.29865 -6.92071 -6.30529 -9.33498 -6.94614 
-6.28199 -9.37138 -6.97135 -6.25855 -9.40785 -6.99632 -6.23498 -9.44439 -7.02106 
-6.21127 -9.481 -7.04556 -6.18744 -9.51769 -7.06982 -6.16347 -9.55445 -7.09384 
-6.13936 -9.59129 -7.11761 -6.11513 -9.6282 -7.14112 -6.09076 -9.66518 -7.16438 
[...]
CELL_DATA 1
FIELD FieldData 2
Length 1 1 double
63.908472688 
Tortuosity 1 1 double
0.75167478234 
POINT_DATA 1279
SCALARS MaximumInscribedSphereRadius float
LOOKUP_TABLE default
1.24 1.23282 1.22565 1.21847 1.21129 1.20411 1.19694 1.18976 1.18258 
1.1754 1.16823 1.16105 1.15387 1.1467 1.13952 1.13234 1.12516 1.11799 
1.11081 1.10363 1.09646 1.09007 1.08479 1.07951 1.07423 1.06895 1.06367 
1.05839 1.05311 1.04783 1.04254 1.03726 1.03198 1.0267 1.02142 1.01614 
1.01086 1.00558 1.0003 0.995014 0.989733 0.998216 1.01744 1.03667 1.0559 
1.07512 1.09435 1.11358 1.1328 1.15203 1.17126 1.19048 1.20971 1.22894 
1.24816 1.26739 1.28662 1.30584 1.32507 1.3443 1.36352 1.3798 1.38292 
1.38604 1.38915 1.39227 1.39539 1.3985 1.40162 1.40474 1.40786 1.41097 
1.41409 1.41721 1.42033 1.42344 1.42656 1.42968 1.43279 1.43591 1.43903 
1.44215 1.4339 1.42434 1.41478 1.40522 1.39566 1.3861 1.37653 1.36697 
1.35741 1.34785 1.33829 1.32873 1.31917 1.30961 1.30005 1.29049 1.28092 
1.27136 1.2618 1.25224 1.24325 1.23463 1.226 1.21737 1.20875 1.20012 
1.19149 1.18287 1.17424 1.16562 1.15699 1.14836 1.13974 1.13111 1.12248 
1.11386 1.10523 1.0966 1.08798 1.07935 1.07342 1.07325 1.07307 1.07289 
1.07271 1.07253 1.07236 1.07218 1.072 1.07182 1.07164 1.07147 1.07129 
1.07111 1.07093 1.07075 1.07058 1.0704 1.07022 1.07004 1.07028 1.08559 
1.1009 1.11621 1.13152 1.14683 1.16214 1.17745 1.19276 1.20807 1.22338 
1.23869 1.25399 1.2693 1.28461 1.29992 1.31523 1.33054 1.34585 1.36116 
1.37647 1.39006 1.40305 1.41603 1.42902 1.44201 1.455 1.46799 1.48097 
1.49396 1.50695 1.51994 1.53292 1.54591 1.5589 1.57189 1.58487 1.59786 
1.61085 1.62384 1.63683 1.63734 1.62172 1.6061 1.59048 1.57486 1.55924 
1.54362 1.528 1.51238 1.49676 1.48114 1.46552 1.4499 1.43428 1.41866 
1.40304 1.38742 1.3718 1.35618 1.34056 1.32502 1.31007 1.29512 1.28017 
1.26522 1.25027 1.23532 1.22038 1.20543 1.19048 1.17553 1.16058 1.14563 
1.13068 1.11573 1.10079 1.08584 1.07089 1.05594 1.04099 1.02604 1.04609 
1.06651 1.08694 1.10737 1.1278 1.14822 1.16865 1.18908 1.2095 1.22993 
1.25036 1.27078 1.29121 1.31164 1.33207 1.35249 1.37292 1.39335 1.41377 
1.4342 1.44045 1.43917 1.43789 1.43661 1.43532 1.43404 1.43276 1.43148 
1.43019 1.42891 1.42763 1.42635 1.42506 1.42378 1.4225 1.42122 1.41994 
1.41865 1.41737 1.41609 1.41294 1.40661 1.40028 1.39395 1.38763 1.3813 
1.37497 1.36864 1.36231 1.35598 1.34965 1.34332 1.33699 1.33067 1.32434 
1.31801 1.31168 1.30535 1.29902 1.29269 1.28682 1.28635 1.28587 1.28539 
1.28492 1.28444 1.28397 1.28349 1.28301 1.28254 1.28206 1.28159 1.28111 
1.28063 1.28016 1.27968 1.27921 1.27873 1.27825 1.27778 1.2773 1.27648 
1.27557 1.27466 1.27376 1.27285 1.27194 1.27103 1.27012 1.26921 1.2683 
1.26739 1.26648 1.26557 1.26466 1.26375 1.26284 1.26193 1.26103 1.26012 
1.25921 1.25485 1.247 1.23916 1.23131 1.22347 1.21563 1.20778 1.19994 
1.19209 1.18425 1.1764 1.16856 1.16071 1.15287 1.14502 1.13718 1.12933 
1.12149 1.11364 1.1058 1.09834 1.09237 1.0864 1.08043 1.07446 1.06849 
1.06252 1.05655 1.05058 1.0446 1.03863 1.03266 1.02669 1.02072 1.01475 
1.00878 1.00281 0.996835 0.990864 0.984893 0.978922 0.984126 0.990383 0.99664 
1.0029 1.00915 1.01541 1.02167 1.02793 1.03418 1.04044 1.0467 1.05295 
1.05921 1.06547 1.07173 1.07798 1.08424 1.0905 1.09675 1.10301 1.11161 
1.12155 1.13149 1.14143 1.15137 1.16131 1.17126 1.1812 1.19114 1.20108 
1.21102 1.22096 1.2309 1.24084 1.25078 1.26072 1.27067 1.28061 1.29055 
1.30049 1.31007 1.31873 1.32739 1.33605 1.34471 1.35337 1.36203 1.37069 
1.37936 1.38802 1.39668 1.40534 1.414 1.42266 1.43132 1.43998 1.44864 
1.4573 1.46596 1.47463 1.48257 1.48593 1.4893 1.49266 1.49603 1.4994 
1.50276 1.50613 1.50949 1.51286 1.51622 1.51959 1.52296 1.52632 1.52969 
1.53305 1.53642 1.53978 1.54315 1.54652 1.54988 1.55 1.55 1.55 
1.55 1.55 1.55 1.55 1.55 1.55 1.55 1.55 1.55 
1.55 1.55 1.55 1.55 1.55 1.55 1.55 1.55 1.55015 
1.55041 1.55066 1.55092 1.55117 1.55143 1.55169 1.55194 1.5522 1.55245 
1.55271 1.55297 1.55322 1.55348 1.55373 1.55399 1.55425 1.5545 1.55476 
1.55502 1.55541 1.55612 1.55682 1.55752 1.55823 1.55893 1.55963 1.56033 
1.56104 1.56174 1.56244 1.56315 1.56385 1.56455 1.56526 1.56596 1.56666 
1.56737 1.56807 1.56877 1.56954 1.57335 1.57717 1.58098 1.5848 1.58862 
1.59243 1.59625 1.60006 1.60388 1.60769 1.61151 1.61533 1.61914 1.62296 
1.62677 1.63059 1.6344 1.63822 1.64204 1.64585 1.65206 1.65916 1.66626 
1.67336 1.68046 1.68756 1.69466 1.70176 1.70885 1.71595 1.72305 1.73015 
1.73725 1.74435 1.75145 1.75855 1.76564 1.77274 1.77984 1.78694 1.79021 
1.78861 1.78701 1.78541 1.78381 1.78222 1.78062 1.77902 1.77742 1.77582 
1.77423 1.77263 1.77103 1.76943 1.76783 1.76624 1.76464 1.76304 1.76144 
1.75984 1.7574 1.75025 1.74311 1.73596 1.72882 1.72167 1.71453 1.70738 
1.70024 1.69309 1.68595 1.6788 1.67166 1.66451 1.65737 1.65022 1.64308 
1.63593 1.62879 1.62164 1.6145 1.61218 1.61062 1.60906 1.6075 1.60593 
1.60437 1.60281 1.60125 1.59969 1.59813 1.59657 1.595 1.59344 1.59188 
1.59032 1.58876 1.5872 1.58564 1.58408 1.58251 1.58187 1.5819 1.58193 
1.58196 1.58199 1.58202 1.58205 1.58208 1.58211 1.58214 1.58217 1.5822 
1.58223 1.58226 1.58229 1.58232 1.58235 1.58238 1.58241 1.58244 1.58629 
1.59974 1.6132 1.62665 1.64011 1.65356 1.66702 1.68047 1.69393 1.70738 
1.72083 1.73429 1.74774 1.7612 1.77465 1.78811 1.80156 1.81502 1.82847 
1.84192 1.85538 1.86634 1.87728 1.88823 1.89917 1.91012 1.92106 1.93201 
1.94295 1.9539 1.96484 1.97578 1.98673 1.99767 2.00862 2.01956 2.03051 
2.04145 2.05239 2.06334 2.07428 2.06508 2.04731 2.02954 2.01177 1.994 
1.97622 1.95845 1.94068 1.92291 1.90514 1.88736 1.86959 1.85182 1.83405 
1.81628 1.7985 1.78073 1.76296 1.74519 1.72742 1.70893 1.6894 1.66987 
1.65035 1.63082 1.61129 1.59177 1.57224 1.55271 1.53319 1.51366 1.49413 
1.47461 1.45508 1.43555 1.41603 1.3965 1.37697 1.35745 1.33792 1.32025 
1.31628 1.3123 1.30832 1.30434 1.30036 1.29638 1.2924 1.28843 1.28445 
1.28047 1.27649 1.27251 1.26853 1.26455 1.26058 1.2566 1.25262 1.24864 
1.24466 1.24068 1.24485 1.25071 1.25656 1.26242 1.26827 1.27413 1.27998 
1.28584 1.29169 1.29755 1.3034 1.30926 1.31511 1.32097 1.32682 1.33268 
1.33853 1.34439 1.35024 1.3561 1.36854 1.38659 1.40464 1.42268 1.44073 
1.45878 1.47683 1.49488 1.51293 1.53097 1.54902 1.56707 1.58512 1.60317 
1.62122 1.63926 1.65731 1.67536 1.69341 1.71146 1.72852 1.74264 1.75677 
1.77089 1.78501 1.79914 1.81326 1.82739 1.84151 1.85563 1.86976 1.88388 
1.898 1.91213 1.92625 1.94038 1.9545 1.96862 1.98275 1.99687 2.01099 
2.01767 2.02404 2.03041 2.03678 2.04315 2.04952 2.05589 2.06226 2.06863 
2.075 2.08138 2.08775 2.09412 2.10049 2.10686 2.11323 2.1196 2.12597 
2.13234 2.13871 2.13953 2.13762 2.13572 2.13381 2.13191 2.13 2.12809 
2.12619 2.12428 2.12237 2.12047 2.11856 2.11666 2.11475 2.11284 2.11094 
2.10903 2.10712 2.10522 2.10331 2.09921 2.09154 2.08386 2.07619 2.06851 
2.06084 2.05316 2.04549 2.03781 2.03014 2.02246 2.01479 2.00711 1.99944 
1.99176 1.98409 1.97641 1.96874 1.96107 1.95339 1.94656 1.94839 1.95021 
1.95204 1.95386 1.95569 1.95751 1.95934 1.96116 1.96299 1.96481 1.96664 
1.96846 1.97029 1.97211 1.97394 1.97576 1.97759 1.97941 1.98124 1.98306 
1.98899 1.99597 2.00294 2.00991 2.01689 2.02386 2.03083 2.0378 2.04478 
2.05175 2.05872 2.0657 2.07267 2.07964 2.08661 2.09359 2.10056 2.10753 
2.1145 2.12148 2.12311 2.11954 2.11596 2.11239 2.10881 2.10524 2.10166 
2.09809 2.09451 2.09094 2.08737 2.08379 2.08022 2.07664 2.07307 2.06949 
2.06592 2.06235 2.05877 2.0552 2.05072 2.04296 2.03519 2.02743 2.01967 
2.0119 2.00414 1.99637 1.98861 1.98085 1.97308 1.96532 1.95756 1.94979 
1.94203 1.93426 1.9265 1.91874 1.91097 1.90321 1.89545 1.88742 1.87938 
1.87134 1.86329 1.85525 1.8472 1.83916 1.83112 1.82307 1.81503 1.80699 
1.79894 1.7909 1.78285 1.77481 1.76677 1.75872 1.75068 1.74264 1.73459 
1.72727 1.72036 1.71346 1.70655 1.69965 1.69274 1.68584 1.67893 1.67203 
1.66512 1.65822 1.65131 1.64441 1.63751 1.6306 1.6237 1.61679 1.60989 
1.60298 1.59608 1.5959 1.60876 1.62162 1.63448 1.64734 1.66021 1.67307 
1.68593 1.69879 1.71165 1.72451 1.73738 1.75024 1.7631 1.77596 1.78882 
1.80169 1.81455 1.82741 1.84027 1.85319 1.86716 1.88114 1.89511 1.90909 
1.92306 1.93704 1.95101 1.96499 1.97896 1.99294 2.00691 2.02088 2.03486 
2.04883 2.06281 2.07678 2.09076 2.10473 2.11871 2.13268 2.13597 2.13582 
2.13568 2.13553 2.13539 2.13524 2.1351 2.13495 2.13481 2.13466 2.13452 
2.13437 2.13423 2.13408 2.13393 2.13379 2.13364 2.1335 2.13335 2.13321 
2.13284 2.13222 2.1316 2.13098 2.13035 2.12973 2.12911 2.12849 2.12787 
2.12725 2.12663 2.126 2.12538 2.12476 2.12414 2.12352 2.1229 2.12228 
2.12165 2.12103 2.12159 2.12777 2.13395 2.14013 2.14631 2.15249 2.15867 
2.16485 2.17103 2.17721 2.18339 2.18957 2.19575 2.20193 2.20811 2.21429 
2.22047 2.22665 2.23283 2.23901 2.24519 2.25135 2.25751 2.26367 2.26983 
2.27599 2.28215 2.28832 2.29448 2.30064 2.3068 2.31296 2.31912 2.32528 
2.33144 2.3376 2.34377 2.34993 2.35609 2.36225 2.36841 2.3731 2.37679 
2.38048 2.38416 2.38785 2.39153 2.39522 2.3989 2.40259 2.40627 2.40996 
2.41365 2.41733 2.42102 2.4247 2.42839 2.43207 2.43576 2.43945 2.44313 
2.44341 2.43584 2.42828 2.42071 2.41315 2.40558 2.39802 2.39045 2.38289 
2.37532 2.36776 2.36019 2.35263 2.34507 2.3375 2.32994 2.32237 2.31481 
2.30724 2.29968 2.29202 2.27707 2.26213 2.24719 2.23225 2.21731 2.20237 
2.18743 2.17249 2.15755 2.14261 2.12767 2.11272 2.09778 2.08284 2.0679 
2.05296 2.03802 2.02308 2.00814 1.9932 1.99001 1.99124 1.99247 1.99371 
1.99494 1.99617 1.9974 1.99864 1.99987 2.0011 2.00234 2.00357 2.0048 
2.00604 2.00727 2.0085 2.00974 2.01097 2.0122 2.01343 2.01698 2.02341 
2.02984 2.03628 2.04271 2.04914 2.05557 2.06201 2.06844 2.07487 2.08131 
2.08774 2.09417 2.10061 2.10704 2.11347 2.11991 2.12634 2.13277 2.13921 
2.14489 2.14614 2.14739 2.14864 2.14989 2.15114 2.15239 2.15364 2.15489 
2.15614 2.15739 2.15864 2.15989 2.16114 2.16239 2.16364 2.16489 2.16614 
2.16739 2.16864 2.16989 2.17 2.17 2.17 2.17 2.17 2.17 
2.17 2.17 2.17 2.17 2.17 2.17 2.17 2.17 2.17 
2.17 2.17 2.17 2.17 2.17 2.17 2.17 2.17 2.17 
2.17 2.17 2.17 2.17 2.17 2.17 2.17 2.17 2.17 
2.17 2.17 2.17 2.17 2.17 2.17 2.17 2.17 2.17 
2.17 2.17 2.17 2.17 2.17 2.17 2.17 2.17 2.17 
2.17 2.17 2.17 2.17 2.17 2.17 2.17 2.17 2.17 
2.17 
TEXTURE_COORDINATES TCoords 2 float
0 0 0.000782473 0 0.00156495 0 0.00234742 0 0.00312989 
0 0.00391236 0 0.00469484 0 0.00547731 0 0.00625978 0 
0.00704225 0 0.00782473 0 0.0086072 0 0.00938967 0 0.0101721 
0 0.0109546 0 0.0117371 0 0.0125196 0 0.013302 0 
0.0140845 0 0.014867 0 0.0156495 0 0.0164319 0 0.0172144 
0 0.0179969 0 0.0187793 0 0.0195618 0 0.0203443 0 
0.0211268 0 0.0219092 0 0.0226917 0 0.0234742 0 0.0242567 
0 0.0250391 0 0.0258216 0 0.0266041 0 0.0273865 0 
0.028169 0 0.0289515 0 0.029734 0 0.0305164 0 0.0312989 
0 0.0320814 0 0.0328638 0 0.0336463 0 0.0344288 0 
0.0352113 0 0.0359937 0 0.0367762 0 0.0375587 0 0.0383412 
0 0.0391236 0 0.0399061 0 0.0406886 0 0.041471 0 
0.0422535 0 0.043036 0 0.0438185 0 0.0446009 0 0.0453834 
0 0.0461659 0 0.0469484 0 0.0477308 0 0.0485133 0 
0.0492958 0 0.0500782 0 0.0508607 0 0.0516432 0 0.0524257 
0 0.0532081 0 0.0539906 0 0.0547731 0 0.0555556 0 
0.056338 0 0.0571205 0 0.057903 0 0.0586854 0 0.0594679 
0 0.0602504 0 0.0610329 0 0.0618153 0 0.0625978 0 
0.0633803 0 0.0641628 0 0.0649452 0 0.0657277 0 0.0665102 
0 0.0672926 0 0.0680751 0 0.0688576 0 0.0696401 0 
0.0704225 0 0.071205 0 0.0719875 0 0.07277 0 0.0735524 
0 0.0743349 0 0.0751174 0 0.0758998 0 0.0766823 0 
0.0774648 0 0.0782473 0 0.0790297 0 0.0798122 0 0.0805947 
0 0.0813771 0 0.0821596 0 0.0829421 0 0.0837246 0 
0.084507 0 0.0852895 0 0.086072 0 0.0868545 0 0.0876369 
0 0.0884194 0 0.0892019 0 0.0899843 0 0.0907668 0 
0.0915493 0 0.0923318 0 0.0931142 0 0.0938967 0 0.0946792 
0 0.0954617 0 0.0962441 0 0.0970266 0 0.0978091 0 
0.0985916 0 0.099374 0 0.100156 0 0.100939 0 0.101721 
0 0.102504 0 0.103286 0 0.104069 0 0.104851 0 
0.105634 0 0.106416 0 0.107199 0 0.107981 0 0.108764 
0 0.109546 0 0.110329 0 0.111111 0 0.111894 0 
0.112676 0 0.113459 0 0.114241 0 0.115023 0 0.115806 
0 0.116588 0 0.117371 0 0.118153 0 0.118936 0 
0.119718 0 0.120501 0 0.121283 0 0.122066 0 0.122848 
0 0.123631 0 0.124413 0 0.125196 0 0.125978 0 
0.126761 0 0.127543 0 0.128326 0 0.129108 0 0.12989 
0 0.130673 0 0.131455 0 0.132238 0 0.13302 0 
0.133803 0 0.134585 0 0.135368 0 0.13615 0 0.136933 
0 0.137715 0 0.138498 0 0.13928 0 0.140063 0 
0.140845 0 0.141628 0 0.14241 0 0.143192 0 0.143975 
0 0.144757 0 0.14554 0 0.146322 0 0.147105 0 
0.147887 0 0.14867 0 0.149452 0 0.150235 0 0.151017 
0 0.1518 0 0.152582 0 0.153365 0 0.154147 0 
0.15493 0 0.155712 0 0.156495 0 0.157277 0 0.158059 
0 0.158842 0 0.159624 0 0.160407 0 0.161189 0 
0.161972 0 0.162754 0 0.163537 0 0.164319 0 0.165102 
0 0.165884 0 0.166667 0 0.167449 0 0.168232 0 
0.169014 0 0.169797 0 0.170579 0 0.171362 0 0.172144 
0 0.172926 0 0.173709 0 0.174491 0 0.175274 0 
0.176056 0 0.176839 0 0.177621 0 0.178404 0 0.179186 
0 0.179969 0 0.180751 0 0.181534 0 0.182316 0 
0.183099 0 0.183881 0 0.184664 0 0.185446 0 0.186228 
0 0.187011 0 0.187793 0 0.188576 0 0.189358 0 
0.190141 0 0.190923 0 0.191706 0 0.192488 0 0.193271 
0 0.194053 0 0.194836 0 0.195618 0 0.196401 0 
0.197183 0 0.197966 0 0.198748 0 0.199531 0 0.200313 
0 0.201095 0 0.201878 0 0.20266 0 0.203443 0 
0.204225 0 0.205008 0 0.20579 0 0.206573 0 0.207355 
0 0.208138 0 0.20892 0 0.209703 0 0.210485 0 
0.211268 0 0.21205 0 0.212833 0 0.213615 0 0.214397 
0 0.21518 0 0.215962 0 0.216745 0 0.217527 0 
0.21831 0 0.219092 0 0.219875 0 0.220657 0 0.22144 
0 0.222222 0 0.223005 0 0.223787 0 0.22457 0 
0.225352 0 0.226135 0 0.226917 0 0.2277 0 0.228482 
0 0.229264 0 0.230047 0 0.230829 0 0.231612 0 
0.232394 0 0.233177 0 0.233959 0 0.234742 0 0.235524 
0 0.236307 0 0.237089 0 0.237872 0 0.238654 0 
0.239437 0 0.240219 0 0.241002 0 0.241784 0 0.242567 
0 0.243349 0 0.244131 0 0.244914 0 0.245696 0 
0.246479 0 0.247261 0 0.248044 0 0.248826 0 0.249609 
0 0.250391 0 0.251174 0 0.251956 0 0.252739 0 
0.253521 0 0.254304 0 0.255086 0 0.255869 0 0.256651 
0 0.257434 0 0.258216 0 0.258998 0 0.259781 0 
0.260563 0 0.261346 0 0.262128 0 0.262911 0 0.263693 
0 0.264476 0 0.265258 0 0.266041 0 0.266823 0 
0.267606 0 0.268388 0 0.269171 0 0.269953 0 0.270736 
0 0.271518 0 0.2723 0 0.273083 0 0.273865 0 
0.274648 0 0.27543 0 0.276213 0 0.276995 0 0.277778 
0 0.27856 0 0.279343 0 0.280125 0 0.280908 0 
0.28169 0 0.282473 0 0.283255 0 0.284038 0 0.28482 
0 0.285603 0 0.286385 0 0.287167 0 0.28795 0 
0.288732 0 0.289515 0 0.290297 0 0.29108 0 0.291862 
0 0.292645 0 0.293427 0 0.29421 0 0.294992 0 
0.295775 0 0.296557 0 0.29734 0 0.298122 0 0.298905 
0 0.299687 0 0.300469 0 0.301252 0 0.302034 0 
0.302817 0 0.303599 0 0.304382 0 0.305164 0 0.305947 
0 0.306729 0 0.307512 0 0.308294 0 0.309077 0 
0.309859 0 0.310642 0 0.311424 0 0.312207 0 0.312989 
0 0.313772 0 0.314554 0 0.315336 0 0.316119 0 
0.316901 0 0.317684 0 0.318466 0 0.319249 0 0.320031 
0 0.320814 0 0.321596 0 0.322379 0 0.323161 0 
0.323944 0 0.324726 0 0.325509 0 0.326291 0 0.327074 
0 0.327856 0 0.328638 0 0.329421 0 0.330203 0 
0.330986 0 0.331768 0 0.332551 0 0.333333 0 0.334116 
0 0.334898 0 0.335681 0 0.336463 0 0.337246 0 
0.338028 0 0.338811 0 0.339593 0 0.340376 0 0.341158 
0 0.341941 0 0.342723 0 0.343505 0 0.344288 0 
0.34507 0 0.345853 0 0.346635 0 0.347418 0 0.3482 
0 0.348983 0 0.349765 0 0.350548 0 0.35133 0 
0.352113 0 0.352895 0 0.353678 0 0.35446 0 0.355243 
0 0.356025 0 0.356808 0 0.35759 0 0.358372 0 
0.359155 0 0.359937 0 0.36072 0 0.361502 0 0.362285 
0 0.363067 0 0.36385 0 0.364632 0 0.365415 0 
0.366197 0 0.36698 0 0.367762 0 0.368545 0 0.369327 
0 0.37011 0 0.370892 0 0.371674 0 0.372457 0 
0.373239 0 0.374022 0 0.374804 0 0.375587 0 0.376369 
0 0.377152 0 0.377934 0 0.378717 0 0.379499 0 
0.380282 0 0.381064 0 0.381847 0 0.382629 0 0.383412 
0 0.384194 0 0.384977 0 0.385759 0 0.386541 0 
0.387324 0 0.388106 0 0.388889 0 0.389671 0 0.390454 
0 0.391236 0 0.392019 0 0.392801 0 0.393584 0 
0.394366 0 0.395149 0 0.395931 0 0.396714 0 0.397496 
0 0.398279 0 0.399061 0 0.399844 0 0.400626 0 
0.401408 0 0.402191 0 0.402973 0 0.403756 0 0.404538 
0 0.405321 0 0.406103 0 0.406886 0 0.407668 0 
0.408451 0 0.409233 0 0.410016 0 0.410798 0 0.411581 
0 0.412363 0 0.413146 0 0.413928 0 0.41471 0 
0.415493 0 0.416275 0 0.417058 0 0.41784 0 0.418623 
0 0.419405 0 0.420188 0 0.42097 0 0.421753 0 
0.422535 0 0.423318 0 0.4241 0 0.424883 0 0.425665 
0 0.426448 0 0.42723 0 0.428013 0 0.428795 0 
0.429577 0 0.43036 0 0.431142 0 0.431925 0 0.432707 
0 0.43349 0 0.434272 0 0.435055 0 0.435837 0 
0.43662 0 0.437402 0 0.438185 0 0.438967 0 0.43975 
0 0.440532 0 0.441315 0 0.442097 0 0.442879 0 
0.443662 0 0.444444 0 0.445227 0 0.446009 0 0.446792 
0 0.447574 0 0.448357 0 0.449139 0 0.449922 0 
0.450704 0 0.451487 0 0.452269 0 0.453052 0 0.453834 
0 0.454617 0 0.455399 0 0.456182 0 0.456964 0 
0.457746 0 0.458529 0 0.459311 0 0.460094 0 0.460876 
0 0.461659 0 0.462441 0 0.463224 0 0.464006 0 
0.464789 0 0.465571 0 0.466354 0 0.467136 0 0.467919 
0 0.468701 0 0.469484 0 0.470266 0 0.471049 0 
0.471831 0 0.472613 0 0.473396 0 0.474178 0 0.474961 
0 0.475743 0 0.476526 0 0.477308 0 0.478091 0 
0.478873 0 0.479656 0 0.480438 0 0.481221 0 0.482003 
0 0.482786 0 0.483568 0 0.484351 0 0.485133 0 
0.485915 0 0.486698 0 0.48748 0 0.488263 0 0.489045 
0 0.489828 0 0.49061 0 0.491393 0 0.492175 0 
0.492958 0 0.49374 0 0.494523 0 0.495305 0 0.496088 
0 0.49687 0 0.497653 0 0.498435 0 0.499218 0 
0.5 0 0.500782 0 0.501565 0 0.502347 0 0.50313 
0 0.503912 0 0.504695 0 0.505477 0 0.50626 0 
0.507042 0 0.507825 0 0.508607 0 0.50939 0 0.510172 
0 0.510955 0 0.511737 0 0.51252 0 0.513302 0 
0.514085 0 0.514867 0 0.515649 0 0.516432 0 0.517214 
0 0.517997 0 0.518779 0 0.519562 0 0.520344 0 
0.521127 0 0.521909 0 0.522692 0 0.523474 0 0.524257 
0 0.525039 0 0.525822 0 0.526604 0 0.527387 0 
0.528169 0 0.528951 0 0.529734 0 0.530516 0 0.531299 
0 0.532081 0 0.532864 0 0.533646 0 0.534429 0 
0.535211 0 0.535994 0 0.536776 0 0.537559 0 0.538341 
0 0.539124 0 0.539906 0 0.540689 0 0.541471 0 
0.542253 0 0.543036 0 0.543818 0 0.544601 0 0.545383 
0 0.546166 0 0.546948 0 0.547731 0 0.548513 0 
0.549296 0 0.550078 0 0.550861 0 0.551643 0 0.552426 
0 0.553208 0 0.553991 0 0.554773 0 0.555556 0 
0.556338 0 0.557121 0 0.557903 0 0.558685 0 0.559468 
0 0.56025 0 0.561033 0 0.561815 0 0.562598 0 
0.56338 0 0.564163 0 0.564945 0 0.565728 0 0.56651 
0 0.567293 0 0.568075 0 0.568858 0 0.56964 0 
0.570423 0 0.571205 0 0.571988 0 0.57277 0 0.573552 
0 0.574335 0 0.575117 0 0.5759 0 0.576682 0 
0.577465 0 0.578247 0 0.57903 0 0.579812 0 0.580595 
0 0.581377 0 0.58216 0 0.582942 0 0.583725 0 
0.584507 0 0.58529 0 0.586072 0 0.586854 0 0.587637 
0 0.588419 0 0.589202 0 0.589984 0 0.590767 0 
0.591549 0 0.592332 0 0.593114 0 0.593897 0 0.594679 
0 0.595462 0 0.596244 0 0.597027 0 0.597809 0 
0.598592 0 0.599374 0 0.600156 0 0.600939 0 0.601721 
0 0.602504 0 0.603286 0 0.604069 0 0.604851 0 
0.605634 0 0.606416 0 0.607199 0 0.607981 0 0.608764 
0 0.609546 0 0.610329 0 0.611111 0 0.611894 0 
0.612676 0 0.613459 0 0.614241 0 0.615023 0 0.615806 
0 0.616588 0 0.617371 0 0.618153 0 0.618936 0 
0.619718 0 0.620501 0 0.621283 0 0.622066 0 0.622848 
0 0.623631 0 0.624413 0 0.625196 0 0.625978 0 
0.626761 0 0.627543 0 0.628326 0 0.629108 0 0.62989 
0 0.630673 0 0.631455 0 0.632238 0 0.63302 0 
0.633803 0 0.634585 0 0.635368 0 0.63615 0 0.636933 
0 0.637715 0 0.638498 0 0.63928 0 0.640063 0 
0.640845 0 0.641628 0 0.64241 0 0.643192 0 0.643975 
0 0.644757 0 0.64554 0 0.646322 0 0.647105 0 
0.647887 0 0.64867 0 0.649452 0 0.650235 0 0.651017 
0 0.6518 0 0.652582 0 0.653365 0 0.654147 0 
0.65493 0 0.655712 0 0.656494 0 0.657277 0 0.658059 
0 0.658842 0 0.659624 0 0.660407 0 0.661189 0 
0.661972 0 0.662754 0 0.663537 0 0.664319 0 0.665102 
0 0.665884 0 0.666667 0 0.667449 0 0.668232 0 
0.669014 0 0.669797 0 0.670579 0 0.671362 0 0.672144 
0 0.672926 0 0.673709 0 0.674491 0 0.675274 0 