# vtk DataFile Version 4.2
vtk output
ASCII
DATASET POLYDATA
POINTS 1278 float
0 0 0 -0.00397364 0.000901727 0.000372739 -0.0155625 0.00352689 0.00147504 
-0.0342687 0.00775546 0.00328301 -0.0595939 0.0134674 0.00577278 -0.0910404 0.0205427 0.00892047 
-0.12811 0.0288614 0.0127022 -0.170304 0.0383033 0.0170941 -0.217126 0.0487485 0.0220722 
-0.268077 0.060077 0.0276128 -0.322658 0.0721687 0.0336918 -0.380373 0.0849035 0.0402855 
-0.440722 0.0981616 0.04737 -0.503208 0.111823 0.0549213 -0.567333 0.125767 0.0629156 
-0.632598 0.139874 0.071329 -0.698507 0.154025 0.0801377 -0.764559 0.168098 0.0893177 
-0.830259 0.181975 0.0988452 -0.895107 0.195534 0.108696 -0.958606 0.208657 0.118847 
-1.02026 0.221222 0.129274 -1.07971 0.233144 0.139957 -1.13702 0.244438 0.15089 
-1.19235 0.255136 0.162069 -1.24584 0.265271 0.17349 -1.29764 0.274877 0.185149 
-1.34789 0.283985 0.197043 -1.39673 0.292629 0.209167 -1.44433 0.300843 0.221517 
-1.49082 0.308658 0.234089 -1.53635 0.316108 0.24688 -1.58106 0.323225 0.259885 
-1.62511 0.330044 0.273101 -1.66864 0.336595 0.286524 -1.7118 0.342914 0.300149 
-1.75473 0.349031 0.313972 -1.79758 0.354981 0.327991 -1.84049 0.360797 0.3422 
-1.88362 0.36651 0.356596 -1.92711 0.372154 0.371175 -1.9711 0.377761 0.385932 
-2.01562 0.383334 0.400867 -2.06064 0.388862 0.415976 -2.10613 0.39433 0.43126 
-2.15203 0.399726 0.446717 -2.19833 0.405036 0.462345 -2.24497 0.410246 0.478144 
-2.29192 0.415344 0.494112 -2.33915 0.420316 0.510247 -2.38662 0.425149 0.526549 
-2.43429 0.429828 0.543016 -2.48212 0.434342 0.559648 -2.53007 0.438677 0.576441 
-2.57812 0.442818 0.593397 -2.62621 0.446754 0.610512 -2.67432 0.45047 0.627787 
-2.72241 0.453953 0.645219 -2.77043 0.457191 0.662807 -2.81836 0.460168 0.680551 
-2.86615 0.462874 0.698448 -2.91377 0.465292 0.716498 -2.96119 0.467415 0.734698 
-3.00841 0.46924 0.753043 -3.05546 0.470768 0.771526 -3.10233 0.471999 0.790141 
-3.14903 0.472933 0.808882 -3.19559 0.473571 0.827744 -3.24201 0.473913 0.846719 
-3.28829 0.473959 0.865802 -3.33446 0.473709 0.884986 -3.38052 0.473164 0.904266 
-3.42647 0.472324 0.923635 -3.47234 0.471189 0.943087 -3.51814 0.46976 0.962616 
-3.56386 0.468036 0.982216 -3.60953 0.466019 1.00188 -3.65516 0.463708 1.0216 
-3.70074 0.461103 1.04138 -3.74631 0.458205 1.0612 -3.79186 0.455014 1.08106 
-3.8374 0.451531 1.10096 -3.88295 0.447755 1.12088 -3.92851 0.443684 1.14083 
-3.97407 0.439317 1.16079 -4.01962 0.434649 1.18077 -4.06517 0.42968 1.20076 
-4.11072 0.424407 1.22075 -4.15625 0.418826 1.24074 -4.20177 0.412936 1.26073 
-4.24727 0.406734 1.28071 -4.29276 0.400218 1.30067 -4.33821 0.393385 1.32061 
-4.38365 0.386232 1.34053 -4.42905 0.378758 1.36042 -4.47442 0.370959 1.38028 
-4.51975 0.362833 1.4001 -4.56505 0.354378 1.41988 -4.6103 0.345592 1.43961 
-4.6555 0.336471 1.45929 -4.70066 0.327013 1.47891 -4.74577 0.317216 1.49847 
-4.79082 0.307077 1.51797 -4.83581 0.296597 1.53739 -4.88075 0.285774 1.55673 
-4.92564 0.274612 1.57599 -4.97047 0.263109 1.59516 -5.01525 0.251268 1.61423 
-5.05997 0.239088 1.63319 -5.10465 0.226571 1.65204 -5.14927 0.213717 1.67077 
-5.19385 0.200528 1.68938 -5.23837 0.187004 1.70785 -5.28285 0.173145 1.72618 
-5.32728 0.158953 1.74437 -5.37166 0.144429 1.7624 -5.41599 0.129573 1.78028 
-5.46028 0.114386 1.79798 -5.50453 0.0988685 1.81551 -5.54873 0.0830219 1.83287 
-5.59289 0.0668468 1.85003 -5.637 0.0503439 1.867 -5.68108 0.0335141 1.88377 
-5.72511 0.0163586 1.90034 -5.7691 -0.00112053 1.91668 -5.81305 -0.0189213 1.9328 
-5.85695 -0.0370416 1.94869 -5.90082 -0.0554795 1.96434 -5.94463 -0.0742328 1.97974 
-5.98841 -0.0932995 1.99489 -6.03213 -0.112678 2.00977 -6.07582 -0.132365 2.02437 
-6.11945 -0.15236 2.0387 -6.16304 -0.17266 2.05274 -6.20659 -0.193263 2.06648 
-6.25008 -0.214167 2.07991 -6.29353 -0.235371 2.09303 -6.33693 -0.256871 2.10583 
-6.38028 -0.278666 2.1183 -6.42358 -0.300755 2.13043 -6.46683 -0.323134 2.14221 
-6.51003 -0.345802 2.15364 -6.55318 -0.368757 2.16471 -6.59628 -0.391996 2.17541 
-6.63932 -0.415515 2.18572 -6.68231 -0.439309 2.19565 -6.72524 -0.463374 2.20518 
-6.76811 -0.487705 2.2143 -6.81092 -0.512297 2.223 -6.85366 -0.537146 2.23127 
-6.89634 -0.562247 2.2391 -6.93895 -0.587596 2.24649 -6.98149 -0.613187 2.25342 
-7.02395 -0.639016 2.25988 -7.06634 -0.665078 2.26587 -7.10866 -0.691369 2.27137 
-7.15089 -0.717885 2.27638 -7.19305 -0.74462 2.28088 -7.23512 -0.771569 2.28486 
-7.27711 -0.798729 2.28833 -7.31901 -0.826095 2.29126 -7.36082 -0.853661 2.29364 
-7.40254 -0.881423 2.29547 -7.44416 -0.909377 2.29674 -7.48569 -0.937517 2.29744 
-7.52711 -0.965837 2.29757 -7.56841 -0.994331 2.29712 -7.60959 -1.02299 2.29608 
-7.65065 -1.05182 2.29446 -7.69156 -1.0808 2.29225 -7.73234 -1.10993 2.28943 
-7.77296 -1.13921 2.28601 -7.81342 -1.16862 2.28199 -7.85372 -1.19817 2.27735 
-7.89384 -1.22784 2.27209 -7.93378 -1.25763 2.26622 -7.97353 -1.28754 2.25971 
-8.01309 -1.31756 2.25257 -8.05245 -1.34768 2.24479 -8.09159 -1.3779 2.23637 
-8.13052 -1.40821 2.2273 -8.16922 -1.43861 2.21758 -8.20769 -1.46908 2.2072 
-8.24592 -1.49963 2.19616 -8.28391 -1.53025 2.18446 -8.32163 -1.56093 2.1721 
-8.3591 -1.59168 2.1591 -8.39629 -1.62249 2.14545 -8.4332 -1.65335 2.13117 
-8.46982 -1.68426 2.11626 -8.50614 -1.71523 2.10073 -8.54216 -1.74624 2.08458 
-8.57786 -1.7773 2.06782 -8.61324 -1.80839 2.05045 -8.64829 -1.83953 2.03249 
-8.68301 -1.87069 2.01395 -8.71737 -1.90189 1.99481 -8.75138 -1.93312 1.9751 
-8.78503 -1.96436 1.95482 -8.8183 -1.99563 1.93397 -8.8512 -2.02692 1.91257 
-8.8837 -2.05823 1.89061 -8.91581 -2.08954 1.86811 -8.94752 -2.12086 1.84507 
-8.97881 -2.15219 1.8215 -9.00969 -2.18353 1.79741 -9.04015 -2.21488 1.77282 
-9.07019 -2.24624 1.74773 -9.0998 -2.27761 1.72216 -9.12898 -2.309 1.69612 
-9.15773 -2.3404 1.66961 -9.18604 -2.37183 1.64267 -9.21391 -2.40327 1.61528 
-9.24134 -2.43474 1.58748 -9.26833 -2.46623 1.55926 -9.29486 -2.49775 1.53065 
-9.32094 -2.5293 1.50165 -9.34656 -2.56087 1.47227 -9.37172 -2.59248 1.44254 
-9.39642 -2.62412 1.41245 -9.42065 -2.6558 1.38202 -9.4444 -2.68751 1.35127 
-9.46769 -2.71926 1.3202 -9.49049 -2.75106 1.28883 -9.51282 -2.78289 1.25717 
-9.53466 -2.81477 1.22523 -9.55602 -2.8467 1.19302 -9.5769 -2.87868 1.16055 
-9.5973 -2.91072 1.12784 -9.61722 -2.94281 1.09489 -9.63665 -2.97497 1.06172 
-9.65561 -3.00719 1.02833 -9.67408 -3.03948 0.994746 -9.69208 -3.07184 0.960967 
-9.70959 -3.10428 0.927007 -9.72662 -3.1368 0.892879 -9.74317 -3.1694 0.858592 
-9.75924 -3.20208 0.824157 -9.77483 -3.23485 0.789587 -9.78994 -3.26771 0.754892 
-9.80457 -3.30067 0.720082 -9.81872 -3.33372 0.68517 -9.83238 -3.36688 0.650165 
-9.84557 -3.40014 0.61508 -9.85828 -3.43351 0.579924 -9.87051 -3.46699 0.544706 
-9.88226 -3.50058 0.509433 -9.89355 -3.53427 0.474113 -9.90436 -3.56808 0.438753 
-9.91471 -3.602 0.403359 -9.92461 -3.63602 0.367939 -9.93404 -3.67016 0.3325 
-9.94302 -3.70441 0.297049 -9.95154 -3.73877 0.261594 -9.95962 -3.77324 0.226141 
-9.96725 -3.80783 0.190697 -9.97444 -3.84252 0.15527 -9.98119 -3.87733 0.119868 
-9.98751 -3.91225 0.0844957 -9.9934 -3.94729 0.0491621 -9.99886 -3.98243 0.0138738 
-10.0039 -4.0177 -0.021362 -10.0085 -4.05307 -0.0565381 -10.0127 -4.08856 -0.0916475 
-10.0165 -4.12416 -0.126683 -10.0198 -4.15988 -0.161639 -10.0228 -4.19571 -0.196513 
-10.0253 -4.23166 -0.231301 -10.0275 -4.26771 -0.265998 -10.0293 -4.30387 -0.300603 
-10.0306 -4.34014 -0.335112 -10.0316 -4.37652 -0.36952 -10.0323 -4.41301 -0.403826 
-10.0325 -4.4496 -0.438024 -10.0324 -4.48629 -0.472112 -10.0319 -4.52309 -0.506087 
-10.031 -4.55999 -0.539945 -10.0298 -4.59699 -0.573682 -10.0283 -4.63409 -0.607295 
-10.0264 -4.67128 -0.640781 -10.0242 -4.70858 -0.674136 -10.0216 -4.74597 -0.707357 
-10.0187 -4.78346 -0.74044 -10.0155 -4.82104 -0.773382 -10.0119 -4.85871 -0.80618 
-10.0081 -4.89647 -0.838831 -10.0039 -4.93433 -0.871333 -9.99943 -4.97227 -0.903686 
-9.99465 -5.01031 -0.93589 -9.98958 -5.04843 -0.967943 -9.98421 -5.08663 -0.999844 
-9.97856 -5.12493 -1.03159 -9.97262 -5.1633 -1.06319 -9.96641 -5.20176 -1.09463 
-9.95993 -5.2403 -1.12592 -9.95318 -5.27893 -1.15705 -9.94617 -5.31763 -1.18803 
-9.9389 -5.35641 -1.21885 -9.93137 -5.39527 -1.24951 -9.9236 -5.4342 -1.28001 
-9.91559 -5.47322 -1.31036 -9.90734 -5.5123 -1.34054 -9.89886 -5.55146 -1.37056 
-9.89015 -5.59069 -1.40042 -9.88121 -5.62999 -1.43012 -9.87206 -5.66937 -1.45966 
-9.86269 -5.70881 -1.48903 -9.85311 -5.74832 -1.51823 -9.84333 -5.7879 -1.54728 
-9.83334 -5.82755 -1.57615 -9.82315 -5.86727 -1.60486 -9.81277 -5.90706 -1.63341 
-9.80219 -5.94691 -1.66179 -9.79142 -5.98683 -1.69 -9.78048 -6.02682 -1.71804 
-9.76935 -6.06688 -1.74592 -9.75804 -6.107 -1.77363 -9.74656 -6.14718 -1.80117 
-9.73491 -6.18744 -1.82854 -9.72309 -6.22776 -1.85574 -9.71112 -6.26814 -1.88277 
-9.69898 -6.30859 -1.90963 -9.68669 -6.3491 -1.93632 -9.67425 -6.38967 -1.96284 
-9.66166 -6.43031 -1.98919 -9.64893 -6.47101 -2.01536 -9.63605 -6.51178 -2.04136 
-9.62304 -6.55261 -2.06719 -9.6099 -6.5935 -2.09284 -9.59662 -6.63447 -2.11832 
-9.58321 -6.6755 -2.14362 -9.56967 -6.71659 -2.16874 -9.55601 -6.75776 -2.19368 
-9.54223 -6.79899 -2.21844 -9.52832 -6.8403 -2.24302 -9.5143 -6.88168 -2.26742 
-9.50016 -6.92313 -2.29163 -9.48591 -6.96465 -2.31565 -9.47155 -7.00625 -2.3395 
-9.45709 -7.04793 -2.36315 -9.44251 -7.08968 -2.38662 -9.42784 -7.1315 -2.40989 
-9.41306 -7.17341 -2.43298 -9.39819 -7.21539 -2.45587 -9.38323 -7.25745 -2.47858 
-9.36817 -7.2996 -2.50109 -9.35302 -7.34182 -2.5234 -9.33778 -7.38413 -2.54551 
-9.32246 -7.42652 -2.56741 -9.30706 -7.46899 -2.5891 -9.29158 -7.51154 -2.61057 
-9.27602 -7.55417 -2.63182 -9.26039 -7.59689 -2.65283 -9.24469 -7.63969 -2.67361 
-9.22892 -7.68257 -2.69415 -9.21308 -7.72554 -2.71443 -9.19718 -7.76859 -2.73447 
-9.18122 -7.81172 -2.75425 -9.16521 -7.85493 -2.77376 -9.14914 -7.89823 -2.793 
-9.13301 -7.94162 -2.81196 -9.11684 -7.98509 -2.83065 -9.10062 -8.02864 -2.84904 
-9.08435 -8.07228 -2.86714 -9.06805 -8.116 -2.88495 -9.0517 -8.15981 -2.90244 
[...]
CELL_DATA 1
FIELD FieldData 2
Length 1 1 double
63.894234582 
Tortuosity 1 1 double
0.7470179697 
POINT_DATA 1278
SCALARS MaximumInscribedSphereRadius float
LOOKUP_TABLE default
1.24 1.25651 1.27303 1.28954 1.30606 1.32257 1.33909 1.3556 1.37211 
1.38863 1.40514 1.42166 1.43817 1.45468 1.4712 1.48771 1.50423 1.52074 
1.53726 1.55377 1.57028 1.58603 1.59497 1.60391 1.61285 1.62179 1.63073 
1.63967 1.64861 1.65755 1.66649 1.67543 1.68437 1.69331 1.70225 1.71119 
1.72013 1.72907 1.73801 1.74695 1.75589 1.75154 1.73964 1.72775 1.71585 
1.70395 1.69205 1.68016 1.66826 1.65636 1.64446 1.63257 1.62067 1.60877 
1.59688 1.58498 1.57308 1.56118 1.54929 1.53739 1.52549 1.51409 1.50611 
1.49813 1.49015 1.48217 1.47419 1.46621 1.45823 1.45025 1.44226 1.43428 
1.4263 1.41832 1.41034 1.40236 1.39438 1.3864 1.37842 1.37043 1.36245 
1.35447 1.35874 1.36446 1.37018 1.37589 1.38161 1.38732 1.39304 1.39876 
1.40447 1.41019 1.4159 1.42162 1.42734 1.43305 1.43877 1.44449 1.4502 
1.45592 1.46163 1.46735 1.47056 1.47219 1.47383 1.47547 1.4771 1.47874 
1.48038 1.48201 1.48365 1.48529 1.48692 1.48856 1.4902 1.49183 1.49347 
1.49511 1.49674 1.49838 1.50001 1.50165 1.50059 1.49429 1.488 1.48171 
1.47542 1.46913 1.46284 1.45655 1.45025 1.44396 1.43767 1.43138 1.42509 
1.4188 1.41251 1.40621 1.39992 1.39363 1.38734 1.38105 1.37429 1.36118 
1.34806 1.33495 1.32183 1.30872 1.2956 1.28249 1.26938 1.25626 1.24315 
1.23003 1.21692 1.2038 1.19069 1.17757 1.16446 1.15135 1.13823 1.12512 
1.112 1.10783 1.10588 1.10394 1.10199 1.10004 1.0981 1.09615 1.0942 
1.09226 1.09031 1.08836 1.08642 1.08447 1.08252 1.08058 1.07863 1.07668 
1.07474 1.07279 1.07084 1.08028 1.0994 1.11851 1.13763 1.15675 1.17587 
1.19499 1.2141 1.23322 1.25234 1.27146 1.29058 1.30969 1.32881 1.34793 
1.36705 1.38616 1.40528 1.4244 1.44352 1.45292 1.43763 1.42234 1.40705 
1.39176 1.37647 1.36117 1.34588 1.33059 1.3153 1.30001 1.28472 1.26943 
1.25413 1.23884 1.22355 1.20826 1.19297 1.17768 1.16238 1.14719 1.1368 
1.12642 1.11604 1.10566 1.09528 1.0849 1.07452 1.06413 1.05375 1.04337 
1.03299 1.02261 1.01223 1.00185 0.991465 0.981083 0.970702 0.96032 0.949939 
0.939558 0.942123 0.948979 0.955836 0.962693 0.96955 0.976406 0.983263 0.99012 
0.996976 1.00383 1.01069 1.01755 1.0244 1.03126 1.03812 1.04497 1.05183 
1.05869 1.06554 1.0724 1.07872 1.08447 1.09022 1.09597 1.10172 1.10746 
1.11321 1.11896 1.12471 1.13046 1.1362 1.14195 1.1477 1.15345 1.1592 
1.16494 1.17069 1.17644 1.18219 1.18794 1.19343 1.19795 1.20247 1.20699 
1.21151 1.21603 1.22055 1.22507 1.22959 1.23411 1.23863 1.24315 1.24767 
1.25219 1.25671 1.26123 1.26575 1.27027 1.27479 1.27931 1.28382 1.28203 
1.27979 1.27754 1.27529 1.27304 1.27079 1.26855 1.2663 1.26405 1.2618 
1.25955 1.25731 1.25506 1.25281 1.25056 1.24832 1.24607 1.24382 1.24157 
1.23932 1.23643 1.2332 1.22997 1.22674 1.22352 1.22029 1.21706 1.21383 
1.2106 1.20737 1.20414 1.20091 1.19768 1.19445 1.19122 1.18799 1.18476 
1.18153 1.1783 1.17507 1.17709 1.18767 1.19826 1.20885 1.21943 1.23002 
1.24061 1.25119 1.26178 1.27237 1.28295 1.29354 1.30413 1.31471 1.3253 
1.33589 1.34647 1.35706 1.36765 1.37823 1.3898 1.41041 1.43102 1.45163 
1.47224 1.49285 1.51346 1.53407 1.55468 1.57529 1.5959 1.61651 1.63712 
1.65773 1.67834 1.69895 1.71956 1.74017 1.76078 1.78139 1.802 1.80597 
1.80667 1.80737 1.80807 1.80877 1.80947 1.81017 1.81087 1.81157 1.81228 
1.81298 1.81368 1.81438 1.81508 1.81578 1.81648 1.81718 1.81788 1.81858 
1.81929 1.80244 1.77434 1.74623 1.71812 1.69002 1.66191 1.6338 1.6057 
1.57759 1.54948 1.52138 1.49327 1.46516 1.43706 1.40895 1.38084 1.35274 
1.32463 1.29652 1.26842 1.24449 1.22359 1.2027 1.1818 1.16091 1.14001 
1.11912 1.09822 1.07733 1.05643 1.03554 1.01464 0.993748 0.972853 0.951958 
0.931063 0.910168 0.889273 0.868379 0.847484 0.835143 0.851197 0.867252 0.883306 
0.89936 0.915415 0.931469 0.947524 0.963578 0.979632 0.995687 1.01174 1.0278 
1.04385 1.0599 1.07596 1.09201 1.10807 1.12412 1.14018 1.15623 1.17415 
1.19213 1.2101 1.22807 1.24604 1.26401 1.28198 1.29996 1.31793 1.3359 
1.35387 1.37184 1.38982 1.40779 1.42576 1.44373 1.4617 1.47967 1.49765 
1.51562 1.53102 1.54528 1.55955 1.57381 1.58807 1.60234 1.6166 1.63086 
1.64512 1.65939 1.67365 1.68791 1.70218 1.71644 1.7307 1.74496 1.75923 
1.77349 1.78775 1.80201 1.80729 1.7999 1.79251 1.78512 1.77772 1.77033 
1.76294 1.75554 1.74815 1.74076 1.73337 1.72597 1.71858 1.71119 1.7038 
1.6964 1.68901 1.68162 1.67423 1.66683 1.66158 1.66912 1.67667 1.68421 
1.69175 1.69929 1.70684 1.71438 1.72192 1.72946 1.73701 1.74455 1.75209 
1.75964 1.76718 1.77472 1.78226 1.78981 1.79735 1.80489 1.81243 1.83693 
1.86369 1.89045 1.91721 1.94397 1.97073 1.99748 2.02424 2.051 2.07776 
2.10452 2.13128 2.15804 2.18479 2.21155 2.23831 2.26507 2.29183 2.31859 
2.34535 2.34679 2.3325 2.31821 2.30393 2.28964 2.27535 2.26107 2.24678 
2.23249 2.2182 2.20392 2.18963 2.17534 2.16106 2.14677 2.13248 2.11819 
2.10391 2.08962 2.07533 2.05844 2.0366 2.01475 1.9929 1.97105 1.9492 
1.92735 1.9055 1.88365 1.8618 1.83996 1.81811 1.79626 1.77441 1.75256 
1.73071 1.70886 1.68701 1.66516 1.64331 1.62266 1.61907 1.61547 1.61188 
1.60828 1.60469 1.60109 1.5975 1.5939 1.59031 1.58671 1.58312 1.57952 
1.57593 1.57233 1.56874 1.56514 1.56155 1.55795 1.55436 1.55076 1.5516 
1.55363 1.55565 1.55768 1.55971 1.56173 1.56376 1.56579 1.56781 1.56984 
1.57187 1.5739 1.57592 1.57795 1.57998 1.582 1.58403 1.58606 1.58809 
1.59011 1.59452 1.60124 1.60796 1.61468 1.6214 1.62811 1.63483 1.64155 
1.64827 1.65499 1.66171 1.66843 1.67514 1.68186 1.68858 1.6953 1.70202 
1.70874 1.71546 1.72217 1.7292 1.73723 1.74526 1.75329 1.76133 1.76936 
1.77739 1.78542 1.79346 1.80149 1.80952 1.81756 1.82559 1.83362 1.84165 
1.84969 1.85772 1.86575 1.87379 1.88182 1.88985 1.89793 1.90601 1.91409 
1.92217 1.93025 1.93833 1.94641 1.95449 1.96257 1.97065 1.97873 1.98681 
1.99489 2.00297 2.01105 2.01913 2.0272 2.03528 2.04336 2.05144 2.05408 
2.05404 2.054 2.05396 2.05392 2.05388 2.05383 2.05379 2.05375 2.05371 
2.05367 2.05363 2.05359 2.05354 2.0535 2.05346 2.05342 2.05338 2.05334 
2.0533 2.04724 2.03189 2.01655 2.0012 1.98586 1.97051 1.95517 1.93983 
1.92448 1.90914 1.89379 1.87845 1.8631 1.84776 1.83241 1.81707 1.80172 
1.78638 1.77103 1.75569 1.74066 1.72806 1.71547 1.70287 1.69027 1.67768 
1.66508 1.65248 1.63989 1.62729 1.61469 1.6021 1.5895 1.5769 1.56431 
1.55171 1.53911 1.52652 1.51392 1.50132 1.48872 1.47987 1.47174 1.46361 
1.45548 1.44735 1.43921 1.43108 1.42295 1.41482 1.40669 1.39856 1.39043 
1.3823 1.37417 1.36604 1.35791 1.34978 1.34165 1.33352 1.32539 1.32505 
1.33078 1.33651 1.34224 1.34797 1.3537 1.35943 1.36516 1.37089 1.37662 
1.38235 1.38808 1.39381 1.39954 1.40527 1.411 1.41673 1.42246 1.42819 
1.43392 1.44193 1.45561 1.46928 1.48296 1.49663 1.5103 1.52398 1.53765 
1.55133 1.565 1.57867 1.59235 1.60602 1.6197 1.63337 1.64704 1.66072 
1.67439 1.68807 1.70174 1.71509 1.71 1.70491 1.69981 1.69472 1.68963 
1.68454 1.67944 1.67435 1.66926 1.66416 1.65907 1.65398 1.64888 1.64379 
1.6387 1.63361 1.62851 1.62342 1.61833 1.61323 1.60141 1.58729 1.57317 
1.55905 1.54493 1.53081 1.51669 1.50257 1.48845 1.47433 1.46021 1.44609 
1.43197 1.41785 1.40374 1.38962 1.3755 1.36138 1.34726 1.33314 1.3341 
1.35186 1.36963 1.38739 1.40515 1.42291 1.44067 1.45843 1.47619 1.49395 
1.51171 1.52947 1.54723 1.56499 1.58275 1.60051 1.61827 1.63603 1.65379 
1.67155 1.68891 1.70467 1.72044 1.7362 1.75196 1.76773 1.78349 1.79926 
1.81502 1.83078 1.84655 1.86231 1.87808 1.89384 1.9096 1.92537 1.94113 
1.95689 1.97266 1.98842 2.00419 2.00307 2.00061 1.99814 1.99568 1.99322 
1.99075 1.98829 1.98583 1.98336 1.9809 1.97844 1.97598 1.97351 1.97105 
1.96859 1.96612 1.96366 1.9612 1.95873 1.95627 1.95281 1.94882 1.94482 
1.94083 1.93683 1.93284 1.92884 1.92485 1.92086 1.91686 1.91287 1.90887 
1.90488 1.90088 1.89689 1.89289 1.8889 1.8849 1.88091 1.87691 1.87414 
1.87343 1.87272 1.87201 1.8713 1.87059 1.86988 1.86917 1.86846 1.86775 
1.86704 1.86633 1.86562 1.86491 1.8642 1.86349 1.86277 1.86206 1.86135 
1.86064 1.86015 1.86175 1.86334 1.86493 1.86653 1.86812 1.86971 1.87131 
1.8729 1.8745 1.87609 1.87768 1.87928 1.88087 1.88246 1.88406 1.88565 
1.88725 1.88884 1.89043 1.89203 1.89879 1.90671 1.91463 1.92255 1.93047 
1.93839 1.94631 1.95423 1.96215 1.97006 1.97798 1.9859 1.99382 2.00174 
2.00966 2.01758 2.0255 2.03342 2.04134 2.04926 2.05726 2.06533 2.0734 
2.08146 2.08953 2.0976 2.10566 2.11373 2.1218 2.12986 2.13793 2.146 
2.15406 2.16213 2.1702 2.17826 2.18633 2.1944 2.20246 2.21053 2.21866 
2.22697 2.23529 2.2436 2.25192 2.26023 2.26854 2.27686 2.28517 2.29349 
2.3018 2.31012 2.31843 2.32674 2.33506 2.34337 2.35169 2.36 2.36832 
2.37663 2.38494 2.38174 2.37828 2.37482 2.37136 2.36791 2.36445 2.36099 
2.35753 2.35407 2.35062 2.34716 2.3437 2.34024 2.33679 2.33333 2.32987 
2.32641 2.32296 2.3195 2.31604 2.30428 2.28904 2.2738 2.25856 2.24332 
2.22808 2.21284 2.1976 2.18236 2.16712 2.15188 2.13664 2.12141 2.10617 
2.09093 2.07569 2.06045 2.04521 2.02997 2.01473 2.00534 2.0036 2.00186 
2.00012 1.99838 1.99664 1.9949 1.99316 1.99141 1.98967 1.98793 1.98619 
1.98445 1.98271 1.98097 1.97923 1.97748 1.97574 1.974 1.97226 1.97163 
1.97659 1.98154 1.98649 1.99144 1.99639 2.00135 2.0063 2.01125 2.0162 
2.02115 2.0261 2.03106 2.03601 2.04096 2.04591 2.05086 2.05581 2.06077 
2.06572 2.07067 2.07404 2.07724 2.08044 2.08363 2.08683 2.09003 2.09322 
2.09642 2.09961 2.10281 2.10601 2.1092 2.1124 2.1156 2.11879 2.12199 
2.12519 2.12838 2.13158 2.13477 2.13487 2.13313 2.1314 2.12967 2.12793 
2.1262 2.12446 2.12273 2.12099 2.11926 2.11752 2.11579 2.11406 2.11232 
2.11059 2.10885 2.10712 2.10538 2.10365 2.10191 2.09806 2.09041 2.08276 
2.07511 2.06746 2.05981 2.05215 2.0445 2.03685 2.0292 2.02155 2.0139 
2.00625 1.99859 1.99094 1.98329 1.97564 1.96799 1.96034 1.95269 1.94578 
1.94693 1.94809 1.94925 1.9504 1.95156 1.95272 1.95387 1.95503 1.95619 
1.95734 1.9585 1.95966 1.96082 1.96197 1.96313 1.96429 1.96544 1.9666 
1.96776 1.96891 1.97797 1.98847 1.99896 2.00946 2.01996 2.03045 2.04095 
2.05145 2.06194 2.07244 2.08294 2.09343 2.10393 2.11442 2.12492 2.13542 
2.14591 2.15641 2.16691 2.1774 2.1921 2.21385 2.23559 2.25734 2.27909 
2.30083 2.32258 2.34433 2.36607 2.38782 2.40957 2.43132 2.45306 2.47481 
2.49656 2.5183 2.54005 2.5618 2.58354 2.60529 2.62865 2.65222 2.67579 
2.69936 2.72292 2.74649 2.77006 2.79363 2.81719 2.84076 2.86433 2.88789 
2.91146 2.93503 2.9586 2.98216 3.00573 3.0293 3.05287 3.07643 3.1 

TEXTURE_COORDINATES TCoords 2 float
0 0 0.000783085 0 0.00156617 0 0.00234926 0 0.00313234 
0 0.00391543 0 0.00469851 0 0.0054816 0 0.00626468 0 
0.00704777 0 0.00783085 0 0.00861394 0 0.00939702 0 0.0101801 
0 0.0109632 0 0.0117463 0 0.0125294 0 0.0133125 0 
0.0140955 0 0.0148786 0 0.0156617 0 0.0164448 0 0.0172279 
0 0.018011 0 0.018794 0 0.0195771 0 0.0203602 0 
0.0211433 0 0.0219264 0 0.0227095 0 0.0234926 0 0.0242756 
0 0.0250587 0 0.0258418 0 0.0266249 0 0.027408 0 
0.0281911 0 0.0289742 0 0.0297572 0 0.0305403 0 0.0313234 
0 0.0321065 0 0.0328896 0 0.0336727 0 0.0344558 0 
0.0352388 0 0.0360219 0 0.036805 0 0.0375881 0 0.0383712 
0 0.0391543 0 0.0399374 0 0.0407204 0 0.0415035 0 
0.0422866 0 0.0430697 0 0.0438528 0 0.0446359 0 0.045419 
0 0.046202 0 0.0469851 0 0.0477682 0 0.0485513 0 
0.0493344 0 0.0501175 0 0.0509005 0 0.0516836 0 0.0524667 
0 0.0532498 0 0.0540329 0 0.054816 0 0.0555991 0 
0.0563821 0 0.0571652 0 0.0579483 0 0.0587314 0 0.0595145 
0 0.0602976 0 0.0610807 0 0.0618637 0 0.0626468 0 
0.0634299 0 0.064213 0 0.0649961 0 0.0657792 0 0.0665623 
0 0.0673453 0 0.0681284 0 0.0689115 0 0.0696946 0 
0.0704777 0 0.0712608 0 0.0720439 0 0.0728269 0 0.07361 
0 0.0743931 0 0.0751762 0 0.0759593 0 0.0767424 0 
0.0775255 0 0.0783085 0 0.0790916 0 0.0798747 0 0.0806578 
0 0.0814409 0 0.082224 0 0.083007 0 0.0837901 0 
0.0845732 0 0.0853563 0 0.0861394 0 0.0869225 0 0.0877056 
0 0.0884886 0 0.0892717 0 0.0900548 0 0.0908379 0 
0.091621 0 0.0924041 0 0.0931872 0 0.0939702 0 0.0947533 
0 0.0955364 0 0.0963195 0 0.0971026 0 0.0978857 0 
0.0986688 0 0.0994518 0 0.100235 0 0.101018 0 0.101801 
0 0.102584 0 0.103367 0 0.10415 0 0.104933 0 
0.105717 0 0.1065 0 0.107283 0 0.108066 0 0.108849 
0 0.109632 0 0.110415 0 0.111198 0 0.111981 0 
0.112764 0 0.113547 0 0.11433 0 0.115114 0 0.115897 
0 0.11668 0 0.117463 0 0.118246 0 0.119029 0 
0.119812 0 0.120595 0 0.121378 0 0.122161 0 0.122944 
0 0.123727 0 0.124511 0 0.125294 0 0.126077 0 
0.12686 0 0.127643 0 0.128426 0 0.129209 0 0.129992 
0 0.130775 0 0.131558 0 0.132341 0 0.133125 0 
0.133908 0 0.134691 0 0.135474 0 0.136257 0 0.13704 
0 0.137823 0 0.138606 0 0.139389 0 0.140172 0 
0.140955 0 0.141738 0 0.142522 0 0.143305 0 0.144088 
0 0.144871 0 0.145654 0 0.146437 0 0.14722 0 
0.148003 0 0.148786 0 0.149569 0 0.150352 0 0.151135 
0 0.151919 0 0.152702 0 0.153485 0 0.154268 0 
0.155051 0 0.155834 0 0.156617 0 0.1574 0 0.158183 
0 0.158966 0 0.159749 0 0.160533 0 0.161316 0 
0.162099 0 0.162882 0 0.163665 0 0.164448 0 0.165231 
0 0.166014 0 0.166797 0 0.16758 0 0.168363 0 
0.169146 0 0.16993 0 0.170713 0 0.171496 0 0.172279 
0 0.173062 0 0.173845 0 0.174628 0 0.175411 0 
0.176194 0 0.176977 0 0.17776 0 0.178543 0 0.179327 
0 0.18011 0 0.180893 0 0.181676 0 0.182459 0 
0.183242 0 0.184025 0 0.184808 0 0.185591 0 0.186374 
0 0.187157 0 0.18794 0 0.188724 0 0.189507 0 
0.19029 0 0.191073 0 0.191856 0 0.192639 0 0.193422 
0 0.194205 0 0.194988 0 0.195771 0 0.196554 0 
0.197338 0 0.198121 0 0.198904 0 0.199687 0 0.20047 
0 0.201253 0 0.202036 0 0.202819 0 0.203602 0 
0.204385 0 0.205168 0 0.205951 0 0.206735 0 0.207518 
0 0.208301 0 0.209084 0 0.209867 0 0.21065 0 
0.211433 0 0.212216 0 0.212999 0 0.213782 0 0.214565 
0 0.215348 0 0.216132 0 0.216915 0 0.217698 0 
0.218481 0 0.219264 0 0.220047 0 0.22083 0 0.221613 
0 0.222396 0 0.223179 0 0.223962 0 0.224745 0 
0.225529 0 0.226312 0 0.227095 0 0.227878 0 0.228661 
0 0.229444 0 0.230227 0 0.23101 0 0.231793 0 
0.232576 0 0.233359 0 0.234143 0 0.234926 0 0.235709 
0 0.236492 0 0.237275 0 0.238058 0 0.238841 0 
0.239624 0 0.240407 0 0.24119 0 0.241973 0 0.242756 
0 0.24354 0 0.244323 0 0.245106 0 0.245889 0 
0.246672 0 0.247455 0 0.248238 0 0.249021 0 0.249804 
0 0.250587 0 0.25137 0 0.252153 0 0.252937 0 
0.25372 0 0.254503 0 0.255286 0 0.256069 0 0.256852 
0 0.257635 0 0.258418 0 0.259201 0 0.259984 0 
0.260767 0 0.261551 0 0.262334 0 0.263117 0 0.2639 
0 0.264683 0 0.265466 0 0.266249 0 0.267032 0 
0.267815 0 0.268598 0 0.269381 0 0.270164 0 0.270948 
0 0.271731 0 0.272514 0 0.273297 0 0.27408 0 
0.274863 0 0.275646 0 0.276429 0 0.277212 0 0.277995 
0 0.278778 0 0.279561 0 0.280345 0 0.281128 0 
0.281911 0 0.282694 0 0.283477 0 0.28426 0 0.285043 
0 0.285826 0 0.286609 0 0.287392 0 0.288175 0 
0.288958 0 0.289742 0 0.290525 0 0.291308 0 0.292091 
0 0.292874 0 0.293657 0 0.29444 0 0.295223 0 
0.296006 0 0.296789 0 0.297572 0 0.298356 0 0.299139 
0 0.299922 0 0.300705 0 0.301488 0 0.302271 0 
0.303054 0 0.303837 0 0.30462 0 0.305403 0 0.306186 
0 0.306969 0 0.307753 0 0.308536 0 0.309319 0 
0.310102 0 0.310885 0 0.311668 0 0.312451 0 0.313234 
0 0.314017 0 0.3148 0 0.315583 0 0.316366 0 
0.31715 0 0.317933 0 0.318716 0 0.319499 0 0.320282 
0 0.321065 0 0.321848 0 0.322631 0 0.323414 0 
0.324197 0 0.32498 0 0.325763 0 0.326547 0 0.32733 
0 0.328113 0 0.328896 0 0.329679 0 0.330462 0 
0.331245 0 0.332028 0 0.332811 0 0.333594 0 0.334377 
0 0.335161 0 0.335944 0 0.336727 0 0.33751 0 
0.338293 0 0.339076 0 0.339859 0 0.340642 0 0.341425 
0 0.342208 0 0.342991 0 0.343774 0 0.344558 0 
0.345341 0 0.346124 0 0.346907 0 0.34769 0 0.348473 
0 0.349256 0 0.350039 0 0.350822 0 0.351605 0 
0.352388 0 0.353171 0 0.353955 0 0.354738 0 0.355521 
0 0.356304 0 0.357087 0 0.35787 0 0.358653 0 
0.359436 0 0.360219 0 0.361002 0 0.361785 0 0.362569 
0 0.363352 0 0.364135 0 0.364918 0 0.365701 0 
0.366484 0 0.367267 0 0.36805 0 0.368833 0 0.369616 
0 0.370399 0 0.371182 0 0.371966 0 0.372749 0 
0.373532 0 0.374315 0 0.375098 0 0.375881 0 0.376664 
0 0.377447 0 0.37823 0 0.379013 0 0.379796 0 
0.380579 0 0.381363 0 0.382146 0 0.382929 0 0.383712 
0 0.384495 0 0.385278 0 0.386061 0 0.386844 0 
0.387627 0 0.38841 0 0.389193 0 0.389977 0 0.39076 
0 0.391543 0 0.392326 0 0.393109 0 0.393892 0 
0.394675 0 0.395458 0 0.396241 0 0.397024 0 0.397807 
0 0.39859 0 0.399374 0 0.400157 0 0.40094 0 
0.401723 0 0.402506 0 0.403289 0 0.404072 0 0.404855 
0 0.405638 0 0.406421 0 0.407204 0 0.407987 0 
0.408771 0 0.409554 0 0.410337 0 0.41112 0 0.411903 
0 0.412686 0 0.413469 0 0.414252 0 0.415035 0 
0.415818 0 0.416601 0 0.417385 0 0.418168 0 0.418951 
0 0.419734 0 0.420517 0 0.4213 0 0.422083 0 
0.422866 0 0.423649 0 0.424432 0 0.425215 0 0.425998 
0 0.426782 0 0.427565 0 0.428348 0 0.429131 0 
0.429914 0 0.430697 0 0.43148 0 0.432263 0 0.433046 
0 0.433829 0 0.434612 0 0.435395 0 0.436179 0 
0.436962 0 0.437745 0 0.438528 0 0.439311 0 0.440094 
0 0.440877 0 0.44166 0 0.442443 0 0.443226 0 
0.444009 0 0.444792 0 0.445576 0 0.446359 0 0.447142 
0 0.447925 0 0.448708 0 0.449491 0 0.450274 0 
0.451057 0 0.45184 0 0.452623 0 0.453406 0 0.45419 
0 0.454973 0 0.455756 0 0.456539 0 0.457322 0 
0.458105 0 0.458888 0 0.459671 0 0.460454 0 0.461237 
0 0.46202 0 0.462803 0 0.463587 0 0.46437 0 
0.465153 0 0.465936 0 0.466719 0 0.467502 0 0.468285 
0 0.469068 0 0.469851 0 0.470634 0 0.471417 0 
0.4722 0 0.472984 0 0.473767 0 0.47455 0 0.475333 
0 0.476116 0 0.476899 0 0.477682 0 0.478465 0 
0.479248 0 0.480031 0 0.480814 0 0.481597 0 0.482381 
0 0.483164 0 0.483947 0 0.48473 0 0.485513 0 
0.486296 0 0.487079 0 0.487862 0 0.488645 0 0.489428 
0 0.490211 0 0.490995 0 0.491778 0 0.492561 0 
0.493344 0 0.494127 0 0.49491 0 0.495693 0 0.496476 
0 0.497259 0 0.498042 0 0.498825 0 0.499608 0 
0.500392 0 0.501175 0 0.501958 0 0.502741 0 0.503524 
0 0.504307 0 0.50509 0 0.505873 0 0.506656 0 
0.507439 0 0.508222 0 0.509005 0 0.509789 0 0.510572 
0 0.511355 0 0.512138 0 0.512921 0 0.513704 0 
0.514487 0 0.51527 0 0.516053 0 0.516836 0 0.517619 
0 0.518403 0 0.519186 0 0.519969 0 0.520752 0 
0.521535 0 0.522318 0 0.523101 0 0.523884 0 0.524667 
0 0.52545 0 0.526233 0 0.527016 0 0.5278 0 
0.528583 0 0.529366 0 0.530149 0 0.530932 0 0.531715 
0 0.532498 0 0.533281 0 0.534064 0 0.534847 0 
0.53563 0 0.536413 0 0.537197 0 0.53798 0 0.538763 
0 0.539546 0 0.540329 0 0.541112 0 0.541895 0 
0.542678 0 0.543461 0 0.544244 0 0.545027 0 0.545811 
0 0.546594 0 0.547377 0 0.54816 0 0.548943 0 
0.549726 0 0.550509 0 0.551292 0 0.552075 0 0.552858 
0 0.553641 0 0.554424 0 0.555207 0 0.555991 0 
0.556774 0 0.557557 0 0.55834 0 0.559123 0 0.559906 
0 0.560689 0 0.561472 0 0.562255 0 0.563038 0 
0.563821 0 0.564605 0 0.565388 0 0.566171 0 0.566954 
0 0.567737 0 0.56852 0 0.569303 0 0.570086 0 
0.570869 0 0.571652 0 0.572435 0 0.573218 0 0.574002 
0 0.574785 0 0.575568 0 0.576351 0 0.577134 0 
0.577917 0 0.5787 0 0.579483 0 0.580266 0 0.581049 
0 0.581832 0 0.582615 0 0.583399 0 0.584182 0 
0.584965 0 0.585748 0 0.586531 0 0.587314 0 0.588097 
0 0.58888 0 0.589663 0 0.590446 0 0.591229 0 
0.592013 0 0.592796 0 0.593579 0 0.594362 0 0.595145 
0 0.595928 0 0.596711 0 0.597494 0 0.598277 0 
0.59906 0 0.599843 0 0.600626 0 0.60141 0 0.602193 
0 0.602976 0 0.603759 0 0.604542 0 0.605325 0 
0.606108 0 0.606891 0 0.607674 0 0.608457 0 0.60924 
0 0.610023 0 0.610807 0 0.61159 0 0.612373 0 
0.613156 0 0.613939 0 0.614722 0 0.615505 0 0.616288 
0 0.617071 0 0.617854 0 0.618637 0 0.619421 0 
0.620204 0 0.620987 0 0.62177 0 0.622553 0 0.623336 
0 0.624119 0 0.624902 0 0.625685 0 0.626468 0 
0.627251 0 0.628034 0 0.628818 0 0.629601 0 0.630384 
0 0.631167 0 0.63195 0 0.632733 0 0.633516 0 
0.634299 0 0.635082 0 0.635865 0 0.636648 0 0.637432 
0 0.638215 0 0.638998 0 0.639781 0 0.640564 0 
0.641347 0 0.64213 0 0.642913 0 0.643696 0 0.644479 
0 0.645262 0 0.646045 0 0.646829 0 0.647612 0 
0.648395 0 0.649178 0 0.649961 0 0.650744 0 0.651527 
0 0.65231 0 0.653093 0 0.653876 0 0.654659 0 
0.655442 0 0.656226 0 0.657009 0 0.657792 0 0.658575 
0 0.659358 0 0.660141 0 0.660924 0 0.661707 0 