# vtk DataFile Version 4.2
vtk output
ASCII
DATASET POLYDATA
POINTS 1278 float
0 0 0 -0.00386643 0.00025731 0.00133908 -0.0151443 0.00100795 0.00524036 
-0.0333517 0.00221997 0.0115299 -0.0580063 0.00386145 0.0200338 -0.0886263 0.00590043 0.0305782 
-0.124729 0.00830499 0.042989 -0.165834 0.0110432 0.0570924 -0.211457 0.0140831 0.0727145 
-0.261118 0.0173927 0.0896813 -0.314333 0.0209402 0.107819 -0.370621 0.0246935 0.126953 
-0.4295 0.0286208 0.146911 -0.490488 0.0326901 0.167517 -0.553103 0.0368694 0.188599 
-0.616862 0.0411269 0.209982 -0.681283 0.0454305 0.231492 -0.745886 0.0497484 0.252955 
-0.810186 0.0540486 0.274198 -0.873703 0.0582992 0.295046 -0.935955 0.0624682 0.315326 
-0.996459 0.0665238 0.334863 -1.05491 0.0704448 0.35355 -1.1114 0.0742343 0.37142 
-1.16607 0.0778982 0.388526 -1.21904 0.0814427 0.404922 -1.27047 0.0848738 0.420659 
-1.32049 0.0881976 0.435793 -1.36924 0.0914202 0.450374 -1.41686 0.0945477 0.464458 
-1.46349 0.0975862 0.478096 -1.50926 0.100542 0.491341 -1.55432 0.10342 0.504247 
-1.5988 0.106228 0.516868 -1.64284 0.108971 0.529255 -1.68658 0.111655 0.541462 
-1.73017 0.114287 0.553542 -1.77373 0.116872 0.565549 -1.81741 0.119417 0.577534 
-1.86135 0.121928 0.589552 -1.90568 0.12441 0.601655 -1.95054 0.12687 0.613894 
-1.99596 0.129307 0.626281 -2.0419 0.131717 0.638802 -2.08834 0.134097 0.651446 
-2.13523 0.136441 0.664199 -2.18254 0.138747 0.677047 -2.23023 0.14101 0.689977 
-2.27828 0.143227 0.702975 -2.32664 0.145392 0.716029 -2.37529 0.147502 0.729126 
-2.42417 0.149554 0.742251 -2.47327 0.151542 0.755392 -2.52255 0.153463 0.768535 
-2.57196 0.155314 0.781667 -2.62149 0.157089 0.794775 -2.67108 0.158785 0.807845 
-2.72071 0.160398 0.820865 -2.77034 0.161923 0.83382 -2.81994 0.163357 0.846698 
-2.86947 0.164696 0.859486 -2.91889 0.165936 0.872169 -2.96818 0.167073 0.884739 
-3.01736 0.168107 0.897198 -3.06641 0.169036 0.90955 -3.11536 0.169861 0.9218 
-3.16421 0.170582 0.933952 -3.21297 0.171197 0.946011 -3.26165 0.171706 0.957981 
-3.31027 0.172109 0.969866 -3.35882 0.172405 0.981671 -3.40732 0.172594 0.9934 
-3.45577 0.172675 1.00506 -3.50419 0.172648 1.01665 -3.55259 0.172512 1.02818 
-3.60097 0.172267 1.03964 -3.64934 0.171913 1.05106 -3.69772 0.171449 1.06243 
-3.74611 0.170874 1.07375 -3.79451 0.170188 1.08503 -3.84295 0.16939 1.09627 
-3.89143 0.168481 1.10748 -3.93995 0.167459 1.11866 -3.98851 0.166324 1.12982 
-4.03713 0.165075 1.14095 -4.08578 0.16371 1.15204 -4.13446 0.162229 1.1631 
-4.18319 0.160632 1.17413 -4.23194 0.158916 1.18513 -4.28072 0.157081 1.19609 
-4.32953 0.155127 1.20702 -4.37836 0.153051 1.2179 -4.42721 0.150854 1.22875 
-4.47608 0.148534 1.23956 -4.52496 0.146091 1.25032 -4.57386 0.143523 1.26105 
-4.62276 0.140829 1.27173 -4.67167 0.138009 1.28237 -4.72058 0.135062 1.29296 
-4.76949 0.131986 1.3035 -4.8184 0.128781 1.31399 -4.8673 0.125446 1.32444 
-4.91619 0.12198 1.33483 -4.96508 0.118381 1.34518 -5.01395 0.11465 1.35547 
-5.06281 0.110785 1.36571 -5.11167 0.106785 1.37591 -5.16051 0.10265 1.38605 
-5.20935 0.0983784 1.39615 -5.25818 0.0939696 1.40619 -5.307 0.0894227 1.41619 
-5.35581 0.0847369 1.42614 -5.40461 0.0799111 1.43605 -5.4534 0.0749447 1.44591 
-5.50218 0.0698367 1.45572 -5.55096 0.0645863 1.46548 -5.59972 0.0591925 1.4752 
-5.64848 0.0536546 1.48488 -5.69724 0.0479716 1.49451 -5.74598 0.0421427 1.5041 
-5.79471 0.0361671 1.51364 -5.84344 0.0300438 1.52314 -5.89216 0.023772 1.53259 
-5.94088 0.0173503 1.54201 -5.98958 0.0107769 1.55138 -6.03827 0.0040497 1.56071 
-6.08696 -0.00283329 1.57 -6.13563 -0.00987409 1.57926 -6.18428 -0.0170747 1.58847 
-6.23292 -0.0244372 1.59765 -6.28154 -0.0319635 1.60679 -6.33015 -0.0396556 1.61589 
-6.37874 -0.0475157 1.62496 -6.4273 -0.0555456 1.634 -6.47585 -0.0637474 1.643 
-6.52437 -0.0721231 1.65197 -6.57286 -0.0806748 1.6609 -6.62134 -0.0894044 1.66981 
-6.66978 -0.0983139 1.67868 -6.7182 -0.107405 1.68753 -6.76659 -0.116681 1.69634 
-6.81494 -0.126142 1.70513 -6.86327 -0.135792 1.71389 -6.91156 -0.145631 1.72263 
-6.95982 -0.155664 1.73134 -7.00804 -0.165893 1.74003 -7.05622 -0.176322 1.74869 
-7.10436 -0.186953 1.75734 -7.15246 -0.197789 1.76597 -7.20051 -0.208834 1.77458 
-7.24851 -0.220091 1.78318 -7.29647 -0.231563 1.79176 -7.34437 -0.243252 1.80034 
-7.39222 -0.255163 1.8089 -7.44002 -0.267298 1.81745 -7.48776 -0.27966 1.826 
-7.53544 -0.292252 1.83454 -7.58306 -0.305078 1.84308 -7.63061 -0.31814 1.85162 
-7.6781 -0.331442 1.86015 -7.72553 -0.344986 1.86869 -7.77288 -0.358777 1.87723 
-7.82016 -0.372816 1.88578 -7.86737 -0.387107 1.89433 -7.9145 -0.401653 1.90289 
-7.96156 -0.416458 1.91146 -8.00852 -0.431525 1.92005 -8.0554 -0.446856 1.92865 
-8.10219 -0.462455 1.93727 -8.14888 -0.478326 1.94592 -8.19548 -0.494471 1.95459 
-8.24197 -0.510894 1.96329 -8.28835 -0.527598 1.97202 -8.33463 -0.544587 1.98078 
-8.38078 -0.561863 1.98958 -8.42683 -0.579429 1.99842 -8.47274 -0.59729 2.0073 
-8.51854 -0.615447 2.01623 -8.5642 -0.633905 2.0252 -8.60973 -0.652667 2.03422 
-8.65513 -0.671735 2.0433 -8.70038 -0.691113 2.05243 -8.74549 -0.710805 2.06162 
-8.79045 -0.730813 2.07087 -8.83526 -0.751139 2.08018 -8.87991 -0.771783 2.08956 
-8.92441 -0.792742 2.09901 -8.96874 -0.814018 2.10852 -9.01291 -0.83561 2.11811 
-9.0569 -0.857516 2.12777 -9.10072 -0.879737 2.1375 -9.14436 -0.902271 2.14731 
-9.18783 -0.925118 2.1572 -9.2311 -0.948278 2.16717 -9.27419 -0.97175 2.17722 
-9.31709 -0.995533 2.18735 -9.35979 -1.01963 2.19757 -9.40229 -1.04403 2.20788 
-9.44459 -1.06874 2.21827 -9.48668 -1.09377 2.22876 -9.52856 -1.1191 2.23934 
-9.57022 -1.14474 2.25002 -9.61167 -1.17068 2.26079 -9.6529 -1.19693 2.27166 
-9.6939 -1.22349 2.28263 -9.73468 -1.25035 2.2937 -9.77524 -1.2775 2.30486 
-9.81557 -1.30494 2.31612 -9.85568 -1.33267 2.32747 -9.89557 -1.36069 2.33891 
-9.93525 -1.38897 2.35045 -9.9747 -1.41753 2.36206 -10.0139 -1.44636 2.37377 
-10.053 -1.47545 2.38556 -10.0918 -1.5048 2.39743 -10.1303 -1.5344 2.40939 
-10.1687 -1.56426 2.42142 -10.2069 -1.59435 2.43353 -10.2448 -1.62468 2.44572 
-10.2825 -1.65525 2.45798 -10.3201 -1.68605 2.47031 -10.3574 -1.71708 2.48272 
-10.3945 -1.74832 2.49519 -10.4313 -1.77978 2.50773 -10.468 -1.81145 2.52034 
-10.5045 -1.84333 2.533 -10.5408 -1.87541 2.54572 -10.5768 -1.90769 2.55849 
-10.6127 -1.94016 2.57129 -10.6484 -1.97282 2.58413 -10.6839 -2.00566 2.597 
-10.7193 -2.03868 2.60988 -10.7544 -2.07188 2.62279 -10.7895 -2.10525 2.6357 
-10.8243 -2.13879 2.64861 -10.859 -2.17248 2.66151 -10.8935 -2.20634 2.67441 
-10.9279 -2.24035 2.68728 -10.9622 -2.2745 2.70014 -10.9963 -2.3088 2.71296 
-11.0303 -2.34324 2.72574 -11.0641 -2.37781 2.73848 -11.0978 -2.41252 2.75117 
-11.1315 -2.44735 2.76381 -11.165 -2.4823 2.77638 -11.1983 -2.51737 2.78887 
-11.2316 -2.55256 2.80129 -11.2648 -2.58786 2.8136 -11.298 -2.62328 2.82581 
-11.331 -2.65881 2.83789 -11.364 -2.69444 2.84985 -11.3969 -2.73019 2.86166 
-11.4297 -2.76605 2.87331 -11.4625 -2.802 2.8848 -11.4953 -2.83806 2.89611 
-11.528 -2.87423 2.90723 -11.5607 -2.91049 2.91814 -11.5934 -2.94685 2.92884 
-11.6261 -2.98331 2.93931 -11.6588 -3.01986 2.94955 -11.6914 -3.0565 2.95953 
-11.7241 -3.09324 2.96925 -11.7568 -3.13006 2.9787 -11.7896 -3.16697 2.98787 
-11.8223 -3.20397 2.99674 -11.8551 -3.24104 3.00528 -11.888 -3.27819 3.01348 
-11.9209 -3.3154 3.02128 -11.9538 -3.35265 3.02865 -11.9868 -3.38995 3.03556 
-12.0199 -3.42727 3.04198 -12.053 -3.46461 3.04785 -12.0861 -3.50195 3.05316 
-12.1193 -3.5393 3.05786 -12.1526 -3.57663 3.06192 -12.186 -3.61394 3.06529 
-12.2194 -3.65121 3.06795 -12.2529 -3.68844 3.06986 -12.2865 -3.72561 3.07098 
-12.3202 -3.76271 3.07128 -12.3539 -3.79974 3.07072 -12.3877 -3.83669 3.06926 
-12.4217 -3.87353 3.06687 -12.4557 -3.91027 3.06351 -12.4898 -3.94689 3.05915 
-12.524 -3.98338 3.05376 -12.5583 -4.01972 3.04733 -12.5926 -4.05589 3.03988 
-12.627 -4.09186 3.03139 -12.6614 -4.12761 3.02188 -12.6957 -4.16313 3.01135 
-12.73 -4.19839 2.9998 -12.7643 -4.23337 2.98723 -12.7985 -4.26804 2.97364 
-12.8326 -4.30239 2.95903 -12.8666 -4.3364 2.94342 -12.9004 -4.37004 2.9268 
-12.934 -4.40329 2.90917 -12.9675 -4.43614 2.89053 -13.0007 -4.46855 2.8709 
-13.0338 -4.50051 2.85026 -13.0665 -4.53199 2.82863 -13.099 -4.56298 2.806 
-13.1312 -4.59345 2.78238 -13.1631 -4.62338 2.75776 -13.1946 -4.65276 2.73217 
-13.2258 -4.68158 2.70562 -13.2567 -4.70988 2.67815 -13.2872 -4.73767 2.64979 
-13.3174 -4.76495 2.62059 -13.3473 -4.79175 2.59059 -13.3768 -4.81809 2.5598 
-13.406 -4.84398 2.52828 -13.4349 -4.86943 2.49605 -13.4635 -4.89447 2.46316 
-13.4917 -4.91911 2.42964 -13.5196 -4.94336 2.39553 -13.5473 -4.96725 2.36086 
-13.5746 -4.99078 2.32567 -13.6016 -5.01398 2.28999 -13.6283 -5.03686 2.25386 
-13.6547 -5.05944 2.21732 -13.6808 -5.08174 2.1804 -13.7066 -5.10376 2.14314 
-13.7322 -5.12554 2.10558 -13.7574 -5.14707 2.06774 -13.7823 -5.16838 2.02966 
-13.807 -5.18947 1.99133 -13.8314 -5.21036 1.95276 -13.8555 -5.23106 1.91397 
-13.8794 -5.25156 1.87495 -13.903 -5.27189 1.83571 -13.9263 -5.29205 1.79626 
-13.9494 -5.31205 1.75662 -13.9723 -5.3319 1.71677 -13.9949 -5.35161 1.67674 
-14.0173 -5.37119 1.63652 -14.0394 -5.39066 1.59613 -14.0613 -5.41 1.55557 
-14.083 -5.42925 1.51485 -14.1045 -5.4484 1.47398 -14.1258 -5.46748 1.43295 
-14.1469 -5.48647 1.39179 -14.1678 -5.5054 1.35049 -14.1884 -5.52428 1.30907 
-14.2089 -5.54311 1.26753 -14.2293 -5.56191 1.22587 -14.2494 -5.58067 1.1841 
-14.2693 -5.5994 1.14222 -14.2891 -5.61811 1.10024 -14.3087 -5.63679 1.05816 
-14.3281 -5.65547 1.01598 -14.3473 -5.67413 0.973708 -14.3663 -5.69278 0.931346 
-14.3852 -5.71143 0.888896 -14.4038 -5.73009 0.846364 -14.4223 -5.74875 0.803751 
-14.4406 -5.76742 0.761062 -14.4587 -5.78611 0.7183 -14.4766 -5.80482 0.675469 
-14.4944 -5.82356 0.632571 -14.512 -5.84232 0.58961 -14.5293 -5.86112 0.546591 
-14.5466 -5.87996 0.503515 -14.5636 -5.89884 0.460387 -14.5804 -5.91776 0.41721 
-14.5971 -5.93674 0.373987 -14.6136 -5.95578 0.330719 -14.6299 -5.97487 0.287408 
-14.646 -5.99402 0.244054 -14.6619 -6.01323 0.200658 -14.6776 -6.0325 0.157222 
[...]
CELL_DATA 1
FIELD FieldData 2
Length 1 1 double
63.899175006 
Tortuosity 1 1 double
1.3599521329 
POINT_DATA 1278
SCALARS MaximumInscribedSphereRadius float
LOOKUP_TABLE default
0.93 0.938751 0.947503 0.956254 0.965005 0.973756 0.982508 0.991259 1.00001 
1.00876 1.01751 1.02626 1.03502 1.04377 1.05252 1.06127 1.07002 1.07877 
1.08752 1.09627 1.10503 1.11333 1.11987 1.12642 1.13296 1.13951 1.14605 
1.1526 1.15915 1.16569 1.17224 1.17878 1.18533 1.19187 1.19842 1.20497 
1.21151 1.21806 1.2246 1.23115 1.23769 1.24 1.24 1.24 1.24 
1.24 1.24 1.24 1.24 1.24 1.24 1.24 1.24 1.24 
1.24 1.24 1.24 1.24 1.24 1.24 1.24 1.24 1.24 
1.24 1.24 1.24 1.24 1.24 1.24 1.24 1.24 1.24 
1.24 1.24 1.24 1.24 1.24 1.24 1.24 1.24 1.24 
1.24 1.24 1.24 1.24 1.24 1.24 1.24 1.24 1.24 
1.24 1.24 1.24 1.24 1.24 1.24 1.24 1.24 1.24 
1.24 1.24 1.24 1.24 1.24 1.24 1.24 1.24 1.24 
1.24 1.24 1.24 1.24 1.24 1.24 1.24 1.24 1.24 
1.24 1.24 1.24 1.24 1.24 1.24 1.24 1.24 1.24 
1.24 1.24 1.24 1.24 1.24 1.24 1.24 1.24 1.24 
1.24 1.24 1.24 1.24 1.24 1.24 1.24 1.24005 1.24106 
1.24206 1.24307 1.24407 1.24507 1.24608 1.24708 1.24808 1.24909 1.25009 
1.25109 1.2521 1.2531 1.2541 1.25511 1.25611 1.25712 1.25812 1.25912 
1.26013 1.26161 1.26324 1.26486 1.26649 1.26811 1.26974 1.27136 1.27299 
1.27461 1.27624 1.27786 1.27949 1.28111 1.28274 1.28436 1.28599 1.28762 
1.28924 1.29087 1.29249 1.29485 1.29793 1.30101 1.30409 1.30717 1.31026 
1.31334 1.31642 1.3195 1.32258 1.32567 1.32875 1.33183 1.33491 1.33799 
1.34108 1.34416 1.34724 1.35032 1.3534 1.35585 1.35613 1.35642 1.35671 
1.357 1.35729 1.35757 1.35786 1.35815 1.35844 1.35873 1.35901 1.3593 
1.35959 1.35988 1.36017 1.36045 1.36074 1.36103 1.36132 1.36161 1.36172 
1.36183 1.36194 1.36205 1.36215 1.36226 1.36237 1.36248 1.36258 1.36269 
1.3628 1.36291 1.36301 1.36312 1.36323 1.36334 1.36344 1.36355 1.36366 
1.36377 1.36995 1.37905 1.38814 1.39723 1.40633 1.41542 1.42451 1.43361 
1.4427 1.45179 1.46089 1.46998 1.47908 1.48817 1.49726 1.50636 1.51545 
1.52454 1.53364 1.54273 1.5441 1.53407 1.52404 1.51401 1.50398 1.49394 
1.48391 1.47388 1.46385 1.45382 1.44379 1.43376 1.42373 1.4137 1.40367 
1.39364 1.38361 1.37358 1.36355 1.35352 1.34229 1.3234 1.30452 1.28563 
1.26674 1.24785 1.22896 1.21007 1.19118 1.1723 1.15341 1.13452 1.11563 
1.09674 1.07785 1.05896 1.04008 1.02119 1.0023 0.98341 0.964521 0.977368 
0.993294 1.00922 1.02514 1.04107 1.05699 1.07292 1.08885 1.10477 1.1207 
1.13662 1.15255 1.16847 1.1844 1.20032 1.21625 1.23217 1.2481 1.26402 
1.27995 1.2952 1.31007 1.32493 1.3398 1.35466 1.36952 1.38439 1.39925 
1.41412 1.42898 1.44384 1.45871 1.47357 1.48844 1.5033 1.51816 1.53303 
1.54789 1.56276 1.57762 1.59101 1.60182 1.61263 1.62344 1.63425 1.64506 
1.65587 1.66667 1.67748 1.68829 1.6991 1.70991 1.72072 1.73153 1.74234 
1.75315 1.76396 1.77477 1.78558 1.79639 1.80673 1.81199 1.81725 1.82251 
1.82777 1.83303 1.83829 1.84355 1.84881 1.85407 1.85934 1.8646 1.86986 
1.87512 1.88038 1.88564 1.8909 1.89616 1.90142 1.90668 1.91194 1.90995 
1.90625 1.90254 1.89884 1.89513 1.89143 1.88772 1.88402 1.88031 1.8766 
1.8729 1.86919 1.86549 1.86178 1.85808 1.85437 1.85067 1.84696 1.84326 
1.83955 1.83179 1.8205 1.8092 1.7979 1.7866 1.7753 1.764 1.7527 
1.7414 1.7301 1.7188 1.7075 1.6962 1.6849 1.6736 1.6623 1.651 
1.6397 1.6284 1.6171 1.60819 1.606 1.60382 1.60163 1.59945 1.59726 
1.59507 1.59289 1.5907 1.58852 1.58633 1.58415 1.58196 1.57978 1.57759 
1.57541 1.57322 1.57104 1.56885 1.56666 1.56448 1.56324 1.562 1.56076 
1.55952 1.55828 1.55704 1.5558 1.55456 1.55332 1.55209 1.55085 1.54961 
1.54837 1.54713 1.54589 1.54465 1.54341 1.54217 1.54093 1.5397 1.53312 
1.52455 1.51598 1.50742 1.49885 1.49029 1.48172 1.47315 1.46459 1.45602 
1.44746 1.43889 1.43032 1.42176 1.41319 1.40463 1.39606 1.38749 1.37893 
1.37036 1.3639 1.35995 1.356 1.35205 1.3481 1.34415 1.3402 1.33625 
1.3323 1.32835 1.3244 1.32045 1.3165 1.31255 1.3086 1.30465 1.3007 
1.29675 1.2928 1.28885 1.2862 1.28944 1.29269 1.29594 1.29918 1.30243 
1.30568 1.30892 1.31217 1.31542 1.31866 1.32191 1.32516 1.3284 1.33165 
1.3349 1.33814 1.34139 1.34464 1.34788 1.35113 1.35026 1.34897 1.34768 
1.3464 1.34511 1.34382 1.34253 1.34124 1.33996 1.33867 1.33738 1.33609 
1.3348 1.33352 1.33223 1.33094 1.32965 1.32836 1.32708 1.32579 1.32282 
1.31898 1.31514 1.3113 1.30746 1.30363 1.29979 1.29595 1.29211 1.28827 
1.28443 1.28059 1.27676 1.27292 1.26908 1.26524 1.2614 1.25756 1.25372 
1.24989 1.24976 1.25405 1.25834 1.26263 1.26692 1.2712 1.27549 1.27978 
1.28407 1.28836 1.29265 1.29694 1.30123 1.30552 1.30981 1.3141 1.31839 
1.32268 1.32696 1.33125 1.33934 1.3591 1.37886 1.39861 1.41837 1.43813 
1.45788 1.47764 1.4974 1.51715 1.53691 1.55667 1.57642 1.59618 1.61594 
1.63569 1.65545 1.67521 1.69496 1.71472 1.73448 1.73958 1.74467 1.74976 
1.75485 1.75994 1.76503 1.77012 1.77521 1.7803 1.78539 1.79048 1.79557 
1.80066 1.80575 1.81084 1.81593 1.82102 1.82611 1.8312 1.83629 1.83081 
1.82129 1.81176 1.80224 1.79272 1.78319 1.77367 1.76414 1.75462 1.74509 
1.73557 1.72604 1.71652 1.707 1.69747 1.68795 1.67842 1.6689 1.65937 
1.64985 1.64833 1.65677 1.6652 1.67364 1.68207 1.69051 1.69894 1.70738 
1.71581 1.72425 1.73268 1.74112 1.74955 1.75799 1.76642 1.77486 1.78329 
1.79173 1.80017 1.8086 1.81801 1.83227 1.84654 1.86081 1.87507 1.88934 
1.9036 1.91787 1.93213 1.9464 1.96067 1.97493 1.9892 2.00346 2.01773 
2.032 2.04626 2.06053 2.07479 2.08906 2.10333 2.09794 2.09014 2.08235 
2.07456 2.06677 2.05898 2.05118 2.04339 2.0356 2.02781 2.02001 2.01222 
2.00443 1.99664 1.98885 1.98105 1.97326 1.96547 1.95768 1.94988 1.94002 
1.92891 1.91779 1.90667 1.89555 1.88444 1.87332 1.8622 1.85108 1.83996 
1.82885 1.81773 1.80661 1.79549 1.78438 1.77326 1.76214 1.75102 1.73991 
1.72879 1.71916 1.71202 1.70488 1.69773 1.69059 1.68344 1.6763 1.66915 
1.66201 1.65486 1.64772 1.64057 1.63343 1.62628 1.61914 1.612 1.60485 
1.59771 1.59056 1.58342 1.57735 1.58019 1.58304 1.58589 1.58874 1.59158 
1.59443 1.59728 1.60013 1.60297 1.60582 1.60867 1.61152 1.61436 1.61721 
1.62006 1.62291 1.62575 1.6286 1.63145 1.6343 1.63488 1.63503 1.63517 
1.63532 1.63547 1.63561 1.63576 1.6359 1.63605 1.6362 1.63634 1.63649 
1.63663 1.63678 1.63693 1.63707 1.63722 1.63736 1.63751 1.63766 1.63652 
1.63438 1.63225 1.63012 1.62798 1.62585 1.62372 1.62159 1.61945 1.61732 
1.61519 1.61305 1.61092 1.60879 1.60666 1.60452 1.60239 1.60026 1.59813 
1.59599 1.59488 1.59623 1.59759 1.59895 1.60031 1.60167 1.60303 1.60439 
1.60575 1.60711 1.60847 1.60983 1.61118 1.61254 1.6139 1.61526 1.61662 
1.61798 1.61934 1.6207 1.62208 1.62459 1.6271 1.62961 1.63213 1.63464 
1.63715 1.63966 1.64217 1.64468 1.64719 1.6497 1.65222 1.65473 1.65724 
1.65975 1.66226 1.66477 1.66728 1.66979 1.6723 1.67685 1.68208 1.68732 
1.69255 1.69779 1.70302 1.70826 1.71349 1.71873 1.72396 1.7292 1.73443 
1.73967 1.7449 1.75013 1.75537 1.7606 1.76584 1.77107 1.77631 1.781 
1.78508 1.78916 1.79324 1.79732 1.8014 1.80548 1.80956 1.81363 1.81771 
1.82179 1.82587 1.82995 1.83403 1.83811 1.84219 1.84627 1.85035 1.85443 
1.85851 1.86193 1.86268 1.86344 1.86419 1.86494 1.8657 1.86645 1.86721 
1.86796 1.86871 1.86947 1.87022 1.87097 1.87173 1.87248 1.87323 1.87399 
1.87474 1.8755 1.87625 1.877 1.87479 1.87234 1.86988 1.86743 1.86497 
1.86252 1.86007 1.85761 1.85516 1.8527 1.85025 1.8478 1.84534 1.84289 
1.84043 1.83798 1.83552 1.83307 1.83062 1.82816 1.82352 1.81771 1.81189 
1.80607 1.80025 1.79444 1.78862 1.7828 1.77698 1.77116 1.76535 1.75953 
1.75371 1.74789 1.74207 1.73626 1.73044 1.72462 1.7188 1.71298 1.7086 
1.70663 1.70466 1.70269 1.70073 1.69876 1.69679 1.69482 1.69285 1.69088 
1.68892 1.68695 1.68498 1.68301 1.68104 1.67907 1.67711 1.67514 1.67317 
1.6712 1.66941 1.66936 1.6693 1.66924 1.66919 1.66913 1.66907 1.66902 
1.66896 1.6689 1.66885 1.66879 1.66873 1.66868 1.66862 1.66856 1.66851 
1.66845 1.66839 1.66834 1.66828 1.67211 1.67681 1.68151 1.68621 1.69091 
1.69561 1.70031 1.70501 1.70971 1.71441 1.71911 1.72382 1.72852 1.73322 
1.73792 1.74262 1.74732 1.75202 1.75672 1.76142 1.76782 1.77567 1.78353 
1.79138 1.79923 1.80709 1.81494 1.82279 1.83065 1.8385 1.84636 1.85421 
1.86206 1.86992 1.87777 1.88562 1.89348 1.90133 1.90919 1.91704 1.92701 
1.94301 1.95902 1.97502 1.99102 2.00702 2.02303 2.03903 2.05503 2.07103 
2.08704 2.10304 2.11904 2.13504 2.15105 2.16705 2.18305 2.19905 2.21505 
2.23106 2.24706 2.25061 2.25394 2.25726 2.26059 2.26391 2.26724 2.27056 
2.27388 2.27721 2.28053 2.28386 2.28718 2.2905 2.29383 2.29715 2.30048 
2.3038 2.30713 2.31045 2.31377 2.30451 2.28994 2.27536 2.26079 2.24622 
2.23164 2.21707 2.2025 2.18792 2.17335 2.15878 2.14421 2.12963 2.11506 
2.10049 2.08591 2.07134 2.05677 2.04219 2.02762 2.01629 2.00935 2.0024 
1.99545 1.98851 1.98156 1.97461 1.96766 1.96072 1.95377 1.94682 1.93988 
1.93293 1.92598 1.91903 1.91209 1.90514 1.89819 1.89125 1.8843 1.8784 
1.87853 1.87866 1.87879 1.87892 1.87905 1.87917 1.8793 1.87943 1.87956 
1.87969 1.87982 1.87995 1.88008 1.88021 1.88034 1.88047 1.8806 1.88072 
1.88085 1.88098 1.88074 1.88043 1.88013 1.87983 1.87953 1.87923 1.87892 
1.87862 1.87832 1.87802 1.87771 1.87741 1.87711 1.87681 1.8765 1.8762 
1.8759 1.8756 1.8753 1.87499 1.87459 1.87413 1.87366 1.8732 1.87273 
1.87227 1.8718 1.87133 1.87087 1.8704 1.86994 1.86947 1.86901 1.86854 
1.86808 1.86761 1.86714 1.86668 1.86621 1.86575 1.86556 1.86598 1.86639 
1.86681 1.86722 1.86764 1.86806 1.86847 1.86889 1.8693 1.86972 1.87013 
1.87055 1.87097 1.87138 1.8718 1.87221 1.87263 1.87304 1.87346 1.87422 
1.88377 1.89332 1.90287 1.91242 1.92197 1.93152 1.94107 1.95062 1.96017 
1.96972 1.97927 1.98881 1.99836 2.00791 2.01746 2.02701 2.03656 2.04611 
2.05566 2.06521 2.08404 2.1053 2.12656 2.14782 2.16908 2.19034 2.2116 
2.23286 2.25412 2.27537 2.29663 2.31789 2.33915 2.36041 2.38167 2.40293 
2.42419 2.44545 2.46671 2.48797 2.49965 2.49505 2.49045 2.48585 2.48126 
2.47666 2.47206 2.46746 2.46286 2.45827 2.45367 2.44907 2.44447 2.43987 
2.43528 2.43068 2.42608 2.42148 2.41689 2.41229 2.40219 2.39058 2.37897 
2.36736 2.35575 2.34414 2.33253 2.32092 2.30931 2.2977 2.28609 2.27448 
2.26287 2.25127 2.23966 2.22805 2.21644 2.20483 2.19322 2.18161 2.17 

TEXTURE_COORDINATES TCoords 2 float
0 0 0.000783085 0 0.00156617 0 0.00234926 0 0.00313234 
0 0.00391543 0 0.00469851 0 0.0054816 0 0.00626468 0 
0.00704777 0 0.00783085 0 0.00861394 0 0.00939702 0 0.0101801 
0 0.0109632 0 0.0117463 0 0.0125294 0 0.0133125 0 
0.0140955 0 0.0148786 0 0.0156617 0 0.0164448 0 0.0172279 
0 0.018011 0 0.018794 0 0.0195771 0 0.0203602 0 
0.0211433 0 0.0219264 0 0.0227095 0 0.0234926 0 0.0242756 
0 0.0250587 0 0.0258418 0 0.0266249 0 0.027408 0 
0.0281911 0 0.0289742 0 0.0297572 0 0.0305403 0 0.0313234 
0 0.0321065 0 0.0328896 0 0.0336727 0 0.0344558 0 
0.0352388 0 0.0360219 0 0.036805 0 0.0375881 0 0.0383712 
0 0.0391543 0 0.0399374 0 0.0407204 0 0.0415035 0 
0.0422866 0 0.0430697 0 0.0438528 0 0.0446359 0 0.045419 
0 0.046202 0 0.0469851 0 0.0477682 0 0.0485513 0 
0.0493344 0 0.0501175 0 0.0509005 0 0.0516836 0 0.0524667 
0 0.0532498 0 0.0540329 0 0.054816 0 0.0555991 0 
0.0563821 0 0.0571652 0 0.0579483 0 0.0587314 0 0.0595145 
0 0.0602976 0 0.0610807 0 0.0618637 0 0.0626468 0 
0.0634299 0 0.064213 0 0.0649961 0 0.0657792 0 0.0665623 
0 0.0673453 0 0.0681284 0 0.0689115 0 0.0696946 0 
0.0704777 0 0.0712608 0 0.0720439 0 0.0728269 0 0.07361 
0 0.0743931 0 0.0751762 0 0.0759593 0 0.0767424 0 
0.0775255 0 0.0783085 0 0.0790916 0 0.0798747 0 0.0806578 
0 0.0814409 0 0.082224 0 0.083007 0 0.0837901 0 
0.0845732 0 0.0853563 0 0.0861394 0 0.0869225 0 0.0877056 
0 0.0884886 0 0.0892717 0 0.0900548 0 0.0908379 0 
0.091621 0 0.0924041 0 0.0931872 0 0.0939702 0 0.0947533 
0 0.0955364 0 0.0963195 0 0.0971026 0 0.0978857 0 
0.0986688 0 0.0994518 0 0.100235 0 0.101018 0 0.101801 
0 0.102584 0 0.103367 0 0.10415 0 0.104933 0 
0.105717 0 0.1065 0 0.107283 0 0.108066 0 0.108849 
0 0.109632 0 0.110415 0 0.111198 0 0.111981 0 
0.112764 0 0.113547 0 0.11433 0 0.115114 0 0.115897 
0 0.11668 0 0.117463 0 0.118246 0 0.119029 0 
0.119812 0 0.120595 0 0.121378 0 0.122161 0 0.122944 
0 0.123727 0 0.124511 0 0.125294 0 0.126077 0 
0.12686 0 0.127643 0 0.128426 0 0.129209 0 0.129992 
0 0.130775 0 0.131558 0 0.132341 0 0.133125 0 
0.133908 0 0.134691 0 0.135474 0 0.136257 0 0.13704 
0 0.137823 0 0.138606 0 0.139389 0 0.140172 0 
0.140955 0 0.141738 0 0.142522 0 0.143305 0 0.144088 
0 0.144871 0 0.145654 0 0.146437 0 0.14722 0 
0.148003 0 0.148786 0 0.149569 0 0.150352 0 0.151135 
0 0.151919 0 0.152702 0 0.153485 0 0.154268 0 
0.155051 0 0.155834 0 0.156617 0 0.1574 0 0.158183 
0 0.158966 0 0.159749 0 0.160533 0 0.161316 0 
0.162099 0 0.162882 0 0.163665 0 0.164448 0 0.165231 
0 0.166014 0 0.166797 0 0.16758 0 0.168363 0 
0.169146 0 0.16993 0 0.170713 0 0.171496 0 0.172279 
0 0.173062 0 0.173845 0 0.174628 0 0.175411 0 
0.176194 0 0.176977 0 0.17776 0 0.178543 0 0.179327 
0 0.18011 0 0.180893 0 0.181676 0 0.182459 0 
0.183242 0 0.184025 0 0.184808 0 0.185591 0 0.186374 
0 0.187157 0 0.18794 0 0.188724 0 0.189507 0 
0.19029 0 0.191073 0 0.191856 0 0.192639 0 0.193422 
0 0.194205 0 0.194988 0 0.195771 0 0.196554 0 
0.197338 0 0.198121 0 0.198904 0 0.199687 0 0.20047 
0 0.201253 0 0.202036 0 0.202819 0 0.203602 0 
0.204385 0 0.205168 0 0.205951 0 0.206735 0 0.207518 
0 0.208301 0 0.209084 0 0.209867 0 0.21065 0 
0.211433 0 0.212216 0 0.212999 0 0.213782 0 0.214565 
0 0.215348 0 0.216132 0 0.216915 0 0.217698 0 
0.218481 0 0.219264 0 0.220047 0 0.22083 0 0.221613 
0 0.222396 0 0.223179 0 0.223962 0 0.224745 0 
0.225529 0 0.226312 0 0.227095 0 0.227878 0 0.228661 
0 0.229444 0 0.230227 0 0.23101 0 0.231793 0 
0.232576 0 0.233359 0 0.234143 0 0.234926 0 0.235709 
0 0.236492 0 0.237275 0 0.238058 0 0.238841 0 
0.239624 0 0.240407 0 0.24119 0 0.241973 0 0.242756 
0 0.24354 0 0.244323 0 0.245106 0 0.245889 0 
0.246672 0 0.247455 0 0.248238 0 0.249021 0 0.249804 
0 0.250587 0 0.25137 0 0.252153 0 0.252937 0 
0.25372 0 0.254503 0 0.255286 0 0.256069 0 0.256852 
0 0.257635 0 0.258418 0 0.259201 0 0.259984 0 
0.260767 0 0.261551 0 0.262334 0 0.263117 0 0.2639 
0 0.264683 0 0.265466 0 0.266249 0 0.267032 0 
0.267815 0 0.268598 0 0.269381 0 0.270164 0 0.270948 
0 0.271731 0 0.272514 0 0.273297 0 0.27408 0 
0.274863 0 0.275646 0 0.276429 0 0.277212 0 0.277995 
0 0.278778 0 0.279561 0 0.280345 0 0.281128 0 
0.281911 0 0.282694 0 0.283477 0 0.28426 0 0.285043 
0 0.285826 0 0.286609 0 0.287392 0 0.288175 0 
0.288958 0 0.289742 0 0.290525 0 0.291308 0 0.292091 
0 0.292874 0 0.293657 0 0.29444 0 0.295223 0 
0.296006 0 0.296789 0 0.297572 0 0.298356 0 0.299139 
0 0.299922 0 0.300705 0 0.301488 0 0.302271 0 
0.303054 0 0.303837 0 0.30462 0 0.305403 0 0.306186 
0 0.306969 0 0.307753 0 0.308536 0 0.309319 0 
0.310102 0 0.310885 0 0.311668 0 0.312451 0 0.313234 
0 0.314017 0 0.3148 0 0.315583 0 0.316366 0 
0.31715 0 0.317933 0 0.318716 0 0.319499 0 0.320282 
0 0.321065 0 0.321848 0 0.322631 0 0.323414 0 
0.324197 0 0.32498 0 0.325763 0 0.326547 0 0.32733 
0 0.328113 0 0.328896 0 0.329679 0 0.330462 0 
0.331245 0 0.332028 0 0.332811 0 0.333594 0 0.334377 
0 0.335161 0 0.335944 0 0.336727 0 0.33751 0 
0.338293 0 0.339076 0 0.339859 0 0.340642 0 0.341425 
0 0.342208 0 0.342991 0 0.343774 0 0.344558 0 
0.345341 0 0.346124 0 0.346907 0 0.34769 0 0.348473 
0 0.349256 0 0.350039 0 0.350822 0 0.351605 0 
0.352388 0 0.353171 0 0.353955 0 0.354738 0 0.355521 
0 0.356304 0 0.357087 0 0.35787 0 0.358653 0 
0.359436 0 0.360219 0 0.361002 0 0.361785 0 0.362569 
0 0.363352 0 0.364135 0 0.364918 0 0.365701 0 
0.366484 0 0.367267 0 0.36805 0 0.368833 0 0.369616 
0 0.370399 0 0.371182 0 0.371966 0 0.372749 0 
0.373532 0 0.374315 0 0.375098 0 0.375881 0 0.376664 
0 0.377447 0 0.37823 0 0.379013 0 0.379796 0 
0.380579 0 0.381363 0 0.382146 0 0.382929 0 0.383712 
0 0.384495 0 0.385278 0 0.386061 0 0.386844 0 
0.387627 0 0.38841 0 0.389193 0 0.389977 0 0.39076 
0 0.391543 0 0.392326 0 0.393109 0 0.393892 0 
0.394675 0 0.395458 0 0.396241 0 0.397024 0 0.397807 
0 0.39859 0 0.399374 0 0.400157 0 0.40094 0 
0.401723 0 0.402506 0 0.403289 0 0.404072 0 0.404855 
0 0.405638 0 0.406421 0 0.407204 0 0.407987 0 
0.408771 0 0.409554 0 0.410337 0 0.41112 0 0.411903 
0 0.412686 0 0.413469 0 0.414252 0 0.415035 0 
0.415818 0 0.416601 0 0.417385 0 0.418168 0 0.418951 
0 0.419734 0 0.420517 0 0.4213 0 0.422083 0 
0.422866 0 0.423649 0 0.424432 0 0.425215 0 0.425998 
0 0.426782 0 0.427565 0 0.428348 0 0.429131 0 
0.429914 0 0.430697 0 0.43148 0 0.432263 0 0.433046 
0 0.433829 0 0.434612 0 0.435395 0 0.436179 0 
0.436962 0 0.437745 0 0.438528 0 0.439311 0 0.440094 
0 0.440877 0 0.44166 0 0.442443 0 0.443226 0 
0.444009 0 0.444792 0 0.445576 0 0.446359 0 0.447142 
0 0.447925 0 0.448708 0 0.449491 0 0.450274 0 
0.451057 0 0.45184 0 0.452623 0 0.453406 0 0.45419 
0 0.454973 0 0.455756 0 0.456539 0 0.457322 0 
0.458105 0 0.458888 0 0.459671 0 0.460454 0 0.461237 
0 0.46202 0 0.462803 0 0.463587 0 0.46437 0 
0.465153 0 0.465936 0 0.466719 0 0.467502 0 0.468285 
0 0.469068 0 0.469851 0 0.470634 0 0.471417 0 
0.4722 0 0.472984 0 0.473767 0 0.47455 0 0.475333 
0 0.476116 0 0.476899 0 0.477682 0 0.478465 0 
0.479248 0 0.480031 0 0.480814 0 0.481597 0 0.482381 
0 0.483164 0 0.483947 0 0.48473 0 0.485513 0 
0.486296 0 0.487079 0 0.487862 0 0.488645 0 0.489428 
0 0.490211 0 0.490995 0 0.491778 0 0.492561 0 
0.493344 0 0.494127 0 0.49491 0 0.495693 0 0.496476 
0 0.497259 0 0.498042 0 0.498825 0 0.499608 0 
0.500392 0 0.501175 0 0.501958 0 0.502741 0 0.503524 
0 0.504307 0 0.50509 0 0.505873 0 0.506656 0 
0.507439 0 0.508222 0 0.509005 0 0.509789 0 0.510572 
0 0.511355 0 0.512138 0 0.512921 0 0.513704 0 
0.514487 0 0.51527 0 0.516053 0 0.516836 0 0.517619 
0 0.518403 0 0.519186 0 0.519969 0 0.520752 0 
0.521535 0 0.522318 0 0.523101 0 0.523884 0 0.524667 
0 0.52545 0 0.526233 0 0.527016 0 0.5278 0 
0.528583 0 0.529366 0 0.530149 0 0.530932 0 0.531715 
0 0.532498 0 0.533281 0 0.534064 0 0.534847 0 
0.53563 0 0.536413 0 0.537197 0 0.53798 0 0.538763 
0 0.539546 0 0.540329 0 0.541112 0 0.541895 0 
0.542678 0 0.543461 0 0.544244 0 0.545027 0 0.545811 
0 0.546594 0 0.547377 0 0.54816 0 0.548943 0 
0.549726 0 0.550509 0 0.551292 0 0.552075 0 0.552858 
0 0.553641 0 0.554424 0 0.555207 0 0.555991 0 
0.556774 0 0.557557 0 0.55834 0 0.559123 0 0.559906 
0 0.560689 0 0.561472 0 0.562255 0 0.563038 0 
0.563821 0 0.564605 0 0.565388 0 0.566171 0 0.566954 
0 0.567737 0 0.56852 0 0.569303 0 0.570086 0 
0.570869 0 0.571652 0 0.572435 0 0.573218 0 0.574002 
0 0.574785 0 0.575568 0 0.576351 0 0.577134 0 
0.577917 0 0.5787 0 0.579483 0 0.580266 0 0.581049 
0 0.581832 0 0.582615 0 0.583399 0 0.584182 0 
0.584965 0 0.585748 0 0.586531 0 0.587314 0 0.588097 
0 0.58888 0 0.589663 0 0.590446 0 0.591229 0 
0.592013 0 0.592796 0 0.593579 0 0.594362 0 0.595145 
0 0.595928 0 0.596711 0 0.597494 0 0.598277 0 
0.59906 0 0.599843 0 0.600626 0 0.60141 0 0.602193 
0 0.602976 0 0.603759 0 0.604542 0 0.605325 0 
0.606108 0 0.606891 0 0.607674 0 0.608457 0 0.60924 
0 0.610023 0 0.610807 0 0.61159 0 0.612373 0 
0.613156 0 0.613939 0 0.614722 0 0.615505 0 0.616288 
0 0.617071 0 0.617854 0 0.618637 0 0.619421 0 
0.620204 0 0.620987 0 0.62177 0 0.622553 0 0.623336 
0 0.624119 0 0.624902 0 0.625685 0 0.626468 0 
0.627251 0 0.628034 0 0.628818 0 0.629601 0 0.630384 
0 0.631167 0 0.63195 0 0.632733 0 0.633516 0 
0.634299 0 0.635082 0 0.635865 0 0.636648 0 0.637432 
0 0.638215 0 0.638998 0 0.639781 0 0.640564 0 
0.641347 0 0.64213 0 0.642913 0 0.643696 0 0.644479 
0 0.645262 0 0.646045 0 0.646829 0 0.647612 0 
0.648395 0 0.649178 0 0.649961 0 0.650744 0 0.651527 
0 0.65231 0 0.653093 0 0.653876 0 0.654659 0 
0.655442 0 0.656226 0 0.657009 0 0.657792 0 0.658575 
0 0.659358 0 0.660141 0 0.660924 0 0.661707 0 
0.66249 0 0.663273 0 0.664056 0 0.664839 0 0.665623 
0 0.666406 0 0.667189 0 0.667972 0 0.668755 0 
0.669538 0 0.670321 0 0.671104 0 0.671887 0 0.67267 
0 0.673453 0 0.674236 0 0.67502 0 0.675803 0 
0.676586 0 0.677369 0 0.678152 0 0.678935 0 0.679718 
0 0.680501 0 0.681284 0 0.682067 0 0.68285 0 