# vtk DataFile Version 4.2
vtk output
ASCII
DATASET POLYDATA
POINTS 1278 float
0 0 0 -0.00229231 0.0028881 0.00179374 -0.0089938 0.0112942 0.00702915 
-0.0198413 0.024831 0.0154875 -0.0345716 0.0431111 0.0269503 -0.0529215 0.0657473 0.0411986 
-0.0746278 0.0923522 0.0580138 -0.0994274 0.122539 0.0771773 -0.127057 0.155919 0.0984703 
-0.157254 0.192106 0.121674 -0.189754 0.230713 0.14657 -0.224294 0.271352 0.17294 
-0.260613 0.313635 0.200564 -0.298445 0.357176 0.229224 -0.337528 0.401588 0.258702 
-0.377599 0.446482 0.288779 -0.418394 0.491472 0.319235 -0.459651 0.53617 0.349853 
-0.501106 0.580189 0.380413 -0.542497 0.623141 0.410698 -0.583559 0.66464 0.440488 
-0.624029 0.704298 0.469564 -0.663717 0.741836 0.497768 -0.702647 0.77731 0.525125 
-0.740889 0.810836 0.551693 -0.778511 0.842534 0.577534 -0.81558 0.872523 0.602706 
-0.852165 0.900919 0.627269 -0.888334 0.927843 0.651284 -0.924155 0.953411 0.674809 
-0.959697 0.977743 0.697905 -0.995027 1.00096 0.72063 -1.03021 1.02317 0.743046 
-1.06533 1.0445 0.765212 -1.10043 1.06507 0.787187 -1.1356 1.08499 0.80903 
-1.17089 1.10439 0.830803 -1.20639 1.12338 0.852565 -1.24215 1.14208 0.874374 
-1.27824 1.1606 0.896292 -1.31474 1.17908 0.918377 -1.3517 1.19761 0.940687 
-1.38915 1.21623 0.963235 -1.42706 1.23491 0.986002 -1.46541 1.2536 1.00897 
-1.50419 1.27229 1.03212 -1.54337 1.29093 1.05544 -1.58294 1.3095 1.07891 
-1.62288 1.32795 1.1025 -1.66316 1.34625 1.1262 -1.70376 1.36438 1.14999 
-1.74467 1.38229 1.17386 -1.78587 1.39996 1.19778 -1.82733 1.41735 1.22173 
-1.86904 1.43443 1.2457 -1.91098 1.45116 1.26967 -1.95312 1.46751 1.29362 
-1.99545 1.48345 1.31754 -2.03795 1.49893 1.34139 -2.0806 1.51394 1.36517 
-2.12337 1.52844 1.38886 -2.16625 1.54239 1.41243 -2.20923 1.55576 1.43588 
-2.2523 1.56858 1.45921 -2.29545 1.58084 1.4824 -2.33871 1.59256 1.50548 
-2.38206 1.60376 1.52844 -2.4255 1.61444 1.55128 -2.46904 1.62461 1.574 
-2.51267 1.63429 1.59661 -2.5564 1.64348 1.61911 -2.60023 1.65221 1.64149 
-2.64417 1.66048 1.66377 -2.6882 1.6683 1.68594 -2.73233 1.67568 1.708 
-2.77656 1.68264 1.72997 -2.82089 1.68919 1.75183 -2.86533 1.69534 1.77359 
-2.90988 1.70109 1.79525 -2.95452 1.70647 1.81682 -2.99928 1.71149 1.8383 
-3.04413 1.71614 1.85969 -3.0891 1.72046 1.88098 -3.13417 1.72443 1.90218 
-3.17934 1.72805 1.92329 -3.22461 1.73133 1.94429 -3.26997 1.73425 1.96519 
-3.31543 1.73682 1.98599 -3.36097 1.73903 2.00666 -3.40659 1.74089 2.02723 
-3.4523 1.74238 2.04767 -3.49808 1.74351 2.06799 -3.54393 1.74428 2.08818 
-3.58985 1.74468 2.10824 -3.63585 1.74471 2.12816 -3.6819 1.74436 2.14794 
-3.72801 1.74365 2.16758 -3.77418 1.74255 2.18707 -3.8204 1.74107 2.20641 
-3.86668 1.73922 2.22559 -3.91299 1.73697 2.24462 -3.95935 1.73434 2.26348 
-4.00575 1.73133 2.28217 -4.05219 1.72792 2.30069 -4.09866 1.72412 2.31904 
-4.14516 1.71994 2.33721 -4.19169 1.71537 2.3552 -4.23824 1.71042 2.37301 
-4.28483 1.70508 2.39064 -4.33143 1.69936 2.40807 -4.37806 1.69326 2.42531 
-4.4247 1.68678 2.44236 -4.47136 1.67992 2.4592 -4.51804 1.67268 2.47585 
-4.56472 1.66507 2.49229 -4.61142 1.65708 2.50853 -4.65812 1.64871 2.52455 
-4.70483 1.63997 2.54036 -4.75154 1.63086 2.55595 -4.79825 1.62138 2.57133 
-4.84495 1.61153 2.58647 -4.89166 1.60131 2.6014 -4.93836 1.59072 2.61609 
-4.98504 1.57976 2.63056 -5.03172 1.56844 2.64478 -5.07838 1.55675 2.65876 
-5.12502 1.54469 2.6725 -5.17164 1.53228 2.68599 -5.21824 1.51949 2.69922 
-5.26481 1.50635 2.7122 -5.31134 1.49284 2.72491 -5.35785 1.47897 2.73735 
-5.40431 1.46474 2.74953 -5.45073 1.45015 2.76142 -5.49711 1.43519 2.77304 
-5.54344 1.41988 2.78437 -5.58973 1.40421 2.79541 -5.63595 1.38818 2.80616 
-5.68213 1.37179 2.81661 -5.72824 1.35504 2.82676 -5.77428 1.33794 2.83661 
-5.82027 1.32048 2.84614 -5.86618 1.30267 2.85535 -5.91202 1.2845 2.86425 
-5.95778 1.26597 2.87282 -6.00346 1.2471 2.88107 -6.04906 1.22789 2.88898 
-6.09457 1.20832 2.89655 -6.13999 1.18842 2.90379 -6.18531 1.16818 2.91067 
-6.23053 1.1476 2.91721 -6.27565 1.12669 2.92339 -6.32066 1.10545 2.92921 
-6.36556 1.08388 2.93467 -6.41035 1.06198 2.93977 -6.45501 1.03977 2.94448 
-6.49956 1.01723 2.94883 -6.54398 0.994373 2.95279 -6.58827 0.971204 2.95636 
-6.63242 0.947723 2.95955 -6.67644 0.923933 2.96234 -6.72031 0.899836 2.96473 
-6.76404 0.875436 2.96672 -6.80762 0.850735 2.9683 -6.85105 0.825737 2.96947 
-6.89432 0.800448 2.97023 -6.93743 0.774874 2.97057 -6.98037 0.749018 2.97049 
-7.02315 0.722887 2.96999 -7.06575 0.696485 2.96907 -7.10817 0.669818 2.96771 
-7.15042 0.642891 2.96593 -7.19248 0.615708 2.96372 -7.23435 0.588276 2.96106 
-7.27602 0.560599 2.95797 -7.31751 0.532683 2.95444 -7.35879 0.504533 2.95046 
-7.39986 0.476153 2.94604 -7.44073 0.447549 2.94117 -7.48138 0.418727 2.93584 
-7.52182 0.389691 2.93006 -7.56204 0.360446 2.92382 -7.60204 0.330998 2.91711 
-7.6418 0.301352 2.90995 -7.68134 0.271515 2.90232 -7.72064 0.241491 2.89422 
-7.75971 0.211289 2.88567 -7.79854 0.180916 2.87665 -7.83713 0.150377 2.86717 
-7.87548 0.11968 2.85724 -7.9136 0.0888308 2.84685 -7.95146 0.0578372 2.836 
-7.98909 0.0267055 2.8247 -8.02646 -0.00455761 2.81295 -8.06359 -0.0359453 2.80074 
-8.10046 -0.0674508 2.78809 -8.13709 -0.0990674 2.77498 -8.17346 -0.130788 2.76143 
-8.20957 -0.162607 2.74743 -8.24543 -0.194516 2.73299 -8.28102 -0.22651 2.7181 
-8.31636 -0.258581 2.70277 -8.35143 -0.290722 2.687 -8.38624 -0.322928 2.67078 
-8.42078 -0.355191 2.65413 -8.45505 -0.387509 2.63705 -8.48905 -0.419878 2.61954 
-8.52279 -0.452293 2.6016 -8.55625 -0.484753 2.58323 -8.58943 -0.517252 2.56445 
-8.62235 -0.549787 2.54525 -8.65498 -0.582355 2.52563 -8.68734 -0.614953 2.50561 
-8.71942 -0.647575 2.48519 -8.75122 -0.68022 2.46436 -8.78274 -0.712883 2.44313 
-8.81397 -0.74556 2.42151 -8.84492 -0.778248 2.3995 -8.87558 -0.810944 2.37711 
-8.90596 -0.843644 2.35433 -8.93605 -0.876344 2.33117 -8.96584 -0.90904 2.30763 
-8.99535 -0.941729 2.28373 -9.02456 -0.974408 2.25945 -9.05348 -1.00707 2.23481 
-9.0821 -1.03973 2.20981 -9.11042 -1.07237 2.18446 -9.13843 -1.105 2.15875 
-9.16613 -1.13762 2.13271 -9.19351 -1.17023 2.10632 -9.22058 -1.20284 2.0796 
-9.24732 -1.23544 2.05255 -9.27374 -1.26804 2.02518 -9.29982 -1.30064 1.99749 
-9.32557 -1.33323 1.96948 -9.35097 -1.36583 1.94117 -9.37603 -1.39842 1.91255 
-9.40075 -1.43102 1.88364 -9.42511 -1.46363 1.85443 -9.44912 -1.49623 1.82494 
-9.47276 -1.52885 1.79516 -9.49604 -1.56147 1.76511 -9.51895 -1.59411 1.73478 
-9.54149 -1.62675 1.70419 -9.56365 -1.6594 1.67333 -9.58542 -1.69207 1.64222 
-9.60682 -1.72476 1.61086 -9.62783 -1.75745 1.57926 -9.64845 -1.79017 1.54741 
-9.66868 -1.8229 1.51533 -9.68852 -1.85564 1.48303 -9.70796 -1.88841 1.4505 
-9.727 -1.9212 1.41776 -9.74564 -1.95401 1.38481 -9.76388 -1.98684 1.35165 
-9.78171 -2.01969 1.3183 -9.79913 -2.05256 1.28476 -9.81614 -2.08547 1.25103 
-9.83274 -2.11839 1.21712 -9.84891 -2.15135 1.18303 -9.86467 -2.18433 1.14878 
-9.88001 -2.21734 1.11436 -9.89492 -2.25038 1.07978 -9.90941 -2.28345 1.04506 
-9.92346 -2.31655 1.01019 -9.93709 -2.34968 0.975178 -9.95028 -2.38285 0.940033 
-9.96304 -2.41604 0.904757 -9.97537 -2.44927 0.869356 -9.98727 -2.48252 0.833835 
-9.99874 -2.5158 0.798198 -10.0098 -2.54911 0.76245 -10.0204 -2.58245 0.726596 
-10.0306 -2.61581 0.690641 -10.0403 -2.64919 0.65459 -10.0496 -2.6826 0.618448 
-10.0585 -2.71604 0.58222 -10.067 -2.74949 0.54591 -10.075 -2.78297 0.509523 
-10.0826 -2.81647 0.473064 -10.0898 -2.84999 0.436539 -10.0965 -2.88353 0.399951 
-10.1028 -2.91709 0.363306 -10.1087 -2.95067 0.326608 -10.1141 -2.98426 0.289864 
-10.1192 -3.01787 0.253075 -10.1238 -3.0515 0.216248 -10.1279 -3.08514 0.179383 
-10.1317 -3.11879 0.142485 -10.135 -3.15245 0.105557 -10.1379 -3.18612 0.068601 
-10.1404 -3.2198 0.0316214 -10.1425 -3.25348 -0.0053791 -10.1442 -3.28717 -0.0423973 
-10.1455 -3.32086 -0.0794301 -10.1464 -3.35455 -0.116474 -10.1469 -3.38824 -0.153527 
-10.147 -3.42193 -0.190584 -10.1467 -3.45562 -0.227644 -10.146 -3.4893 -0.264702 
-10.1449 -3.52297 -0.301755 -10.1434 -3.55664 -0.338802 -10.1415 -3.5903 -0.375837 
-10.1393 -3.62394 -0.412859 -10.1367 -3.65757 -0.449864 -10.1337 -3.69119 -0.486848 
-10.1303 -3.7248 -0.523811 -10.1266 -3.75838 -0.560751 -10.1225 -3.79195 -0.597665 
-10.118 -3.82551 -0.634553 -10.1132 -3.85904 -0.671413 -10.108 -3.89255 -0.708244 
-10.1025 -3.92604 -0.745044 -10.0967 -3.95951 -0.781811 -10.0905 -3.99296 -0.818544 
-10.0839 -4.02638 -0.855241 -10.077 -4.05977 -0.891901 -10.0698 -4.09314 -0.928523 
-10.0623 -4.12648 -0.965104 -10.0544 -4.15979 -1.00164 -10.0463 -4.19308 -1.03814 
-10.0378 -4.22633 -1.07459 -10.029 -4.25955 -1.111 -10.0199 -4.29274 -1.14735 
-10.0105 -4.32589 -1.18366 -10.0008 -4.35901 -1.21992 -9.99078 -4.3921 -1.25613 
-9.98048 -4.42515 -1.29228 -9.9699 -4.45816 -1.32838 -9.95903 -4.49114 -1.36442 
-9.94789 -4.52409 -1.40042 -9.93646 -4.55699 -1.43635 -9.92476 -4.58987 -1.47223 
-9.91279 -4.6227 -1.50806 -9.90055 -4.6555 -1.54383 -9.88805 -4.68827 -1.57954 
-9.87529 -4.72099 -1.61519 -9.86227 -4.75368 -1.65078 -9.849 -4.78634 -1.68631 
-9.83549 -4.81896 -1.72179 -9.82172 -4.85154 -1.7572 -9.80771 -4.88408 -1.79255 
-9.79347 -4.91659 -1.82784 -9.77899 -4.94906 -1.86306 -9.76428 -4.98149 -1.89823 
-9.74934 -5.01388 -1.93332 -9.73417 -5.04624 -1.96836 -9.71879 -5.07856 -2.00333 
-9.70319 -5.11085 -2.03823 -9.68737 -5.1431 -2.07307 -9.67133 -5.17531 -2.10784 
-9.65509 -5.20749 -2.14255 -9.63864 -5.23963 -2.17719 -9.62198 -5.27175 -2.21176 
-9.60513 -5.30382 -2.24627 -9.58807 -5.33587 -2.28071 -9.57082 -5.36788 -2.31508 
-9.55338 -5.39986 -2.34939 -9.53574 -5.43181 -2.38363 -9.51792 -5.46373 -2.41779 
-9.49991 -5.49562 -2.4519 -9.48173 -5.52748 -2.48593 -9.46336 -5.55931 -2.51989 
-9.44482 -5.59112 -2.55378 -9.4261 -5.62289 -2.58761 -9.40722 -5.65464 -2.62136 
-9.38816 -5.68636 -2.65505 -9.36894 -5.71805 -2.68866 -9.34956 -5.74972 -2.7222 
-9.33002 -5.78137 -2.75567 -9.31032 -5.81299 -2.78907 -9.29046 -5.8446 -2.82239 
-9.27044 -5.87618 -2.85564 -9.25028 -5.90775 -2.88881 -9.22996 -5.93929 -2.92191 
[...]
CELL_DATA 1
FIELD FieldData 2
Length 1 1 double
63.883208473 
Tortuosity 1 1 double
0.84683122514 
POINT_DATA 1278
SCALARS MaximumInscribedSphereRadius float
LOOKUP_TABLE default
1.116 1.12014 1.12428 1.12842 1.13256 1.1367 1.14085 1.14499 1.14913 
1.15327 1.15741 1.16155 1.16569 1.16983 1.17397 1.17811 1.18225 1.1864 
1.19054 1.19468 1.19882 1.20267 1.2036 1.20452 1.20544 1.20637 1.20729 
1.20822 1.20914 1.21006 1.21099 1.21191 1.21284 1.21376 1.21468 1.21561 
1.21653 1.21746 1.21838 1.21931 1.22023 1.21627 1.20933 1.20238 1.19544 
1.1885 1.18155 1.17461 1.16767 1.16072 1.15378 1.14684 1.13989 1.13295 
1.126 1.11906 1.11212 1.10517 1.09823 1.09129 1.08434 1.0783 1.07773 
1.07716 1.07658 1.07601 1.07544 1.07487 1.07429 1.07372 1.07315 1.07258 
1.07201 1.07143 1.07086 1.07029 1.06972 1.06915 1.06857 1.068 1.06743 
1.06686 1.07375 1.08149 1.08923 1.09697 1.10471 1.11244 1.12018 1.12792 
1.13566 1.1434 1.15114 1.15888 1.16661 1.17435 1.18209 1.18983 1.19757 
1.20531 1.21305 1.22079 1.22479 1.22652 1.22825 1.22998 1.23171 1.23343 
1.23516 1.23689 1.23862 1.24035 1.24208 1.24381 1.24554 1.24727 1.249 
1.25073 1.25246 1.25419 1.25592 1.25765 1.25724 1.25282 1.2484 1.24398 
1.23956 1.23514 1.23072 1.2263 1.22188 1.21746 1.21304 1.20862 1.2042 
1.19978 1.19536 1.19094 1.18652 1.1821 1.17768 1.17326 1.16849 1.1595 
1.15051 1.14153 1.13254 1.12355 1.11456 1.10557 1.09658 1.08759 1.0786 
1.06962 1.06063 1.05164 1.04265 1.03366 1.02467 1.01568 1.00669 0.997705 
0.988716 1.00156 1.01968 1.03781 1.05594 1.07407 1.0922 1.11032 1.12845 
1.14658 1.16471 1.18283 1.20096 1.21909 1.23722 1.25535 1.27347 1.2916 
1.30973 1.32786 1.34599 1.35991 1.37019 1.38048 1.39077 1.40105 1.41134 
1.42163 1.43191 1.4422 1.45249 1.46277 1.47306 1.48334 1.49363 1.50392 
1.5142 1.52449 1.53478 1.54506 1.55535 1.56216 1.55949 1.55681 1.55413 
1.55146 1.54878 1.54611 1.54343 1.54075 1.53808 1.5354 1.53273 1.53005 
1.52737 1.5247 1.52202 1.51934 1.51667 1.51399 1.51132 1.50864 1.51064 
1.51266 1.51468 1.5167 1.51872 1.52074 1.52276 1.52478 1.5268 1.52882 
1.53084 1.53286 1.53488 1.5369 1.53892 1.54093 1.54295 1.54497 1.54699 
1.54901 1.55987 1.57409 1.58831 1.60254 1.61676 1.63098 1.64521 1.65943 
1.67365 1.68788 1.7021 1.71632 1.73055 1.74477 1.75899 1.77322 1.78744 
1.80166 1.81589 1.83011 1.83517 1.8291 1.82303 1.81696 1.81089 1.80482 
1.79875 1.79269 1.78662 1.78055 1.77448 1.76841 1.76234 1.75627 1.7502 
1.74413 1.73806 1.73199 1.72592 1.71986 1.71247 1.699 1.68554 1.67208 
1.65862 1.64515 1.63169 1.61823 1.60477 1.59131 1.57784 1.56438 1.55092 
1.53746 1.52399 1.51053 1.49707 1.48361 1.47015 1.45668 1.44322 1.4301 
1.41701 1.40392 1.39083 1.37775 1.36466 1.35157 1.33848 1.32539 1.31231 
1.29922 1.28613 1.27304 1.25995 1.24687 1.23378 1.22069 1.2076 1.19452 
1.18143 1.17468 1.17169 1.16871 1.16572 1.16273 1.15975 1.15676 1.15378 
1.15079 1.1478 1.14482 1.14183 1.13885 1.13586 1.13287 1.12989 1.1269 
1.12392 1.12093 1.11795 1.11715 1.12046 1.12377 1.12707 1.13038 1.13369 
1.13699 1.1403 1.14361 1.14691 1.15022 1.15353 1.15683 1.16014 1.16345 
1.16675 1.17006 1.17337 1.17667 1.17998 1.18401 1.19795 1.21188 1.22581 
1.23975 1.25368 1.26762 1.28155 1.29549 1.30942 1.32336 1.33729 1.35122 
1.36516 1.37909 1.39303 1.40696 1.4209 1.43483 1.44877 1.4627 1.47047 
1.47657 1.48268 1.48878 1.49488 1.50099 1.50709 1.5132 1.5193 1.5254 
1.53151 1.53761 1.54372 1.54982 1.55592 1.56203 1.56813 1.57424 1.58034 
1.58644 1.58475 1.57543 1.56611 1.5568 1.54748 1.53817 1.52885 1.51953 
1.51022 1.5009 1.49158 1.48227 1.47295 1.46363 1.45432 1.445 1.43568 
1.42637 1.41705 1.40773 1.40016 1.39847 1.39678 1.39509 1.39339 1.3917 
1.39001 1.38832 1.38663 1.38493 1.38324 1.38155 1.37986 1.37817 1.37647 
1.37478 1.37309 1.3714 1.36971 1.36801 1.36632 1.37297 1.38015 1.38733 
1.39451 1.40169 1.40888 1.41606 1.42324 1.43042 1.4376 1.44479 1.45197 
1.45915 1.46633 1.47352 1.4807 1.48788 1.49506 1.50224 1.50943 1.50701 
1.49917 1.49133 1.48348 1.47564 1.4678 1.45995 1.45211 1.44427 1.43643 
1.42858 1.42074 1.4129 1.40506 1.39721 1.38937 1.38153 1.37369 1.36584 
1.358 1.37049 1.38379 1.39708 1.41038 1.42368 1.43698 1.45028 1.46357 
1.47687 1.49017 1.50347 1.51677 1.53006 1.54336 1.55666 1.56996 1.58326 
1.59655 1.60985 1.62315 1.64054 1.66087 1.68121 1.70154 1.72187 1.7422 
1.76253 1.78286 1.80319 1.82352 1.84385 1.86418 1.88451 1.90484 1.92517 
1.9455 1.96584 1.98617 2.0065 2.02683 2.04069 2.04069 2.04069 2.04069 
2.04069 2.04069 2.04069 2.04069 2.04069 2.04069 2.04069 2.0407 2.0407 
2.0407 2.0407 2.0407 2.0407 2.0407 2.0407 2.0407 2.04038 2.03148 
2.02259 2.01369 2.0048 1.9959 1.98701 1.97811 1.96922 1.96032 1.95143 
1.94253 1.93364 1.92474 1.91585 1.90695 1.89806 1.88916 1.88027 1.87137 
1.86248 1.85364 1.84484 1.83603 1.82722 1.81841 1.8096 1.80079 1.79198 
1.78317 1.77436 1.76555 1.75674 1.74793 1.73912 1.73031 1.7215 1.71269 
1.70388 1.69507 1.68626 1.68207 1.68303 1.68398 1.68494 1.68589 1.68685 
1.68781 1.68876 1.68972 1.69067 1.69163 1.69258 1.69354 1.6945 1.69545 
1.69641 1.69736 1.69832 1.69927 1.70023 1.70412 1.72028 1.73644 1.75259 
1.76875 1.78491 1.80106 1.81722 1.83337 1.84953 1.86569 1.88184 1.898 
1.91416 1.93031 1.94647 1.96263 1.97878 1.99494 2.01109 2.02725 2.035 
2.04197 2.04894 2.05592 2.06289 2.06987 2.07684 2.08381 2.09079 2.09776 
2.10473 2.11171 2.11868 2.12566 2.13263 2.1396 2.14658 2.15355 2.16053 
2.1675 2.17 2.17 2.17 2.17 2.17 2.17 2.17 2.17 
2.17 2.17 2.17 2.17 2.17 2.17 2.17 2.17 2.17 
2.17 2.17 2.17 2.17 2.17 2.17 2.17 2.17 2.17 
2.17 2.17 2.17 2.17 2.17 2.17 2.17 2.17 2.17 
2.17 2.17 2.17 2.17 2.17 2.17 2.17 2.17 2.17 
2.17 2.17 2.17 2.17 2.17 2.17 2.17 2.17 2.17 
2.17 2.17 2.17 2.17 2.17 2.17 2.17 2.17 2.16991 
2.1698 2.16969 2.16957 2.16946 2.16935 2.16924 2.16913 2.16901 2.1689 
2.16879 2.16868 2.16857 2.16845 2.16834 2.16823 2.16812 2.16801 2.16789 
2.16778 2.16431 2.15785 2.15138 2.14492 2.13845 2.13199 2.12552 2.11906 
2.1126 2.10613 2.09967 2.0932 2.08674 2.08027 2.07381 2.06734 2.06088 
2.05442 2.04795 2.04149 2.03488 2.02785 2.02082 2.01379 2.00676 1.99973 
1.9927 1.98567 1.97864 1.97161 1.96458 1.95755 1.95052 1.94349 1.93646 
1.92943 1.9224 1.91537 1.90834 1.90131 1.89428 1.89242 1.89075 1.88907 
1.88739 1.88571 1.88403 1.88235 1.88067 1.87899 1.87731 1.87563 1.87395 
1.87228 1.8706 1.86892 1.86724 1.86556 1.86388 1.8622 1.86052 1.86 
1.86 1.86 1.86 1.86 1.86 1.86 1.86 1.86 1.86 
1.86 1.86 1.86 1.86 1.86 1.86 1.86 1.86 1.86 
1.86 1.86002 1.86007 1.86011 1.86016 1.8602 1.86025 1.8603 1.86034 
1.86039 1.86044 1.86048 1.86053 1.86058 1.86062 1.86067 1.86071 1.86076 
1.86081 1.86085 1.8609 1.86101 1.86154 1.86207 1.8626 1.86313 1.86366 
1.86419 1.86472 1.86525 1.86577 1.8663 1.86683 1.86736 1.86789 1.86842 
1.86895 1.86948 1.87001 1.87054 1.87107 1.8716 1.87196 1.87229 1.87262 
1.87296 1.87329 1.87362 1.87396 1.87429 1.87462 1.87496 1.87529 1.87562 
1.87596 1.87629 1.87662 1.87696 1.87729 1.87762 1.87796 1.87829 1.87812 
1.87759 1.87706 1.87653 1.876 1.87547 1.87494 1.87441 1.87388 1.87335 
1.87282 1.8723 1.87177 1.87124 1.87071 1.87018 1.86965 1.86912 1.86859 
1.86806 1.86851 1.8712 1.87389 1.87658 1.87927 1.88196 1.88465 1.88734 
1.89003 1.89272 1.89541 1.8981 1.90079 1.90348 1.90617 1.90886 1.91155 
1.91424 1.91693 1.91962 1.92237 1.92752 1.93267 1.93782 1.94297 1.94812 
1.95327 1.95842 1.96357 1.96871 1.97386 1.97901 1.98416 1.98931 1.99446 
1.99961 2.00476 2.00991 2.01506 2.0202 2.02535 2.0252 2.02323 2.02127 
2.01931 2.01735 2.01539 2.01343 2.01147 2.0095 2.00754 2.00558 2.00362 
2.00166 1.9997 1.99774 1.99577 1.99381 1.99185 1.98989 1.98793 1.98692 
1.98699 1.98707 1.98715 1.98723 1.9873 1.98738 1.98746 1.98754 1.98761 
1.98769 1.98777 1.98785 1.98792 1.988 1.98808 1.98815 1.98823 1.98831 
1.98839 1.99105 2.00511 2.01916 2.03322 2.04728 2.06133 2.07539 2.08944 
2.1035 2.11756 2.13161 2.14567 2.15972 2.17378 2.18783 2.20189 2.21595 
2.23 2.24406 2.25811 2.27217 2.27927 2.28563 2.29199 2.29836 2.30472 
2.31109 2.31745 2.32381 2.33018 2.33654 2.34291 2.34927 2.35563 2.362 
2.36836 2.37473 2.38109 2.38745 2.39382 2.40018 2.39686 2.38767 2.37849 
2.36931 2.36012 2.35094 2.34175 2.33257 2.32339 2.3142 2.30502 2.29583 
2.28665 2.27747 2.26828 2.2591 2.24991 2.24073 2.23155 2.22236 2.21316 
2.20393 2.1947 2.18546 2.17623 2.167 2.15777 2.14853 2.1393 2.13007 
2.12084 2.1116 2.10237 2.09314 2.08391 2.07467 2.06544 2.05621 2.04698 
2.03774 2.02889 2.02563 2.02236 2.0191 2.01583 2.01257 2.0093 2.00603 
2.00277 1.9995 1.99624 1.99297 1.98971 1.98644 1.98318 1.97991 1.97665 
1.97338 1.97012 1.96685 1.96359 1.97478 1.98996 2.00514 2.02031 2.03549 
2.05067 2.06584 2.08102 2.0962 2.11138 2.12655 2.14173 2.15691 2.17209 
2.18726 2.20244 2.21762 2.2328 2.24797 2.26315 2.27708 2.2898 2.30251 
2.31523 2.32794 2.34065 2.35337 2.36608 2.3788 2.39151 2.40423 2.41694 
2.42966 2.44237 2.45509 2.4678 2.48051 2.49323 2.50594 2.51866 2.52945 
2.53377 2.53808 2.5424 2.54671 2.55102 2.55534 2.55965 2.56397 2.56828 
2.57259 2.57691 2.58122 2.58553 2.58985 2.59416 2.59848 2.60279 2.6071 
2.61142 2.61573 2.61334 2.61059 2.60784 2.60509 2.60234 2.59959 2.59684 
2.59409 2.59134 2.58859 2.58584 2.58309 2.58034 2.57759 2.57484 2.57209 
2.56934 2.56659 2.56384 2.56109 2.55696 2.55217 2.54737 2.54258 2.53778 
2.53299 2.52819 2.5234 2.5186 2.51381 2.50901 2.50422 2.49942 2.49463 
2.48983 2.48504 2.48024 2.47545 2.47065 2.46586 2.46719 2.47804 2.48888 
2.49973 2.51057 2.52142 2.53227 2.54311 2.55396 2.56481 2.57565 2.5865 
2.59735 2.60819 2.61904 2.62989 2.64073 2.65158 2.66242 2.67327 2.68316 
2.68538 2.6876 2.68982 2.69204 2.69426 2.69648 2.6987 2.70092 2.70314 
2.70536 2.70758 2.7098 2.71202 2.71424 2.71646 2.71868 2.7209 2.72312 
2.72534 2.72756 2.71127 2.69213 2.67299 2.65385 2.63472 2.61558 2.59644 
2.5773 2.55816 2.53902 2.51988 2.50074 2.4816 2.46246 2.44332 2.42418 
2.40504 2.3859 2.36676 2.34763 2.3328 2.32505 2.31731 2.30956 2.30181 
2.29406 2.28631 2.27856 2.27081 2.26307 2.25532 2.24757 2.23982 2.23207 
2.22432 2.21657 2.20882 2.20108 2.19333 2.18558 2.18426 2.18355 2.18283 
2.18212 2.18141 2.18069 2.17998 2.17927 2.17856 2.17784 2.17713 2.17642 
2.1757 2.17499 2.17428 2.17356 2.17285 2.17214 2.17143 2.17071 2.17 

TEXTURE_COORDINATES TCoords 2 float
0 0 0.000783085 0 0.00156617 0 0.00234926 0 0.00313234 
0 0.00391543 0 0.00469851 0 0.0054816 0 0.00626468 0 
0.00704777 0 0.00783085 0 0.00861394 0 0.00939702 0 0.0101801 
0 0.0109632 0 0.0117463 0 0.0125294 0 0.0133125 0 
0.0140955 0 0.0148786 0 0.0156617 0 0.0164448 0 0.0172279 
0 0.018011 0 0.018794 0 0.0195771 0 0.0203602 0 
0.0211433 0 0.0219264 0 0.0227095 0 0.0234926 0 0.0242756 
0 0.0250587 0 0.0258418 0 0.0266249 0 0.027408 0 
0.0281911 0 0.0289742 0 0.0297572 0 0.0305403 0 0.0313234 
0 0.0321065 0 0.0328896 0 0.0336727 0 0.0344558 0 
0.0352388 0 0.0360219 0 0.036805 0 0.0375881 0 0.0383712 
0 0.0391543 0 0.0399374 0 0.0407204 0 0.0415035 0 
0.0422866 0 0.0430697 0 0.0438528 0 0.0446359 0 0.045419 
0 0.046202 0 0.0469851 0 0.0477682 0 0.0485513 0 
0.0493344 0 0.0501175 0 0.0509005 0 0.0516836 0 0.0524667 
0 0.0532498 0 0.0540329 0 0.054816 0 0.0555991 0 
0.0563821 0 0.0571652 0 0.0579483 0 0.0587314 0 0.0595145 
0 0.0602976 0 0.0610807 0 0.0618637 0 0.0626468 0 
0.0634299 0 0.064213 0 0.0649961 0 0.0657792 0 0.0665623 
0 0.0673453 0 0.0681284 0 0.0689115 0 0.0696946 0 
0.0704777 0 0.0712608 0 0.0720439 0 0.0728269 0 0.07361 
0 0.0743931 0 0.0751762 0 0.0759593 0 0.0767424 0 
0.0775255 0 0.0783085 0 0.0790916 0 0.0798747 0 0.0806578 
0 0.0814409 0 0.082224 0 0.083007 0 0.0837901 0 
0.0845732 0 0.0853563 0 0.0861394 0 0.0869225 0 0.0877056 
0 0.0884886 0 0.0892717 0 0.0900548 0 0.0908379 0 
0.091621 0 0.0924041 0 0.0931872 0 0.0939702 0 0.0947533 
0 0.0955364 0 0.0963195 0 0.0971026 0 0.0978857 0 
0.0986688 0 0.0994518 0 0.100235 0 0.101018 0 0.101801 
0 0.102584 0 0.103367 0 0.10415 0 0.104933 0 
0.105717 0 0.1065 0 0.107283 0 0.108066 0 0.108849 
0 0.109632 0 0.110415 0 0.111198 0 0.111981 0 
0.112764 0 0.113547 0 0.11433 0 0.115114 0 0.115897 
0 0.11668 0 0.117463 0 0.118246 0 0.119029 0 
0.119812 0 0.120595 0 0.121378 0 0.122161 0 0.122944 
0 0.123727 0 0.124511 0 0.125294 0 0.126077 0 
0.12686 0 0.127643 0 0.128426 0 0.129209 0 0.129992 
0 0.130775 0 0.131558 0 0.132341 0 0.133125 0 
0.133908 0 0.134691 0 0.135474 0 0.136257 0 0.13704 
0 0.137823 0 0.138606 0 0.139389 0 0.140172 0 
0.140955 0 0.141738 0 0.142522 0 0.143305 0 0.144088 
0 0.144871 0 0.145654 0 0.146437 0 0.14722 0 
0.148003 0 0.148786 0 0.149569 0 0.150352 0 0.151135 
0 0.151919 0 0.152702 0 0.153485 0 0.154268 0 
0.155051 0 0.155834 0 0.156617 0 0.1574 0 0.158183 
0 0.158966 0 0.159749 0 0.160533 0 0.161316 0 
0.162099 0 0.162882 0 0.163665 0 0.164448 0 0.165231 
0 0.166014 0 0.166797 0 0.16758 0 0.168363 0 
0.169146 0 0.16993 0 0.170713 0 0.171496 0 0.172279 
0 0.173062 0 0.173845 0 0.174628 0 0.175411 0 
0.176194 0 0.176977 0 0.17776 0 0.178543 0 0.179327 
0 0.18011 0 0.180893 0 0.181676 0 0.182459 0 
0.183242 0 0.184025 0 0.184808 0 0.185591 0 0.186374 
0 0.187157 0 0.18794 0 0.188724 0 0.189507 0 
0.19029 0 0.191073 0 0.191856 0 0.192639 0 0.193422 
0 0.194205 0 0.194988 0 0.195771 0 0.196554 0 
0.197338 0 0.198121 0 0.198904 0 0.199687 0 0.20047 
0 0.201253 0 0.202036 0 0.202819 0 0.203602 0 
0.204385 0 0.205168 0 0.205951 0 0.206735 0 0.207518 
0 0.208301 0 0.209084 0 0.209867 0 0.21065 0 
0.211433 0 0.212216 0 0.212999 0 0.213782 0 0.214565 
0 0.215348 0 0.216132 0 0.216915 0 0.217698 0 
0.218481 0 0.219264 0 0.220047 0 0.22083 0 0.221613 
0 0.222396 0 0.223179 0 0.223962 0 0.224745 0 
0.225529 0 0.226312 0 0.227095 0 0.227878 0 0.228661 
0 0.229444 0 0.230227 0 0.23101 0 0.231793 0 
0.232576 0 0.233359 0 0.234143 0 0.234926 0 0.235709 
0 0.236492 0 0.237275 0 0.238058 0 0.238841 0 
0.239624 0 0.240407 0 0.24119 0 0.241973 0 0.242756 
0 0.24354 0 0.244323 0 0.245106 0 0.245889 0 
0.246672 0 0.247455 0 0.248238 0 0.249021 0 0.249804 
0 0.250587 0 0.25137 0 0.252153 0 0.252937 0 
0.25372 0 0.254503 0 0.255286 0 0.256069 0 0.256852 
0 0.257635 0 0.258418 0 0.259201 0 0.259984 0 
0.260767 0 0.261551 0 0.262334 0 0.263117 0 0.2639 
0 0.264683 0 0.265466 0 0.266249 0 0.267032 0 
0.267815 0 0.268598 0 0.269381 0 0.270164 0 0.270948 
0 0.271731 0 0.272514 0 0.273297 0 0.27408 0 
0.274863 0 0.275646 0 0.276429 0 0.277212 0 0.277995 
0 0.278778 0 0.279561 0 0.280345 0 0.281128 0 
0.281911 0 0.282694 0 0.283477 0 0.28426 0 0.285043 
0 0.285826 0 0.286609 0 0.287392 0 0.288175 0 
0.288958 0 0.289742 0 0.290525 0 0.291308 0 0.292091 
0 0.292874 0 0.293657 0 0.29444 0 0.295223 0 
0.296006 0 0.296789 0 0.297572 0 0.298356 0 0.299139 
0 0.299922 0 0.300705 0 0.301488 0 0.302271 0 
0.303054 0 0.303837 0 0.30462 0 0.305403 0 0.306186 
0 0.306969 0 0.307753 0 0.308536 0 0.309319 0 
0.310102 0 0.310885 0 0.311668 0 0.312451 0 0.313234 
0 0.314017 0 0.3148 0 0.315583 0 0.316366 0 
0.31715 0 0.317933 0 0.318716 0 0.319499 0 0.320282 
0 0.321065 0 0.321848 0 0.322631 0 0.323414 0 
0.324197 0 0.32498 0 0.325763 0 0.326547 0 0.32733 
0 0.328113 0 0.328896 0 0.329679 0 0.330462 0 
0.331245 0 0.332028 0 0.332811 0 0.333594 0 0.334377 
0 0.335161 0 0.335944 0 0.336727 0 0.33751 0 
0.338293 0 0.339076 0 0.339859 0 0.340642 0 0.341425 
0 0.342208 0 0.342991 0 0.343774 0 0.344558 0 
0.345341 0 0.346124 0 0.346907 0 0.34769 0 0.348473 
0 0.349256 0 0.350039 0 0.350822 0 0.351605 0 
0.352388 0 0.353171 0 0.353955 0 0.354738 0 0.355521 
0 0.356304 0 0.357087 0 0.35787 0 0.358653 0 
0.359436 0 0.360219 0 0.361002 0 0.361785 0 0.362569 
0 0.363352 0 0.364135 0 0.364918 0 0.365701 0 
0.366484 0 0.367267 0 0.36805 0 0.368833 0 0.369616 
0 0.370399 0 0.371182 0 0.371966 0 0.372749 0 
0.373532 0 0.374315 0 0.375098 0 0.375881 0 0.376664 
0 0.377447 0 0.37823 0 0.379013 0 0.379796 0 
0.380579 0 0.381363 0 0.382146 0 0.382929 0 0.383712 
0 0.384495 0 0.385278 0 0.386061 0 0.386844 0 
0.387627 0 0.38841 0 0.389193 0 0.389977 0 0.39076 
0 0.391543 0 0.392326 0 0.393109 0 0.393892 0 
0.394675 0 0.395458 0 0.396241 0 0.397024 0 0.397807 
0 0.39859 0 0.399374 0 0.400157 0 0.40094 0 
0.401723 0 0.402506 0 0.403289 0 0.404072 0 0.404855 
0 0.405638 0 0.406421 0 0.407204 0 0.407987 0 
0.408771 0 0.409554 0 0.410337 0 0.41112 0 0.411903 
0 0.412686 0 0.413469 0 0.414252 0 0.415035 0 
0.415818 0 0.416601 0 0.417385 0 0.418168 0 0.418951 
0 0.419734 0 0.420517 0 0.4213 0 0.422083 0 
0.422866 0 0.423649 0 0.424432 0 0.425215 0 0.425998 
0 0.426782 0 0.427565 0 0.428348 0 0.429131 0 
0.429914 0 0.430697 0 0.43148 0 0.432263 0 0.433046 
0 0.433829 0 0.434612 0 0.435395 0 0.436179 0 
0.436962 0 0.437745 0 0.438528 0 0.439311 0 0.440094 
0 0.440877 0 0.44166 0 0.442443 0 0.443226 0 
0.444009 0 0.444792 0 0.445576 0 0.446359 0 0.447142 
0 0.447925 0 0.448708 0 0.449491 0 0.450274 0 
0.451057 0 0.45184 0 0.452623 0 0.453406 0 0.45419 
0 0.454973 0 0.455756 0 0.456539 0 0.457322 0 
0.458105 0 0.458888 0 0.459671 0 0.460454 0 0.461237 
0 0.46202 0 0.462803 0 0.463587 0 0.46437 0 
0.465153 0 0.465936 0 0.466719 0 0.467502 0 0.468285 
0 0.469068 0 0.469851 0 0.470634 0 0.471417 0 
0.4722 0 0.472984 0 0.473767 0 0.47455 0 0.475333 
0 0.476116 0 0.476899 0 0.477682 0 0.478465 0 
0.479248 0 0.480031 0 0.480814 0 0.481597 0 0.482381 
0 0.483164 0 0.483947 0 0.48473 0 0.485513 0 
0.486296 0 0.487079 0 0.487862 0 0.488645 0 0.489428 
0 0.490211 0 0.490995 0 0.491778 0 0.492561 0 
0.493344 0 0.494127 0 0.49491 0 0.495693 0 0.496476 
0 0.497259 0 0.498042 0 0.498825 0 0.499608 0 
0.500392 0 0.501175 0 0.501958 0 0.502741 0 0.503524 
0 0.504307 0 0.50509 0 0.505873 0 0.506656 0 
0.507439 0 0.508222 0 0.509005 0 0.509789 0 0.510572 
0 0.511355 0 0.512138 0 0.512921 0 0.513704 0 
0.514487 0 0.51527 0 0.516053 0 0.516836 0 0.517619 
0 0.518403 0 0.519186 0 0.519969 0 0.520752 0 
0.521535 0 0.522318 0 0.523101 0 0.523884 0 0.524667 
0 0.52545 0 0.526233 0 0.527016 0 0.5278 0 
0.528583 0 0.529366 0 0.530149 0 0.530932 0 0.531715 
0 0.532498 0 0.533281 0 0.534064 0 0.534847 0 
0.53563 0 0.536413 0 0.537197 0 0.53798 0 0.538763 
0 0.539546 0 0.540329 0 0.541112 0 0.541895 0 
0.542678 0 0.543461 0 0.544244 0 0.545027 0 0.545811 
0 0.546594 0 0.547377 0 0.54816 0 0.548943 0 
0.549726 0 0.550509 0 0.551292 0 0.552075 0 0.552858 
0 0.553641 0 0.554424 0 0.555207 0 0.555991 0 
0.556774 0 0.557557 0 0.55834 0 0.559123 0 0.559906 
0 0.560689 0 0.561472 0 0.562255 0 0.563038 0 
0.563821 0 0.564605 0 0.565388 0 0.566171 0 0.566954 
0 0.567737 0 0.56852 0 0.569303 0 0.570086 0 
0.570869 0 0.571652 0 0.572435 0 0.573218 0 0.574002 
0 0.574785 0 0.575568 0 0.576351 0 0.577134 0 
0.577917 0 0.5787 0 0.579483 0 0.580266 0 0.581049 
0 0.581832 0 0.582615 0 0.583399 0 0.584182 0 
0.584965 0 0.585748 0 0.586531 0 0.587314 0 0.588097 
0 0.58888 0 0.589663 0 0.590446 0 0.591229 0 
0.592013 0 0.592796 0 0.593579 0 0.594362 0 0.595145 
0 0.595928 0 0.596711 0 0.597494 0 0.598277 0 
0.59906 0 0.599843 0 0.600626 0 0.60141 0 0.602193 
0 0.602976 0 0.603759 0 0.604542 0 0.605325 0 
0.606108 0 0.606891 0 0.607674 0 0.608457 0 0.60924 
0 0.610023 0 0.610807 0 0.61159 0 0.612373 0 
0.613156 0 0.613939 0 0.614722 0 0.615505 0 0.616288 
0 0.617071 0 0.617854 0 0.618637 0 0.619421 0 
0.620204 0 0.620987 0 0.62177 0 0.622553 0 0.623336 
0 0.624119 0 0.624902 0 0.625685 0 0.626468 0 
0.627251 0 0.628034 0 0.628818 0 0.629601 0 0.630384 
0 0.631167 0 0.63195 0 0.632733 0 0.633516 0 
0.634299 0 0.635082 0 0.635865 0 0.636648 0 0.637432 
0 0.638215 0 0.638998 0 0.639781 0 0.640564 0 
0.641347 0 0.64213 0 0.642913 0 0.643696 0 0.644479 
0 0.645262 0 0.646045 0 0.646829 0 0.647612 0 
0.648395 0 0.649178 0 0.649961 0 0.650744 0 0.651527 
0 0.65231 0 0.653093 0 0.653876 0 0.654659 0 
0.655442 0 0.656226 0 0.657009 0 0.657792 0 0.658575 
0 0.659358 0 0.660141 0 0.660924 0 0.661707 0 
0.66249 0 0.663273 0 0.664056 0 0.664839 0 0.665623 
0 0.666406 0 0.667189 0 0.667972 0 0.668755 0 
0.669538 0 0.670321 0 0.671104 0 0.671887 0 0.67267 
0 0.673453 0 0.674236 0 0.67502 0 0.675803 0 
0.676586 0 0.677369 0 0.678152 0 0.678935 0 0.679718 