# vtk DataFile Version 4.2
vtk output
ASCII
DATASET POLYDATA
POINTS 1277 float
0 0 0 -0.00370229 0.000807704 -0.00152037 -0.0145085 0.00314766 -0.00594343 
-0.0319677 0.00689514 -0.0130621 -0.0556287 0.0119254 -0.0226693 -0.0850407 0.0181137 -0.0345579 
-0.119753 0.0253354 -0.0485208 -0.159313 0.0334656 -0.0643511 -0.203272 0.0423797 -0.0818415 
-0.251178 0.051953 -0.100785 -0.30258 0.0620606 -0.120975 -0.357026 0.0725779 -0.142203 
-0.414067 0.0833801 -0.164263 -0.47325 0.0943425 -0.186948 -0.534126 0.10534 -0.210051 
-0.596242 0.116249 -0.233364 -0.659148 0.126944 -0.256681 -0.722393 0.1373 -0.279795 
-0.785527 0.147192 -0.302497 -0.848097 0.156496 -0.324582 -0.909653 0.165088 -0.345842 
-0.969744 0.172841 -0.366071 -1.02803 0.179661 -0.385109 -1.08455 0.185549 -0.402974 
-1.13942 0.190529 -0.41972 -1.19279 0.194627 -0.4354 -1.24476 0.197865 -0.45007 
-1.29547 0.20027 -0.463783 -1.34505 0.201865 -0.476593 -1.39361 0.202674 -0.488555 
-1.44128 0.202722 -0.499723 -1.4882 0.202032 -0.510152 -1.53447 0.200631 -0.519894 
-1.58024 0.198541 -0.529006 -1.62563 0.195787 -0.53754 -1.67075 0.192394 -0.545551 
-1.71575 0.188385 -0.553093 -1.76073 0.183786 -0.560221 -1.80584 0.17862 -0.566989 
-1.85118 0.172912 -0.57345 -1.8969 0.166686 -0.57966 -1.94311 0.159966 -0.58567 
-1.98984 0.152755 -0.591497 -2.03704 0.145042 -0.597126 -2.08467 0.136811 -0.602539 
-2.13268 0.128051 -0.607719 -2.181 0.118747 -0.612651 -2.2296 0.108885 -0.617316 
-2.27842 0.098453 -0.621699 -2.32741 0.0874366 -0.625781 -2.37652 0.0758223 -0.629548 
-2.42571 0.0635968 -0.632981 -2.47491 0.0507464 -0.636064 -2.52408 0.0372577 -0.63878 
-2.57317 0.0231172 -0.641112 -2.62213 0.00831121 -0.643043 -2.6709 -0.00717364 -0.644557 
-2.71944 -0.0233509 -0.645637 -2.7677 -0.0402341 -0.646265 -2.81563 -0.0578368 -0.646426 
-2.86317 -0.0761724 -0.646102 -2.91027 -0.0952545 -0.645276 -2.9569 -0.115087 -0.643942 
-3.00307 -0.135652 -0.642114 -3.04878 -0.15693 -0.63981 -3.09404 -0.1789 -0.637047 
-3.13886 -0.201543 -0.633843 -3.18324 -0.224838 -0.630214 -3.22719 -0.248766 -0.62618 
-3.27073 -0.273306 -0.621756 -3.31385 -0.298438 -0.616961 -3.35656 -0.324142 -0.611811 
-3.39888 -0.350399 -0.606325 -3.44081 -0.377187 -0.60052 -3.48235 -0.404487 -0.594413 
-3.52352 -0.432279 -0.588021 -3.56433 -0.460543 -0.581362 -3.60477 -0.489258 -0.574454 
-3.64487 -0.518405 -0.567314 -3.68461 -0.547963 -0.55996 -3.72403 -0.577912 -0.552408 
-3.76311 -0.608233 -0.544677 -3.80187 -0.638907 -0.536781 -3.84032 -0.669921 -0.52873 
-3.87846 -0.701265 -0.520529 -3.9163 -0.73293 -0.512184 -3.95385 -0.764905 -0.5037 
-3.99111 -0.79718 -0.495085 -4.02809 -0.829745 -0.486342 -4.0648 -0.86259 -0.477479 
-4.10124 -0.895705 -0.468502 -4.13743 -0.929079 -0.459415 -4.17336 -0.962702 -0.450225 
-4.20906 -0.996565 -0.440938 -4.24451 -1.03066 -0.43156 -4.27974 -1.06497 -0.422097 
-4.31474 -1.09949 -0.412554 -4.34952 -1.13421 -0.402937 -4.3841 -1.16911 -0.393253 
-4.41847 -1.2042 -0.383506 -4.45265 -1.23946 -0.373704 -4.48665 -1.27487 -0.363851 
-4.52046 -1.31043 -0.353954 -4.5541 -1.34613 -0.344016 -4.58757 -1.38197 -0.334041 
-4.62088 -1.41794 -0.324032 -4.65404 -1.45403 -0.313992 -4.68705 -1.49025 -0.303925 
-4.71993 -1.52657 -0.293832 -4.75267 -1.56301 -0.283718 -4.78529 -1.59955 -0.273585 
-4.81779 -1.63619 -0.263437 -4.85018 -1.67292 -0.253276 -4.88247 -1.70973 -0.243106 
-4.91466 -1.74663 -0.23293 -4.94676 -1.78361 -0.222751 -4.97878 -1.82065 -0.212572 
-5.01073 -1.85776 -0.202397 -5.04261 -1.89493 -0.192227 -5.07442 -1.93216 -0.182067 
-5.10618 -1.96944 -0.17192 -5.13789 -2.00676 -0.161788 -5.16957 -2.04411 -0.151675 
-5.20121 -2.08151 -0.141584 -5.23281 -2.11893 -0.131517 -5.26439 -2.15638 -0.121476 
-5.29595 -2.19387 -0.111465 -5.32748 -2.23138 -0.101485 -5.359 -2.26891 -0.0915394 
-5.3905 -2.30647 -0.0816306 -5.42199 -2.34405 -0.0717609 -5.45347 -2.38164 -0.061933 
-5.48495 -2.41926 -0.0521494 -5.51642 -2.45688 -0.0424125 -5.5479 -2.49452 -0.0327248 
-5.57938 -2.53218 -0.023089 -5.61087 -2.56984 -0.0135074 -5.64237 -2.6075 -0.00398262 
-5.67389 -2.64518 0.00548285 -5.70542 -2.68285 0.0148865 -5.73698 -2.72053 0.0242258 
-5.76856 -2.7582 0.0334982 -5.80017 -2.79588 0.0427013 -5.83181 -2.83354 0.0518319 
-5.86348 -2.87121 0.0608849 -5.89518 -2.90887 0.0698548 -5.92691 -2.94653 0.0787363 
-5.95866 -2.98419 0.0875239 -5.99044 -3.02185 0.0962123 -6.02225 -3.05951 0.104796 
-6.05407 -3.09718 0.113269 -6.08593 -3.13484 0.121627 -6.1178 -3.17252 0.129864 
-6.1497 -3.21019 0.137975 -6.18161 -3.24787 0.145953 -6.21355 -3.28556 0.153795 
-6.2455 -3.32326 0.161494 -6.27747 -3.36097 0.169044 -6.30946 -3.39868 0.176442 
-6.34146 -3.43641 0.18368 -6.37348 -3.47415 0.190754 -6.40551 -3.5119 0.197658 
-6.43755 -3.54967 0.204387 -6.4696 -3.58745 0.210934 -6.50166 -3.62525 0.217292 
-6.53373 -3.66308 0.223451 -6.5658 -3.70093 0.2294 -6.59787 -3.73882 0.23513 
-6.62993 -3.77675 0.240631 -6.66198 -3.81472 0.245892 -6.69403 -3.85274 0.250905 
-6.72605 -3.89081 0.255659 -6.75807 -3.92894 0.260144 -6.79006 -3.96714 0.264351 
-6.82202 -4.00541 0.268269 -6.85396 -4.04375 0.27189 -6.88586 -4.08217 0.275202 
-6.91774 -4.12068 0.278196 -6.94957 -4.15927 0.280862 -6.98137 -4.19796 0.283191 
-7.01312 -4.23675 0.285172 -7.04482 -4.27564 0.286795 -7.07647 -4.31464 0.288051 
-7.10807 -4.35375 0.28893 -7.13959 -4.39299 0.289409 -7.17101 -4.43235 0.289455 
-7.20229 -4.47183 0.289037 -7.23339 -4.51145 0.288121 -7.26429 -4.5512 0.286675 
-7.29495 -4.59109 0.284666 -7.32533 -4.63113 0.282061 -7.35541 -4.67132 0.278827 
-7.38515 -4.71165 0.274932 -7.41452 -4.75215 0.270343 -7.44349 -4.7928 0.265027 
-7.47201 -4.83363 0.258951 -7.50006 -4.87462 0.252083 -7.52761 -4.91578 0.24439 
-7.55461 -4.95713 0.235839 -7.58105 -4.99865 0.226398 -7.60688 -5.04036 0.216033 
-7.63207 -5.08227 0.204712 -7.65659 -5.12436 0.192403 -7.68041 -5.16666 0.179072 
-7.70349 -5.20915 0.164704 -7.7258 -5.2518 0.149317 -7.74733 -5.29457 0.132932 
-7.76804 -5.33745 0.115568 -7.7879 -5.38038 0.0972474 -7.8069 -5.42334 0.0779901 
-7.82499 -5.46629 0.057817 -7.84216 -5.50921 0.0367488 -7.85838 -5.55206 0.0148063 
-7.87361 -5.5948 -0.00798991 -7.88784 -5.6374 -0.031619 -7.90104 -5.67984 -0.0560603 
-7.91318 -5.72207 -0.0812931 -7.92423 -5.76406 -0.107297 -7.93416 -5.80579 -0.13405 
-7.94295 -5.84721 -0.161533 -7.95058 -5.8883 -0.189725 -7.95701 -5.92902 -0.218604 
-7.96221 -5.96933 -0.248151 -7.96617 -6.00922 -0.278344 -7.96886 -6.04864 -0.309159 
-7.97033 -6.08761 -0.340565 -7.97061 -6.12613 -0.372527 -7.96973 -6.16422 -0.405011 
-7.96773 -6.20188 -0.437985 -7.96466 -6.23911 -0.471413 -7.96055 -6.27594 -0.505262 
-7.95543 -6.31236 -0.539499 -7.94936 -6.34838 -0.574089 -7.94235 -6.38401 -0.608999 
-7.93446 -6.41927 -0.644195 -7.92572 -6.45415 -0.679644 -7.91616 -6.48867 -0.715311 
-7.90584 -6.52283 -0.751162 -7.89477 -6.55665 -0.787164 -7.88301 -6.59013 -0.823284 
-7.87058 -6.62328 -0.859486 -7.85754 -6.6561 -0.895738 -7.8439 -6.68862 -0.932006 
-7.82973 -6.72082 -0.968256 -7.81504 -6.75273 -1.00446 -7.79985 -6.78435 -1.0406 
-7.78419 -6.8157 -1.07669 -7.76805 -6.84679 -1.11271 -7.75146 -6.87762 -1.14867 
-7.73443 -6.90822 -1.18457 -7.71697 -6.93858 -1.22039 -7.69909 -6.96873 -1.25615 
-7.6808 -6.99868 -1.29183 -7.66212 -7.02843 -1.32743 -7.64306 -7.05801 -1.36296 
-7.62363 -7.08741 -1.39841 -7.60385 -7.11666 -1.43377 -7.58373 -7.14576 -1.46905 
-7.56327 -7.17472 -1.50425 -7.5425 -7.20356 -1.53935 -7.52143 -7.23229 -1.57437 
-7.50006 -7.26093 -1.60928 -7.47842 -7.28947 -1.64411 -7.4565 -7.31794 -1.67883 
-7.43434 -7.34634 -1.71345 -7.41193 -7.37469 -1.74797 -7.38928 -7.40299 -1.78238 
-7.36639 -7.43125 -1.81668 -7.34328 -7.45947 -1.85087 -7.31994 -7.48766 -1.88493 
-7.29639 -7.51584 -1.91888 -7.27262 -7.544 -1.9527 -7.24865 -7.57215 -1.98639 
-7.22448 -7.6003 -2.01995 -7.20012 -7.62845 -2.05338 -7.17557 -7.65662 -2.08667 
-7.15084 -7.68481 -2.11981 -7.12593 -7.71303 -2.15281 -7.10085 -7.74128 -2.18566 
-7.0756 -7.76957 -2.21835 -7.05019 -7.79791 -2.25089 -7.02463 -7.8263 -2.28327 
-6.99892 -7.85475 -2.31548 -6.97307 -7.88328 -2.34753 -6.94709 -7.91187 -2.37941 
-6.92097 -7.94055 -2.41111 -6.89472 -7.96932 -2.44263 -6.86836 -7.99818 -2.47396 
-6.84188 -8.02715 -2.5051 -6.81529 -8.05622 -2.53604 -6.78859 -8.08542 -2.56677 
-6.76179 -8.11473 -2.59728 -6.7349 -8.14418 -2.62757 -6.70792 -8.17376 -2.65763 
-6.68085 -8.20349 -2.68746 -6.65371 -8.23337 -2.71705 -6.62649 -8.26341 -2.74639 
-6.5992 -8.29361 -2.77547 -6.57184 -8.32399 -2.80429 -6.54443 -8.35454 -2.83285 
-6.51696 -8.38529 -2.86113 -6.48944 -8.41622 -2.88913 -6.46188 -8.44736 -2.91684 
-6.43428 -8.4787 -2.94426 -6.40665 -8.51025 -2.97137 -6.37899 -8.54203 -2.99818 
-6.3513 -8.57404 -3.02466 -6.3236 -8.6063 -3.05082 -6.29588 -8.63882 -3.07662 
-6.26815 -8.67161 -3.10207 -6.24041 -8.70469 -3.12715 -6.21268 -8.73806 -3.15185 
-6.18494 -8.77175 -3.17615 -6.15721 -8.80575 -3.20004 -6.1295 -8.8401 -3.22351 
-6.1018 -8.87479 -3.24655 -6.07411 -8.90985 -3.26914 -6.04646 -8.94528 -3.29128 
-6.01883 -8.9811 -3.31294 -5.99124 -9.01732 -3.33413 -5.96368 -9.05395 -3.35481 
-5.93617 -9.09101 -3.37499 -5.90871 -9.1285 -3.39465 -5.88129 -9.16645 -3.41378 
-5.85393 -9.20486 -3.43236 -5.82664 -9.24375 -3.45038 -5.79944 -9.28311 -3.46779 
-5.77239 -9.32295 -3.48454 -5.74553 -9.36325 -3.50056 -5.71891 -9.40401 -3.51581 
-5.69256 -9.44523 -3.53022 -5.66655 -9.4869 -3.54373 -5.64092 -9.52902 -3.55629 
-5.61571 -9.57159 -3.56783 -5.59096 -9.61459 -3.57831 -5.56673 -9.65803 -3.58766 
-5.54306 -9.7019 -3.59583 -5.52 -9.74619 -3.60276 -5.49758 -9.7909 -3.60838 
-5.47587 -9.83603 -3.61265 -5.45491 -9.88158 -3.61551 -5.43473 -9.92753 -3.61689 
-5.4154 -9.97388 -3.61674 -5.39694 -10.0206 -3.615 -5.37942 -10.0678 -3.61161 
-5.36287 -10.1153 -3.60653 -5.34733 -10.1632 -3.59974 -5.33282 -10.2113 -3.59128 
-5.31935 -10.2595 -3.58118 -5.30695 -10.3079 -3.56948 -5.29563 -10.3562 -3.55622 
-5.28543 -10.4044 -3.54142 -5.27634 -10.4525 -3.52513 -5.2684 -10.5003 -3.50738 
[...]
CELL_DATA 1
FIELD FieldData 2
Length 1 1 double
63.829726206 
Tortuosity 1 1 double
1.0595204766 
POINT_DATA 1277
SCALARS MaximumInscribedSphereRadius float
LOOKUP_TABLE default
0.62 0.636186 0.652372 0.668558 0.684744 0.70093 0.717116 0.733302 0.749488 
0.765674 0.78186 0.798046 0.814232 0.830418 0.846604 0.86279 0.878975 0.895161 
0.911347 0.927533 0.943719 0.959592 0.968454 0.977316 0.986178 0.995041 1.0039 
1.01277 1.02163 1.03049 1.03935 1.04821 1.05708 1.06594 1.0748 1.08366 
1.09253 1.10139 1.11025 1.11911 1.12797 1.12734 1.11866 1.10998 1.1013 
1.09263 1.08395 1.07527 1.06659 1.05791 1.04923 1.04055 1.03187 1.02319 
1.01451 1.00583 0.997155 0.988476 0.979796 0.971117 0.962438 0.957551 0.966718 
0.975884 0.985051 0.994218 1.00339 1.01255 1.02172 1.03089 1.04005 1.04922 
1.05839 1.06755 1.07672 1.08589 1.09505 1.10422 1.11339 1.12255 1.13172 
1.14089 1.13964 1.1379 1.13615 1.1344 1.13265 1.13091 1.12916 1.12741 
1.12566 1.12392 1.12217 1.12042 1.11868 1.11693 1.11518 1.11343 1.11169 
1.10994 1.10819 1.10644 1.10582 1.10573 1.10563 1.10554 1.10545 1.10536 
1.10527 1.10518 1.10508 1.10499 1.1049 1.10481 1.10472 1.10463 1.10453 
1.10444 1.10435 1.10426 1.10417 1.10408 1.1106 1.1274 1.1442 1.161 
1.1778 1.1946 1.21141 1.22821 1.24501 1.26181 1.27861 1.29541 1.31221 
1.32901 1.34581 1.36261 1.37941 1.39622 1.41302 1.42982 1.4454 1.45058 
1.45576 1.46095 1.46613 1.47131 1.4765 1.48168 1.48686 1.49205 1.49723 
1.50242 1.5076 1.51278 1.51797 1.52315 1.52833 1.53352 1.5387 1.54388 
1.54907 1.54356 1.53572 1.52787 1.52003 1.51218 1.50433 1.49649 1.48864 
1.48079 1.47295 1.4651 1.45726 1.44941 1.44156 1.43372 1.42587 1.41802 
1.41018 1.40233 1.39449 1.38072 1.36191 1.34309 1.32428 1.30546 1.28664 
1.26783 1.24901 1.23019 1.21138 1.19256 1.17374 1.15493 1.13611 1.1173 
1.09848 1.07966 1.06085 1.04203 1.02321 1.00812 1.00333 0.998546 0.993759 
0.988972 0.984185 0.979398 0.974612 0.969825 0.965038 0.960251 0.955464 0.950677 
0.94589 0.941103 0.936316 0.931529 0.926742 0.921955 0.917168 0.911693 0.901995 
0.892297 0.882599 0.872901 0.863204 0.853506 0.843808 0.83411 0.824412 0.814714 
0.805017 0.795319 0.785621 0.775923 0.766225 0.756527 0.74683 0.737132 0.727434 
0.717736 0.71976 0.722927 0.726095 0.729262 0.732429 0.735597 0.738764 0.741932 
0.745099 0.748267 0.751434 0.754601 0.757769 0.760936 0.764104 0.767271 0.770438 
0.773606 0.776773 0.779941 0.786894 0.795987 0.805079 0.814172 0.823265 0.832357 
0.84145 0.850542 0.859635 0.868728 0.87782 0.886913 0.896006 0.905098 0.914191 
0.923283 0.932376 0.941469 0.950561 0.959654 0.965844 0.966762 0.96768 0.968598 
0.969516 0.970434 0.971352 0.97227 0.973188 0.974106 0.975024 0.975942 0.97686 
0.977778 0.978696 0.979614 0.980532 0.98145 0.982368 0.983286 0.984486 0.989287 
0.994087 0.998887 1.00369 1.00849 1.01329 1.01809 1.02289 1.02769 1.03249 
1.03729 1.04209 1.04689 1.05169 1.05649 1.06129 1.06609 1.07089 1.07569 
1.08049 1.0875 1.09501 1.10252 1.11003 1.11755 1.12506 1.13257 1.14009 
1.1476 1.15511 1.16262 1.17014 1.17765 1.18516 1.19267 1.20019 1.2077 
1.21521 1.22273 1.23024 1.2334 1.23374 1.23408 1.23442 1.23476 1.2351 
1.23544 1.23578 1.23613 1.23647 1.23681 1.23715 1.23749 1.23783 1.23817 
1.23851 1.23885 1.2392 1.23954 1.23988 1.24175 1.24449 1.24722 1.24996 
1.25269 1.25542 1.25816 1.26089 1.26363 1.26636 1.26909 1.27183 1.27456 
1.2773 1.28003 1.28277 1.2855 1.28823 1.29097 1.2937 1.29955 1.30933 
1.31912 1.32891 1.33869 1.34848 1.35826 1.36805 1.37784 1.38762 1.39741 
1.4072 1.41698 1.42677 1.43656 1.44634 1.45613 1.46592 1.4757 1.48549 
1.49382 1.49663 1.49943 1.50223 1.50503 1.50784 1.51064 1.51344 1.51624 
1.51905 1.52185 1.52465 1.52745 1.53026 1.53306 1.53586 1.53867 1.54147 
1.54427 1.54707 1.54988 1.55 1.55 1.55 1.55 1.55 1.55 
1.55 1.55 1.55 1.55 1.55 1.55 1.55 1.55 1.55 
1.55 1.55 1.55 1.55 1.55 1.54976 1.54942 1.54908 1.54874 
1.5484 1.54806 1.54772 1.54738 1.54704 1.5467 1.54636 1.54602 1.54568 
1.54534 1.545 1.54466 1.54432 1.54398 1.54364 1.5433 1.53878 1.5289 
1.51903 1.50915 1.49928 1.4894 1.47952 1.46965 1.45977 1.4499 1.44002 
1.43014 1.42027 1.41039 1.40052 1.39064 1.38076 1.37089 1.36101 1.35114 
1.34057 1.32716 1.31375 1.30034 1.28693 1.27352 1.26011 1.2467 1.23329 
1.21988 1.20648 1.19307 1.17966 1.16625 1.15284 1.13943 1.12602 1.11261 
1.0992 1.08579 1.07293 1.07925 1.08558 1.09191 1.09823 1.10456 1.11089 
1.11721 1.12354 1.12987 1.13619 1.14252 1.14885 1.15518 1.1615 1.16783 
1.17416 1.18048 1.18681 1.19314 1.19946 1.21176 1.22469 1.23762 1.25056 
1.26349 1.27642 1.28935 1.30228 1.31521 1.32814 1.34107 1.354 1.36694 
1.37987 1.3928 1.40573 1.41866 1.43159 1.44452 1.45745 1.45463 1.44486 
1.43509 1.42533 1.41556 1.40579 1.39602 1.38625 1.37648 1.36672 1.35695 
1.34718 1.33741 1.32764 1.31788 1.30811 1.29834 1.28857 1.2788 1.26903 
1.26352 1.26305 1.26258 1.26211 1.26165 1.26118 1.26071 1.26025 1.25978 
1.25931 1.25884 1.25838 1.25791 1.25744 1.25697 1.25651 1.25604 1.25557 
1.25511 1.25464 1.25593 1.26374 1.27155 1.27936 1.28717 1.29498 1.30279 
1.31061 1.31842 1.32623 1.33404 1.34185 1.34966 1.35747 1.36528 1.37309 
1.3809 1.38871 1.39652 1.40433 1.41214 1.40945 1.40637 1.4033 1.40022 
1.39714 1.39406 1.39098 1.38791 1.38483 1.38175 1.37867 1.3756 1.37252 
1.36944 1.36636 1.36329 1.36021 1.35713 1.35405 1.35097 1.33857 1.32202 
1.30548 1.28893 1.27239 1.25584 1.2393 1.22275 1.20621 1.18966 1.17312 
1.15658 1.14003 1.12349 1.10694 1.0904 1.07385 1.05731 1.04076 1.02422 
1.01707 1.02359 1.03012 1.03664 1.04316 1.04969 1.05621 1.06274 1.06926 
1.07579 1.08231 1.08884 1.09536 1.10188 1.10841 1.11493 1.12146 1.12798 
1.13451 1.14103 1.14651 1.14445 1.14239 1.14033 1.13827 1.13621 1.13415 
1.13209 1.13003 1.12797 1.12592 1.12386 1.1218 1.11974 1.11768 1.11562 
1.11356 1.1115 1.10944 1.10738 1.10532 1.09551 1.08436 1.07322 1.06208 
1.05094 1.0398 1.02865 1.01751 1.00637 0.995226 0.984084 0.972942 0.961799 
0.950657 0.939515 0.928373 0.917231 0.906088 0.894946 0.883804 0.874381 0.866083 
0.857786 0.849488 0.841191 0.832893 0.824596 0.816298 0.808001 0.799704 0.791406 
0.783109 0.774811 0.766514 0.758216 0.749919 0.741621 0.733324 0.725027 0.716729 
0.716337 0.730385 0.744434 0.758482 0.77253 0.786579 0.800627 0.814676 0.828724 
0.842772 0.856821 0.870869 0.884918 0.898966 0.913015 0.927063 0.941111 0.95516 
0.969208 0.983257 0.997118 1.00916 1.0212 1.03324 1.04528 1.05732 1.06936 
1.0814 1.09344 1.10549 1.11753 1.12957 1.14161 1.15365 1.16569 1.17773 
1.18977 1.20181 1.21385 1.22589 1.23793 1.24219 1.24482 1.24746 1.2501 
1.25274 1.25538 1.25801 1.26065 1.26329 1.26593 1.26856 1.2712 1.27384 
1.27648 1.27912 1.28175 1.28439 1.28703 1.28967 1.29231 1.29966 1.31059 
1.32151 1.33243 1.34335 1.35427 1.36519 1.37611 1.38703 1.39795 1.40887 
1.41979 1.43071 1.44163 1.45255 1.46347 1.47439 1.48531 1.49624 1.50716 
1.51562 1.5189 1.52218 1.52546 1.52874 1.53202 1.5353 1.53858 1.54186 
1.54514 1.54842 1.5517 1.55498 1.55826 1.56154 1.56483 1.56811 1.57139 
1.57467 1.57795 1.581 1.581 1.581 1.581 1.581 1.581 1.581 
1.581 1.581 1.581 1.581 1.581 1.581 1.581 1.581 1.581 
1.581 1.581 1.581 1.581 1.581 1.58127 1.58161 1.58195 1.58229 
1.58263 1.58297 1.58331 1.58365 1.58399 1.58433 1.58467 1.58501 1.58535 
1.58569 1.58603 1.58637 1.58671 1.58706 1.5874 1.58774 1.59293 1.60265 
1.61238 1.62211 1.63184 1.64156 1.65129 1.66102 1.67074 1.68047 1.6902 
1.69993 1.70965 1.71938 1.72911 1.73884 1.74856 1.75829 1.76802 1.77775 
1.78493 1.78371 1.78249 1.78128 1.78006 1.77884 1.77763 1.77641 1.77519 
1.77398 1.77276 1.77154 1.77033 1.76911 1.76789 1.76668 1.76546 1.76424 
1.76303 1.76181 1.76059 1.75176 1.74251 1.73325 1.724 1.71475 1.70549 
1.69624 1.68698 1.67773 1.66847 1.65922 1.64996 1.64071 1.63145 1.6222 
1.61294 1.60369 1.59443 1.58518 1.57592 1.58011 1.59119 1.60226 1.61333 
1.62441 1.63548 1.64655 1.65763 1.6687 1.67977 1.69085 1.70192 1.71299 
1.72407 1.73514 1.74621 1.75729 1.76836 1.77943 1.79051 1.79883 1.80255 
1.80627 1.81 1.81372 1.81744 1.82117 1.82489 1.82861 1.83234 1.83606 
1.83978 1.84351 1.84723 1.85095 1.85468 1.8584 1.86212 1.86585 1.86957 
1.8729 1.87226 1.87163 1.87099 1.87035 1.86971 1.86907 1.86843 1.86779 
1.86715 1.86651 1.86588 1.86524 1.8646 1.86396 1.86332 1.86268 1.86204 
1.8614 1.86076 1.86013 1.85933 1.85849 1.85765 1.85681 1.85598 1.85514 
1.8543 1.85346 1.85263 1.85179 1.85095 1.85011 1.84928 1.84844 1.8476 
1.84676 1.84593 1.84509 1.84425 1.84341 1.8395 1.83273 1.82596 1.81918 
1.81241 1.80564 1.79887 1.7921 1.78533 1.77856 1.77179 1.76502 1.75825 
1.75148 1.74471 1.73794 1.73117 1.7244 1.71763 1.71086 1.70549 1.70459 
1.70368 1.70278 1.70188 1.70097 1.70007 1.69916 1.69826 1.69735 1.69645 
1.69554 1.69464 1.69374 1.69283 1.69193 1.69102 1.69012 1.68921 1.68831 
1.6874 1.69433 1.70147 1.70861 1.71575 1.7229 1.73004 1.73718 1.74433 
1.75147 1.75861 1.76576 1.7729 1.78004 1.78719 1.79433 1.80147 1.80862 
1.81576 1.8229 1.83004 1.81882 1.80032 1.78183 1.76333 1.74484 1.72634 
1.70785 1.68935 1.67086 1.65236 1.63386 1.61537 1.59687 1.57838 1.55988 
1.54139 1.52289 1.5044 1.4859 1.4674 1.4525 1.44177 1.43104 1.4203 
1.40957 1.39884 1.38811 1.37738 1.36665 1.35592 1.34518 1.33445 1.32372 
1.31299 1.30226 1.29153 1.28079 1.27006 1.25933 1.2486 1.24103 1.24622 
1.25141 1.2566 1.26178 1.26697 1.27216 1.27735 1.28254 1.28773 1.29292 
1.29811 1.30329 1.30848 1.31367 1.31886 1.32405 1.32924 1.33443 1.33961 
1.3448 1.36177 1.37965 1.39752 1.41539 1.43326 1.45113 1.469 1.48687 
1.50474 1.52262 1.54049 1.55836 1.57623 1.5941 1.61197 1.62984 1.64771 
1.66558 1.68346 1.70133 1.70815 1.7091 1.71006 1.71102 1.71197 1.71293 
1.71389 1.71485 1.7158 1.71676 1.71772 1.71868 1.71963 1.72059 1.72155 
1.7225 1.72346 1.72442 1.72538 1.72633 1.72522 1.72066 1.7161 1.71154 
1.70698 1.70242 1.69786 1.6933 1.68874 1.68418 1.67962 1.67506 1.6705 
1.66594 1.66138 1.65682 1.65226 1.6477 1.64314 1.63858 1.63529 1.64383 
1.65237 1.66091 1.66945 1.678 1.68654 1.69508 1.70362 1.71216 1.7207 
1.72924 1.73778 1.74632 1.75486 1.7634 1.77194 1.78048 1.78902 1.79757 
1.80611 1.80265 1.79643 1.79022 1.784 1.77779 1.77158 1.76536 1.75915 
1.75293 1.74672 1.74051 1.73429 1.72808 1.72187 1.71565 1.70944 1.70322 
1.69701 1.6908 1.68458 1.67846 1.67245 1.66643 1.66042 1.6544 1.64839 
1.64237 1.63636 1.63034 1.62433 1.61831 1.6123 1.60628 1.60027 1.59425 
1.58824 1.58222 1.57621 1.57019 1.56418 1.56445 1.56528 1.56611 1.56693 
1.56776 1.56859 1.56942 1.57024 1.57107 1.5719 1.57273 1.57355 1.57438 
1.57521 1.57604 1.57686 1.57769 1.57852 1.57934 1.58017 1.581 
TEXTURE_COORDINATES TCoords 2 float
0 0 0.000783699 0 0.0015674 0 0.0023511 0 0.0031348 
0 0.0039185 0 0.00470219 0 0.00548589 0 0.00626959 0 
0.00705329 0 0.00783699 0 0.00862069 0 0.00940439 0 0.0101881 
0 0.0109718 0 0.0117555 0 0.0125392 0 0.0133229 0 
0.0141066 0 0.0148903 0 0.015674 0 0.0164577 0 0.0172414 
0 0.0180251 0 0.0188088 0 0.0195925 0 0.0203762 0 
0.0211599 0 0.0219436 0 0.0227273 0 0.023511 0 0.0242947 
0 0.0250784 0 0.0258621 0 0.0266458 0 0.0274295 0 
0.0282132 0 0.0289969 0 0.0297806 0 0.0305643 0 0.031348 
0 0.0321317 0 0.0329154 0 0.0336991 0 0.0344828 0 
0.0352665 0 0.0360502 0 0.0368339 0 0.0376176 0 0.0384013 
0 0.039185 0 0.0399687 0 0.0407524 0 0.0415361 0 
0.0423197 0 0.0431034 0 0.0438871 0 0.0446708 0 0.0454545 
0 0.0462382 0 0.0470219 0 0.0478056 0 0.0485893 0 
0.049373 0 0.0501567 0 0.0509404 0 0.0517241 0 0.0525078 
0 0.0532915 0 0.0540752 0 0.0548589 0 0.0556426 0 
0.0564263 0 0.05721 0 0.0579937 0 0.0587774 0 0.0595611 
0 0.0603448 0 0.0611285 0 0.0619122 0 0.0626959 0 
0.0634796 0 0.0642633 0 0.065047 0 0.0658307 0 0.0666144 
0 0.0673981 0 0.0681818 0 0.0689655 0 0.0697492 0 
0.0705329 0 0.0713166 0 0.0721003 0 0.072884 0 0.0736677 
0 0.0744514 0 0.0752351 0 0.0760188 0 0.0768025 0 
0.0775862 0 0.0783699 0 0.0791536 0 0.0799373 0 0.080721 
0 0.0815047 0 0.0822884 0 0.0830721 0 0.0838558 0 
0.0846395 0 0.0854232 0 0.0862069 0 0.0869906 0 0.0877743 
0 0.088558 0 0.0893417 0 0.0901254 0 0.0909091 0 
0.0916928 0 0.0924765 0 0.0932602 0 0.0940439 0 0.0948276 
0 0.0956113 0 0.096395 0 0.0971787 0 0.0979624 0 
0.0987461 0 0.0995298 0 0.100313 0 0.101097 0 0.101881 
0 0.102665 0 0.103448 0 0.104232 0 0.105016 0 
0.105799 0 0.106583 0 0.107367 0 0.10815 0 0.108934 
0 0.109718 0 0.110502 0 0.111285 0 0.112069 0 
0.112853 0 0.113636 0 0.11442 0 0.115204 0 0.115987 
0 0.116771 0 0.117555 0 0.118339 0 0.119122 0 
0.119906 0 0.12069 0 0.121473 0 0.122257 0 0.123041 
0 0.123824 0 0.124608 0 0.125392 0 0.126176 0 
0.126959 0 0.127743 0 0.128527 0 0.12931 0 0.130094 
0 0.130878 0 0.131661 0 0.132445 0 0.133229 0 
0.134013 0 0.134796 0 0.13558 0 0.136364 0 0.137147 
0 0.137931 0 0.138715 0 0.139498 0 0.140282 0 
0.141066 0 0.14185 0 0.142633 0 0.143417 0 0.144201 
0 0.144984 0 0.145768 0 0.146552 0 0.147335 0 
0.148119 0 0.148903 0 0.149687 0 0.15047 0 0.151254 
0 0.152038 0 0.152821 0 0.153605 0 0.154389 0 
0.155172 0 0.155956 0 0.15674 0 0.157524 0 0.158307 
0 0.159091 0 0.159875 0 0.160658 0 0.161442 0 
0.162226 0 0.163009 0 0.163793 0 0.164577 0 0.16536 
0 0.166144 0 0.166928 0 0.167712 0 0.168495 0 
0.169279 0 0.170063 0 0.170846 0 0.17163 0 0.172414 
0 0.173197 0 0.173981 0 0.174765 0 0.175549 0 
0.176332 0 0.177116 0 0.1779 0 0.178683 0 0.179467 
0 0.180251 0 0.181034 0 0.181818 0 0.182602 0 
0.183386 0 0.184169 0 0.184953 0 0.185737 0 0.18652 
0 0.187304 0 0.188088 0 0.188871 0 0.189655 0 
0.190439 0 0.191223 0 0.192006 0 0.19279 0 0.193574 
0 0.194357 0 0.195141 0 0.195925 0 0.196708 0 
0.197492 0 0.198276 0 0.19906 0 0.199843 0 0.200627 
0 0.201411 0 0.202194 0 0.202978 0 0.203762 0 
0.204545 0 0.205329 0 0.206113 0 0.206897 0 0.20768 
0 0.208464 0 0.209248 0 0.210031 0 0.210815 0 
0.211599 0 0.212382 0 0.213166 0 0.21395 0 0.214734 
0 0.215517 0 0.216301 0 0.217085 0 0.217868 0 
0.218652 0 0.219436 0 0.220219 0 0.221003 0 0.221787 
0 0.222571 0 0.223354 0 0.224138 0 0.224922 0 
0.225705 0 0.226489 0 0.227273 0 0.228056 0 0.22884 
0 0.229624 0 0.230408 0 0.231191 0 0.231975 0 
0.232759 0 0.233542 0 0.234326 0 0.23511 0 0.235893 
0 0.236677 0 0.237461 0 0.238245 0 0.239028 0 
0.239812 0 0.240596 0 0.241379 0 0.242163 0 0.242947 
0 0.24373 0 0.244514 0 0.245298 0 0.246082 0 
0.246865 0 0.247649 0 0.248433 0 0.249216 0 0.25 
0 0.250784 0 0.251567 0 0.252351 0 0.253135 0 
0.253918 0 0.254702 0 0.255486 0 0.25627 0 0.257053 
0 0.257837 0 0.258621 0 0.259404 0 0.260188 0 
0.260972 0 0.261755 0 0.262539 0 0.263323 0 0.264107 
0 0.26489 0 0.265674 0 0.266458 0 0.267241 0 
0.268025 0 0.268809 0 0.269592 0 0.270376 0 0.27116 
0 0.271944 0 0.272727 0 0.273511 0 0.274295 0 
0.275078 0 0.275862 0 0.276646 0 0.277429 0 0.278213 
0 0.278997 0 0.279781 0 0.280564 0 0.281348 0 
0.282132 0 0.282915 0 0.283699 0 0.284483 0 0.285266 
0 0.28605 0 0.286834 0 0.287618 0 0.288401 0 
0.289185 0 0.289969 0 0.290752 0 0.291536 0 0.29232 
0 0.293103 0 0.293887 0 0.294671 0 0.295455 0 
0.296238 0 0.297022 0 0.297806 0 0.298589 0 0.299373 
0 0.300157 0 0.30094 0 0.301724 0 0.302508 0 
0.303292 0 0.304075 0 0.304859 0 0.305643 0 0.306426 
0 0.30721 0 0.307994 0 0.308777 0 0.309561 0 
0.310345 0 0.311129 0 0.311912 0 0.312696 0 0.31348 
0 0.314263 0 0.315047 0 0.315831 0 0.316614 0 
0.317398 0 0.318182 0 0.318966 0 0.319749 0 0.320533 
0 0.321317 0 0.3221 0 0.322884 0 0.323668 0 
0.324451 0 0.325235 0 0.326019 0 0.326803 0 0.327586 
0 0.32837 0 0.329154 0 0.329937 0 0.330721 0 
0.331505 0 0.332288 0 0.333072 0 0.333856 0 0.334639 
0 0.335423 0 0.336207 0 0.336991 0 0.337774 0 
0.338558 0 0.339342 0 0.340125 0 0.340909 0 0.341693 
0 0.342476 0 0.34326 0 0.344044 0 0.344828 0 
0.345611 0 0.346395 0 0.347179 0 0.347962 0 0.348746 
0 0.34953 0 0.350313 0 0.351097 0 0.351881 0 
0.352665 0 0.353448 0 0.354232 0 0.355016 0 0.355799 
0 0.356583 0 0.357367 0 0.35815 0 0.358934 0 
0.359718 0 0.360502 0 0.361285 0 0.362069 0 0.362853 
0 0.363636 0 0.36442 0 0.365204 0 0.365987 0 
0.366771 0 0.367555 0 0.368339 0 0.369122 0 0.369906 
0 0.37069 0 0.371473 0 0.372257 0 0.373041 0 
0.373824 0 0.374608 0 0.375392 0 0.376176 0 0.376959 
0 0.377743 0 0.378527 0 0.37931 0 0.380094 0 
0.380878 0 0.381661 0 0.382445 0 0.383229 0 0.384013 
0 0.384796 0 0.38558 0 0.386364 0 0.387147 0 
0.387931 0 0.388715 0 0.389498 0 0.390282 0 0.391066 
0 0.39185 0 0.392633 0 0.393417 0 0.394201 0 
0.394984 0 0.395768 0 0.396552 0 0.397335 0 0.398119 
0 0.398903 0 0.399687 0 0.40047 0 0.401254 0 
0.402038 0 0.402821 0 0.403605 0 0.404389 0 0.405172 
0 0.405956 0 0.40674 0 0.407524 0 0.408307 0 
0.409091 0 0.409875 0 0.410658 0 0.411442 0 0.412226 
0 0.413009 0 0.413793 0 0.414577 0 0.415361 0 
0.416144 0 0.416928 0 0.417712 0 0.418495 0 0.419279 
0 0.420063 0 0.420846 0 0.42163 0 0.422414 0 
0.423197 0 0.423981 0 0.424765 0 0.425549 0 0.426332 
0 0.427116 0 0.4279 0 0.428683 0 0.429467 0 
0.430251 0 0.431034 0 0.431818 0 0.432602 0 0.433386 
0 0.434169 0 0.434953 0 0.435737 0 0.43652 0 
0.437304 0 0.438088 0 0.438871 0 0.439655 0 0.440439 
0 0.441223 0 0.442006 0 0.44279 0 0.443574 0 
0.444357 0 0.445141 0 0.445925 0 0.446708 0 0.447492 
0 0.448276 0 0.44906 0 0.449843 0 0.450627 0 
0.451411 0 0.452194 0 0.452978 0 0.453762 0 0.454545 
0 0.455329 0 0.456113 0 0.456897 0 0.45768 0 
0.458464 0 0.459248 0 0.460031 0 0.460815 0 0.461599 
0 0.462382 0 0.463166 0 0.46395 0 0.464734 0 
0.465517 0 0.466301 0 0.467085 0 0.467868 0 0.468652 
0 0.469436 0 0.470219 0 0.471003 0 0.471787 0 
0.472571 0 0.473354 0 0.474138 0 0.474922 0 0.475705 
0 0.476489 0 0.477273 0 0.478056 0 0.47884 0 
0.479624 0 0.480408 0 0.481191 0 0.481975 0 0.482759 
0 0.483542 0 0.484326 0 0.48511 0 0.485893 0 
0.486677 0 0.487461 0 0.488245 0 0.489028 0 0.489812 
0 0.490596 0 0.491379 0 0.492163 0 0.492947 0 
0.49373 0 0.494514 0 0.495298 0 0.496082 0 0.496865 
0 0.497649 0 0.498433 0 0.499216 0 0.5 0 
0.500784 0 0.501567 0 0.502351 0 0.503135 0 0.503918 
0 0.504702 0 0.505486 0 0.50627 0 0.507053 0 
0.507837 0 0.508621 0 0.509404 0 0.510188 0 0.510972 
0 0.511755 0 0.512539 0 0.513323 0 0.514107 0 
0.51489 0 0.515674 0 0.516458 0 0.517241 0 0.518025 
0 0.518809 0 0.519592 0 0.520376 0 0.52116 0 
0.521944 0 0.522727 0 0.523511 0 0.524295 0 0.525078 
0 0.525862 0 0.526646 0 0.527429 0 0.528213 0 
0.528997 0 0.529781 0 0.530564 0 0.531348 0 0.532132 
0 0.532915 0 0.533699 0 0.534483 0 0.535266 0 
0.53605 0 0.536834 0 0.537618 0 0.538401 0 0.539185 
0 0.539969 0 0.540752 0 0.541536 0 0.54232 0 
0.543103 0 0.543887 0 0.544671 0 0.545455 0 0.546238 
0 0.547022 0 0.547806 0 0.548589 0 0.549373 0 
0.550157 0 0.55094 0 0.551724 0 0.552508 0 0.553292 
0 0.554075 0 0.554859 0 0.555643 0 0.556426 0 
0.55721 0 0.557994 0 0.558777 0 0.559561 0 0.560345 
0 0.561128 0 0.561912 0 0.562696 0 0.56348 0 
0.564263 0 0.565047 0 0.565831 0 0.566614 0 0.567398 
0 0.568182 0 0.568965 0 0.569749 0 0.570533 0 
0.571317 0 0.5721 0 0.572884 0 0.573668 0 0.574451 
0 0.575235 0 0.576019 0 0.576802 0 0.577586 0 
0.57837 0 0.579154 0 0.579937 0 0.580721 0 0.581505 
0 0.582288 0 0.583072 0 0.583856 0 0.584639 0 
0.585423 0 0.586207 0 0.586991 0 0.587774 0 0.588558 
0 0.589342 0 0.590125 0 0.590909 0 0.591693 0 
0.592476 0 0.59326 0 0.594044 0 0.594828 0 0.595611 
0 0.596395 0 0.597179 0 0.597962 0 0.598746 0 
0.59953 0 0.600313 0 0.601097 0 0.601881 0 0.602665 
0 0.603448 0 0.604232 0 0.605016 0 0.605799 0 
0.606583 0 0.607367 0 0.60815 0 0.608934 0 0.609718 
0 0.610502 0 0.611285 0 0.612069 0 0.612853 0 
0.613636 0 0.61442 0 0.615204 0 0.615987 0 0.616771 
0 0.617555 0 0.618339 0 0.619122 0 0.619906 0 
0.62069 0 0.621473 0 0.622257 0 0.623041 0 0.623824 
0 0.624608 0 0.625392 0 0.626176 0 0.626959 0 
0.627743 0 0.628527 0 0.62931 0 0.630094 0 0.630878 
0 0.631661 0 0.632445 0 0.633229 0 0.634013 0 
0.634796 0 0.63558 0 0.636364 0 0.637147 0 0.637931 
0 0.638715 0 0.639498 0 0.640282 0 0.641066 0 
0.64185 0 0.642633 0 0.643417 0 0.644201 0 0.644984 
0 0.645768 0 0.646552 0 0.647335 0 0.648119 0 
0.648903 0 0.649687 0 0.65047 0 0.651254 0 0.652038 
0 0.652821 0 0.653605 0 0.654389 0 0.655172 0 