# vtk DataFile Version 4.2
vtk output
ASCII
DATASET POLYDATA
POINTS 1276 float
0 0 0 -0.00311633 0.00213596 0.001629 -0.0122126 0.00834979 0.00638132 
-0.0269099 0.0183504 0.0140549 -0.046829 0.0318469 0.0244477 -0.0715909 0.048548 0.0373577 
-0.100817 0.0681627 0.0525829 -0.134127 0.0904 0.0699211 -0.171143 0.114969 0.0891705 
-0.211486 0.141578 0.110129 -0.254777 0.169937 0.132594 -0.300636 0.199754 0.156365 
-0.348685 0.230738 0.181238 -0.398544 0.262599 0.207012 -0.449834 0.295045 0.233485 
-0.502177 0.327784 0.260454 -0.555194 0.360527 0.287719 -0.608505 0.392982 0.315076 
-0.661731 0.424858 0.342324 -0.714493 0.455864 0.36926 -0.766412 0.485708 0.395683 
-0.817111 0.514101 0.421391 -0.86636 0.54087 0.446262 -0.914229 0.566078 0.470331 
-0.960822 0.589814 0.493653 -1.00624 0.612168 0.516281 -1.0506 0.633231 0.53827 
-1.09399 0.653092 0.559674 -1.13652 0.671842 0.580546 -1.1783 0.689571 0.600943 
-1.21943 0.706368 0.620916 -1.26002 0.722325 0.640522 -1.30016 0.737531 0.659813 
-1.33997 0.752075 0.678844 -1.37955 0.766049 0.697669 -1.419 0.779543 0.716343 
-1.45842 0.792645 0.73492 -1.49793 0.805447 0.753453 -1.53763 0.818039 0.771997 
-1.57761 0.83051 0.790606 -1.61799 0.842951 0.809335 -1.65887 0.855447 0.828234 
-1.70026 0.868024 0.847317 -1.74215 0.880661 0.866567 -1.7845 0.893339 0.885967 
-1.8273 0.906035 0.905502 -1.8705 0.918731 0.925154 -1.91408 0.931404 0.944906 
-1.95802 0.944034 0.964743 -2.00228 0.956601 0.984648 -2.04685 0.969084 1.0046 
-2.09168 0.981463 1.02459 -2.13675 0.993715 1.0446 -2.18204 1.00582 1.06461 
-2.22751 1.01776 1.0846 -2.27314 1.02951 1.10456 -2.3189 1.04106 1.12447 
-2.36477 1.05237 1.14432 -2.4107 1.06344 1.16408 -2.45668 1.07423 1.18375 
-2.50268 1.08474 1.2033 -2.54868 1.09493 1.22272 -2.59463 1.1048 1.24199 
-2.64056 1.11435 1.26112 -2.68647 1.1236 1.28011 -2.73236 1.13256 1.29896 
-2.77823 1.14124 1.31768 -2.8241 1.14966 1.33627 -2.86997 1.15783 1.35473 
-2.91584 1.16577 1.37307 -2.96172 1.17348 1.39128 -3.00762 1.18097 1.40938 
-3.05353 1.18828 1.42736 -3.09948 1.19539 1.44524 -3.14545 1.20234 1.463 
-3.19146 1.20913 1.48066 -3.23752 1.21577 1.49822 -3.28363 1.22228 1.51568 
-3.32979 1.22868 1.53304 -3.37601 1.23496 1.55032 -3.42229 1.24116 1.5675 
-3.46865 1.24728 1.5846 -3.51508 1.25333 1.60162 -3.56159 1.25931 1.61855 
-3.60817 1.26523 1.6354 -3.65483 1.27109 1.65217 -3.70155 1.27688 1.66885 
-3.74834 1.2826 1.68544 -3.79519 1.28826 1.70194 -3.8421 1.29385 1.71836 
-3.88907 1.29937 1.73468 -3.9361 1.30482 1.75091 -3.98318 1.3102 1.76705 
-4.03032 1.31552 1.7831 -4.0775 1.32076 1.79905 -4.12474 1.32593 1.81491 
-4.17201 1.33103 1.83067 -4.21933 1.33606 1.84633 -4.26669 1.34102 1.86189 
-4.31409 1.34591 1.87735 -4.36153 1.35072 1.89271 -4.40899 1.35546 1.90797 
-4.45649 1.36013 1.92312 -4.50402 1.36472 1.93818 -4.55158 1.36923 1.95313 
-4.59917 1.37367 1.96798 -4.64678 1.37804 1.98273 -4.69443 1.38233 1.99738 
-4.74211 1.38655 2.01194 -4.78981 1.39069 2.02641 -4.83755 1.39475 2.04078 
-4.88531 1.39874 2.05507 -4.9331 1.40265 2.06926 -4.98093 1.40648 2.08337 
-5.02878 1.41024 2.09739 -5.07666 1.41392 2.11133 -5.12456 1.41752 2.12519 
-5.1725 1.42104 2.13897 -5.22047 1.42449 2.15266 -5.26846 1.42785 2.16628 
-5.31648 1.43114 2.17982 -5.36453 1.43435 2.19329 -5.41261 1.43748 2.20669 
-5.46072 1.44053 2.22001 -5.50885 1.4435 2.23327 -5.55701 1.44637 2.24646 
-5.60519 1.44916 2.25959 -5.6534 1.45184 2.27265 -5.70163 1.45442 2.28566 
-5.74988 1.4569 2.2986 -5.79816 1.45926 2.31149 -5.84645 1.46151 2.32433 
-5.89477 1.46363 2.33712 -5.9431 1.46563 2.34986 -5.99145 1.46751 2.36256 
-6.03982 1.46925 2.37521 -6.0882 1.47085 2.38782 -6.1366 1.47231 2.40038 
-6.18501 1.47362 2.41292 -6.23344 1.47478 2.42542 -6.28187 1.47579 2.43788 
-6.33032 1.47663 2.45032 -6.37878 1.47731 2.46272 -6.42725 1.47782 2.47511 
-6.47572 1.47816 2.48747 -6.5242 1.47831 2.49981 -6.57269 1.47827 2.51213 
-6.62117 1.47803 2.52445 -6.66966 1.47759 2.53676 -6.71815 1.47693 2.54906 
-6.76663 1.47605 2.56137 -6.8151 1.47494 2.57367 -6.86357 1.47359 2.58599 
-6.91203 1.472 2.59831 -6.96048 1.47016 2.61065 -7.00891 1.46806 2.623 
-7.05733 1.46569 2.63538 -7.10574 1.46305 2.64778 -7.15412 1.46012 2.66021 
-7.20249 1.45691 2.67268 -7.25083 1.4534 2.68517 -7.29915 1.44958 2.69771 
-7.34745 1.44546 2.71029 -7.39571 1.44101 2.72292 -7.44394 1.43623 2.7356 
-7.49213 1.43111 2.74834 -7.54026 1.42562 2.76114 -7.58833 1.41976 2.77402 
-7.63633 1.41351 2.78698 -7.68425 1.40685 2.80003 -7.73207 1.39977 2.81318 
-7.7798 1.39225 2.82643 -7.82742 1.38429 2.83978 -7.87492 1.37586 2.85326 
-7.92229 1.36695 2.86686 -7.96953 1.35754 2.88058 -8.01662 1.34763 2.89445 
-8.06355 1.33719 2.90847 -8.11032 1.32621 2.92263 -8.15692 1.31468 2.93696 
-8.20333 1.30258 2.95145 -8.24956 1.2899 2.96612 -8.29558 1.27662 2.98096 
-8.34139 1.26272 2.996 -8.38697 1.24821 3.01123 -8.43232 1.23307 3.02665 
-8.4774 1.21732 3.04227 -8.52221 1.20094 3.0581 -8.56673 1.18394 3.07412 
-8.61093 1.16633 3.09036 -8.65481 1.14809 3.1068 -8.69833 1.12923 3.12345 
-8.7415 1.10976 3.14031 -8.78428 1.08966 3.15739 -8.82666 1.06894 3.17469 
-8.86863 1.0476 3.19221 -8.91016 1.02565 3.20996 -8.95123 1.00307 3.22792 
-8.99184 0.979876 3.24612 -9.03196 0.956061 3.26455 -9.07158 0.931628 3.28321 
-9.11067 0.906575 3.3021 -9.14922 0.880904 3.32123 -9.18722 0.854614 3.34061 
-9.22464 0.827711 3.36022 -9.2615 0.800213 3.38007 -9.2978 0.772142 3.40016 
-9.33355 0.743517 3.42047 -9.36875 0.714359 3.44101 -9.40341 0.684689 3.46177 
-9.43753 0.654527 3.48274 -9.47113 0.623892 3.50392 -9.5042 0.592807 3.52531 
-9.53676 0.561291 3.5469 -9.56881 0.529365 3.56869 -9.60035 0.497049 3.59067 
-9.63139 0.464364 3.61284 -9.66195 0.431329 3.63519 -9.69201 0.397967 3.65772 
-9.7216 0.364296 3.68043 -9.75071 0.330338 3.70331 -9.77935 0.296113 3.72636 
-9.80754 0.261641 3.74956 -9.83526 0.226943 3.77293 -9.86254 0.192038 3.79645 
-9.88938 0.156939 3.82012 -9.91581 0.121655 3.84393 -9.94182 0.0861954 3.86789 
-9.96745 0.0505715 3.892 -9.99271 0.0147927 3.91625 -10.0176 -0.0211309 3.94063 
-10.0422 -0.0571894 3.96516 -10.0664 -0.0933729 3.98981 -10.0903 -0.129671 4.0146 
-10.1139 -0.166075 4.03952 -10.1372 -0.202573 4.06456 -10.1603 -0.239157 4.08973 
-10.1831 -0.275815 4.11502 -10.2057 -0.312539 4.14043 -10.228 -0.349318 4.16596 
-10.2501 -0.386141 4.1916 -10.2721 -0.423001 4.21736 -10.2939 -0.459885 4.24322 
-10.3155 -0.496784 4.2692 -10.3369 -0.53369 4.29527 -10.3583 -0.570594 4.32146 
-10.3795 -0.607493 4.34774 -10.4006 -0.644383 4.37412 -10.4216 -0.68126 4.40059 
-10.4425 -0.71812 4.42715 -10.4633 -0.754959 4.4538 -10.4841 -0.791773 4.48053 
-10.5048 -0.828557 4.50734 -10.5255 -0.865309 4.53423 -10.5461 -0.902023 4.5612 
-10.5668 -0.938697 4.58824 -10.5874 -0.975325 4.61534 -10.608 -1.0119 4.64251 
-10.6287 -1.04843 4.66974 -10.6493 -1.0849 4.69703 -10.67 -1.1213 4.72437 
-10.6908 -1.15765 4.75177 -10.7116 -1.19392 4.77922 -10.7325 -1.23012 4.80671 
-10.7535 -1.26624 4.83425 -10.7745 -1.30228 4.86182 -10.7957 -1.33824 4.88942 
-10.817 -1.37412 4.91705 -10.8384 -1.40991 4.9447 -10.8599 -1.44562 4.97236 
-10.8816 -1.48124 5.00003 -10.9034 -1.51677 5.02769 -10.9254 -1.55222 5.05534 
-10.9475 -1.58757 5.08298 -10.9698 -1.62283 5.11059 -10.9923 -1.658 5.13818 
-11.0149 -1.69308 5.16572 -11.0378 -1.72806 5.19323 -11.0609 -1.76294 5.22068 
-11.0841 -1.79772 5.24808 -11.1076 -1.83241 5.27542 -11.1313 -1.867 5.30268 
-11.1553 -1.90148 5.32987 -11.1795 -1.93586 5.35698 -11.2039 -1.97014 5.38399 
-11.2287 -2.00431 5.41091 -11.2536 -2.03838 5.43771 -11.2789 -2.07234 5.46439 
-11.3045 -2.10619 5.49092 -11.3303 -2.13994 5.5173 -11.3565 -2.17358 5.54351 
-11.383 -2.20712 5.56954 -11.4098 -2.24055 5.59537 -11.4369 -2.27387 5.62099 
-11.4645 -2.30709 5.64638 -11.4923 -2.3402 5.67153 -11.5205 -2.3732 5.69643 
-11.5492 -2.40609 5.72105 -11.5782 -2.43888 5.7454 -11.6075 -2.47156 5.76944 
-11.6373 -2.50413 5.79317 -11.6676 -2.53659 5.81658 -11.6982 -2.56895 5.83964 
-11.7293 -2.60119 5.86235 -11.7608 -2.63333 5.88469 -11.7928 -2.66536 5.90664 
-11.8252 -2.69728 5.92818 -11.8581 -2.72908 5.94926 -11.8914 -2.76078 5.96985 
-11.9252 -2.79235 5.98992 -11.9594 -2.82381 6.00942 -11.994 -2.85515 6.02831 
-12.0291 -2.88637 6.04657 -12.0645 -2.91747 6.06415 -12.1004 -2.94844 6.08101 
-12.1367 -2.97928 6.09712 -12.1734 -3.01 6.11244 -12.2106 -3.04059 6.12694 
-12.2481 -3.07104 6.14057 -12.286 -3.10137 6.1533 -12.3243 -3.13156 6.1651 
-12.3629 -3.16161 6.17591 -12.402 -3.19152 6.18571 -12.4414 -3.22129 6.19447 
-12.4812 -3.25092 6.20213 -12.5214 -3.28041 6.20867 -12.5619 -3.30975 6.21407 
-12.6027 -3.33895 6.21832 -12.6438 -3.36802 6.22143 -12.685 -3.39696 6.2234 
-12.7265 -3.42577 6.22423 -12.768 -3.45445 6.22391 -12.8097 -3.48302 6.22245 
-12.8514 -3.51146 6.21985 -12.8931 -3.5398 6.21611 -12.9348 -3.56802 6.21123 
-12.9764 -3.59614 6.20521 -13.0179 -3.62416 6.19805 -13.0592 -3.65207 6.18975 
-13.1003 -3.6799 6.18031 -13.1411 -3.70763 6.16974 -13.1817 -3.73527 6.15802 
-13.2219 -3.76284 6.14516 -13.2618 -3.79032 6.13117 -13.3012 -3.81773 6.11604 
-13.3402 -3.84506 6.09977 -13.3787 -3.87233 6.08238 -13.4166 -3.89955 6.0639 
-13.4541 -3.92673 6.04437 -13.491 -3.9539 6.02383 -13.5274 -3.98107 6.00232 
-13.5632 -4.00825 5.97988 -13.5985 -4.03546 5.95655 -13.6331 -4.06271 5.93236 
-13.6672 -4.09003 5.90736 -13.7007 -4.11742 5.88159 -13.7335 -4.14491 5.85508 
-13.7657 -4.1725 5.82787 -13.7973 -4.20022 5.8 -13.8282 -4.22808 5.77152 
-13.8584 -4.2561 5.74245 -13.8879 -4.28429 5.71284 -13.9168 -4.31266 5.68273 
-13.9449 -4.34124 5.65216 -13.9723 -4.37004 5.62116 -13.999 -4.39907 5.58978 
-14.0249 -4.42835 5.55805 -14.0501 -4.45789 5.526 -14.0746 -4.48769 5.49364 
-14.0982 -4.51775 5.46102 -14.1212 -4.54809 5.42813 -14.1434 -4.57871 5.39502 
-14.1648 -4.60961 5.36171 -14.1856 -4.6408 5.32821 -14.2055 -4.67228 5.29455 
-14.2248 -4.70407 5.26076 -14.2433 -4.73615 5.22685 -14.2611 -4.76855 5.19286 
-14.2781 -4.80126 5.1588 -14.2944 -4.8343 5.1247 -14.3099 -4.86766 5.09058 
[...]
CELL_DATA 1
FIELD FieldData 2
Length 1 1 double
63.738854929 
Tortuosity 1 1 double
1.1115163277 
POINT_DATA 1276
SCALARS MaximumInscribedSphereRadius float
LOOKUP_TABLE default
1.55 1.53473 1.51947 1.5042 1.48893 1.47366 1.4584 1.44313 1.42786 
1.41259 1.39733 1.38206 1.36679 1.35152 1.33626 1.32099 1.30572 1.29045 
1.27519 1.25992 1.24465 1.23015 1.21806 1.20597 1.19388 1.18179 1.16971 
1.15762 1.14553 1.13344 1.12135 1.10926 1.09717 1.08509 1.073 1.06091 
1.04882 1.03673 1.02464 1.01256 1.00047 0.999326 1.00494 1.01054 1.01615 
1.02176 1.02737 1.03298 1.03859 1.0442 1.04981 1.05542 1.06103 1.06664 
1.07225 1.07785 1.08346 1.08907 1.09468 1.10029 1.1059 1.1115 1.11696 
1.12243 1.12789 1.13336 1.13882 1.14429 1.14975 1.15522 1.16068 1.16615 
1.17161 1.17708 1.18254 1.18801 1.19347 1.19894 1.2044 1.20986 1.21533 
1.22079 1.22228 1.22319 1.2241 1.22501 1.22593 1.22684 1.22775 1.22866 
1.22958 1.23049 1.2314 1.23231 1.23322 1.23414 1.23505 1.23596 1.23687 
1.23779 1.2387 1.23961 1.2385 1.23588 1.23325 1.23063 1.22801 1.22539 
1.22277 1.22014 1.21752 1.2149 1.21228 1.20966 1.20703 1.20441 1.20179 
1.19917 1.19655 1.19392 1.1913 1.18868 1.18485 1.1781 1.17134 1.16459 
1.15783 1.15107 1.14432 1.13756 1.13081 1.12405 1.11729 1.11054 1.10378 
1.09703 1.09027 1.08352 1.07676 1.07 1.06325 1.05649 1.04976 1.04777 
1.04578 1.04378 1.04179 1.0398 1.03781 1.03582 1.03383 1.03183 1.02984 
1.02785 1.02586 1.02387 1.02188 1.01988 1.01789 1.0159 1.01391 1.01192 
1.00993 1.02103 1.03721 1.05339 1.06957 1.08575 1.10193 1.11811 1.13428 
1.15046 1.16664 1.18282 1.199 1.21518 1.23136 1.24753 1.26371 1.27989 
1.29607 1.31225 1.32843 1.34116 1.3495 1.35784 1.36618 1.37452 1.38286 
1.3912 1.39954 1.40788 1.41622 1.42456 1.4329 1.44124 1.44958 1.45792 
1.46626 1.4746 1.48294 1.49128 1.49962 1.50549 1.50053 1.49557 1.4906 
1.48564 1.48068 1.47572 1.47075 1.46579 1.46083 1.45587 1.4509 1.44594 
1.44098 1.43602 1.43105 1.42609 1.42113 1.41617 1.4112 1.40624 1.40028 
1.39421 1.38815 1.38208 1.37601 1.36995 1.36388 1.35782 1.35175 1.34568 
1.33962 1.33355 1.32749 1.32142 1.31535 1.30929 1.30322 1.29715 1.29109 
1.28502 1.27946 1.2742 1.26894 1.26369 1.25843 1.25317 1.24792 1.24266 
1.2374 1.23214 1.22689 1.22163 1.21637 1.21111 1.20586 1.2006 1.19534 
1.19008 1.18483 1.17957 1.178 1.18371 1.18942 1.19513 1.20083 1.20654 
1.21225 1.21796 1.22367 1.22938 1.23508 1.24079 1.2465 1.25221 1.25792 
1.26363 1.26933 1.27504 1.28075 1.28646 1.29244 1.30361 1.31478 1.32595 
1.33711 1.34828 1.35945 1.37062 1.38178 1.39295 1.40412 1.41529 1.42645 
1.43762 1.44879 1.45996 1.47112 1.48229 1.49346 1.50463 1.51579 1.51631 
1.51371 1.51111 1.50851 1.50591 1.50331 1.50071 1.49811 1.49551 1.49292 
1.49032 1.48772 1.48512 1.48252 1.47992 1.47732 1.47472 1.47212 1.46952 
1.46692 1.46451 1.46228 1.46005 1.45782 1.45559 1.45336 1.45113 1.4489 
1.44667 1.44444 1.44221 1.43998 1.43775 1.43552 1.43329 1.43106 1.42883 
1.4266 1.42437 1.42214 1.42152 1.42518 1.42884 1.43251 1.43617 1.43983 
1.44349 1.44715 1.45082 1.45448 1.45814 1.4618 1.46546 1.46913 1.47279 
1.47645 1.48011 1.48377 1.48744 1.4911 1.49476 1.49089 1.48701 1.48314 
1.47927 1.4754 1.47153 1.46765 1.46378 1.45991 1.45604 1.45217 1.44829 
1.44442 1.44055 1.43668 1.4328 1.42893 1.42506 1.42119 1.41732 1.41076 
1.40326 1.39575 1.38824 1.38073 1.37322 1.36572 1.35821 1.3507 1.34319 
1.33568 1.32818 1.32067 1.31316 1.30565 1.29815 1.29064 1.28313 1.27562 
1.26811 1.26213 1.25782 1.25352 1.24922 1.24491 1.24061 1.2363 1.232 
1.2277 1.22339 1.21909 1.21478 1.21048 1.20618 1.20187 1.19757 1.19326 
1.18896 1.18466 1.18035 1.17671 1.17572 1.17474 1.17375 1.17276 1.17178 
1.17079 1.1698 1.16881 1.16783 1.16684 1.16585 1.16486 1.16388 1.16289 
1.1619 1.16091 1.15993 1.15894 1.15795 1.15696 1.1617 1.16697 1.17223 
1.1775 1.18276 1.18803 1.19329 1.19856 1.20382 1.20909 1.21435 1.21962 
1.22488 1.23015 1.23541 1.24068 1.24594 1.25121 1.25647 1.26174 1.26816 
1.27525 1.28235 1.28945 1.29654 1.30364 1.31073 1.31783 1.32492 1.33202 
1.33911 1.34621 1.3533 1.3604 1.36749 1.37459 1.38168 1.38878 1.39587 
1.40297 1.4117 1.42343 1.43516 1.44689 1.45862 1.47035 1.48208 1.49381 
1.50554 1.51727 1.529 1.54073 1.55246 1.56419 1.57592 1.58765 1.59938 
1.61111 1.62285 1.63458 1.64598 1.65371 1.66144 1.66917 1.6769 1.68463 
1.69236 1.70009 1.70782 1.71555 1.72328 1.73101 1.73874 1.74647 1.7542 
1.76193 1.76966 1.77739 1.78512 1.79285 1.80058 1.79794 1.7915 1.78507 
1.77864 1.7722 1.76577 1.75934 1.7529 1.74647 1.74004 1.7336 1.72717 
1.72073 1.7143 1.70787 1.70143 1.695 1.68857 1.68213 1.6757 1.67025 
1.66503 1.65982 1.65461 1.6494 1.64418 1.63897 1.63376 1.62854 1.62333 
1.61812 1.61291 1.60769 1.60248 1.59727 1.59205 1.58684 1.58163 1.57641 
1.5712 1.56599 1.56078 1.55048 1.53962 1.52876 1.5179 1.50705 1.49619 
1.48533 1.47447 1.46361 1.45276 1.4419 1.43104 1.42018 1.40933 1.39847 
1.38798 1.37823 1.36849 1.35875 1.349 1.33926 1.32951 1.31977 1.31002 
1.30028 1.29053 1.28079 1.27104 1.2613 1.25155 1.24181 1.23206 1.22232 
1.21257 1.20283 1.19309 1.18365 1.17535 1.16705 1.15875 1.15045 1.14215 
1.13385 1.12555 1.11725 1.10895 1.10065 1.09234 1.08404 1.07574 1.06744 
1.05914 1.05084 1.04254 1.03424 1.02594 1.01771 1.01339 1.00906 1.00473 
1.0004 0.996067 0.991738 0.987408 0.983079 0.978749 0.97442 0.97009 0.965761 
0.961431 0.957102 0.952772 0.948443 0.944113 0.939784 0.935454 0.931125 0.930328 
0.93077 0.931212 0.931655 0.932097 0.93254 0.932982 0.933425 0.933867 0.93431 
0.934752 0.935195 0.935637 0.93608 0.936522 0.936964 0.937407 0.937849 0.938292 
0.938734 0.940993 0.94544 0.949887 0.954334 0.95878 0.963227 0.967674 0.972121 
0.976568 0.981015 0.985462 0.989908 0.994355 0.998802 1.00325 1.0077 1.01214 
1.01659 1.02104 1.02548 1.03106 1.0427 1.05434 1.06597 1.07761 1.08925 
1.10088 1.11252 1.12416 1.1358 1.14743 1.15907 1.17071 1.18234 1.19398 
1.20562 1.21725 1.22889 1.24053 1.25217 1.2638 1.28043 1.29763 1.31483 
1.33202 1.34922 1.36642 1.38361 1.40081 1.41801 1.43521 1.4524 1.4696 
1.4868 1.50399 1.52119 1.53839 1.55559 1.57278 1.58998 1.60718 1.62006 
1.63082 1.64157 1.65232 1.66308 1.67383 1.68458 1.69534 1.70609 1.71684 
1.7276 1.73835 1.7491 1.75985 1.77061 1.78136 1.79211 1.80287 1.81362 
1.82437 1.83155 1.83298 1.83441 1.83584 1.83727 1.8387 1.84013 1.84156 
1.84299 1.84442 1.84585 1.84728 1.84871 1.85014 1.85157 1.853 1.85443 
1.85586 1.85729 1.85872 1.86 1.86 1.86 1.86 1.86 1.86 
1.86 1.86 1.86 1.86 1.86 1.86 1.86 1.86 1.86 
1.86 1.86 1.86 1.86 1.86 1.86 1.85944 1.85877 1.85809 
1.85741 1.85673 1.85606 1.85538 1.8547 1.85402 1.85335 1.85267 1.85199 
1.85131 1.85064 1.84996 1.84928 1.8486 1.84793 1.84725 1.84657 1.84181 
1.83353 1.82525 1.81698 1.8087 1.80042 1.79215 1.78387 1.77559 1.76732 
1.75904 1.75076 1.74249 1.73421 1.72593 1.71766 1.70938 1.7011 1.69283 
1.68455 1.67477 1.6606 1.64644 1.63227 1.61811 1.60394 1.58978 1.57562 
1.56145 1.54729 1.53312 1.51896 1.50479 1.49063 1.47647 1.4623 1.44814 
1.43397 1.41981 1.40565 1.39148 1.38911 1.38707 1.38504 1.383 1.38096 
1.37893 1.37689 1.37486 1.37282 1.37078 1.36875 1.36671 1.36467 1.36264 
1.3606 1.35856 1.35653 1.35449 1.35246 1.35042 1.35493 1.36244 1.36995 
1.37746 1.38497 1.39248 1.4 1.40751 1.41502 1.42253 1.43004 1.43755 
1.44506 1.45257 1.46008 1.46759 1.4751 1.48261 1.49012 1.49763 1.50308 
1.50544 1.5078 1.51016 1.51252 1.51488 1.51724 1.5196 1.52196 1.52432 
1.52668 1.52904 1.5314 1.53376 1.53611 1.53847 1.54083 1.54319 1.54555 
1.54791 1.55 1.55 1.55 1.55 1.55 1.55 1.55 1.55 
1.55 1.55 1.55 1.55 1.55 1.55 1.55 1.55 1.55 
1.55 1.55 1.55 1.55 1.55 1.55 1.55 1.55 1.55 
1.55 1.55 1.55 1.55 1.55 1.55 1.55 1.55 1.55 
1.55 1.55 1.55 1.55 1.55 1.55 1.55 1.55 1.55 
1.55 1.55 1.55 1.55 1.55 1.55 1.55 1.55 1.55 
1.55 1.55 1.55 1.55 1.55 1.55 1.55 1.55 1.55 
1.55 1.55 1.55 1.55 1.55 1.55 1.55 1.55 1.55 
1.55 1.55 1.55 1.55 1.55 1.55 1.55 1.55 1.55 
1.55 1.55 1.55 1.55 1.55 1.55 1.55 1.55 1.55 
1.55 1.55 1.55 1.55 1.55 1.55 1.55 1.55 1.55 
1.55 1.55 1.55 1.55 1.55 1.55 1.55 1.55 1.55 
1.55 1.55 1.55 1.55 1.55 1.55 1.55 1.55 1.55 
1.55 1.55 1.55 1.55 1.55 1.55 1.54849 1.54491 1.54132 
1.53774 1.53415 1.53057 1.52698 1.5234 1.51982 1.51623 1.51265 1.50906 
1.50548 1.5019 1.49831 1.49473 1.49114 1.48756 1.48398 1.48039 1.47593 
1.46611 1.4563 1.44648 1.43666 1.42684 1.41702 1.4072 1.39738 1.38757 
1.37775 1.36793 1.35811 1.34829 1.33847 1.32865 1.31883 1.30902 1.2992 
1.28938 1.27956 1.27581 1.27306 1.27031 1.26756 1.26481 1.26206 1.2593 
1.25655 1.2538 1.25105 1.2483 1.24554 1.24279 1.24004 1.23729 1.23454 
1.23178 1.22903 1.22628 1.22353 1.22812 1.23812 1.24813 1.25813 1.26813 
1.27814 1.28814 1.29815 1.30815 1.31815 1.32816 1.33816 1.34817 1.35817 
1.36817 1.37818 1.38818 1.39819 1.40819 1.41819 1.42708 1.43322 1.43937 
1.44552 1.45167 1.45781 1.46396 1.47011 1.47626 1.4824 1.48855 1.4947 
1.50085 1.50699 1.51314 1.51929 1.52544 1.53158 1.53773 1.54388 1.55 
1.55004 1.55008 1.55011 1.55015 1.55019 1.55022 1.55026 1.5503 1.55034 
1.55037 1.55041 1.55045 1.55049 1.55052 1.55056 1.5506 1.55064 1.55067 
1.55071 1.55075 1.55102 1.55138 1.55175 1.55211 1.55247 1.55283 1.55319 
1.55356 1.55392 1.55428 1.55464 1.55501 1.55537 1.55573 1.55609 1.55646 
1.55682 1.55718 1.55754 1.55791 1.55839 1.55902 1.55966 1.56029 1.56093 
1.56156 1.5622 1.56284 1.56347 1.56411 1.56474 1.56538 1.56601 1.56665 
1.56729 1.56792 1.56856 1.56919 1.56983 1.57046 1.57037 1.56586 1.56135 
1.55684 1.55232 1.54781 1.5433 1.53879 1.53427 1.52976 1.52525 1.52073 
1.51622 1.51171 1.5072 1.50268 1.49817 1.49366 1.48915 1.48463 1.48012 
1.47158 1.46253 1.45348 1.44444 1.43539 1.42634 1.4173 1.40825 1.3992 
1.39016 1.38111 1.37206 1.36302 1.35397 1.34492 1.33588 1.32683 1.31778 
1.30874 1.29969 1.29943 1.30919 1.31895 1.32871 1.33847 1.34822 1.35798 
1.36774 1.3775 1.38726 1.39702 1.40678 1.41654 1.42629 1.43605 1.44581 
1.45557 1.46533 1.47509 1.48485 1.49873 1.51429 1.52986 1.54542 1.56098 
1.57655 1.59211 1.60768 1.62324 1.6388 1.65437 1.66993 1.68549 1.70106 
1.71662 1.73218 1.74775 1.76331 1.77887 1.79444 1.81 
TEXTURE_COORDINATES TCoords 2 float
0 0 0.000784314 0 0.00156863 0 0.00235294 0 0.00313725 
0 0.00392157 0 0.00470588 0 0.0054902 0 0.00627451 0 
0.00705882 0 0.00784314 0 0.00862745 0 0.00941176 0 0.0101961 
0 0.0109804 0 0.0117647 0 0.012549 0 0.0133333 0 
0.0141176 0 0.014902 0 0.0156863 0 0.0164706 0 0.0172549 
0 0.0180392 0 0.0188235 0 0.0196078 0 0.0203922 0 
0.0211765 0 0.0219608 0 0.0227451 0 0.0235294 0 0.0243137 
0 0.025098 0 0.0258824 0 0.0266667 0 0.027451 0 
0.0282353 0 0.0290196 0 0.0298039 0 0.0305882 0 0.0313726 
0 0.0321569 0 0.0329412 0 0.0337255 0 0.0345098 0 
0.0352941 0 0.0360784 0 0.0368627 0 0.0376471 0 0.0384314 
0 0.0392157 0 0.04 0 0.0407843 0 0.0415686 0 
0.0423529 0 0.0431373 0 0.0439216 0 0.0447059 0 0.0454902 
0 0.0462745 0 0.0470588 0 0.0478431 0 0.0486275 0 
0.0494118 0 0.0501961 0 0.0509804 0 0.0517647 0 0.052549 
0 0.0533333 0 0.0541176 0 0.054902 0 0.0556863 0 
0.0564706 0 0.0572549 0 0.0580392 0 0.0588235 0 0.0596078 
0 0.0603922 0 0.0611765 0 0.0619608 0 0.0627451 0 
0.0635294 0 0.0643137 0 0.065098 0 0.0658824 0 0.0666667 
0 0.067451 0 0.0682353 0 0.0690196 0 0.0698039 0 
0.0705882 0 0.0713725 0 0.0721569 0 0.0729412 0 0.0737255 
0 0.0745098 0 0.0752941 0 0.0760784 0 0.0768627 0 
0.0776471 0 0.0784314 0 0.0792157 0 0.08 0 0.0807843 
0 0.0815686 0 0.0823529 0 0.0831373 0 0.0839216 0 
0.0847059 0 0.0854902 0 0.0862745 0 0.0870588 0 0.0878431 
0 0.0886275 0 0.0894118 0 0.0901961 0 0.0909804 0 
0.0917647 0 0.092549 0 0.0933333 0 0.0941176 0 0.094902 
0 0.0956863 0 0.0964706 0 0.0972549 0 0.0980392 0 
0.0988235 0 0.0996078 0 0.100392 0 0.101176 0 0.101961 
0 0.102745 0 0.103529 0 0.104314 0 0.105098 0 
0.105882 0 0.106667 0 0.107451 0 0.108235 0 0.10902 
0 0.109804 0 0.110588 0 0.111373 0 0.112157 0 
0.112941 0 0.113725 0 0.11451 0 0.115294 0 0.116078 
0 0.116863 0 0.117647 0 0.118431 0 0.119216 0 
0.12 0 0.120784 0 0.121569 0 0.122353 0 0.123137 
0 0.123922 0 0.124706 0 0.12549 0 0.126275 0 
0.127059 0 0.127843 0 0.128627 0 0.129412 0 0.130196 
0 0.13098 0 0.131765 0 0.132549 0 0.133333 0 
0.134118 0 0.134902 0 0.135686 0 0.136471 0 0.137255 
0 0.138039 0 0.138824 0 0.139608 0 0.140392 0 
0.141176 0 0.141961 0 0.142745 0 0.143529 0 0.144314 
0 0.145098 0 0.145882 0 0.146667 0 0.147451 0 
0.148235 0 0.14902 0 0.149804 0 0.150588 0 0.151373 
0 0.152157 0 0.152941 0 0.153725 0 0.15451 0 
0.155294 0 0.156078 0 0.156863 0 0.157647 0 0.158431 
0 0.159216 0 0.16 0 0.160784 0 0.161569 0 
0.162353 0 0.163137 0 0.163922 0 0.164706 0 0.16549 
0 0.166275 0 0.167059 0 0.167843 0 0.168627 0 
0.169412 0 0.170196 0 0.17098 0 0.171765 0 0.172549 
0 0.173333 0 0.174118 0 0.174902 0 0.175686 0 
0.176471 0 0.177255 0 0.178039 0 0.178824 0 0.179608 
0 0.180392 0 0.181176 0 0.181961 0 0.182745 0 
0.183529 0 0.184314 0 0.185098 0 0.185882 0 0.186667 
0 0.187451 0 0.188235 0 0.18902 0 0.189804 0 
0.190588 0 0.191373 0 0.192157 0 0.192941 0 0.193725 
0 0.19451 0 0.195294 0 0.196078 0 0.196863 0 
0.197647 0 0.198431 0 0.199216 0 0.2 0 0.200784 
0 0.201569 0 0.202353 0 0.203137 0 0.203922 0 
0.204706 0 0.20549 0 0.206275 0 0.207059 0 0.207843 
0 0.208627 0 0.209412 0 0.210196 0 0.21098 0 
0.211765 0 0.212549 0 0.213333 0 0.214118 0 0.214902 
0 0.215686 0 0.216471 0 0.217255 0 0.218039 0 
0.218824 0 0.219608 0 0.220392 0 0.221176 0 0.221961 
0 0.222745 0 0.223529 0 0.224314 0 0.225098 0 
0.225882 0 0.226667 0 0.227451 0 0.228235 0 0.22902 
0 0.229804 0 0.230588 0 0.231373 0 0.232157 0 
0.232941 0 0.233725 0 0.23451 0 0.235294 0 0.236078 
0 0.236863 0 0.237647 0 0.238431 0 0.239216 0 
0.24 0 0.240784 0 0.241569 0 0.242353 0 0.243137 
0 0.243922 0 0.244706 0 0.24549 0 0.246275 0 
0.247059 0 0.247843 0 0.248627 0 0.249412 0 0.250196 
0 0.25098 0 0.251765 0 0.252549 0 0.253333 0 
0.254118 0 0.254902 0 0.255686 0 0.256471 0 0.257255 
0 0.258039 0 0.258824 0 0.259608 0 0.260392 0 
0.261176 0 0.261961 0 0.262745 0 0.263529 0 0.264314 
0 0.265098 0 0.265882 0 0.266667 0 0.267451 0 
0.268235 0 0.26902 0 0.269804 0 0.270588 0 0.271373 
0 0.272157 0 0.272941 0 0.273725 0 0.27451 0 
0.275294 0 0.276078 0 0.276863 0 0.277647 0 0.278431 
0 0.279216 0 0.28 0 0.280784 0 0.281569 0 
0.282353 0 0.283137 0 0.283922 0 0.284706 0 0.28549 
0 0.286275 0 0.287059 0 0.287843 0 0.288627 0 
0.289412 0 0.290196 0 0.29098 0 0.291765 0 0.292549 
0 0.293333 0 0.294118 0 0.294902 0 0.295686 0 
0.296471 0 0.297255 0 0.298039 0 0.298824 0 0.299608 
0 0.300392 0 0.301176 0 0.301961 0 0.302745 0 
0.303529 0 0.304314 0 0.305098 0 0.305882 0 0.306667 
0 0.307451 0 0.308235 0 0.30902 0 0.309804 0 
0.310588 0 0.311373 0 0.312157 0 0.312941 0 0.313726 
0 0.31451 0 0.315294 0 0.316078 0 0.316863 0 
0.317647 0 0.318431 0 0.319216 0 0.32 0 0.320784 
0 0.321569 0 0.322353 0 0.323137 0 0.323922 0 
0.324706 0 0.32549 0 0.326275 0 0.327059 0 0.327843 
0 0.328627 0 0.329412 0 0.330196 0 0.33098 0 
0.331765 0 0.332549 0 0.333333 0 0.334118 0 0.334902 
0 0.335686 0 0.336471 0 0.337255 0 0.338039 0 
0.338824 0 0.339608 0 0.340392 0 0.341176 0 0.341961 
0 0.342745 0 0.343529 0 0.344314 0 0.345098 0 
0.345882 0 0.346667 0 0.347451 0 0.348235 0 0.34902 
0 0.349804 0 0.350588 0 0.351373 0 0.352157 0 
0.352941 0 0.353725 0 0.35451 0 0.355294 0 0.356078 
0 0.356863 0 0.357647 0 0.358431 0 0.359216 0 
0.36 0 0.360784 0 0.361569 0 0.362353 0 0.363137 
0 0.363922 0 0.364706 0 0.36549 0 0.366275 0 
0.367059 0 0.367843 0 0.368627 0 0.369412 0 0.370196 
0 0.37098 0 0.371765 0 0.372549 0 0.373333 0 
0.374118 0 0.374902 0 0.375686 0 0.376471 0 0.377255 
0 0.378039 0 0.378824 0 0.379608 0 0.380392 0 
0.381176 0 0.381961 0 0.382745 0 0.383529 0 0.384314 
0 0.385098 0 0.385882 0 0.386667 0 0.387451 0 
0.388235 0 0.38902 0 0.389804 0 0.390588 0 0.391373 
0 0.392157 0 0.392941 0 0.393725 0 0.39451 0 
0.395294 0 0.396078 0 0.396863 0 0.397647 0 0.398431 
0 0.399216 0 0.4 0 0.400784 0 0.401569 0 
0.402353 0 0.403137 0 0.403922 0 0.404706 0 0.40549 
0 0.406274 0 0.407059 0 0.407843 0 0.408627 0 
0.409412 0 0.410196 0 0.41098 0 0.411765 0 0.412549 
0 0.413333 0 0.414118 0 0.414902 0 0.415686 0 
0.416471 0 0.417255 0 0.418039 0 0.418824 0 0.419608 
0 0.420392 0 0.421176 0 0.421961 0 0.422745 0 
0.423529 0 0.424314 0 0.425098 0 0.425882 0 0.426667 
0 0.427451 0 0.428235 0 0.42902 0 0.429804 0 
0.430588 0 0.431373 0 0.432157 0 0.432941 0 0.433725 
0 0.43451 0 0.435294 0 0.436078 0 0.436863 0 
0.437647 0 0.438431 0 0.439216 0 0.44 0 0.440784 
0 0.441569 0 0.442353 0 0.443137 0 0.443922 0 
0.444706 0 0.44549 0 0.446275 0 0.447059 0 0.447843 
0 0.448627 0 0.449412 0 0.450196 0 0.45098 0 
0.451765 0 0.452549 0 0.453333 0 0.454118 0 0.454902 
0 0.455686 0 0.456471 0 0.457255 0 0.458039 0 
0.458824 0 0.459608 0 0.460392 0 0.461176 0 0.461961 
0 0.462745 0 0.463529 0 0.464314 0 0.465098 0 
0.465882 0 0.466667 0 0.467451 0 0.468235 0 0.46902 
0 0.469804 0 0.470588 0 0.471373 0 0.472157 0 
0.472941 0 0.473725 0 0.47451 0 0.475294 0 0.476078 
0 0.476863 0 0.477647 0 0.478431 0 0.479216 0 
0.48 0 0.480784 0 0.481569 0 0.482353 0 0.483137 
0 0.483922 0 0.484706 0 0.48549 0 0.486275 0 
0.487059 0 0.487843 0 0.488627 0 0.489412 0 0.490196 
0 0.49098 0 0.491765 0 0.492549 0 0.493333 0 
0.494118 0 0.494902 0 0.495686 0 0.496471 0 0.497255 
0 0.498039 0 0.498824 0 0.499608 0 0.500392 0 
0.501176 0 0.501961 0 0.502745 0 0.503529 0 0.504314 
0 0.505098 0 0.505882 0 0.506667 0 0.507451 0 
0.508235 0 0.50902 0 0.509804 0 0.510588 0 0.511373 
0 0.512157 0 0.512941 0 0.513726 0 0.51451 0 
0.515294 0 0.516078 0 0.516863 0 0.517647 0 0.518431 
0 0.519216 0 0.52 0 0.520784 0 0.521569 0 
0.522353 0 0.523137 0 0.523922 0 0.524706 0 0.52549 
0 0.526275 0 0.527059 0 0.527843 0 0.528627 0 
0.529412 0 0.530196 0 0.53098 0 0.531765 0 0.532549 
0 0.533333 0 0.534118 0 0.534902 0 0.535686 0 
0.536471 0 0.537255 0 0.538039 0 0.538824 0 0.539608 
0 0.540392 0 0.541176 0 0.541961 0 0.542745 0 
0.543529 0 0.544314 0 0.545098 0 0.545882 0 0.546667 
0 0.547451 0 0.548235 0 0.54902 0 0.549804 0 
0.550588 0 0.551373 0 0.552157 0 0.552941 0 0.553725 
0 0.55451 0 0.555294 0 0.556078 0 0.556863 0 
0.557647 0 0.558431 0 0.559216 0 0.56 0 0.560784 
0 0.561569 0 0.562353 0 0.563137 0 0.563922 0 
0.564706 0 0.56549 0 0.566275 0 0.567059 0 0.567843 
0 0.568627 0 0.569412 0 0.570196 0 0.57098 0 
0.571765 0 0.572549 0 0.573333 0 0.574118 0 0.574902 
0 0.575686 0 0.576471 0 0.577255 0 0.578039 0 
0.578824 0 0.579608 0 0.580392 0 0.581176 0 0.581961 
0 0.582745 0 0.583529 0 0.584314 0 0.585098 0 
0.585882 0 0.586667 0 0.587451 0 0.588235 0 0.58902 
0 0.589804 0 0.590588 0 0.591373 0 0.592157 0 
0.592941 0 0.593726 0 0.59451 0 0.595294 0 0.596078 
0 0.596863 0 0.597647 0 0.598431 0 0.599216 0 
0.6 0 0.600784 0 0.601569 0 0.602353 0 0.603137 
0 0.603922 0 0.604706 0 0.60549 0 0.606274 0 
0.607059 0 0.607843 0 0.608627 0 0.609412 0 0.610196 
0 0.61098 0 0.611765 0 0.612549 0 0.613333 0 
0.614118 0 0.614902 0 0.615686 0 0.616471 0 0.617255 
0 0.618039 0 0.618824 0 0.619608 0 0.620392 0 
0.621176 0 0.621961 0 0.622745 0 0.623529 0 0.624314 
0 0.625098 0 0.625882 0 0.626667 0 0.627451 0 
0.628235 0 0.62902 0 0.629804 0 0.630588 0 0.631373 
0 0.632157 0 0.632941 0 0.633725 0 0.63451 0 
0.635294 0 0.636078 0 0.636863 0 0.637647 0 0.638431 
0 0.639216 0 0.64 0 0.640784 0 0.641569 0 
0.642353 0 0.643137 0 0.643922 0 0.644706 0 0.64549 
0 0.646275 0 0.647059 0 0.647843 0 0.648627 0 
0.649412 0 0.650196 0 0.65098 0 0.651765 0 0.652549 
0 0.653333 0 0.654118 0 0.654902 0 0.655686 0 
0.656471 0 0.657255 0 0.658039 0 0.658824 0 0.659608 
0 0.660392 0 0.661176 0 0.661961 0 0.662745 0 
0.663529 0 0.664314 0 0.665098 0 0.665882 0 0.666667 
0 0.667451 0 0.668235 0 0.66902 0 0.669804 0 
0.670588 0 0.671373 0 0.672157 0 0.672941 0 0.673725 
0 0.67451 0 0.675294 0 0.676078 0 0.676863 0 
0.677647 0 0.678431 0 0.679216 0 0.68 0 0.680784 
0 0.681569 0 0.682353 0 0.683137 0 0.683922 0 
0.684706 0 0.68549 0 0.686275 0 0.687059 0 0.687843 
0 0.688627 0 0.689412 0 0.690196 0 0.69098 0 
0.691765 0 0.692549 0 0.693333 0 0.694118 0 0.694902 