# vtk DataFile Version 4.2
vtk output
ASCII
DATASET POLYDATA
POINTS 1278 float
0 0 0 -0.00338872 0.00226831 -0.000550547 -0.0132839 0.00886044 -0.00215806 
-0.0292789 0.0194572 -0.00475636 -0.0509673 0.0337392 -0.00827925 -0.0779426 0.0513875 -0.0126606 
-0.109798 0.0720826 -0.0178341 -0.146128 0.0955054 -0.0237336 -0.186524 0.121337 -0.030293 
-0.230582 0.149257 -0.0374461 -0.277893 0.178948 -0.0451267 -0.328053 0.210089 -0.0532685 
-0.380653 0.242362 -0.0618054 -0.435288 0.275448 -0.0706713 -0.491551 0.309026 -0.0797998 
-0.549036 0.342778 -0.089125 -0.607336 0.376385 -0.0985804 -0.666045 0.409528 -0.1081 
-0.724755 0.441887 -0.117618 -0.783061 0.473142 -0.127067 -0.840556 0.502976 -0.136382 
-0.896834 0.531068 -0.145497 -0.951618 0.557205 -0.154364 -1.00497 0.581442 -0.16299 
-1.05699 0.603875 -0.171387 -1.10779 0.624603 -0.179567 -1.15748 0.643722 -0.187545 
-1.20618 0.661329 -0.195331 -1.25398 0.677523 -0.20294 -1.30101 0.692399 -0.210385 
-1.34737 0.706056 -0.217678 -1.39316 0.718591 -0.224831 -1.4385 0.730101 -0.231859 
-1.4835 0.740683 -0.238774 -1.52827 0.750435 -0.245588 -1.57292 0.759453 -0.252315 
-1.61755 0.767836 -0.258967 -1.66228 0.77568 -0.265558 -1.70721 0.783083 -0.272099 
-1.75246 0.790141 -0.278605 -1.79813 0.796953 -0.285088 -1.84433 0.80361 -0.29156 
-1.89108 0.810135 -0.298019 -1.93835 0.816497 -0.304457 -1.9861 0.822668 -0.310861 
-2.0343 0.828618 -0.317223 -2.08292 0.834318 -0.323531 -2.13191 0.839736 -0.329775 
-2.18125 0.844844 -0.335945 -2.23089 0.849611 -0.34203 -2.28082 0.854009 -0.34802 
-2.33098 0.858006 -0.353905 -2.38134 0.861574 -0.359674 -2.43188 0.864682 -0.365316 
-2.48255 0.867302 -0.370822 -2.53333 0.869402 -0.37618 -2.58417 0.870953 -0.381382 
-2.63504 0.871926 -0.386415 -2.68591 0.872291 -0.39127 -2.73674 0.872017 -0.395936 
-2.7875 0.871076 -0.400403 -2.83815 0.869437 -0.404661 -2.88866 0.867081 -0.4087 
-2.93904 0.864017 -0.412516 -2.98929 0.860259 -0.416104 -3.0394 0.85582 -0.41946 
-3.08938 0.850714 -0.42258 -3.13923 0.844955 -0.425459 -3.18895 0.838556 -0.428093 
-3.23854 0.831531 -0.430477 -3.28801 0.823893 -0.432608 -3.33735 0.815656 -0.434481 
-3.38657 0.806833 -0.436091 -3.43566 0.797439 -0.437435 -3.48463 0.787486 -0.438508 
-3.53349 0.776989 -0.439305 -3.58222 0.765961 -0.439823 -3.63084 0.754416 -0.440057 
-3.67934 0.742366 -0.440002 -3.72773 0.729827 -0.439655 -3.77601 0.716811 -0.439011 
-3.82417 0.703332 -0.438065 -3.87222 0.689402 -0.436814 -3.92016 0.675026 -0.435254 
-3.96797 0.660205 -0.433381 -4.01564 0.644942 -0.431192 -4.06317 0.629239 -0.428684 
-4.11055 0.613097 -0.425853 -4.15776 0.596519 -0.422695 -4.20481 0.579507 -0.419208 
-4.25168 0.562063 -0.415388 -4.29837 0.544188 -0.411232 -4.34486 0.525885 -0.406735 
-4.39115 0.507156 -0.401895 -4.43723 0.488002 -0.396708 -4.48309 0.468426 -0.391171 
-4.52872 0.44843 -0.38528 -4.57411 0.428016 -0.379032 -4.61926 0.407185 -0.372424 
-4.66415 0.38594 -0.365451 -4.70879 0.364283 -0.358111 -4.75315 0.342216 -0.350401 
-4.79723 0.319741 -0.342316 -4.84103 0.296863 -0.333859 -4.88455 0.27359 -0.325031 
-4.92777 0.249932 -0.315837 -4.97071 0.225894 -0.306279 -5.01336 0.201485 -0.296361 
-5.05571 0.176714 -0.286087 -5.09777 0.151587 -0.275459 -5.13953 0.126113 -0.264481 
-5.18099 0.1003 -0.253157 -5.22215 0.0741557 -0.241489 -5.263 0.0476877 -0.229481 
-5.30355 0.0209042 -0.217136 -5.34379 -0.00618704 -0.204459 -5.38372 -0.0335781 -0.191451 
-5.42334 -0.061261 -0.178116 -5.46264 -0.0892279 -0.164458 -5.50163 -0.117471 -0.15048 
-5.5403 -0.145982 -0.136186 -5.57865 -0.174754 -0.121578 -5.61668 -0.203777 -0.10666 
-5.65439 -0.233047 -0.0914366 -5.69177 -0.262558 -0.0759156 -5.72884 -0.292305 -0.0601041 
-5.76559 -0.322284 -0.0440092 -5.80203 -0.352489 -0.0276384 -5.83817 -0.382917 -0.0109989 
-5.87399 -0.413563 0.00590198 -5.90951 -0.444421 0.0230569 -5.94474 -0.475488 0.0404585 
-5.97966 -0.506758 0.0580995 -6.01428 -0.538227 0.0759726 -6.04862 -0.56989 0.0940705 
-6.08266 -0.601742 0.112386 -6.11642 -0.63378 0.130911 -6.14989 -0.665997 0.14964 
-6.18308 -0.69839 0.168563 -6.21598 -0.730954 0.187676 -6.24862 -0.763683 0.206969 
-6.28097 -0.796574 0.226435 -6.31306 -0.829622 0.246068 -6.34488 -0.862823 0.265859 
-6.37643 -0.896174 0.2858 -6.40773 -0.929675 0.305882 -6.43878 -0.963325 0.326095 
-6.46958 -0.997122 0.34643 -6.50014 -1.03106 0.366878 -6.53047 -1.06515 0.387431 
-6.56058 -1.09938 0.408078 -6.59046 -1.13376 0.428811 -6.62013 -1.16827 0.44962 
-6.64958 -1.20292 0.470497 -6.67884 -1.23771 0.491433 -6.7079 -1.27264 0.512418 
-6.73676 -1.3077 0.533442 -6.76544 -1.3429 0.554498 -6.79395 -1.37823 0.575576 
-6.82228 -1.41369 0.596666 -6.85044 -1.44929 0.61776 -6.87844 -1.48501 0.638848 
-6.90628 -1.52086 0.659921 -6.93397 -1.55683 0.680971 -6.96152 -1.59294 0.701988 
-6.98894 -1.62917 0.722961 -7.01622 -1.66552 0.743883 -7.04337 -1.70201 0.764742 
-7.0704 -1.73862 0.785531 -7.09732 -1.77537 0.806238 -7.12413 -1.81224 0.826855 
-7.15083 -1.84924 0.847372 -7.17743 -1.88638 0.86778 -7.20395 -1.92364 0.888068 
-7.23037 -1.96104 0.908229 -7.25672 -1.99857 0.928251 -7.28299 -2.03623 0.948126 
-7.30919 -2.07402 0.967844 -7.33532 -2.11195 0.987395 -7.3614 -2.15001 1.00677 
-7.38742 -2.18821 1.02596 -7.4134 -2.22654 1.04495 -7.43934 -2.265 1.06374 
-7.46524 -2.30361 1.08232 -7.49111 -2.34234 1.10066 -7.51696 -2.38122 1.11874 
-7.54281 -2.42024 1.13653 -7.56865 -2.45941 1.154 -7.5945 -2.49872 1.17112 
-7.62037 -2.53817 1.18786 -7.64626 -2.57778 1.2042 -7.67219 -2.61753 1.2201 
-7.69816 -2.65744 1.23555 -7.72418 -2.69751 1.2505 -7.75026 -2.73773 1.26493 
-7.77642 -2.77811 1.27882 -7.80265 -2.81866 1.29212 -7.82897 -2.85936 1.30483 
-7.85539 -2.90024 1.31689 -7.88192 -2.94128 1.3283 -7.90856 -2.98248 1.33902 
-7.93532 -3.02386 1.34901 -7.96222 -3.06542 1.35826 -7.98925 -3.10715 1.36673 
-8.01644 -3.14904 1.3744 -8.04375 -3.19108 1.38123 -8.07119 -3.23323 1.38721 
-8.09873 -3.27546 1.3923 -8.12636 -3.31775 1.39647 -8.15408 -3.36007 1.3997 
-8.18187 -3.40238 1.40196 -8.20972 -3.44467 1.40323 -8.23761 -3.48689 1.40347 
-8.26553 -3.52903 1.40265 -8.29347 -3.57105 1.40076 -8.32141 -3.61292 1.39776 
-8.34936 -3.65463 1.39363 -8.37728 -3.69613 1.38834 -8.40517 -3.7374 1.38185 
-8.43302 -3.77841 1.37415 -8.46081 -3.81914 1.36521 -8.48853 -3.85955 1.35499 
-8.51617 -3.89961 1.34348 -8.54371 -3.9393 1.33064 -8.57115 -3.9786 1.31645 
-8.59848 -4.01749 1.30096 -8.62567 -4.05597 1.2842 -8.65274 -4.09406 1.26621 
-8.67966 -4.13173 1.24704 -8.70642 -4.16899 1.22674 -8.73302 -4.20585 1.20533 
-8.75946 -4.24229 1.18288 -8.78571 -4.27832 1.15941 -8.81177 -4.31393 1.13498 
-8.83763 -4.34913 1.10962 -8.86328 -4.38391 1.08338 -8.88871 -4.41827 1.0563 
-8.91392 -4.45221 1.02843 -8.93889 -4.48573 0.999798 -8.96361 -4.51883 0.97046 
-8.98808 -4.5515 0.940455 -9.01228 -4.58374 0.909825 -9.03621 -4.61555 0.878614 
-9.05986 -4.64693 0.846864 -9.08321 -4.67789 0.814616 -9.10628 -4.70843 0.781897 
-9.12906 -4.73857 0.748726 -9.15157 -4.76834 0.715122 -9.17381 -4.79775 0.681104 
-9.19579 -4.82683 0.646692 -9.21751 -4.85559 0.611904 -9.23898 -4.88406 0.576761 
-9.26021 -4.91225 0.541282 -9.28121 -4.94019 0.505485 -9.30198 -4.96789 0.46939 
-9.32253 -4.99538 0.433016 -9.34287 -5.02268 0.396383 -9.363 -5.0498 0.359509 
-9.38293 -5.07677 0.322415 -9.40266 -5.10361 0.285118 -9.42221 -5.13033 0.247639 
-9.44157 -5.15696 0.209997 -9.46077 -5.18352 0.172211 -9.47979 -5.21003 0.134301 
-9.49866 -5.2365 0.096284 -9.51737 -5.26295 0.0581738 -9.53592 -5.2894 0.0199755 
-9.55431 -5.31584 -0.018306 -9.57254 -5.34228 -0.0566653 -9.59061 -5.36873 -0.0950975 
-9.60851 -5.3952 -0.133597 -9.62625 -5.42169 -0.17216 -9.64381 -5.44821 -0.210779 
-9.66121 -5.47477 -0.249452 -9.67844 -5.50137 -0.288171 -9.69549 -5.52803 -0.326932 
-9.71237 -5.55474 -0.36573 -9.72907 -5.58152 -0.40456 -9.7456 -5.60838 -0.443416 
-9.76194 -5.63531 -0.482294 -9.77811 -5.66233 -0.521188 -9.79409 -5.68945 -0.560093 
-9.80989 -5.71667 -0.599005 -9.82551 -5.74399 -0.637917 -9.84093 -5.77143 -0.676825 
-9.85617 -5.79899 -0.715725 -9.87121 -5.82668 -0.754616 -9.88605 -5.85449 -0.793497 
-9.90068 -5.88242 -0.832366 -9.91509 -5.91049 -0.871224 -9.92928 -5.93868 -0.910068 
-9.94324 -5.96701 -0.948899 -9.95696 -5.99547 -0.987714 -9.97044 -6.02407 -1.02651 
-9.98367 -6.0528 -1.0653 -9.99664 -6.08168 -1.10406 -10.0093 -6.11069 -1.14281 
-10.0218 -6.13985 -1.18154 -10.0339 -6.16916 -1.22025 -10.0458 -6.19861 -1.25893 
-10.0574 -6.22821 -1.2976 -10.0687 -6.25796 -1.33624 -10.0797 -6.28786 -1.37486 
-10.0904 -6.31791 -1.41345 -10.1007 -6.34813 -1.45202 -10.1108 -6.3785 -1.49056 
-10.1205 -6.40902 -1.52908 -10.1298 -6.43968 -1.56757 -10.1388 -6.47048 -1.60604 
-10.1475 -6.50141 -1.6445 -10.1557 -6.53247 -1.68295 -10.1636 -6.56364 -1.72138 
-10.171 -6.59491 -1.7598 -10.1781 -6.62629 -1.79821 -10.1847 -6.65776 -1.83662 
-10.1909 -6.68932 -1.87502 -10.1966 -6.72096 -1.91343 -10.2019 -6.75268 -1.95183 
-10.2067 -6.78445 -1.99025 -10.2111 -6.81629 -2.02866 -10.2149 -6.84817 -2.06709 
-10.2182 -6.88011 -2.10553 -10.2211 -6.91207 -2.14398 -10.2234 -6.94407 -2.18245 
-10.2251 -6.97609 -2.22094 -10.2264 -7.00812 -2.25945 -10.227 -7.04017 -2.29798 
-10.2271 -7.0722 -2.33653 -10.2267 -7.10423 -2.3751 -10.2257 -7.13624 -2.41368 
-10.2242 -7.16821 -2.45228 -10.2221 -7.20014 -2.49089 -10.2194 -7.23203 -2.52951 
-10.2162 -7.26385 -2.56813 -10.2124 -7.29561 -2.60676 -10.2081 -7.32728 -2.6454 
-10.2032 -7.35887 -2.68404 -10.1978 -7.39037 -2.72268 -10.1917 -7.42175 -2.76132 
-10.1852 -7.45302 -2.79995 -10.178 -7.48416 -2.83858 -10.1704 -7.51517 -2.87721 
-10.1621 -7.54604 -2.91582 -10.1533 -7.57675 -2.95442 -10.1439 -7.6073 -2.99302 
-10.134 -7.63767 -3.03159 -10.1234 -7.66787 -3.07016 -10.1124 -7.69789 -3.1087 
-10.1008 -7.72773 -3.14721 -10.0886 -7.7574 -3.1857 -10.076 -7.78689 -3.22416 
-10.0628 -7.8162 -3.26259 -10.0491 -7.84534 -3.30098 -10.035 -7.8743 -3.33933 
-10.0203 -7.90309 -3.37763 -10.0052 -7.93171 -3.41589 -9.98956 -7.96015 -3.45409 
[...]
CELL_DATA 1
FIELD FieldData 2
Length 1 1 double
63.884143777 
Tortuosity 1 1 double
1.0098361524 
POINT_DATA 1278
SCALARS MaximumInscribedSphereRadius float
LOOKUP_TABLE default
0.93 0.946988 0.963976 0.980964 0.997952 1.01494 1.03193 1.04892 1.0659 
1.08289 1.09988 1.11687 1.13386 1.15084 1.16783 1.18482 1.20181 1.21879 
1.23578 1.25277 1.26976 1.28575 1.29611 1.30648 1.31685 1.32721 1.33758 
1.34794 1.35831 1.36868 1.37904 1.38941 1.39978 1.41014 1.42051 1.43088 
1.44124 1.45161 1.46198 1.47234 1.48271 1.48114 1.47245 1.46377 1.45509 
1.4464 1.43772 1.42903 1.42035 1.41166 1.40298 1.39429 1.38561 1.37693 
1.36824 1.35956 1.35087 1.34219 1.3335 1.32482 1.31613 1.30818 1.30479 
1.30139 1.298 1.29461 1.29121 1.28782 1.28442 1.28103 1.27764 1.27424 
1.27085 1.26745 1.26406 1.26067 1.25727 1.25388 1.25048 1.24709 1.2437 
1.2403 1.24539 1.25131 1.25723 1.26314 1.26906 1.27498 1.2809 1.28682 
1.29273 1.29865 1.30457 1.31049 1.31641 1.32233 1.32824 1.33416 1.34008 
1.346 1.35192 1.35783 1.37182 1.39041 1.409 1.42758 1.44617 1.46475 
1.48334 1.50193 1.52051 1.5391 1.55768 1.57627 1.59485 1.61344 1.63203 
1.65061 1.6692 1.68778 1.70637 1.72496 1.73685 1.73721 1.73758 1.73795 
1.73832 1.73869 1.73906 1.73943 1.7398 1.74017 1.74053 1.7409 1.74127 
1.74164 1.74201 1.74238 1.74275 1.74312 1.74349 1.74386 1.74326 1.73326 
1.72325 1.71324 1.70323 1.69323 1.68322 1.67321 1.66321 1.6532 1.64319 
1.63318 1.62318 1.61317 1.60316 1.59315 1.58315 1.57314 1.56313 1.55313 
1.54312 1.53323 1.52338 1.51352 1.50367 1.49381 1.48396 1.4741 1.46424 
1.45439 1.44453 1.43468 1.42482 1.41496 1.40511 1.39525 1.3854 1.37554 
1.36569 1.35583 1.34597 1.34217 1.34368 1.34519 1.3467 1.34821 1.34972 
1.35123 1.35274 1.35425 1.35576 1.35727 1.35878 1.36029 1.3618 1.36331 
1.36482 1.36633 1.36784 1.36935 1.37086 1.37312 1.37758 1.38205 1.38651 
1.39097 1.39543 1.3999 1.40436 1.40882 1.41328 1.41775 1.42221 1.42667 
1.43113 1.4356 1.44006 1.44452 1.44898 1.45345 1.45791 1.46219 1.45126 
1.44033 1.42939 1.41846 1.40752 1.39659 1.38566 1.37472 1.36379 1.35285 
1.34192 1.33098 1.32005 1.30912 1.29818 1.28725 1.27631 1.26538 1.25444 
1.24351 1.24269 1.24477 1.24684 1.24892 1.25099 1.25306 1.25514 1.25721 
1.25929 1.26136 1.26344 1.26551 1.26758 1.26966 1.27173 1.27381 1.27588 
1.27796 1.28003 1.2821 1.28998 1.30354 1.31709 1.33065 1.34421 1.35776 
1.37132 1.38488 1.39844 1.41199 1.42555 1.43911 1.45267 1.46622 1.47978 
1.49334 1.50689 1.52045 1.53401 1.54757 1.56011 1.56915 1.57818 1.58721 
1.59625 1.60528 1.61431 1.62334 1.63238 1.64141 1.65044 1.65947 1.66851 
1.67754 1.68657 1.6956 1.70464 1.71367 1.7227 1.73174 1.74077 1.73408 
1.72646 1.71884 1.71123 1.70361 1.69599 1.68837 1.68076 1.67314 1.66552 
1.65791 1.65029 1.64267 1.63506 1.62744 1.61982 1.61221 1.60459 1.59697 
1.58936 1.58049 1.571 1.56151 1.55203 1.54254 1.53305 1.52356 1.51407 
1.50459 1.4951 1.48561 1.47612 1.46664 1.45715 1.44766 1.43817 1.42868 
1.4192 1.40971 1.40022 1.39221 1.38643 1.38064 1.37485 1.36906 1.36328 
1.35749 1.3517 1.34591 1.34013 1.33434 1.32855 1.32276 1.31697 1.31119 
1.3054 1.29961 1.29382 1.28804 1.28225 1.27732 1.27829 1.27925 1.28021 
1.28118 1.28214 1.2831 1.28407 1.28503 1.286 1.28696 1.28792 1.28889 
1.28985 1.29081 1.29178 1.29274 1.2937 1.29467 1.29563 1.29659 1.30242 
1.30912 1.31581 1.32251 1.3292 1.3359 1.34259 1.34929 1.35598 1.36267 
1.36937 1.37606 1.38276 1.38945 1.39615 1.40284 1.40954 1.41623 1.42293 
1.42962 1.43746 1.44614 1.45482 1.4635 1.47218 1.48087 1.48955 1.49823 
1.50691 1.51559 1.52428 1.53296 1.54164 1.55032 1.559 1.56769 1.57637 
1.58505 1.59373 1.60241 1.60849 1.60763 1.60678 1.60593 1.60507 1.60422 
1.60336 1.60251 1.60166 1.6008 1.59995 1.5991 1.59824 1.59739 1.59654 
1.59568 1.59483 1.59397 1.59312 1.59227 1.59132 1.58927 1.58721 1.58516 
1.58311 1.58105 1.579 1.57695 1.57489 1.57284 1.57079 1.56873 1.56668 
1.56462 1.56257 1.56052 1.55846 1.55641 1.55436 1.5523 1.55025 1.55026 
1.55056 1.55087 1.55117 1.55147 1.55177 1.55207 1.55237 1.55267 1.55297 
1.55327 1.55357 1.55387 1.55417 1.55447 1.55477 1.55507 1.55537 1.55567 
1.55598 1.56018 1.56506 1.56995 1.57483 1.57972 1.5846 1.58949 1.59437 
1.59926 1.60415 1.60903 1.61392 1.6188 1.62369 1.62857 1.63346 1.63834 
1.64323 1.64812 1.653 1.65919 1.66659 1.67399 1.68138 1.68878 1.69618 
1.70357 1.71097 1.71836 1.72576 1.73316 1.74055 1.74795 1.75534 1.76274 
1.77014 1.77753 1.78493 1.79233 1.79972 1.80378 1.79919 1.7946 1.79001 
1.78543 1.78084 1.77625 1.77166 1.76707 1.76248 1.75789 1.7533 1.74871 
1.74412 1.73953 1.73494 1.73035 1.72576 1.72117 1.71658 1.71199 1.70866 
1.70535 1.70204 1.69872 1.69541 1.6921 1.68878 1.68547 1.68215 1.67884 
1.67553 1.67221 1.6689 1.66559 1.66227 1.65896 1.65564 1.65233 1.64902 
1.6457 1.65034 1.65824 1.66613 1.67403 1.68192 1.68982 1.69771 1.70561 
1.7135 1.72139 1.72929 1.73718 1.74508 1.75297 1.76087 1.76876 1.77666 
1.78455 1.79245 1.80034 1.80599 1.80871 1.81143 1.81416 1.81688 1.81961 
1.82233 1.82505 1.82778 1.8305 1.83323 1.83595 1.83867 1.8414 1.84412 
1.84685 1.84957 1.85229 1.85502 1.85774 1.85935 1.85553 1.85172 1.84791 
1.8441 1.84029 1.83647 1.83266 1.82885 1.82504 1.82123 1.81741 1.8136 
1.80979 1.80598 1.80217 1.79835 1.79454 1.79073 1.78692 1.78311 1.77467 
1.76575 1.75684 1.74792 1.739 1.73009 1.72117 1.71226 1.70334 1.69443 
1.68551 1.67659 1.66768 1.65876 1.64985 1.64093 1.63201 1.6231 1.61418 
1.60527 1.60037 1.5978 1.59524 1.59268 1.59011 1.58755 1.58498 1.58242 
1.57986 1.57729 1.57473 1.57216 1.5696 1.56704 1.56447 1.56191 1.55934 
1.55678 1.55422 1.55165 1.55 1.55 1.55 1.55 1.55 1.55 
1.55 1.55 1.55 1.55 1.55 1.55 1.55 1.55 1.55 
1.55 1.55 1.55 1.55 1.55 1.55005 1.5507 1.55134 1.55199 
1.55264 1.55329 1.55393 1.55458 1.55523 1.55588 1.55652 1.55717 1.55782 
1.55847 1.55911 1.55976 1.56041 1.56106 1.5617 1.56235 1.563 1.56844 
1.57511 1.58177 1.58844 1.5951 1.60176 1.60843 1.61509 1.62176 1.62842 
1.63509 1.64175 1.64841 1.65508 1.66174 1.66841 1.67507 1.68174 1.6884 
1.69506 1.70216 1.70966 1.71716 1.72466 1.73217 1.73967 1.74717 1.75467 
1.76217 1.76967 1.77717 1.78467 1.79217 1.79967 1.80717 1.81467 1.82217 
1.82967 1.83718 1.84468 1.85051 1.85124 1.85197 1.85271 1.85344 1.85417 
1.8549 1.85563 1.85637 1.8571 1.85783 1.85856 1.85929 1.86003 1.86076 
1.86149 1.86222 1.86295 1.86369 1.86442 1.86515 1.85866 1.85197 1.84527 
1.83857 1.83187 1.82517 1.81847 1.81177 1.80508 1.79838 1.79168 1.78498 
1.77828 1.77158 1.76488 1.75819 1.75149 1.74479 1.73809 1.73139 1.72413 
1.71662 1.70912 1.70161 1.6941 1.68659 1.67908 1.67158 1.66407 1.65656 
1.64905 1.64154 1.63404 1.62653 1.61902 1.61151 1.604 1.59649 1.58899 
1.58148 1.57645 1.57497 1.57349 1.57201 1.57053 1.56905 1.56757 1.56609 
1.56461 1.56313 1.56165 1.56017 1.55869 1.55721 1.55573 1.55425 1.55277 
1.55129 1.54981 1.54833 1.54634 1.54094 1.53554 1.53015 1.52475 1.51935 
1.51396 1.50856 1.50316 1.49777 1.49237 1.48697 1.48158 1.47618 1.47079 
1.46539 1.45999 1.4546 1.4492 1.4438 1.43841 1.43615 1.43444 1.43273 
1.43102 1.42931 1.4276 1.42589 1.42418 1.42247 1.42076 1.41905 1.41734 
1.41563 1.41392 1.41221 1.4105 1.40879 1.40708 1.40537 1.40366 1.41081 
1.42461 1.4384 1.4522 1.466 1.47979 1.49359 1.50739 1.52119 1.53498 
1.54878 1.56258 1.57637 1.59017 1.60397 1.61777 1.63156 1.64536 1.65916 
1.67295 1.68682 1.70083 1.71485 1.72887 1.74289 1.7569 1.77092 1.78494 
1.79895 1.81297 1.82699 1.84101 1.85502 1.86904 1.88306 1.89708 1.91109 
1.92511 1.93913 1.95315 1.96709 1.976 1.98491 1.99382 2.00273 2.01164 
2.02055 2.02946 2.03837 2.04727 2.05618 2.06509 2.074 2.08291 2.09182 
2.10073 2.10964 2.11855 2.12746 2.13637 2.14528 2.14228 2.13498 2.12768 
2.12039 2.11309 2.1058 2.0985 2.0912 2.08391 2.07661 2.06931 2.06202 
2.05472 2.04743 2.04013 2.03283 2.02554 2.01824 2.01094 2.00365 1.99868 
1.99651 1.99434 1.99216 1.98999 1.98782 1.98565 1.98348 1.9813 1.97913 
1.97696 1.97479 1.97261 1.97044 1.96827 1.9661 1.96392 1.96175 1.95958 
1.95741 1.95882 1.97738 1.99593 2.01449 2.03305 2.0516 2.07016 2.08872 
2.10727 2.12583 2.14438 2.16294 2.1815 2.20005 2.21861 2.23716 2.25572 
2.27428 2.29283 2.31139 2.32994 2.32837 2.32434 2.3203 2.31627 2.31223 
2.3082 2.30416 2.30013 2.29609 2.29205 2.28802 2.28398 2.27995 2.27591 
2.27188 2.26784 2.2638 2.25977 2.25573 2.2517 2.23929 2.2215 2.20372 
2.18593 2.16815 2.15036 2.13258 2.11479 2.09701 2.07922 2.06144 2.04365 
2.02587 2.00808 1.9903 1.97251 1.95473 1.93694 1.91916 1.90137 1.88433 
1.86882 1.8533 1.83779 1.82227 1.80676 1.79124 1.77573 1.76021 1.7447 
1.72919 1.71367 1.69816 1.68264 1.66713 1.65161 1.6361 1.62058 1.60507 
1.58955 1.57383 1.55439 1.53495 1.51551 1.49608 1.47664 1.4572 1.43776 
1.41832 1.39888 1.37944 1.36 1.34057 1.32113 1.30169 1.28225 1.26281 
1.24337 1.22393 1.2045 1.18506 1.18082 1.18093 1.18104 1.18115 1.18125 
1.18136 1.18147 1.18158 1.18168 1.18179 1.1819 1.18201 1.18211 1.18222 
1.18233 1.18244 1.18254 1.18265 1.18276 1.18287 1.195 1.21927 1.24354 
1.26781 1.29207 1.31634 1.34061 1.36488 1.38914 1.41341 1.43768 1.46195 
1.48621 1.51048 1.53475 1.55902 1.58329 1.60755 1.63182 1.65609 1.67416 
1.66976 1.66536 1.66096 1.65656 1.65217 1.64777 1.64337 1.63897 1.63457 
1.63017 1.62578 1.62138 1.61698 1.61258 1.60818 1.60378 1.59938 1.59499 
1.59059 1.58619 1.57325 1.55974 1.54624 1.53273 1.51922 1.50571 1.4922 
1.47869 1.46518 1.45167 1.43816 1.42465 1.41114 1.39763 1.38412 1.37061 
1.3571 1.34359 1.33008 1.31657 1.3099 1.30672 1.30355 1.30037 1.2972 
1.29402 1.29085 1.28767 1.2845 1.28132 1.27815 1.27498 1.2718 1.26863 
1.26545 1.26228 1.2591 1.25593 1.25275 1.24958 1.24486 1.23778 1.2307 
1.22362 1.21654 1.20946 1.20237 1.19529 1.18821 1.18113 1.17405 1.16696 
1.15988 1.1528 1.14572 1.13864 1.13156 1.12447 1.11739 1.11031 1.10352 
1.09901 1.09449 1.08998 1.08547 1.08095 1.07644 1.07193 1.06742 1.0629 
1.05839 1.05388 1.04936 1.04485 1.04034 1.03583 1.03131 1.0268 1.02229 
1.01777 1.01326 1.01881 1.02552 1.03224 1.03895 1.04567 1.05238 1.0591 
1.06581 1.07253 1.07925 1.08596 1.09268 1.09939 1.10611 1.11282 1.11954 
1.12625 1.13297 1.13969 1.1464 1.15451 1.16515 1.17578 1.18641 1.19704 
1.20767 1.2183 1.22893 1.23957 1.2502 1.26083 1.27146 1.28209 1.29272 
1.30335 1.31398 1.32462 1.33525 1.34588 1.35651 1.36719 1.37788 1.38857 
1.39926 1.40995 1.42064 1.43133 1.44202 1.45272 1.46341 1.4741 1.48479 
1.49548 1.50617 1.51686 1.52755 1.53824 1.54893 1.55962 1.57031 1.581 

TEXTURE_COORDINATES TCoords 2 float
0 0 0.000783085 0 0.00156617 0 0.00234926 0 0.00313234 
0 0.00391543 0 0.00469851 0 0.0054816 0 0.00626468 0 
0.00704777 0 0.00783085 0 0.00861394 0 0.00939702 0 0.0101801 
0 0.0109632 0 0.0117463 0 0.0125294 0 0.0133125 0 
0.0140955 0 0.0148786 0 0.0156617 0 0.0164448 0 0.0172279 
0 0.018011 0 0.018794 0 0.0195771 0 0.0203602 0 
0.0211433 0 0.0219264 0 0.0227095 0 0.0234926 0 0.0242756 
0 0.0250587 0 0.0258418 0 0.0266249 0 0.027408 0 
0.0281911 0 0.0289742 0 0.0297572 0 0.0305403 0 0.0313234 
0 0.0321065 0 0.0328896 0 0.0336727 0 0.0344558 0 
0.0352388 0 0.0360219 0 0.036805 0 0.0375881 0 0.0383712 
0 0.0391543 0 0.0399374 0 0.0407204 0 0.0415035 0 
0.0422866 0 0.0430697 0 0.0438528 0 0.0446359 0 0.045419 
0 0.046202 0 0.0469851 0 0.0477682 0 0.0485513 0 
0.0493344 0 0.0501175 0 0.0509005 0 0.0516836 0 0.0524667 
0 0.0532498 0 0.0540329 0 0.054816 0 0.0555991 0 
0.0563821 0 0.0571652 0 0.0579483 0 0.0587314 0 0.0595145 
0 0.0602976 0 0.0610807 0 0.0618637 0 0.0626468 0 
0.0634299 0 0.064213 0 0.0649961 0 0.0657792 0 0.0665623 
0 0.0673453 0 0.0681284 0 0.0689115 0 0.0696946 0 
0.0704777 0 0.0712608 0 0.0720439 0 0.0728269 0 0.07361 
0 0.0743931 0 0.0751762 0 0.0759593 0 0.0767424 0 
0.0775255 0 0.0783085 0 0.0790916 0 0.0798747 0 0.0806578 
0 0.0814409 0 0.082224 0 0.083007 0 0.0837901 0 
0.0845732 0 0.0853563 0 0.0861394 0 0.0869225 0 0.0877056 
0 0.0884886 0 0.0892717 0 0.0900548 0 0.0908379 0 
0.091621 0 0.0924041 0 0.0931872 0 0.0939702 0 0.0947533 
0 0.0955364 0 0.0963195 0 0.0971026 0 0.0978857 0 
0.0986688 0 0.0994518 0 0.100235 0 0.101018 0 0.101801 
0 0.102584 0 0.103367 0 0.10415 0 0.104933 0 
0.105717 0 0.1065 0 0.107283 0 0.108066 0 0.108849 
0 0.109632 0 0.110415 0 0.111198 0 0.111981 0 
0.112764 0 0.113547 0 0.11433 0 0.115114 0 0.115897 
0 0.11668 0 0.117463 0 0.118246 0 0.119029 0 
0.119812 0 0.120595 0 0.121378 0 0.122161 0 0.122944 
0 0.123727 0 0.124511 0 0.125294 0 0.126077 0 
0.12686 0 0.127643 0 0.128426 0 0.129209 0 0.129992 
0 0.130775 0 0.131558 0 0.132341 0 0.133125 0 
0.133908 0 0.134691 0 0.135474 0 0.136257 0 0.13704 
0 0.137823 0 0.138606 0 0.139389 0 0.140172 0 
0.140955 0 0.141738 0 0.142522 0 0.143305 0 0.144088 
0 0.144871 0 0.145654 0 0.146437 0 0.14722 0 
0.148003 0 0.148786 0 0.149569 0 0.150352 0 0.151135 
0 0.151919 0 0.152702 0 0.153485 0 0.154268 0 
0.155051 0 0.155834 0 0.156617 0 0.1574 0 0.158183 
0 0.158966 0 0.159749 0 0.160533 0 0.161316 0 
0.162099 0 0.162882 0 0.163665 0 0.164448 0 0.165231 
0 0.166014 0 0.166797 0 0.16758 0 0.168363 0 
0.169146 0 0.16993 0 0.170713 0 0.171496 0 0.172279 
0 0.173062 0 0.173845 0 0.174628 0 0.175411 0 
0.176194 0 0.176977 0 0.17776 0 0.178543 0 0.179327 
0 0.18011 0 0.180893 0 0.181676 0 0.182459 0 
0.183242 0 0.184025 0 0.184808 0 0.185591 0 0.186374 
0 0.187157 0 0.18794 0 0.188724 0 0.189507 0 
0.19029 0 0.191073 0 0.191856 0 0.192639 0 0.193422 
0 0.194205 0 0.194988 0 0.195771 0 0.196554 0 
0.197338 0 0.198121 0 0.198904 0 0.199687 0 0.20047 
0 0.201253 0 0.202036 0 0.202819 0 0.203602 0 
0.204385 0 0.205168 0 0.205951 0 0.206735 0 0.207518 
0 0.208301 0 0.209084 0 0.209867 0 0.21065 0 
0.211433 0 0.212216 0 0.212999 0 0.213782 0 0.214565 
0 0.215348 0 0.216132 0 0.216915 0 0.217698 0 
0.218481 0 0.219264 0 0.220047 0 0.22083 0 0.221613 
0 0.222396 0 0.223179 0 0.223962 0 0.224745 0 
0.225529 0 0.226312 0 0.227095 0 0.227878 0 0.228661 
0 0.229444 0 0.230227 0 0.23101 0 0.231793 0 
0.232576 0 0.233359 0 0.234143 0 0.234926 0 0.235709 
0 0.236492 0 0.237275 0 0.238058 0 0.238841 0 
0.239624 0 0.240407 0 0.24119 0 0.241973 0 0.242756 
0 0.24354 0 0.244323 0 0.245106 0 0.245889 0 
0.246672 0 0.247455 0 0.248238 0 0.249021 0 0.249804 
0 0.250587 0 0.25137 0 0.252153 0 0.252937 0 
0.25372 0 0.254503 0 0.255286 0 0.256069 0 0.256852 
0 0.257635 0 0.258418 0 0.259201 0 0.259984 0 
0.260767 0 0.261551 0 0.262334 0 0.263117 0 0.2639 
0 0.264683 0 0.265466 0 0.266249 0 0.267032 0 
0.267815 0 0.268598 0 0.269381 0 0.270164 0 0.270948 
0 0.271731 0 0.272514 0 0.273297 0 0.27408 0 
0.274863 0 0.275646 0 0.276429 0 0.277212 0 0.277995 
0 0.278778 0 0.279561 0 0.280345 0 0.281128 0 
0.281911 0 0.282694 0 0.283477 0 0.28426 0 0.285043 
0 0.285826 0 0.286609 0 0.287392 0 0.288175 0 
0.288958 0 0.289742 0 0.290525 0 0.291308 0 0.292091 
0 0.292874 0 0.293657 0 0.29444 0 0.295223 0 
0.296006 0 0.296789 0 0.297572 0 0.298356 0 0.299139 
0 0.299922 0 0.300705 0 0.301488 0 0.302271 0 
0.303054 0 0.303837 0 0.30462 0 0.305403 0 0.306186 
0 0.306969 0 0.307753 0 0.308536 0 0.309319 0 
0.310102 0 0.310885 0 0.311668 0 0.312451 0 0.313234 
0 0.314017 0 0.3148 0 0.315583 0 0.316366 0 
0.31715 0 0.317933 0 0.318716 0 0.319499 0 0.320282 
0 0.321065 0 0.321848 0 0.322631 0 0.323414 0 
0.324197 0 0.32498 0 0.325763 0 0.326547 0 0.32733 
0 0.328113 0 0.328896 0 0.329679 0 0.330462 0 
0.331245 0 0.332028 0 0.332811 0 0.333594 0 0.334377 
0 0.335161 0 0.335944 0 0.336727 0 0.33751 0 
0.338293 0 0.339076 0 0.339859 0 0.340642 0 0.341425 
0 0.342208 0 0.342991 0 0.343774 0 0.344558 0 
0.345341 0 0.346124 0 0.346907 0 0.34769 0 0.348473 
0 0.349256 0 0.350039 0 0.350822 0 0.351605 0 
0.352388 0 0.353171 0 0.353955 0 0.354738 0 0.355521 
0 0.356304 0 0.357087 0 0.35787 0 0.358653 0 
0.359436 0 0.360219 0 0.361002 0 0.361785 0 0.362569 
0 0.363352 0 0.364135 0 0.364918 0 0.365701 0 
0.366484 0 0.367267 0 0.36805 0 0.368833 0 0.369616 
0 0.370399 0 0.371182 0 0.371966 0 0.372749 0 
0.373532 0 0.374315 0 0.375098 0 0.375881 0 0.376664 
0 0.377447 0 0.37823 0 0.379013 0 0.379796 0 
0.380579 0 0.381363 0 0.382146 0 0.382929 0 0.383712 
0 0.384495 0 0.385278 0 0.386061 0 0.386844 0 
0.387627 0 0.38841 0 0.389193 0 0.389977 0 0.39076 
0 0.391543 0 0.392326 0 0.393109 0 0.393892 0 
0.394675 0 0.395458 0 0.396241 0 0.397024 0 0.397807 
0 0.39859 0 0.399374 0 0.400157 0 0.40094 0 
0.401723 0 0.402506 0 0.403289 0 0.404072 0 0.404855 
0 0.405638 0 0.406421 0 0.407204 0 0.407987 0 
0.408771 0 0.409554 0 0.410337 0 0.41112 0 0.411903 
0 0.412686 0 0.413469 0 0.414252 0 0.415035 0 
0.415818 0 0.416601 0 0.417385 0 0.418168 0 0.418951 
0 0.419734 0 0.420517 0 0.4213 0 0.422083 0 
0.422866 0 0.423649 0 0.424432 0 0.425215 0 0.425998 
0 0.426782 0 0.427565 0 0.428348 0 0.429131 0 
0.429914 0 0.430697 0 0.43148 0 0.432263 0 0.433046 
0 0.433829 0 0.434612 0 0.435395 0 0.436179 0 
0.436962 0 0.437745 0 0.438528 0 0.439311 0 0.440094 
0 0.440877 0 0.44166 0 0.442443 0 0.443226 0 
0.444009 0 0.444792 0 0.445576 0 0.446359 0 0.447142 
0 0.447925 0 0.448708 0 0.449491 0 0.450274 0 
0.451057 0 0.45184 0 0.452623 0 0.453406 0 0.45419 
0 0.454973 0 0.455756 0 0.456539 0 0.457322 0 
0.458105 0 0.458888 0 0.459671 0 0.460454 0 0.461237 
0 0.46202 0 0.462803 0 0.463587 0 0.46437 0 
0.465153 0 0.465936 0 0.466719 0 0.467502 0 0.468285 
0 0.469068 0 0.469851 0 0.470634 0 0.471417 0 
0.4722 0 0.472984 0 0.473767 0 0.47455 0 0.475333 
0 0.476116 0 0.476899 0 0.477682 0 0.478465 0 
0.479248 0 0.480031 0 0.480814 0 0.481597 0 0.482381 
0 0.483164 0 0.483947 0 0.48473 0 0.485513 0 
0.486296 0 0.487079 0 0.487862 0 0.488645 0 0.489428 
0 0.490211 0 0.490995 0 0.491778 0 0.492561 0 
0.493344 0 0.494127 0 0.49491 0 0.495693 0 0.496476 
0 0.497259 0 0.498042 0 0.498825 0 0.499608 0 
0.500392 0 0.501175 0 0.501958 0 0.502741 0 0.503524 
0 0.504307 0 0.50509 0 0.505873 0 0.506656 0 
0.507439 0 0.508222 0 0.509005 0 0.509789 0 0.510572 
0 0.511355 0 0.512138 0 0.512921 0 0.513704 0 
0.514487 0 0.51527 0 0.516053 0 0.516836 0 0.517619 
0 0.518403 0 0.519186 0 0.519969 0 0.520752 0 
0.521535 0 0.522318 0 0.523101 0 0.523884 0 0.524667 
0 0.52545 0 0.526233 0 0.527016 0 0.5278 0 
0.528583 0 0.529366 0 0.530149 0 0.530932 0 0.531715 
0 0.532498 0 0.533281 0 0.534064 0 0.534847 0 
0.53563 0 0.536413 0 0.537197 0 0.53798 0 0.538763 
0 0.539546 0 0.540329 0 0.541112 0 0.541895 0 
0.542678 0 0.543461 0 0.544244 0 0.545027 0 0.545811 
0 0.546594 0 0.547377 0 0.54816 0 0.548943 0 
0.549726 0 0.550509 0 0.551292 0 0.552075 0 0.552858 
0 0.553641 0 0.554424 0 0.555207 0 0.555991 0 
0.556774 0 0.557557 0 0.55834 0 0.559123 0 0.559906 
0 0.560689 0 0.561472 0 0.562255 0 0.563038 0 
0.563821 0 0.564605 0 0.565388 0 0.566171 0 0.566954 
0 0.567737 0 0.56852 0 0.569303 0 0.570086 0 
0.570869 0 0.571652 0 0.572435 0 0.573218 0 0.574002 
0 0.574785 0 0.575568 0 0.576351 0 0.577134 0 
0.577917 0 0.5787 0 0.579483 0 0.580266 0 0.581049 
0 0.581832 0 0.582615 0 0.583399 0 0.584182 0 
0.584965 0 0.585748 0 0.586531 0 0.587314 0 0.588097 
0 0.58888 0 0.589663 0 0.590446 0 0.591229 0 
0.592013 0 0.592796 0 0.593579 0 0.594362 0 0.595145 
0 0.595928 0 0.596711 0 0.597494 0 0.598277 0 
0.59906 0 0.599843 0 0.600626 0 0.60141 0 0.602193 
0 0.602976 0 0.603759 0 0.604542 0 0.605325 0 
0.606108 0 0.606891 0 0.607674 0 0.608457 0 0.60924 
0 0.610023 0 0.610807 0 0.61159 0 0.612373 0 
0.613156 0 0.613939 0 0.614722 0 0.615505 0 0.616288 
0 0.617071 0 0.617854 0 0.618637 0 0.619421 0 
0.620204 0 0.620987 0 0.62177 0 0.622553 0 0.623336 
0 0.624119 0 0.624902 0 0.625685 0 0.626468 0 
0.627251 0 0.628034 0 0.628818 0 0.629601 0 0.630384 
0 0.631167 0 0.63195 0 0.632733 0 0.633516 0 
0.634299 0 0.635082 0 0.635865 0 0.636648 0 0.637432 
0 0.638215 0 0.638998 0 0.639781 0 0.640564 0 
0.641347 0 0.64213 0 0.642913 0 0.643696 0 0.644479 
0 0.645262 0 0.646045 0 0.646829 0 0.647612 0 
0.648395 0 0.649178 0 0.649961 0 0.650744 0 0.651527 
0 0.65231 0 0.653093 0 0.653876 0 0.654659 0 
0.655442 0 0.656226 0 0.657009 0 0.657792 0 0.658575 
0 0.659358 0 0.660141 0 0.660924 0 0.661707 0 
0.66249 0 0.663273 0 0.664056 0 0.664839 0 0.665623 