# vtk DataFile Version 4.2
vtk output
ASCII
DATASET POLYDATA
POINTS 1277 float
0 0 0 -0.00384207 5.83557e-06 0.00136019 -0.0150498 2.30952e-05 0.00532648 
-0.0331456 5.14081e-05 0.0117274 -0.0576517 9.04037e-05 0.0203915 -0.0880904 0.000139711 0.0311474 
-0.123984 0.00019896 0.0438236 -0.164855 0.00026778 0.0582486 -0.210226 0.000345799 0.074251 
-0.259619 0.000432648 0.0916594 -0.312555 0.000527956 0.110302 -0.368559 0.000631351 0.130008 
-0.427151 0.000742464 0.150606 -0.487855 0.000860923 0.171924 -0.550192 0.000986359 0.19379 
-0.613686 0.0011184 0.216034 -0.677857 0.00125667 0.238483 -0.742229 0.00140081 0.260967 
-0.806324 0.00155045 0.283314 -0.869664 0.0017052 0.305353 -0.931772 0.00186471 0.326911 
-0.992169 0.00202859 0.347818 -1.05051 0.00219575 0.367949 -1.10686 0.00236274 0.387324 
-1.16135 0.0025257 0.405992 -1.21412 0.00268076 0.424001 -1.26532 0.00282404 0.441399 
-1.31508 0.00295167 0.458234 -1.36354 0.00305978 0.474556 -1.41084 0.0031445 0.490412 
-1.45713 0.00320196 0.505851 -1.50254 0.00322828 0.52092 -1.5472 0.00321959 0.53567 
-1.59127 0.00317203 0.550146 -1.63488 0.00308171 0.564399 -1.67817 0.00294477 0.578477 
-1.72128 0.00275733 0.592427 -1.76435 0.00251553 0.606298 -1.80752 0.00221548 0.620139 
-1.85092 0.00185333 0.633997 -1.8947 0.00142519 0.647922 -1.939 0.000927449 0.661961 
-1.98387 0.000363431 0.67614 -2.02927 -0.00025588 0.690463 -2.07516 -0.000919109 0.704933 
-2.1215 -0.00161488 0.719552 -2.16825 -0.00233181 0.734323 -2.21536 -0.00305853 0.749249 
-2.2628 -0.00378366 0.764331 -2.31053 -0.00449583 0.779572 -2.3585 -0.00518365 0.794976 
-2.40667 -0.00583576 0.810544 -2.45501 -0.00644077 0.826279 -2.50346 -0.00698731 0.842183 
-2.552 -0.00746399 0.85826 -2.60057 -0.00785946 0.874511 -2.64914 -0.00816232 0.890939 
-2.69766 -0.0083612 0.907547 -2.7461 -0.00844473 0.924336 -2.79441 -0.00840152 0.941311 
-2.84255 -0.00822021 0.958473 -2.89049 -0.00788943 0.975824 -2.93818 -0.00740337 0.993364 
-2.98565 -0.00677062 1.01108 -3.03291 -0.00600203 1.02896 -3.07998 -0.00510845 1.04699 
-3.12687 -0.00410074 1.06515 -3.17359 -0.00298976 1.08344 -3.22017 -0.00178637 1.10184 
-3.26662 -0.000501411 1.12034 -3.31296 0.000854249 1.13891 -3.35919 0.00226976 1.15756 
-3.40535 0.00373425 1.17626 -3.45144 0.00523688 1.19501 -3.49748 0.00676679 1.21378 
-3.54348 0.00831312 1.23257 -3.58947 0.00986502 1.25137 -3.63546 0.0114116 1.27015 
-3.68146 0.0129421 1.28891 -3.72749 0.0144455 1.30763 -3.77357 0.0159111 1.3263 
-3.81971 0.017328 1.3449 -3.86593 0.0186867 1.36343 -3.91222 0.019986 1.38188 
-3.95859 0.021228 1.40024 -4.00504 0.0224145 1.41851 -4.05155 0.0235477 1.43669 
-4.09813 0.0246296 1.45478 -4.14478 0.025662 1.47277 -4.19149 0.026647 1.49066 
-4.23827 0.0275867 1.50844 -4.2851 0.0284829 1.52612 -4.33198 0.0293378 1.54368 
-4.37892 0.0301532 1.56113 -4.4259 0.0309312 1.57847 -4.47294 0.0316738 1.59569 
-4.52002 0.032383 1.61278 -4.56714 0.0330607 1.62975 -4.6143 0.033709 1.64659 
-4.6615 0.0343299 1.66329 -4.70874 0.0349253 1.67986 -4.756 0.0354972 1.69629 
-4.8033 0.0360477 1.71259 -4.85062 0.036579 1.72874 -4.89797 0.0370931 1.74476 
-4.94535 0.0375925 1.76065 -4.99277 0.0380793 1.77643 -5.04021 0.0385559 1.79209 
-5.08768 0.0390244 1.80765 -5.13518 0.0394872 1.82312 -5.18272 0.0399465 1.83849 
-5.23028 0.0404046 1.85377 -5.27788 0.0408636 1.86898 -5.32551 0.041326 1.88412 
-5.37317 0.0417939 1.89919 -5.42087 0.0422695 1.91421 -5.4686 0.0427553 1.92917 
-5.51636 0.0432533 1.9441 -5.56416 0.043766 1.95898 -5.61199 0.0442954 1.97384 
-5.65986 0.044844 1.98867 -5.70776 0.0454139 2.00348 -5.7557 0.0460072 2.01829 
-5.80367 0.0466113 2.03308 -5.85168 0.0471887 2.04783 -5.89972 0.0476995 2.06252 
-5.9478 0.0481037 2.07711 -5.99591 0.0483615 2.09158 -6.04405 0.0484329 2.10591 
-6.09223 0.048278 2.12007 -6.14044 0.0478568 2.13403 -6.18868 0.0471295 2.14777 
-6.23695 0.0460561 2.16125 -6.28525 0.0445967 2.17446 -6.33359 0.0427114 2.18736 
-6.38195 0.0403603 2.19993 -6.43034 0.0375034 2.21215 -6.47876 0.0341008 2.22398 
-6.5272 0.0301126 2.2354 -6.57568 0.0254989 2.24639 -6.62418 0.0202197 2.25691 
-6.6727 0.0142352 2.26694 -6.72125 0.00750535 2.27646 -6.76983 -5.09917e-07 2.28544 
-6.81841 -0.00827965 2.29389 -6.86699 -0.0173216 2.3018 -6.91554 -0.0271161 2.30918 
-6.96406 -0.0376526 2.31603 -7.01252 -0.0489207 2.32236 -7.06091 -0.06091 2.32817 
-7.10922 -0.0736101 2.33347 -7.15743 -0.0870107 2.33825 -7.20552 -0.101101 2.34253 
-7.25348 -0.115871 2.3463 -7.3013 -0.13131 2.34957 -7.34895 -0.147408 2.35235 
-7.39642 -0.164155 2.35463 -7.44369 -0.181539 2.35643 -7.49076 -0.199551 2.35773 
-7.5376 -0.21818 2.35856 -7.5842 -0.237415 2.35891 -7.63054 -0.257247 2.35878 
-7.67661 -0.277665 2.35819 -7.72239 -0.298658 2.35712 -7.76788 -0.320221 2.35559 
-7.81305 -0.342346 2.3536 -7.8579 -0.36503 2.35116 -7.90242 -0.388267 2.34825 
-7.9466 -0.412051 2.3449 -7.99043 -0.436376 2.34109 -8.0339 -0.461238 2.33684 
-8.077 -0.486631 2.33214 -8.11971 -0.512549 2.327 -8.16203 -0.538987 2.32141 
-8.20395 -0.56594 2.3154 -8.24546 -0.593402 2.30895 -8.28654 -0.621368 2.30206 
-8.32719 -0.649832 2.29475 -8.36739 -0.678788 2.28701 -8.40715 -0.708233 2.27886 
-8.44643 -0.738159 2.27027 -8.48524 -0.768562 2.26128 -8.52357 -0.799435 2.25186 
-8.5614 -0.830775 2.24204 -8.59874 -0.86257 2.23181 -8.63558 -0.894808 2.22118 
-8.67193 -0.927477 2.21017 -8.70779 -0.960563 2.19879 -8.74317 -0.994053 2.18703 
-8.77806 -1.02793 2.17493 -8.81248 -1.06219 2.16247 -8.84643 -1.09682 2.14968 
-8.87991 -1.13179 2.13657 -8.91292 -1.16711 2.12314 -8.94547 -1.20275 2.1094 
-8.97755 -1.23871 2.09536 -9.00919 -1.27496 2.08104 -9.04037 -1.31151 2.06645 
-9.0711 -1.34832 2.05159 -9.10139 -1.3854 2.03647 -9.13124 -1.42273 2.0211 
-9.16065 -1.46029 2.0055 -9.18962 -1.49807 1.98967 -9.21817 -1.53607 1.97363 
-9.24629 -1.57426 1.95738 -9.27399 -1.61264 1.94092 -9.30128 -1.65122 1.92427 
-9.32817 -1.68997 1.90742 -9.35467 -1.7289 1.8904 -9.38079 -1.76799 1.87319 
-9.40653 -1.80726 1.8558 -9.4319 -1.84668 1.83825 -9.45692 -1.88625 1.82053 
-9.48158 -1.92596 1.80265 -9.50591 -1.96582 1.78463 -9.52989 -2.00582 1.76645 
-9.55356 -2.04594 1.74813 -9.57691 -2.08619 1.72968 -9.59995 -2.12655 1.71109 
-9.62269 -2.16702 1.69238 -9.64514 -2.2076 1.67355 -9.66731 -2.24829 1.65461 
-9.68921 -2.28906 1.63556 -9.71083 -2.32993 1.6164 -9.7322 -2.37087 1.59715 
-9.75332 -2.4119 1.5778 -9.77419 -2.45301 1.55835 -9.79482 -2.49419 1.53882 
-9.81521 -2.53544 1.51919 -9.83537 -2.57677 1.49948 -9.8553 -2.61816 1.47968 
-9.87502 -2.65962 1.4598 -9.89451 -2.70115 1.43984 -9.9138 -2.74273 1.4198 
-9.93288 -2.78437 1.39969 -9.95176 -2.82607 1.3795 -9.97045 -2.86782 1.35923 
-9.98894 -2.90962 1.3389 -10.0073 -2.95147 1.3185 -10.0254 -2.99337 1.29803 
-10.0433 -3.03531 1.2775 -10.0611 -3.0773 1.2569 -10.0788 -3.11932 1.23625 
-10.0962 -3.16138 1.21553 -10.1135 -3.20347 1.19477 -10.1307 -3.24559 1.17394 
-10.1477 -3.28775 1.15306 -10.1646 -3.32993 1.13212 -10.1813 -3.37215 1.11113 
-10.1979 -3.41439 1.09008 -10.2143 -3.45666 1.06897 -10.2305 -3.49896 1.0478 
-10.2467 -3.54128 1.02657 -10.2627 -3.58363 1.00528 -10.2785 -3.62599 0.983929 
-10.2942 -3.66838 0.962517 -10.3098 -3.71079 0.941043 -10.3252 -3.75322 0.919506 
-10.3405 -3.79567 0.897907 -10.3556 -3.83813 0.876243 -10.3706 -3.88061 0.854515 
-10.3855 -3.92311 0.832723 -10.4003 -3.96562 0.810864 -10.4149 -4.00814 0.78894 
-10.4293 -4.05068 0.766949 -10.4437 -4.09322 0.74489 -10.4579 -4.13577 0.72276 
-10.4719 -4.17834 0.700557 -10.4859 -4.22091 0.678278 -10.4996 -4.26348 0.65592 
-10.5133 -4.30606 0.633482 -10.5267 -4.34865 0.61096 -10.5401 -4.39123 0.588352 
-10.5532 -4.43382 0.565656 -10.5662 -4.47641 0.542868 -10.5791 -4.519 0.519986 
-10.5918 -4.56158 0.497008 -10.6043 -4.60417 0.473932 -10.6166 -4.64674 0.450754 
-10.6288 -4.68932 0.427471 -10.6408 -4.73188 0.404083 -10.6526 -4.77444 0.380585 
-10.6642 -4.81699 0.356975 -10.6756 -4.85953 0.333251 -10.6869 -4.90205 0.309411 
-10.698 -4.94457 0.28545 -10.7088 -4.98707 0.261367 -10.7195 -5.02955 0.237157 
-10.7299 -5.07201 0.212818 -10.7401 -5.11445 0.188345 -10.7501 -5.15686 0.163734 
-10.7599 -5.19925 0.138984 -10.7694 -5.2416 0.11409 -10.7787 -5.28392 0.0890477 
-10.7877 -5.3262 0.0638551 -10.7965 -5.36844 0.0385082 -10.805 -5.41065 0.0130034 
-10.8132 -5.45281 -0.0126627 -10.8212 -5.49492 -0.0384936 -10.8289 -5.53698 -0.0644927 
-10.8363 -5.57899 -0.0906636 -10.8434 -5.62095 -0.11701 -10.8501 -5.66284 -0.143535 
-10.8566 -5.70468 -0.170242 -10.8628 -5.74646 -0.197134 -10.8686 -5.78817 -0.224216 
-10.8741 -5.82981 -0.251487 -10.8793 -5.87138 -0.278949 -10.8841 -5.91286 -0.306603 
-10.8886 -5.95426 -0.334448 -10.8927 -5.99557 -0.362484 -10.8965 -6.03678 -0.390714 
-10.8999 -6.07789 -0.419137 -10.9029 -6.11889 -0.447754 -10.9055 -6.15978 -0.476564 
-10.9077 -6.20055 -0.50557 -10.9096 -6.2412 -0.534771 -10.911 -6.28172 -0.564168 
-10.912 -6.3221 -0.593761 -10.9126 -6.36235 -0.623551 -10.9128 -6.40245 -0.653539 
-10.9125 -6.4424 -0.683724 -10.9118 -6.4822 -0.714108 -10.9107 -6.52184 -0.744691 
-10.9091 -6.56131 -0.775474 -10.907 -6.60062 -0.806457 -10.9045 -6.63974 -0.837636 
-10.9015 -6.67869 -0.869008 -10.898 -6.71745 -0.900566 -10.8941 -6.75603 -0.932306 
-10.8897 -6.79441 -0.964223 -10.8848 -6.8326 -0.996312 -10.8795 -6.87059 -1.02857 
-10.8737 -6.90837 -1.06098 -10.8675 -6.94594 -1.09356 -10.8607 -6.98331 -1.12628 
-10.8535 -7.02045 -1.15915 -10.8458 -7.05738 -1.19216 -10.8377 -7.09407 -1.2253 
-10.8291 -7.13054 -1.25858 -10.82 -7.16678 -1.29198 -10.8104 -7.20278 -1.3255 
-10.8003 -7.23854 -1.35914 -10.7898 -7.27405 -1.39289 -10.7788 -7.30931 -1.42674 
-10.7673 -7.34432 -1.46069 -10.7553 -7.37907 -1.49474 -10.7429 -7.41356 -1.52887 
-10.73 -7.44781 -1.56309 -10.7166 -7.4818 -1.59738 -10.7028 -7.51554 -1.63173 
-10.6886 -7.54904 -1.66615 -10.6738 -7.58228 -1.70062 -10.6587 -7.61528 -1.73514 
-10.6431 -7.64804 -1.76971 -10.6271 -7.68056 -1.8043 -10.6107 -7.71283 -1.83893 
-10.5938 -7.74487 -1.87357 -10.5766 -7.77667 -1.90823 -10.5589 -7.80823 -1.9429 
[...]
CELL_DATA 1
FIELD FieldData 2
Length 1 1 double
63.821944288 
Tortuosity 1 1 double
1.7971684964 
POINT_DATA 1277
SCALARS MaximumInscribedSphereRadius float
LOOKUP_TABLE default
0.62 0.629223 0.638446 0.647669 0.656892 0.666115 0.675338 0.684561 0.693784 
0.703007 0.71223 0.721453 0.730677 0.7399 0.749123 0.758346 0.767569 0.776792 
0.786015 0.795238 0.804461 0.813384 0.819096 0.824807 0.830518 0.836229 0.841941 
0.847652 0.853363 0.859075 0.864786 0.870497 0.876208 0.88192 0.887631 0.893342 
0.899054 0.904765 0.910476 0.916188 0.921899 0.925027 0.925156 0.925285 0.925414 
0.925543 0.925672 0.925801 0.92593 0.926059 0.926188 0.926317 0.926446 0.926575 
0.926704 0.926833 0.926962 0.927091 0.92722 0.927349 0.927478 0.927408 0.926197 
0.924985 0.923774 0.922563 0.921352 0.92014 0.918929 0.917718 0.916507 0.915295 
0.914084 0.912873 0.911662 0.910451 0.909239 0.908028 0.906817 0.905606 0.904394 
0.903183 0.901791 0.900371 0.89895 0.897529 0.896108 0.894687 0.893267 0.891846 
0.890425 0.889004 0.887583 0.886163 0.884742 0.883321 0.8819 0.88048 0.879059 
0.877638 0.876217 0.874796 0.8742 0.8742 0.8742 0.8742 0.8742 0.8742 
0.8742 0.8742 0.8742 0.8742 0.8742 0.8742 0.8742 0.8742 0.8742 
0.8742 0.8742 0.8742 0.8742 0.8742 0.875421 0.879492 0.883563 0.887634 
0.891704 0.895776 0.899847 0.903918 0.907989 0.91206 0.916131 0.920202 0.924273 
0.928344 0.932415 0.936486 0.940557 0.944628 0.948699 0.95277 0.956981 0.965661 
0.974341 0.983021 0.991701 1.00038 1.00906 1.01774 1.02642 1.0351 1.04378 
1.05246 1.06114 1.06982 1.0785 1.08718 1.09586 1.10454 1.11322 1.1219 
1.13058 1.12089 1.106 1.0911 1.0762 1.0613 1.0464 1.0315 1.0166 
1.0017 0.986799 0.971899 0.957 0.9421 0.927201 0.912301 0.897402 0.882502 
0.867603 0.852703 0.837804 0.82882 0.824746 0.820671 0.816596 0.812522 0.808447 
0.804372 0.800298 0.796223 0.792148 0.788074 0.783999 0.779925 0.77585 0.771775 
0.767701 0.763626 0.759551 0.755477 0.751402 0.750197 0.756002 0.761807 0.767612 
0.773417 0.779222 0.785027 0.790832 0.796637 0.802441 0.808246 0.814051 0.819856 
0.825661 0.831466 0.837271 0.843076 0.848881 0.854686 0.860491 0.8661 0.858034 
0.849967 0.8419 0.833834 0.825767 0.8177 0.809634 0.801567 0.7935 0.785434 
0.777367 0.7693 0.761234 0.753167 0.7451 0.737034 0.728967 0.7209 0.712834 
0.704767 0.70449 0.707083 0.709675 0.712267 0.714859 0.717451 0.720043 0.722635 
0.725228 0.72782 0.730412 0.733004 0.735596 0.738188 0.74078 0.743372 0.745965 
0.748557 0.751149 0.753741 0.759389 0.768839 0.778288 0.787738 0.797188 0.806638 
0.816087 0.825537 0.834987 0.844437 0.853887 0.863336 0.872786 0.882236 0.891686 
0.901135 0.910585 0.920035 0.929485 0.938934 0.948383 0.957825 0.967266 0.976708 
0.98615 0.995592 1.00503 1.01448 1.02392 1.03336 1.0428 1.05224 1.06168 
1.07113 1.08057 1.09001 1.09945 1.10889 1.11834 1.12778 1.13722 1.14276 
1.14778 1.15279 1.15781 1.16282 1.16784 1.17285 1.17786 1.18288 1.18789 
1.19291 1.19792 1.20294 1.20795 1.21297 1.21798 1.223 1.22801 1.23302 
1.23804 1.23937 1.23834 1.23731 1.23628 1.23524 1.23421 1.23318 1.23215 
1.23112 1.23009 1.22905 1.22802 1.22699 1.22596 1.22493 1.22389 1.22286 
1.22183 1.2208 1.21977 1.2166 1.20937 1.20214 1.19491 1.18768 1.18045 
1.17322 1.16599 1.15876 1.15153 1.1443 1.13707 1.12984 1.12261 1.11538 
1.10815 1.10092 1.09369 1.08646 1.07923 1.07222 1.06795 1.06367 1.05939 
1.05511 1.05084 1.04656 1.04228 1.03801 1.03373 1.02945 1.02517 1.0209 
1.01662 1.01234 1.00807 1.00379 0.999512 0.995235 0.990958 0.986681 0.992827 
1.00164 1.01045 1.01927 1.02808 1.03689 1.04571 1.05452 1.06333 1.07215 
1.08096 1.08977 1.09859 1.1074 1.11621 1.12503 1.13384 1.14265 1.15147 
1.16028 1.16646 1.17019 1.17391 1.17764 1.18136 1.18509 1.18882 1.19254 
1.19627 1.19999 1.20372 1.20745 1.21117 1.2149 1.21862 1.22235 1.22608 
1.2298 1.23353 1.23726 1.24 1.24 1.24 1.24 1.24 1.24 
1.24 1.24 1.24 1.24 1.24 1.24 1.24 1.24 1.24 
1.24 1.24 1.24 1.24 1.24 1.24 1.25426 1.26866 1.28307 
1.29748 1.31188 1.32629 1.3407 1.35511 1.36951 1.38392 1.39833 1.41273 
1.42714 1.44155 1.45595 1.47036 1.48477 1.49917 1.51358 1.52554 1.53233 
1.53913 1.54593 1.55272 1.55952 1.56631 1.57311 1.57991 1.5867 1.5935 
1.6003 1.60709 1.61389 1.62068 1.62748 1.63428 1.64107 1.64787 1.65466 
1.65854 1.63926 1.61997 1.60069 1.5814 1.56212 1.54283 1.52355 1.50426 
1.48498 1.4657 1.44641 1.42713 1.40784 1.38856 1.36927 1.34999 1.3307 
1.31142 1.29213 1.27285 1.28028 1.29133 1.30239 1.31345 1.32451 1.33557 
1.34663 1.35769 1.36875 1.37981 1.39087 1.40193 1.41299 1.42404 1.4351 
1.44616 1.45722 1.46828 1.47934 1.4904 1.49712 1.50139 1.50566 1.50994 
1.51421 1.51848 1.52276 1.52703 1.53131 1.53558 1.53985 1.54413 1.5484 
1.55267 1.55695 1.56122 1.5655 1.56977 1.57404 1.57832 1.58093 1.58074 
1.58056 1.58037 1.58019 1.58 1.57981 1.57963 1.57944 1.57925 1.57907 
1.57888 1.57869 1.57851 1.57832 1.57814 1.57795 1.57776 1.57758 1.57739 
1.57715 1.57633 1.57551 1.5747 1.57388 1.57307 1.57225 1.57143 1.57062 
1.5698 1.56899 1.56817 1.56735 1.56654 1.56572 1.56491 1.56409 1.56327 
1.56246 1.56164 1.56083 1.56024 1.55972 1.55919 1.55867 1.55814 1.55761 
1.55709 1.55656 1.55603 1.55551 1.55498 1.55446 1.55393 1.5534 1.55288 
1.55235 1.55182 1.5513 1.55077 1.55025 1.55 1.55 1.55 1.55 
1.55 1.55 1.55 1.55 1.55 1.55 1.55 1.55 1.55 
1.55 1.55 1.55 1.55 1.55 1.55 1.55 1.55 1.55 
1.55 1.55 1.55 1.55 1.55 1.55 1.55 1.55 1.55 
1.55 1.55 1.55 1.55 1.55 1.55 1.55 1.55 1.55 
1.55 1.55 1.55 1.55 1.55 1.55 1.55 1.55 1.55 
1.55 1.55 1.55 1.55 1.55 1.55 1.55 1.55 1.55 
1.55 1.55 1.55 1.54594 1.54148 1.53702 1.53256 1.5281 1.52364 
1.51918 1.51472 1.51026 1.5058 1.50133 1.49687 1.49241 1.48795 1.48349 
1.47903 1.47457 1.47011 1.46565 1.46119 1.45088 1.43756 1.42424 1.41092 
1.3976 1.38428 1.37096 1.35764 1.34433 1.33101 1.31769 1.30437 1.29105 
1.27773 1.26441 1.25109 1.23777 1.22446 1.21114 1.19782 1.18662 1.17862 
1.17061 1.16261 1.15461 1.14661 1.1386 1.1306 1.1226 1.1146 1.10659 
1.09859 1.09059 1.08258 1.07458 1.06658 1.05858 1.05057 1.04257 1.03457 
1.02758 1.02664 1.0257 1.02476 1.02381 1.02287 1.02193 1.02098 1.02004 
1.0191 1.01816 1.01721 1.01627 1.01533 1.01438 1.01344 1.0125 1.01156 
1.01061 1.00967 1.00873 1.01973 1.0318 1.04387 1.05594 1.06802 1.08009 
1.09216 1.10423 1.11631 1.12838 1.14045 1.15252 1.1646 1.17667 1.18874 
1.20081 1.21289 1.22496 1.23703 1.2491 1.26678 1.2862 1.30563 1.32505 
1.34448 1.3639 1.38333 1.40276 1.42218 1.44161 1.46103 1.48046 1.49989 
1.51931 1.53874 1.55816 1.57759 1.59701 1.61644 1.63587 1.65038 1.66055 
1.67072 1.68088 1.69105 1.70122 1.71139 1.72155 1.73172 1.74189 1.75206 
1.76222 1.77239 1.78256 1.79273 1.80289 1.81306 1.82323 1.8334 1.84356 
1.85109 1.85079 1.85048 1.85018 1.84987 1.84957 1.84926 1.84896 1.84865 
1.84835 1.84804 1.84774 1.84743 1.84713 1.84682 1.84652 1.84621 1.84591 
1.8456 1.8453 1.84499 1.83831 1.83142 1.82452 1.81763 1.81074 1.80384 
1.79695 1.79006 1.78316 1.77627 1.76937 1.76248 1.75559 1.74869 1.7418 
1.7349 1.72801 1.72112 1.71422 1.70733 1.69649 1.68387 1.67125 1.65863 
1.64601 1.63339 1.62077 1.60816 1.59554 1.58292 1.5703 1.55768 1.54506 
1.53245 1.51983 1.50721 1.49459 1.48197 1.46935 1.45673 1.44102 1.42131 
1.4016 1.38189 1.36218 1.34248 1.32277 1.30306 1.28335 1.26364 1.24393 
1.22422 1.20451 1.1848 1.16509 1.14538 1.12567 1.10596 1.08625 1.06654 
1.05163 1.05402 1.0564 1.05879 1.06118 1.06357 1.06596 1.06834 1.07073 
1.07312 1.07551 1.0779 1.08028 1.08267 1.08506 1.08745 1.08983 1.09222 
1.09461 1.097 1.09939 1.10309 1.1068 1.11051 1.11422 1.11794 1.12165 
1.12536 1.12907 1.13279 1.1365 1.14021 1.14393 1.14764 1.15135 1.15506 
1.15878 1.16249 1.1662 1.16991 1.17363 1.1674 1.15769 1.14797 1.13826 
1.12855 1.11884 1.10913 1.09942 1.08971 1.08 1.07028 1.06057 1.05086 
1.04115 1.03144 1.02173 1.01202 1.00231 0.992594 0.982883 0.980396 0.985658 
0.99092 0.996182 1.00144 1.00671 1.01197 1.01723 1.02249 1.02775 1.03302 
1.03828 1.04354 1.0488 1.05406 1.05932 1.06459 1.06985 1.07511 1.08037 
1.08603 1.09307 1.10011 1.10715 1.11418 1.12122 1.12826 1.1353 1.14234 
1.14937 1.15641 1.16345 1.17049 1.17753 1.18456 1.1916 1.19864 1.20568 
1.21272 1.21975 1.22679 1.22818 1.22933 1.23047 1.23161 1.23275 1.2339 
1.23504 1.23618 1.23732 1.23846 1.23961 1.24075 1.24189 1.24303 1.24418 
1.24532 1.24646 1.2476 1.24875 1.24989 1.25448 1.26066 1.26685 1.27303 
1.27922 1.2854 1.29159 1.29777 1.30396 1.31014 1.31632 1.32251 1.32869 
1.33488 1.34106 1.34725 1.35343 1.35962 1.3658 1.37199 1.38013 1.39118 
1.40223 1.41328 1.42433 1.43538 1.44644 1.45749 1.46854 1.47959 1.49064 
1.50169 1.51274 1.5238 1.53485 1.5459 1.55695 1.568 1.57905 1.5901 
1.60243 1.62448 1.64652 1.66857 1.69062 1.71267 1.73472 1.75677 1.77882 
1.80086 1.82291 1.84496 1.86701 1.88906 1.91111 1.93316 1.9552 1.97725 
1.9993 2.02135 2.0434 2.04636 2.0454 2.04443 2.04347 2.04251 2.04155 
2.04058 2.03962 2.03866 2.03769 2.03673 2.03577 2.0348 2.03384 2.03288 
2.03191 2.03095 2.02999 2.02902 2.02806 2.0178 1.9997 1.9816 1.96351 
1.94541 1.92731 1.90921 1.89111 1.87301 1.85491 1.83682 1.81872 1.80062 
1.78252 1.76442 1.74632 1.72822 1.71013 1.69203 1.67393 1.65922 1.65436 
1.64951 1.64465 1.6398 1.63494 1.63009 1.62523 1.62037 1.61552 1.61066 
1.60581 1.60095 1.5961 1.59124 1.58639 1.58153 1.57668 1.57182 1.56696 
1.56211 1.55413 1.54605 1.53798 1.5299 1.52182 1.51374 1.50567 1.49759 
1.48951 1.48144 1.47336 1.46528 1.4572 1.44913 1.44105 1.43297 1.42489 
1.41682 1.40874 1.40066 1.38507 1.36602 1.34696 1.3279 1.30884 1.28978 
1.27073 1.25167 1.23261 1.21355 1.19449 1.17544 1.15638 1.13732 1.11826 
1.0992 1.08015 1.06109 1.04203 1.02297 1.01589 1.02675 1.03762 1.04849 
1.05935 1.07022 1.08109 1.09195 1.10282 1.11369 1.12455 1.13542 1.14629 
1.15715 1.16802 1.17888 1.18975 1.20062 1.21148 1.22235 1.23327 1.24455 
1.25583 1.26712 1.2784 1.28969 1.30097 1.31226 1.32354 1.33482 1.34611 
1.35739 1.36868 1.37996 1.39125 1.40253 1.41381 1.4251 1.43638 1.44767 
1.45895 1.45563 1.44921 1.4428 1.43639 1.42997 1.42356 1.41715 1.41073 
1.40432 1.39791 1.3915 1.38508 1.37867 1.37226 1.36584 1.35943 1.35302 
1.3466 1.34019 1.33378 1.33143 1.33268 1.33394 1.3352 1.33646 1.33772 
1.33897 1.34023 1.34149 1.34275 1.344 1.34526 1.34652 1.34778 1.34904 
1.35029 1.35155 1.35281 1.35407 1.35532 1.36365 1.37297 1.38228 1.3916 
1.40092 1.41024 1.41955 1.42887 1.43819 1.44751 1.45682 1.46614 1.47546 
1.48478 1.49409 1.50341 1.51273 1.52205 1.53136 1.54068 1.55 
TEXTURE_COORDINATES TCoords 2 float
0 0 0.000783699 0 0.0015674 0 0.0023511 0 0.0031348 
0 0.0039185 0 0.00470219 0 0.00548589 0 0.00626959 0 
0.00705329 0 0.00783699 0 0.00862069 0 0.00940439 0 0.0101881 
0 0.0109718 0 0.0117555 0 0.0125392 0 0.0133229 0 
0.0141066 0 0.0148903 0 0.015674 0 0.0164577 0 0.0172414 
0 0.0180251 0 0.0188088 0 0.0195925 0 0.0203762 0 
0.0211599 0 0.0219436 0 0.0227273 0 0.023511 0 0.0242947 
0 0.0250784 0 0.0258621 0 0.0266458 0 0.0274295 0 
0.0282132 0 0.0289969 0 0.0297806 0 0.0305643 0 0.031348 
0 0.0321317 0 0.0329154 0 0.0336991 0 0.0344828 0 
0.0352665 0 0.0360502 0 0.0368339 0 0.0376176 0 0.0384013 
0 0.039185 0 0.0399687 0 0.0407524 0 0.0415361 0 
0.0423197 0 0.0431034 0 0.0438871 0 0.0446708 0 0.0454545 
0 0.0462382 0 0.0470219 0 0.0478056 0 0.0485893 0 
0.049373 0 0.0501567 0 0.0509404 0 0.0517241 0 0.0525078 
0 0.0532915 0 0.0540752 0 0.0548589 0 0.0556426 0 
0.0564263 0 0.05721 0 0.0579937 0 0.0587774 0 0.0595611 
0 0.0603448 0 0.0611285 0 0.0619122 0 0.0626959 0 
0.0634796 0 0.0642633 0 0.065047 0 0.0658307 0 0.0666144 
0 0.0673981 0 0.0681818 0 0.0689655 0 0.0697492 0 
0.0705329 0 0.0713166 0 0.0721003 0 0.072884 0 0.0736677 
0 0.0744514 0 0.0752351 0 0.0760188 0 0.0768025 0 
0.0775862 0 0.0783699 0 0.0791536 0 0.0799373 0 0.080721 
0 0.0815047 0 0.0822884 0 0.0830721 0 0.0838558 0 
0.0846395 0 0.0854232 0 0.0862069 0 0.0869906 0 0.0877743 
0 0.088558 0 0.0893417 0 0.0901254 0 0.0909091 0 
0.0916928 0 0.0924765 0 0.0932602 0 0.0940439 0 0.0948276 
0 0.0956113 0 0.096395 0 0.0971787 0 0.0979624 0 
0.0987461 0 0.0995298 0 0.100313 0 0.101097 0 0.101881 
0 0.102665 0 0.103448 0 0.104232 0 0.105016 0 
0.105799 0 0.106583 0 0.107367 0 0.10815 0 0.108934 
0 0.109718 0 0.110502 0 0.111285 0 0.112069 0 
0.112853 0 0.113636 0 0.11442 0 0.115204 0 0.115987 
0 0.116771 0 0.117555 0 0.118339 0 0.119122 0 
0.119906 0 0.12069 0 0.121473 0 0.122257 0 0.123041 
0 0.123824 0 0.124608 0 0.125392 0 0.126176 0 
0.126959 0 0.127743 0 0.128527 0 0.12931 0 0.130094 
0 0.130878 0 0.131661 0 0.132445 0 0.133229 0 
0.134013 0 0.134796 0 0.13558 0 0.136364 0 0.137147 
0 0.137931 0 0.138715 0 0.139498 0 0.140282 0 
0.141066 0 0.14185 0 0.142633 0 0.143417 0 0.144201 
0 0.144984 0 0.145768 0 0.146552 0 0.147335 0 
0.148119 0 0.148903 0 0.149687 0 0.15047 0 0.151254 
0 0.152038 0 0.152821 0 0.153605 0 0.154389 0 
0.155172 0 0.155956 0 0.15674 0 0.157524 0 0.158307 
0 0.159091 0 0.159875 0 0.160658 0 0.161442 0 
0.162226 0 0.163009 0 0.163793 0 0.164577 0 0.16536 
0 0.166144 0 0.166928 0 0.167712 0 0.168495 0 
0.169279 0 0.170063 0 0.170846 0 0.17163 0 0.172414 
0 0.173197 0 0.173981 0 0.174765 0 0.175549 0 
0.176332 0 0.177116 0 0.1779 0 0.178683 0 0.179467 
0 0.180251 0 0.181034 0 0.181818 0 0.182602 0 
0.183386 0 0.184169 0 0.184953 0 0.185737 0 0.18652 
0 0.187304 0 0.188088 0 0.188871 0 0.189655 0 
0.190439 0 0.191223 0 0.192006 0 0.19279 0 0.193574 
0 0.194357 0 0.195141 0 0.195925 0 0.196708 0 
0.197492 0 0.198276 0 0.19906 0 0.199843 0 0.200627 
0 0.201411 0 0.202194 0 0.202978 0 0.203762 0 
0.204545 0 0.205329 0 0.206113 0 0.206897 0 0.20768 
0 0.208464 0 0.209248 0 0.210031 0 0.210815 0 
0.211599 0 0.212382 0 0.213166 0 0.21395 0 0.214734 
0 0.215517 0 0.216301 0 0.217085 0 0.217868 0 
0.218652 0 0.219436 0 0.220219 0 0.221003 0 0.221787 
0 0.222571 0 0.223354 0 0.224138 0 0.224922 0 
0.225705 0 0.226489 0 0.227273 0 0.228056 0 0.22884 
0 0.229624 0 0.230408 0 0.231191 0 0.231975 0 
0.232759 0 0.233542 0 0.234326 0 0.23511 0 0.235893 
0 0.236677 0 0.237461 0 0.238245 0 0.239028 0 
0.239812 0 0.240596 0 0.241379 0 0.242163 0 0.242947 
0 0.24373 0 0.244514 0 0.245298 0 0.246082 0 
0.246865 0 0.247649 0 0.248433 0 0.249216 0 0.25 
0 0.250784 0 0.251567 0 0.252351 0 0.253135 0 
0.253918 0 0.254702 0 0.255486 0 0.25627 0 0.257053 
0 0.257837 0 0.258621 0 0.259404 0 0.260188 0 
0.260972 0 0.261755 0 0.262539 0 0.263323 0 0.264107 
0 0.26489 0 0.265674 0 0.266458 0 0.267241 0 
0.268025 0 0.268809 0 0.269592 0 0.270376 0 0.27116 
0 0.271944 0 0.272727 0 0.273511 0 0.274295 0 
0.275078 0 0.275862 0 0.276646 0 0.277429 0 0.278213 
0 0.278997 0 0.279781 0 0.280564 0 0.281348 0 
0.282132 0 0.282915 0 0.283699 0 0.284483 0 0.285266 
0 0.28605 0 0.286834 0 0.287618 0 0.288401 0 
0.289185 0 0.289969 0 0.290752 0 0.291536 0 0.29232 
0 0.293103 0 0.293887 0 0.294671 0 0.295455 0 
0.296238 0 0.297022 0 0.297806 0 0.298589 0 0.299373 
0 0.300157 0 0.30094 0 0.301724 0 0.302508 0 
0.303292 0 0.304075 0 0.304859 0 0.305643 0 0.306426 
0 0.30721 0 0.307994 0 0.308777 0 0.309561 0 
0.310345 0 0.311129 0 0.311912 0 0.312696 0 0.31348 
0 0.314263 0 0.315047 0 0.315831 0 0.316614 0 
0.317398 0 0.318182 0 0.318966 0 0.319749 0 0.320533 
0 0.321317 0 0.3221 0 0.322884 0 0.323668 0 
0.324451 0 0.325235 0 0.326019 0 0.326803 0 0.327586 
0 0.32837 0 0.329154 0 0.329937 0 0.330721 0 
0.331505 0 0.332288 0 0.333072 0 0.333856 0 0.334639 
0 0.335423 0 0.336207 0 0.336991 0 0.337774 0 
0.338558 0 0.339342 0 0.340125 0 0.340909 0 0.341693 
0 0.342476 0 0.34326 0 0.344044 0 0.344828 0 
0.345611 0 0.346395 0 0.347179 0 0.347962 0 0.348746 
0 0.34953 0 0.350313 0 0.351097 0 0.351881 0 
0.352665 0 0.353448 0 0.354232 0 0.355016 0 0.355799 
0 0.356583 0 0.357367 0 0.35815 0 0.358934 0 
0.359718 0 0.360502 0 0.361285 0 0.362069 0 0.362853 
0 0.363636 0 0.36442 0 0.365204 0 0.365987 0 
0.366771 0 0.367555 0 0.368339 0 0.369122 0 0.369906 
0 0.37069 0 0.371473 0 0.372257 0 0.373041 0 
0.373824 0 0.374608 0 0.375392 0 0.376176 0 0.376959 
0 0.377743 0 0.378527 0 0.37931 0 0.380094 0 
0.380878 0 0.381661 0 0.382445 0 0.383229 0 0.384013 
0 0.384796 0 0.38558 0 0.386364 0 0.387147 0 
0.387931 0 0.388715 0 0.389498 0 0.390282 0 0.391066 
0 0.39185 0 0.392633 0 0.393417 0 0.394201 0 
0.394984 0 0.395768 0 0.396552 0 0.397335 0 0.398119 
0 0.398903 0 0.399687 0 0.40047 0 0.401254 0 
0.402038 0 0.402821 0 0.403605 0 0.404389 0 0.405172 
0 0.405956 0 0.40674 0 0.407524 0 0.408307 0 
0.409091 0 0.409875 0 0.410658 0 0.411442 0 0.412226 
0 0.413009 0 0.413793 0 0.414577 0 0.415361 0 
0.416144 0 0.416928 0 0.417712 0 0.418495 0 0.419279 
0 0.420063 0 0.420846 0 0.42163 0 0.422414 0 
0.423197 0 0.423981 0 0.424765 0 0.425549 0 0.426332 
0 0.427116 0 0.4279 0 0.428683 0 0.429467 0 
0.430251 0 0.431034 0 0.431818 0 0.432602 0 0.433386 
0 0.434169 0 0.434953 0 0.435737 0 0.43652 0 
0.437304 0 0.438088 0 0.438871 0 0.439655 0 0.440439 
0 0.441223 0 0.442006 0 0.44279 0 0.443574 0 
0.444357 0 0.445141 0 0.445925 0 0.446708 0 0.447492 
0 0.448276 0 0.44906 0 0.449843 0 0.450627 0 
0.451411 0 0.452194 0 0.452978 0 0.453762 0 0.454545 
0 0.455329 0 0.456113 0 0.456897 0 0.45768 0 
0.458464 0 0.459248 0 0.460031 0 0.460815 0 0.461599 
0 0.462382 0 0.463166 0 0.46395 0 0.464734 0 
0.465517 0 0.466301 0 0.467085 0 0.467868 0 0.468652 
0 0.469436 0 0.470219 0 0.471003 0 0.471787 0 
0.472571 0 0.473354 0 0.474138 0 0.474922 0 0.475705 
0 0.476489 0 0.477273 0 0.478056 0 0.47884 0 
0.479624 0 0.480408 0 0.481191 0 0.481975 0 0.482759 
0 0.483542 0 0.484326 0 0.48511 0 0.485893 0 
0.486677 0 0.487461 0 0.488245 0 0.489028 0 0.489812 
0 0.490596 0 0.491379 0 0.492163 0 0.492947 0 
0.49373 0 0.494514 0 0.495298 0 0.496082 0 0.496865 
0 0.497649 0 0.498433 0 0.499216 0 0.5 0 
0.500784 0 0.501567 0 0.502351 0 0.503135 0 0.503918 
0 0.504702 0 0.505486 0 0.50627 0 0.507053 0 
0.507837 0 0.508621 0 0.509404 0 0.510188 0 0.510972 
0 0.511755 0 0.512539 0 0.513323 0 0.514107 0 
0.51489 0 0.515674 0 0.516458 0 0.517241 0 0.518025 
0 0.518809 0 0.519592 0 0.520376 0 0.52116 0 
0.521944 0 0.522727 0 0.523511 0 0.524295 0 0.525078 
0 0.525862 0 0.526646 0 0.527429 0 0.528213 0 
0.528997 0 0.529781 0 0.530564 0 0.531348 0 0.532132 
0 0.532915 0 0.533699 0 0.534483 0 0.535266 0 
0.53605 0 0.536834 0 0.537618 0 0.538401 0 0.539185 
0 0.539969 0 0.540752 0 0.541536 0 0.54232 0 
0.543103 0 0.543887 0 0.544671 0 0.545455 0 0.546238 
0 0.547022 0 0.547806 0 0.548589 0 0.549373 0 
0.550157 0 0.55094 0 0.551724 0 0.552508 0 0.553292 
0 0.554075 0 0.554859 0 0.555643 0 0.556426 0 
0.55721 0 0.557994 0 0.558777 0 0.559561 0 0.560345 
0 0.561128 0 0.561912 0 0.562696 0 0.56348 0 
0.564263 0 0.565047 0 0.565831 0 0.566614 0 0.567398 
0 0.568182 0 0.568965 0 0.569749 0 0.570533 0 
0.571317 0 0.5721 0 0.572884 0 0.573668 0 0.574451 
0 0.575235 0 0.576019 0 0.576802 0 0.577586 0 
0.57837 0 0.579154 0 0.579937 0 0.580721 0 0.581505 
0 0.582288 0 0.583072 0 0.583856 0 0.584639 0 
0.585423 0 0.586207 0 0.586991 0 0.587774 0 0.588558 
0 0.589342 0 0.590125 0 0.590909 0 0.591693 0 
0.592476 0 0.59326 0 0.594044 0 0.594828 0 0.595611 
0 0.596395 0 0.597179 0 0.597962 0 0.598746 0 
0.59953 0 0.600313 0 0.601097 0 0.601881 0 0.602665 
0 0.603448 0 0.604232 0 0.605016 0 0.605799 0 
0.606583 0 0.607367 0 0.60815 0 0.608934 0 0.609718 
0 0.610502 0 0.611285 0 0.612069 0 0.612853 0 
0.613636 0 0.61442 0 0.615204 0 0.615987 0 0.616771 
0 0.617555 0 0.618339 0 0.619122 0 0.619906 0 
0.62069 0 0.621473 0 0.622257 0 0.623041 0 0.623824 
0 0.624608 0 0.625392 0 0.626176 0 0.626959 0 
0.627743 0 0.628527 0 0.62931 0 0.630094 0 0.630878 
0 0.631661 0 0.632445 0 0.633229 0 0.634013 0 
0.634796 0 0.63558 0 0.636364 0 0.637147 0 0.637931 
0 0.638715 0 0.639498 0 0.640282 0 0.641066 0 
0.64185 0 0.642633 0 0.643417 0 0.644201 0 0.644984 
0 0.645768 0 0.646552 0 0.647335 0 0.648119 0 
0.648903 0 0.649687 0 0.65047 0 0.651254 0 0.652038 
0 0.652821 0 0.653605 0 0.654389 0 0.655172 0 
0.655956 0 0.65674 0 0.657524 0 0.658307 0 0.659091 
0 0.659875 0 0.660658 0 0.661442 0 0.662226 0 
0.663009 0 0.663793 0 0.664577 0 0.665361 0 0.666144 