# vtk DataFile Version 4.2
vtk output
ASCII
DATASET POLYDATA
POINTS 1278 float
0 0 0 -0.00391605 0.00109995 0.000300565 -0.0153416 0.00429656 0.00117996 
-0.0337927 0.00943497 0.00260473 -0.0587854 0.0163603 0.00454143 -0.0898357 0.0249178 0.00695661 
-0.12646 0.0349525 0.00981681 -0.168174 0.0463095 0.0130886 -0.214494 0.0588341 0.0167385 
-0.264935 0.0723714 0.0207331 -0.319015 0.0867664 0.0250389 -0.376249 0.101864 0.0296225 
-0.436153 0.117511 0.0344503 -0.498243 0.13355 0.0394891 -0.562036 0.149828 0.0447053 
-0.627046 0.166189 0.0500655 -0.692791 0.182479 0.0555362 -0.758787 0.198542 0.0610839 
-0.824549 0.214225 0.0666753 -0.889594 0.229372 0.0722768 -0.953437 0.243828 0.0778551 
-1.0156 0.257438 0.0833766 -1.07571 0.270088 0.0888159 -1.13383 0.281791 0.0941743 
-1.1901 0.292592 0.0994584 -1.24467 0.302534 0.104675 -1.29766 0.31166 0.109831 
-1.34923 0.320012 0.114933 -1.39951 0.327634 0.119988 -1.44865 0.334569 0.125003 
-1.49679 0.34086 0.129984 -1.54406 0.346551 0.134939 -1.5906 0.351683 0.139873 
-1.63657 0.356301 0.144794 -1.6821 0.360447 0.149709 -1.72733 0.364165 0.154624 
-1.7724 0.367497 0.159547 -1.81745 0.370486 0.164483 -1.86263 0.373177 0.16944 
-1.90807 0.375611 0.174424 -1.95392 0.377832 0.179443 -2.00031 0.37988 0.184502 
-2.04728 0.381761 0.189601 -2.09478 0.383454 0.194733 -2.14278 0.384936 0.199892 
-2.19124 0.386186 0.205072 -2.24012 0.387182 0.210266 -2.28939 0.387902 0.215467 
-2.33899 0.388325 0.220669 -2.3889 0.388429 0.225867 -2.43908 0.388191 0.231053 
-2.48948 0.387591 0.23622 -2.54007 0.386607 0.241364 -2.5908 0.385216 0.246477 
-2.64165 0.383397 0.251552 -2.69256 0.381128 0.256584 -2.7435 0.378387 0.261566 
-2.79444 0.375153 0.266491 -2.84532 0.371404 0.271354 -2.89612 0.367118 0.276147 
-2.9468 0.362273 0.280865 -2.99731 0.356848 0.2855 -3.04762 0.350826 0.290047 
-3.09774 0.344206 0.2945 -3.14766 0.33699 0.298853 -3.19739 0.329178 0.3031 
-3.24692 0.320773 0.307234 -3.29626 0.311776 0.311251 -3.34542 0.302187 0.315144 
-3.39438 0.29201 0.318908 -3.44316 0.281244 0.322536 -3.49176 0.269892 0.326023 
-3.54017 0.257955 0.329363 -3.5884 0.245434 0.33255 -3.63645 0.232331 0.335577 
-3.68432 0.218647 0.33844 -3.73202 0.204383 0.341132 -3.77954 0.189542 0.343648 
-3.82689 0.174124 0.345981 -3.87406 0.158131 0.348126 -3.92107 0.141564 0.350076 
-3.9679 0.124425 0.351827 -4.01457 0.106716 0.353372 -4.06107 0.088443 0.35471 
-4.10738 0.0696135 0.355839 -4.1535 0.0502352 0.356759 -4.19943 0.0303157 0.357468 
-4.24516 0.00986259 0.357966 -4.29068 -0.0111165 0.358252 -4.33597 -0.0326141 0.358325 
-4.38105 -0.0546225 0.358184 -4.42589 -0.0771341 0.357828 -4.47048 -0.100141 0.357256 
-4.51484 -0.123637 0.356467 -4.55893 -0.147612 0.35546 -4.60277 -0.172061 0.354235 
-4.64633 -0.196975 0.352789 -4.68962 -0.222347 0.351123 -4.73262 -0.248168 0.349236 
-4.77533 -0.274433 0.347126 -4.81774 -0.301132 0.344792 -4.85984 -0.328258 0.342234 
-4.90163 -0.355804 0.339451 -4.9431 -0.383759 0.336446 -4.98427 -0.41211 0.333224 
-5.02514 -0.440845 0.329792 -5.06572 -0.46995 0.326154 -5.10601 -0.499412 0.322317 
-5.14603 -0.52922 0.318287 -5.18577 -0.55936 0.314068 -5.22525 -0.58982 0.309667 
-5.26448 -0.620586 0.30509 -5.30345 -0.651646 0.300341 -5.34219 -0.682986 0.295428 
-5.38068 -0.714596 0.290355 -5.41895 -0.74646 0.285128 -5.457 -0.778568 0.279754 
-5.49483 -0.810905 0.274237 -5.53245 -0.843459 0.268583 -5.56988 -0.876218 0.262798 
-5.60711 -0.909168 0.256889 -5.64415 -0.942297 0.250859 -5.68102 -0.975592 0.244716 
-5.71771 -1.00904 0.238465 -5.75424 -1.04264 0.232108 -5.79062 -1.07638 0.225652 
-5.82684 -1.11025 0.2191 -5.86293 -1.14424 0.212456 -5.89889 -1.17836 0.205725 
-5.93472 -1.21258 0.19891 -5.97043 -1.24691 0.192016 -6.00604 -1.28133 0.185048 
-6.04155 -1.31584 0.178008 -6.07696 -1.35043 0.170903 -6.1123 -1.38509 0.163735 
-6.14755 -1.41982 0.15651 -6.18274 -1.45461 0.14923 -6.21787 -1.48945 0.141901 
-6.25295 -1.52433 0.134527 -6.28798 -1.55925 0.127112 -6.32298 -1.5942 0.11966 
-6.35795 -1.62916 0.112176 -6.3929 -1.66414 0.104663 -6.42784 -1.69913 0.0971246 
-6.46277 -1.73412 0.0895622 -6.4977 -1.76911 0.0819753 -6.53262 -1.80409 0.0743637 
-6.56756 -1.83906 0.0667275 -6.6025 -1.87402 0.0590665 -6.63745 -1.90896 0.0513806 
-6.67242 -1.94387 0.0436698 -6.70741 -1.97876 0.035934 -6.74243 -2.01362 0.0281731 
-6.77747 -2.04844 0.0203871 -6.81255 -2.08322 0.0125758 -6.84766 -2.11796 0.00473921 
-6.88282 -2.15264 -0.0031228 -6.91802 -2.18728 -0.0110103 -6.95327 -2.22186 -0.0189233 
-6.98858 -2.25638 -0.026862 -7.02394 -2.29084 -0.0348264 -7.05937 -2.32523 -0.0428166 
-7.09486 -2.35954 -0.0508327 -7.13042 -2.39378 -0.058875 -7.16605 -2.42793 -0.0669466 
-7.20175 -2.46201 -0.0750518 -7.23753 -2.49601 -0.0831948 -7.27337 -2.52992 -0.0913799 
-7.30928 -2.56374 -0.0996116 -7.34527 -2.59748 -0.107894 -7.38132 -2.63113 -0.116231 
-7.41745 -2.66469 -0.124628 -7.45364 -2.69816 -0.133089 -7.48991 -2.73153 -0.141617 
-7.52624 -2.76482 -0.150218 -7.56265 -2.798 -0.158895 -7.59912 -2.83109 -0.167653 
-7.63566 -2.86408 -0.176497 -7.67228 -2.89697 -0.18543 -7.70896 -2.92976 -0.194456 
-7.74571 -2.96244 -0.203581 -7.78253 -2.99502 -0.212808 -7.81942 -3.0275 -0.222142 
-7.85638 -3.05986 -0.231587 -7.8934 -3.09212 -0.241149 -7.93049 -3.12427 -0.250835 
-7.96764 -3.15631 -0.260654 -8.00485 -3.18824 -0.270613 -8.04211 -3.22005 -0.280719 
-8.07943 -3.25176 -0.29098 -8.11679 -3.28336 -0.301405 -8.1542 -3.31484 -0.312 
-8.19165 -3.34621 -0.322773 -8.22914 -3.37747 -0.333733 -8.26667 -3.40861 -0.344886 
-8.30423 -3.43964 -0.35624 -8.34183 -3.47056 -0.367803 -8.37944 -3.50136 -0.379583 
-8.41709 -3.53205 -0.391587 -8.45475 -3.56262 -0.403824 -8.49243 -3.59308 -0.416299 
-8.53013 -3.62341 -0.429023 -8.56784 -3.65364 -0.442001 -8.60556 -3.68374 -0.455242 
-8.64328 -3.71372 -0.468754 -8.681 -3.74359 -0.482549 -8.7187 -3.77334 -0.496637 
-8.75639 -3.80298 -0.511031 -8.79404 -3.83249 -0.52574 -8.83166 -3.86189 -0.540777 
-8.86923 -3.89117 -0.556152 -8.90675 -3.92034 -0.571878 -8.9442 -3.94939 -0.587965 
-8.98158 -3.97832 -0.604424 -9.01889 -4.00713 -0.621268 -9.0561 -4.03583 -0.638506 
-9.09321 -4.06442 -0.656151 -9.13023 -4.09289 -0.674214 -9.16712 -4.12124 -0.692706 
-9.20389 -4.14948 -0.711638 -9.24054 -4.1776 -0.731022 -9.27704 -4.20561 -0.750868 
-9.31339 -4.2335 -0.771188 -9.34959 -4.26128 -0.791995 -9.38562 -4.28895 -0.813297 
-9.42147 -4.3165 -0.835105 -9.45711 -4.34393 -0.857428 -9.49252 -4.37125 -0.880275 
-9.52767 -4.39844 -0.903655 -9.56256 -4.42552 -0.927577 -9.59714 -4.45248 -0.952049 
-9.63141 -4.47932 -0.977081 -9.66534 -4.50604 -1.00268 -9.69891 -4.53264 -1.02886 
-9.7321 -4.55911 -1.05563 -9.76488 -4.58546 -1.08299 -9.79723 -4.61168 -1.11095 
-9.82913 -4.63778 -1.13953 -9.86056 -4.66375 -1.16873 -9.8915 -4.68959 -1.19857 
-9.92192 -4.71531 -1.22904 -9.9518 -4.7409 -1.26017 -9.98112 -4.76635 -1.29195 
-10.0099 -4.79168 -1.3244 -10.038 -4.81687 -1.35753 -10.0655 -4.84193 -1.39132 
-10.0924 -4.86685 -1.42577 -10.1186 -4.89164 -1.46085 -10.1442 -4.91629 -1.49655 
-10.169 -4.9408 -1.53285 -10.1932 -4.96517 -1.56973 -10.2166 -4.98939 -1.60719 
-10.2392 -5.01347 -1.64519 -10.2611 -5.0374 -1.68373 -10.2823 -5.06119 -1.72279 
-10.3026 -5.08482 -1.76235 -10.3221 -5.1083 -1.80239 -10.3408 -5.13163 -1.8429 
-10.3586 -5.15481 -1.88385 -10.3756 -5.17783 -1.92524 -10.3916 -5.20069 -1.96705 
-10.4068 -5.22339 -2.00926 -10.4211 -5.24593 -2.05185 -10.4344 -5.2683 -2.09481 
-10.4467 -5.29051 -2.13811 -10.4581 -5.31256 -2.18175 -10.4686 -5.33445 -2.22569 
-10.4781 -5.35618 -2.26993 -10.4867 -5.37777 -2.31443 -10.4943 -5.39921 -2.35918 
-10.5011 -5.42051 -2.40416 -10.507 -5.44167 -2.44934 -10.512 -5.4627 -2.4947 
-10.5161 -5.48361 -2.54023 -10.5194 -5.50439 -2.58591 -10.5218 -5.52506 -2.6317 
-10.5234 -5.54562 -2.67759 -10.5242 -5.56607 -2.72357 -10.5242 -5.58642 -2.7696 
-10.5234 -5.60667 -2.81567 -10.5218 -5.62682 -2.86176 -10.5194 -5.64689 -2.90785 
-10.5162 -5.66688 -2.95391 -10.5124 -5.68678 -2.99993 -10.5077 -5.70662 -3.04588 
-10.5024 -5.72638 -3.09174 -10.4963 -5.74608 -3.13752 -10.4895 -5.76572 -3.18319 
-10.4821 -5.78531 -3.22877 -10.474 -5.80486 -3.27423 -10.4652 -5.82436 -3.31958 
-10.4558 -5.84383 -3.36481 -10.4458 -5.86328 -3.40991 -10.4351 -5.8827 -3.45487 
-10.4238 -5.9021 -3.49969 -10.412 -5.92149 -3.54437 -10.3996 -5.94088 -3.58889 
-10.3866 -5.96027 -3.63325 -10.3731 -5.97966 -3.67745 -10.359 -5.99907 -3.72147 
-10.3444 -6.01849 -3.76532 -10.3293 -6.03794 -3.80898 -10.3138 -6.05742 -3.85245 
-10.2977 -6.07693 -3.89572 -10.2812 -6.09648 -3.9388 -10.2642 -6.11609 -3.98166 
-10.2468 -6.13574 -4.0243 -10.229 -6.15545 -4.06674 -10.2107 -6.17523 -4.10895 
-10.192 -6.19508 -4.15094 -10.1729 -6.21501 -4.1927 -10.1534 -6.23501 -4.23423 
-10.1335 -6.25511 -4.27552 -10.1132 -6.2753 -4.31658 -10.0925 -6.2956 -4.3574 
-10.0714 -6.316 -4.39797 -10.0499 -6.33651 -4.4383 -10.0281 -6.35714 -4.47838 
-10.0059 -6.37789 -4.5182 -9.98338 -6.39878 -4.55776 -9.96049 -6.4198 -4.59706 
-9.93727 -6.44096 -4.6361 -9.91371 -6.46228 -4.67487 -9.88982 -6.48374 -4.71336 
-9.86562 -6.50537 -4.75158 -9.8411 -6.52716 -4.78953 -9.81628 -6.54912 -4.82719 
-9.79116 -6.57126 -4.86455 -9.76575 -6.59357 -4.90163 -9.74005 -6.61606 -4.9384 
-9.71408 -6.63873 -4.97486 -9.68784 -6.66159 -5.011 -9.66134 -6.68464 -5.04682 
-9.63458 -6.70788 -5.08232 -9.60757 -6.73131 -5.11748 -9.58033 -6.75494 -5.1523 
-9.55286 -6.77877 -5.18678 -9.52515 -6.8028 -5.2209 -9.49724 -6.82704 -5.25466 
-9.46911 -6.8515 -5.28806 -9.44078 -6.87616 -5.32109 -9.41225 -6.90104 -5.35373 
-9.38353 -6.92613 -5.386 -9.35464 -6.95145 -5.41787 -9.32557 -6.97699 -5.44934 
-9.29633 -7.00276 -5.48042 -9.26693 -7.02877 -5.51108 -9.23737 -7.05503 -5.54131 
-9.20763 -7.08156 -5.5711 -9.17773 -7.10839 -5.60044 -9.14765 -7.13552 -5.6293 
-9.11739 -7.16298 -5.65769 -9.08696 -7.19078 -5.68557 -9.05634 -7.21895 -5.71294 
-9.02553 -7.2475 -5.73978 -8.99453 -7.27645 -5.76607 -8.96334 -7.30582 -5.79182 
-8.93195 -7.33562 -5.81698 -8.90036 -7.36588 -5.84157 -8.86857 -7.39661 -5.86555 
[...]
CELL_DATA 1
FIELD FieldData 2
Length 1 1 double
63.870849652 
Tortuosity 1 1 double
0.8978689904 
POINT_DATA 1278
SCALARS MaximumInscribedSphereRadius float
LOOKUP_TABLE default
1.23 1.22099 1.21199 1.20298 1.19397 1.18496 1.17596 1.16695 1.15794 
1.14894 1.13993 1.13092 1.12191 1.11291 1.1039 1.09489 1.08589 1.07688 
1.06787 1.05886 1.04986 1.04099 1.03434 1.02768 1.02103 1.01438 1.00772 
1.00107 0.994414 0.98776 0.981106 0.974452 0.967798 0.961144 0.95449 0.947836 
0.941182 0.934528 0.927874 0.92122 0.914566 0.91624 0.923146 0.930052 0.936957 
0.943863 0.950768 0.957674 0.96458 0.971485 0.978391 0.985296 0.992202 0.999108 
1.00601 1.01292 1.01982 1.02673 1.03364 1.04054 1.04745 1.05392 1.05739 
1.06086 1.06432 1.06779 1.07126 1.07472 1.07819 1.08166 1.08512 1.08859 
1.09206 1.09552 1.09899 1.10246 1.10592 1.10939 1.11286 1.11632 1.11979 
1.12326 1.11574 1.10676 1.09779 1.08882 1.07985 1.07088 1.0619 1.05293 
1.04396 1.03499 1.02602 1.01705 1.00807 0.999102 0.99013 0.981158 0.972187 
0.963215 0.954243 0.945271 0.954777 0.975823 0.996869 1.01791 1.03896 1.06001 
1.08105 1.1021 1.12314 1.14419 1.16524 1.18628 1.20733 1.22837 1.24942 
1.27047 1.29151 1.31256 1.3336 1.35465 1.3783 1.40711 1.43592 1.46473 
1.49354 1.52235 1.55116 1.57997 1.60878 1.63759 1.6664 1.6952 1.72401 
1.75282 1.78163 1.81044 1.83925 1.86806 1.89687 1.92568 1.95445 1.98239 
2.01034 2.03828 2.06623 2.09417 2.12211 2.15006 2.178 2.20595 2.23389 
2.26183 2.28978 2.31772 2.34566 2.37361 2.40155 2.4295 2.45744 2.48538 
2.51333 2.5057 2.48693 2.46816 2.44939 2.43062 2.41185 2.39308 2.37431 
2.35554 2.33677 2.318 2.29923 2.28046 2.26169 2.24292 2.22415 2.20538 
2.18661 2.16784 2.14907 2.13021 2.11126 2.09231 2.07336 2.05441 2.03545 
2.0165 1.99755 1.9786 1.95965 1.9407 1.92175 1.90279 1.88384 1.86489 
1.84594 1.82699 1.80804 1.78909 1.77014 1.75428 1.7516 1.74892 1.74625 
1.74357 1.74089 1.73821 1.73553 1.73286 1.73018 1.7275 1.72482 1.72214 
1.71947 1.71679 1.71411 1.71143 1.70875 1.70608 1.7034 1.70072 1.71035 
1.72119 1.73203 1.74287 1.75371 1.76455 1.77538 1.78622 1.79706 1.8079 
1.81874 1.82958 1.84042 1.85126 1.8621 1.87294 1.88378 1.89461 1.90545 
1.91629 1.92708 1.93785 1.94861 1.95937 1.97013 1.9809 1.99166 2.00242 
2.01319 2.02395 2.03471 2.04548 2.05624 2.067 2.07776 2.08853 2.09929 
2.11005 2.12082 2.13158 2.13244 2.11898 2.10552 2.09207 2.07861 2.06516 
2.0517 2.03824 2.02479 2.01133 1.99787 1.98442 1.97096 1.95751 1.94405 
1.93059 1.91714 1.90368 1.89023 1.87677 1.8655 1.86597 1.86643 1.86689 
1.86736 1.86782 1.86828 1.86875 1.86921 1.86967 1.87014 1.8706 1.87106 
1.87152 1.87199 1.87245 1.87291 1.87338 1.87384 1.8743 1.87477 1.88154 
1.88912 1.89671 1.90429 1.91187 1.91945 1.92704 1.93462 1.9422 1.94978 
1.95737 1.96495 1.97253 1.98011 1.9877 1.99528 2.00286 2.01044 2.01803 
2.02561 2.02916 2.03013 2.03109 2.03206 2.03303 2.03399 2.03496 2.03593 
2.0369 2.03786 2.03883 2.0398 2.04076 2.04173 2.0427 2.04367 2.04463 
2.0456 2.04657 2.04753 2.04648 2.04136 2.03624 2.03112 2.026 2.02088 
2.01577 2.01065 2.00553 2.00041 1.99529 1.99017 1.98506 1.97994 1.97482 
1.9697 1.96458 1.95946 1.95435 1.94923 1.94444 1.9448 1.94516 1.94553 
1.94589 1.94625 1.94661 1.94697 1.94733 1.94769 1.94805 1.94841 1.94878 
1.94914 1.9495 1.94986 1.95022 1.95058 1.95094 1.9513 1.95166 1.96626 
1.98525 2.00423 2.02322 2.0422 2.06119 2.08018 2.09916 2.11815 2.13713 
2.15612 2.17511 2.19409 2.21308 2.23206 2.25105 2.27004 2.28902 2.30801 
2.32519 2.31645 2.3077 2.29895 2.29021 2.28146 2.27272 2.26397 2.25523 
2.24648 2.23773 2.22899 2.22024 2.2115 2.20275 2.19401 2.18526 2.17651 
2.16777 2.15902 2.15028 2.16189 2.18025 2.19862 2.21698 2.23534 2.2537 
2.27207 2.29043 2.30879 2.32715 2.34552 2.36388 2.38224 2.4006 2.41897 
2.43733 2.45569 2.47405 2.49242 2.51078 2.52973 2.54935 2.56897 2.58859 
2.60822 2.62784 2.64746 2.66708 2.6867 2.70632 2.72595 2.74557 2.76519 
2.78481 2.80443 2.82405 2.84368 2.8633 2.88292 2.90254 2.92095 2.93386 
2.94677 2.95968 2.97259 2.9855 2.99841 3.01132 3.02423 3.03713 3.05004 
3.06295 3.07586 3.08877 3.10168 3.11459 3.1275 3.14041 3.15332 3.16623 
3.17914 3.1715 3.16143 3.15135 3.14127 3.1312 3.12112 3.11105 3.10097 
3.09089 3.08082 3.07074 3.06066 3.05059 3.04051 3.03044 3.02036 3.01028 
3.00021 2.99013 2.98006 2.96395 2.94398 2.924 2.90403 2.88406 2.86409 
2.84411 2.82414 2.80417 2.7842 2.76422 2.74425 2.72428 2.70431 2.68433 
2.66436 2.64439 2.62442 2.60445 2.58447 2.57342 2.58065 2.58787 2.5951 
2.60233 2.60956 2.61678 2.62401 2.63124 2.63846 2.64569 2.65292 2.66015 
2.66737 2.6746 2.68183 2.68906 2.69628 2.70351 2.71074 2.71795 2.72488 
2.73181 2.73874 2.74567 2.7526 2.75953 2.76646 2.77339 2.78032 2.78725 
2.79418 2.80111 2.80804 2.81497 2.8219 2.82883 2.83576 2.84269 2.84962 
2.85655 2.85861 2.85919 2.85978 2.86036 2.86094 2.86153 2.86211 2.86269 
2.86328 2.86386 2.86445 2.86503 2.86561 2.8662 2.86678 2.86736 2.86795 
2.86853 2.86912 2.8697 2.86091 2.84215 2.8234 2.80464 2.78588 2.76713 
2.74837 2.72962 2.71086 2.69211 2.67335 2.6546 2.63584 2.61708 2.59833 
2.57957 2.56082 2.54206 2.52331 2.50455 2.48644 2.47085 2.45526 2.43967 
2.42408 2.40849 2.3929 2.37731 2.36173 2.34614 2.33055 2.31496 2.29937 
2.28378 2.26819 2.2526 2.23701 2.22142 2.20583 2.19024 2.17465 2.17946 
2.18603 2.19261 2.19918 2.20575 2.21233 2.2189 2.22548 2.23205 2.23862 
2.2452 2.25177 2.25835 2.26492 2.27149 2.27807 2.28464 2.29122 2.29779 
2.30436 2.31438 2.32636 2.33834 2.35032 2.36229 2.37427 2.38625 2.39823 
2.41021 2.42219 2.43417 2.44614 2.45812 2.4701 2.48208 2.49406 2.50604 
2.51802 2.52999 2.54197 2.55396 2.56597 2.57797 2.58998 2.60199 2.61399 
2.626 2.638 2.65001 2.66202 2.67402 2.68603 2.69803 2.71004 2.72204 
2.73405 2.74606 2.75806 2.77007 2.78207 2.79358 2.79841 2.80323 2.80806 
2.81288 2.81771 2.82253 2.82736 2.83218 2.83701 2.84183 2.84666 2.85148 
2.85631 2.86113 2.86596 2.87078 2.87561 2.88043 2.88526 2.89008 2.89047 
2.88965 2.88883 2.88802 2.8872 2.88639 2.88557 2.88475 2.88394 2.88312 
2.8823 2.88149 2.88067 2.87985 2.87904 2.87822 2.8774 2.87659 2.87577 
2.87496 2.87444 2.87421 2.87399 2.87376 2.87354 2.87332 2.87309 2.87287 
2.87264 2.87242 2.87219 2.87197 2.87174 2.87152 2.8713 2.87107 2.87085 
2.87062 2.8704 2.87017 2.87016 2.87089 2.87162 2.87234 2.87307 2.8738 
2.87452 2.87525 2.87598 2.8767 2.87743 2.87816 2.87888 2.87961 2.88034 
2.88106 2.88179 2.88252 2.88325 2.88397 2.8847 2.88745 2.89032 2.89319 
2.89606 2.89893 2.9018 2.90468 2.90755 2.91042 2.91329 2.91616 2.91903 
2.9219 2.92477 2.92764 2.93052 2.93339 2.93626 2.93913 2.942 2.93918 
2.93346 2.92774 2.92202 2.9163 2.91058 2.90486 2.89913 2.89341 2.88769 
2.88197 2.87625 2.87053 2.86481 2.85909 2.85337 2.84765 2.84193 2.83621 
2.83048 2.82129 2.80644 2.79158 2.77673 2.76188 2.74703 2.73217 2.71732 
2.70247 2.68762 2.67277 2.65791 2.64306 2.62821 2.61336 2.5985 2.58365 
2.5688 2.55395 2.53909 2.52523 2.52055 2.51588 2.5112 2.50653 2.50185 
2.49717 2.4925 2.48782 2.48315 2.47847 2.4738 2.46912 2.46445 2.45977 
2.4551 2.45042 2.44575 2.44107 2.43639 2.43172 2.42836 2.4253 2.42225 
2.41919 2.41614 2.41308 2.41003 2.40697 2.40392 2.40087 2.39781 2.39476 
2.3917 2.38865 2.38559 2.38254 2.37948 2.37643 2.37337 2.37032 2.36432 
2.35569 2.34705 2.33841 2.32978 2.32114 2.31251 2.30387 2.29523 2.2866 
2.27796 2.26933 2.26069 2.25206 2.24342 2.23478 2.22615 2.21751 2.20888 
2.20024 2.1932 2.19115 2.1891 2.18705 2.18501 2.18296 2.18091 2.17886 
2.17682 2.17477 2.17272 2.17067 2.16863 2.16658 2.16453 2.16249 2.16044 
2.15839 2.15634 2.1543 2.15225 2.16156 2.17138 2.18121 2.19103 2.20085 
2.21068 2.2205 2.23033 2.24015 2.24997 2.2598 2.26962 2.27945 2.28927 
2.29909 2.30892 2.31874 2.32857 2.33839 2.34821 2.36776 2.39206 2.41636 
2.44066 2.46496 2.48926 2.51356 2.53786 2.56216 2.58646 2.61075 2.63505 
2.65935 2.68365 2.70795 2.73225 2.75655 2.78085 2.80515 2.82945 2.8563 
2.8872 2.9181 2.949 2.9799 3.0108 3.04169 3.07259 3.10349 3.13439 
3.16529 3.19619 3.22709 3.25798 3.28888 3.31978 3.35068 3.38158 3.41248 
3.44338 3.47223 3.48302 3.49381 3.5046 3.51539 3.52618 3.53697 3.54776 
3.55855 3.56933 3.58012 3.59091 3.6017 3.61249 3.62328 3.63407 3.64486 
3.65564 3.66643 3.67722 3.68801 3.68733 3.68406 3.68079 3.67752 3.67425 
3.67098 3.66771 3.66444 3.66117 3.6579 3.65462 3.65135 3.64808 3.64481 
3.64154 3.63827 3.635 3.63173 3.62846 3.62519 3.61165 3.58912 3.56658 
3.54404 3.5215 3.49896 3.47643 3.45389 3.43135 3.40881 3.38628 3.36374 
3.3412 3.31866 3.29612 3.27359 3.25105 3.22851 3.20597 3.18344 3.16161 
3.14189 3.12217 3.10245 3.08273 3.06301 3.04329 3.02357 3.00385 2.98413 
2.96441 2.94469 2.92498 2.90526 2.88554 2.86582 2.8461 2.82638 2.80666 
2.78694 2.76722 2.76143 2.75594 2.75044 2.74495 2.73946 2.73397 2.72847 
2.72298 2.71749 2.71199 2.7065 2.70101 2.69551 2.69002 2.68453 2.67904 
2.67354 2.66805 2.66256 2.65706 2.6758 2.7041 2.73239 2.76068 2.78898 
2.81727 2.84556 2.87386 2.90215 2.93044 2.95873 2.98703 3.01532 3.04361 
3.07191 3.1002 3.12849 3.15679 3.18508 3.21337 3.23643 3.25348 3.27053 
3.28758 3.30463 3.32168 3.33873 3.35578 3.37283 3.38988 3.40693 3.42398 
3.44103 3.45808 3.47513 3.49218 3.50923 3.52628 3.54333 3.56038 3.57129 
3.55855 3.54582 3.53308 3.52034 3.5076 3.49486 3.48212 3.46938 3.45664 
3.4439 3.43116 3.41842 3.40568 3.39295 3.38021 3.36747 3.35473 3.34199 
3.32925 3.31651 3.30436 3.29225 3.28015 3.26804 3.25593 3.24383 3.23172 
3.21961 3.2075 3.1954 3.18329 3.17118 3.15908 3.14697 3.13486 3.12275 
3.11065 3.09854 3.08643 3.07432 3.06845 3.06596 3.06348 3.06099 3.0585 
3.05602 3.05353 3.05105 3.04856 3.04607 3.04359 3.0411 3.03862 3.03613 
3.03364 3.03116 3.02867 3.02618 3.0237 3.02121 3.02698 3.04747 3.06795 
3.08843 3.10892 3.1294 3.14988 3.17037 3.19085 3.21133 3.23182 3.2523 
3.27279 3.29327 3.31375 3.33424 3.35472 3.3752 3.39569 3.41617 3.43553 
3.44153 3.44753 3.45353 3.45954 3.46554 3.47154 3.47754 3.48354 3.48954 
3.49554 3.50154 3.50754 3.51354 3.51954 3.52554 3.53154 3.53754 3.54354 
3.54954 3.55554 3.54792 3.53735 3.52678 3.5162 3.50563 3.49506 3.48448 
3.47391 3.46334 3.45277 3.44219 3.43162 3.42105 3.41048 3.3999 3.38933 
3.37876 3.36819 3.35761 3.34704 3.33942 3.33631 3.33319 3.33008 3.32696 
3.32384 3.32073 3.31761 3.3145 3.31138 3.30826 3.30515 3.30203 3.29892 
3.2958 3.29268 3.28957 3.28645 3.28334 3.28022 3.28 3.28 3.28 
3.28 3.28 3.28 3.28 3.28 3.28 3.28 3.28 3.28 
3.28 3.28 3.28 3.28 3.28 3.28 3.28 3.28 3.28 

TEXTURE_COORDINATES TCoords 2 float
0 0 0.000783085 0 0.00156617 0 0.00234926 0 0.00313234 
0 0.00391543 0 0.00469851 0 0.0054816 0 0.00626468 0 
0.00704777 0 0.00783085 0 0.00861394 0 0.00939702 0 0.0101801 
0 0.0109632 0 0.0117463 0 0.0125294 0 0.0133125 0 
0.0140955 0 0.0148786 0 0.0156617 0 0.0164448 0 0.0172279 
0 0.018011 0 0.018794 0 0.0195771 0 0.0203602 0 
0.0211433 0 0.0219264 0 0.0227095 0 0.0234926 0 0.0242756 
0 0.0250587 0 0.0258418 0 0.0266249 0 0.027408 0 
0.0281911 0 0.0289742 0 0.0297572 0 0.0305403 0 0.0313234 
0 0.0321065 0 0.0328896 0 0.0336727 0 0.0344558 0 
0.0352388 0 0.0360219 0 0.036805 0 0.0375881 0 0.0383712 
0 0.0391543 0 0.0399374 0 0.0407204 0 0.0415035 0 
0.0422866 0 0.0430697 0 0.0438528 0 0.0446359 0 0.045419 
0 0.046202 0 0.0469851 0 0.0477682 0 0.0485513 0 
0.0493344 0 0.0501175 0 0.0509005 0 0.0516836 0 0.0524667 
0 0.0532498 0 0.0540329 0 0.054816 0 0.0555991 0 
0.0563821 0 0.0571652 0 0.0579483 0 0.0587314 0 0.0595145 
0 0.0602976 0 0.0610807 0 0.0618637 0 0.0626468 0 
0.0634299 0 0.064213 0 0.0649961 0 0.0657792 0 0.0665623 
0 0.0673453 0 0.0681284 0 0.0689115 0 0.0696946 0 
0.0704777 0 0.0712608 0 0.0720439 0 0.0728269 0 0.07361 
0 0.0743931 0 0.0751762 0 0.0759593 0 0.0767424 0 
0.0775255 0 0.0783085 0 0.0790916 0 0.0798747 0 0.0806578 
0 0.0814409 0 0.082224 0 0.083007 0 0.0837901 0 
0.0845732 0 0.0853563 0 0.0861394 0 0.0869225 0 0.0877056 
0 0.0884886 0 0.0892717 0 0.0900548 0 0.0908379 0 
0.091621 0 0.0924041 0 0.0931872 0 0.0939702 0 0.0947533 
0 0.0955364 0 0.0963195 0 0.0971026 0 0.0978857 0 
0.0986688 0 0.0994518 0 0.100235 0 0.101018 0 0.101801 
0 0.102584 0 0.103367 0 0.10415 0 0.104933 0 
0.105717 0 0.1065 0 0.107283 0 0.108066 0 0.108849 
0 0.109632 0 0.110415 0 0.111198 0 0.111981 0 
0.112764 0 0.113547 0 0.11433 0 0.115114 0 0.115897 
0 0.11668 0 0.117463 0 0.118246 0 0.119029 0 
0.119812 0 0.120595 0 0.121378 0 0.122161 0 0.122944 
0 0.123727 0 0.124511 0 0.125294 0 0.126077 0 
0.12686 0 0.127643 0 0.128426 0 0.129209 0 0.129992 
0 0.130775 0 0.131558 0 0.132341 0 0.133125 0 
0.133908 0 0.134691 0 0.135474 0 0.136257 0 0.13704 
0 0.137823 0 0.138606 0 0.139389 0 0.140172 0 
0.140955 0 0.141738 0 0.142522 0 0.143305 0 0.144088 
0 0.144871 0 0.145654 0 0.146437 0 0.14722 0 
0.148003 0 0.148786 0 0.149569 0 0.150352 0 0.151135 
0 0.151919 0 0.152702 0 0.153485 0 0.154268 0 
0.155051 0 0.155834 0 0.156617 0 0.1574 0 0.158183 
0 0.158966 0 0.159749 0 0.160533 0 0.161316 0 
0.162099 0 0.162882 0 0.163665 0 0.164448 0 0.165231 
0 0.166014 0 0.166797 0 0.16758 0 0.168363 0 
0.169146 0 0.16993 0 0.170713 0 0.171496 0 0.172279 
0 0.173062 0 0.173845 0 0.174628 0 0.175411 0 
0.176194 0 0.176977 0 0.17776 0 0.178543 0 0.179327 
0 0.18011 0 0.180893 0 0.181676 0 0.182459 0 
0.183242 0 0.184025 0 0.184808 0 0.185591 0 0.186374 
0 0.187157 0 0.18794 0 0.188724 0 0.189507 0 
0.19029 0 0.191073 0 0.191856 0 0.192639 0 0.193422 
0 0.194205 0 0.194988 0 0.195771 0 0.196554 0 
0.197338 0 0.198121 0 0.198904 0 0.199687 0 0.20047 
0 0.201253 0 0.202036 0 0.202819 0 0.203602 0 
0.204385 0 0.205168 0 0.205951 0 0.206735 0 0.207518 
0 0.208301 0 0.209084 0 0.209867 0 0.21065 0 
0.211433 0 0.212216 0 0.212999 0 0.213782 0 0.214565 
0 0.215348 0 0.216132 0 0.216915 0 0.217698 0 
0.218481 0 0.219264 0 0.220047 0 0.22083 0 0.221613 
0 0.222396 0 0.223179 0 0.223962 0 0.224745 0 
0.225529 0 0.226312 0 0.227095 0 0.227878 0 0.228661 
0 0.229444 0 0.230227 0 0.23101 0 0.231793 0 
0.232576 0 0.233359 0 0.234143 0 0.234926 0 0.235709 
0 0.236492 0 0.237275 0 0.238058 0 0.238841 0 
0.239624 0 0.240407 0 0.24119 0 0.241973 0 0.242756 
0 0.24354 0 0.244323 0 0.245106 0 0.245889 0 
0.246672 0 0.247455 0 0.248238 0 0.249021 0 0.249804 
0 0.250587 0 0.25137 0 0.252153 0 0.252937 0 
0.25372 0 0.254503 0 0.255286 0 0.256069 0 0.256852 
0 0.257635 0 0.258418 0 0.259201 0 0.259984 0 
0.260767 0 0.261551 0 0.262334 0 0.263117 0 0.2639 
0 0.264683 0 0.265466 0 0.266249 0 0.267032 0 
0.267815 0 0.268598 0 0.269381 0 0.270164 0 0.270948 
0 0.271731 0 0.272514 0 0.273297 0 0.27408 0 
0.274863 0 0.275646 0 0.276429 0 0.277212 0 0.277995 
0 0.278778 0 0.279561 0 0.280345 0 0.281128 0 
0.281911 0 0.282694 0 0.283477 0 0.28426 0 0.285043 
0 0.285826 0 0.286609 0 0.287392 0 0.288175 0 
0.288958 0 0.289742 0 0.290525 0 0.291308 0 0.292091 
0 0.292874 0 0.293657 0 0.29444 0 0.295223 0 
0.296006 0 0.296789 0 0.297572 0 0.298356 0 0.299139 
0 0.299922 0 0.300705 0 0.301488 0 0.302271 0 
0.303054 0 0.303837 0 0.30462 0 0.305403 0 0.306186 
0 0.306969 0 0.307753 0 0.308536 0 0.309319 0 
0.310102 0 0.310885 0 0.311668 0 0.312451 0 0.313234 
0 0.314017 0 0.3148 0 0.315583 0 0.316366 0 
0.31715 0 0.317933 0 0.318716 0 0.319499 0 0.320282 
0 0.321065 0 0.321848 0 0.322631 0 0.323414 0 
0.324197 0 0.32498 0 0.325763 0 0.326547 0 0.32733 
0 0.328113 0 0.328896 0 0.329679 0 0.330462 0 
0.331245 0 0.332028 0 0.332811 0 0.333594 0 0.334377 
0 0.335161 0 0.335944 0 0.336727 0 0.33751 0 
0.338293 0 0.339076 0 0.339859 0 0.340642 0 0.341425 
0 0.342208 0 0.342991 0 0.343774 0 0.344558 0 
0.345341 0 0.346124 0 0.346907 0 0.34769 0 0.348473 
0 0.349256 0 0.350039 0 0.350822 0 0.351605 0 
0.352388 0 0.353171 0 0.353955 0 0.354738 0 0.355521 
0 0.356304 0 0.357087 0 0.35787 0 0.358653 0 
0.359436 0 0.360219 0 0.361002 0 0.361785 0 0.362569 
0 0.363352 0 0.364135 0 0.364918 0 0.365701 0 
0.366484 0 0.367267 0 0.36805 0 0.368833 0 0.369616 
0 0.370399 0 0.371182 0 0.371966 0 0.372749 0 
0.373532 0 0.374315 0 0.375098 0 0.375881 0 0.376664 
0 0.377447 0 0.37823 0 0.379013 0 0.379796 0 
0.380579 0 0.381363 0 0.382146 0 0.382929 0 0.383712 
0 0.384495 0 0.385278 0 0.386061 0 0.386844 0 
0.387627 0 0.38841 0 0.389193 0 0.389977 0 0.39076 
0 0.391543 0 0.392326 0 0.393109 0 0.393892 0 
0.394675 0 0.395458 0 0.396241 0 0.397024 0 0.397807 
0 0.39859 0 0.399374 0 0.400157 0 0.40094 0 
0.401723 0 0.402506 0 0.403289 0 0.404072 0 0.404855 
0 0.405638 0 0.406421 0 0.407204 0 0.407987 0 
0.408771 0 0.409554 0 0.410337 0 0.41112 0 0.411903 
0 0.412686 0 0.413469 0 0.414252 0 0.415035 0 
0.415818 0 0.416601 0 0.417385 0 0.418168 0 0.418951 
0 0.419734 0 0.420517 0 0.4213 0 0.422083 0 
0.422866 0 0.423649 0 0.424432 0 0.425215 0 0.425998 
0 0.426782 0 0.427565 0 0.428348 0 0.429131 0 
0.429914 0 0.430697 0 0.43148 0 0.432263 0 0.433046 
0 0.433829 0 0.434612 0 0.435395 0 0.436179 0 
0.436962 0 0.437745 0 0.438528 0 0.439311 0 0.440094 
0 0.440877 0 0.44166 0 0.442443 0 0.443226 0 
0.444009 0 0.444792 0 0.445576 0 0.446359 0 0.447142 
0 0.447925 0 0.448708 0 0.449491 0 0.450274 0 
0.451057 0 0.45184 0 0.452623 0 0.453406 0 0.45419 
0 0.454973 0 0.455756 0 0.456539 0 0.457322 0 
0.458105 0 0.458888 0 0.459671 0 0.460454 0 0.461237 
0 0.46202 0 0.462803 0 0.463587 0 0.46437 0 
0.465153 0 0.465936 0 0.466719 0 0.467502 0 0.468285 
0 0.469068 0 0.469851 0 0.470634 0 0.471417 0 
0.4722 0 0.472984 0 0.473767 0 0.47455 0 0.475333 
0 0.476116 0 0.476899 0 0.477682 0 0.478465 0 
0.479248 0 0.480031 0 0.480814 0 0.481597 0 0.482381 
0 0.483164 0 0.483947 0 0.48473 0 0.485513 0 
0.486296 0 0.487079 0 0.487862 0 0.488645 0 0.489428 
0 0.490211 0 0.490995 0 0.491778 0 0.492561 0 
0.493344 0 0.494127 0 0.49491 0 0.495693 0 0.496476 
0 0.497259 0 0.498042 0 0.498825 0 0.499608 0 
0.500392 0 0.501175 0 0.501958 0 0.502741 0 0.503524 
0 0.504307 0 0.50509 0 0.505873 0 0.506656 0 
0.507439 0 0.508222 0 0.509005 0 0.509789 0 0.510572 
0 0.511355 0 0.512138 0 0.512921 0 0.513704 0 
0.514487 0 0.51527 0 0.516053 0 0.516836 0 0.517619 
0 0.518403 0 0.519186 0 0.519969 0 0.520752 0 
0.521535 0 0.522318 0 0.523101 0 0.523884 0 0.524667 
0 0.52545 0 0.526233 0 0.527016 0 0.5278 0 
0.528583 0 0.529366 0 0.530149 0 0.530932 0 0.531715 
0 0.532498 0 0.533281 0 0.534064 0 0.534847 0 
0.53563 0 0.536413 0 0.537197 0 0.53798 0 0.538763 
0 0.539546 0 0.540329 0 0.541112 0 0.541895 0 
0.542678 0 0.543461 0 0.544244 0 0.545027 0 0.545811 
0 0.546594 0 0.547377 0 0.54816 0 0.548943 0 
0.549726 0 0.550509 0 0.551292 0 0.552075 0 0.552858 
0 0.553641 0 0.554424 0 0.555207 0 0.555991 0 
0.556774 0 0.557557 0 0.55834 0 0.559123 0 0.559906 
0 0.560689 0 0.561472 0 0.562255 0 0.563038 0 
0.563821 0 0.564605 0 0.565388 0 0.566171 0 0.566954 
0 0.567737 0 0.56852 0 0.569303 0 0.570086 0 
0.570869 0 0.571652 0 0.572435 0 0.573218 0 0.574002 
0 0.574785 0 0.575568 0 0.576351 0 0.577134 0 
0.577917 0 0.5787 0 0.579483 0 0.580266 0 0.581049 
0 0.581832 0 0.582615 0 0.583399 0 0.584182 0 
0.584965 0 0.585748 0 0.586531 0 0.587314 0 0.588097 
0 0.58888 0 0.589663 0 0.590446 0 0.591229 0 
0.592013 0 0.592796 0 0.593579 0 0.594362 0 0.595145 
0 0.595928 0 0.596711 0 0.597494 0 0.598277 0 
0.59906 0 0.599843 0 0.600626 0 0.60141 0 0.602193 
0 0.602976 0 0.603759 0 0.604542 0 0.605325 0 
0.606108 0 0.606891 0 0.607674 0 0.608457 0 0.60924 
0 0.610023 0 0.610807 0 0.61159 0 0.612373 0 
0.613156 0 0.613939 0 0.614722 0 0.615505 0 0.616288 
0 0.617071 0 0.617854 0 0.618637 0 0.619421 0 
0.620204 0 0.620987 0 0.62177 0 0.622553 0 0.623336 
0 0.624119 0 0.624902 0 0.625685 0 0.626468 0 
0.627251 0 0.628034 0 0.628818 0 0.629601 0 0.630384 
0 0.631167 0 0.63195 0 0.632733 0 0.633516 0 
0.634299 0 0.635082 0 0.635865 0 0.636648 0 0.637432 
0 0.638215 0 0.638998 0 0.639781 0 0.640564 0 
0.641347 0 0.64213 0 0.642913 0 0.643696 0 0.644479 
0 0.645262 0 0.646045 0 0.646829 0 0.647612 0 
0.648395 0 0.649178 0 0.649961 0 0.650744 0 0.651527 
0 0.65231 0 0.653093 0 0.653876 0 0.654659 0 
0.655442 0 0.656226 0 0.657009 0 0.657792 0 0.658575 
0 0.659358 0 0.660141 0 0.660924 0 0.661707 0 