# vtk DataFile Version 4.2
vtk output
ASCII
DATASET POLYDATA
POINTS 1278 float
0 0 0 -0.00370907 -1.15552e-05 0.00169906 -0.0145329 -4.02757e-05 0.00664347 
-0.0320163 -7.72436e-05 0.0146041 -0.0557044 -0.000113541 0.0253517 -0.0851419 -0.000140251 0.0386572 
-0.119874 -0.000148455 0.0542914 -0.159445 -0.000129235 0.0720252 -0.2034 -7.3674e-05 0.0916293 
-0.251285 2.71461e-05 0.112875 -0.302643 0.000182143 0.135532 -0.357021 0.000400235 0.159373 
-0.413962 0.000690338 0.184167 -0.473012 0.00106137 0.209686 -0.533716 0.00152225 0.2357 
-0.595618 0.0020819 0.26198 -0.658264 0.00274923 0.288298 -0.721198 0.00353316 0.314423 
-0.783965 0.00444262 0.340128 -0.846111 0.0054865 0.365182 -0.90718 0.00667375 0.389356 
-0.966716 0.00801326 0.412422 -1.02438 0.00950998 0.43421 -1.08022 0.0111553 0.454751 
-1.13436 0.0129376 0.474121 -1.18694 0.0148454 0.492396 -1.23808 0.0168672 0.50965 
-1.28792 0.0189913 0.52596 -1.33659 0.0212064 0.541401 -1.38421 0.0235009 0.556047 
-1.43092 0.0258631 0.569974 -1.47685 0.0282816 0.583259 -1.52213 0.0307449 0.595975 
-1.56688 0.0332414 0.608199 -1.61124 0.0357595 0.620005 -1.65534 0.0382878 0.63147 
-1.69932 0.0408147 0.642668 -1.74329 0.0433287 0.653675 -1.78739 0.0458182 0.664566 
-1.83175 0.0482717 0.675416 -1.8765 0.0506777 0.686302 -1.92177 0.0530248 0.697294 
-1.96759 0.0553063 0.708415 -2.01392 0.0575183 0.719647 -2.06074 0.0596572 0.730974 
-2.10802 0.0617194 0.742377 -2.15571 0.0637012 0.75384 -2.20378 0.065599 0.765345 
-2.25221 0.0674091 0.776875 -2.30096 0.069128 0.788412 -2.34999 0.0707519 0.799938 
-2.39927 0.0722772 0.811437 -2.44876 0.0737003 0.82289 -2.49845 0.0750175 0.834281 
-2.54828 0.0762252 0.845592 -2.59823 0.0773197 0.856805 -2.64826 0.0782975 0.867904 
-2.69835 0.0791548 0.87887 -2.74845 0.079888 0.889686 -2.79853 0.0804935 0.900335 
-2.84856 0.0809677 0.9108 -2.89852 0.0813068 0.921062 -2.94836 0.0815063 0.931111 
-2.9981 0.081559 0.940953 -3.04774 0.081457 0.950596 -3.09729 0.0811925 0.960048 
-3.14675 0.080758 0.96932 -3.19614 0.0801456 0.978419 -3.24546 0.0793475 0.987355 
-3.29472 0.0783561 0.996135 -3.34392 0.0771636 1.00477 -3.39307 0.0757622 1.01327 
-3.44218 0.0741442 1.02164 -3.49125 0.0723018 1.02988 -3.5403 0.0702273 1.03802 
-3.58932 0.067913 1.04606 -3.63834 0.0653511 1.054 -3.68734 0.0625338 1.06186 
-3.73635 0.0594535 1.06964 -3.78536 0.0561023 1.07735 -3.83438 0.0524725 1.08501 
-3.88343 0.0485565 1.09261 -3.9325 0.0443464 1.10018 -3.9816 0.0398348 1.1077 
-4.03072 0.0350143 1.11519 -4.07984 0.0298777 1.12264 -4.12897 0.0244175 1.13006 
-4.17809 0.0186264 1.13744 -4.2272 0.012497 1.14479 -4.2763 0.006022 1.15211 
-4.32537 -0.000806035 1.15939 -4.37442 -0.00799443 1.16665 -4.42342 -0.0155505 1.17388 
-4.47239 -0.0234817 1.18108 -4.5213 -0.0317954 1.18825 -4.57016 -0.0404988 1.1954 
-4.61895 -0.0495994 1.20253 -4.66768 -0.0591045 1.20963 -4.71632 -0.0690214 1.21671 
-4.76489 -0.0793577 1.22377 -4.81336 -0.0901205 1.23081 -4.86174 -0.101317 1.23783 
-4.91001 -0.112955 1.24484 -4.95817 -0.125039 1.25183 -5.00622 -0.137571 1.2588 
-5.05415 -0.150554 1.26577 -5.10194 -0.163989 1.27272 -5.14961 -0.177881 1.27966 
-5.19713 -0.192231 1.28659 -5.2445 -0.207042 1.29351 -5.29173 -0.222315 1.30043 
-5.33879 -0.238055 1.30735 -5.38569 -0.254262 1.31426 -5.43242 -0.27094 1.32117 
-5.47897 -0.288092 1.32808 -5.52533 -0.305718 1.33499 -5.57151 -0.323823 1.34191 
-5.61749 -0.342408 1.34883 -5.66326 -0.361476 1.35575 -5.70883 -0.38103 1.36268 
-5.75419 -0.401072 1.36963 -5.79932 -0.421604 1.37658 -5.84423 -0.442629 1.38354 
-5.8889 -0.464146 1.39051 -5.93334 -0.486149 1.3975 -5.97755 -0.508633 1.40449 
-6.02151 -0.531591 1.41148 -6.06523 -0.555018 1.41847 -6.10871 -0.578906 1.42546 
-6.15194 -0.60325 1.43244 -6.19492 -0.628043 1.43941 -6.23765 -0.65328 1.44638 
-6.28012 -0.678955 1.45332 -6.32234 -0.70506 1.46025 -6.36429 -0.731591 1.46716 
-6.40599 -0.758541 1.47404 -6.44741 -0.785903 1.4809 -6.48858 -0.813672 1.48773 
-6.52947 -0.841841 1.49453 -6.57009 -0.870404 1.50129 -6.61043 -0.899356 1.50801 
-6.6505 -0.92869 1.51469 -6.69028 -0.958399 1.52133 -6.72979 -0.988478 1.52792 
-6.76902 -1.01892 1.53445 -6.80797 -1.04971 1.54093 -6.84665 -1.08086 1.54733 
-6.88506 -1.11234 1.55367 -6.92321 -1.14415 1.55993 -6.96111 -1.17628 1.5661 
-6.99874 -1.20873 1.57218 -7.03613 -1.24149 1.57816 -7.07327 -1.27455 1.58404 
-7.11016 -1.3079 1.58981 -7.14682 -1.34154 1.59546 -7.18324 -1.37545 1.60098 
-7.21943 -1.40964 1.60638 -7.25539 -1.44408 1.61164 -7.29112 -1.47878 1.61676 
-7.32664 -1.51373 1.62173 -7.36194 -1.54891 1.62655 -7.39702 -1.58433 1.63121 
-7.4319 -1.61997 1.63569 -7.46657 -1.65582 1.64001 -7.50105 -1.69189 1.64414 
-7.53532 -1.72816 1.64808 -7.56941 -1.76462 1.65182 -7.60331 -1.80127 1.65535 
-7.63704 -1.83811 1.65866 -7.67058 -1.87512 1.66175 -7.70396 -1.91231 1.6646 
-7.73717 -1.94966 1.6672 -7.77022 -1.98717 1.66955 -7.80312 -2.02484 1.67163 
-7.83586 -2.06264 1.67345 -7.86846 -2.10059 1.67498 -7.90092 -2.13867 1.67622 
-7.93324 -2.17688 1.67716 -7.96543 -2.21521 1.67779 -7.9975 -2.25366 1.67811 
-8.02944 -2.29221 1.67809 -8.06127 -2.33087 1.67775 -8.09298 -2.36962 1.67705 
-8.12459 -2.40846 1.67601 -8.1561 -2.44738 1.6746 -8.18751 -2.48638 1.67281 
-8.21882 -2.52544 1.67065 -8.25003 -2.56456 1.66808 -8.28114 -2.60373 1.66512 
-8.31216 -2.64293 1.66174 -8.34309 -2.68217 1.65793 -8.37393 -2.72143 1.65368 
-8.40468 -2.7607 1.649 -8.43534 -2.79998 1.64385 -8.46592 -2.83925 1.63824 
-8.49642 -2.87852 1.63215 -8.52683 -2.91776 1.62557 -8.55717 -2.95697 1.6185 
-8.58743 -2.99615 1.61091 -8.61761 -3.03528 1.60281 -8.64772 -3.07435 1.59418 
-8.67776 -3.11336 1.58501 -8.70772 -3.1523 1.5753 -8.73762 -3.19116 1.56502 
-8.76745 -3.22993 1.55417 -8.79721 -3.26861 1.54276 -8.82689 -3.30718 1.53079 
-8.85649 -3.34565 1.51825 -8.88601 -3.384 1.50515 -8.91543 -3.42224 1.49149 
-8.94476 -3.46034 1.47727 -8.97399 -3.49832 1.46249 -9.00312 -3.53615 1.44716 
-9.03214 -3.57384 1.43128 -9.06105 -3.61138 1.41484 -9.08984 -3.64876 1.39785 
-9.11851 -3.68598 1.38031 -9.14706 -3.72302 1.36222 -9.17547 -3.75989 1.34359 
-9.20375 -3.79658 1.32441 -9.23189 -3.83307 1.30469 -9.25989 -3.86937 1.28442 
-9.28774 -3.90547 1.26361 -9.31544 -3.94135 1.24227 -9.34298 -3.97703 1.22039 
-9.37037 -4.01249 1.19798 -9.39758 -4.04774 1.17505 -9.42463 -4.08278 1.15161 
-9.45151 -4.11762 1.12768 -9.47822 -4.15226 1.10326 -9.50475 -4.1867 1.07837 
-9.53109 -4.22095 1.053 -9.55725 -4.255 1.02719 -9.58323 -4.28886 1.00093 
-9.609 -4.32253 0.974229 -9.63459 -4.35602 0.947107 -9.65997 -4.38932 0.919571 
-9.68515 -4.42245 0.891632 -9.71013 -4.4554 0.863298 -9.73489 -4.48818 0.834582 
-9.75944 -4.52078 0.805492 -9.78377 -4.55322 0.77604 -9.80789 -4.58549 0.746236 
-9.83177 -4.6176 0.71609 -9.85543 -4.64955 0.685612 -9.87886 -4.68135 0.654811 
-9.90206 -4.71299 0.623694 -9.92502 -4.74449 0.592269 -9.94775 -4.77586 0.560543 
-9.97025 -4.80708 0.528524 -9.99251 -4.83818 0.496219 -10.0145 -4.86916 0.463636 
-10.0363 -4.90001 0.430782 -10.0578 -4.93075 0.397664 -10.0791 -4.96139 0.36429 
-10.1002 -4.99192 0.330668 -10.121 -5.02236 0.296805 -10.1415 -5.0527 0.262708 
-10.1619 -5.08296 0.228385 -10.1819 -5.11313 0.193843 -10.2017 -5.14323 0.15909 
-10.2213 -5.17325 0.124133 -10.2406 -5.20321 0.0889793 -10.2596 -5.23311 0.0536372 
-10.2784 -5.26296 0.0181137 -10.2969 -5.29275 -0.017585 -10.3152 -5.3225 -0.0534542 
-10.3332 -5.3522 -0.0894891 -10.351 -5.38187 -0.125685 -10.3684 -5.41149 -0.162038 
-10.3857 -5.44109 -0.198542 -10.4026 -5.47066 -0.235194 -10.4193 -5.5002 -0.271989 
-10.4357 -5.52972 -0.308921 -10.4518 -5.55923 -0.345987 -10.4677 -5.58872 -0.383181 
-10.4833 -5.6182 -0.420499 -10.4986 -5.64767 -0.457937 -10.5136 -5.67715 -0.49549 
-10.5283 -5.70662 -0.533153 -10.5428 -5.7361 -0.570921 -10.557 -5.76559 -0.60879 
-10.5709 -5.7951 -0.646756 -10.5845 -5.82462 -0.684813 -10.5978 -5.85415 -0.722957 
-10.6109 -5.88372 -0.761184 -10.6236 -5.91331 -0.79949 -10.636 -5.94292 -0.837872 
-10.6482 -5.97257 -0.876326 -10.6601 -6.00224 -0.91485 -10.6716 -6.03195 -0.953439 
-10.6829 -6.06169 -0.992092 -10.6938 -6.09147 -1.0308 -10.7044 -6.12128 -1.06957 
-10.7148 -6.15114 -1.10839 -10.7248 -6.18103 -1.14726 -10.7345 -6.21097 -1.18618 
-10.7439 -6.24095 -1.22514 -10.753 -6.27098 -1.26414 -10.7618 -6.30105 -1.30317 
-10.7702 -6.33118 -1.34224 -10.7783 -6.36135 -1.38134 -10.7861 -6.39158 -1.42046 
-10.7936 -6.42186 -1.45961 -10.8008 -6.4522 -1.49877 -10.8076 -6.4826 -1.53796 
-10.8141 -6.51305 -1.57715 -10.8202 -6.54357 -1.61636 -10.826 -6.57414 -1.65557 
-10.8315 -6.60477 -1.69479 -10.8366 -6.63546 -1.734 -10.8414 -6.66621 -1.77321 
-10.8459 -6.69702 -1.81242 -10.85 -6.72789 -1.85162 -10.8537 -6.75882 -1.8908 
-10.8571 -6.78981 -1.92997 -10.8602 -6.82087 -1.96911 -10.8629 -6.85198 -2.00824 
-10.8652 -6.88315 -2.04734 -10.8672 -6.91439 -2.0864 -10.8688 -6.94569 -2.12544 
-10.8701 -6.97705 -2.16444 -10.871 -7.00847 -2.2034 -10.8715 -7.03996 -2.24232 
-10.8716 -7.07151 -2.28119 -10.8714 -7.10312 -2.32001 -10.8709 -7.1348 -2.35878 
-10.8699 -7.16654 -2.3975 -10.8686 -7.19834 -2.43615 -10.8668 -7.2302 -2.47474 
-10.8647 -7.26212 -2.51326 -10.8623 -7.2941 -2.5517 -10.8594 -7.32615 -2.59007 
-10.8562 -7.35825 -2.62837 -10.8525 -7.39041 -2.66657 -10.8485 -7.42262 -2.70469 
-10.8441 -7.4549 -2.74272 -10.8393 -7.48723 -2.78065 -10.8341 -7.51962 -2.81849 
-10.8285 -7.55206 -2.85622 -10.8226 -7.58456 -2.89384 -10.8162 -7.61711 -2.93135 
-10.8094 -7.64971 -2.96875 -10.8022 -7.68237 -3.00603 -10.7946 -7.71508 -3.04318 
-10.7866 -7.74784 -3.08021 -10.7782 -7.78066 -3.11711 -10.7694 -7.81352 -3.15387 
-10.7602 -7.84644 -3.19048 -10.7506 -7.8794 -3.22695 -10.7405 -7.91241 -3.26326 
-10.73 -7.94546 -3.29941 -10.7191 -7.97857 -3.3354 -10.7078 -8.01171 -3.37121 
-10.6961 -8.04491 -3.40684 -10.6839 -8.07814 -3.44228 -10.6713 -8.11142 -3.47754 
-10.6583 -8.14474 -3.51259 -10.6448 -8.1781 -3.54745 -10.6309 -8.2115 -3.58209 
-10.6166 -8.24494 -3.61652 -10.6018 -8.27842 -3.65072 -10.5866 -8.31194 -3.6847 
[...]
CELL_DATA 1
FIELD FieldData 2
Length 1 1 double
63.876676752 
Tortuosity 1 1 double
0.9048624934 
POINT_DATA 1278
SCALARS MaximumInscribedSphereRadius float
LOOKUP_TABLE default
0.93 0.93 0.93 0.93 0.93 0.93 0.93 0.93 0.93 
0.93 0.93 0.93 0.93 0.93 0.93 0.93 0.93 0.93 
0.93 0.93 0.93 0.930141 0.932787 0.935432 0.938078 0.940724 0.943369 
0.946015 0.948661 0.951306 0.953952 0.956598 0.959243 0.961889 0.964535 0.96718 
0.969826 0.972472 0.975117 0.977763 0.980409 0.986383 0.994497 1.00261 1.01073 
1.01884 1.02696 1.03507 1.04318 1.0513 1.05941 1.06753 1.07564 1.08376 
1.09187 1.09999 1.1081 1.11621 1.12433 1.13244 1.14056 1.14812 1.1517 
1.15529 1.15887 1.16246 1.16604 1.16962 1.17321 1.17679 1.18038 1.18396 
1.18755 1.19113 1.19471 1.1983 1.20188 1.20547 1.20905 1.21264 1.21622 
1.2198 1.21325 1.2051 1.19695 1.18881 1.18066 1.17251 1.16437 1.15622 
1.14807 1.13992 1.13178 1.12363 1.11548 1.10734 1.09919 1.09104 1.0829 
1.07475 1.0666 1.05846 1.0529 1.04918 1.04546 1.04173 1.03801 1.03429 
1.03056 1.02684 1.02311 1.01939 1.01567 1.01194 1.00822 1.0045 1.00077 
0.997048 0.993325 0.989601 0.985877 0.982154 0.979517 0.979253 0.978989 0.978725 
0.97846 0.978196 0.977932 0.977668 0.977404 0.97714 0.976876 0.976612 0.976348 
0.976083 0.975819 0.975555 0.975291 0.975027 0.974763 0.974499 0.974189 0.972869 
0.971548 0.970228 0.968908 0.967588 0.966268 0.964948 0.963628 0.962308 0.960987 
0.959667 0.958347 0.957027 0.955707 0.954387 0.953067 0.951747 0.950426 0.949106 
0.947786 0.946817 0.945955 0.945094 0.944232 0.94337 0.942508 0.941646 0.940785 
0.939923 0.939061 0.938199 0.937337 0.936476 0.935614 0.934752 0.93389 0.933028 
0.932167 0.931305 0.930443 0.930425 0.931299 0.932173 0.933047 0.933922 0.934796 
0.93567 0.936544 0.937419 0.938293 0.939167 0.940041 0.940915 0.94179 0.942664 
0.943538 0.944412 0.945287 0.946161 0.947035 0.948689 0.953263 0.957837 0.962412 
0.966986 0.97156 0.976135 0.980709 0.985283 0.989858 0.994432 0.999006 1.00358 
1.00815 1.01273 1.0173 1.02188 1.02645 1.03103 1.0356 1.04018 1.05172 
1.06365 1.07559 1.08753 1.09946 1.1114 1.12334 1.13527 1.14721 1.15915 
1.17108 1.18302 1.19496 1.20689 1.21883 1.23077 1.2427 1.25464 1.26658 
1.27851 1.29531 1.31446 1.3336 1.35275 1.37189 1.39104 1.41018 1.42933 
1.44848 1.46762 1.48677 1.50591 1.52506 1.5442 1.56335 1.58249 1.60164 
1.62078 1.63993 1.65907 1.67378 1.6817 1.68962 1.69754 1.70547 1.71339 
1.72131 1.72923 1.73716 1.74508 1.753 1.76092 1.76885 1.77677 1.78469 
1.79261 1.80054 1.80846 1.81638 1.8243 1.83145 1.83268 1.83391 1.83513 
1.83636 1.83759 1.83882 1.84004 1.84127 1.8425 1.84372 1.84495 1.84618 
1.84741 1.84863 1.84986 1.85109 1.85232 1.85354 1.85477 1.856 1.85636 
1.85654 1.85673 1.85692 1.85711 1.85729 1.85748 1.85767 1.85786 1.85804 
1.85823 1.85842 1.85861 1.85879 1.85898 1.85917 1.85935 1.85954 1.85973 
1.85992 1.85819 1.85493 1.85168 1.84843 1.84517 1.84192 1.83866 1.83541 
1.83215 1.8289 1.82564 1.82239 1.81914 1.81588 1.81263 1.80937 1.80612 
1.80286 1.79961 1.79635 1.78977 1.77462 1.75946 1.7443 1.72915 1.71399 
1.69883 1.68368 1.66852 1.65336 1.63821 1.62305 1.60789 1.59274 1.57758 
1.56242 1.54727 1.53211 1.51695 1.5018 1.48666 1.47566 1.46465 1.45365 
1.44264 1.43163 1.42063 1.40962 1.39862 1.38761 1.3766 1.3656 1.35459 
1.34358 1.33258 1.32157 1.31057 1.29956 1.28855 1.27755 1.26654 1.26363 
1.26365 1.26367 1.26369 1.26371 1.26373 1.26375 1.26377 1.26379 1.26381 
1.26383 1.26385 1.26387 1.26389 1.26391 1.26393 1.26395 1.26397 1.26399 
1.26401 1.27539 1.29908 1.32276 1.34644 1.37012 1.39381 1.41749 1.44117 
1.46485 1.48854 1.51222 1.5359 1.55958 1.58327 1.60695 1.63063 1.65431 
1.67799 1.70168 1.72536 1.74071 1.74321 1.7457 1.74819 1.75069 1.75318 
1.75568 1.75817 1.76067 1.76316 1.76566 1.76815 1.77065 1.77314 1.77563 
1.77813 1.78062 1.78312 1.78561 1.78811 1.7875 1.78131 1.77512 1.76892 
1.76273 1.75654 1.75035 1.74416 1.73797 1.73178 1.72559 1.7194 1.71321 
1.70702 1.70083 1.69464 1.68845 1.68226 1.67606 1.66987 1.66449 1.67236 
1.68023 1.6881 1.69597 1.70384 1.7117 1.71957 1.72744 1.73531 1.74318 
1.75105 1.75891 1.76678 1.77465 1.78252 1.79039 1.79826 1.80613 1.81399 
1.82186 1.82009 1.81566 1.81123 1.8068 1.80238 1.79795 1.79352 1.78909 
1.78467 1.78024 1.77581 1.77138 1.76695 1.76253 1.7581 1.75367 1.74924 
1.74482 1.74039 1.73596 1.73098 1.72544 1.7199 1.71437 1.70883 1.7033 
1.69776 1.69223 1.68669 1.68115 1.67562 1.67008 1.66455 1.65901 1.65348 
1.64794 1.6424 1.63687 1.63133 1.6258 1.62278 1.62877 1.63477 1.64076 
1.64675 1.65275 1.65874 1.66474 1.67073 1.67672 1.68272 1.68871 1.6947 
1.7007 1.70669 1.71269 1.71868 1.72467 1.73067 1.73666 1.74265 1.74426 
1.74558 1.7469 1.74821 1.74953 1.75085 1.75216 1.75348 1.75479 1.75611 
1.75743 1.75874 1.76006 1.76138 1.76269 1.76401 1.76532 1.76664 1.76796 
1.76927 1.76375 1.75484 1.74594 1.73703 1.72812 1.71921 1.7103 1.7014 
1.69249 1.68358 1.67467 1.66576 1.65686 1.64795 1.63904 1.63013 1.62122 
1.61232 1.60341 1.5945 1.58864 1.5867 1.58475 1.5828 1.58085 1.5789 
1.57695 1.575 1.57305 1.5711 1.56915 1.5672 1.56525 1.5633 1.56135 
1.5594 1.55745 1.5555 1.55355 1.5516 1.55095 1.55627 1.56159 1.56691 
1.57223 1.57755 1.58288 1.5882 1.59352 1.59884 1.60416 1.60948 1.6148 
1.62012 1.62544 1.63076 1.63609 1.64141 1.64673 1.65205 1.65737 1.66516 
1.67322 1.68129 1.68935 1.69742 1.70549 1.71355 1.72162 1.72968 1.73775 
1.74581 1.75388 1.76195 1.77001 1.77808 1.78614 1.79421 1.80227 1.81034 
1.81841 1.82267 1.82457 1.82647 1.82836 1.83026 1.83216 1.83406 1.83596 
1.83785 1.83975 1.84165 1.84355 1.84545 1.84734 1.84924 1.85114 1.85304 
1.85494 1.85683 1.85873 1.85941 1.85763 1.85585 1.85407 1.85229 1.85051 
1.84873 1.84695 1.84517 1.84339 1.84161 1.83983 1.83805 1.83627 1.83448 
1.8327 1.83092 1.82914 1.82736 1.82558 1.82355 1.81657 1.80959 1.80261 
1.79563 1.78865 1.78167 1.77469 1.76771 1.76073 1.75375 1.74677 1.73979 
1.73281 1.72583 1.71885 1.71187 1.70489 1.69791 1.69093 1.68395 1.6816 
1.68069 1.67977 1.67886 1.67794 1.67703 1.67611 1.6752 1.67429 1.67337 
1.67246 1.67154 1.67063 1.66971 1.6688 1.66788 1.66697 1.66605 1.66514 
1.66423 1.67587 1.7011 1.72632 1.75155 1.77678 1.80201 1.82723 1.85246 
1.87769 1.90292 1.92814 1.95337 1.9786 2.00383 2.02905 2.05428 2.07951 
2.10474 2.12996 2.15519 2.17676 2.18323 2.18971 2.19619 2.20267 2.20915 
2.21563 2.22211 2.22859 2.23506 2.24154 2.24802 2.2545 2.26098 2.26746 
2.27394 2.28042 2.28689 2.29337 2.29985 2.30633 2.29305 2.27787 2.26269 
2.24751 2.23233 2.21715 2.20197 2.18679 2.17161 2.15642 2.14124 2.12606 
2.11088 2.0957 2.08052 2.06534 2.05016 2.03498 2.01979 2.00461 1.99791 
1.99619 1.99446 1.99274 1.99101 1.98929 1.98756 1.98583 1.98411 1.98238 
1.98066 1.97893 1.97721 1.97548 1.97376 1.97203 1.97031 1.96858 1.96685 
1.96513 1.96629 1.97277 1.97925 1.98573 1.99221 1.99869 2.00516 2.01164 
2.01812 2.0246 2.03108 2.03756 2.04404 2.05052 2.057 2.06348 2.06996 
2.07644 2.08292 2.0894 2.09508 2.09119 2.0873 2.0834 2.07951 2.07562 
2.07173 2.06783 2.06394 2.06005 2.05616 2.05226 2.04837 2.04448 2.04059 
2.03669 2.0328 2.02891 2.02502 2.02113 2.01723 2.01216 2.0068 2.00145 
1.99609 1.99073 1.98538 1.98002 1.97466 1.96931 1.96395 1.95859 1.95324 
1.94788 1.94253 1.93717 1.93181 1.92646 1.9211 1.91574 1.91039 1.91272 
1.92162 1.93051 1.93941 1.94831 1.95721 1.9661 1.975 1.9839 1.99279 
2.00169 2.01059 2.01948 2.02838 2.03728 2.04618 2.05507 2.06397 2.07287 
2.08176 2.09076 2.10003 2.1093 2.11857 2.12784 2.13711 2.14637 2.15564 
2.16491 2.17418 2.18345 2.19272 2.20199 2.21126 2.22053 2.2298 2.23907 
2.24833 2.2576 2.26687 2.27614 2.28465 2.29315 2.30166 2.31016 2.31866 
2.32717 2.33567 2.34417 2.35268 2.36118 2.36968 2.37818 2.38669 2.39519 
2.40369 2.4122 2.4207 2.4292 2.43771 2.44621 2.44056 2.42921 2.41786 
2.40651 2.39516 2.38381 2.37246 2.36112 2.34977 2.33842 2.32707 2.31572 
2.30437 2.29302 2.28167 2.27032 2.25897 2.24762 2.23627 2.22493 2.21196 
2.19687 2.18177 2.16668 2.15158 2.13649 2.12139 2.1063 2.0912 2.07611 
2.06101 2.04592 2.03082 2.01573 2.00063 1.98554 1.97044 1.95535 1.94026 
1.92516 1.91339 1.92066 1.92793 1.9352 1.94247 1.94974 1.95701 1.96429 
1.97156 1.97883 1.9861 1.99337 2.00064 2.00791 2.01518 2.02245 2.02972 
2.03699 2.04426 2.05153 2.0588 2.06779 2.07703 2.08628 2.09553 2.10478 
2.11403 2.12328 2.13252 2.14177 2.15102 2.16027 2.16952 2.17876 2.18801 
2.19726 2.20651 2.21576 2.225 2.23425 2.2435 2.25264 2.26169 2.27074 
2.2798 2.28885 2.2979 2.30696 2.31601 2.32506 2.33412 2.34317 2.35222 
2.36128 2.37033 2.37938 2.38844 2.39749 2.40654 2.4156 2.42465 2.43173 
2.43414 2.43656 2.43897 2.44139 2.4438 2.44622 2.44864 2.45105 2.45347 
2.45588 2.4583 2.46071 2.46313 2.46554 2.46796 2.47037 2.47279 2.4752 
2.47762 2.47996 2.47682 2.47369 2.47055 2.46741 2.46428 2.46114 2.45801 
2.45487 2.45174 2.4486 2.44547 2.44233 2.43919 2.43606 2.43292 2.42979 
2.42665 2.42352 2.42038 2.41725 2.40638 2.39265 2.37893 2.3652 2.35148 
2.33775 2.32403 2.3103 2.29658 2.28285 2.26913 2.2554 2.24168 2.22795 
2.21423 2.2005 2.18678 2.17305 2.15933 2.1456 2.13098 2.11528 2.09957 
2.08387 2.06817 2.05247 2.03676 2.02106 2.00536 1.98965 1.97395 1.95825 
1.94254 1.92684 1.91114 1.89544 1.87973 1.86403 1.84833 1.83262 1.81831 
1.81011 1.80191 1.79371 1.78551 1.77731 1.7691 1.7609 1.7527 1.7445 
1.7363 1.7281 1.7199 1.7117 1.7035 1.6953 1.6871 1.6789 1.6707 
1.6625 1.6543 1.6597 1.66609 1.67249 1.67888 1.68528 1.69168 1.69807 
1.70447 1.71086 1.71726 1.72366 1.73005 1.73645 1.74284 1.74924 1.75564 
1.76203 1.76843 1.77482 1.78122 1.7948 1.81173 1.82865 1.84557 1.86249 
1.87941 1.89634 1.91326 1.93018 1.9471 1.96402 1.98095 1.99787 2.01479 
2.03171 2.04863 2.06556 2.08248 2.0994 2.11632 2.13033 2.1403 2.15027 
2.16024 2.17021 2.18018 2.19015 2.20012 2.21009 2.22006 2.23003 2.24 
2.24997 2.25994 2.26991 2.27988 2.28985 2.29982 2.30979 2.31976 2.32928 
2.33609 2.3429 2.34971 2.35652 2.36333 2.37014 2.37695 2.38377 2.39058 
2.39739 2.4042 2.41101 2.41782 2.42463 2.43144 2.43826 2.44507 2.45188 
2.45869 2.4655 2.46689 2.46756 2.46823 2.4689 2.46957 2.47024 2.47091 
2.47158 2.47225 2.47292 2.47359 2.47426 2.47493 2.4756 2.47627 2.47695 
2.47762 2.47829 2.47896 2.47963 2.48 2.48 2.48 2.48 2.48 
2.48 2.48 2.48 2.48 2.48 2.48 2.48 2.48 2.48 
2.48 2.48 2.48 2.48 2.48 2.48 2.48 2.48 2.48 
2.48 2.48 2.48 2.48 2.48 2.48 2.48 2.48 2.48 
2.48 2.48 2.48 2.48 2.48 2.48 2.48 2.48 2.48 

TEXTURE_COORDINATES TCoords 2 float
0 0 0.000783085 0 0.00156617 0 0.00234926 0 0.00313234 
0 0.00391543 0 0.00469851 0 0.0054816 0 0.00626468 0 
0.00704777 0 0.00783085 0 0.00861394 0 0.00939702 0 0.0101801 
0 0.0109632 0 0.0117463 0 0.0125294 0 0.0133125 0 
0.0140955 0 0.0148786 0 0.0156617 0 0.0164448 0 0.0172279 
0 0.018011 0 0.018794 0 0.0195771 0 0.0203602 0 
0.0211433 0 0.0219264 0 0.0227095 0 0.0234926 0 0.0242756 
0 0.0250587 0 0.0258418 0 0.0266249 0 0.027408 0 
0.0281911 0 0.0289742 0 0.0297572 0 0.0305403 0 0.0313234 
0 0.0321065 0 0.0328896 0 0.0336727 0 0.0344558 0 
0.0352388 0 0.0360219 0 0.036805 0 0.0375881 0 0.0383712 
0 0.0391543 0 0.0399374 0 0.0407204 0 0.0415035 0 
0.0422866 0 0.0430697 0 0.0438528 0 0.0446359 0 0.045419 
0 0.046202 0 0.0469851 0 0.0477682 0 0.0485513 0 
0.0493344 0 0.0501175 0 0.0509005 0 0.0516836 0 0.0524667 
0 0.0532498 0 0.0540329 0 0.054816 0 0.0555991 0 
0.0563821 0 0.0571652 0 0.0579483 0 0.0587314 0 0.0595145 
0 0.0602976 0 0.0610807 0 0.0618637 0 0.0626468 0 
0.0634299 0 0.064213 0 0.0649961 0 0.0657792 0 0.0665623 
0 0.0673453 0 0.0681284 0 0.0689115 0 0.0696946 0 
0.0704777 0 0.0712608 0 0.0720439 0 0.0728269 0 0.07361 
0 0.0743931 0 0.0751762 0 0.0759593 0 0.0767424 0 
0.0775255 0 0.0783085 0 0.0790916 0 0.0798747 0 0.0806578 
0 0.0814409 0 0.082224 0 0.083007 0 0.0837901 0 
0.0845732 0 0.0853563 0 0.0861394 0 0.0869225 0 0.0877056 
0 0.0884886 0 0.0892717 0 0.0900548 0 0.0908379 0 
0.091621 0 0.0924041 0 0.0931872 0 0.0939702 0 0.0947533 
0 0.0955364 0 0.0963195 0 0.0971026 0 0.0978857 0 
0.0986688 0 0.0994518 0 0.100235 0 0.101018 0 0.101801 
0 0.102584 0 0.103367 0 0.10415 0 0.104933 0 
0.105717 0 0.1065 0 0.107283 0 0.108066 0 0.108849 
0 0.109632 0 0.110415 0 0.111198 0 0.111981 0 
0.112764 0 0.113547 0 0.11433 0 0.115114 0 0.115897 
0 0.11668 0 0.117463 0 0.118246 0 0.119029 0 
0.119812 0 0.120595 0 0.121378 0 0.122161 0 0.122944 
0 0.123727 0 0.124511 0 0.125294 0 0.126077 0 
0.12686 0 0.127643 0 0.128426 0 0.129209 0 0.129992 
0 0.130775 0 0.131558 0 0.132341 0 0.133125 0 
0.133908 0 0.134691 0 0.135474 0 0.136257 0 0.13704 
0 0.137823 0 0.138606 0 0.139389 0 0.140172 0 
0.140955 0 0.141738 0 0.142522 0 0.143305 0 0.144088 
0 0.144871 0 0.145654 0 0.146437 0 0.14722 0 
0.148003 0 0.148786 0 0.149569 0 0.150352 0 0.151135 
0 0.151919 0 0.152702 0 0.153485 0 0.154268 0 
0.155051 0 0.155834 0 0.156617 0 0.1574 0 0.158183 
0 0.158966 0 0.159749 0 0.160533 0 0.161316 0 
0.162099 0 0.162882 0 0.163665 0 0.164448 0 0.165231 
0 0.166014 0 0.166797 0 0.16758 0 0.168363 0 
0.169146 0 0.16993 0 0.170713 0 0.171496 0 0.172279 
0 0.173062 0 0.173845 0 0.174628 0 0.175411 0 
0.176194 0 0.176977 0 0.17776 0 0.178543 0 0.179327 
0 0.18011 0 0.180893 0 0.181676 0 0.182459 0 
0.183242 0 0.184025 0 0.184808 0 0.185591 0 0.186374 
0 0.187157 0 0.18794 0 0.188724 0 0.189507 0 
0.19029 0 0.191073 0 0.191856 0 0.192639 0 0.193422 
0 0.194205 0 0.194988 0 0.195771 0 0.196554 0 
0.197338 0 0.198121 0 0.198904 0 0.199687 0 0.20047 
0 0.201253 0 0.202036 0 0.202819 0 0.203602 0 
0.204385 0 0.205168 0 0.205951 0 0.206735 0 0.207518 
0 0.208301 0 0.209084 0 0.209867 0 0.21065 0 
0.211433 0 0.212216 0 0.212999 0 0.213782 0 0.214565 
0 0.215348 0 0.216132 0 0.216915 0 0.217698 0 
0.218481 0 0.219264 0 0.220047 0 0.22083 0 0.221613 
0 0.222396 0 0.223179 0 0.223962 0 0.224745 0 
0.225529 0 0.226312 0 0.227095 0 0.227878 0 0.228661 
0 0.229444 0 0.230227 0 0.23101 0 0.231793 0 
0.232576 0 0.233359 0 0.234143 0 0.234926 0 0.235709 
0 0.236492 0 0.237275 0 0.238058 0 0.238841 0 
0.239624 0 0.240407 0 0.24119 0 0.241973 0 0.242756 
0 0.24354 0 0.244323 0 0.245106 0 0.245889 0 
0.246672 0 0.247455 0 0.248238 0 0.249021 0 0.249804 
0 0.250587 0 0.25137 0 0.252153 0 0.252937 0 
0.25372 0 0.254503 0 0.255286 0 0.256069 0 0.256852 
0 0.257635 0 0.258418 0 0.259201 0 0.259984 0 
0.260767 0 0.261551 0 0.262334 0 0.263117 0 0.2639 
0 0.264683 0 0.265466 0 0.266249 0 0.267032 0 
0.267815 0 0.268598 0 0.269381 0 0.270164 0 0.270948 
0 0.271731 0 0.272514 0 0.273297 0 0.27408 0 
0.274863 0 0.275646 0 0.276429 0 0.277212 0 0.277995 
0 0.278778 0 0.279561 0 0.280345 0 0.281128 0 
0.281911 0 0.282694 0 0.283477 0 0.28426 0 0.285043 
0 0.285826 0 0.286609 0 0.287392 0 0.288175 0 
0.288958 0 0.289742 0 0.290525 0 0.291308 0 0.292091 
0 0.292874 0 0.293657 0 0.29444 0 0.295223 0 
0.296006 0 0.296789 0 0.297572 0 0.298356 0 0.299139 
0 0.299922 0 0.300705 0 0.301488 0 0.302271 0 
0.303054 0 0.303837 0 0.30462 0 0.305403 0 0.306186 
0 0.306969 0 0.307753 0 0.308536 0 0.309319 0 
0.310102 0 0.310885 0 0.311668 0 0.312451 0 0.313234 
0 0.314017 0 0.3148 0 0.315583 0 0.316366 0 
0.31715 0 0.317933 0 0.318716 0 0.319499 0 0.320282 
0 0.321065 0 0.321848 0 0.322631 0 0.323414 0 
0.324197 0 0.32498 0 0.325763 0 0.326547 0 0.32733 
0 0.328113 0 0.328896 0 0.329679 0 0.330462 0 
0.331245 0 0.332028 0 0.332811 0 0.333594 0 0.334377 
0 0.335161 0 0.335944 0 0.336727 0 0.33751 0 
0.338293 0 0.339076 0 0.339859 0 0.340642 0 0.341425 
0 0.342208 0 0.342991 0 0.343774 0 0.344558 0 
0.345341 0 0.346124 0 0.346907 0 0.34769 0 0.348473 
0 0.349256 0 0.350039 0 0.350822 0 0.351605 0 
0.352388 0 0.353171 0 0.353955 0 0.354738 0 0.355521 
0 0.356304 0 0.357087 0 0.35787 0 0.358653 0 
0.359436 0 0.360219 0 0.361002 0 0.361785 0 0.362569 
0 0.363352 0 0.364135 0 0.364918 0 0.365701 0 
0.366484 0 0.367267 0 0.36805 0 0.368833 0 0.369616 
0 0.370399 0 0.371182 0 0.371966 0 0.372749 0 
0.373532 0 0.374315 0 0.375098 0 0.375881 0 0.376664 
0 0.377447 0 0.37823 0 0.379013 0 0.379796 0 
0.380579 0 0.381363 0 0.382146 0 0.382929 0 0.383712 
0 0.384495 0 0.385278 0 0.386061 0 0.386844 0 
0.387627 0 0.38841 0 0.389193 0 0.389977 0 0.39076 
0 0.391543 0 0.392326 0 0.393109 0 0.393892 0 
0.394675 0 0.395458 0 0.396241 0 0.397024 0 0.397807 
0 0.39859 0 0.399374 0 0.400157 0 0.40094 0 
0.401723 0 0.402506 0 0.403289 0 0.404072 0 0.404855 
0 0.405638 0 0.406421 0 0.407204 0 0.407987 0 
0.408771 0 0.409554 0 0.410337 0 0.41112 0 0.411903 
0 0.412686 0 0.413469 0 0.414252 0 0.415035 0 
0.415818 0 0.416601 0 0.417385 0 0.418168 0 0.418951 
0 0.419734 0 0.420517 0 0.4213 0 0.422083 0 
0.422866 0 0.423649 0 0.424432 0 0.425215 0 0.425998 
0 0.426782 0 0.427565 0 0.428348 0 0.429131 0 
0.429914 0 0.430697 0 0.43148 0 0.432263 0 0.433046 
0 0.433829 0 0.434612 0 0.435395 0 0.436179 0 
0.436962 0 0.437745 0 0.438528 0 0.439311 0 0.440094 
0 0.440877 0 0.44166 0 0.442443 0 0.443226 0 
0.444009 0 0.444792 0 0.445576 0 0.446359 0 0.447142 
0 0.447925 0 0.448708 0 0.449491 0 0.450274 0 
0.451057 0 0.45184 0 0.452623 0 0.453406 0 0.45419 
0 0.454973 0 0.455756 0 0.456539 0 0.457322 0 
0.458105 0 0.458888 0 0.459671 0 0.460454 0 0.461237 
0 0.46202 0 0.462803 0 0.463587 0 0.46437 0 
0.465153 0 0.465936 0 0.466719 0 0.467502 0 0.468285 
0 0.469068 0 0.469851 0 0.470634 0 0.471417 0 
0.4722 0 0.472984 0 0.473767 0 0.47455 0 0.475333 
0 0.476116 0 0.476899 0 0.477682 0 0.478465 0 
0.479248 0 0.480031 0 0.480814 0 0.481597 0 0.482381 
0 0.483164 0 0.483947 0 0.48473 0 0.485513 0 
0.486296 0 0.487079 0 0.487862 0 0.488645 0 0.489428 
0 0.490211 0 0.490995 0 0.491778 0 0.492561 0 
0.493344 0 0.494127 0 0.49491 0 0.495693 0 0.496476 
0 0.497259 0 0.498042 0 0.498825 0 0.499608 0 
0.500392 0 0.501175 0 0.501958 0 0.502741 0 0.503524 
0 0.504307 0 0.50509 0 0.505873 0 0.506656 0 
0.507439 0 0.508222 0 0.509005 0 0.509789 0 0.510572 
0 0.511355 0 0.512138 0 0.512921 0 0.513704 0 
0.514487 0 0.51527 0 0.516053 0 0.516836 0 0.517619 
0 0.518403 0 0.519186 0 0.519969 0 0.520752 0 
0.521535 0 0.522318 0 0.523101 0 0.523884 0 0.524667 
0 0.52545 0 0.526233 0 0.527016 0 0.5278 0 
0.528583 0 0.529366 0 0.530149 0 0.530932 0 0.531715 
0 0.532498 0 0.533281 0 0.534064 0 0.534847 0 
0.53563 0 0.536413 0 0.537197 0 0.53798 0 0.538763 
0 0.539546 0 0.540329 0 0.541112 0 0.541895 0 
0.542678 0 0.543461 0 0.544244 0 0.545027 0 0.545811 
0 0.546594 0 0.547377 0 0.54816 0 0.548943 0 
0.549726 0 0.550509 0 0.551292 0 0.552075 0 0.552858 
0 0.553641 0 0.554424 0 0.555207 0 0.555991 0 
0.556774 0 0.557557 0 0.55834 0 0.559123 0 0.559906 
0 0.560689 0 0.561472 0 0.562255 0 0.563038 0 
0.563821 0 0.564605 0 0.565388 0 0.566171 0 0.566954 
0 0.567737 0 0.56852 0 0.569303 0 0.570086 0 
0.570869 0 0.571652 0 0.572435 0 0.573218 0 0.574002 
0 0.574785 0 0.575568 0 0.576351 0 0.577134 0 
0.577917 0 0.5787 0 0.579483 0 0.580266 0 0.581049 
0 0.581832 0 0.582615 0 0.583399 0 0.584182 0 
0.584965 0 0.585748 0 0.586531 0 0.587314 0 0.588097 
0 0.58888 0 0.589663 0 0.590446 0 0.591229 0 
0.592013 0 0.592796 0 0.593579 0 0.594362 0 0.595145 
0 0.595928 0 0.596711 0 0.597494 0 0.598277 0 
0.59906 0 0.599843 0 0.600626 0 0.60141 0 0.602193 
0 0.602976 0 0.603759 0 0.604542 0 0.605325 0 
0.606108 0 0.606891 0 0.607674 0 0.608457 0 0.60924 
0 0.610023 0 0.610807 0 0.61159 0 0.612373 0 
0.613156 0 0.613939 0 0.614722 0 0.615505 0 0.616288 
0 0.617071 0 0.617854 0 0.618637 0 0.619421 0 
0.620204 0 0.620987 0 0.62177 0 0.622553 0 0.623336 
0 0.624119 0 0.624902 0 0.625685 0 0.626468 0 
0.627251 0 0.628034 0 0.628818 0 0.629601 0 0.630384 
0 0.631167 0 0.63195 0 0.632733 0 0.633516 0 
0.634299 0 0.635082 0 0.635865 0 0.636648 0 0.637432 
0 0.638215 0 0.638998 0 0.639781 0 0.640564 0 
0.641347 0 0.64213 0 0.642913 0 0.643696 0 0.644479 
0 0.645262 0 0.646045 0 0.646829 0 0.647612 0 
0.648395 0 0.649178 0 0.649961 0 0.650744 0 0.651527 
0 0.65231 0 0.653093 0 0.653876 0 0.654659 0 
0.655442 0 0.656226 0 0.657009 0 0.657792 0 0.658575 
0 0.659358 0 0.660141 0 0.660924 0 0.661707 0 
0.66249 0 0.663273 0 0.664056 0 0.664839 0 0.665623 