# vtk DataFile Version 4.2
vtk output
ASCII
DATASET POLYDATA
POINTS 1277 float
0 0 0 -0.00381454 -0.00165549 -0.000343043 -0.0149109 -0.00652037 -0.00134904 
-0.0327683 -0.0144423 -0.00298329 -0.0568657 -0.0252689 -0.00521109 -0.0866824 -0.0388477 -0.00799775 
-0.121698 -0.0550266 -0.0113086 -0.16139 -0.0736529 -0.0151088 -0.20524 -0.0945745 -0.0193639 
-0.252725 -0.117639 -0.024039 -0.303325 -0.142694 -0.0290994 -0.356519 -0.169587 -0.0345105 
-0.411786 -0.198166 -0.0402376 -0.468606 -0.228278 -0.046246 -0.526457 -0.259771 -0.0525009 
-0.584819 -0.292493 -0.0589676 -0.643171 -0.326291 -0.0656116 -0.700992 -0.361013 -0.072398 
-0.757761 -0.396507 -0.0792922 -0.812957 -0.43262 -0.0862594 -0.866059 -0.469199 -0.093265 
-0.916547 -0.506094 -0.100274 -0.964065 -0.543187 -0.107259 -1.00871 -0.580465 -0.114208 
-1.05067 -0.617933 -0.121113 -1.09011 -0.655593 -0.127966 -1.12722 -0.693449 -0.13476 
-1.16217 -0.731506 -0.141485 -1.19514 -0.769765 -0.148135 -1.22631 -0.808232 -0.154701 
-1.25585 -0.846909 -0.161174 -1.28395 -0.885801 -0.167548 -1.31078 -0.924911 -0.173814 
-1.33651 -0.964242 -0.179963 -1.36134 -1.0038 -0.185989 -1.38543 -1.04358 -0.191882 
-1.40897 -1.0836 -0.197635 -1.43212 -1.12386 -0.20324 -1.45508 -1.16435 -0.208688 
-1.47801 -1.20509 -0.213972 -1.5011 -1.24607 -0.219084 -1.52451 -1.2873 -0.224015 
-1.54832 -1.32878 -0.228761 -1.57249 -1.3705 -0.23332 -1.59698 -1.41245 -0.237688 
-1.62177 -1.45461 -0.241864 -1.64681 -1.49698 -0.245845 -1.67207 -1.53955 -0.249629 
-1.69751 -1.5823 -0.253213 -1.72311 -1.62524 -0.256596 -1.74882 -1.66834 -0.259774 
-1.77461 -1.7116 -0.262746 -1.80044 -1.75501 -0.265509 -1.82628 -1.79855 -0.268061 
-1.8521 -1.84223 -0.270399 -1.87785 -1.88602 -0.272521 -1.90351 -1.92993 -0.274425 
-1.92904 -1.97393 -0.276108 -1.9544 -2.01802 -0.277568 -1.97956 -2.06219 -0.278803 
-2.00448 -2.10643 -0.279811 -2.02913 -2.15073 -0.280588 -2.05348 -2.19509 -0.281134 
-2.07756 -2.23948 -0.281455 -2.10136 -2.28393 -0.281553 -2.12491 -2.32841 -0.281435 
-2.14823 -2.37293 -0.281105 -2.17132 -2.41749 -0.280568 -2.19421 -2.46208 -0.279828 
-2.21692 -2.50669 -0.278892 -2.23945 -2.55133 -0.277762 -2.26183 -2.59599 -0.276446 
-2.28407 -2.64066 -0.274946 -2.30618 -2.68535 -0.273268 -2.32818 -2.73006 -0.271418 
-2.3501 -2.77476 -0.269399 -2.37194 -2.81948 -0.267217 -2.39371 -2.86419 -0.264877 
-2.41545 -2.9089 -0.262382 -2.43716 -2.95361 -0.259739 -2.45885 -2.9983 -0.256953 
-2.48055 -3.04298 -0.254027 -2.50227 -3.08765 -0.250969 -2.524 -3.13231 -0.247805 
-2.54573 -3.17697 -0.244563 -2.56746 -3.22165 -0.241274 -2.58918 -3.26635 -0.237968 
-2.61087 -3.31108 -0.234675 -2.63253 -3.35585 -0.231426 -2.65415 -3.40068 -0.22825 
-2.67572 -3.44557 -0.225179 -2.69722 -3.49054 -0.222241 -2.71865 -3.53558 -0.219467 
-2.74001 -3.58073 -0.216887 -2.76127 -3.62597 -0.214532 -2.78243 -3.67133 -0.212431 
-2.80349 -3.71682 -0.210615 -2.82443 -3.76244 -0.209114 -2.84524 -3.8082 -0.207958 
-2.86591 -3.85412 -0.207177 -2.88644 -3.9002 -0.206801 -2.90681 -3.94646 -0.206861 
-2.92701 -3.9929 -0.207387 -2.94703 -4.03952 -0.208414 -2.96681 -4.08629 -0.209979 
-2.98632 -4.13319 -0.21212 -3.00551 -4.1802 -0.214877 -3.02436 -4.2273 -0.218287 
-3.04281 -4.27446 -0.222388 -3.06084 -4.32165 -0.227218 -3.07839 -4.36887 -0.232816 
-3.09543 -4.41608 -0.239219 -3.11193 -4.46326 -0.246467 -3.12783 -4.51039 -0.254596 
-3.1431 -4.55744 -0.263645 -3.15771 -4.6044 -0.273652 -3.17161 -4.65123 -0.284656 
-3.18475 -4.69793 -0.296694 -3.19711 -4.74446 -0.309804 -3.20864 -4.7908 -0.324026 
-3.21931 -4.83694 -0.339396 -3.22906 -4.88283 -0.355954 -3.23787 -4.92848 -0.373736 
-3.24571 -4.97384 -0.392747 -3.2526 -5.01892 -0.412944 -3.25855 -5.06369 -0.434276 
-3.26357 -5.10815 -0.456694 -3.26768 -5.15228 -0.480151 -3.27089 -5.19606 -0.504596 
-3.27321 -5.23948 -0.529981 -3.27467 -5.28253 -0.556257 -3.27527 -5.32519 -0.583375 
-3.27503 -5.36746 -0.611285 -3.27396 -5.40931 -0.639939 -3.27208 -5.45073 -0.669288 
-3.26939 -5.49171 -0.699282 -3.26593 -5.53223 -0.729873 -3.26169 -5.57229 -0.761012 
-3.25669 -5.61186 -0.79265 -3.25096 -5.65094 -0.824737 -3.24449 -5.68951 -0.857225 
-3.23731 -5.72755 -0.890065 -3.22943 -5.76505 -0.923208 -3.22086 -5.80201 -0.956614 
-3.21163 -5.83844 -0.990266 -3.20174 -5.87436 -1.02415 -3.19123 -5.90978 -1.05826 
-3.18012 -5.94473 -1.09258 -3.16841 -5.97922 -1.12709 -3.15612 -6.01327 -1.16178 
-3.14329 -6.0469 -1.19664 -3.12992 -6.08012 -1.23166 -3.11604 -6.11295 -1.26682 
-3.10166 -6.14541 -1.30211 -3.08681 -6.17752 -1.33752 -3.07149 -6.20929 -1.37303 
-3.05574 -6.24075 -1.40864 -3.03957 -6.27191 -1.44432 -3.023 -6.30278 -1.48007 
-3.00605 -6.33339 -1.51588 -2.98873 -6.36376 -1.55172 -2.97107 -6.39389 -1.58759 
-2.95308 -6.42381 -1.62347 -2.93479 -6.45354 -1.65936 -2.9162 -6.48308 -1.69525 
-2.89731 -6.51242 -1.73113 -2.87813 -6.54158 -1.76701 -2.85866 -6.57055 -1.80288 
-2.8389 -6.59934 -1.83875 -2.81887 -6.62794 -1.8746 -2.79856 -6.65636 -1.91045 
-2.77798 -6.68459 -1.94629 -2.75713 -6.71265 -1.98211 -2.73602 -6.74052 -2.01792 
-2.71465 -6.76822 -2.05371 -2.69302 -6.79575 -2.08949 -2.67114 -6.82309 -2.12525 
-2.64902 -6.85027 -2.16099 -2.62665 -6.87727 -2.1967 -2.60404 -6.9041 -2.2324 
-2.5812 -6.93076 -2.26807 -2.55812 -6.95725 -2.30371 -2.53483 -6.98358 -2.33933 
-2.5113 -7.00974 -2.37492 -2.48756 -7.03573 -2.41048 -2.46361 -7.06157 -2.44601 
-2.43945 -7.08724 -2.48152 -2.41509 -7.11275 -2.517 -2.39052 -7.13811 -2.55246 
-2.36577 -7.16331 -2.58789 -2.34083 -7.18836 -2.6233 -2.3157 -7.21326 -2.65869 
-2.2904 -7.238 -2.69405 -2.26492 -7.2626 -2.7294 -2.23928 -7.28705 -2.76472 
-2.21347 -7.31136 -2.80003 -2.1875 -7.33552 -2.83532 -2.16138 -7.35955 -2.8706 
-2.13512 -7.38343 -2.90586 -2.10871 -7.40717 -2.9411 -2.08216 -7.43078 -2.97633 
-2.05548 -7.45426 -3.01155 -2.02867 -7.4776 -3.04676 -2.00174 -7.50081 -3.08195 
-1.97469 -7.52389 -3.11714 -1.94753 -7.54685 -3.15232 -1.92026 -7.5697 -3.18749 
-1.8929 -7.59242 -3.22265 -1.86544 -7.61504 -3.25782 -1.83789 -7.63755 -3.29298 
-1.81026 -7.65996 -3.32814 -1.78256 -7.68227 -3.36331 -1.75479 -7.70449 -3.39848 
-1.72695 -7.72662 -3.43366 -1.69906 -7.74867 -3.46884 -1.67112 -7.77064 -3.50403 
-1.64313 -7.79254 -3.53924 -1.61511 -7.81436 -3.57446 -1.58705 -7.83612 -3.60969 
-1.55897 -7.85782 -3.64494 -1.53086 -7.87946 -3.68021 -1.50275 -7.90106 -3.7155 
-1.47462 -7.9226 -3.75081 -1.44649 -7.9441 -3.78614 -1.41837 -7.96556 -3.8215 
-1.39025 -7.98699 -3.85689 -1.36215 -8.0084 -3.8923 -1.33407 -8.02978 -3.92773 
-1.30601 -8.05116 -3.96319 -1.27798 -8.07252 -3.99868 -1.24998 -8.09389 -4.0342 
-1.22202 -8.11526 -4.06974 -1.19411 -8.13665 -4.1053 -1.16624 -8.15805 -4.1409 
-1.13843 -8.17948 -4.17652 -1.11068 -8.20094 -4.21216 -1.08299 -8.22245 -4.24784 
-1.05537 -8.24399 -4.28354 -1.02782 -8.26559 -4.31927 -1.00035 -8.28725 -4.35502 
-0.972967 -8.30897 -4.39081 -0.94567 -8.33076 -4.42662 -0.918467 -8.35263 -4.46246 
-0.891361 -8.37458 -4.49832 -0.864359 -8.39662 -4.53422 -0.837463 -8.41875 -4.57014 
-0.810673 -8.44098 -4.60609 -0.783991 -8.46332 -4.64205 -0.757417 -8.48575 -4.67803 
-0.730954 -8.5083 -4.71403 -0.704603 -8.53095 -4.75004 -0.678364 -8.55372 -4.78606 
-0.652239 -8.5766 -4.82208 -0.626229 -8.59961 -4.85811 -0.600336 -8.62274 -4.89414 
-0.57456 -8.64599 -4.93017 -0.548903 -8.66938 -4.96619 -0.523366 -8.6929 -5.00221 
-0.49795 -8.71656 -5.03821 -0.472656 -8.74035 -5.07421 -0.447486 -8.76429 -5.11018 
-0.422441 -8.78838 -5.14614 -0.397521 -8.81262 -5.18208 -0.372729 -8.83701 -5.21799 
-0.348066 -8.86156 -5.25388 -0.323531 -8.88626 -5.28974 -0.299125 -8.91113 -5.32556 
-0.274846 -8.93617 -5.36136 -0.250695 -8.96137 -5.39712 -0.226671 -8.98674 -5.43285 
-0.202774 -9.01229 -5.46854 -0.179002 -9.03802 -5.5042 -0.155356 -9.06392 -5.53981 
-0.131835 -9.09001 -5.57539 -0.108439 -9.11628 -5.61093 -0.0851671 -9.14274 -5.64642 
-0.0620188 -9.16938 -5.68187 -0.0389937 -9.19623 -5.71727 -0.0160915 -9.22326 -5.75263 
0.00668851 -9.2505 -5.78794 0.0293466 -9.27794 -5.8232 0.0518834 -9.30558 -5.85841 
0.0742993 -9.33343 -5.89357 0.0965947 -9.36149 -5.92867 0.11877 -9.38976 -5.96372 
0.140825 -9.41825 -5.99872 0.162759 -9.44696 -6.03364 0.184569 -9.47587 -6.06848 
0.206254 -9.50501 -6.10324 0.227813 -9.53435 -6.13789 0.249243 -9.56392 -6.17243 
0.270543 -9.59369 -6.20684 0.29171 -9.62369 -6.24113 0.312745 -9.65389 -6.27526 
0.333643 -9.68431 -6.30925 0.354405 -9.71495 -6.34306 0.375029 -9.7458 -6.3767 
0.395511 -9.77687 -6.41015 0.415852 -9.80815 -6.44341 0.436049 -9.83965 -6.47645 
0.4561 -9.87136 -6.50927 0.476004 -9.90329 -6.54186 0.495759 -9.93543 -6.57421 
0.515363 -9.96778 -6.60631 0.534815 -10.0004 -6.63814 0.554114 -10.0331 -6.6697 
0.573262 -10.0662 -6.70099 0.592264 -10.0994 -6.73202 0.611125 -10.133 -6.76279 
0.629847 -10.1668 -6.79331 0.648436 -10.201 -6.82359 0.666895 -10.2355 -6.85363 
0.685229 -10.2703 -6.88344 0.703443 -10.3056 -6.91303 0.721539 -10.3412 -6.94239 
0.739523 -10.3772 -6.97155 0.757399 -10.4137 -7.0005 0.77517 -10.4506 -7.02926 
0.792842 -10.488 -7.05782 0.810418 -10.5259 -7.0862 0.827902 -10.5643 -7.1144 
0.845299 -10.6033 -7.14243 0.862613 -10.6428 -7.17029 0.879848 -10.6829 -7.19799 
0.897008 -10.7236 -7.22555 0.914096 -10.7649 -7.25294 0.931091 -10.8068 -7.28009 
0.94796 -10.8493 -7.30683 0.96467 -10.8923 -7.33301 0.981187 -10.9359 -7.35848 
0.997478 -10.9799 -7.38309 1.01351 -11.0243 -7.40668 1.02925 -11.0692 -7.42909 
1.04466 -11.1145 -7.45018 1.05971 -11.1601 -7.46978 1.07437 -11.206 -7.48775 
1.08861 -11.2523 -7.50394 1.10238 -11.2988 -7.51818 1.11566 -11.3455 -7.53032 
1.12841 -11.3924 -7.54022 1.1406 -11.4395 -7.54771 1.1522 -11.4867 -7.55265 
1.16317 -11.534 -7.55488 1.17348 -11.5814 -7.55424 1.1831 -11.6288 -7.55058 
1.19198 -11.6763 -7.54376 1.20014 -11.7236 -7.53377 1.20756 -11.7708 -7.52075 
1.21426 -11.8177 -7.50483 1.22024 -11.8642 -7.48613 1.22551 -11.9102 -7.4648 
1.23009 -11.9555 -7.44097 1.23397 -12 -7.41477 1.23717 -12.0437 -7.38633 
1.23969 -12.0864 -7.35579 1.24154 -12.128 -7.32327 1.24272 -12.1683 -7.28892 
[...]
CELL_DATA 1
FIELD FieldData 2
Length 1 1 double
63.82289472 
Tortuosity 1 1 double
1.008464538 
POINT_DATA 1277
SCALARS MaximumInscribedSphereRadius float
LOOKUP_TABLE default
1.55 1.52911 1.50821 1.48732 1.46642 1.44553 1.42463 1.40374 1.38284 
1.36195 1.34106 1.32016 1.29927 1.27837 1.25748 1.23658 1.21569 1.19479 
1.1739 1.15301 1.13211 1.11266 1.10327 1.09389 1.0845 1.07511 1.06573 
1.05634 1.04695 1.03757 1.02818 1.01879 1.00941 1.00002 0.990634 0.981248 
0.971861 0.962474 0.953088 0.943701 0.934314 0.931791 0.935106 0.938421 0.941736 
0.945051 0.948365 0.95168 0.954995 0.95831 0.961625 0.96494 0.968254 0.971569 
0.974884 0.978199 0.981514 0.984829 0.988143 0.991458 0.994773 0.998979 1.00835 
1.01772 1.02709 1.03646 1.04583 1.05519 1.06456 1.07393 1.0833 1.09267 
1.10204 1.11141 1.12078 1.13015 1.13952 1.14889 1.15826 1.16763 1.177 
1.18637 1.18981 1.19236 1.1949 1.19745 1.19999 1.20254 1.20508 1.20763 
1.21017 1.21272 1.21526 1.21781 1.22035 1.2229 1.22544 1.22799 1.23053 
1.23308 1.23562 1.23817 1.23404 1.22514 1.21625 1.20735 1.19845 1.18956 
1.18066 1.17176 1.16286 1.15397 1.14507 1.13617 1.12728 1.11838 1.10948 
1.10059 1.09169 1.08279 1.0739 1.065 1.05943 1.06033 1.06123 1.06214 
1.06304 1.06394 1.06485 1.06575 1.06666 1.06756 1.06846 1.06937 1.07027 
1.07117 1.07208 1.07298 1.07389 1.07479 1.07569 1.0766 1.07867 1.08662 
1.09458 1.10253 1.11049 1.11844 1.1264 1.13435 1.14231 1.15026 1.15821 
1.16617 1.17412 1.18208 1.19003 1.19799 1.20594 1.2139 1.22185 1.22981 
1.23776 1.23864 1.23878 1.23891 1.23905 1.23918 1.23932 1.23945 1.23959 
1.23972 1.23986 1.23999 1.24013 1.24026 1.2404 1.24053 1.24067 1.2408 
1.24094 1.24107 1.24121 1.24187 1.24286 1.24384 1.24482 1.24581 1.24679 
1.24777 1.24876 1.24974 1.25072 1.2517 1.25269 1.25367 1.25465 1.25564 
1.25662 1.2576 1.25859 1.25957 1.26055 1.2613 1.2616 1.26189 1.26219 
1.26249 1.26278 1.26308 1.26338 1.26367 1.26397 1.26426 1.26456 1.26486 
1.26515 1.26545 1.26575 1.26604 1.26634 1.26663 1.26693 1.26717 1.26648 
1.2658 1.26511 1.26442 1.26373 1.26304 1.26236 1.26167 1.26098 1.26029 
1.25961 1.25892 1.25823 1.25754 1.25686 1.25617 1.25548 1.25479 1.2541 
1.25342 1.25458 1.2563 1.25801 1.25972 1.26144 1.26315 1.26486 1.26658 
1.26829 1.27 1.27172 1.27343 1.27514 1.27686 1.27857 1.28028 1.28199 
1.28371 1.28542 1.28713 1.2932 1.30382 1.31443 1.32505 1.33566 1.34628 
1.35689 1.36751 1.37813 1.38874 1.39936 1.40997 1.42059 1.4312 1.44182 
1.45243 1.46305 1.47366 1.48428 1.4949 1.50652 1.52196 1.5374 1.55284 
1.56829 1.58373 1.59917 1.61461 1.63006 1.6455 1.66094 1.67638 1.69183 
1.70727 1.72271 1.73815 1.7536 1.76904 1.78448 1.79992 1.81537 1.80489 
1.79193 1.77898 1.76603 1.75308 1.74013 1.72718 1.71423 1.70128 1.68833 
1.67537 1.66242 1.64947 1.63652 1.62357 1.61062 1.59767 1.58472 1.57176 
1.55881 1.54376 1.52779 1.51181 1.49583 1.47985 1.46387 1.4479 1.43192 
1.41594 1.39996 1.38398 1.36801 1.35203 1.33605 1.32007 1.30409 1.28812 
1.27214 1.25616 1.24018 1.22869 1.22091 1.21313 1.20535 1.19757 1.18979 
1.18202 1.17424 1.16646 1.15868 1.1509 1.14312 1.13534 1.12756 1.11978 
1.112 1.10422 1.09644 1.08866 1.08088 1.07904 1.07751 1.07598 1.07444 
1.07291 1.07138 1.06985 1.06831 1.06678 1.06525 1.06372 1.06218 1.06065 
1.05912 1.05758 1.05605 1.05452 1.05299 1.05145 1.04992 1.05377 1.06307 
1.07237 1.08167 1.09097 1.10027 1.10957 1.11886 1.12816 1.13746 1.14676 
1.15606 1.16536 1.17466 1.18396 1.19325 1.20255 1.21185 1.22115 1.23045 
1.23742 1.23755 1.23768 1.23781 1.23794 1.23807 1.2382 1.23832 1.23845 
1.23858 1.23871 1.23884 1.23897 1.2391 1.23923 1.23935 1.23948 1.23961 
1.23974 1.23987 1.24 1.24 1.24 1.24 1.24 1.24 1.24 
1.24 1.24 1.24 1.24 1.24 1.24 1.24 1.24 1.24 
1.24 1.24 1.24 1.24 1.24 1.24057 1.24137 1.24216 1.24296 
1.24375 1.24455 1.24535 1.24614 1.24694 1.24773 1.24853 1.24932 1.25012 
1.25092 1.25171 1.25251 1.2533 1.2541 1.25489 1.25569 1.26028 1.26957 
1.27887 1.28817 1.29747 1.30677 1.31607 1.32537 1.33467 1.34397 1.35326 
1.36256 1.37186 1.38116 1.39046 1.39976 1.40906 1.41836 1.42765 1.43695 
1.44462 1.44438 1.44414 1.4439 1.44366 1.44342 1.44318 1.44294 1.4427 
1.44246 1.44222 1.44198 1.44174 1.4415 1.44126 1.44102 1.44078 1.44054 
1.4403 1.44006 1.43983 1.43192 1.42313 1.41433 1.40553 1.39673 1.38793 
1.37913 1.37033 1.36153 1.35274 1.34394 1.33514 1.32634 1.31754 1.30874 
1.29994 1.29115 1.28235 1.27355 1.26475 1.26175 1.26201 1.26227 1.26253 
1.26279 1.26305 1.26331 1.26357 1.26384 1.2641 1.26436 1.26462 1.26488 
1.26514 1.2654 1.26566 1.26592 1.26618 1.26645 1.26671 1.26647 1.26561 
1.26476 1.2639 1.26305 1.26219 1.26134 1.26048 1.25962 1.25877 1.25791 
1.25706 1.2562 1.25535 1.25449 1.25364 1.25278 1.25193 1.25107 1.25022 
1.24954 1.24906 1.24858 1.2481 1.24762 1.24713 1.24665 1.24617 1.24569 
1.24521 1.24472 1.24424 1.24376 1.24328 1.2428 1.24231 1.24183 1.24135 
1.24087 1.24039 1.24087 1.24525 1.24963 1.25402 1.2584 1.26278 1.26716 
1.27154 1.27592 1.2803 1.28468 1.28906 1.29344 1.29782 1.3022 1.30658 
1.31096 1.31535 1.31973 1.32411 1.32849 1.33526 1.34224 1.34921 1.35619 
1.36316 1.37013 1.37711 1.38408 1.39105 1.39803 1.405 1.41197 1.41895 
1.42592 1.43289 1.43987 1.44684 1.45382 1.46079 1.46776 1.46667 1.46106 
1.45545 1.44983 1.44422 1.4386 1.43299 1.42737 1.42176 1.41615 1.41053 
1.40492 1.3993 1.39369 1.38807 1.38246 1.37684 1.37123 1.36562 1.36 
1.35435 1.34862 1.3429 1.33718 1.33145 1.32573 1.32 1.31428 1.30855 
1.30283 1.2971 1.29138 1.28566 1.27993 1.27421 1.26848 1.26276 1.25703 
1.25131 1.24558 1.24054 1.24322 1.2459 1.24859 1.25127 1.25396 1.25664 
1.25933 1.26201 1.26469 1.26738 1.27006 1.27275 1.27543 1.27812 1.2808 
1.28348 1.28617 1.28885 1.29154 1.29422 1.30156 1.31002 1.31847 1.32693 
1.33539 1.34384 1.3523 1.36075 1.36921 1.37766 1.38612 1.39458 1.40303 
1.41149 1.41994 1.4284 1.43685 1.44531 1.45376 1.46222 1.46295 1.45665 
1.45034 1.44404 1.43773 1.43143 1.42512 1.41882 1.41251 1.40621 1.39991 
1.3936 1.3873 1.38099 1.37469 1.36838 1.36208 1.35577 1.34947 1.34316 
1.33724 1.33237 1.32751 1.32264 1.31778 1.31292 1.30805 1.30319 1.29832 
1.29346 1.28859 1.28373 1.27887 1.274 1.26914 1.26427 1.25941 1.25454 
1.24968 1.24481 1.24 1.24 1.24 1.24 1.24 1.24 1.24 
1.24 1.24 1.24 1.24 1.24 1.24 1.24 1.24 1.24 
1.24 1.24 1.24 1.24 1.24 1.24 1.24 1.24 1.24 
1.24 1.24 1.24 1.24 1.24 1.24 1.24 1.24 1.24 
1.24 1.24 1.24 1.24 1.24 1.24 1.24 1.24031 1.24098 
1.24164 1.2423 1.24296 1.24362 1.24429 1.24495 1.24561 1.24627 1.24693 
1.24759 1.24826 1.24892 1.24958 1.25024 1.2509 1.25157 1.25223 1.25289 
1.25469 1.26103 1.26738 1.27372 1.28006 1.28641 1.29275 1.29909 1.30544 
1.31178 1.31812 1.32447 1.33081 1.33716 1.3435 1.34984 1.35619 1.36253 
1.36887 1.37522 1.38156 1.39904 1.41735 1.43566 1.45397 1.47227 1.49058 
1.50889 1.5272 1.54551 1.56382 1.58213 1.60043 1.61874 1.63705 1.65536 
1.67367 1.69198 1.71028 1.72859 1.7469 1.74537 1.73373 1.72209 1.71045 
1.69881 1.68717 1.67553 1.66389 1.65225 1.64061 1.62897 1.61733 1.60569 
1.59405 1.58241 1.57077 1.55913 1.54749 1.53584 1.5242 1.5131 1.50281 
1.49252 1.48223 1.47194 1.46165 1.45137 1.44108 1.43079 1.4205 1.41021 
1.39992 1.38963 1.37935 1.36906 1.35877 1.34848 1.33819 1.3279 1.31762 
1.30827 1.30506 1.30186 1.29866 1.29546 1.29226 1.28905 1.28585 1.28265 
1.27945 1.27625 1.27304 1.26984 1.26664 1.26344 1.26024 1.25703 1.25383 
1.25063 1.24743 1.24423 1.24359 1.24341 1.24322 1.24304 1.24285 1.24267 
1.24248 1.2423 1.24211 1.24193 1.24174 1.24156 1.24137 1.24119 1.241 
1.24082 1.24063 1.24045 1.24026 1.24008 1.24 1.24 1.24 1.24 
1.24 1.24 1.24 1.24 1.24 1.24 1.24 1.24 1.24 
1.24 1.24 1.24 1.24 1.24 1.24 1.24 1.24 1.24 
1.24 1.24 1.24 1.24 1.24 1.24 1.24 1.24 1.24 
1.24 1.24 1.24 1.24 1.24 1.24 1.24 1.24 1.24 
1.24003 1.24154 1.24305 1.24456 1.24607 1.24758 1.24909 1.25059 1.2521 
1.25361 1.25512 1.25663 1.25814 1.25965 1.26116 1.26267 1.26418 1.26569 
1.2672 1.26871 1.27022 1.2776 1.2871 1.2966 1.3061 1.3156 1.3251 
1.3346 1.3441 1.3536 1.3631 1.37259 1.38209 1.39159 1.40109 1.41059 
1.42009 1.42959 1.43909 1.44859 1.45809 1.46806 1.4786 1.48913 1.49967 
1.51021 1.52075 1.53129 1.54183 1.55237 1.56291 1.57345 1.58399 1.59452 
1.60506 1.6156 1.62614 1.63668 1.64722 1.65776 1.6683 1.67748 1.68015 
1.68281 1.68548 1.68815 1.69081 1.69348 1.69614 1.69881 1.70148 1.70414 
1.70681 1.70948 1.71214 1.71481 1.71748 1.72014 1.72281 1.72547 1.72814 
1.73081 1.7161 1.69932 1.68254 1.66577 1.64899 1.63222 1.61544 1.59866 
1.58189 1.56511 1.54834 1.53156 1.51478 1.49801 1.48123 1.46446 1.44768 
1.4309 1.41413 1.39735 1.391 1.39107 1.39114 1.39122 1.39129 1.39137 
1.39144 1.39152 1.39159 1.39167 1.39174 1.39182 1.39189 1.39196 1.39204 
1.39211 1.39219 1.39226 1.39234 1.39241 1.39311 1.39498 1.39685 1.39872 
1.40059 1.40246 1.40433 1.4062 1.40806 1.40993 1.4118 1.41367 1.41554 
1.41741 1.41928 1.42115 1.42301 1.42488 1.42675 1.42862 1.42958 1.42437 
1.41916 1.41394 1.40873 1.40352 1.3983 1.39309 1.38788 1.38266 1.37745 
1.37224 1.36702 1.36181 1.3566 1.35139 1.34617 1.34096 1.33575 1.33053 
1.32532 1.33302 1.34115 1.34928 1.35742 1.36555 1.37368 1.38181 1.38995 
1.39808 1.40621 1.41435 1.42248 1.43061 1.43874 1.44688 1.45501 1.46314 
1.47127 1.47941 1.48754 1.48481 1.47739 1.46998 1.46256 1.45514 1.44773 
1.44031 1.4329 1.42548 1.41806 1.41065 1.40323 1.39581 1.3884 1.38098 
1.37357 1.36615 1.35873 1.35132 1.3439 1.3376 1.33288 1.32816 1.32343 
1.31871 1.31398 1.30926 1.30453 1.29981 1.29508 1.29036 1.28563 1.28091 
1.27618 1.27146 1.26673 1.26201 1.25729 1.25256 1.24784 1.24401 1.24606 
1.24811 1.25015 1.2522 1.25425 1.2563 1.25835 1.26039 1.26244 1.26449 
1.26654 1.26858 1.27063 1.27268 1.27473 1.27677 1.27882 1.28087 1.28292 
1.28496 1.3099 1.33872 1.36754 1.39635 1.42517 1.45399 1.48281 1.51163 
1.54044 1.56926 1.59808 1.6269 1.65572 1.68453 1.71335 1.74217 1.77099 
1.7998 1.82862 1.85744 1.87555 1.8793 1.88305 1.8868 1.89054 1.89429 
1.89804 1.90179 1.90554 1.90929 1.91304 1.91678 1.92053 1.92428 1.92803 
1.93178 1.93553 1.93927 1.94302 1.94677 1.92885 1.90991 1.89096 1.87202 
1.85308 1.83414 1.81519 1.79625 1.77731 1.75837 1.73942 1.72048 1.70154 
1.6826 1.66365 1.64471 1.62577 1.60683 1.58788 1.56894 1.55 
TEXTURE_COORDINATES TCoords 2 float
0 0 0.000783699 0 0.0015674 0 0.0023511 0 0.0031348 
0 0.0039185 0 0.00470219 0 0.00548589 0 0.00626959 0 
0.00705329 0 0.00783699 0 0.00862069 0 0.00940439 0 0.0101881 
0 0.0109718 0 0.0117555 0 0.0125392 0 0.0133229 0 
0.0141066 0 0.0148903 0 0.015674 0 0.0164577 0 0.0172414 
0 0.0180251 0 0.0188088 0 0.0195925 0 0.0203762 0 
0.0211599 0 0.0219436 0 0.0227273 0 0.023511 0 0.0242947 
0 0.0250784 0 0.0258621 0 0.0266458 0 0.0274295 0 
0.0282132 0 0.0289969 0 0.0297806 0 0.0305643 0 0.031348 
0 0.0321317 0 0.0329154 0 0.0336991 0 0.0344828 0 
0.0352665 0 0.0360502 0 0.0368339 0 0.0376176 0 0.0384013 
0 0.039185 0 0.0399687 0 0.0407524 0 0.0415361 0 
0.0423197 0 0.0431034 0 0.0438871 0 0.0446708 0 0.0454545 
0 0.0462382 0 0.0470219 0 0.0478056 0 0.0485893 0 
0.049373 0 0.0501567 0 0.0509404 0 0.0517241 0 0.0525078 
0 0.0532915 0 0.0540752 0 0.0548589 0 0.0556426 0 
0.0564263 0 0.05721 0 0.0579937 0 0.0587774 0 0.0595611 
0 0.0603448 0 0.0611285 0 0.0619122 0 0.0626959 0 
0.0634796 0 0.0642633 0 0.065047 0 0.0658307 0 0.0666144 
0 0.0673981 0 0.0681818 0 0.0689655 0 0.0697492 0 
0.0705329 0 0.0713166 0 0.0721003 0 0.072884 0 0.0736677 
0 0.0744514 0 0.0752351 0 0.0760188 0 0.0768025 0 
0.0775862 0 0.0783699 0 0.0791536 0 0.0799373 0 0.080721 
0 0.0815047 0 0.0822884 0 0.0830721 0 0.0838558 0 
0.0846395 0 0.0854232 0 0.0862069 0 0.0869906 0 0.0877743 
0 0.088558 0 0.0893417 0 0.0901254 0 0.0909091 0 
0.0916928 0 0.0924765 0 0.0932602 0 0.0940439 0 0.0948276 
0 0.0956113 0 0.096395 0 0.0971787 0 0.0979624 0 
0.0987461 0 0.0995298 0 0.100313 0 0.101097 0 0.101881 
0 0.102665 0 0.103448 0 0.104232 0 0.105016 0 
0.105799 0 0.106583 0 0.107367 0 0.10815 0 0.108934 
0 0.109718 0 0.110502 0 0.111285 0 0.112069 0 
0.112853 0 0.113636 0 0.11442 0 0.115204 0 0.115987 
0 0.116771 0 0.117555 0 0.118339 0 0.119122 0 
0.119906 0 0.12069 0 0.121473 0 0.122257 0 0.123041 
0 0.123824 0 0.124608 0 0.125392 0 0.126176 0 
0.126959 0 0.127743 0 0.128527 0 0.12931 0 0.130094 
0 0.130878 0 0.131661 0 0.132445 0 0.133229 0 
0.134013 0 0.134796 0 0.13558 0 0.136364 0 0.137147 
0 0.137931 0 0.138715 0 0.139498 0 0.140282 0 
0.141066 0 0.14185 0 0.142633 0 0.143417 0 0.144201 
0 0.144984 0 0.145768 0 0.146552 0 0.147335 0 
0.148119 0 0.148903 0 0.149687 0 0.15047 0 0.151254 
0 0.152038 0 0.152821 0 0.153605 0 0.154389 0 
0.155172 0 0.155956 0 0.15674 0 0.157524 0 0.158307 
0 0.159091 0 0.159875 0 0.160658 0 0.161442 0 
0.162226 0 0.163009 0 0.163793 0 0.164577 0 0.16536 
0 0.166144 0 0.166928 0 0.167712 0 0.168495 0 
0.169279 0 0.170063 0 0.170846 0 0.17163 0 0.172414 
0 0.173197 0 0.173981 0 0.174765 0 0.175549 0 
0.176332 0 0.177116 0 0.1779 0 0.178683 0 0.179467 
0 0.180251 0 0.181034 0 0.181818 0 0.182602 0 
0.183386 0 0.184169 0 0.184953 0 0.185737 0 0.18652 
0 0.187304 0 0.188088 0 0.188871 0 0.189655 0 
0.190439 0 0.191223 0 0.192006 0 0.19279 0 0.193574 
0 0.194357 0 0.195141 0 0.195925 0 0.196708 0 
0.197492 0 0.198276 0 0.19906 0 0.199843 0 0.200627 
0 0.201411 0 0.202194 0 0.202978 0 0.203762 0 
0.204545 0 0.205329 0 0.206113 0 0.206897 0 0.20768 
0 0.208464 0 0.209248 0 0.210031 0 0.210815 0 
0.211599 0 0.212382 0 0.213166 0 0.21395 0 0.214734 
0 0.215517 0 0.216301 0 0.217085 0 0.217868 0 
0.218652 0 0.219436 0 0.220219 0 0.221003 0 0.221787 
0 0.222571 0 0.223354 0 0.224138 0 0.224922 0 
0.225705 0 0.226489 0 0.227273 0 0.228056 0 0.22884 
0 0.229624 0 0.230408 0 0.231191 0 0.231975 0 
0.232759 0 0.233542 0 0.234326 0 0.23511 0 0.235893 
0 0.236677 0 0.237461 0 0.238245 0 0.239028 0 
0.239812 0 0.240596 0 0.241379 0 0.242163 0 0.242947 
0 0.24373 0 0.244514 0 0.245298 0 0.246082 0 
0.246865 0 0.247649 0 0.248433 0 0.249216 0 0.25 
0 0.250784 0 0.251567 0 0.252351 0 0.253135 0 
0.253918 0 0.254702 0 0.255486 0 0.25627 0 0.257053 
0 0.257837 0 0.258621 0 0.259404 0 0.260188 0 
0.260972 0 0.261755 0 0.262539 0 0.263323 0 0.264107 
0 0.26489 0 0.265674 0 0.266458 0 0.267241 0 
0.268025 0 0.268809 0 0.269592 0 0.270376 0 0.27116 
0 0.271944 0 0.272727 0 0.273511 0 0.274295 0 
0.275078 0 0.275862 0 0.276646 0 0.277429 0 0.278213 
0 0.278997 0 0.279781 0 0.280564 0 0.281348 0 
0.282132 0 0.282915 0 0.283699 0 0.284483 0 0.285266 
0 0.28605 0 0.286834 0 0.287618 0 0.288401 0 
0.289185 0 0.289969 0 0.290752 0 0.291536 0 0.29232 
0 0.293103 0 0.293887 0 0.294671 0 0.295455 0 
0.296238 0 0.297022 0 0.297806 0 0.298589 0 0.299373 
0 0.300157 0 0.30094 0 0.301724 0 0.302508 0 
0.303292 0 0.304075 0 0.304859 0 0.305643 0 0.306426 
0 0.30721 0 0.307994 0 0.308777 0 0.309561 0 
0.310345 0 0.311129 0 0.311912 0 0.312696 0 0.31348 
0 0.314263 0 0.315047 0 0.315831 0 0.316614 0 
0.317398 0 0.318182 0 0.318966 0 0.319749 0 0.320533 
0 0.321317 0 0.3221 0 0.322884 0 0.323668 0 
0.324451 0 0.325235 0 0.326019 0 0.326803 0 0.327586 
0 0.32837 0 0.329154 0 0.329937 0 0.330721 0 
0.331505 0 0.332288 0 0.333072 0 0.333856 0 0.334639 
0 0.335423 0 0.336207 0 0.336991 0 0.337774 0 
0.338558 0 0.339342 0 0.340125 0 0.340909 0 0.341693 
0 0.342476 0 0.34326 0 0.344044 0 0.344828 0 
0.345611 0 0.346395 0 0.347179 0 0.347962 0 0.348746 
0 0.34953 0 0.350313 0 0.351097 0 0.351881 0 
0.352665 0 0.353448 0 0.354232 0 0.355016 0 0.355799 
0 0.356583 0 0.357367 0 0.35815 0 0.358934 0 
0.359718 0 0.360502 0 0.361285 0 0.362069 0 0.362853 
0 0.363636 0 0.36442 0 0.365204 0 0.365987 0 
0.366771 0 0.367555 0 0.368339 0 0.369122 0 0.369906 
0 0.37069 0 0.371473 0 0.372257 0 0.373041 0 
0.373824 0 0.374608 0 0.375392 0 0.376176 0 0.376959 
0 0.377743 0 0.378527 0 0.37931 0 0.380094 0 
0.380878 0 0.381661 0 0.382445 0 0.383229 0 0.384013 
0 0.384796 0 0.38558 0 0.386364 0 0.387147 0 
0.387931 0 0.388715 0 0.389498 0 0.390282 0 0.391066 
0 0.39185 0 0.392633 0 0.393417 0 0.394201 0 
0.394984 0 0.395768 0 0.396552 0 0.397335 0 0.398119 
0 0.398903 0 0.399687 0 0.40047 0 0.401254 0 
0.402038 0 0.402821 0 0.403605 0 0.404389 0 0.405172 
0 0.405956 0 0.40674 0 0.407524 0 0.408307 0 
0.409091 0 0.409875 0 0.410658 0 0.411442 0 0.412226 
0 0.413009 0 0.413793 0 0.414577 0 0.415361 0 
0.416144 0 0.416928 0 0.417712 0 0.418495 0 0.419279 
0 0.420063 0 0.420846 0 0.42163 0 0.422414 0 
0.423197 0 0.423981 0 0.424765 0 0.425549 0 0.426332 
0 0.427116 0 0.4279 0 0.428683 0 0.429467 0 
0.430251 0 0.431034 0 0.431818 0 0.432602 0 0.433386 
0 0.434169 0 0.434953 0 0.435737 0 0.43652 0 
0.437304 0 0.438088 0 0.438871 0 0.439655 0 0.440439 
0 0.441223 0 0.442006 0 0.44279 0 0.443574 0 
0.444357 0 0.445141 0 0.445925 0 0.446708 0 0.447492 
0 0.448276 0 0.44906 0 0.449843 0 0.450627 0 
0.451411 0 0.452194 0 0.452978 0 0.453762 0 0.454545 
0 0.455329 0 0.456113 0 0.456897 0 0.45768 0 
0.458464 0 0.459248 0 0.460031 0 0.460815 0 0.461599 
0 0.462382 0 0.463166 0 0.46395 0 0.464734 0 
0.465517 0 0.466301 0 0.467085 0 0.467868 0 0.468652 
0 0.469436 0 0.470219 0 0.471003 0 0.471787 0 
0.472571 0 0.473354 0 0.474138 0 0.474922 0 0.475705 
0 0.476489 0 0.477273 0 0.478056 0 0.47884 0 
0.479624 0 0.480408 0 0.481191 0 0.481975 0 0.482759 
0 0.483542 0 0.484326 0 0.48511 0 0.485893 0 
0.486677 0 0.487461 0 0.488245 0 0.489028 0 0.489812 
0 0.490596 0 0.491379 0 0.492163 0 0.492947 0 
0.49373 0 0.494514 0 0.495298 0 0.496082 0 0.496865 
0 0.497649 0 0.498433 0 0.499216 0 0.5 0 
0.500784 0 0.501567 0 0.502351 0 0.503135 0 0.503918 
0 0.504702 0 0.505486 0 0.50627 0 0.507053 0 
0.507837 0 0.508621 0 0.509404 0 0.510188 0 0.510972 
0 0.511755 0 0.512539 0 0.513323 0 0.514107 0 
0.51489 0 0.515674 0 0.516458 0 0.517241 0 0.518025 
0 0.518809 0 0.519592 0 0.520376 0 0.52116 0 
0.521944 0 0.522727 0 0.523511 0 0.524295 0 0.525078 
0 0.525862 0 0.526646 0 0.527429 0 0.528213 0 
0.528997 0 0.529781 0 0.530564 0 0.531348 0 0.532132 
0 0.532915 0 0.533699 0 0.534483 0 0.535266 0 
0.53605 0 0.536834 0 0.537618 0 0.538401 0 0.539185 
0 0.539969 0 0.540752 0 0.541536 0 0.54232 0 
0.543103 0 0.543887 0 0.544671 0 0.545455 0 0.546238 
0 0.547022 0 0.547806 0 0.548589 0 0.549373 0 
0.550157 0 0.55094 0 0.551724 0 0.552508 0 0.553292 
0 0.554075 0 0.554859 0 0.555643 0 0.556426 0 
0.55721 0 0.557994 0 0.558777 0 0.559561 0 0.560345 
0 0.561128 0 0.561912 0 0.562696 0 0.56348 0 
0.564263 0 0.565047 0 0.565831 0 0.566614 0 0.567398 
0 0.568182 0 0.568965 0 0.569749 0 0.570533 0 
0.571317 0 0.5721 0 0.572884 0 0.573668 0 0.574451 
0 0.575235 0 0.576019 0 0.576802 0 0.577586 0 
0.57837 0 0.579154 0 0.579937 0 0.580721 0 0.581505 
0 0.582288 0 0.583072 0 0.583856 0 0.584639 0 
0.585423 0 0.586207 0 0.586991 0 0.587774 0 0.588558 
0 0.589342 0 0.590125 0 0.590909 0 0.591693 0 
0.592476 0 0.59326 0 0.594044 0 0.594828 0 0.595611 
0 0.596395 0 0.597179 0 0.597962 0 0.598746 0 
0.59953 0 0.600313 0 0.601097 0 0.601881 0 0.602665 
0 0.603448 0 0.604232 0 0.605016 0 0.605799 0 
0.606583 0 0.607367 0 0.60815 0 0.608934 0 0.609718 
0 0.610502 0 0.611285 0 0.612069 0 0.612853 0 
0.613636 0 0.61442 0 0.615204 0 0.615987 0 0.616771 
0 0.617555 0 0.618339 0 0.619122 0 0.619906 0 
0.62069 0 0.621473 0 0.622257 0 0.623041 0 0.623824 
0 0.624608 0 0.625392 0 0.626176 0 0.626959 0 
0.627743 0 0.628527 0 0.62931 0 0.630094 0 0.630878 
0 0.631661 0 0.632445 0 0.633229 0 0.634013 0 
0.634796 0 0.63558 0 0.636364 0 0.637147 0 0.637931 
0 0.638715 0 0.639498 0 0.640282 0 0.641066 0 
0.64185 0 0.642633 0 0.643417 0 0.644201 0 0.644984 
0 0.645768 0 0.646552 0 0.647335 0 0.648119 0 
0.648903 0 0.649687 0 0.65047 0 0.651254 0 0.652038 
0 0.652821 0 0.653605 0 0.654389 0 0.655172 0 
0.655956 0 0.65674 0 0.657524 0 0.658307 0 0.659091 
0 0.659875 0 0.660658 0 0.661442 0 0.662226 0 
0.663009 0 0.663793 0 0.664577 0 0.665361 0 0.666144 
0 0.666928 0 0.667712 0 0.668495 0 0.669279 0 
0.670063 0 0.670846 0 0.67163 0 0.672414 0 0.673198 
0 0.673981 0 0.674765 0 0.675549 0 0.676332 0 
0.677116 0 0.6779 0 0.678683 0 0.679467 0 0.680251 
0 0.681035 0 0.681818 0 0.682602 0 0.683386 0 