# vtk DataFile Version 4.2
vtk output
ASCII
DATASET POLYDATA
POINTS 1278 float
0 0 0 -0.00356818 7.20791e-05 0.00209796 -0.0139788 0.000291481 0.00820171 
-0.0307912 0.000662951 0.018026 -0.0535644 0.00119124 0.0312857 -0.0818576 0.00188108 0.0476956 
-0.11523 0.00273724 0.0669705 -0.153241 0.00376444 0.0888251 -0.195449 0.00496745 0.112974 
-0.241414 0.00635101 0.139133 -0.290696 0.00791986 0.167015 -0.342852 0.00967874 0.196337 
-0.397443 0.0116324 0.226813 -0.454027 0.0137856 0.258156 -0.512164 0.0161431 0.290084 
-0.571412 0.0187096 0.322309 -0.631332 0.0214899 0.354548 -0.691482 0.0244887 0.386514 
-0.751422 0.0277107 0.417922 -0.81071 0.0311608 0.448488 -0.868906 0.0348436 0.477926 
-0.925574 0.0387638 0.505955 -0.980505 0.0429199 0.532441 -1.0338 0.0473022 0.557456 
-1.08557 0.0519004 0.581085 -1.13594 0.0567042 0.603414 -1.18504 0.0617033 0.624527 
-1.23298 0.0668875 0.64451 -1.27988 0.0722464 0.663448 -1.32586 0.0777697 0.681427 
-1.37105 0.0834471 0.698532 -1.41556 0.0892684 0.714848 -1.45951 0.0952232 0.73046 
-1.50303 0.101301 0.745454 -1.54623 0.107492 0.759916 -1.58923 0.113786 0.773929 
-1.63216 0.120172 0.787581 -1.67513 0.12664 0.800955 -1.71827 0.13318 0.814138 
-1.76169 0.139782 0.827214 -1.80552 0.146434 0.840269 -1.84987 0.153128 0.853384 
-1.89477 0.159857 0.866584 -1.9402 0.166616 0.879847 -1.98611 0.173404 0.893151 
-2.03249 0.180215 0.906475 -2.07929 0.187048 0.919795 -2.1265 0.193898 0.93309 
-2.17406 0.200761 0.946338 -2.22196 0.207635 0.959517 -2.27016 0.214516 0.972603 
-2.31862 0.221401 0.985576 -2.36733 0.228285 0.998413 -2.41624 0.235166 1.01109 
-2.46532 0.24204 1.02359 -2.51454 0.248904 1.03589 -2.56388 0.255753 1.04796 
-2.61329 0.262586 1.05978 -2.66275 0.269397 1.07134 -2.71222 0.276185 1.08261 
-2.76168 0.282944 1.09356 -2.81108 0.289672 1.10418 -2.86042 0.296365 1.11444 
-2.90968 0.303015 1.12437 -2.95889 0.309615 1.13396 -3.00804 0.316157 1.14323 
-3.05714 0.322634 1.15218 -3.1062 0.329038 1.16083 -3.15524 0.335362 1.16919 
-3.20425 0.341599 1.17727 -3.25324 0.34774 1.18508 -3.30222 0.353778 1.19262 
-3.3512 0.359707 1.19991 -3.40019 0.365518 1.20696 -3.44919 0.371203 1.21378 
-3.49821 0.376756 1.22038 -3.54726 0.382169 1.22676 -3.59635 0.387434 1.23295 
-3.64548 0.392544 1.23894 -3.69465 0.397491 1.24476 -3.74389 0.402268 1.2504 
-3.79319 0.406868 1.25589 -3.84257 0.411282 1.26122 -3.89201 0.415505 1.2664 
-3.94152 0.41953 1.27144 -3.9911 0.423351 1.27632 -4.04073 0.426962 1.28106 
-4.09042 0.430356 1.28566 -4.14016 0.433527 1.29011 -4.18994 0.436468 1.29441 
-4.23978 0.439174 1.29857 -4.28965 0.441638 1.30258 -4.33956 0.443855 1.30645 
-4.3895 0.445816 1.31017 -4.43947 0.447517 1.31376 -4.48946 0.448951 1.3172 
-4.53948 0.450112 1.32049 -4.58952 0.450993 1.32365 -4.63956 0.451588 1.32666 
-4.68962 0.451891 1.32954 -4.73969 0.451896 1.33228 -4.78976 0.451596 1.33487 
-4.83983 0.450985 1.33733 -4.88989 0.450057 1.33965 -4.93995 0.448808 1.34184 
-4.98999 0.447231 1.34391 -5.04003 0.445323 1.34586 -5.09005 0.443077 1.3477 
-5.14005 0.440489 1.34943 -5.19002 0.437554 1.35106 -5.23998 0.434265 1.3526 
-5.2899 0.430619 1.35405 -5.3398 0.42661 1.35541 -5.38966 0.422232 1.35669 
-5.43949 0.417481 1.3579 -5.48928 0.412352 1.35905 -5.53902 0.406838 1.36013 
-5.58873 0.400936 1.36116 -5.63838 0.39464 1.36214 -5.68798 0.387944 1.36308 
-5.73753 0.380845 1.36397 -5.78703 0.373335 1.36484 -5.83646 0.365411 1.36567 
-5.88583 0.357069 1.36649 -5.93514 0.34831 1.36729 -5.98437 0.339134 1.36808 
-6.03353 0.32954 1.36886 -6.08261 0.319531 1.36963 -6.1316 0.309105 1.37041 
-6.18051 0.298264 1.3712 -6.22933 0.287007 1.372 -6.27804 0.275336 1.37281 
-6.32666 0.26325 1.37365 -6.37518 0.25075 1.37451 -6.42358 0.237837 1.3754 
-6.47188 0.22451 1.37633 -6.52005 0.210771 1.3773 -6.5681 0.196619 1.37831 
-6.61603 0.182054 1.37937 -6.66383 0.167079 1.38049 -6.71149 0.151692 1.38166 
-6.75902 0.135894 1.3829 -6.8064 0.119685 1.38421 -6.85364 0.103067 1.38559 
-6.90073 0.0860448 1.38705 -6.94767 0.0686221 1.38858 -6.99445 0.0508042 1.3902 
-7.04109 0.032596 1.3919 -7.08757 0.0140023 1.39368 -7.13389 -0.00497192 1.39555 
-7.18005 -0.0243219 1.39751 -7.22605 -0.0440427 1.39956 -7.27189 -0.0641295 1.4017 
-7.31757 -0.0845774 1.40395 -7.36308 -0.105382 1.40629 -7.40843 -0.126537 1.40873 
-7.4536 -0.148039 1.41128 -7.4986 -0.169883 1.41394 -7.54344 -0.192063 1.4167 
-7.58809 -0.214576 1.41958 -7.63258 -0.237415 1.42257 -7.67688 -0.260576 1.42567 
-7.721 -0.284055 1.4289 -7.76495 -0.307846 1.43224 -7.80871 -0.331945 1.43571 
-7.85229 -0.356347 1.43929 -7.89569 -0.381046 1.443 -7.93891 -0.406039 1.44683 
-7.98196 -0.431319 1.45078 -8.02482 -0.456883 1.45485 -8.0675 -0.482726 1.45904 
-8.11001 -0.508842 1.46335 -8.15233 -0.535227 1.46779 -8.19448 -0.561876 1.47234 
-8.23645 -0.588785 1.47701 -8.27825 -0.615947 1.48181 -8.31987 -0.643359 1.48672 
-8.36131 -0.671016 1.49176 -8.40258 -0.698912 1.49691 -8.44367 -0.727044 1.50219 
-8.48458 -0.755405 1.50758 -8.52532 -0.783992 1.5131 -8.56589 -0.812799 1.51873 
-8.60628 -0.841822 1.52449 -8.6465 -0.871056 1.53036 -8.68655 -0.900499 1.53635 
-8.72643 -0.930146 1.54246 -8.76613 -0.959995 1.54869 -8.80567 -0.990042 1.55504 
-8.84503 -1.02028 1.56151 -8.88423 -1.05072 1.56809 -8.92326 -1.08134 1.57479 
-8.96213 -1.11214 1.5816 -9.00083 -1.14313 1.58853 -9.03937 -1.1743 1.59558 
-9.07774 -1.20564 1.60274 -9.11596 -1.23715 1.61001 -9.15401 -1.26883 1.6174 
-9.1919 -1.30067 1.62491 -9.22963 -1.33267 1.63252 -9.2672 -1.36484 1.64025 
-9.30461 -1.39715 1.64809 -9.34187 -1.42962 1.65605 -9.37897 -1.46224 1.66411 
-9.41592 -1.495 1.67229 -9.45271 -1.5279 1.68058 -9.48935 -1.56095 1.68898 
-9.52583 -1.59413 1.69749 -9.56217 -1.62745 1.70611 -9.59835 -1.66091 1.71484 
-9.63438 -1.69449 1.72368 -9.67026 -1.72821 1.73264 -9.706 -1.76206 1.7417 
-9.74158 -1.79604 1.75088 -9.77702 -1.83014 1.76017 -9.81231 -1.86436 1.76957 
-9.84746 -1.89871 1.77908 -9.88246 -1.93317 1.78869 -9.91732 -1.96775 1.79843 
-9.95203 -2.00245 1.80827 -9.98661 -2.03726 1.81822 -10.021 -2.07218 1.82828 
-10.0553 -2.10721 1.83845 -10.0895 -2.14235 1.84874 -10.1235 -2.17759 1.85913 
-10.1574 -2.21294 1.86964 -10.1911 -2.24838 1.88027 -10.2247 -2.28393 1.89101 
-10.2581 -2.31957 1.90187 -10.2914 -2.35531 1.91286 -10.3246 -2.39113 1.92398 
-10.3576 -2.42705 1.93523 -10.3905 -2.46305 1.94661 -10.4232 -2.49914 1.95813 
-10.4558 -2.53531 1.96979 -10.4882 -2.57156 1.98159 -10.5205 -2.60789 1.99353 
-10.5527 -2.64429 2.00563 -10.5847 -2.68076 2.01787 -10.6165 -2.71731 2.03027 
-10.6482 -2.75392 2.04282 -10.6798 -2.7906 2.05553 -10.7112 -2.82734 2.06841 
-10.7424 -2.86415 2.08145 -10.7735 -2.90101 2.09466 -10.8045 -2.93793 2.10804 
-10.8353 -2.97491 2.1216 -10.8659 -3.01194 2.13535 -10.8964 -3.04903 2.14928 
-10.9267 -3.08617 2.1634 -10.9569 -3.12337 2.17772 -10.987 -3.16062 2.19224 
-11.0168 -3.19792 2.20697 -11.0465 -3.23527 2.22191 -11.0761 -3.27268 2.23707 
-11.1055 -3.31013 2.25245 -11.1347 -3.34764 2.26805 -11.1638 -3.38519 2.28389 
-11.1928 -3.42279 2.29997 -11.2215 -3.46044 2.31629 -11.2501 -3.49813 2.33286 
-11.2786 -3.53587 2.34967 -11.3068 -3.57366 2.36675 -11.335 -3.61149 2.38409 
-11.3629 -3.64936 2.40169 -11.3907 -3.68726 2.41958 -11.4183 -3.72517 2.43779 
-11.4457 -3.76307 2.45636 -11.4729 -3.80091 2.47533 -11.4999 -3.83868 2.49473 
-11.5266 -3.87636 2.5146 -11.5531 -3.91391 2.53498 -11.5794 -3.95131 2.5559 
-11.6053 -3.98854 2.57741 -11.631 -4.02557 2.59953 -11.6564 -4.06237 2.62231 
-11.6815 -4.09891 2.64577 -11.7062 -4.13517 2.66997 -11.7306 -4.17113 2.69494 
-11.7547 -4.20676 2.7207 -11.7784 -4.24203 2.74731 -11.8017 -4.27692 2.77479 
-11.8246 -4.3114 2.80319 -11.8471 -4.34544 2.83254 -11.8692 -4.37902 2.86288 
-11.8909 -4.41211 2.89423 -11.9121 -4.44466 2.92656 -11.933 -4.47664 2.95986 
-11.9534 -4.508 2.99409 -11.9734 -4.53871 3.02923 -11.9929 -4.5687 3.06524 
-12.0121 -4.59795 3.1021 -12.0309 -4.62641 3.13979 -12.0492 -4.65404 3.17827 
-12.0671 -4.68079 3.21752 -12.0847 -4.70662 3.25751 -12.1018 -4.73149 3.29821 
-12.1186 -4.75536 3.33959 -12.1349 -4.77818 3.38163 -12.1509 -4.79991 3.4243 
-12.1665 -4.8205 3.46757 -12.1817 -4.83992 3.51142 -12.1965 -4.85813 3.55581 
-12.2109 -4.87507 3.60071 -12.2249 -4.8907 3.64611 -12.2386 -4.90501 3.69197 
-12.2519 -4.91803 3.73826 -12.265 -4.92982 3.78495 -12.2777 -4.94045 3.832 
-12.2903 -4.94999 3.87939 -12.3026 -4.95849 3.92707 -12.3148 -4.96602 3.97503 
-12.3269 -4.97265 4.02321 -12.3389 -4.97843 4.0716 -12.3509 -4.98342 4.12016 
-12.3629 -4.9877 4.16886 -12.3749 -4.99131 4.21766 -12.387 -4.99434 4.26653 
-12.3992 -4.99684 4.31544 -12.4115 -4.99886 4.36436 -12.4241 -5.00049 4.41325 
-12.4368 -5.00177 4.46209 -12.4499 -5.00278 4.51083 -12.4632 -5.00356 4.55945 
-12.4768 -5.0042 4.60791 -12.4909 -5.00475 4.65618 -12.5053 -5.00523 4.70427 
-12.5201 -5.00568 4.75216 -12.5352 -5.00608 4.79989 -12.5507 -5.00647 4.84745 
-12.5665 -5.00684 4.89487 -12.5827 -5.00722 4.94214 -12.5991 -5.00761 4.98929 
-12.6158 -5.00802 5.03632 -12.6329 -5.00847 5.08325 -12.6502 -5.00897 5.13008 
-12.6677 -5.00953 5.17683 -12.6855 -5.01016 5.22351 -12.7036 -5.01088 5.27013 
-12.7218 -5.01169 5.3167 -12.7403 -5.01261 5.36323 -12.7589 -5.01364 5.40974 
-12.7778 -5.01481 5.45623 -12.7968 -5.01612 5.50272 -12.816 -5.01759 5.54921 
-12.8353 -5.01922 5.59572 -12.8547 -5.02103 5.64226 -12.8741 -5.02304 5.68885 
-12.8935 -5.02524 5.73549 -12.9127 -5.02767 5.78219 -12.9317 -5.03033 5.82898 
-12.9503 -5.03323 5.87585 -12.9685 -5.03639 5.92284 -12.9863 -5.03981 5.96993 
-13.0034 -5.04353 6.01716 -13.0198 -5.04754 6.06453 -13.0355 -5.05185 6.11205 
-13.0504 -5.0565 6.15974 -13.0643 -5.06147 6.2076 -13.0771 -5.0668 6.25566 
-13.0889 -5.07249 6.30392 -13.0995 -5.07855 6.3524 -13.1088 -5.085 6.4011 
-13.1167 -5.09186 6.45004 -13.1232 -5.09912 6.49924 -13.1281 -5.10682 6.5487 
-13.1314 -5.11495 6.59843 -13.1331 -5.12351 6.64836 -13.1331 -5.13248 6.69843 
-13.1315 -5.14184 6.74855 -13.1284 -5.15159 6.79864 -13.1236 -5.1617 6.84863 
[...]
CELL_DATA 1
FIELD FieldData 2
Length 1 1 double
63.900337148 
Tortuosity 1 1 double
0.86493874459 
POINT_DATA 1278
SCALARS MaximumInscribedSphereRadius float
LOOKUP_TABLE default
0.93 0.942457 0.954915 0.967372 0.97983 0.992287 1.00474 1.0172 1.02966 
1.04212 1.05457 1.06703 1.07949 1.09195 1.1044 1.11686 1.12932 1.14178 
1.15423 1.16669 1.17915 1.19143 1.20342 1.21542 1.22741 1.23941 1.2514 
1.2634 1.27539 1.28739 1.29938 1.31138 1.32337 1.33537 1.34736 1.35936 
1.37135 1.38334 1.39534 1.40733 1.41933 1.42541 1.42747 1.42954 1.4316 
1.43367 1.43573 1.4378 1.43986 1.44192 1.44399 1.44605 1.44812 1.45018 
1.45225 1.45431 1.45638 1.45844 1.4605 1.46257 1.46463 1.46564 1.45888 
1.45211 1.44535 1.43859 1.43183 1.42506 1.4183 1.41154 1.40478 1.39802 
1.39125 1.38449 1.37773 1.37097 1.3642 1.35744 1.35068 1.34392 1.33715 
1.33039 1.3235 1.3166 1.3097 1.30279 1.29589 1.28899 1.28209 1.27518 
1.26828 1.26138 1.25448 1.24758 1.24067 1.23377 1.22687 1.21997 1.21306 
1.20616 1.19926 1.19236 1.18537 1.17834 1.17131 1.16427 1.15724 1.1502 
1.14317 1.13614 1.1291 1.12207 1.11504 1.108 1.10097 1.09394 1.0869 
1.07987 1.07283 1.0658 1.05877 1.05173 1.04813 1.05112 1.05411 1.0571 
1.06009 1.06308 1.06607 1.06905 1.07204 1.07503 1.07802 1.08101 1.084 
1.08699 1.08997 1.09296 1.09595 1.09894 1.10193 1.10492 1.10898 1.12753 
1.14608 1.16462 1.18317 1.20172 1.22027 1.23882 1.25737 1.27591 1.29446 
1.31301 1.33156 1.35011 1.36865 1.3872 1.40575 1.4243 1.44285 1.4614 
1.47994 1.49864 1.51738 1.53611 1.55484 1.57358 1.59231 1.61105 1.62978 
1.64852 1.66725 1.68598 1.70472 1.72345 1.74219 1.76092 1.77966 1.79839 
1.81712 1.83586 1.85459 1.86267 1.86091 1.85915 1.85738 1.85562 1.85386 
1.85209 1.85033 1.84857 1.84681 1.84504 1.84328 1.84152 1.83975 1.83799 
1.83623 1.83446 1.8327 1.83094 1.82917 1.82573 1.81707 1.80842 1.79976 
1.7911 1.78244 1.77378 1.76512 1.75646 1.7478 1.73914 1.73049 1.72183 
1.71317 1.70451 1.69585 1.68719 1.67853 1.66987 1.66121 1.65256 1.64791 
1.64341 1.6389 1.63439 1.62988 1.62538 1.62087 1.61636 1.61186 1.60735 
1.60284 1.59834 1.59383 1.58932 1.58482 1.58031 1.5758 1.57129 1.56679 
1.56228 1.56113 1.56148 1.56184 1.5622 1.56255 1.56291 1.56327 1.56362 
1.56398 1.56433 1.56469 1.56505 1.5654 1.56576 1.56612 1.56647 1.56683 
1.56719 1.56754 1.5679 1.56523 1.55825 1.55127 1.54429 1.53731 1.53033 
1.52335 1.51637 1.50939 1.50242 1.49544 1.48846 1.48148 1.4745 1.46752 
1.46054 1.45356 1.44658 1.4396 1.43262 1.42342 1.40027 1.37711 1.35395 
1.3308 1.30764 1.28448 1.26133 1.23817 1.21501 1.19185 1.1687 1.14554 
1.12238 1.09923 1.07607 1.05291 1.02976 1.0066 0.983443 0.960286 0.948718 
0.937386 0.926054 0.914722 0.90339 0.892057 0.880725 0.869393 0.858061 0.846729 
0.835396 0.824064 0.812732 0.8014 0.790067 0.778735 0.767403 0.756071 0.744739 
0.733406 0.730445 0.732728 0.735011 0.737294 0.739577 0.74186 0.744143 0.746426 
0.748709 0.750992 0.753275 0.755558 0.757841 0.760124 0.762407 0.76469 0.766973 
0.769256 0.771539 0.773822 0.778019 0.784828 0.791637 0.798446 0.805255 0.812065 
0.818874 0.825683 0.832492 0.839301 0.84611 0.852919 0.859728 0.866537 0.873346 
0.880155 0.886964 0.893773 0.900582 0.907391 0.9142 0.915923 0.917049 0.918175 
0.919301 0.920427 0.921553 0.922679 0.923804 0.92493 0.926056 0.927182 0.928308 
0.929434 0.93056 0.931686 0.932812 0.933938 0.935064 0.93619 0.937295 0.938329 
0.939363 0.940398 0.941432 0.942466 0.9435 0.944534 0.945568 0.946603 0.947637 
0.948671 0.949705 0.950739 0.951774 0.952808 0.953842 0.954876 0.95591 0.956945 
0.957979 0.960075 0.962559 0.965043 0.967527 0.970011 0.972495 0.974979 0.977463 
0.979947 0.982431 0.984915 0.987399 0.989883 0.992367 0.99485 0.997334 0.999818 
1.0023 1.00479 1.00727 1.01095 1.01584 1.02074 1.02563 1.03052 1.03542 
1.04031 1.04521 1.0501 1.05499 1.05989 1.06478 1.06967 1.07457 1.07946 
1.08435 1.08925 1.09414 1.09903 1.10393 1.10897 1.1146 1.12022 1.12584 
1.13146 1.13708 1.1427 1.14832 1.15395 1.15957 1.16519 1.17081 1.17643 
1.18205 1.18767 1.19329 1.19892 1.20454 1.21016 1.21578 1.2214 1.2232 
1.22478 1.22635 1.22793 1.2295 1.23107 1.23265 1.23422 1.2358 1.23737 
1.23894 1.24052 1.24209 1.24367 1.24524 1.24681 1.24839 1.24996 1.25153 
1.25311 1.25419 1.25503 1.25587 1.25671 1.25755 1.2584 1.25924 1.26008 
1.26092 1.26176 1.2626 1.26345 1.26429 1.26513 1.26597 1.26681 1.26765 
1.2685 1.26934 1.27018 1.27353 1.28058 1.28763 1.29468 1.30173 1.30878 
1.31583 1.32288 1.32993 1.33698 1.34403 1.35108 1.35813 1.36518 1.37223 
1.37928 1.38633 1.39338 1.40043 1.40748 1.41523 1.42754 1.43986 1.45218 
1.4645 1.47682 1.48914 1.50146 1.51378 1.52609 1.53841 1.55073 1.56305 
1.57537 1.58769 1.60001 1.61232 1.62464 1.63696 1.64928 1.6616 1.67157 
1.68115 1.69073 1.70031 1.70989 1.71947 1.72905 1.73864 1.74822 1.7578 
1.76738 1.77696 1.78654 1.79612 1.8057 1.81528 1.82486 1.83444 1.84402 
1.8536 1.85766 1.85778 1.8579 1.85802 1.85813 1.85825 1.85837 1.85849 
1.85861 1.85873 1.85885 1.85897 1.85909 1.85921 1.85932 1.85944 1.85956 
1.85968 1.8598 1.85992 1.86 1.86 1.86 1.86 1.86 1.86 
1.86 1.86 1.86 1.86 1.86 1.86 1.86 1.86 1.86 
1.86 1.86 1.86 1.86 1.86 1.86 1.86 1.86 1.86 
1.86 1.86 1.86 1.86 1.86 1.86 1.86 1.86 1.86 
1.86 1.86 1.86 1.86 1.86 1.86 1.86 1.86 1.86005 
1.86011 1.86018 1.86024 1.86031 1.86037 1.86044 1.8605 1.86057 1.86063 
1.8607 1.86076 1.86082 1.86089 1.86095 1.86102 1.86108 1.86115 1.86121 
1.86128 1.8633 1.86736 1.87143 1.87549 1.87955 1.88361 1.88767 1.89173 
1.89579 1.89986 1.90392 1.90798 1.91204 1.9161 1.92016 1.92423 1.92829 
1.93235 1.93641 1.94047 1.94524 1.95262 1.95999 1.96737 1.97474 1.98211 
1.98949 1.99686 2.00424 2.01161 2.01898 2.02636 2.03373 2.0411 2.04848 
2.05585 2.06323 2.0706 2.07797 2.08535 2.09272 2.09176 2.09023 2.08869 
2.08715 2.08562 2.08408 2.08254 2.08101 2.07947 2.07793 2.07639 2.07486 
2.07332 2.07178 2.07025 2.06871 2.06717 2.06564 2.0641 2.06256 2.05675 
2.04873 2.04072 2.0327 2.02468 2.01666 2.00865 2.00063 1.99261 1.9846 
1.97658 1.96856 1.96054 1.95253 1.94451 1.93649 1.92847 1.92046 1.91244 
1.90442 1.89376 1.87944 1.86512 1.8508 1.83647 1.82215 1.80783 1.79351 
1.77919 1.76487 1.75055 1.73623 1.7219 1.70758 1.69326 1.67894 1.66462 
1.6503 1.63598 1.62166 1.60728 1.59258 1.57788 1.56317 1.54847 1.53377 
1.51907 1.50436 1.48966 1.47496 1.46026 1.44556 1.43085 1.41615 1.40145 
1.38675 1.37204 1.35734 1.34264 1.32794 1.31323 1.30818 1.30467 1.30116 
1.29765 1.29413 1.29062 1.28711 1.2836 1.28008 1.27657 1.27306 1.26955 
1.26604 1.26252 1.25901 1.2555 1.25199 1.24848 1.24496 1.24145 1.24021 
1.24057 1.24093 1.24129 1.24165 1.24201 1.24237 1.24273 1.24308 1.24344 
1.2438 1.24416 1.24452 1.24488 1.24524 1.2456 1.24596 1.24632 1.24668 
1.24704 1.24805 1.25046 1.25286 1.25526 1.25767 1.26007 1.26248 1.26488 
1.26729 1.26969 1.27209 1.2745 1.2769 1.27931 1.28171 1.28411 1.28652 
1.28892 1.29133 1.29373 1.29612 1.29825 1.30038 1.30251 1.30464 1.30677 
1.30891 1.31104 1.31317 1.3153 1.31743 1.31956 1.32169 1.32382 1.32595 
1.32808 1.33021 1.33234 1.33447 1.33661 1.33874 1.33571 1.33126 1.3268 
1.32234 1.31788 1.31342 1.30897 1.30451 1.30005 1.29559 1.29114 1.28668 
1.28222 1.27776 1.27331 1.26885 1.26439 1.25993 1.25548 1.25102 1.24389 
1.23415 1.22441 1.21467 1.20493 1.19519 1.18545 1.17571 1.16598 1.15624 
1.1465 1.13676 1.12702 1.11728 1.10754 1.0978 1.08807 1.07833 1.06859 
1.05885 1.05143 1.05182 1.05221 1.0526 1.05299 1.05337 1.05376 1.05415 
1.05454 1.05493 1.05532 1.05571 1.0561 1.05649 1.05688 1.05727 1.05765 
1.05804 1.05843 1.05882 1.05921 1.06999 1.08129 1.09259 1.1039 1.1152 
1.1265 1.1378 1.14911 1.16041 1.17171 1.18302 1.19432 1.20562 1.21692 
1.22823 1.23953 1.25083 1.26214 1.27344 1.28474 1.2959 1.30698 1.31806 
1.32914 1.34023 1.35131 1.36239 1.37347 1.38456 1.39564 1.40672 1.4178 
1.42888 1.43997 1.45105 1.46213 1.47321 1.4843 1.49538 1.50646 1.51488 
1.51926 1.52365 1.52803 1.53241 1.5368 1.54118 1.54556 1.54995 1.55433 
1.55871 1.5631 1.56748 1.57186 1.57625 1.58063 1.58501 1.5894 1.59378 
1.59816 1.60233 1.6049 1.60747 1.61005 1.61262 1.61519 1.61776 1.62034 
1.62291 1.62548 1.62805 1.63063 1.6332 1.63577 1.63834 1.64091 1.64349 
1.64606 1.64863 1.6512 1.65378 1.65771 1.66189 1.66607 1.67026 1.67444 
1.67862 1.68281 1.68699 1.69117 1.69535 1.69954 1.70372 1.7079 1.71209 
1.71627 1.72045 1.72464 1.72882 1.733 1.73719 1.74171 1.7465 1.75128 
1.75607 1.76085 1.76564 1.77042 1.77521 1.77999 1.78478 1.78956 1.79435 
1.79913 1.80392 1.80871 1.81349 1.81828 1.82306 1.82785 1.83263 1.83832 
1.8462 1.85409 1.86197 1.86985 1.87774 1.88562 1.89351 1.90139 1.90928 
1.91716 1.92504 1.93293 1.94081 1.9487 1.95658 1.96446 1.97235 1.98023 
1.98812 1.99606 2.00827 2.02048 2.03269 2.0449 2.05711 2.06932 2.08153 
2.09374 2.10595 2.11816 2.13037 2.14257 2.15478 2.16699 2.1792 2.19141 
2.20362 2.21583 2.22804 2.24025 2.24966 2.25807 2.26648 2.27488 2.28329 
2.2917 2.3001 2.30851 2.31692 2.32532 2.33373 2.34214 2.35054 2.35895 
2.36736 2.37576 2.38417 2.39258 2.40098 2.40939 2.41238 2.40897 2.40556 
2.40216 2.39875 2.39534 2.39194 2.38853 2.38512 2.38172 2.37831 2.3749 
2.3715 2.36809 2.36468 2.36127 2.35787 2.35446 2.35105 2.34765 2.34389 
2.33859 2.33328 2.32797 2.32266 2.31735 2.31205 2.30674 2.30143 2.29612 
2.29081 2.2855 2.2802 2.27489 2.26958 2.26427 2.25896 2.25366 2.24835 
2.24304 2.23773 2.23865 2.24021 2.24177 2.24332 2.24488 2.24644 2.24799 
2.24955 2.25111 2.25266 2.25422 2.25578 2.25733 2.25889 2.26045 2.262 
2.26356 2.26512 2.26667 2.26823 2.27331 2.28043 2.28755 2.29466 2.30178 
2.3089 2.31601 2.32313 2.33025 2.33736 2.34448 2.3516 2.35871 2.36583 
2.37295 2.38006 2.38718 2.3943 2.40141 2.40853 2.41498 2.42028 2.42558 
2.43088 2.43617 2.44147 2.44677 2.45207 2.45737 2.46267 2.46797 2.47327 
2.47857 2.48386 2.48916 2.49446 2.49976 2.50506 2.51036 2.51566 2.52084 
2.52476 2.52868 2.53261 2.53653 2.54045 2.54438 2.5483 2.55222 2.55615 
2.56007 2.56399 2.56791 2.57184 2.57576 2.57968 2.58361 2.58753 2.59145 
2.59538 2.5993 2.60026 2.60078 2.60129 2.6018 2.60231 2.60282 2.60333 
2.60385 2.60436 2.60487 2.60538 2.60589 2.6064 2.60692 2.60743 2.60794 
2.60845 2.60896 2.60947 2.60999 2.60901 2.60587 2.60272 2.59958 2.59643 
2.59329 2.59015 2.587 2.58386 2.58071 2.57757 2.57443 2.57128 2.56814 
2.56499 2.56185 2.55871 2.55556 2.55242 2.54927 2.54603 2.54273 2.53943 
2.53613 2.53283 2.52952 2.52622 2.52292 2.51962 2.51632 2.51302 2.50971 
2.50641 2.50311 2.49981 2.49651 2.49321 2.4899 2.4866 2.4833 2.48 

TEXTURE_COORDINATES TCoords 2 float
0 0 0.000783085 0 0.00156617 0 0.00234926 0 0.00313234 
0 0.00391543 0 0.00469851 0 0.0054816 0 0.00626468 0 
0.00704777 0 0.00783085 0 0.00861394 0 0.00939702 0 0.0101801 
0 0.0109632 0 0.0117463 0 0.0125294 0 0.0133125 0 
0.0140955 0 0.0148786 0 0.0156617 0 0.0164448 0 0.0172279 
0 0.018011 0 0.018794 0 0.0195771 0 0.0203602 0 
0.0211433 0 0.0219264 0 0.0227095 0 0.0234926 0 0.0242756 
0 0.0250587 0 0.0258418 0 0.0266249 0 0.027408 0 
0.0281911 0 0.0289742 0 0.0297572 0 0.0305403 0 0.0313234 
0 0.0321065 0 0.0328896 0 0.0336727 0 0.0344558 0 
0.0352388 0 0.0360219 0 0.036805 0 0.0375881 0 0.0383712 
0 0.0391543 0 0.0399374 0 0.0407204 0 0.0415035 0 
0.0422866 0 0.0430697 0 0.0438528 0 0.0446359 0 0.045419 
0 0.046202 0 0.0469851 0 0.0477682 0 0.0485513 0 
0.0493344 0 0.0501175 0 0.0509005 0 0.0516836 0 0.0524667 
0 0.0532498 0 0.0540329 0 0.054816 0 0.0555991 0 
0.0563821 0 0.0571652 0 0.0579483 0 0.0587314 0 0.0595145 
0 0.0602976 0 0.0610807 0 0.0618637 0 0.0626468 0 
0.0634299 0 0.064213 0 0.0649961 0 0.0657792 0 0.0665623 
0 0.0673453 0 0.0681284 0 0.0689115 0 0.0696946 0 
0.0704777 0 0.0712608 0 0.0720439 0 0.0728269 0 0.07361 
0 0.0743931 0 0.0751762 0 0.0759593 0 0.0767424 0 
0.0775255 0 0.0783085 0 0.0790916 0 0.0798747 0 0.0806578 
0 0.0814409 0 0.082224 0 0.083007 0 0.0837901 0 
0.0845732 0 0.0853563 0 0.0861394 0 0.0869225 0 0.0877056 
0 0.0884886 0 0.0892717 0 0.0900548 0 0.0908379 0 
0.091621 0 0.0924041 0 0.0931872 0 0.0939702 0 0.0947533 
0 0.0955364 0 0.0963195 0 0.0971026 0 0.0978857 0 
0.0986688 0 0.0994518 0 0.100235 0 0.101018 0 0.101801 
0 0.102584 0 0.103367 0 0.10415 0 0.104933 0 
0.105717 0 0.1065 0 0.107283 0 0.108066 0 0.108849 
0 0.109632 0 0.110415 0 0.111198 0 0.111981 0 
0.112764 0 0.113547 0 0.11433 0 0.115114 0 0.115897 
0 0.11668 0 0.117463 0 0.118246 0 0.119029 0 
0.119812 0 0.120595 0 0.121378 0 0.122161 0 0.122944 
0 0.123727 0 0.124511 0 0.125294 0 0.126077 0 
0.12686 0 0.127643 0 0.128426 0 0.129209 0 0.129992 
0 0.130775 0 0.131558 0 0.132341 0 0.133125 0 
0.133908 0 0.134691 0 0.135474 0 0.136257 0 0.13704 
0 0.137823 0 0.138606 0 0.139389 0 0.140172 0 
0.140955 0 0.141738 0 0.142522 0 0.143305 0 0.144088 
0 0.144871 0 0.145654 0 0.146437 0 0.14722 0 
0.148003 0 0.148786 0 0.149569 0 0.150352 0 0.151135 
0 0.151919 0 0.152702 0 0.153485 0 0.154268 0 
0.155051 0 0.155834 0 0.156617 0 0.1574 0 0.158183 
0 0.158966 0 0.159749 0 0.160533 0 0.161316 0 
0.162099 0 0.162882 0 0.163665 0 0.164448 0 0.165231 
0 0.166014 0 0.166797 0 0.16758 0 0.168363 0 
0.169146 0 0.16993 0 0.170713 0 0.171496 0 0.172279 
0 0.173062 0 0.173845 0 0.174628 0 0.175411 0 
0.176194 0 0.176977 0 0.17776 0 0.178543 0 0.179327 
0 0.18011 0 0.180893 0 0.181676 0 0.182459 0 
0.183242 0 0.184025 0 0.184808 0 0.185591 0 0.186374 
0 0.187157 0 0.18794 0 0.188724 0 0.189507 0 
0.19029 0 0.191073 0 0.191856 0 0.192639 0 0.193422 
0 0.194205 0 0.194988 0 0.195771 0 0.196554 0 
0.197338 0 0.198121 0 0.198904 0 0.199687 0 0.20047 
0 0.201253 0 0.202036 0 0.202819 0 0.203602 0 
0.204385 0 0.205168 0 0.205951 0 0.206735 0 0.207518 
0 0.208301 0 0.209084 0 0.209867 0 0.21065 0 
0.211433 0 0.212216 0 0.212999 0 0.213782 0 0.214565 
0 0.215348 0 0.216132 0 0.216915 0 0.217698 0 
0.218481 0 0.219264 0 0.220047 0 0.22083 0 0.221613 
0 0.222396 0 0.223179 0 0.223962 0 0.224745 0 
0.225529 0 0.226312 0 0.227095 0 0.227878 0 0.228661 
0 0.229444 0 0.230227 0 0.23101 0 0.231793 0 
0.232576 0 0.233359 0 0.234143 0 0.234926 0 0.235709 
0 0.236492 0 0.237275 0 0.238058 0 0.238841 0 
0.239624 0 0.240407 0 0.24119 0 0.241973 0 0.242756 
0 0.24354 0 0.244323 0 0.245106 0 0.245889 0 
0.246672 0 0.247455 0 0.248238 0 0.249021 0 0.249804 
0 0.250587 0 0.25137 0 0.252153 0 0.252937 0 
0.25372 0 0.254503 0 0.255286 0 0.256069 0 0.256852 
0 0.257635 0 0.258418 0 0.259201 0 0.259984 0 
0.260767 0 0.261551 0 0.262334 0 0.263117 0 0.2639 
0 0.264683 0 0.265466 0 0.266249 0 0.267032 0 
0.267815 0 0.268598 0 0.269381 0 0.270164 0 0.270948 
0 0.271731 0 0.272514 0 0.273297 0 0.27408 0 
0.274863 0 0.275646 0 0.276429 0 0.277212 0 0.277995 
0 0.278778 0 0.279561 0 0.280345 0 0.281128 0 
0.281911 0 0.282694 0 0.283477 0 0.28426 0 0.285043 
0 0.285826 0 0.286609 0 0.287392 0 0.288175 0 
0.288958 0 0.289742 0 0.290525 0 0.291308 0 0.292091 
0 0.292874 0 0.293657 0 0.29444 0 0.295223 0 
0.296006 0 0.296789 0 0.297572 0 0.298356 0 0.299139 
0 0.299922 0 0.300705 0 0.301488 0 0.302271 0 
0.303054 0 0.303837 0 0.30462 0 0.305403 0 0.306186 
0 0.306969 0 0.307753 0 0.308536 0 0.309319 0 
0.310102 0 0.310885 0 0.311668 0 0.312451 0 0.313234 
0 0.314017 0 0.3148 0 0.315583 0 0.316366 0 
0.31715 0 0.317933 0 0.318716 0 0.319499 0 0.320282 
0 0.321065 0 0.321848 0 0.322631 0 0.323414 0 
0.324197 0 0.32498 0 0.325763 0 0.326547 0 0.32733 
0 0.328113 0 0.328896 0 0.329679 0 0.330462 0 
0.331245 0 0.332028 0 0.332811 0 0.333594 0 0.334377 
0 0.335161 0 0.335944 0 0.336727 0 0.33751 0 
0.338293 0 0.339076 0 0.339859 0 0.340642 0 0.341425 
0 0.342208 0 0.342991 0 0.343774 0 0.344558 0 
0.345341 0 0.346124 0 0.346907 0 0.34769 0 0.348473 
0 0.349256 0 0.350039 0 0.350822 0 0.351605 0 
0.352388 0 0.353171 0 0.353955 0 0.354738 0 0.355521 
0 0.356304 0 0.357087 0 0.35787 0 0.358653 0 
0.359436 0 0.360219 0 0.361002 0 0.361785 0 0.362569 
0 0.363352 0 0.364135 0 0.364918 0 0.365701 0 
0.366484 0 0.367267 0 0.36805 0 0.368833 0 0.369616 
0 0.370399 0 0.371182 0 0.371966 0 0.372749 0 
0.373532 0 0.374315 0 0.375098 0 0.375881 0 0.376664 
0 0.377447 0 0.37823 0 0.379013 0 0.379796 0 
0.380579 0 0.381363 0 0.382146 0 0.382929 0 0.383712 
0 0.384495 0 0.385278 0 0.386061 0 0.386844 0 
0.387627 0 0.38841 0 0.389193 0 0.389977 0 0.39076 
0 0.391543 0 0.392326 0 0.393109 0 0.393892 0 
0.394675 0 0.395458 0 0.396241 0 0.397024 0 0.397807 
0 0.39859 0 0.399374 0 0.400157 0 0.40094 0 
0.401723 0 0.402506 0 0.403289 0 0.404072 0 0.404855 
0 0.405638 0 0.406421 0 0.407204 0 0.407987 0 
0.408771 0 0.409554 0 0.410337 0 0.41112 0 0.411903 
0 0.412686 0 0.413469 0 0.414252 0 0.415035 0 
0.415818 0 0.416601 0 0.417385 0 0.418168 0 0.418951 
0 0.419734 0 0.420517 0 0.4213 0 0.422083 0 
0.422866 0 0.423649 0 0.424432 0 0.425215 0 0.425998 
0 0.426782 0 0.427565 0 0.428348 0 0.429131 0 
0.429914 0 0.430697 0 0.43148 0 0.432263 0 0.433046 
0 0.433829 0 0.434612 0 0.435395 0 0.436179 0 
0.436962 0 0.437745 0 0.438528 0 0.439311 0 0.440094 
0 0.440877 0 0.44166 0 0.442443 0 0.443226 0 
0.444009 0 0.444792 0 0.445576 0 0.446359 0 0.447142 
0 0.447925 0 0.448708 0 0.449491 0 0.450274 0 
0.451057 0 0.45184 0 0.452623 0 0.453406 0 0.45419 
0 0.454973 0 0.455756 0 0.456539 0 0.457322 0 
0.458105 0 0.458888 0 0.459671 0 0.460454 0 0.461237 
0 0.46202 0 0.462803 0 0.463587 0 0.46437 0 
0.465153 0 0.465936 0 0.466719 0 0.467502 0 0.468285 
0 0.469068 0 0.469851 0 0.470634 0 0.471417 0 
0.4722 0 0.472984 0 0.473767 0 0.47455 0 0.475333 
0 0.476116 0 0.476899 0 0.477682 0 0.478465 0 
0.479248 0 0.480031 0 0.480814 0 0.481597 0 0.482381 
0 0.483164 0 0.483947 0 0.48473 0 0.485513 0 
0.486296 0 0.487079 0 0.487862 0 0.488645 0 0.489428 
0 0.490211 0 0.490995 0 0.491778 0 0.492561 0 
0.493344 0 0.494127 0 0.49491 0 0.495693 0 0.496476 
0 0.497259 0 0.498042 0 0.498825 0 0.499608 0 
0.500392 0 0.501175 0 0.501958 0 0.502741 0 0.503524 
0 0.504307 0 0.50509 0 0.505873 0 0.506656 0 
0.507439 0 0.508222 0 0.509005 0 0.509789 0 0.510572 
0 0.511355 0 0.512138 0 0.512921 0 0.513704 0 
0.514487 0 0.51527 0 0.516053 0 0.516836 0 0.517619 
0 0.518403 0 0.519186 0 0.519969 0 0.520752 0 
0.521535 0 0.522318 0 0.523101 0 0.523884 0 0.524667 
0 0.52545 0 0.526233 0 0.527016 0 0.5278 0 
0.528583 0 0.529366 0 0.530149 0 0.530932 0 0.531715 
0 0.532498 0 0.533281 0 0.534064 0 0.534847 0 
0.53563 0 0.536413 0 0.537197 0 0.53798 0 0.538763 
0 0.539546 0 0.540329 0 0.541112 0 0.541895 0 
0.542678 0 0.543461 0 0.544244 0 0.545027 0 0.545811 
0 0.546594 0 0.547377 0 0.54816 0 0.548943 0 
0.549726 0 0.550509 0 0.551292 0 0.552075 0 0.552858 
0 0.553641 0 0.554424 0 0.555207 0 0.555991 0 
0.556774 0 0.557557 0 0.55834 0 0.559123 0 0.559906 
0 0.560689 0 0.561472 0 0.562255 0 0.563038 0 
0.563821 0 0.564605 0 0.565388 0 0.566171 0 0.566954 
0 0.567737 0 0.56852 0 0.569303 0 0.570086 0 
0.570869 0 0.571652 0 0.572435 0 0.573218 0 0.574002 
0 0.574785 0 0.575568 0 0.576351 0 0.577134 0 
0.577917 0 0.5787 0 0.579483 0 0.580266 0 0.581049 
0 0.581832 0 0.582615 0 0.583399 0 0.584182 0 
0.584965 0 0.585748 0 0.586531 0 0.587314 0 0.588097 
0 0.58888 0 0.589663 0 0.590446 0 0.591229 0 
0.592013 0 0.592796 0 0.593579 0 0.594362 0 0.595145 
0 0.595928 0 0.596711 0 0.597494 0 0.598277 0 
0.59906 0 0.599843 0 0.600626 0 0.60141 0 0.602193 
0 0.602976 0 0.603759 0 0.604542 0 0.605325 0 
0.606108 0 0.606891 0 0.607674 0 0.608457 0 0.60924 
0 0.610023 0 0.610807 0 0.61159 0 0.612373 0 
0.613156 0 0.613939 0 0.614722 0 0.615505 0 0.616288 
0 0.617071 0 0.617854 0 0.618637 0 0.619421 0 
0.620204 0 0.620987 0 0.62177 0 0.622553 0 0.623336 
0 0.624119 0 0.624902 0 0.625685 0 0.626468 0 
0.627251 0 0.628034 0 0.628818 0 0.629601 0 0.630384 
0 0.631167 0 0.63195 0 0.632733 0 0.633516 0 
0.634299 0 0.635082 0 0.635865 0 0.636648 0 0.637432 
0 0.638215 0 0.638998 0 0.639781 0 0.640564 0 
0.641347 0 0.64213 0 0.642913 0 0.643696 0 0.644479 
0 0.645262 0 0.646045 0 0.646829 0 0.647612 0 
0.648395 0 0.649178 0 0.649961 0 0.650744 0 0.651527 
0 0.65231 0 0.653093 0 0.653876 0 0.654659 0 
0.655442 0 0.656226 0 0.657009 0 0.657792 0 0.658575 
0 0.659358 0 0.660141 0 0.660924 0 0.661707 0 