# vtk DataFile Version 4.2
vtk output
ASCII
DATASET POLYDATA
POINTS 1278 float
0 0 0 -0.00405812 -0.000262381 -0.000651307 -0.015891 -0.00104737 -0.00254254 
-0.0349864 -0.00235172 -0.00557966 -0.0608322 -0.00417221 -0.00966863 -0.092916 -0.00650559 -0.0147154 
-0.130726 -0.00934863 -0.020626 -0.173749 -0.0126981 -0.0273063 -0.221474 -0.0165507 -0.0346624 
-0.273388 -0.0209033 -0.0426001 -0.328979 -0.0257527 -0.0510254 -0.387736 -0.0310955 -0.0598444 
-0.449144 -0.0369285 -0.0689629 -0.512693 -0.0432485 -0.078287 -0.57787 -0.0500524 -0.0877225 
-0.644163 -0.0573367 -0.0971756 -0.71106 -0.0650984 -0.106552 -0.778049 -0.0733341 -0.115758 
-0.844616 -0.0820406 -0.124699 -0.910251 -0.0912147 -0.133282 -0.974441 -0.100853 -0.141411 
-1.03667 -0.110953 -0.148995 -1.09664 -0.12151 -0.155975 -1.15444 -0.132522 -0.162371 
-1.2102 -0.143986 -0.168211 -1.26408 -0.155898 -0.173521 -1.31622 -0.168256 -0.17833 
-1.36675 -0.181055 -0.182666 -1.41582 -0.194293 -0.186555 -1.46358 -0.207966 -0.190026 
-1.51016 -0.222073 -0.193106 -1.5557 -0.236608 -0.195823 -1.60036 -0.251569 -0.198204 
-1.64427 -0.266954 -0.200278 -1.68757 -0.282758 -0.202071 -1.73041 -0.298978 -0.203612 
-1.77293 -0.315612 -0.204928 -1.81528 -0.332656 -0.206047 -1.85758 -0.350107 -0.206996 
-1.9 -0.367962 -0.207804 -1.94266 -0.386218 -0.208497 -1.98571 -0.404871 -0.209102 
-2.02918 -0.423921 -0.209625 -2.07302 -0.443368 -0.21006 -2.1172 -0.463214 -0.210397 
-2.16166 -0.48346 -0.210628 -2.20638 -0.504105 -0.210746 -2.2513 -0.525152 -0.210741 
-2.29638 -0.5466 -0.210607 -2.34157 -0.568452 -0.210333 -2.38684 -0.590706 -0.209913 
-2.43213 -0.613366 -0.209338 -2.47742 -0.636431 -0.2086 -2.52265 -0.659902 -0.207691 
-2.56777 -0.68378 -0.206602 -2.61275 -0.708066 -0.205325 -2.65755 -0.732761 -0.203852 
-2.70211 -0.757866 -0.202175 -2.7464 -0.783381 -0.200285 -2.79038 -0.809308 -0.198174 
-2.83399 -0.835647 -0.195835 -2.8772 -0.862399 -0.193258 -2.91997 -0.889564 -0.19044 
-2.96231 -0.917132 -0.187384 -3.00423 -0.945097 -0.184098 -3.04574 -0.97345 -0.180588 
-3.08686 -1.00218 -0.176861 -3.1276 -1.03128 -0.172925 -3.16796 -1.06075 -0.168785 
-3.20795 -1.09057 -0.164449 -3.2476 -1.12073 -0.159923 -3.28691 -1.15123 -0.155213 
-3.32589 -1.18206 -0.150328 -3.36456 -1.21321 -0.145273 -3.40292 -1.24467 -0.140056 
-3.44099 -1.27643 -0.134682 -3.47878 -1.30849 -0.129159 -3.51629 -1.34083 -0.123494 
-3.55355 -1.37345 -0.117693 -3.59057 -1.40634 -0.111763 -3.62734 -1.43949 -0.105711 
-3.66389 -1.47289 -0.0995432 -3.70023 -1.50654 -0.0932667 -3.73636 -1.54043 -0.0868862 
-3.77227 -1.57455 -0.0804059 -3.80797 -1.60891 -0.0738301 -3.84345 -1.6435 -0.0671631 
-3.87871 -1.67832 -0.0604092 -3.91375 -1.71337 -0.0535727 -3.94857 -1.74864 -0.0466579 
-3.98317 -1.78412 -0.0396691 -4.01755 -1.81983 -0.0326106 -4.0517 -1.85575 -0.0254867 
-4.08562 -1.89189 -0.0183016 -4.11932 -1.92823 -0.0110597 -4.15278 -1.96478 -0.00376528 
-4.18602 -2.00154 0.0035774 -4.21902 -2.03849 0.010964 -4.25179 -2.07565 0.0183903 
-4.28432 -2.11299 0.025852 -4.31662 -2.15054 0.0333447 -4.34867 -2.18827 0.0408642 
-4.38049 -2.22619 0.048406 -4.41208 -2.26429 0.0559634 -4.44342 -2.30258 0.0635275 
-4.47454 -2.34104 0.0710896 -4.50543 -2.37968 0.0786409 -4.5361 -2.4185 0.0861727 
-4.56654 -2.45749 0.0936761 -4.59678 -2.49665 0.101142 -4.6268 -2.53598 0.108563 
-4.65661 -2.57547 0.115928 -4.68622 -2.61513 0.12323 -4.71563 -2.65495 0.13046 
-4.74484 -2.69492 0.137609 -4.77386 -2.73506 0.144668 -4.80269 -2.77534 0.151628 
-4.83133 -2.81578 0.15848 -4.85979 -2.85636 0.165217 -4.88808 -2.89709 0.171828 
-4.91618 -2.93797 0.178306 -4.94412 -2.97899 0.184641 -4.9719 -3.02015 0.190825 
-4.99951 -3.06144 0.196846 -5.02695 -3.10287 0.202692 -5.05423 -3.14444 0.208347 
-5.08135 -3.18614 0.213798 -5.1083 -3.22797 0.219029 -5.1351 -3.26994 0.224028 
-5.16173 -3.31204 0.228778 -5.18819 -3.35426 0.233268 -5.2145 -3.39662 0.237481 
-5.24064 -3.43911 0.241404 -5.26663 -3.48172 0.245022 -5.29245 -3.52446 0.248322 
-5.31811 -3.56733 0.251288 -5.34361 -3.61032 0.253907 -5.36895 -3.65343 0.256164 
-5.39413 -3.69667 0.258046 -5.41915 -3.74003 0.259537 -5.44402 -3.78351 0.260624 
-5.46872 -3.8271 0.261291 -5.49326 -3.87082 0.261526 -5.51765 -3.91465 0.261313 
-5.54187 -3.9586 0.260637 -5.56592 -4.00264 0.259481 -5.58979 -4.04677 0.257829 
-5.61348 -4.09097 0.255665 -5.63699 -4.13526 0.252974 -5.6603 -4.1796 0.249737 
-5.68341 -4.22399 0.245941 -5.70632 -4.26843 0.241568 -5.72902 -4.3129 0.236602 
-5.7515 -4.35739 0.231028 -5.77376 -4.4019 0.224828 -5.79579 -4.44641 0.217988 
-5.81759 -4.49092 0.21049 -5.83915 -4.53542 0.202318 -5.86046 -4.57989 0.193458 
-5.88153 -4.62433 0.183891 -5.90233 -4.66873 0.173603 -5.92288 -4.71308 0.162576 
-5.94316 -4.75737 0.150796 -5.96316 -4.80158 0.138246 -5.98289 -4.84572 0.124929 
-6.00233 -4.88977 0.110853 -6.02149 -4.93371 0.0960267 -6.04036 -4.97754 0.0804589 
-6.05893 -5.02125 0.0641587 -6.0772 -5.06482 0.0471349 -6.09518 -5.10824 0.0293963 
-6.11284 -5.15151 0.0109519 -6.1302 -5.1946 -0.00818949 -6.14724 -5.23752 -0.028019 
-6.16396 -5.28025 -0.0485276 -6.18037 -5.32277 -0.0697066 -6.19644 -5.36508 -0.0915471 
-6.21219 -5.40717 -0.11404 -6.2276 -5.44903 -0.137177 -6.24267 -5.49063 -0.160949 
-6.2574 -5.53198 -0.185346 -6.27178 -5.57306 -0.210361 -6.28581 -5.61387 -0.235984 
-6.29949 -5.65438 -0.262206 -6.31282 -5.6946 -0.289014 -6.32579 -5.73453 -0.316393 
-6.33842 -5.77417 -0.344324 -6.3507 -5.81353 -0.372792 -6.36265 -5.85261 -0.40178 
-6.37425 -5.89142 -0.43127 -6.38553 -5.92995 -0.461247 -6.39648 -5.96822 -0.491692 
-6.40711 -6.00622 -0.52259 -6.41741 -6.04397 -0.553924 -6.4274 -6.08145 -0.585677 
-6.43708 -6.11869 -0.617832 -6.44645 -6.15568 -0.650372 -6.45551 -6.19242 -0.683281 
-6.46427 -6.22892 -0.716541 -6.47274 -6.26518 -0.750137 -6.48091 -6.30122 -0.78405 
-6.4888 -6.33702 -0.818265 -6.4964 -6.37259 -0.852765 -6.50371 -6.40795 -0.887532 
-6.51075 -6.44309 -0.922554 -6.51752 -6.47801 -0.95782 -6.52401 -6.51273 -0.993324 
-6.53023 -6.54725 -1.02906 -6.53618 -6.58156 -1.06502 -6.54187 -6.61569 -1.10119 
-6.54729 -6.64964 -1.13757 -6.55245 -6.6834 -1.17415 -6.55736 -6.71698 -1.21092 
-6.56201 -6.7504 -1.24788 -6.5664 -6.78365 -1.28502 -6.57054 -6.81674 -1.32233 
-6.57444 -6.84968 -1.3598 -6.57809 -6.88246 -1.39742 -6.58149 -6.91511 -1.4352 
-6.58465 -6.94761 -1.47311 -6.58757 -6.97999 -1.51116 -6.59026 -7.01223 -1.54933 
-6.59271 -7.04435 -1.58762 -6.59493 -7.07635 -1.62602 -6.59692 -7.10824 -1.66452 
-6.59868 -7.14003 -1.70312 -6.60022 -7.1717 -1.74182 -6.60152 -7.20328 -1.78061 
-6.6026 -7.23475 -1.81948 -6.60346 -7.26613 -1.85843 -6.60408 -7.29742 -1.89747 
-6.60449 -7.32862 -1.93657 -6.60466 -7.35974 -1.97575 -6.60462 -7.39077 -2.01499 
-6.60435 -7.42172 -2.0543 -6.60385 -7.4526 -2.09366 -6.60314 -7.48341 -2.13307 
-6.6022 -7.51414 -2.17254 -6.60105 -7.54482 -2.21205 -6.59967 -7.57543 -2.2516 
-6.59807 -7.60598 -2.29118 -6.59625 -7.63648 -2.33081 -6.59422 -7.66692 -2.37046 
-6.59197 -7.69732 -2.41013 -6.58949 -7.72767 -2.44983 -6.58681 -7.75798 -2.48954 
-6.5839 -7.78825 -2.52927 -6.58078 -7.81848 -2.56901 -6.57743 -7.84867 -2.60875 
-6.57387 -7.87883 -2.64851 -6.57009 -7.90896 -2.68827 -6.56609 -7.93905 -2.72803 
-6.56186 -7.96912 -2.76779 -6.55742 -7.99916 -2.80754 -6.55275 -8.02917 -2.84729 
-6.54786 -8.05917 -2.88703 -6.54275 -8.08914 -2.92676 -6.53742 -8.11909 -2.96647 
-6.53186 -8.14903 -3.00616 -6.52608 -8.17895 -3.04583 -6.52007 -8.20886 -3.08548 
-6.51384 -8.23876 -3.12511 -6.50738 -8.26865 -3.1647 -6.5007 -8.29853 -3.20427 
-6.49379 -8.32841 -3.2438 -6.48665 -8.35828 -3.28329 -6.47928 -8.38816 -3.32274 
-6.47169 -8.41803 -3.36215 -6.46386 -8.44791 -3.40151 -6.45581 -8.47779 -3.44083 
-6.44752 -8.50767 -3.48009 -6.43899 -8.53756 -3.5193 -6.43023 -8.56745 -3.55845 
-6.42124 -8.59736 -3.59754 -6.412 -8.62727 -3.63657 -6.40253 -8.6572 -3.67553 
-6.39282 -8.68713 -3.71442 -6.38287 -8.71709 -3.75324 -6.37268 -8.74705 -3.79199 
-6.36224 -8.77704 -3.83065 -6.35156 -8.80704 -3.86923 -6.34063 -8.83706 -3.90773 
-6.32946 -8.86711 -3.94615 -6.31804 -8.89717 -3.98447 -6.30637 -8.92726 -4.0227 
-6.29445 -8.95738 -4.06083 -6.28229 -8.98752 -4.09886 -6.26987 -9.01769 -4.1368 
-6.25719 -9.04788 -4.17462 -6.24427 -9.07811 -4.21235 -6.23109 -9.10835 -4.24996 
-6.21766 -9.13863 -4.28746 -6.20397 -9.16894 -4.32484 -6.19003 -9.19927 -4.36211 
-6.17583 -9.22963 -4.39926 -6.16137 -9.26002 -4.43629 -6.14666 -9.29044 -4.47319 
-6.13168 -9.3209 -4.50996 -6.11645 -9.35138 -4.54661 -6.10095 -9.38189 -4.58312 
-6.0852 -9.41244 -4.61949 -6.06918 -9.44301 -4.65573 -6.0529 -9.47362 -4.69183 
-6.03636 -9.50426 -4.72778 -6.01955 -9.53493 -4.76359 -6.00248 -9.56564 -4.79924 
-5.98514 -9.59638 -4.83475 -5.96753 -9.62716 -4.87009 -5.94965 -9.65798 -4.90525 
-5.93149 -9.68884 -4.94024 -5.91304 -9.71974 -4.97504 -5.89431 -9.75069 -5.00965 
-5.8753 -9.78169 -5.04405 -5.85599 -9.81274 -5.07825 -5.83639 -9.84384 -5.11222 
-5.8165 -9.875 -5.14597 -5.7963 -9.90621 -5.17948 -5.7758 -9.93749 -5.21275 
-5.75499 -9.96882 -5.24577 -5.73387 -10.0002 -5.27853 -5.71243 -10.0317 -5.31102 
-5.69068 -10.0632 -5.34324 -5.6686 -10.0948 -5.37518 -5.64621 -10.1265 -5.40683 
-5.62348 -10.1583 -5.43818 -5.60043 -10.1901 -5.46922 -5.57704 -10.222 -5.49996 
-5.55333 -10.254 -5.53038 -5.52931 -10.286 -5.56051 -5.50498 -10.3181 -5.59032 
-5.48034 -10.3503 -5.61984 -5.4554 -10.3825 -5.64905 -5.43018 -10.4147 -5.67797 
-5.40467 -10.447 -5.70659 -5.37889 -10.4793 -5.73491 -5.35283 -10.5117 -5.76294 
-5.32651 -10.5441 -5.79068 -5.29993 -10.5764 -5.81813 -5.27311 -10.6088 -5.8453 
-5.24603 -10.6412 -5.87217 -5.21872 -10.6737 -5.89877 -5.19118 -10.7061 -5.92508 
-5.16341 -10.7385 -5.9511 -5.13543 -10.7708 -5.97686 -5.10723 -10.8032 -6.00233 
-5.07882 -10.8355 -6.02753 -5.05021 -10.8678 -6.05243 -5.02137 -10.9002 -6.077 
-4.99226 -10.9325 -6.10116 -4.96286 -10.9648 -6.12488 -4.93314 -10.9972 -6.14808 
-4.90307 -11.0297 -6.17071 -4.87263 -11.0622 -6.19273 -4.84179 -11.0948 -6.21406 
[...]
CELL_DATA 1
FIELD FieldData 2
Length 1 1 double
63.860376659 
Tortuosity 1 1 double
0.84985913689 
POINT_DATA 1278
SCALARS MaximumInscribedSphereRadius float
LOOKUP_TABLE default
1.24 1.2322 1.22441 1.21661 1.20882 1.20102 1.19323 1.18543 1.17764 
1.16984 1.16205 1.15425 1.14646 1.13866 1.13087 1.12307 1.11528 1.10748 
1.09969 1.09189 1.0841 1.07647 1.06936 1.06225 1.05514 1.04803 1.04092 
1.03381 1.0267 1.01959 1.01248 1.00538 0.998267 0.991158 0.984049 0.97694 
0.969831 0.962722 0.955613 0.948504 0.941395 0.938634 0.938637 0.93864 0.938643 
0.938646 0.93865 0.938653 0.938656 0.938659 0.938662 0.938665 0.938668 0.938671 
0.938675 0.938678 0.938681 0.938684 0.938687 0.93869 0.938693 0.93924 0.944479 
0.949717 0.954956 0.960195 0.965434 0.970672 0.975911 0.98115 0.986389 0.991627 
0.996866 1.0021 1.00734 1.01258 1.01782 1.02306 1.0283 1.03354 1.03878 
1.04402 1.05142 1.05912 1.06683 1.07453 1.08224 1.08994 1.09765 1.10535 
1.11305 1.12076 1.12846 1.13617 1.14387 1.15158 1.15928 1.16698 1.17469 
1.18239 1.1901 1.1978 1.20214 1.20406 1.20598 1.2079 1.20983 1.21175 
1.21367 1.21559 1.21751 1.21943 1.22136 1.22328 1.2252 1.22712 1.22904 
1.23096 1.23289 1.23481 1.23673 1.23865 1.24 1.24 1.24 1.24 
1.24 1.24 1.24 1.24 1.24 1.24 1.24 1.24 1.24 
1.24 1.24 1.24 1.24 1.24 1.24 1.24 1.23994 1.23573 
1.23153 1.22732 1.22311 1.2189 1.2147 1.21049 1.20628 1.20207 1.19787 
1.19366 1.18945 1.18525 1.18104 1.17683 1.17262 1.16842 1.16421 1.16 
1.15579 1.14766 1.13813 1.12861 1.11908 1.10955 1.10003 1.0905 1.08097 
1.07145 1.06192 1.05239 1.04286 1.03334 1.02381 1.01428 1.00476 0.995229 
0.985702 0.976175 0.966648 0.966146 0.975793 0.98544 0.995087 1.00473 1.01438 
1.02403 1.03368 1.04332 1.05297 1.06262 1.07226 1.08191 1.09156 1.1012 
1.11085 1.1205 1.13015 1.13979 1.14944 1.15803 1.16211 1.16619 1.17027 
1.17435 1.17843 1.18251 1.18659 1.19067 1.19475 1.19882 1.2029 1.20698 
1.21106 1.21514 1.21922 1.2233 1.22738 1.23146 1.23554 1.23962 1.23639 
1.2324 1.22842 1.22443 1.22045 1.21646 1.21247 1.20849 1.2045 1.20052 
1.19653 1.19254 1.18856 1.18457 1.18059 1.1766 1.17262 1.16863 1.16464 
1.16066 1.15103 1.13793 1.12484 1.11174 1.09864 1.08555 1.07245 1.05935 
1.04626 1.03316 1.02006 1.00697 0.993869 0.980772 0.967675 0.954579 0.941482 
0.928385 0.915289 0.902192 0.890399 0.88122 0.872041 0.862862 0.853683 0.844505 
0.835326 0.826147 0.816968 0.807789 0.798611 0.789432 0.780253 0.771074 0.761895 
0.752717 0.743538 0.734359 0.72518 0.716002 0.707503 0.712714 0.717925 0.723136 
0.728346 0.733557 0.738768 0.743979 0.749189 0.7544 0.759611 0.764822 0.770032 
0.775243 0.780454 0.785665 0.790875 0.796086 0.801297 0.806508 0.811718 0.815347 
0.818476 0.821605 0.824734 0.827863 0.830992 0.834121 0.83725 0.840379 0.843508 
0.846637 0.849766 0.852895 0.856025 0.859154 0.862283 0.865412 0.868541 0.87167 
0.874799 0.872968 0.865693 0.858419 0.851144 0.84387 0.836595 0.829321 0.822046 
0.814772 0.807497 0.800223 0.792948 0.785674 0.778399 0.771125 0.76385 0.756576 
0.749301 0.742027 0.734752 0.731644 0.742983 0.754322 0.765661 0.777 0.788339 
0.799678 0.811017 0.822356 0.833695 0.845034 0.856373 0.867712 0.879051 0.89039 
0.901729 0.913068 0.924407 0.935746 0.947085 0.958424 0.987484 1.02333 1.05918 
1.09503 1.13087 1.16672 1.20257 1.23842 1.27426 1.31011 1.34596 1.3818 
1.41765 1.4535 1.48935 1.52519 1.56104 1.59689 1.63274 1.66606 1.67153 
1.67701 1.68248 1.68796 1.69344 1.69891 1.70439 1.70986 1.71534 1.72082 
1.72629 1.73177 1.73725 1.74272 1.7482 1.75367 1.75915 1.76463 1.7701 
1.77382 1.77578 1.77774 1.7797 1.78165 1.78361 1.78557 1.78752 1.78948 
1.79144 1.7934 1.79535 1.79731 1.79927 1.80122 1.80318 1.80514 1.80709 
1.80905 1.81101 1.81297 1.82483 1.83791 1.85099 1.86407 1.87714 1.89022 
1.9033 1.91638 1.92946 1.94254 1.95562 1.9687 1.98178 1.99486 2.00794 
2.02102 2.03409 2.04717 2.06025 2.07333 2.06854 2.05486 2.04117 2.02748 
2.0138 2.00011 1.98642 1.97274 1.95905 1.94536 1.93168 1.91799 1.9043 
1.89061 1.87693 1.86324 1.84955 1.83587 1.82218 1.80849 1.79629 1.7866 
1.7769 1.7672 1.75751 1.74781 1.73812 1.72842 1.71873 1.70903 1.69933 
1.68964 1.67994 1.67025 1.66055 1.65085 1.64116 1.63146 1.62177 1.61207 
1.60394 1.61249 1.62103 1.62957 1.63811 1.64665 1.65519 1.66373 1.67227 
1.68081 1.68935 1.69789 1.70643 1.71497 1.72351 1.73205 1.74059 1.74913 
1.75767 1.76621 1.77476 1.78015 1.78477 1.78939 1.79401 1.79863 1.80325 
1.80787 1.81249 1.81711 1.82173 1.82635 1.83097 1.83559 1.84021 1.84483 
1.84945 1.85407 1.85869 1.86331 1.86793 1.87208 1.87582 1.87956 1.8833 
1.88704 1.89077 1.89451 1.89825 1.90199 1.90573 1.90947 1.91321 1.91694 
1.92068 1.92442 1.92816 1.9319 1.93564 1.93938 1.94311 1.9484 1.95813 
1.96786 1.97759 1.98732 1.99705 2.00678 2.01651 2.02624 2.03597 2.0457 
2.05543 2.06516 2.07489 2.08462 2.09435 2.10408 2.11381 2.12354 2.13327 
2.143 2.14729 2.15147 2.15564 2.15982 2.16399 2.16817 2.17234 2.17651 
2.18069 2.18486 2.18904 2.19321 2.19739 2.20156 2.20573 2.20991 2.21408 
2.21826 2.22243 2.22661 2.22699 2.22571 2.22444 2.22316 2.22188 2.2206 
2.21932 2.21804 2.21677 2.21549 2.21421 2.21293 2.21165 2.21037 2.2091 
2.20782 2.20654 2.20526 2.20398 2.20271 2.20158 2.20067 2.19977 2.19886 
2.19796 2.19705 2.19615 2.19524 2.19434 2.19343 2.19253 2.19162 2.19072 
2.18981 2.18891 2.188 2.1871 2.18619 2.18529 2.18438 2.18341 2.18198 
2.18054 2.17911 2.17767 2.17624 2.1748 2.17336 2.17193 2.17049 2.16906 
2.16762 2.16619 2.16475 2.16332 2.16188 2.16045 2.15901 2.15758 2.15614 
2.1547 2.14751 2.1392 2.13088 2.12256 2.11424 2.10592 2.0976 2.08929 
2.08097 2.07265 2.06433 2.05601 2.0477 2.03938 2.03106 2.02274 2.01442 
2.00611 1.99779 1.98947 1.98404 1.98099 1.97793 1.97488 1.97182 1.96877 
1.96571 1.96266 1.9596 1.95655 1.95349 1.95044 1.94738 1.94433 1.94127 
1.93822 1.93516 1.93211 1.92905 1.926 1.92582 1.93366 1.94151 1.94935 
1.95719 1.96503 1.97287 1.98072 1.98856 1.9964 2.00424 2.01209 2.01993 
2.02777 2.03561 2.04346 2.0513 2.05914 2.06698 2.07483 2.08267 2.08057 
2.07826 2.07594 2.07363 2.07132 2.06901 2.0667 2.06439 2.06208 2.05977 
2.05745 2.05514 2.05283 2.05052 2.04821 2.0459 2.04359 2.04128 2.03896 
2.03665 2.02929 2.01971 2.01013 2.00056 1.99098 1.9814 1.97182 1.96225 
1.95267 1.94309 1.93352 1.92394 1.91436 1.90478 1.89521 1.88563 1.87605 
1.86648 1.8569 1.84732 1.83778 1.8283 1.81881 1.80933 1.79984 1.79036 
1.78087 1.77139 1.7619 1.75242 1.74293 1.73345 1.72396 1.71448 1.70499 
1.69551 1.68602 1.67654 1.66705 1.65757 1.64923 1.6489 1.64857 1.64824 
1.64791 1.64758 1.64725 1.64692 1.64659 1.64626 1.64593 1.6456 1.64527 
1.64494 1.64461 1.64428 1.64395 1.64362 1.64329 1.64296 1.64263 1.65042 
1.65976 1.66911 1.67845 1.6878 1.69714 1.70649 1.71583 1.72518 1.73453 
1.74387 1.75322 1.76256 1.77191 1.78125 1.7906 1.79994 1.80929 1.81864 
1.82798 1.83836 1.84958 1.8608 1.87202 1.88325 1.89447 1.90569 1.91691 
1.92813 1.93935 1.95057 1.96179 1.97302 1.98424 1.99546 2.00668 2.0179 
2.02912 2.04034 2.05156 2.06197 2.07012 2.07826 2.08641 2.09456 2.1027 
2.11085 2.11899 2.12714 2.13529 2.14343 2.15158 2.15972 2.16787 2.17602 
2.18416 2.19231 2.20045 2.2086 2.21675 2.22489 2.22444 2.22379 2.22315 
2.2225 2.22186 2.22121 2.22057 2.21992 2.21928 2.21863 2.21799 2.21734 
2.2167 2.21605 2.21541 2.21476 2.21411 2.21347 2.21282 2.21218 2.21111 
2.20984 2.20857 2.20731 2.20604 2.20478 2.20351 2.20225 2.20098 2.19972 
2.19845 2.19719 2.19592 2.19466 2.19339 2.19212 2.19086 2.18959 2.18833 
2.18706 2.18652 2.18705 2.18758 2.18811 2.18864 2.18916 2.18969 2.19022 
2.19075 2.19128 2.1918 2.19233 2.19286 2.19339 2.19392 2.19444 2.19497 
2.1955 2.19603 2.19656 2.19791 2.20538 2.21284 2.2203 2.22777 2.23523 
2.24269 2.25015 2.25762 2.26508 2.27254 2.28 2.28747 2.29493 2.30239 
2.30986 2.31732 2.32478 2.33224 2.33971 2.34717 2.35614 2.36542 2.37469 
2.38396 2.39324 2.40251 2.41178 2.42106 2.43033 2.43961 2.44888 2.45815 
2.46743 2.4767 2.48597 2.49525 2.50452 2.5138 2.52307 2.53234 2.54085 
2.54872 2.55659 2.56446 2.57233 2.5802 2.58807 2.59594 2.60381 2.61168 
2.61954 2.62741 2.63528 2.64315 2.65102 2.65889 2.66676 2.67463 2.6825 
2.69037 2.6945 2.68802 2.68153 2.67505 2.66856 2.66208 2.65559 2.64911 
2.64262 2.63614 2.62965 2.62317 2.61668 2.6102 2.60371 2.59723 2.59074 
2.58426 2.57777 2.57129 2.5648 2.55175 2.53852 2.5253 2.51207 2.49884 
2.48561 2.47239 2.45916 2.44593 2.4327 2.41948 2.40625 2.39302 2.37979 
2.36657 2.35334 2.34011 2.32688 2.31366 2.30043 2.29741 2.29909 2.30077 
2.30245 2.30413 2.30581 2.30749 2.30917 2.31085 2.31253 2.31421 2.31589 
2.31758 2.31926 2.32094 2.32262 2.3243 2.32598 2.32766 2.32934 2.33056 
2.33109 2.33162 2.33215 2.33268 2.33321 2.33374 2.33427 2.3348 2.33533 
2.33586 2.33639 2.33692 2.33745 2.33798 2.33851 2.33904 2.33957 2.3401 
2.34063 2.33956 2.32551 2.31146 2.2974 2.28335 2.2693 2.25525 2.24119 
2.22714 2.21309 2.19904 2.18499 2.17093 2.15688 2.14283 2.12878 2.11472 
2.10067 2.08662 2.07257 2.05851 2.05373 2.05095 2.04816 2.04537 2.04258 
2.03979 2.037 2.03421 2.03142 2.02864 2.02585 2.02306 2.02027 2.01748 
2.01469 2.0119 2.00911 2.00632 2.00354 2.00075 2.00537 2.01635 2.02732 
2.0383 2.04927 2.06025 2.07122 2.0822 2.09317 2.10415 2.11512 2.1261 
2.13707 2.14805 2.15903 2.17 2.18098 2.19195 2.20293 2.2139 2.21555 
2.19005 2.16456 2.13906 2.11357 2.08807 2.06258 2.03708 2.01158 1.98609 
1.96059 1.9351 1.9096 1.88411 1.85861 1.83312 1.80762 1.78213 1.75663 
1.73114 1.70564 1.68966 1.6739 1.65815 1.64239 1.62664 1.61088 1.59513 
1.57937 1.56362 1.54786 1.53211 1.51635 1.5006 1.48484 1.46909 1.45333 
1.43758 1.42182 1.40607 1.39032 1.40082 1.42275 1.44467 1.4666 1.48853 
1.51045 1.53238 1.55431 1.57623 1.59816 1.62009 1.64201 1.66394 1.68587 
1.70779 1.72972 1.75165 1.77357 1.7955 1.81743 1.83785 1.85618 1.87451 
1.89284 1.91118 1.92951 1.94784 1.96617 1.98451 2.00284 2.02117 2.0395 
2.05784 2.07617 2.0945 2.11284 2.13117 2.1495 2.16783 2.18617 2.20254 
2.20546 2.20837 2.21129 2.21421 2.21713 2.22004 2.22296 2.22588 2.2288 
2.23171 2.23463 2.23755 2.24047 2.24338 2.2463 2.24922 2.25213 2.25505 
2.25797 2.26089 2.24245 2.22126 2.20007 2.17888 2.15769 2.1365 2.11531 
2.09412 2.07293 2.05174 2.03054 2.00935 1.98816 1.96697 1.94578 1.92459 
1.9034 1.88221 1.86102 1.83983 1.82752 1.82741 1.82729 1.82718 1.82706 
1.82694 1.82683 1.82671 1.8266 1.82648 1.82637 1.82625 1.82614 1.82602 
1.82591 1.82579 1.82568 1.82556 1.82544 1.82533 1.83771 1.85432 1.87094 
1.88755 1.90417 1.92078 1.9374 1.95401 1.97062 1.98724 2.00385 2.02047 
2.03708 2.0537 2.07031 2.08693 2.10354 2.12016 2.13677 2.15339 2.17 

TEXTURE_COORDINATES TCoords 2 float
0 0 0.000783085 0 0.00156617 0 0.00234926 0 0.00313234 
0 0.00391543 0 0.00469851 0 0.0054816 0 0.00626468 0 
0.00704777 0 0.00783085 0 0.00861394 0 0.00939702 0 0.0101801 
0 0.0109632 0 0.0117463 0 0.0125294 0 0.0133125 0 
0.0140955 0 0.0148786 0 0.0156617 0 0.0164448 0 0.0172279 
0 0.018011 0 0.018794 0 0.0195771 0 0.0203602 0 
0.0211433 0 0.0219264 0 0.0227095 0 0.0234926 0 0.0242756 
0 0.0250587 0 0.0258418 0 0.0266249 0 0.027408 0 
0.0281911 0 0.0289742 0 0.0297572 0 0.0305403 0 0.0313234 
0 0.0321065 0 0.0328896 0 0.0336727 0 0.0344558 0 
0.0352388 0 0.0360219 0 0.036805 0 0.0375881 0 0.0383712 
0 0.0391543 0 0.0399374 0 0.0407204 0 0.0415035 0 
0.0422866 0 0.0430697 0 0.0438528 0 0.0446359 0 0.045419 
0 0.046202 0 0.0469851 0 0.0477682 0 0.0485513 0 
0.0493344 0 0.0501175 0 0.0509005 0 0.0516836 0 0.0524667 
0 0.0532498 0 0.0540329 0 0.054816 0 0.0555991 0 
0.0563821 0 0.0571652 0 0.0579483 0 0.0587314 0 0.0595145 
0 0.0602976 0 0.0610807 0 0.0618637 0 0.0626468 0 
0.0634299 0 0.064213 0 0.0649961 0 0.0657792 0 0.0665623 
0 0.0673453 0 0.0681284 0 0.0689115 0 0.0696946 0 
0.0704777 0 0.0712608 0 0.0720439 0 0.0728269 0 0.07361 
0 0.0743931 0 0.0751762 0 0.0759593 0 0.0767424 0 
0.0775255 0 0.0783085 0 0.0790916 0 0.0798747 0 0.0806578 
0 0.0814409 0 0.082224 0 0.083007 0 0.0837901 0 
0.0845732 0 0.0853563 0 0.0861394 0 0.0869225 0 0.0877056 
0 0.0884886 0 0.0892717 0 0.0900548 0 0.0908379 0 
0.091621 0 0.0924041 0 0.0931872 0 0.0939702 0 0.0947533 
0 0.0955364 0 0.0963195 0 0.0971026 0 0.0978857 0 
0.0986688 0 0.0994518 0 0.100235 0 0.101018 0 0.101801 
0 0.102584 0 0.103367 0 0.10415 0 0.104933 0 
0.105717 0 0.1065 0 0.107283 0 0.108066 0 0.108849 
0 0.109632 0 0.110415 0 0.111198 0 0.111981 0 
0.112764 0 0.113547 0 0.11433 0 0.115114 0 0.115897 
0 0.11668 0 0.117463 0 0.118246 0 0.119029 0 
0.119812 0 0.120595 0 0.121378 0 0.122161 0 0.122944 
0 0.123727 0 0.124511 0 0.125294 0 0.126077 0 
0.12686 0 0.127643 0 0.128426 0 0.129209 0 0.129992 
0 0.130775 0 0.131558 0 0.132341 0 0.133125 0 
0.133908 0 0.134691 0 0.135474 0 0.136257 0 0.13704 
0 0.137823 0 0.138606 0 0.139389 0 0.140172 0 
0.140955 0 0.141738 0 0.142522 0 0.143305 0 0.144088 
0 0.144871 0 0.145654 0 0.146437 0 0.14722 0 
0.148003 0 0.148786 0 0.149569 0 0.150352 0 0.151135 
0 0.151919 0 0.152702 0 0.153485 0 0.154268 0 
0.155051 0 0.155834 0 0.156617 0 0.1574 0 0.158183 
0 0.158966 0 0.159749 0 0.160533 0 0.161316 0 
0.162099 0 0.162882 0 0.163665 0 0.164448 0 0.165231 
0 0.166014 0 0.166797 0 0.16758 0 0.168363 0 
0.169146 0 0.16993 0 0.170713 0 0.171496 0 0.172279 
0 0.173062 0 0.173845 0 0.174628 0 0.175411 0 
0.176194 0 0.176977 0 0.17776 0 0.178543 0 0.179327 
0 0.18011 0 0.180893 0 0.181676 0 0.182459 0 
0.183242 0 0.184025 0 0.184808 0 0.185591 0 0.186374 
0 0.187157 0 0.18794 0 0.188724 0 0.189507 0 
0.19029 0 0.191073 0 0.191856 0 0.192639 0 0.193422 
0 0.194205 0 0.194988 0 0.195771 0 0.196554 0 
0.197338 0 0.198121 0 0.198904 0 0.199687 0 0.20047 
0 0.201253 0 0.202036 0 0.202819 0 0.203602 0 
0.204385 0 0.205168 0 0.205951 0 0.206735 0 0.207518 
0 0.208301 0 0.209084 0 0.209867 0 0.21065 0 
0.211433 0 0.212216 0 0.212999 0 0.213782 0 0.214565 
0 0.215348 0 0.216132 0 0.216915 0 0.217698 0 
0.218481 0 0.219264 0 0.220047 0 0.22083 0 0.221613 
0 0.222396 0 0.223179 0 0.223962 0 0.224745 0 
0.225529 0 0.226312 0 0.227095 0 0.227878 0 0.228661 
0 0.229444 0 0.230227 0 0.23101 0 0.231793 0 
0.232576 0 0.233359 0 0.234143 0 0.234926 0 0.235709 
0 0.236492 0 0.237275 0 0.238058 0 0.238841 0 
0.239624 0 0.240407 0 0.24119 0 0.241973 0 0.242756 
0 0.24354 0 0.244323 0 0.245106 0 0.245889 0 
0.246672 0 0.247455 0 0.248238 0 0.249021 0 0.249804 
0 0.250587 0 0.25137 0 0.252153 0 0.252937 0 
0.25372 0 0.254503 0 0.255286 0 0.256069 0 0.256852 
0 0.257635 0 0.258418 0 0.259201 0 0.259984 0 
0.260767 0 0.261551 0 0.262334 0 0.263117 0 0.2639 
0 0.264683 0 0.265466 0 0.266249 0 0.267032 0 
0.267815 0 0.268598 0 0.269381 0 0.270164 0 0.270948 
0 0.271731 0 0.272514 0 0.273297 0 0.27408 0 
0.274863 0 0.275646 0 0.276429 0 0.277212 0 0.277995 
0 0.278778 0 0.279561 0 0.280345 0 0.281128 0 
0.281911 0 0.282694 0 0.283477 0 0.28426 0 0.285043 
0 0.285826 0 0.286609 0 0.287392 0 0.288175 0 
0.288958 0 0.289742 0 0.290525 0 0.291308 0 0.292091 
0 0.292874 0 0.293657 0 0.29444 0 0.295223 0 
0.296006 0 0.296789 0 0.297572 0 0.298356 0 0.299139 
0 0.299922 0 0.300705 0 0.301488 0 0.302271 0 
0.303054 0 0.303837 0 0.30462 0 0.305403 0 0.306186 
0 0.306969 0 0.307753 0 0.308536 0 0.309319 0 
0.310102 0 0.310885 0 0.311668 0 0.312451 0 0.313234 
0 0.314017 0 0.3148 0 0.315583 0 0.316366 0 
0.31715 0 0.317933 0 0.318716 0 0.319499 0 0.320282 
0 0.321065 0 0.321848 0 0.322631 0 0.323414 0 
0.324197 0 0.32498 0 0.325763 0 0.326547 0 0.32733 
0 0.328113 0 0.328896 0 0.329679 0 0.330462 0 
0.331245 0 0.332028 0 0.332811 0 0.333594 0 0.334377 
0 0.335161 0 0.335944 0 0.336727 0 0.33751 0 
0.338293 0 0.339076 0 0.339859 0 0.340642 0 0.341425 
0 0.342208 0 0.342991 0 0.343774 0 0.344558 0 
0.345341 0 0.346124 0 0.346907 0 0.34769 0 0.348473 
0 0.349256 0 0.350039 0 0.350822 0 0.351605 0 
0.352388 0 0.353171 0 0.353955 0 0.354738 0 0.355521 
0 0.356304 0 0.357087 0 0.35787 0 0.358653 0 
0.359436 0 0.360219 0 0.361002 0 0.361785 0 0.362569 
0 0.363352 0 0.364135 0 0.364918 0 0.365701 0 
0.366484 0 0.367267 0 0.36805 0 0.368833 0 0.369616 
0 0.370399 0 0.371182 0 0.371966 0 0.372749 0 
0.373532 0 0.374315 0 0.375098 0 0.375881 0 0.376664 
0 0.377447 0 0.37823 0 0.379013 0 0.379796 0 
0.380579 0 0.381363 0 0.382146 0 0.382929 0 0.383712 
0 0.384495 0 0.385278 0 0.386061 0 0.386844 0 
0.387627 0 0.38841 0 0.389193 0 0.389977 0 0.39076 
0 0.391543 0 0.392326 0 0.393109 0 0.393892 0 
0.394675 0 0.395458 0 0.396241 0 0.397024 0 0.397807 
0 0.39859 0 0.399374 0 0.400157 0 0.40094 0 
0.401723 0 0.402506 0 0.403289 0 0.404072 0 0.404855 
0 0.405638 0 0.406421 0 0.407204 0 0.407987 0 
0.408771 0 0.409554 0 0.410337 0 0.41112 0 0.411903 
0 0.412686 0 0.413469 0 0.414252 0 0.415035 0 
0.415818 0 0.416601 0 0.417385 0 0.418168 0 0.418951 
0 0.419734 0 0.420517 0 0.4213 0 0.422083 0 
0.422866 0 0.423649 0 0.424432 0 0.425215 0 0.425998 
0 0.426782 0 0.427565 0 0.428348 0 0.429131 0 
0.429914 0 0.430697 0 0.43148 0 0.432263 0 0.433046 
0 0.433829 0 0.434612 0 0.435395 0 0.436179 0 
0.436962 0 0.437745 0 0.438528 0 0.439311 0 0.440094 
0 0.440877 0 0.44166 0 0.442443 0 0.443226 0 
0.444009 0 0.444792 0 0.445576 0 0.446359 0 0.447142 
0 0.447925 0 0.448708 0 0.449491 0 0.450274 0 
0.451057 0 0.45184 0 0.452623 0 0.453406 0 0.45419 
0 0.454973 0 0.455756 0 0.456539 0 0.457322 0 
0.458105 0 0.458888 0 0.459671 0 0.460454 0 0.461237 
0 0.46202 0 0.462803 0 0.463587 0 0.46437 0 
0.465153 0 0.465936 0 0.466719 0 0.467502 0 0.468285 
0 0.469068 0 0.469851 0 0.470634 0 0.471417 0 
0.4722 0 0.472984 0 0.473767 0 0.47455 0 0.475333 
0 0.476116 0 0.476899 0 0.477682 0 0.478465 0 
0.479248 0 0.480031 0 0.480814 0 0.481597 0 0.482381 
0 0.483164 0 0.483947 0 0.48473 0 0.485513 0 
0.486296 0 0.487079 0 0.487862 0 0.488645 0 0.489428 
0 0.490211 0 0.490995 0 0.491778 0 0.492561 0 
0.493344 0 0.494127 0 0.49491 0 0.495693 0 0.496476 
0 0.497259 0 0.498042 0 0.498825 0 0.499608 0 
0.500392 0 0.501175 0 0.501958 0 0.502741 0 0.503524 
0 0.504307 0 0.50509 0 0.505873 0 0.506656 0 
0.507439 0 0.508222 0 0.509005 0 0.509789 0 0.510572 
0 0.511355 0 0.512138 0 0.512921 0 0.513704 0 
0.514487 0 0.51527 0 0.516053 0 0.516836 0 0.517619 
0 0.518403 0 0.519186 0 0.519969 0 0.520752 0 
0.521535 0 0.522318 0 0.523101 0 0.523884 0 0.524667 
0 0.52545 0 0.526233 0 0.527016 0 0.5278 0 
0.528583 0 0.529366 0 0.530149 0 0.530932 0 0.531715 
0 0.532498 0 0.533281 0 0.534064 0 0.534847 0 
0.53563 0 0.536413 0 0.537197 0 0.53798 0 0.538763 
0 0.539546 0 0.540329 0 0.541112 0 0.541895 0 
0.542678 0 0.543461 0 0.544244 0 0.545027 0 0.545811 
0 0.546594 0 0.547377 0 0.54816 0 0.548943 0 
0.549726 0 0.550509 0 0.551292 0 0.552075 0 0.552858 
0 0.553641 0 0.554424 0 0.555207 0 0.555991 0 
0.556774 0 0.557557 0 0.55834 0 0.559123 0 0.559906 
0 0.560689 0 0.561472 0 0.562255 0 0.563038 0 
0.563821 0 0.564605 0 0.565388 0 0.566171 0 0.566954 
0 0.567737 0 0.56852 0 0.569303 0 0.570086 0 
0.570869 0 0.571652 0 0.572435 0 0.573218 0 0.574002 
0 0.574785 0 0.575568 0 0.576351 0 0.577134 0 
0.577917 0 0.5787 0 0.579483 0 0.580266 0 0.581049 
0 0.581832 0 0.582615 0 0.583399 0 0.584182 0 
0.584965 0 0.585748 0 0.586531 0 0.587314 0 0.588097 
0 0.58888 0 0.589663 0 0.590446 0 0.591229 0 
0.592013 0 0.592796 0 0.593579 0 0.594362 0 0.595145 
0 0.595928 0 0.596711 0 0.597494 0 0.598277 0 
0.59906 0 0.599843 0 0.600626 0 0.60141 0 0.602193 
0 0.602976 0 0.603759 0 0.604542 0 0.605325 0 
0.606108 0 0.606891 0 0.607674 0 0.608457 0 0.60924 
0 0.610023 0 0.610807 0 0.61159 0 0.612373 0 
0.613156 0 0.613939 0 0.614722 0 0.615505 0 0.616288 
0 0.617071 0 0.617854 0 0.618637 0 0.619421 0 
0.620204 0 0.620987 0 0.62177 0 0.622553 0 0.623336 
0 0.624119 0 0.624902 0 0.625685 0 0.626468 0 
0.627251 0 0.628034 0 0.628818 0 0.629601 0 0.630384 
0 0.631167 0 0.63195 0 0.632733 0 0.633516 0 
0.634299 0 0.635082 0 0.635865 0 0.636648 0 0.637432 
0 0.638215 0 0.638998 0 0.639781 0 0.640564 0 
0.641347 0 0.64213 0 0.642913 0 0.643696 0 0.644479 
0 0.645262 0 0.646045 0 0.646829 0 0.647612 0 
0.648395 0 0.649178 0 0.649961 0 0.650744 0 0.651527 
0 0.65231 0 0.653093 0 0.653876 0 0.654659 0 