# vtk DataFile Version 4.2
vtk output
ASCII
DATASET POLYDATA
POINTS 1275 float
0 0 0 -0.00336473 0.00187282 -0.00140592 -0.0131918 0.00731247 -0.00549835 
-0.0290806 0.0160507 -0.0120893 -0.0506305 0.0278194 -0.0209909 -0.0774408 0.0423502 -0.032015 
-0.109111 0.059375 -0.0449736 -0.14524 0.0786255 -0.0596789 -0.185428 0.0998336 -0.0759429 
-0.229273 0.122731 -0.0935775 -0.276376 0.147049 -0.112395 -0.326335 0.172521 -0.132207 
-0.378749 0.198877 -0.152825 -0.43322 0.225849 -0.174063 -0.489344 0.25317 -0.195731 
-0.546723 0.28057 -0.217642 -0.604954 0.307783 -0.239607 -0.663639 0.334539 -0.26144 
-0.722375 0.36057 -0.282951 -0.780763 0.385608 -0.303953 -0.838401 0.409386 -0.324258 
-0.894889 0.431634 -0.343678 -0.94993 0.452154 -0.362073 -1.00356 0.470971 -0.379461 
-1.05589 0.488158 -0.39589 -1.10703 0.503786 -0.411411 -1.15708 0.517927 -0.426073 
-1.20615 0.530652 -0.439925 -1.25435 0.542034 -0.453016 -1.30179 0.552145 -0.465397 
-1.34856 0.561056 -0.477115 -1.39479 0.568839 -0.488222 -1.44057 0.575565 -0.498765 
-1.48602 0.581307 -0.508795 -1.53124 0.586137 -0.518362 -1.57634 0.590125 -0.527513 
-1.62143 0.593344 -0.536299 -1.66661 0.595867 -0.544769 -1.71199 0.597763 -0.552972 
-1.75768 0.599106 -0.560959 -1.80378 0.599967 -0.568778 -1.8504 0.600416 -0.576477 
-1.89757 0.600475 -0.58407 -1.94525 0.600127 -0.591541 -1.9934 0.599348 -0.598873 
-2.04197 0.598118 -0.606047 -2.09091 0.596416 -0.613045 -2.1402 0.59422 -0.61985 
-2.18978 0.591509 -0.626444 -2.2396 0.588262 -0.632809 -2.28964 0.584456 -0.638927 
-2.33984 0.580072 -0.64478 -2.39016 0.575087 -0.650351 -2.44056 0.569481 -0.655622 
-2.491 0.563232 -0.660575 -2.54143 0.556318 -0.665192 -2.59181 0.548719 -0.669455 
-2.64209 0.540413 -0.673347 -2.69224 0.531378 -0.676849 -2.74222 0.521594 -0.679944 
-2.79196 0.511039 -0.682615 -2.84145 0.499692 -0.684842 -2.89064 0.487544 -0.686616 
-2.93953 0.474609 -0.687943 -2.98813 0.460906 -0.688829 -3.03643 0.446453 -0.689281 
-3.08443 0.431268 -0.689308 -3.13214 0.41537 -0.688914 -3.17955 0.398776 -0.688109 
-3.22667 0.381505 -0.686899 -3.2735 0.363576 -0.685291 -3.32003 0.345005 -0.683292 
-3.36628 0.325812 -0.68091 -3.41222 0.306015 -0.678151 -3.45788 0.285631 -0.675023 
-3.50325 0.26468 -0.671533 -3.54833 0.243178 -0.667688 -3.59311 0.221145 -0.663495 
-3.63761 0.198599 -0.658962 -3.68182 0.175558 -0.654094 -3.72574 0.15204 -0.648901 
-3.76937 0.128063 -0.643388 -3.81272 0.103644 -0.637563 -3.85578 0.0787935 -0.631428 
-3.89855 0.0535218 -0.624985 -3.94103 0.0278377 -0.618239 -3.98321 0.00175048 -0.61119 
-4.02511 -0.0247305 -0.603842 -4.06672 -0.051596 -0.596197 -4.10803 -0.0788367 -0.588257 
-4.14904 -0.106443 -0.580025 -4.18977 -0.134406 -0.571503 -4.23019 -0.162717 -0.562694 
-4.27032 -0.191365 -0.553601 -4.31015 -0.220342 -0.544225 -4.34968 -0.249639 -0.53457 
-4.38891 -0.279245 -0.524638 -4.42784 -0.309152 -0.514431 -4.46647 -0.339351 -0.503951 
-4.50479 -0.369831 -0.493202 -4.54281 -0.400585 -0.482186 -4.58053 -0.431602 -0.470905 
-4.61794 -0.462873 -0.459362 -4.65505 -0.494391 -0.447559 -4.69186 -0.526146 -0.435499 
-4.72837 -0.558133 -0.423185 -4.7646 -0.590342 -0.41062 -4.80054 -0.622767 -0.397806 
-4.8362 -0.655399 -0.384745 -4.87159 -0.68823 -0.371442 -4.9067 -0.721254 -0.357898 
-4.94155 -0.754462 -0.344115 -4.97613 -0.787847 -0.330098 -5.01045 -0.821401 -0.315848 
-5.04452 -0.855116 -0.301368 -5.07834 -0.888984 -0.286661 -5.11192 -0.922999 -0.27173 
-5.14525 -0.957151 -0.256577 -5.17835 -0.991434 -0.241205 -5.21121 -1.02584 -0.225616 
-5.24385 -1.06036 -0.209814 -5.27627 -1.09499 -0.193802 -5.30846 -1.12971 -0.177581 
-5.34044 -1.16454 -0.161154 -5.37221 -1.19944 -0.144522 -5.40378 -1.23444 -0.127687 
-5.43514 -1.26951 -0.11065 -5.46631 -1.30466 -0.0934127 -5.49728 -1.33988 -0.075976 
-5.52807 -1.37517 -0.0583415 -5.55867 -1.41052 -0.0405104 -5.58909 -1.44592 -0.0224842 
-5.61933 -1.48138 -0.00426432 -5.6494 -1.51689 0.014148 -5.6793 -1.55244 0.0327514 
-5.70904 -1.58803 0.0515444 -5.73863 -1.62366 0.0705257 -5.76805 -1.65932 0.089694 
-5.79733 -1.695 0.109048 -5.82646 -1.73071 0.128586 -5.85545 -1.76643 0.148307 
-5.8843 -1.80217 0.168209 -5.91301 -1.83791 0.188292 -5.9416 -1.87366 0.208552 
-5.97006 -1.90941 0.228988 -5.9984 -1.94516 0.249596 -6.02662 -1.98091 0.270371 
-6.05472 -2.01665 0.291312 -6.08271 -2.05239 0.312414 -6.11058 -2.08812 0.333675 
-6.13835 -2.12383 0.355089 -6.16602 -2.15953 0.376656 -6.19358 -2.19522 0.39837 
-6.22105 -2.23088 0.420229 -6.24842 -2.26653 0.442229 -6.2757 -2.30215 0.464367 
-6.30289 -2.33775 0.486639 -6.32999 -2.37332 0.509042 -6.35702 -2.40886 0.531573 
-6.38396 -2.44437 0.554228 -6.41083 -2.47984 0.577004 -6.43762 -2.51527 0.599897 
-6.46434 -2.55067 0.622905 -6.491 -2.58602 0.646024 -6.5176 -2.62134 0.669255 
-6.54414 -2.6566 0.692603 -6.57062 -2.69182 0.716068 -6.59706 -2.72699 0.739656 
-6.62345 -2.76212 0.763368 -6.64981 -2.79719 0.787207 -6.67613 -2.83221 0.811176 
-6.70242 -2.86717 0.835278 -6.72869 -2.90208 0.859516 -6.75494 -2.93693 0.883893 
-6.78118 -2.97172 0.908412 -6.8074 -3.00645 0.933075 -6.83362 -3.04111 0.957886 
-6.85984 -3.07572 0.982847 -6.88607 -3.11025 1.00796 -6.9123 -3.14472 1.03323 
-6.93855 -3.17912 1.05866 -6.96482 -3.21345 1.08425 -6.99111 -3.24771 1.11001 
-7.01743 -3.28189 1.13593 -7.04378 -3.316 1.16201 -7.07015 -3.35004 1.18822 
-7.09653 -3.38401 1.21455 -7.12294 -3.41791 1.24096 -7.14935 -3.45175 1.26744 
-7.17577 -3.48553 1.29396 -7.20219 -3.51925 1.32051 -7.2286 -3.55291 1.34705 
-7.25501 -3.58652 1.37357 -7.2814 -3.62008 1.40005 -7.30778 -3.65359 1.42646 
-7.33413 -3.68705 1.45278 -7.36046 -3.72046 1.47899 -7.38676 -3.75383 1.50507 
-7.41303 -3.78717 1.53098 -7.43925 -3.82046 1.55672 -7.46543 -3.85372 1.58226 
-7.49156 -3.88695 1.60758 -7.51764 -3.92014 1.63265 -7.54366 -3.95331 1.65745 
-7.56964 -3.98645 1.682 -7.59559 -4.01955 1.70635 -7.62155 -4.05261 1.73057 
-7.64756 -4.08561 1.75473 -7.67364 -4.11856 1.77889 -7.69982 -4.15144 1.80313 
-7.72613 -4.18425 1.8275 -7.75261 -4.21698 1.85207 -7.77928 -4.24962 1.87692 
-7.80618 -4.28217 1.9021 -7.83333 -4.31461 1.92768 -7.86077 -4.34695 1.95373 
-7.88852 -4.37916 1.98031 -7.91662 -4.41126 2.00749 -7.9451 -4.44322 2.03534 
-7.97399 -4.47504 2.06393 -8.00332 -4.50671 2.09331 -8.03312 -4.53823 2.12356 
-8.06342 -4.56959 2.15475 -8.09425 -4.60079 2.18693 -8.12561 -4.63181 2.22009 
-8.15744 -4.66271 2.254 -8.18964 -4.69353 2.28838 -8.22212 -4.72432 2.32295 
-8.25481 -4.7551 2.35743 -8.2876 -4.78594 2.39154 -8.32043 -4.81687 2.42501 
-8.35319 -4.84793 2.45756 -8.3858 -4.87918 2.48891 -8.41818 -4.91065 2.51877 
-8.45023 -4.94239 2.54688 -8.48188 -4.97444 2.57296 -8.51302 -5.00685 2.59673 
-8.54359 -5.03965 2.6179 -8.57348 -5.0729 2.6362 -8.60262 -5.10664 2.65136 
-8.63091 -5.1409 2.6631 -8.65827 -5.17575 2.67113 -8.68461 -5.21121 2.67518 
-8.70985 -5.24733 2.67497 -8.73389 -5.28416 2.67023 -8.75666 -5.32171 2.66071 
-8.77808 -5.35989 2.64656 -8.7981 -5.39848 2.62807 -8.81666 -5.43729 2.60555 
-8.83371 -5.47615 2.57931 -8.84918 -5.51485 2.54965 -8.86302 -5.5532 2.51689 
-8.87518 -5.59101 2.48132 -8.88558 -5.62809 2.44326 -8.89419 -5.66424 2.40301 
-8.90093 -5.69928 2.36087 -8.90576 -5.73301 2.31716 -8.90862 -5.76525 2.27218 
-8.90944 -5.79579 2.22624 -8.90816 -5.82445 2.17964 -8.90475 -5.85103 2.13269 
-8.89913 -5.87535 2.0857 -8.89126 -5.89724 2.03894 -8.88123 -5.91676 1.99249 
-8.86916 -5.93406 1.94634 -8.85517 -5.94931 1.90047 -8.83941 -5.96265 1.85487 
-8.822 -5.97424 1.80953 -8.80306 -5.98424 1.76442 -8.78273 -5.99279 1.71955 
-8.76114 -6.00005 1.67489 -8.73841 -6.00618 1.63044 -8.71467 -6.01133 1.58617 
-8.69006 -6.01566 1.54208 -8.6647 -6.01932 1.49816 -8.63872 -6.02246 1.45438 
-8.61225 -6.02524 1.41073 -8.58541 -6.02782 1.36721 -8.55835 -6.03034 1.3238 
-8.53118 -6.03297 1.28048 -8.50404 -6.03585 1.23724 -8.47706 -6.03915 1.19407 
-8.45035 -6.043 1.15096 -8.42395 -6.04746 1.1079 -8.39785 -6.05249 1.06489 
-8.372 -6.05806 1.02194 -8.34639 -6.06414 0.979051 -8.32098 -6.07069 0.936222 
-8.29575 -6.07769 0.893456 -8.27067 -6.0851 0.850757 -8.24571 -6.09288 0.808127 
-8.22085 -6.10101 0.765569 -8.19604 -6.10945 0.723086 -8.17128 -6.11818 0.680679 
-8.14653 -6.12715 0.638351 -8.12176 -6.13634 0.596106 -8.09694 -6.14571 0.553944 
-8.07205 -6.15523 0.51187 -8.04706 -6.16487 0.469885 -8.02194 -6.17459 0.427993 
-7.99667 -6.18437 0.386194 -7.97121 -6.19417 0.344493 -7.94553 -6.20396 0.302892 
-7.91963 -6.21372 0.261392 -7.89352 -6.22346 0.219992 -7.86719 -6.23321 0.178691 
-7.84068 -6.24297 0.13749 -7.81398 -6.25277 0.096386 -7.78712 -6.26262 0.0553793 
-7.7601 -6.27253 0.0144688 -7.73293 -6.28252 -0.0263464 -7.70564 -6.2926 -0.067067 
-7.67822 -6.3028 -0.107694 -7.65069 -6.31313 -0.148228 -7.62307 -6.3236 -0.18867 
-7.59537 -6.33423 -0.229021 -7.56759 -6.34504 -0.269282 -7.53975 -6.35604 -0.309453 
-7.51187 -6.36725 -0.349535 -7.48395 -6.37867 -0.38953 -7.45601 -6.39034 -0.429437 
-7.42806 -6.40227 -0.469259 -7.4001 -6.41446 -0.508995 -7.37216 -6.42694 -0.548646 
-7.34424 -6.43971 -0.588211 -7.31632 -6.45277 -0.627685 -7.28843 -6.46613 -0.667067 
-7.26055 -6.47979 -0.706354 -7.2327 -6.49375 -0.745543 -7.20486 -6.50801 -0.784632 
-7.17705 -6.52259 -0.823618 -7.14926 -6.53748 -0.862499 -7.1215 -6.55269 -0.901271 
-7.09376 -6.56821 -0.939932 -7.06605 -6.58406 -0.97848 -7.03837 -6.60024 -1.01691 
-7.01072 -6.61674 -1.05522 -6.9831 -6.63357 -1.09342 -6.95552 -6.65075 -1.13148 
-6.92797 -6.66826 -1.16942 -6.90045 -6.68611 -1.20723 -6.87298 -6.70431 -1.24491 
-6.84554 -6.72286 -1.28246 -6.81814 -6.74176 -1.31987 -6.79079 -6.76102 -1.35713 
-6.76349 -6.78065 -1.39425 -6.73625 -6.80067 -1.43121 -6.70908 -6.82107 -1.46801 
-6.682 -6.84188 -1.50464 -6.65499 -6.8631 -1.5411 -6.62809 -6.88474 -1.57737 
-6.60128 -6.90682 -1.61347 -6.57459 -6.92934 -1.64937 -6.54801 -6.95232 -1.68507 
-6.52156 -6.97576 -1.72056 -6.49524 -6.99968 -1.75585 -6.46907 -7.02408 -1.79092 
-6.44305 -7.04898 -1.82576 -6.41718 -7.07438 -1.86038 -6.39148 -7.1003 -1.89476 
[...]
CELL_DATA 1
FIELD FieldData 2
Length 1 1 double
63.702511137 
Tortuosity 1 1 double
0.89000323428 
POINT_DATA 1275
SCALARS MaximumInscribedSphereRadius float
LOOKUP_TABLE default
0.8742 0.875717 0.877235 0.878752 0.88027 0.881787 0.883304 0.884822 0.886339 
0.887856 0.889374 0.890891 0.892409 0.893926 0.895443 0.896961 0.898478 0.899996 
0.901513 0.90303 0.904548 0.905761 0.902841 0.899922 0.897003 0.894084 0.891164 
0.888245 0.885326 0.882407 0.879487 0.876568 0.873649 0.87073 0.86781 0.864891 
0.861972 0.859053 0.856133 0.853214 0.850295 0.84485 0.837119 0.829389 0.821658 
0.813927 0.806196 0.798465 0.790734 0.783004 0.775273 0.767542 0.759811 0.75208 
0.74435 0.736619 0.728888 0.721157 0.713426 0.705695 0.697965 0.695753 0.712331 
0.728909 0.745487 0.762065 0.778643 0.795222 0.8118 0.828378 0.844956 0.861534 
0.878112 0.89469 0.911268 0.927846 0.944425 0.961003 0.977581 0.994159 1.01074 
1.02732 1.04379 1.06026 1.07673 1.09321 1.10968 1.12615 1.14262 1.1591 
1.17557 1.19204 1.20851 1.22498 1.24146 1.25793 1.2744 1.29087 1.30735 
1.32382 1.34029 1.35676 1.36715 1.37505 1.38295 1.39084 1.39874 1.40664 
1.41454 1.42244 1.43034 1.43824 1.44614 1.45404 1.46194 1.46983 1.47773 
1.48563 1.49353 1.50143 1.50933 1.51723 1.51803 1.50966 1.50129 1.49292 
1.48455 1.47618 1.46781 1.45944 1.45107 1.4427 1.43433 1.42596 1.41759 
1.40922 1.40085 1.39248 1.38411 1.37574 1.36737 1.359 1.35038 1.3404 
1.33043 1.32045 1.31047 1.3005 1.29052 1.28055 1.27057 1.26059 1.25062 
1.24064 1.23066 1.22069 1.21071 1.20074 1.19076 1.18078 1.17081 1.16083 
1.15086 1.14232 1.13399 1.12566 1.11733 1.109 1.10067 1.09234 1.08402 
1.07569 1.06736 1.05903 1.0507 1.04237 1.03404 1.02571 1.01738 1.00905 
1.00072 0.992391 0.984061 0.979167 0.976667 0.974168 0.971669 0.969169 0.96667 
0.964171 0.961672 0.959172 0.956673 0.954174 0.951674 0.949175 0.946676 0.944176 
0.941677 0.939178 0.936679 0.934179 0.93168 0.930219 0.930888 0.931557 0.932226 
0.932895 0.933564 0.934233 0.934902 0.935571 0.93624 0.936909 0.937577 0.938246 
0.938915 0.939584 0.940253 0.940922 0.941591 0.94226 0.942929 0.944023 0.948248 
0.952474 0.9567 0.960926 0.965152 0.969378 0.973604 0.97783 0.982055 0.986281 
0.990507 0.994733 0.998959 1.00318 1.00741 1.01164 1.01586 1.02009 1.02431 
1.02854 1.03277 1.03747 1.04233 1.04718 1.05203 1.05688 1.06173 1.06658 
1.07143 1.07628 1.08114 1.08599 1.09084 1.09569 1.10054 1.10539 1.11024 
1.11509 1.11632 1.11671 1.1171 1.1175 1.11789 1.11828 1.11867 1.11906 
1.11946 1.11985 1.12024 1.12063 1.12102 1.12142 1.12181 1.1222 1.12259 
1.12299 1.12338 1.12377 1.126 1.12937 1.13274 1.13611 1.13948 1.14286 
1.14623 1.1496 1.15297 1.15634 1.15971 1.16308 1.16645 1.16982 1.17319 
1.17656 1.17993 1.1833 1.18667 1.19004 1.19326 1.19608 1.19891 1.20173 
1.20455 1.20738 1.2102 1.21303 1.21585 1.21867 1.2215 1.22432 1.22714 
1.22997 1.23279 1.23562 1.23844 1.24126 1.24409 1.24691 1.24967 1.23963 
1.22958 1.21954 1.2095 1.19945 1.18941 1.17937 1.16932 1.15928 1.14924 
1.13919 1.12915 1.11911 1.10906 1.09902 1.08898 1.07893 1.06889 1.05885 
1.0488 1.04552 1.04475 1.04398 1.04322 1.04245 1.04168 1.04091 1.04015 
1.03938 1.03861 1.03784 1.03707 1.03631 1.03554 1.03477 1.034 1.03324 
1.03247 1.0317 1.03093 1.03464 1.04353 1.05242 1.06131 1.0702 1.07909 
1.08798 1.09687 1.10576 1.11465 1.12354 1.13243 1.14132 1.15021 1.1591 
1.16799 1.17688 1.18577 1.19466 1.20355 1.21074 1.21221 1.21368 1.21515 
1.21662 1.2181 1.21957 1.22104 1.22251 1.22398 1.22545 1.22693 1.2284 
1.22987 1.23134 1.23281 1.23428 1.23576 1.23723 1.2387 1.24005 1.24044 
1.24083 1.24122 1.24161 1.242 1.24239 1.24278 1.24317 1.24356 1.24395 
1.24434 1.24473 1.24512 1.24551 1.2459 1.24629 1.24668 1.24707 1.24746 
1.24819 1.25704 1.26589 1.27474 1.28359 1.29244 1.3013 1.31015 1.319 
1.32785 1.3367 1.34555 1.3544 1.36326 1.37211 1.38096 1.38981 1.39866 
1.40751 1.41636 1.42522 1.43195 1.43831 1.44466 1.45102 1.45737 1.46372 
1.47008 1.47643 1.48279 1.48914 1.4955 1.50185 1.5082 1.51456 1.52091 
1.52727 1.53362 1.53997 1.54633 1.55268 1.55479 1.55412 1.55345 1.55277 
1.5521 1.55142 1.55075 1.55008 1.5494 1.54873 1.54806 1.54738 1.54671 
1.54603 1.54536 1.54469 1.54401 1.54334 1.54267 1.54199 1.53705 1.52395 
1.51085 1.49774 1.48464 1.47154 1.45844 1.44534 1.43224 1.41914 1.40604 
1.39294 1.37984 1.36674 1.35364 1.34054 1.32744 1.31434 1.30124 1.28813 
1.27567 1.2707 1.26574 1.26077 1.25581 1.25084 1.24588 1.24091 1.23595 
1.23098 1.22602 1.22105 1.21609 1.21113 1.20616 1.2012 1.19623 1.19127 
1.1863 1.18134 1.17637 1.17652 1.17785 1.17918 1.18051 1.18184 1.18316 
1.18449 1.18582 1.18715 1.18848 1.18981 1.19114 1.19247 1.1938 1.19512 
1.19645 1.19778 1.19911 1.20044 1.20177 1.19837 1.19131 1.18424 1.17718 
1.17011 1.16305 1.15598 1.14892 1.14185 1.13479 1.12772 1.12066 1.1136 
1.10653 1.09947 1.0924 1.08534 1.07827 1.07121 1.06414 1.06778 1.08676 
1.10575 1.12473 1.14372 1.1627 1.18169 1.20067 1.21966 1.23865 1.25763 
1.27662 1.2956 1.31459 1.33357 1.35256 1.37154 1.39053 1.40951 1.4285 
1.44438 1.44966 1.45493 1.46021 1.46548 1.47076 1.47603 1.4813 1.48658 
1.49185 1.49713 1.5024 1.50768 1.51295 1.51822 1.5235 1.52877 1.53405 
1.53932 1.5446 1.54987 1.54202 1.53383 1.52565 1.51747 1.50928 1.5011 
1.49292 1.48473 1.47655 1.46836 1.46018 1.452 1.44381 1.43563 1.42745 
1.41926 1.41108 1.40289 1.39471 1.38653 1.37393 1.35946 1.345 1.33053 
1.31606 1.3016 1.28713 1.27267 1.2582 1.24374 1.22927 1.21481 1.20034 
1.18588 1.17141 1.15695 1.14248 1.12802 1.11355 1.09909 1.09645 1.1099 
1.12335 1.1368 1.15025 1.1637 1.17715 1.1906 1.20405 1.2175 1.23096 
1.24441 1.25786 1.27131 1.28476 1.29821 1.31166 1.32511 1.33856 1.35201 
1.36684 1.39003 1.41322 1.43641 1.4596 1.48278 1.50597 1.52916 1.55235 
1.57554 1.59872 1.62191 1.6451 1.66829 1.69148 1.71466 1.73785 1.76104 
1.78423 1.80742 1.8306 1.82544 1.81564 1.80584 1.79604 1.78624 1.77644 
1.76664 1.75684 1.74704 1.73724 1.72744 1.71764 1.70784 1.69804 1.68824 
1.67844 1.66864 1.65884 1.64904 1.63924 1.63268 1.62848 1.62428 1.62008 
1.61588 1.61168 1.60749 1.60329 1.59909 1.59489 1.59069 1.58649 1.5823 
1.5781 1.5739 1.5697 1.5655 1.5613 1.55711 1.55291 1.54849 1.54358 
1.53867 1.53375 1.52884 1.52393 1.51902 1.5141 1.50919 1.50428 1.49937 
1.49445 1.48954 1.48463 1.47972 1.4748 1.46989 1.46498 1.46007 1.45516 
1.44953 1.43046 1.41138 1.39231 1.37324 1.35417 1.33509 1.31602 1.29695 
1.27787 1.2588 1.23973 1.22065 1.20158 1.18251 1.16344 1.14436 1.12529 
1.10622 1.08714 1.06807 1.06571 1.06783 1.06995 1.07206 1.07418 1.0763 
1.07842 1.08053 1.08265 1.08477 1.08689 1.089 1.09112 1.09324 1.09536 
1.09747 1.09959 1.10171 1.10383 1.10594 1.11038 1.11694 1.1235 1.13006 
1.13663 1.14319 1.14975 1.15632 1.16288 1.16944 1.176 1.18257 1.18913 
1.19569 1.20225 1.20882 1.21538 1.22194 1.22851 1.23507 1.24025 1.24126 
1.24227 1.24328 1.24429 1.2453 1.24631 1.24732 1.24833 1.24934 1.25035 
1.25136 1.25237 1.25338 1.25439 1.2554 1.25641 1.25742 1.25843 1.25944 
1.26044 1.27133 1.28248 1.29362 1.30476 1.31591 1.32705 1.33819 1.34933 
1.36048 1.37162 1.38276 1.3939 1.40505 1.41619 1.42733 1.43848 1.44962 
1.46076 1.4719 1.48305 1.49428 1.50555 1.51682 1.52808 1.53935 1.55062 
1.56189 1.57316 1.58443 1.5957 1.60697 1.61824 1.62951 1.64077 1.65204 
1.66331 1.67458 1.68585 1.69712 1.70839 1.71758 1.72395 1.73032 1.73669 
1.74307 1.74944 1.75581 1.76218 1.76855 1.77492 1.78129 1.78766 1.79404 
1.80041 1.80678 1.81315 1.81952 1.82589 1.83226 1.83863 1.84547 1.85506 
1.86465 1.87424 1.88383 1.89342 1.903 1.91259 1.92218 1.93177 1.94136 
1.95095 1.96054 1.97012 1.97971 1.9893 1.99889 2.00848 2.01807 2.02766 
2.03725 2.04072 2.04323 2.04574 2.04825 2.05076 2.05327 2.05579 2.0583 
2.06081 2.06332 2.06583 2.06834 2.07085 2.07336 2.07587 2.07838 2.08089 
2.08341 2.08592 2.08843 2.08398 2.07451 2.06503 2.05556 2.04609 2.03662 
2.02715 2.01768 2.00821 1.99874 1.98927 1.97979 1.97032 1.96085 1.95138 
1.94191 1.93244 1.92297 1.9135 1.90403 1.89204 1.87415 1.85626 1.83837 
1.82048 1.80259 1.7847 1.76681 1.74892 1.73103 1.71314 1.69525 1.67736 
1.65947 1.64158 1.62369 1.6058 1.58791 1.57002 1.55213 1.5344 1.52504 
1.51568 1.50632 1.49696 1.4876 1.47824 1.46888 1.45952 1.45016 1.4408 
1.43144 1.42208 1.41272 1.40336 1.394 1.38463 1.37527 1.36591 1.35655 
1.34719 1.3511 1.35963 1.36817 1.3767 1.38524 1.39377 1.40231 1.41084 
1.41937 1.42791 1.43644 1.44498 1.45351 1.46205 1.47058 1.47912 1.48765 
1.49619 1.50472 1.51326 1.51926 1.52238 1.5255 1.52861 1.53173 1.53485 
1.53797 1.54109 1.54421 1.54732 1.55044 1.55356 1.55668 1.5598 1.56291 
1.56603 1.56915 1.57227 1.57539 1.57851 1.5817 1.58522 1.58873 1.59224 
1.59576 1.59927 1.60278 1.60629 1.60981 1.61332 1.61683 1.62035 1.62386 
1.62737 1.63089 1.6344 1.63791 1.64142 1.64494 1.64845 1.65196 1.66109 
1.67057 1.68005 1.68953 1.699 1.70848 1.71796 1.72744 1.73692 1.7464 
1.75587 1.76535 1.77483 1.78431 1.79379 1.80326 1.81274 1.82222 1.8317 
1.84118 1.85143 1.86204 1.87265 1.88326 1.89387 1.90448 1.91509 1.9257 
1.93631 1.94692 1.95753 1.96814 1.97875 1.98936 1.99997 2.01058 2.02119 
2.0318 2.04241 2.05302 2.05482 2.04497 2.03512 2.02527 2.01542 2.00557 
1.99572 1.98587 1.97602 1.96617 1.95632 1.94647 1.93663 1.92678 1.91693 
1.90708 1.89723 1.88738 1.87753 1.86768 1.85565 1.83254 1.80942 1.7863 
1.76318 1.74006 1.71695 1.69383 1.67071 1.64759 1.62447 1.60136 1.57824 
1.55512 1.532 1.50888 1.48577 1.46265 1.43953 1.41641 1.39329 1.39606 
1.40203 1.40799 1.41396 1.41993 1.42589 1.43186 1.43783 1.4438 1.44976 
1.45573 1.4617 1.46766 1.47363 1.4796 1.48556 1.49153 1.4975 1.50346 
1.50943 1.51544 1.52147 1.5275 1.53353 1.53956 1.54559 1.55162 1.55765 
1.56368 1.56971 1.57574 1.58177 1.5878 1.59384 1.59987 1.6059 1.61193 
1.61796 1.62399 1.63002 1.63244 1.62751 1.62259 1.61767 1.61275 1.60783 
1.60291 1.59799 1.59306 1.58814 1.58322 1.5783 1.57338 1.56846 1.56354 
1.55861 1.55369 1.54877 1.54385 1.53893 1.53378 1.52423 1.51468 1.50514 
1.49559 1.48604 1.47649 1.46694 1.4574 1.44785 1.4383 1.42875 1.41921 
1.40966 1.40011 1.39056 1.38101 1.37147 1.36192 1.35237 1.34282 1.34217 
1.34424 1.34631 1.34837 1.35044 1.35251 1.35458 1.35664 1.35871 1.36078 
1.36284 1.36491 1.36698 1.36905 1.37111 1.37318 1.37525 1.37731 1.37938 
1.38145 1.38628 1.39433 1.40238 1.41043 1.41847 1.42652 1.43457 1.44262 
1.45067 1.45872 1.46677 1.47482 1.48286 1.49091 1.49896 1.50701 1.51506 
1.52311 1.53116 1.53921 1.54058 1.54106 1.54153 1.542 1.54247 1.54294 
1.54341 1.54388 1.54435 1.54482 1.54529 1.54576 1.54623 1.5467 1.54718 
1.54765 1.54812 1.54859 1.54906 1.54953 1.55 
TEXTURE_COORDINATES TCoords 2 float
0 0 0.000784929 0 0.00156986 0 0.00235479 0 0.00313972 
0 0.00392465 0 0.00470958 0 0.00549451 0 0.00627944 0 
0.00706436 0 0.00784929 0 0.00863422 0 0.00941915 0 0.0102041 
0 0.010989 0 0.0117739 0 0.0125589 0 0.0133438 0 
0.0141287 0 0.0149137 0 0.0156986 0 0.0164835 0 0.0172684 
0 0.0180534 0 0.0188383 0 0.0196232 0 0.0204082 0 
0.0211931 0 0.021978 0 0.022763 0 0.0235479 0 0.0243328 
0 0.0251177 0 0.0259027 0 0.0266876 0 0.0274725 0 
0.0282575 0 0.0290424 0 0.0298273 0 0.0306122 0 0.0313972 
0 0.0321821 0 0.032967 0 0.033752 0 0.0345369 0 
0.0353218 0 0.0361068 0 0.0368917 0 0.0376766 0 0.0384615 
0 0.0392465 0 0.0400314 0 0.0408163 0 0.0416013 0 
0.0423862 0 0.0431711 0 0.043956 0 0.044741 0 0.0455259 
0 0.0463108 0 0.0470958 0 0.0478807 0 0.0486656 0 
0.0494506 0 0.0502355 0 0.0510204 0 0.0518053 0 0.0525903 
0 0.0533752 0 0.0541601 0 0.0549451 0 0.05573 0 
0.0565149 0 0.0572998 0 0.0580848 0 0.0588697 0 0.0596546 
0 0.0604396 0 0.0612245 0 0.0620094 0 0.0627944 0 
0.0635793 0 0.0643642 0 0.0651491 0 0.0659341 0 0.066719 
0 0.0675039 0 0.0682889 0 0.0690738 0 0.0698587 0 
0.0706436 0 0.0714286 0 0.0722135 0 0.0729984 0 0.0737834 
0 0.0745683 0 0.0753532 0 0.0761381 0 0.0769231 0 
0.077708 0 0.0784929 0 0.0792779 0 0.0800628 0 0.0808477 
0 0.0816327 0 0.0824176 0 0.0832025 0 0.0839874 0 
0.0847724 0 0.0855573 0 0.0863422 0 0.0871272 0 0.0879121 
0 0.088697 0 0.0894819 0 0.0902669 0 0.0910518 0 
0.0918367 0 0.0926217 0 0.0934066 0 0.0941915 0 0.0949765 
0 0.0957614 0 0.0965463 0 0.0973312 0 0.0981162 0 
0.0989011 0 0.099686 0 0.100471 0 0.101256 0 0.102041 
0 0.102826 0 0.103611 0 0.104396 0 0.105181 0 
0.105965 0 0.10675 0 0.107535 0 0.10832 0 0.109105 
0 0.10989 0 0.110675 0 0.11146 0 0.112245 0 
0.11303 0 0.113815 0 0.1146 0 0.115385 0 0.11617 
0 0.116954 0 0.117739 0 0.118524 0 0.119309 0 
0.120094 0 0.120879 0 0.121664 0 0.122449 0 0.123234 
0 0.124019 0 0.124804 0 0.125589 0 0.126374 0 
0.127159 0 0.127943 0 0.128728 0 0.129513 0 0.130298 
0 0.131083 0 0.131868 0 0.132653 0 0.133438 0 
0.134223 0 0.135008 0 0.135793 0 0.136578 0 0.137363 
0 0.138148 0 0.138932 0 0.139717 0 0.140502 0 
0.141287 0 0.142072 0 0.142857 0 0.143642 0 0.144427 
0 0.145212 0 0.145997 0 0.146782 0 0.147567 0 
0.148352 0 0.149137 0 0.149922 0 0.150706 0 0.151491 
0 0.152276 0 0.153061 0 0.153846 0 0.154631 0 
0.155416 0 0.156201 0 0.156986 0 0.157771 0 0.158556 
0 0.159341 0 0.160126 0 0.160911 0 0.161695 0 
0.16248 0 0.163265 0 0.16405 0 0.164835 0 0.16562 
0 0.166405 0 0.16719 0 0.167975 0 0.16876 0 
0.169545 0 0.17033 0 0.171115 0 0.1719 0 0.172684 
0 0.173469 0 0.174254 0 0.175039 0 0.175824 0 
0.176609 0 0.177394 0 0.178179 0 0.178964 0 0.179749 
0 0.180534 0 0.181319 0 0.182104 0 0.182889 0 
0.183673 0 0.184458 0 0.185243 0 0.186028 0 0.186813 
0 0.187598 0 0.188383 0 0.189168 0 0.189953 0 
0.190738 0 0.191523 0 0.192308 0 0.193093 0 0.193878 
0 0.194662 0 0.195447 0 0.196232 0 0.197017 0 
0.197802 0 0.198587 0 0.199372 0 0.200157 0 0.200942 
0 0.201727 0 0.202512 0 0.203297 0 0.204082 0 
0.204867 0 0.205651 0 0.206436 0 0.207221 0 0.208006 
0 0.208791 0 0.209576 0 0.210361 0 0.211146 0 
0.211931 0 0.212716 0 0.213501 0 0.214286 0 0.215071 
0 0.215856 0 0.216641 0 0.217425 0 0.21821 0 
0.218995 0 0.21978 0 0.220565 0 0.22135 0 0.222135 
0 0.22292 0 0.223705 0 0.22449 0 0.225275 0 
0.22606 0 0.226845 0 0.22763 0 0.228414 0 0.229199 
0 0.229984 0 0.230769 0 0.231554 0 0.232339 0 
0.233124 0 0.233909 0 0.234694 0 0.235479 0 0.236264 
0 0.237049 0 0.237834 0 0.238619 0 0.239403 0 
0.240188 0 0.240973 0 0.241758 0 0.242543 0 0.243328 
0 0.244113 0 0.244898 0 0.245683 0 0.246468 0 
0.247253 0 0.248038 0 0.248823 0 0.249608 0 0.250392 
0 0.251177 0 0.251962 0 0.252747 0 0.253532 0 
0.254317 0 0.255102 0 0.255887 0 0.256672 0 0.257457 
0 0.258242 0 0.259027 0 0.259812 0 0.260597 0 
0.261381 0 0.262166 0 0.262951 0 0.263736 0 0.264521 
0 0.265306 0 0.266091 0 0.266876 0 0.267661 0 
0.268446 0 0.269231 0 0.270016 0 0.270801 0 0.271586 
0 0.27237 0 0.273155 0 0.27394 0 0.274725 0 
0.27551 0 0.276295 0 0.27708 0 0.277865 0 0.27865 
0 0.279435 0 0.28022 0 0.281005 0 0.28179 0 
0.282575 0 0.283359 0 0.284144 0 0.284929 0 0.285714 
0 0.286499 0 0.287284 0 0.288069 0 0.288854 0 
0.289639 0 0.290424 0 0.291209 0 0.291994 0 0.292779 
0 0.293564 0 0.294349 0 0.295133 0 0.295918 0 
0.296703 0 0.297488 0 0.298273 0 0.299058 0 0.299843 
0 0.300628 0 0.301413 0 0.302198 0 0.302983 0 
0.303768 0 0.304553 0 0.305338 0 0.306122 0 0.306907 
0 0.307692 0 0.308477 0 0.309262 0 0.310047 0 
0.310832 0 0.311617 0 0.312402 0 0.313187 0 0.313972 
0 0.314757 0 0.315542 0 0.316327 0 0.317111 0 
0.317896 0 0.318681 0 0.319466 0 0.320251 0 0.321036 
0 0.321821 0 0.322606 0 0.323391 0 0.324176 0 
0.324961 0 0.325746 0 0.326531 0 0.327316 0 0.3281 
0 0.328885 0 0.32967 0 0.330455 0 0.33124 0 
0.332025 0 0.33281 0 0.333595 0 0.33438 0 0.335165 
0 0.33595 0 0.336735 0 0.33752 0 0.338305 0 
0.339089 0 0.339874 0 0.340659 0 0.341444 0 0.342229 
0 0.343014 0 0.343799 0 0.344584 0 0.345369 0 
0.346154 0 0.346939 0 0.347724 0 0.348509 0 0.349294 
0 0.350078 0 0.350863 0 0.351648 0 0.352433 0 
0.353218 0 0.354003 0 0.354788 0 0.355573 0 0.356358 
0 0.357143 0 0.357928 0 0.358713 0 0.359498 0 
0.360283 0 0.361068 0 0.361852 0 0.362637 0 0.363422 
0 0.364207 0 0.364992 0 0.365777 0 0.366562 0 
0.367347 0 0.368132 0 0.368917 0 0.369702 0 0.370487 
0 0.371272 0 0.372057 0 0.372841 0 0.373626 0 
0.374411 0 0.375196 0 0.375981 0 0.376766 0 0.377551 
0 0.378336 0 0.379121 0 0.379906 0 0.380691 0 
0.381476 0 0.382261 0 0.383046 0 0.38383 0 0.384615 
0 0.3854 0 0.386185 0 0.38697 0 0.387755 0 
0.38854 0 0.389325 0 0.39011 0 0.390895 0 0.39168 
0 0.392465 0 0.39325 0 0.394035 0 0.394819 0 
0.395604 0 0.396389 0 0.397174 0 0.397959 0 0.398744 
0 0.399529 0 0.400314 0 0.401099 0 0.401884 0 
0.402669 0 0.403454 0 0.404239 0 0.405024 0 0.405808 
0 0.406593 0 0.407378 0 0.408163 0 0.408948 0 
0.409733 0 0.410518 0 0.411303 0 0.412088 0 0.412873 
0 0.413658 0 0.414443 0 0.415228 0 0.416013 0 
0.416797 0 0.417582 0 0.418367 0 0.419152 0 0.419937 
0 0.420722 0 0.421507 0 0.422292 0 0.423077 0 
0.423862 0 0.424647 0 0.425432 0 0.426217 0 0.427002 
0 0.427786 0 0.428571 0 0.429356 0 0.430141 0 
0.430926 0 0.431711 0 0.432496 0 0.433281 0 0.434066 
0 0.434851 0 0.435636 0 0.436421 0 0.437206 0 
0.437991 0 0.438776 0 0.43956 0 0.440345 0 0.44113 
0 0.441915 0 0.4427 0 0.443485 0 0.44427 0 
0.445055 0 0.44584 0 0.446625 0 0.44741 0 0.448195 
0 0.44898 0 0.449765 0 0.450549 0 0.451334 0 
0.452119 0 0.452904 0 0.453689 0 0.454474 0 0.455259 
0 0.456044 0 0.456829 0 0.457614 0 0.458399 0 
0.459184 0 0.459969 0 0.460754 0 0.461538 0 0.462323 
0 0.463108 0 0.463893 0 0.464678 0 0.465463 0 
0.466248 0 0.467033 0 0.467818 0 0.468603 0 0.469388 
0 0.470173 0 0.470958 0 0.471743 0 0.472527 0 
0.473312 0 0.474097 0 0.474882 0 0.475667 0 0.476452 
0 0.477237 0 0.478022 0 0.478807 0 0.479592 0 
0.480377 0 0.481162 0 0.481947 0 0.482732 0 0.483516 
0 0.484301 0 0.485086 0 0.485871 0 0.486656 0 
0.487441 0 0.488226 0 0.489011 0 0.489796 0 0.490581 
0 0.491366 0 0.492151 0 0.492936 0 0.493721 0 
0.494505 0 0.49529 0 0.496075 0 0.49686 0 0.497645 
0 0.49843 0 0.499215 0 0.5 0 0.500785 0 
0.50157 0 0.502355 0 0.50314 0 0.503925 0 0.50471 
0 0.505495 0 0.506279 0 0.507064 0 0.507849 0 
0.508634 0 0.509419 0 0.510204 0 0.510989 0 0.511774 
0 0.512559 0 0.513344 0 0.514129 0 0.514914 0 
0.515699 0 0.516484 0 0.517268 0 0.518053 0 0.518838 
0 0.519623 0 0.520408 0 0.521193 0 0.521978 0 
0.522763 0 0.523548 0 0.524333 0 0.525118 0 0.525903 
0 0.526688 0 0.527473 0 0.528257 0 0.529042 0 
0.529827 0 0.530612 0 0.531397 0 0.532182 0 0.532967 
0 0.533752 0 0.534537 0 0.535322 0 0.536107 0 
0.536892 0 0.537677 0 0.538462 0 0.539246 0 0.540031 
0 0.540816 0 0.541601 0 0.542386 0 0.543171 0 
0.543956 0 0.544741 0 0.545526 0 0.546311 0 0.547096 
0 0.547881 0 0.548666 0 0.549451 0 0.550235 0 
0.55102 0 0.551805 0 0.55259 0 0.553375 0 0.55416 
0 0.554945 0 0.55573 0 0.556515 0 0.5573 0 
0.558085 0 0.55887 0 0.559655 0 0.56044 0 0.561224 
0 0.562009 0 0.562794 0 0.563579 0 0.564364 0 
0.565149 0 0.565934 0 0.566719 0 0.567504 0 0.568289 
0 0.569074 0 0.569859 0 0.570644 0 0.571429 0 
0.572214 0 0.572998 0 0.573783 0 0.574568 0 0.575353 
0 0.576138 0 0.576923 0 0.577708 0 0.578493 0 
0.579278 0 0.580063 0 0.580848 0 0.581633 0 0.582418 
0 0.583203 0 0.583987 0 0.584772 0 0.585557 0 
0.586342 0 0.587127 0 0.587912 0 0.588697 0 0.589482 
0 0.590267 0 0.591052 0 0.591837 0 0.592622 0 
0.593407 0 0.594192 0 0.594976 0 0.595761 0 0.596546 
0 0.597331 0 0.598116 0 0.598901 0 0.599686 0 
0.600471 0 0.601256 0 0.602041 0 0.602826 0 0.603611 
0 0.604396 0 0.605181 0 0.605965 0 0.60675 0 
0.607535 0 0.60832 0 0.609105 0 0.60989 0 0.610675 
0 0.61146 0 0.612245 0 0.61303 0 0.613815 0 
0.6146 0 0.615385 0 0.61617 0 0.616954 0 0.617739 
0 0.618524 0 0.619309 0 0.620094 0 0.620879 0 
0.621664 0 0.622449 0 0.623234 0 0.624019 0 0.624804 
0 0.625589 0 0.626374 0 0.627159 0 0.627943 0 
0.628728 0 0.629513 0 0.630298 0 0.631083 0 0.631868 
0 0.632653 0 0.633438 0 0.634223 0 0.635008 0 
0.635793 0 0.636578 0 0.637363 0 0.638148 0 0.638932 
0 0.639717 0 0.640502 0 0.641287 0 0.642072 0 
0.642857 0 0.643642 0 0.644427 0 0.645212 0 0.645997 
0 0.646782 0 0.647567 0 0.648352 0 0.649137 0 
0.649922 0 0.650706 0 0.651491 0 0.652276 0 0.653061 
0 0.653846 0 0.654631 0 0.655416 0 0.656201 0 