# vtk DataFile Version 4.2
vtk output
ASCII
DATASET POLYDATA
POINTS 1279 float
0 0 0 -0.00392917 -0.00120793 0.000452025 -0.0153868 -0.00472913 0.00176124 
-0.0338781 -0.0104097 0.00385733 -0.0589081 -0.0180957 0.00667002 -0.0899821 -0.0276333 0.010129 
-0.126605 -0.0388686 0.014164 -0.168283 -0.0516476 0.0187046 -0.214519 -0.0658165 0.0236807 
-0.264821 -0.0812214 0.0290218 -0.318692 -0.0977084 0.0346578 -0.375638 -0.115124 0.0405183 
-0.435164 -0.133313 0.0465329 -0.496775 -0.152123 0.0526315 -0.559977 -0.171399 0.0587437 
-0.624275 -0.190988 0.0647991 -0.689173 -0.210736 0.0707276 -0.754177 -0.230488 0.0764588 
-0.818792 -0.250091 0.0819225 -0.882523 -0.269392 0.0870482 -0.944876 -0.288235 0.0917657 
-1.00536 -0.30647 0.096006 -1.06377 -0.324031 0.0997416 -1.12022 -0.340954 0.102996 
-1.17484 -0.357282 0.105794 -1.22778 -0.37306 0.108164 -1.27917 -0.388331 0.110131 
-1.32914 -0.403137 0.11172 -1.37785 -0.417523 0.11296 -1.42542 -0.431531 0.113875 
-1.472 -0.445206 0.114491 -1.51771 -0.458589 0.114836 -1.56271 -0.471725 0.114936 
-1.60712 -0.484657 0.114815 -1.65108 -0.497429 0.114502 -1.69474 -0.510083 0.114021 
-1.73823 -0.522663 0.113399 -1.78169 -0.535213 0.112663 -1.82525 -0.547775 0.111838 
-1.86905 -0.560393 0.11095 -1.91324 -0.573111 0.110027 -1.95794 -0.58597 0.109093 
-2.0032 -0.598984 0.108159 -2.04899 -0.612143 0.107222 -2.09526 -0.625436 0.106279 
-2.14198 -0.63885 0.105328 -2.18912 -0.652376 0.104365 -2.23664 -0.666001 0.103387 
-2.2845 -0.679714 0.102391 -2.33267 -0.693504 0.101375 -2.3811 -0.70736 0.100336 
-2.42977 -0.72127 0.0992691 -2.47863 -0.735223 0.0981731 -2.52765 -0.749208 0.0970445 
-2.57679 -0.763214 0.0958803 -2.62602 -0.777228 0.0946775 -2.6753 -0.791241 0.0934332 
-2.7246 -0.80524 0.0921443 -2.77387 -0.819214 0.0908079 -2.82308 -0.833152 0.089421 
-2.87219 -0.847043 0.0879805 -2.92117 -0.860875 0.0864836 -2.96999 -0.874641 0.084933 
-3.01866 -0.888343 0.0833496 -3.06719 -0.901988 0.0817577 -3.1156 -0.915581 0.0801818 
-3.16389 -0.929126 0.0786462 -3.21209 -0.942631 0.0771753 -3.2602 -0.956099 0.0757935 
-3.30824 -0.969536 0.0745252 -3.35622 -0.982948 0.0733946 -3.40416 -0.996341 0.0724263 
-3.45206 -1.00972 0.0716446 -3.49995 -1.02309 0.0710738 -3.54784 -1.03645 0.0707384 
-3.59574 -1.04982 0.0706627 -3.64365 -1.06319 0.0708711 -3.69161 -1.07658 0.071388 
-3.73961 -1.08999 0.0722377 -3.78768 -1.10342 0.0734447 -3.83583 -1.11687 0.0750333 
-3.88406 -1.13036 0.0770278 -3.9324 -1.1439 0.0794539 -3.98081 -1.15748 0.0823454 
-4.02926 -1.17114 0.0857394 -4.0777 -1.18489 0.0896733 -4.1261 -1.19875 0.0941843 
-4.17443 -1.21273 0.0993096 -4.22264 -1.22684 0.105087 -4.27069 -1.24112 0.111552 
-4.31856 -1.25557 0.118744 -4.36619 -1.27021 0.1267 -4.41355 -1.28507 0.135456 
-4.4606 -1.30015 0.145049 -4.5073 -1.31547 0.155518 -4.55363 -1.33105 0.1669 
-4.59952 -1.34691 0.179231 -4.64496 -1.36306 0.192549 -4.6899 -1.37953 0.206891 
-4.7343 -1.39633 0.222295 -4.77812 -1.41347 0.238797 -4.82133 -1.43097 0.256435 
-4.86389 -1.44886 0.275244 -4.90578 -1.46714 0.295205 -4.94701 -1.48582 0.316262 
-4.98756 -1.50491 0.338354 -5.02745 -1.52442 0.361421 -5.06667 -1.54437 0.385405 
-5.10522 -1.56475 0.410245 -5.1431 -1.58558 0.435881 -5.18032 -1.60687 0.462255 
-5.21687 -1.62863 0.489307 -5.25276 -1.65086 0.516977 -5.28798 -1.67358 0.545205 
-5.32253 -1.6968 0.573932 -5.35642 -1.72052 0.603097 -5.38964 -1.74475 0.632643 
-5.4222 -1.7695 0.662508 -5.4541 -1.79479 0.692634 -5.48532 -1.82062 0.722961 
-5.51589 -1.847 0.753428 -5.54579 -1.87393 0.783977 -5.57503 -1.90144 0.814549 
-5.60362 -1.92952 0.845094 -5.63161 -1.95814 0.875584 -5.65905 -1.9873 0.905988 
-5.68598 -2.01698 0.936277 -5.71244 -2.04716 0.966424 -5.73849 -2.07783 0.996397 
-5.76416 -2.10895 1.02617 -5.78951 -2.14053 1.05571 -5.81458 -2.17254 1.08499 
-5.83942 -2.20496 1.11398 -5.86407 -2.23778 1.14265 -5.88858 -2.27098 1.17098 
-5.913 -2.30454 1.19893 -5.93737 -2.33845 1.22647 -5.96173 -2.37269 1.25358 
-5.98614 -2.40723 1.28023 -6.01063 -2.44207 1.30638 -6.03527 -2.47719 1.33201 
-6.06008 -2.51257 1.35708 -6.08512 -2.54819 1.38158 -6.11042 -2.58403 1.40548 
-6.13599 -2.6201 1.42878 -6.16181 -2.65636 1.45149 -6.18788 -2.69283 1.47364 
-6.21419 -2.72947 1.49523 -6.24073 -2.7663 1.51627 -6.2675 -2.80328 1.53678 
-6.29448 -2.84043 1.55678 -6.32166 -2.87772 1.57626 -6.34905 -2.91514 1.59525 
-6.37663 -2.95269 1.61375 -6.40439 -2.99036 1.63179 -6.43233 -3.02813 1.64937 
-6.46044 -3.06599 1.66651 -6.4887 -3.10394 1.68321 -6.51712 -3.14197 1.69949 
-6.54569 -3.18006 1.71537 -6.57439 -3.21821 1.73085 -6.60321 -3.2564 1.74595 
-6.63216 -3.29462 1.76068 -6.66122 -3.33288 1.77506 -6.69039 -3.37115 1.78908 
-6.71967 -3.40945 1.80275 -6.74904 -3.44777 1.81608 -6.77852 -3.48611 1.82907 
-6.8081 -3.52447 1.84172 -6.83777 -3.56285 1.85404 -6.86753 -3.60125 1.86602 
-6.89739 -3.63967 1.87767 -6.92733 -3.67812 1.889 -6.95736 -3.71658 1.90001 
-6.98746 -3.75506 1.9107 -7.01765 -3.79356 1.92107 -7.04792 -3.83208 1.93113 
-7.07825 -3.87061 1.94088 -7.10866 -3.90917 1.95032 -7.13914 -3.94774 1.95946 
-7.16969 -3.98633 1.9683 -7.2003 -4.02493 1.97685 -7.23097 -4.06356 1.9851 
-7.26169 -4.10219 1.99306 -7.29248 -4.14085 2.00074 -7.32331 -4.17952 2.00813 
-7.35418 -4.21822 2.01523 -7.38508 -4.25695 2.02206 -7.41602 -4.2957 2.02862 
-7.44698 -4.33448 2.03489 -7.47795 -4.37329 2.0409 -7.50893 -4.41214 2.04664 
-7.53992 -4.45103 2.05211 -7.57091 -4.48996 2.05732 -7.60189 -4.52893 2.06227 
-7.63285 -4.56795 2.06696 -7.66379 -4.60702 2.07139 -7.69471 -4.64614 2.07557 
-7.72559 -4.68531 2.0795 -7.75643 -4.72454 2.08318 -7.78722 -4.76383 2.08662 
-7.81796 -4.80319 2.08981 -7.84865 -4.8426 2.09277 -7.87927 -4.88209 2.09549 
-7.90981 -4.92164 2.09797 -7.94028 -4.96127 2.10021 -7.97066 -5.00098 2.10222 
-8.00094 -5.04077 2.10399 -8.03112 -5.08065 2.10553 -8.06119 -5.12062 2.10682 
-8.09113 -5.16068 2.10787 -8.12095 -5.20085 2.10868 -8.15063 -5.24112 2.10924 
-8.18016 -5.2815 2.10956 -8.20954 -5.32199 2.10964 -8.23875 -5.36259 2.10947 
-8.2678 -5.40332 2.10905 -8.29667 -5.44418 2.10839 -8.32535 -5.48516 2.10748 
-8.35383 -5.52627 2.10631 -8.38212 -5.56753 2.1049 -8.41019 -5.60893 2.10324 
-8.43804 -5.65047 2.10132 -8.46566 -5.69216 2.09915 -8.49305 -5.73401 2.09672 
-8.52018 -5.77601 2.09404 -8.54706 -5.81818 2.0911 -8.57366 -5.8605 2.0879 
-8.59997 -5.90299 2.08444 -8.62597 -5.94564 2.08072 -8.65166 -5.98846 2.07673 
-8.67702 -6.03145 2.07247 -8.70204 -6.0746 2.06795 -8.7267 -6.11793 2.06316 
-8.75099 -6.16144 2.0581 -8.77489 -6.20511 2.05276 -8.7984 -6.24897 2.04715 
-8.8215 -6.29301 2.04127 -8.84418 -6.33723 2.03511 -8.86641 -6.38163 2.02866 
-8.8882 -6.42622 2.02194 -8.90952 -6.47099 2.01494 -8.93037 -6.51595 2.00765 
-8.95072 -6.56111 2.00007 -8.97057 -6.60646 1.99221 -8.9899 -6.652 1.98406 
-9.00871 -6.69772 1.97562 -9.02698 -6.74361 1.96691 -9.04471 -6.78968 1.95793 
-9.06189 -6.8359 1.94867 -9.0785 -6.88228 1.93914 -9.09454 -6.92881 1.92934 
-9.10999 -6.97548 1.91929 -9.12486 -7.02228 1.90897 -9.13912 -7.06921 1.8984 
-9.15277 -7.11625 1.88758 -9.16581 -7.16341 1.87651 -9.17821 -7.21068 1.8652 
-9.18997 -7.25804 1.85365 -9.20109 -7.30549 1.84185 -9.21154 -7.35303 1.82983 
-9.22133 -7.40064 1.81757 -9.23044 -7.44833 1.80508 -9.23886 -7.49607 1.79238 
-9.24659 -7.54387 1.77945 -9.25361 -7.59172 1.7663 -9.25995 -7.63961 1.75295 
-9.26559 -7.68754 1.7394 -9.27055 -7.73549 1.72567 -9.27483 -7.78346 1.71175 
-9.27844 -7.83144 1.69765 -9.28138 -7.87943 1.6834 -9.28367 -7.92741 1.66899 
-9.2853 -7.97538 1.65443 -9.28628 -8.02333 1.63974 -9.28662 -8.07125 1.62491 
-9.28633 -8.11915 1.60996 -9.28541 -8.167 1.59491 -9.28386 -8.2148 1.57974 
-9.2817 -8.26255 1.56449 -9.27892 -8.31024 1.54914 -9.27554 -8.35785 1.53372 
-9.27156 -8.40539 1.51823 -9.26698 -8.45284 1.50267 -9.26182 -8.50019 1.48707 
-9.25607 -8.54745 1.47142 -9.24975 -8.59461 1.45573 -9.24287 -8.64167 1.44002 
-9.23544 -8.68862 1.42427 -9.22745 -8.73548 1.40851 -9.21894 -8.78223 1.39274 
-9.20989 -8.82888 1.37696 -9.20033 -8.87543 1.36118 -9.19025 -8.92187 1.34541 
-9.17968 -8.96821 1.32965 -9.16861 -9.01444 1.31391 -9.15707 -9.06057 1.29819 
-9.14505 -9.10659 1.28251 -9.13256 -9.15251 1.26687 -9.11962 -9.19832 1.25127 
-9.10624 -9.24403 1.23572 -9.09241 -9.28962 1.22023 -9.07817 -9.33511 1.20481 
-9.0635 -9.3805 1.18945 -9.04842 -9.42577 1.17417 -9.03294 -9.47094 1.15897 
-9.01707 -9.51599 1.14387 -9.00081 -9.56094 1.12886 -8.98416 -9.60578 1.11395 
-8.96714 -9.65052 1.09916 -8.94975 -9.69514 1.08449 -8.932 -9.73967 1.06994 
-8.91388 -9.78408 1.05553 -8.89541 -9.82839 1.04126 -8.8766 -9.87259 1.02714 
-8.85744 -9.91669 1.01318 -8.83794 -9.96069 0.999379 -8.81812 -10.0046 0.985752 
-8.79797 -10.0484 0.972305 -8.7775 -10.0921 0.959044 -8.75672 -10.1356 0.945978 
-8.73563 -10.1791 0.933113 -8.71424 -10.2225 0.920457 -8.69255 -10.2658 0.908017 
-8.67057 -10.3089 0.895802 -8.64831 -10.352 0.883818 -8.62577 -10.395 0.872073 
-8.60295 -10.4379 0.860576 -8.57985 -10.4807 0.849336 -8.55647 -10.5234 0.838361 
-8.53282 -10.566 0.82766 -8.50888 -10.6086 0.817241 -8.48468 -10.651 0.807113 
-8.4602 -10.6934 0.797285 -8.43544 -10.7358 0.787765 -8.41042 -10.778 0.778562 
-8.38512 -10.8202 0.769684 -8.35955 -10.8624 0.76114 -8.33371 -10.9045 0.752939 
-8.30761 -10.9465 0.745089 -8.28123 -10.9885 0.737599 -8.25459 -11.0305 0.730477 
-8.22768 -11.0724 0.723732 -8.20051 -11.1143 0.717373 -8.17308 -11.1562 0.711408 
-8.14538 -11.198 0.705846 -8.11742 -11.2399 0.700709 -8.08922 -11.2816 0.696056 
-8.0608 -11.3234 0.691949 -8.03216 -11.365 0.688453 -8.00334 -11.4065 0.68563 
-7.97435 -11.448 0.683545 -7.9452 -11.4893 0.68226 -7.91592 -11.5304 0.681838 
-7.88651 -11.5715 0.682344 -7.857 -11.6123 0.683841 -7.82741 -11.6529 0.686393 
-7.79775 -11.6933 0.690062 -7.76804 -11.7335 0.694912 -7.7383 -11.7734 0.701006 
-7.70854 -11.8131 0.708409 -7.67879 -11.8525 0.717183 -7.64905 -11.8916 0.727392 
-7.61935 -11.9303 0.7391 -7.58971 -11.9688 0.752369 -7.56014 -12.0069 0.767263 
[...]
CELL_DATA 1
FIELD FieldData 2
Length 1 1 double
63.907300627 
Tortuosity 1 1 double
0.51944842638 
POINT_DATA 1279
SCALARS MaximumInscribedSphereRadius float
LOOKUP_TABLE default
0.93 0.935126 0.940252 0.945378 0.950505 0.955631 0.960757 0.965883 0.971009 
0.976135 0.981261 0.986388 0.991514 0.99664 1.00177 1.00689 1.01202 1.01714 
1.02227 1.0274 1.03252 1.03781 1.04333 1.04884 1.05436 1.05987 1.06538 
1.0709 1.07641 1.08193 1.08744 1.09295 1.09847 1.10398 1.1095 1.11501 
1.12052 1.12604 1.13155 1.13707 1.14258 1.14548 1.14624 1.147 1.14776 
1.14851 1.14927 1.15003 1.15079 1.15155 1.15231 1.15307 1.15383 1.15459 
1.15535 1.15611 1.15687 1.15763 1.15839 1.15914 1.1599 1.15943 1.14548 
1.13153 1.11759 1.10364 1.08969 1.07574 1.06179 1.04784 1.03389 1.01994 
1.00599 0.99204 0.978091 0.964141 0.950192 0.936242 0.922293 0.908343 0.894394 
0.880445 0.882918 0.888947 0.894975 0.901004 0.907033 0.913061 0.91909 0.925119 
0.931148 0.937176 0.943205 0.949234 0.955263 0.961291 0.96732 0.973349 0.979378 
0.985406 0.991435 0.997464 1.01893 1.05168 1.08443 1.11717 1.14992 1.18267 
1.21542 1.24817 1.28092 1.31367 1.34642 1.37917 1.41192 1.44467 1.47742 
1.51016 1.54291 1.57566 1.60841 1.64116 1.66206 1.66112 1.66019 1.65925 
1.65832 1.65738 1.65644 1.65551 1.65457 1.65363 1.6527 1.65176 1.65082 
1.64989 1.64895 1.64801 1.64708 1.64614 1.64521 1.64427 1.64339 1.64388 
1.64437 1.64486 1.64535 1.64584 1.64633 1.64682 1.64731 1.6478 1.64829 
1.64878 1.64927 1.64976 1.65025 1.65074 1.65123 1.65172 1.65221 1.6527 
1.65319 1.65873 1.66594 1.67315 1.68035 1.68756 1.69477 1.70198 1.70919 
1.71639 1.7236 1.73081 1.73802 1.74523 1.75243 1.75964 1.76685 1.77406 
1.78127 1.78847 1.79568 1.79776 1.79388 1.78999 1.78611 1.78222 1.77834 
1.77445 1.77056 1.76668 1.76279 1.75891 1.75502 1.75113 1.74725 1.74336 
1.73948 1.73559 1.73171 1.72782 1.72393 1.71877 1.70737 1.69596 1.68456 
1.67316 1.66176 1.65036 1.63896 1.62756 1.61616 1.60476 1.59335 1.58195 
1.57055 1.55915 1.54775 1.53635 1.52495 1.51355 1.50215 1.49074 1.48461 
1.4792 1.47378 1.46837 1.46295 1.45754 1.45212 1.4467 1.44129 1.43587 
1.43046 1.42504 1.41963 1.41421 1.4088 1.40338 1.39797 1.39255 1.38714 
1.38172 1.38152 1.38495 1.38837 1.39179 1.39522 1.39864 1.40207 1.40549 
1.40892 1.41234 1.41577 1.41919 1.42262 1.42604 1.42946 1.43289 1.43631 
1.43974 1.44316 1.44659 1.44966 1.45194 1.45422 1.4565 1.45877 1.46105 
1.46333 1.46561 1.46789 1.47017 1.47244 1.47472 1.477 1.47928 1.48156 
1.48384 1.48612 1.48839 1.49067 1.49295 1.49475 1.47884 1.46294 1.44703 
1.43112 1.41521 1.39931 1.3834 1.36749 1.35158 1.33568 1.31977 1.30386 
1.28795 1.27204 1.25614 1.24023 1.22432 1.20841 1.19251 1.1766 1.15959 
1.14219 1.12478 1.10738 1.08998 1.07258 1.05517 1.03777 1.02037 1.00297 
0.985566 0.968164 0.950762 0.933359 0.915957 0.898555 0.881153 0.863751 0.846349 
0.828947 0.820372 0.822635 0.824898 0.827161 0.829425 0.831688 0.833951 0.836214 
0.838477 0.840741 0.843004 0.845267 0.84753 0.849793 0.852057 0.85432 0.856583 
0.858846 0.861109 0.863372 0.867608 0.882679 0.897749 0.912819 0.927889 0.942959 
0.958029 0.9731 0.98817 1.00324 1.01831 1.03338 1.04845 1.06352 1.07859 
1.09366 1.10873 1.1238 1.13887 1.15394 1.16901 1.1884 1.20847 1.22853 
1.2486 1.26867 1.28874 1.3088 1.32887 1.34894 1.36901 1.38907 1.40914 
1.42921 1.44927 1.46934 1.48941 1.50948 1.52954 1.54961 1.56968 1.57768 
1.58335 1.58902 1.5947 1.60037 1.60604 1.61171 1.61739 1.62306 1.62873 
1.63441 1.64008 1.64575 1.65142 1.6571 1.66277 1.66844 1.67412 1.67979 
1.68546 1.68043 1.65655 1.63267 1.60879 1.5849 1.56102 1.53714 1.51326 
1.48938 1.4655 1.44162 1.41773 1.39385 1.36997 1.34609 1.32221 1.29833 
1.27445 1.25056 1.22668 1.20526 1.19941 1.19357 1.18772 1.18188 1.17604 
1.17019 1.16435 1.1585 1.15266 1.14682 1.14097 1.13513 1.12928 1.12344 
1.1176 1.11175 1.10591 1.10006 1.09422 1.08838 1.10085 1.1171 1.13334 
1.14958 1.16583 1.18207 1.19831 1.21456 1.2308 1.24704 1.26328 1.27953 
1.29577 1.31201 1.32826 1.3445 1.36074 1.37699 1.39323 1.40947 1.42302 
1.43447 1.44592 1.45737 1.46882 1.48027 1.49172 1.50317 1.51462 1.52607 
1.53752 1.54897 1.56042 1.57187 1.58332 1.59477 1.60622 1.61767 1.62912 
1.64057 1.65076 1.65768 1.66459 1.6715 1.67842 1.68533 1.69224 1.69916 
1.70607 1.71298 1.7199 1.72681 1.73373 1.74064 1.74755 1.75447 1.76138 
1.76829 1.77521 1.78212 1.78903 1.79029 1.79146 1.79264 1.79381 1.79498 
1.79615 1.79732 1.79849 1.79966 1.80083 1.802 1.80317 1.80435 1.80552 
1.80669 1.80786 1.80903 1.8102 1.81137 1.81254 1.8091 1.80362 1.79814 
1.79267 1.78719 1.78172 1.77624 1.77076 1.76529 1.75981 1.75434 1.74886 
1.74338 1.73791 1.73243 1.72696 1.72148 1.716 1.71053 1.70505 1.69922 
1.69287 1.68652 1.68017 1.67382 1.66747 1.66112 1.65477 1.64842 1.64207 
1.63572 1.62937 1.62302 1.61667 1.61031 1.60396 1.59761 1.59126 1.58491 
1.57856 1.5728 1.57167 1.57054 1.56941 1.56828 1.56715 1.56602 1.56489 
1.56376 1.56263 1.5615 1.56037 1.55924 1.55811 1.55698 1.55585 1.55472 
1.55359 1.55246 1.55133 1.5502 1.55 1.55 1.55 1.55 1.55 
1.55 1.55 1.55 1.55 1.55 1.55 1.55 1.55 1.55 
1.55 1.55 1.55 1.55 1.55 1.55 1.55213 1.55615 1.56016 
1.56418 1.56819 1.57221 1.57623 1.58024 1.58426 1.58827 1.59229 1.5963 
1.60032 1.60433 1.60835 1.61237 1.61638 1.6204 1.62441 1.62843 1.63304 
1.63956 1.64608 1.6526 1.65912 1.66564 1.67216 1.67868 1.6852 1.69172 
1.69824 1.70475 1.71127 1.71779 1.72431 1.73083 1.73735 1.74387 1.75039 
1.75691 1.76343 1.76709 1.7706 1.77411 1.77762 1.78113 1.78464 1.78815 
1.79166 1.79517 1.79868 1.80219 1.8057 1.80921 1.81272 1.81623 1.81974 
1.82325 1.82676 1.83027 1.83378 1.83228 1.8282 1.82412 1.82004 1.81596 
1.81188 1.8078 1.80372 1.79964 1.79556 1.79148 1.78741 1.78333 1.77925 
1.77517 1.77109 1.76701 1.76293 1.75885 1.75477 1.7512 1.74848 1.74577 
1.74306 1.74034 1.73763 1.73492 1.7322 1.72949 1.72678 1.72406 1.72135 
1.71864 1.71592 1.71321 1.7105 1.70778 1.70507 1.70236 1.69964 1.69736 
1.69991 1.70246 1.70501 1.70756 1.71011 1.71266 1.71521 1.71777 1.72032 
1.72287 1.72542 1.72797 1.73052 1.73307 1.73562 1.73817 1.74073 1.74328 
1.74583 1.74838 1.75239 1.75678 1.76118 1.76557 1.76996 1.77436 1.77875 
1.78314 1.78754 1.79193 1.79632 1.80072 1.80511 1.8095 1.8139 1.81829 
1.82268 1.82708 1.83147 1.83586 1.84089 1.84655 1.8522 1.85786 1.86351 
1.86917 1.87483 1.88048 1.88614 1.89179 1.89745 1.9031 1.90876 1.91442 
1.92007 1.92573 1.93138 1.93704 1.94269 1.94835 1.95424 1.96097 1.96771 
1.97444 1.98117 1.98791 1.99464 2.00138 2.00811 2.01485 2.02158 2.02831 
2.03505 2.04178 2.04852 2.05525 2.06199 2.06872 2.07546 2.08219 2.08892 
2.0956 2.10227 2.10893 2.1156 2.12227 2.12894 2.13561 2.14228 2.14895 
2.15561 2.16228 2.16895 2.17562 2.18229 2.18896 2.19563 2.20229 2.20896 
2.21563 2.2223 2.22891 2.23549 2.24207 2.24864 2.25522 2.2618 2.26838 
2.27496 2.28153 2.28811 2.29469 2.30127 2.30784 2.31442 2.321 2.32758 
2.33416 2.34073 2.34731 2.35389 2.35928 2.36244 2.36559 2.36874 2.3719 
2.37505 2.3782 2.38136 2.38451 2.38766 2.39082 2.39397 2.39713 2.40028 
2.40343 2.40659 2.40974 2.41289 2.41605 2.4192 2.42195 2.41781 2.41367 
2.40953 2.40539 2.40125 2.39711 2.39297 2.38883 2.38469 2.38055 2.37641 
2.37227 2.36813 2.36399 2.35985 2.35571 2.35157 2.34743 2.34329 2.33915 
2.3332 2.32669 2.32019 2.31368 2.30717 2.30066 2.29415 2.28764 2.28113 
2.27462 2.26811 2.2616 2.25509 2.24858 2.24208 2.23557 2.22906 2.22255 
2.21604 2.20953 2.2099 2.21793 2.22596 2.23398 2.24201 2.25004 2.25807 
2.2661 2.27413 2.28216 2.29018 2.29821 2.30624 2.31427 2.3223 2.33033 
2.33836 2.34639 2.35441 2.36244 2.37139 2.38444 2.39749 2.41055 2.4236 
2.43665 2.44971 2.46276 2.47581 2.48887 2.50192 2.51497 2.52803 2.54108 
2.55413 2.56719 2.58024 2.59329 2.60635 2.6194 2.63245 2.63807 2.64276 
2.64745 2.65214 2.65683 2.66153 2.66622 2.67091 2.6756 2.68029 2.68499 
2.68968 2.69437 2.69906 2.70376 2.70845 2.71314 2.71783 2.72252 2.72722 
2.72512 2.71847 2.71182 2.70518 2.69853 2.69188 2.68523 2.67859 2.67194 
2.66529 2.65864 2.652 2.64535 2.6387 2.63205 2.6254 2.61876 2.61211 
2.60546 2.59881 2.59173 2.58366 2.57559 2.56753 2.55946 2.55139 2.54332 
2.53526 2.52719 2.51912 2.51105 2.50298 2.49492 2.48685 2.47878 2.47071 
2.46265 2.45458 2.44651 2.43844 2.43026 2.41561 2.40095 2.3863 2.37164 
2.35698 2.34233 2.32767 2.31301 2.29836 2.2837 2.26904 2.25439 2.23973 
2.22507 2.21042 2.19576 2.18111 2.16645 2.15179 2.13714 2.12343 2.11007 
2.09672 2.08337 2.07002 2.05667 2.04332 2.02997 2.01661 2.00326 1.98991 
1.97656 1.96321 1.94986 1.93651 1.92315 1.9098 1.89645 1.8831 1.86975 
1.85877 1.85088 1.84299 1.8351 1.82721 1.81932 1.81143 1.80354 1.79565 
1.78775 1.77986 1.77197 1.76408 1.75619 1.7483 1.74041 1.73252 1.72463 
1.71674 1.70885 1.70174 1.69927 1.6968 1.69432 1.69185 1.68938 1.6869 
1.68443 1.68196 1.67948 1.67701 1.67454 1.67206 1.66959 1.66712 1.66464 
1.66217 1.6597 1.65722 1.65475 1.65228 1.66163 1.67297 1.68432 1.69566 
1.70701 1.71835 1.7297 1.74105 1.75239 1.76374 1.77508 1.78643 1.79777 
1.80912 1.82046 1.83181 1.84315 1.8545 1.86584 1.87719 1.89296 1.91202 
1.93108 1.95014 1.9692 1.98826 2.00732 2.02638 2.04544 2.06451 2.08357 
2.10263 2.12169 2.14075 2.15981 2.17887 2.19793 2.21699 2.23606 2.25512 
2.26746 2.26383 2.26019 2.25656 2.25292 2.24929 2.24565 2.24202 2.23838 
2.23475 2.23111 2.22747 2.22384 2.2202 2.21657 2.21293 2.2093 2.20566 
2.20203 2.19839 2.19458 2.17349 2.1524 2.13131 2.11022 2.08913 2.06804 
2.04695 2.02586 2.00477 1.98368 1.96259 1.9415 1.92041 1.89931 1.87822 
1.85713 1.83604 1.81495 1.79386 1.77277 1.77095 1.77668 1.7824 1.78812 
1.79384 1.79957 1.80529 1.81101 1.81674 1.82246 1.82818 1.8339 1.83963 
1.84535 1.85107 1.8568 1.86252 1.86824 1.87396 1.87969 1.89493 1.92254 
1.95016 1.97777 2.00538 2.03299 2.06061 2.08822 2.11583 2.14344 2.17106 
2.19867 2.22628 2.25389 2.2815 2.30912 2.33673 2.36434 2.39195 2.41957 
2.44439 2.45081 2.45722 2.46364 2.47006 2.47648 2.4829 2.48932 2.49574 
2.50216 2.50858 2.515 2.52141 2.52783 2.53425 2.54067 2.54709 2.55351 
2.55993 2.56635 2.57277 2.56012 2.54498 2.52984 2.5147 2.49956 2.48442 
2.46928 2.45414 2.43899 2.42385 2.40871 2.39357 2.37843 2.36329 2.34815 
2.33301 2.31787 2.30273 2.28759 2.27245 2.2623 2.25828 2.25425 2.25022 
2.2462 2.24217 2.23815 2.23412 2.2301 2.22607 2.22204 2.21802 2.21399 
2.20997 2.20594 2.20192 2.19789 2.19386 2.18984 2.18581 2.18371 2.18302 
2.18234 2.18165 2.18096 2.18028 2.17959 2.17891 2.17822 2.17754 2.17685 
2.17617 2.17548 2.1748 2.17411 2.17343 2.17274 2.17206 2.17137 2.17069 
2.17 
TEXTURE_COORDINATES TCoords 2 float
0 0 0.000782473 0 0.00156495 0 0.00234742 0 0.00312989 
0 0.00391236 0 0.00469484 0 0.00547731 0 0.00625978 0 
0.00704225 0 0.00782473 0 0.0086072 0 0.00938967 0 0.0101721 
0 0.0109546 0 0.0117371 0 0.0125196 0 0.013302 0 
0.0140845 0 0.014867 0 0.0156495 0 0.0164319 0 0.0172144 
0 0.0179969 0 0.0187793 0 0.0195618 0 0.0203443 0 
0.0211268 0 0.0219092 0 0.0226917 0 0.0234742 0 0.0242567 
0 0.0250391 0 0.0258216 0 0.0266041 0 0.0273865 0 
0.028169 0 0.0289515 0 0.029734 0 0.0305164 0 0.0312989 
0 0.0320814 0 0.0328638 0 0.0336463 0 0.0344288 0 
0.0352113 0 0.0359937 0 0.0367762 0 0.0375587 0 0.0383412 
0 0.0391236 0 0.0399061 0 0.0406886 0 0.041471 0 
0.0422535 0 0.043036 0 0.0438185 0 0.0446009 0 0.0453834 
0 0.0461659 0 0.0469484 0 0.0477308 0 0.0485133 0 
0.0492958 0 0.0500782 0 0.0508607 0 0.0516432 0 0.0524257 
0 0.0532081 0 0.0539906 0 0.0547731 0 0.0555556 0 
0.056338 0 0.0571205 0 0.057903 0 0.0586854 0 0.0594679 
0 0.0602504 0 0.0610329 0 0.0618153 0 0.0625978 0 
0.0633803 0 0.0641628 0 0.0649452 0 0.0657277 0 0.0665102 
0 0.0672926 0 0.0680751 0 0.0688576 0 0.0696401 0 
0.0704225 0 0.071205 0 0.0719875 0 0.07277 0 0.0735524 
0 0.0743349 0 0.0751174 0 0.0758998 0 0.0766823 0 
0.0774648 0 0.0782473 0 0.0790297 0 0.0798122 0 0.0805947 
0 0.0813771 0 0.0821596 0 0.0829421 0 0.0837246 0 
0.084507 0 0.0852895 0 0.086072 0 0.0868545 0 0.0876369 
0 0.0884194 0 0.0892019 0 0.0899843 0 0.0907668 0 
0.0915493 0 0.0923318 0 0.0931142 0 0.0938967 0 0.0946792 
0 0.0954617 0 0.0962441 0 0.0970266 0 0.0978091 0 
0.0985916 0 0.099374 0 0.100156 0 0.100939 0 0.101721 
0 0.102504 0 0.103286 0 0.104069 0 0.104851 0 
0.105634 0 0.106416 0 0.107199 0 0.107981 0 0.108764 
0 0.109546 0 0.110329 0 0.111111 0 0.111894 0 
0.112676 0 0.113459 0 0.114241 0 0.115023 0 0.115806 
0 0.116588 0 0.117371 0 0.118153 0 0.118936 0 
0.119718 0 0.120501 0 0.121283 0 0.122066 0 0.122848 
0 0.123631 0 0.124413 0 0.125196 0 0.125978 0 
0.126761 0 0.127543 0 0.128326 0 0.129108 0 0.12989 
0 0.130673 0 0.131455 0 0.132238 0 0.13302 0 
0.133803 0 0.134585 0 0.135368 0 0.13615 0 0.136933 
0 0.137715 0 0.138498 0 0.13928 0 0.140063 0 
0.140845 0 0.141628 0 0.14241 0 0.143192 0 0.143975 
0 0.144757 0 0.14554 0 0.146322 0 0.147105 0 
0.147887 0 0.14867 0 0.149452 0 0.150235 0 0.151017 
0 0.1518 0 0.152582 0 0.153365 0 0.154147 0 
0.15493 0 0.155712 0 0.156495 0 0.157277 0 0.158059 
0 0.158842 0 0.159624 0 0.160407 0 0.161189 0 
0.161972 0 0.162754 0 0.163537 0 0.164319 0 0.165102 
0 0.165884 0 0.166667 0 0.167449 0 0.168232 0 
0.169014 0 0.169797 0 0.170579 0 0.171362 0 0.172144 
0 0.172926 0 0.173709 0 0.174491 0 0.175274 0 
0.176056 0 0.176839 0 0.177621 0 0.178404 0 0.179186 
0 0.179969 0 0.180751 0 0.181534 0 0.182316 0 
0.183099 0 0.183881 0 0.184664 0 0.185446 0 0.186228 
0 0.187011 0 0.187793 0 0.188576 0 0.189358 0 
0.190141 0 0.190923 0 0.191706 0 0.192488 0 0.193271 
0 0.194053 0 0.194836 0 0.195618 0 0.196401 0 
0.197183 0 0.197966 0 0.198748 0 0.199531 0 0.200313 
0 0.201095 0 0.201878 0 0.20266 0 0.203443 0 
0.204225 0 0.205008 0 0.20579 0 0.206573 0 0.207355 
0 0.208138 0 0.20892 0 0.209703 0 0.210485 0 
0.211268 0 0.21205 0 0.212833 0 0.213615 0 0.214397 
0 0.21518 0 0.215962 0 0.216745 0 0.217527 0 
0.21831 0 0.219092 0 0.219875 0 0.220657 0 0.22144 
0 0.222222 0 0.223005 0 0.223787 0 0.22457 0 
0.225352 0 0.226135 0 0.226917 0 0.2277 0 0.228482 
0 0.229264 0 0.230047 0 0.230829 0 0.231612 0 
0.232394 0 0.233177 0 0.233959 0 0.234742 0 0.235524 
0 0.236307 0 0.237089 0 0.237872 0 0.238654 0 
0.239437 0 0.240219 0 0.241002 0 0.241784 0 0.242567 
0 0.243349 0 0.244131 0 0.244914 0 0.245696 0 
0.246479 0 0.247261 0 0.248044 0 0.248826 0 0.249609 
0 0.250391 0 0.251174 0 0.251956 0 0.252739 0 
0.253521 0 0.254304 0 0.255086 0 0.255869 0 0.256651 
0 0.257434 0 0.258216 0 0.258998 0 0.259781 0 
0.260563 0 0.261346 0 0.262128 0 0.262911 0 0.263693 
0 0.264476 0 0.265258 0 0.266041 0 0.266823 0 
0.267606 0 0.268388 0 0.269171 0 0.269953 0 0.270736 
0 0.271518 0 0.2723 0 0.273083 0 0.273865 0 
0.274648 0 0.27543 0 0.276213 0 0.276995 0 0.277778 
0 0.27856 0 0.279343 0 0.280125 0 0.280908 0 
0.28169 0 0.282473 0 0.283255 0 0.284038 0 0.28482 
0 0.285603 0 0.286385 0 0.287167 0 0.28795 0 
0.288732 0 0.289515 0 0.290297 0 0.29108 0 0.291862 
0 0.292645 0 0.293427 0 0.29421 0 0.294992 0 
0.295775 0 0.296557 0 0.29734 0 0.298122 0 0.298905 
0 0.299687 0 0.300469 0 0.301252 0 0.302034 0 
0.302817 0 0.303599 0 0.304382 0 0.305164 0 0.305947 
0 0.306729 0 0.307512 0 0.308294 0 0.309077 0 
0.309859 0 0.310642 0 0.311424 0 0.312207 0 0.312989 
0 0.313772 0 0.314554 0 0.315336 0 0.316119 0 
0.316901 0 0.317684 0 0.318466 0 0.319249 0 0.320031 
0 0.320814 0 0.321596 0 0.322379 0 0.323161 0 
0.323944 0 0.324726 0 0.325509 0 0.326291 0 0.327074 
0 0.327856 0 0.328638 0 0.329421 0 0.330203 0 
0.330986 0 0.331768 0 0.332551 0 0.333333 0 0.334116 
0 0.334898 0 0.335681 0 0.336463 0 0.337246 0 
0.338028 0 0.338811 0 0.339593 0 0.340376 0 0.341158 
0 0.341941 0 0.342723 0 0.343505 0 0.344288 0 
0.34507 0 0.345853 0 0.346635 0 0.347418 0 0.3482 
0 0.348983 0 0.349765 0 0.350548 0 0.35133 0 
0.352113 0 0.352895 0 0.353678 0 0.35446 0 0.355243 
0 0.356025 0 0.356808 0 0.35759 0 0.358372 0 
0.359155 0 0.359937 0 0.36072 0 0.361502 0 0.362285 
0 0.363067 0 0.36385 0 0.364632 0 0.365415 0 
0.366197 0 0.36698 0 0.367762 0 0.368545 0 0.369327 
0 0.37011 0 0.370892 0 0.371674 0 0.372457 0 
0.373239 0 0.374022 0 0.374804 0 0.375587 0 0.376369 
0 0.377152 0 0.377934 0 0.378717 0 0.379499 0 
0.380282 0 0.381064 0 0.381847 0 0.382629 0 0.383412 
0 0.384194 0 0.384977 0 0.385759 0 0.386541 0 
0.387324 0 0.388106 0 0.388889 0 0.389671 0 0.390454 
0 0.391236 0 0.392019 0 0.392801 0 0.393584 0 
0.394366 0 0.395149 0 0.395931 0 0.396714 0 0.397496 
0 0.398279 0 0.399061 0 0.399844 0 0.400626 0 
0.401408 0 0.402191 0 0.402973 0 0.403756 0 0.404538 
0 0.405321 0 0.406103 0 0.406886 0 0.407668 0 
0.408451 0 0.409233 0 0.410016 0 0.410798 0 0.411581 
0 0.412363 0 0.413146 0 0.413928 0 0.41471 0 
0.415493 0 0.416275 0 0.417058 0 0.41784 0 0.418623 
0 0.419405 0 0.420188 0 0.42097 0 0.421753 0 
0.422535 0 0.423318 0 0.4241 0 0.424883 0 0.425665 
0 0.426448 0 0.42723 0 0.428013 0 0.428795 0 
0.429577 0 0.43036 0 0.431142 0 0.431925 0 0.432707 
0 0.43349 0 0.434272 0 0.435055 0 0.435837 0 
0.43662 0 0.437402 0 0.438185 0 0.438967 0 0.43975 
0 0.440532 0 0.441315 0 0.442097 0 0.442879 0 
0.443662 0 0.444444 0 0.445227 0 0.446009 0 0.446792 
0 0.447574 0 0.448357 0 0.449139 0 0.449922 0 
0.450704 0 0.451487 0 0.452269 0 0.453052 0 0.453834 
0 0.454617 0 0.455399 0 0.456182 0 0.456964 0 
0.457746 0 0.458529 0 0.459311 0 0.460094 0 0.460876 
0 0.461659 0 0.462441 0 0.463224 0 0.464006 0 
0.464789 0 0.465571 0 0.466354 0 0.467136 0 0.467919 
0 0.468701 0 0.469484 0 0.470266 0 0.471049 0 
0.471831 0 0.472613 0 0.473396 0 0.474178 0 0.474961 
0 0.475743 0 0.476526 0 0.477308 0 0.478091 0 
0.478873 0 0.479656 0 0.480438 0 0.481221 0 0.482003 
0 0.482786 0 0.483568 0 0.484351 0 0.485133 0 
0.485915 0 0.486698 0 0.48748 0 0.488263 0 0.489045 
0 0.489828 0 0.49061 0 0.491393 0 0.492175 0 
0.492958 0 0.49374 0 0.494523 0 0.495305 0 0.496088 
0 0.49687 0 0.497653 0 0.498435 0 0.499218 0 
0.5 0 0.500782 0 0.501565 0 0.502347 0 0.50313 
0 0.503912 0 0.504695 0 0.505477 0 0.50626 0 
0.507042 0 0.507825 0 0.508607 0 0.50939 0 0.510172 
0 0.510955 0 0.511737 0 0.51252 0 0.513302 0 
0.514085 0 0.514867 0 0.515649 0 0.516432 0 0.517214 
0 0.517997 0 0.518779 0 0.519562 0 0.520344 0 
0.521127 0 0.521909 0 0.522692 0 0.523474 0 0.524257 
0 0.525039 0 0.525822 0 0.526604 0 0.527387 0 
0.528169 0 0.528951 0 0.529734 0 0.530516 0 0.531299 
0 0.532081 0 0.532864 0 0.533646 0 0.534429 0 
0.535211 0 0.535994 0 0.536776 0 0.537559 0 0.538341 
0 0.539124 0 0.539906 0 0.540689 0 0.541471 0 
0.542253 0 0.543036 0 0.543818 0 0.544601 0 0.545383 
0 0.546166 0 0.546948 0 0.547731 0 0.548513 0 
0.549296 0 0.550078 0 0.550861 0 0.551643 0 0.552426 
0 0.553208 0 0.553991 0 0.554773 0 0.555556 0 
0.556338 0 0.557121 0 0.557903 0 0.558685 0 0.559468 
0 0.56025 0 0.561033 0 0.561815 0 0.562598 0 
0.56338 0 0.564163 0 0.564945 0 0.565728 0 0.56651 
0 0.567293 0 0.568075 0 0.568858 0 0.56964 0 
0.570423 0 0.571205 0 0.571988 0 0.57277 0 0.573552 
0 0.574335 0 0.575117 0 0.5759 0 0.576682 0 
0.577465 0 0.578247 0 0.57903 0 0.579812 0 0.580595 
0 0.581377 0 0.58216 0 0.582942 0 0.583725 0 
0.584507 0 0.58529 0 0.586072 0 0.586854 0 0.587637 
0 0.588419 0 0.589202 0 0.589984 0 0.590767 0 
0.591549 0 0.592332 0 0.593114 0 0.593897 0 0.594679 
0 0.595462 0 0.596244 0 0.597027 0 0.597809 0 
0.598592 0 0.599374 0 0.600156 0 0.600939 0 0.601721 
0 0.602504 0 0.603286 0 0.604069 0 0.604851 0 
0.605634 0 0.606416 0 0.607199 0 0.607981 0 0.608764 
0 0.609546 0 0.610329 0 0.611111 0 0.611894 0 
0.612676 0 0.613459 0 0.614241 0 0.615023 0 0.615806 
0 0.616588 0 0.617371 0 0.618153 0 0.618936 0 
0.619718 0 0.620501 0 0.621283 0 0.622066 0 0.622848 
0 0.623631 0 0.624413 0 0.625196 0 0.625978 0 
0.626761 0 0.627543 0 0.628326 0 0.629108 0 0.62989 
0 0.630673 0 0.631455 0 0.632238 0 0.63302 0 
0.633803 0 0.634585 0 0.635368 0 0.63615 0 0.636933 
0 0.637715 0 0.638498 0 0.63928 0 0.640063 0 
0.640845 0 0.641628 0 0.64241 0 0.643192 0 0.643975 
0 0.644757 0 0.64554 0 0.646322 0 0.647105 0 
0.647887 0 0.64867 0 0.649452 0 0.650235 0 0.651017 
0 0.6518 0 0.652582 0 0.653365 0 0.654147 0 
0.65493 0 0.655712 0 0.656494 0 0.657277 0 0.658059 