# vtk DataFile Version 4.2
vtk output
ASCII
DATASET POLYDATA
POINTS 1275 float
0 0 0 -0.00363705 0.00163092 -0.000982929 -0.014254 0.00637301 -0.00382991 
-0.0314096 0.0140003 -0.00838825 -0.0546625 0.0242867 -0.0145052 -0.0835715 0.0370062 -0.0220282 
-0.117695 0.0519329 -0.0308044 -0.156593 0.0688407 -0.0406811 -0.199822 0.0875037 -0.0515057 
-0.246942 0.107696 -0.0631255 -0.297512 0.129191 -0.0753877 -0.351091 0.151763 -0.0881396 
-0.407236 0.175186 -0.101229 -0.465508 0.199235 -0.114502 -0.525463 0.223682 -0.127807 
-0.586662 0.248303 -0.140991 -0.648663 0.272871 -0.153901 -0.711025 0.297159 -0.166385 
-0.773306 0.320943 -0.178289 -0.835065 0.343996 -0.189462 -0.895861 0.366092 -0.19975 
-0.955252 0.387004 -0.209001 -1.01291 0.40657 -0.217107 -1.06889 0.424821 -0.22411 
-1.12331 0.44183 -0.230078 -1.17629 0.45767 -0.235081 -1.22795 0.472413 -0.239188 
-1.27841 0.486132 -0.242469 -1.32779 0.4989 -0.244993 -1.37622 0.510788 -0.246829 
-1.42382 0.521871 -0.248048 -1.47071 0.532219 -0.248719 -1.517 0.541906 -0.248911 
-1.56283 0.551004 -0.248693 -1.60831 0.559586 -0.248136 -1.65356 0.567724 -0.247308 
-1.69871 0.575491 -0.246279 -1.74388 0.58296 -0.245118 -1.78918 0.590203 -0.243895 
-1.83474 0.597292 -0.24268 -1.88068 0.604301 -0.241542 -1.92712 0.611298 -0.240547 
-1.97409 0.618299 -0.239717 -2.02156 0.625279 -0.239041 -2.06949 0.632214 -0.238505 
-2.11786 0.639076 -0.238097 -2.16663 0.645841 -0.237803 -2.21576 0.652482 -0.237611 
-2.26524 0.658973 -0.237508 -2.31501 0.66529 -0.23748 -2.36505 0.671406 -0.237514 
-2.41533 0.677296 -0.237599 -2.46582 0.682933 -0.23772 -2.51648 0.688292 -0.237866 
-2.56728 0.693347 -0.238022 -2.61818 0.698073 -0.238176 -2.66916 0.702444 -0.238315 
-2.72018 0.706433 -0.238426 -2.77121 0.710016 -0.238496 -2.82222 0.713166 -0.238512 
-2.87317 0.715857 -0.238462 -2.92403 0.718065 -0.238332 -2.97478 0.719767 -0.238115 
-3.02542 0.720957 -0.237821 -3.07595 0.721627 -0.237462 -3.12637 0.721771 -0.237049 
-3.1767 0.721384 -0.236595 -3.22693 0.720458 -0.236109 -3.27706 0.718988 -0.235606 
-3.32711 0.716967 -0.235095 -3.37707 0.714388 -0.23459 -3.42696 0.711246 -0.2341 
-3.47676 0.707535 -0.23364 -3.52649 0.703247 -0.233219 -3.57615 0.698378 -0.23285 
-3.62575 0.692919 -0.232544 -3.67528 0.686866 -0.232313 -3.72476 0.680211 -0.23217 
-3.77418 0.672949 -0.232124 -3.82355 0.665073 -0.232189 -3.87288 0.656577 -0.232377 
-3.92216 0.647455 -0.232697 -3.9714 0.637698 -0.233162 -4.02057 0.627291 -0.23377 
-4.06965 0.616212 -0.23452 -4.11861 0.604442 -0.23541 -4.16743 0.591962 -0.236436 
-4.21606 0.578751 -0.237596 -4.26449 0.56479 -0.238888 -4.31268 0.55006 -0.240308 
-4.36062 0.534539 -0.241856 -4.40826 0.518209 -0.243527 -4.45558 0.50105 -0.24532 
-4.50255 0.483041 -0.247231 -4.54915 0.464164 -0.24926 -4.59534 0.444398 -0.251402 
-4.6411 0.423723 -0.253655 -4.6864 0.40212 -0.256017 -4.73121 0.379569 -0.258486 
-4.77551 0.35605 -0.261059 -4.81925 0.331543 -0.263732 -4.86242 0.306029 -0.266505 
-4.90499 0.279489 -0.269373 -4.94695 0.251935 -0.272324 -4.98826 0.223391 -0.275338 
-5.02894 0.193884 -0.278399 -5.06895 0.163441 -0.281486 -5.1083 0.132089 -0.284581 
-5.14697 0.0998539 -0.287666 -5.18494 0.0667624 -0.290722 -5.22221 0.0328412 -0.29373 
-5.25877 -0.00188307 -0.296671 -5.29459 -0.0373839 -0.299527 -5.32967 -0.0736347 -0.302279 
-5.364 -0.110609 -0.304908 -5.39756 -0.14828 -0.307396 -5.43034 -0.186621 -0.309724 
-5.46233 -0.225605 -0.311874 -5.49353 -0.265207 -0.313826 -5.5239 -0.305399 -0.315562 
-5.55345 -0.346154 -0.317064 -5.58216 -0.387447 -0.318312 -5.61002 -0.429251 -0.319289 
-5.63705 -0.471538 -0.319977 -5.66327 -0.514281 -0.320366 -5.68873 -0.557453 -0.320441 
-5.71347 -0.601026 -0.320191 -5.73752 -0.644973 -0.319602 -5.76092 -0.689266 -0.318663 
-5.78371 -0.733878 -0.31736 -5.80593 -0.778781 -0.315682 -5.82761 -0.823948 -0.313614 
-5.8488 -0.869352 -0.311146 -5.86953 -0.914964 -0.308263 -5.88985 -0.960758 -0.304954 
-5.90978 -1.00671 -0.301206 -5.92936 -1.05278 -0.297006 -5.94864 -1.09896 -0.292342 
-5.96765 -1.1452 -0.287201 -5.98644 -1.19149 -0.28157 -6.00503 -1.2378 -0.275437 
-6.02347 -1.28409 -0.268789 -6.04179 -1.33035 -0.261614 -6.06003 -1.37655 -0.253905 
-6.07822 -1.42266 -0.245664 -6.09638 -1.46868 -0.236898 -6.11453 -1.51459 -0.227612 
-6.13271 -1.56037 -0.21781 -6.15094 -1.606 -0.207498 -6.16924 -1.65147 -0.196682 
-6.18764 -1.69676 -0.185367 -6.20616 -1.74186 -0.173557 -6.22484 -1.78674 -0.161259 
-6.24369 -1.8314 -0.148477 -6.26275 -1.87582 -0.135216 -6.28203 -1.91997 -0.121483 
-6.30156 -1.96385 -0.107281 -6.32138 -2.00743 -0.0926168 -6.3415 -2.05071 -0.0774952 
-6.36195 -2.09366 -0.0619214 -6.38275 -2.13626 -0.0459008 -6.40394 -2.17851 -0.0294385 
-6.42553 -2.22038 -0.0125398 -6.44756 -2.26186 0.00478777 -6.47001 -2.30295 0.0225258 
-6.49289 -2.34365 0.040653 -6.51619 -2.38396 0.0591479 -6.53992 -2.42388 0.0779894 
-6.56406 -2.46342 0.0971559 -6.58862 -2.50257 0.116626 -6.61358 -2.54134 0.136379 
-6.63896 -2.57972 0.156393 -6.66474 -2.61772 0.176646 -6.69091 -2.65535 0.197118 
-6.71749 -2.69259 0.217787 -6.74446 -2.72946 0.238632 -6.77182 -2.76595 0.259631 
-6.79956 -2.80206 0.280763 -6.82769 -2.8378 0.302006 -6.8562 -2.87317 0.32334 
-6.88509 -2.90816 0.344743 -6.91435 -2.94279 0.366194 -6.94398 -2.97705 0.387671 
-6.97398 -3.01094 0.409153 -7.00434 -3.04447 0.430624 -7.03506 -3.07766 0.452071 
-7.06613 -3.11051 0.47348 -7.09756 -3.14305 0.494838 -7.12933 -3.17528 0.51613 
-7.16144 -3.20722 0.537345 -7.19388 -3.23888 0.558467 -7.22666 -3.27027 0.579484 
-7.25977 -3.30142 0.600383 -7.2932 -3.33232 0.621149 -7.32696 -3.363 0.641769 
-7.36102 -3.39346 0.66223 -7.3954 -3.42373 0.682518 -7.43009 -3.45381 0.70262 
-7.46508 -3.48372 0.722522 -7.50036 -3.51346 0.742211 -7.53594 -3.54306 0.761673 
-7.57181 -3.57253 0.780895 -7.60797 -3.60188 0.799863 -7.6444 -3.63112 0.818563 
-7.68111 -3.66027 0.836966 -7.71805 -3.68938 0.855021 -7.75521 -3.71848 0.872678 
-7.79255 -3.74761 0.889886 -7.83006 -3.7768 0.906596 -7.8677 -3.80609 0.922755 
-7.90546 -3.83552 0.938314 -7.94329 -3.86512 0.953222 -7.98118 -3.89493 0.967429 
-8.0191 -3.92498 0.980883 -8.05702 -3.95532 0.993535 -8.09492 -3.98598 1.00533 
-8.13277 -4.017 1.01623 -8.17054 -4.04841 1.02617 -8.20822 -4.08025 1.0351 
-8.24576 -4.11256 1.04298 -8.28315 -4.14537 1.04975 -8.32035 -4.17872 1.05537 
-8.35735 -4.21264 1.05978 -8.39411 -4.24718 1.06292 -8.43061 -4.28236 1.06478 
-8.46676 -4.31814 1.06536 -8.50251 -4.35451 1.06466 -8.53779 -4.39142 1.06272 
-8.57253 -4.42886 1.05953 -8.60666 -4.4668 1.05511 -8.64011 -4.50521 1.04948 
-8.67281 -4.54405 1.04265 -8.7047 -4.58331 1.03464 -8.73571 -4.62295 1.02546 
-8.76576 -4.66294 1.01512 -8.7948 -4.70325 1.00364 -8.82275 -4.74386 0.991029 
-8.84955 -4.78474 0.977306 -8.87512 -4.82586 0.962484 -8.8994 -4.86719 0.946575 
-8.92232 -4.9087 0.929595 -8.94381 -4.95037 0.911557 -8.9638 -4.99216 0.892476 
-8.98223 -5.03405 0.872366 -8.99906 -5.07601 0.851249 -9.01431 -5.11803 0.829177 
-9.02805 -5.16009 0.806205 -9.04031 -5.20219 0.782387 -9.05116 -5.24431 0.75778 
-9.06065 -5.28644 0.732437 -9.06882 -5.32857 0.706415 -9.07572 -5.37069 0.679768 
-9.08142 -5.41278 0.652552 -9.08595 -5.45483 0.624821 -9.08936 -5.49684 0.596632 
-9.09172 -5.53878 0.568039 -9.09307 -5.58065 0.539096 -9.09345 -5.62244 0.509861 
-9.09293 -5.66413 0.480387 -9.09155 -5.70571 0.45073 -9.08937 -5.74717 0.420944 
-9.08643 -5.78849 0.391086 -9.08278 -5.82967 0.36121 -9.07848 -5.8707 0.331372 
-9.07357 -5.91156 0.30162 -9.06809 -5.95225 0.271966 -9.06204 -5.99279 0.242404 
-9.05544 -6.03316 0.212927 -9.04832 -6.07339 0.183532 -9.04069 -6.11347 0.154211 
-9.03257 -6.15341 0.124959 -9.02397 -6.19322 0.0957714 -9.01492 -6.23289 0.0666417 
-9.00542 -6.27244 0.0375645 -8.99551 -6.31188 0.00853425 -8.98519 -6.3512 -0.0204547 
-8.97448 -6.39041 -0.0494079 -8.96341 -6.42951 -0.0783311 -8.95198 -6.46852 -0.10723 
-8.94022 -6.50743 -0.136109 -8.92815 -6.54626 -0.164976 -8.91578 -6.585 -0.193835 
-8.90312 -6.62367 -0.222691 -8.8902 -6.66226 -0.251551 -8.87704 -6.70079 -0.280421 
-8.86364 -6.73924 -0.309306 -8.85002 -6.77763 -0.338213 -8.83617 -6.81594 -0.36715 
-8.82212 -6.85416 -0.396123 -8.80786 -6.8923 -0.42514 -8.79341 -6.93034 -0.454208 
-8.77877 -6.96829 -0.483333 -8.76395 -7.00614 -0.512522 -8.74895 -7.04388 -0.541783 
-8.73379 -7.0815 -0.571122 -8.71847 -7.11901 -0.600547 -8.703 -7.1564 -0.630065 
-8.68739 -7.19367 -0.659682 -8.67164 -7.2308 -0.689406 -8.65576 -7.2678 -0.719243 
-8.63976 -7.30465 -0.7492 -8.62365 -7.34136 -0.779285 -8.60744 -7.37792 -0.809505 
-8.59113 -7.41433 -0.839866 -8.57473 -7.45057 -0.870376 -8.55824 -7.48665 -0.90104 
-8.54167 -7.52255 -0.931866 -8.52503 -7.55828 -0.962858 -8.50831 -7.59381 -0.994024 
-8.49152 -7.62914 -1.02537 -8.47467 -7.66428 -1.05689 -8.45775 -7.69919 -1.08861 
-8.44077 -7.73389 -1.12053 -8.42373 -7.76835 -1.15264 -8.40664 -7.80259 -1.18496 
-8.3895 -7.83657 -1.2175 -8.37232 -7.8703 -1.25025 -8.35509 -7.90378 -1.28323 
-8.33781 -7.93698 -1.31644 -8.32051 -7.96991 -1.34989 -8.30316 -8.00255 -1.38358 
-8.28579 -8.03491 -1.41752 -8.26839 -8.06696 -1.45171 -8.25097 -8.09871 -1.48616 
-8.23352 -8.13014 -1.52087 -8.21606 -8.16125 -1.55586 -8.19858 -8.19203 -1.59112 
-8.18108 -8.22248 -1.62665 -8.16355 -8.25261 -1.66244 -8.146 -8.2824 -1.69851 
-8.12842 -8.31186 -1.73485 -8.11081 -8.34098 -1.77146 -8.09317 -8.36977 -1.80834 
-8.0755 -8.39821 -1.84549 -8.05779 -8.42631 -1.88291 -8.04004 -8.45406 -1.9206 
-8.02226 -8.48146 -1.95856 -8.00443 -8.50851 -1.99679 -7.98656 -8.53522 -2.03528 
-7.96864 -8.56156 -2.07405 -7.95068 -8.58755 -2.11308 -7.93266 -8.61318 -2.15239 
-7.9146 -8.63844 -2.19196 -7.89648 -8.66335 -2.2318 -7.8783 -8.68788 -2.2719 
-7.86007 -8.71205 -2.31228 -7.84178 -8.73585 -2.3529 -7.82344 -8.75929 -2.39375 
-7.80505 -8.78238 -2.43482 -7.78662 -8.80512 -2.47606 -7.76814 -8.82751 -2.51747 
-7.74964 -8.84956 -2.55903 -7.73109 -8.87127 -2.6007 -7.71253 -8.89265 -2.64247 
-7.69393 -8.91371 -2.68432 -7.67532 -8.93445 -2.72622 -7.65668 -8.95487 -2.76816 
[...]
CELL_DATA 1
FIELD FieldData 2
Length 1 1 double
63.71981009 
Tortuosity 1 1 double
1.0740255105 
POINT_DATA 1275
SCALARS MaximumInscribedSphereRadius float
LOOKUP_TABLE default
0.6944 0.701895 0.70939 0.716885 0.724381 0.731876 0.739371 0.746866 0.754361 
0.761856 0.769351 0.776847 0.784342 0.791837 0.799332 0.806827 0.814322 0.821817 
0.829313 0.836808 0.844303 0.851543 0.855588 0.859632 0.863676 0.86772 0.871765 
0.875809 0.879853 0.883898 0.887942 0.891986 0.89603 0.900075 0.904119 0.908163 
0.912207 0.916252 0.920296 0.92434 0.928384 0.93 0.93 0.93 0.93 
0.93 0.93 0.93 0.93 0.93 0.93 0.93 0.93 0.93 
0.93 0.93 0.93 0.93 0.93 0.93 0.93 0.931311 0.939657 
0.948003 0.956349 0.964695 0.973041 0.981387 0.989733 0.998079 1.00642 1.01477 
1.02312 1.03146 1.03981 1.04815 1.0565 1.06485 1.07319 1.08154 1.08988 
1.09823 1.10657 1.11491 1.12325 1.13159 1.13993 1.14827 1.15661 1.16496 
1.1733 1.18164 1.18998 1.19832 1.20666 1.215 1.22334 1.23168 1.24002 
1.24836 1.2567 1.26504 1.26837 1.26927 1.27017 1.27107 1.27196 1.27286 
1.27376 1.27466 1.27555 1.27645 1.27735 1.27825 1.27914 1.28004 1.28094 
1.28184 1.28273 1.28363 1.28453 1.28543 1.29021 1.29912 1.30803 1.31694 
1.32585 1.33477 1.34368 1.35259 1.3615 1.37041 1.37933 1.38824 1.39715 
1.40606 1.41498 1.42389 1.4328 1.44171 1.45062 1.45954 1.46589 1.46309 
1.46029 1.4575 1.4547 1.4519 1.44911 1.44631 1.44351 1.44071 1.43792 
1.43512 1.43232 1.42953 1.42673 1.42393 1.42113 1.41834 1.41554 1.41274 
1.40995 1.40532 1.40062 1.39592 1.39121 1.38651 1.38181 1.3771 1.3724 
1.3677 1.36299 1.35829 1.35359 1.34888 1.34418 1.33948 1.33477 1.33007 
1.32537 1.32067 1.31596 1.3206 1.32924 1.33788 1.34652 1.35516 1.3638 
1.37244 1.38108 1.38972 1.39836 1.407 1.41564 1.42428 1.43292 1.44157 
1.45021 1.45885 1.46749 1.47613 1.48477 1.48667 1.47977 1.47287 1.46597 
1.45907 1.45217 1.44527 1.43837 1.43147 1.42457 1.41767 1.41077 1.40387 
1.39697 1.39007 1.38317 1.37627 1.36937 1.36248 1.35558 1.34755 1.3343 
1.32106 1.30781 1.29456 1.28131 1.26807 1.25482 1.24157 1.22832 1.21508 
1.20183 1.18858 1.17533 1.16209 1.14884 1.13559 1.12235 1.1091 1.09585 
1.08446 1.08817 1.09189 1.09561 1.09932 1.10304 1.10676 1.11047 1.11419 
1.11791 1.12162 1.12534 1.12906 1.13277 1.13649 1.14021 1.14392 1.14764 
1.15136 1.15507 1.15879 1.17342 1.19028 1.20713 1.22399 1.24084 1.2577 
1.27456 1.29141 1.30827 1.32513 1.34198 1.35884 1.3757 1.39255 1.40941 
1.42627 1.44312 1.45998 1.47684 1.49369 1.50229 1.50474 1.50719 1.50964 
1.51209 1.51454 1.51699 1.51944 1.52189 1.52434 1.52679 1.52924 1.53169 
1.53414 1.53659 1.53904 1.54149 1.54394 1.54639 1.54884 1.55103 1.55259 
1.55415 1.55571 1.55727 1.55883 1.56039 1.56195 1.56351 1.56506 1.56662 
1.56818 1.56974 1.5713 1.57286 1.57442 1.57598 1.57754 1.5791 1.58066 
1.58225 1.58515 1.58805 1.59095 1.59385 1.59674 1.59964 1.60254 1.60544 
1.60834 1.61124 1.61414 1.61704 1.61994 1.62283 1.62573 1.62863 1.63153 
1.63443 1.63733 1.64023 1.63961 1.63784 1.63608 1.63431 1.63254 1.63078 
1.62901 1.62724 1.62548 1.62371 1.62195 1.62018 1.61841 1.61665 1.61488 
1.61312 1.61135 1.60958 1.60782 1.60605 1.60443 1.60296 1.60149 1.60003 
1.59856 1.59709 1.59562 1.59416 1.59269 1.59122 1.58975 1.58829 1.58682 
1.58535 1.58388 1.58241 1.58095 1.57948 1.57801 1.57654 1.57587 1.57823 
1.58058 1.58294 1.5853 1.58766 1.59002 1.59238 1.59473 1.59709 1.59945 
1.60181 1.60417 1.60653 1.60888 1.61124 1.6136 1.61596 1.61832 1.62068 
1.62304 1.62115 1.618 1.61484 1.61169 1.60853 1.60538 1.60222 1.59907 
1.59591 1.59275 1.5896 1.58644 1.58329 1.58013 1.57698 1.57382 1.57067 
1.56862 1.5677 1.56678 1.56585 1.56493 1.56401 1.56309 1.56216 1.56124 
1.56032 1.55939 1.55847 1.55755 1.55663 1.5557 1.55478 1.55386 1.55294 
1.55201 1.55109 1.55017 1.55 1.55 1.55 1.55 1.55 1.55 
1.55 1.55 1.55 1.55 1.55 1.55 1.55 1.55 1.55 
1.55 1.55 1.55 1.55 1.55 1.55 1.55 1.55 1.55 
1.55 1.55 1.55 1.55 1.55 1.55 1.55 1.55 1.55 
1.55 1.55 1.55 1.55 1.55 1.55 1.55 1.55146 1.55583 
1.56021 1.56459 1.56897 1.57334 1.57772 1.5821 1.58648 1.59085 1.59523 
1.59961 1.60399 1.60836 1.61274 1.61712 1.6215 1.62587 1.63025 1.63463 
1.63928 1.64854 1.6578 1.66706 1.67631 1.68557 1.69483 1.70409 1.71334 
1.7226 1.73186 1.74112 1.75037 1.75963 1.76889 1.77815 1.7874 1.79666 
1.80592 1.81518 1.82443 1.83441 1.84459 1.85477 1.86494 1.87512 1.8853 
1.89548 1.90565 1.91583 1.92601 1.93619 1.94636 1.95654 1.96672 1.9769 
1.98707 1.99725 2.00743 2.01761 2.02778 2.02803 2.01889 2.00976 2.00062 
1.99148 1.98234 1.9732 1.96407 1.95493 1.94579 1.93665 1.92751 1.91838 
1.90924 1.9001 1.89096 1.88182 1.87269 1.86355 1.85441 1.8402 1.81188 
1.78356 1.75525 1.72693 1.69861 1.6703 1.64198 1.61366 1.58535 1.55703 
1.52871 1.5004 1.47208 1.44376 1.41545 1.38713 1.35881 1.33049 1.30218 
1.27671 1.27626 1.27581 1.27536 1.27491 1.27446 1.27401 1.27356 1.27311 
1.27266 1.27221 1.27176 1.27131 1.27085 1.2704 1.26995 1.2695 1.26905 
1.2686 1.26815 1.2677 1.27645 1.28584 1.29524 1.30463 1.31403 1.32342 
1.33281 1.34221 1.3516 1.361 1.37039 1.37978 1.38918 1.39857 1.40797 
1.41736 1.42675 1.43615 1.44554 1.45494 1.46099 1.46547 1.46994 1.47441 
1.47889 1.48336 1.48784 1.49231 1.49678 1.50126 1.50573 1.5102 1.51468 
1.51915 1.52362 1.5281 1.53257 1.53704 1.54152 1.54599 1.5487 1.54876 
1.54883 1.54889 1.54896 1.54902 1.54909 1.54916 1.54922 1.54929 1.54935 
1.54942 1.54948 1.54955 1.54961 1.54968 1.54975 1.54981 1.54988 1.54994 
1.55 1.55 1.55 1.55 1.55 1.55 1.55 1.55 1.55 
1.55 1.55 1.55 1.55 1.55 1.55 1.55 1.55 1.55 
1.55 1.55 1.55 1.55316 1.5569 1.56063 1.56437 1.5681 1.57184 
1.57558 1.57931 1.58305 1.58678 1.59052 1.59426 1.59799 1.60173 1.60546 
1.6092 1.61294 1.61667 1.62041 1.62414 1.63119 1.64072 1.65024 1.65976 
1.66928 1.6788 1.68832 1.69785 1.70737 1.71689 1.72641 1.73593 1.74546 
1.75498 1.7645 1.77402 1.78354 1.79306 1.80259 1.81211 1.8194 1.82143 
1.82346 1.82549 1.82753 1.82956 1.83159 1.83362 1.83566 1.83769 1.83972 
1.84175 1.84379 1.84582 1.84785 1.84988 1.85192 1.85395 1.85598 1.85801 
1.85995 1.8578 1.85565 1.8535 1.85135 1.8492 1.84706 1.84491 1.84276 
1.84061 1.83846 1.83631 1.83416 1.83201 1.82986 1.82771 1.82556 1.82341 
1.82126 1.81911 1.81696 1.8101 1.80164 1.79318 1.78471 1.77625 1.76779 
1.75933 1.75086 1.7424 1.73394 1.72547 1.71701 1.70855 1.70009 1.69162 
1.68316 1.6747 1.66623 1.65777 1.64931 1.65257 1.66908 1.68559 1.7021 
1.71861 1.73512 1.75163 1.76814 1.78465 1.80116 1.81767 1.83418 1.85069 
1.86719 1.8837 1.90021 1.91672 1.93323 1.94974 1.96625 1.98428 2.00859 
2.03289 2.0572 2.08151 2.10582 2.13013 2.15444 2.17875 2.20306 2.22736 
2.25167 2.27598 2.30029 2.3246 2.34891 2.37322 2.39752 2.42183 2.44614 
2.47045 2.44641 2.41814 2.38987 2.36159 2.33332 2.30504 2.27677 2.2485 
2.22022 2.19195 2.16367 2.1354 2.10712 2.07885 2.05058 2.0223 1.99403 
1.96575 1.93748 1.9092 1.895 1.88855 1.88211 1.87567 1.86922 1.86278 
1.85633 1.84989 1.84345 1.837 1.83056 1.82411 1.81767 1.81123 1.80478 
1.79834 1.79189 1.78545 1.77901 1.77256 1.776 1.79619 1.81638 1.83657 
1.85676 1.87695 1.89714 1.91733 1.93752 1.95771 1.9779 1.99809 2.01828 
2.03847 2.05866 2.07885 2.09904 2.11922 2.13941 2.1596 2.17686 2.16809 
2.15931 2.15054 2.14177 2.13299 2.12422 2.11544 2.10667 2.09789 2.08912 
2.08035 2.07157 2.0628 2.05402 2.04525 2.03648 2.0277 2.01893 2.01015 
2.00138 1.99006 1.97824 1.96642 1.9546 1.94278 1.93096 1.91913 1.90731 
1.89549 1.88367 1.87185 1.86003 1.8482 1.83638 1.82456 1.81274 1.80092 
1.7891 1.77727 1.76545 1.75562 1.74731 1.739 1.73069 1.72238 1.71406 
1.70575 1.69744 1.68913 1.68082 1.6725 1.66419 1.65588 1.64757 1.63926 
1.63094 1.62263 1.61432 1.60601 1.5977 1.59546 1.6077 1.61995 1.63219 
1.64444 1.65669 1.66893 1.68118 1.69342 1.70567 1.71791 1.73016 1.74241 
1.75465 1.7669 1.77914 1.79139 1.80363 1.81588 1.82813 1.84037 1.8523 
1.86424 1.87617 1.88811 1.90004 1.91198 1.92391 1.93585 1.94779 1.95972 
1.97166 1.98359 1.99553 2.00746 2.0194 2.03133 2.04327 2.0552 2.06714 
2.07908 2.06901 2.05132 2.03363 2.01593 1.99824 1.98055 1.96286 1.94516 
1.92747 1.90978 1.89208 1.87439 1.8567 1.839 1.82131 1.80362 1.78592 
1.76823 1.75054 1.73285 1.72227 1.71991 1.71755 1.71519 1.71283 1.71046 
1.7081 1.70574 1.70338 1.70102 1.69866 1.69629 1.69393 1.69157 1.68921 
1.68685 1.68449 1.68212 1.67976 1.6774 1.67726 1.6868 1.69633 1.70587 
1.7154 1.72494 1.73448 1.74401 1.75355 1.76308 1.77262 1.78215 1.79169 
1.80123 1.81076 1.8203 1.82983 1.83937 1.84891 1.85844 1.86798 1.8689 
1.86896 1.86901 1.86907 1.86912 1.86918 1.86924 1.86929 1.86935 1.8694 
1.86946 1.86951 1.86957 1.86963 1.86968 1.86974 1.86979 1.86985 1.8699 
1.86996 1.87206 1.87535 1.87864 1.88194 1.88523 1.88852 1.89181 1.8951 
1.8984 1.90169 1.90498 1.90827 1.91157 1.91486 1.91815 1.92144 1.92473 
1.92803 1.93132 1.93461 1.93997 1.94905 1.95814 1.96722 1.97631 1.98539 
1.99447 2.00356 2.01264 2.02173 2.03081 2.0399 2.04898 2.05807 2.06715 
2.07624 2.08532 2.09441 2.10349 2.11258 2.12114 2.12416 2.12717 2.13019 
2.1332 2.13622 2.13924 2.14225 2.14527 2.14829 2.1513 2.15432 2.15734 
2.16035 2.16337 2.16639 2.1694 2.17242 2.17543 2.17845 2.18147 2.18003 
2.17764 2.17524 2.17285 2.17046 2.16806 2.16567 2.16328 2.16088 2.15849 
2.1561 2.1537 2.15131 2.14892 2.14652 2.14413 2.14174 2.13934 2.13695 
2.13456 2.12766 2.11742 2.10718 2.09694 2.0867 2.07646 2.06622 2.05599 
2.04575 2.03551 2.02527 2.01503 2.00479 1.99455 1.98431 1.97407 1.96383 
1.9536 1.94336 1.93312 1.92745 1.9311 1.93474 1.93839 1.94204 1.94568 
1.94933 1.95297 1.95662 1.96027 1.96391 1.96756 1.97121 1.97485 1.9785 
1.98214 1.98579 1.98944 1.99308 1.99673 2.00061 2.00737 2.01412 2.02088 
2.02763 2.03439 2.04115 2.0479 2.05466 2.06142 2.06817 2.07493 2.08168 
2.08844 2.0952 2.10195 2.10871 2.11546 2.12222 2.12898 2.13573 2.12957 
2.12062 2.11168 2.10273 2.09378 2.08484 2.07589 2.06695 2.058 2.04905 
2.04011 2.03116 2.02221 2.01327 2.00432 1.99538 1.98643 1.97748 1.96854 
1.95959 1.95267 1.94844 1.9442 1.93997 1.93573 1.93149 1.92726 1.92302 
1.91879 1.91455 1.91031 1.90608 1.90184 1.89761 1.89337 1.88913 1.8849 
1.88066 1.87643 1.87219 1.8722 1.87283 1.87346 1.87409 1.87472 1.87535 
1.87598 1.87661 1.87724 1.87787 1.8785 1.87913 1.87976 1.88039 1.88102 
1.88165 1.88228 1.88291 1.88354 1.88417 1.8848 
TEXTURE_COORDINATES TCoords 2 float
0 0 0.000784929 0 0.00156986 0 0.00235479 0 0.00313972 
0 0.00392465 0 0.00470958 0 0.00549451 0 0.00627944 0 
0.00706436 0 0.00784929 0 0.00863422 0 0.00941915 0 0.0102041 
0 0.010989 0 0.0117739 0 0.0125589 0 0.0133438 0 
0.0141287 0 0.0149137 0 0.0156986 0 0.0164835 0 0.0172684 
0 0.0180534 0 0.0188383 0 0.0196232 0 0.0204082 0 
0.0211931 0 0.021978 0 0.022763 0 0.0235479 0 0.0243328 
0 0.0251177 0 0.0259027 0 0.0266876 0 0.0274725 0 
0.0282575 0 0.0290424 0 0.0298273 0 0.0306122 0 0.0313972 
0 0.0321821 0 0.032967 0 0.033752 0 0.0345369 0 
0.0353218 0 0.0361068 0 0.0368917 0 0.0376766 0 0.0384615 
0 0.0392465 0 0.0400314 0 0.0408163 0 0.0416013 0 
0.0423862 0 0.0431711 0 0.043956 0 0.044741 0 0.0455259 
0 0.0463108 0 0.0470958 0 0.0478807 0 0.0486656 0 
0.0494506 0 0.0502355 0 0.0510204 0 0.0518053 0 0.0525903 
0 0.0533752 0 0.0541601 0 0.0549451 0 0.05573 0 
0.0565149 0 0.0572998 0 0.0580848 0 0.0588697 0 0.0596546 
0 0.0604396 0 0.0612245 0 0.0620094 0 0.0627944 0 
0.0635793 0 0.0643642 0 0.0651491 0 0.0659341 0 0.066719 
0 0.0675039 0 0.0682889 0 0.0690738 0 0.0698587 0 
0.0706436 0 0.0714286 0 0.0722135 0 0.0729984 0 0.0737834 
0 0.0745683 0 0.0753532 0 0.0761381 0 0.0769231 0 
0.077708 0 0.0784929 0 0.0792779 0 0.0800628 0 0.0808477 
0 0.0816327 0 0.0824176 0 0.0832025 0 0.0839874 0 
0.0847724 0 0.0855573 0 0.0863422 0 0.0871272 0 0.0879121 
0 0.088697 0 0.0894819 0 0.0902669 0 0.0910518 0 
0.0918367 0 0.0926217 0 0.0934066 0 0.0941915 0 0.0949765 
0 0.0957614 0 0.0965463 0 0.0973312 0 0.0981162 0 
0.0989011 0 0.099686 0 0.100471 0 0.101256 0 0.102041 
0 0.102826 0 0.103611 0 0.104396 0 0.105181 0 
0.105965 0 0.10675 0 0.107535 0 0.10832 0 0.109105 
0 0.10989 0 0.110675 0 0.11146 0 0.112245 0 
0.11303 0 0.113815 0 0.1146 0 0.115385 0 0.11617 
0 0.116954 0 0.117739 0 0.118524 0 0.119309 0 
0.120094 0 0.120879 0 0.121664 0 0.122449 0 0.123234 
0 0.124019 0 0.124804 0 0.125589 0 0.126374 0 
0.127159 0 0.127943 0 0.128728 0 0.129513 0 0.130298 
0 0.131083 0 0.131868 0 0.132653 0 0.133438 0 
0.134223 0 0.135008 0 0.135793 0 0.136578 0 0.137363 
0 0.138148 0 0.138932 0 0.139717 0 0.140502 0 
0.141287 0 0.142072 0 0.142857 0 0.143642 0 0.144427 
0 0.145212 0 0.145997 0 0.146782 0 0.147567 0 
0.148352 0 0.149137 0 0.149922 0 0.150706 0 0.151491 
0 0.152276 0 0.153061 0 0.153846 0 0.154631 0 
0.155416 0 0.156201 0 0.156986 0 0.157771 0 0.158556 
0 0.159341 0 0.160126 0 0.160911 0 0.161695 0 
0.16248 0 0.163265 0 0.16405 0 0.164835 0 0.16562 
0 0.166405 0 0.16719 0 0.167975 0 0.16876 0 
0.169545 0 0.17033 0 0.171115 0 0.1719 0 0.172684 
0 0.173469 0 0.174254 0 0.175039 0 0.175824 0 
0.176609 0 0.177394 0 0.178179 0 0.178964 0 0.179749 
0 0.180534 0 0.181319 0 0.182104 0 0.182889 0 
0.183673 0 0.184458 0 0.185243 0 0.186028 0 0.186813 
0 0.187598 0 0.188383 0 0.189168 0 0.189953 0 
0.190738 0 0.191523 0 0.192308 0 0.193093 0 0.193878 
0 0.194662 0 0.195447 0 0.196232 0 0.197017 0 
0.197802 0 0.198587 0 0.199372 0 0.200157 0 0.200942 
0 0.201727 0 0.202512 0 0.203297 0 0.204082 0 
0.204867 0 0.205651 0 0.206436 0 0.207221 0 0.208006 
0 0.208791 0 0.209576 0 0.210361 0 0.211146 0 
0.211931 0 0.212716 0 0.213501 0 0.214286 0 0.215071 
0 0.215856 0 0.216641 0 0.217425 0 0.21821 0 
0.218995 0 0.21978 0 0.220565 0 0.22135 0 0.222135 
0 0.22292 0 0.223705 0 0.22449 0 0.225275 0 
0.22606 0 0.226845 0 0.22763 0 0.228414 0 0.229199 
0 0.229984 0 0.230769 0 0.231554 0 0.232339 0 
0.233124 0 0.233909 0 0.234694 0 0.235479 0 0.236264 
0 0.237049 0 0.237834 0 0.238619 0 0.239403 0 
0.240188 0 0.240973 0 0.241758 0 0.242543 0 0.243328 
0 0.244113 0 0.244898 0 0.245683 0 0.246468 0 
0.247253 0 0.248038 0 0.248823 0 0.249608 0 0.250392 
0 0.251177 0 0.251962 0 0.252747 0 0.253532 0 
0.254317 0 0.255102 0 0.255887 0 0.256672 0 0.257457 
0 0.258242 0 0.259027 0 0.259812 0 0.260597 0 
0.261381 0 0.262166 0 0.262951 0 0.263736 0 0.264521 
0 0.265306 0 0.266091 0 0.266876 0 0.267661 0 
0.268446 0 0.269231 0 0.270016 0 0.270801 0 0.271586 
0 0.27237 0 0.273155 0 0.27394 0 0.274725 0 
0.27551 0 0.276295 0 0.27708 0 0.277865 0 0.27865 
0 0.279435 0 0.28022 0 0.281005 0 0.28179 0 
0.282575 0 0.283359 0 0.284144 0 0.284929 0 0.285714 
0 0.286499 0 0.287284 0 0.288069 0 0.288854 0 
0.289639 0 0.290424 0 0.291209 0 0.291994 0 0.292779 
0 0.293564 0 0.294349 0 0.295133 0 0.295918 0 
0.296703 0 0.297488 0 0.298273 0 0.299058 0 0.299843 
0 0.300628 0 0.301413 0 0.302198 0 0.302983 0 
0.303768 0 0.304553 0 0.305338 0 0.306122 0 0.306907 
0 0.307692 0 0.308477 0 0.309262 0 0.310047 0 
0.310832 0 0.311617 0 0.312402 0 0.313187 0 0.313972 
0 0.314757 0 0.315542 0 0.316327 0 0.317111 0 
0.317896 0 0.318681 0 0.319466 0 0.320251 0 0.321036 
0 0.321821 0 0.322606 0 0.323391 0 0.324176 0 
0.324961 0 0.325746 0 0.326531 0 0.327316 0 0.3281 
0 0.328885 0 0.32967 0 0.330455 0 0.33124 0 
0.332025 0 0.33281 0 0.333595 0 0.33438 0 0.335165 
0 0.33595 0 0.336735 0 0.33752 0 0.338305 0 
0.339089 0 0.339874 0 0.340659 0 0.341444 0 0.342229 
0 0.343014 0 0.343799 0 0.344584 0 0.345369 0 
0.346154 0 0.346939 0 0.347724 0 0.348509 0 0.349294 
0 0.350078 0 0.350863 0 0.351648 0 0.352433 0 
0.353218 0 0.354003 0 0.354788 0 0.355573 0 0.356358 
0 0.357143 0 0.357928 0 0.358713 0 0.359498 0 
0.360283 0 0.361068 0 0.361852 0 0.362637 0 0.363422 
0 0.364207 0 0.364992 0 0.365777 0 0.366562 0 
0.367347 0 0.368132 0 0.368917 0 0.369702 0 0.370487 
0 0.371272 0 0.372057 0 0.372841 0 0.373626 0 
0.374411 0 0.375196 0 0.375981 0 0.376766 0 0.377551 
0 0.378336 0 0.379121 0 0.379906 0 0.380691 0 
0.381476 0 0.382261 0 0.383046 0 0.38383 0 0.384615 
0 0.3854 0 0.386185 0 0.38697 0 0.387755 0 
0.38854 0 0.389325 0 0.39011 0 0.390895 0 0.39168 
0 0.392465 0 0.39325 0 0.394035 0 0.394819 0 
0.395604 0 0.396389 0 0.397174 0 0.397959 0 0.398744 
0 0.399529 0 0.400314 0 0.401099 0 0.401884 0 
0.402669 0 0.403454 0 0.404239 0 0.405024 0 0.405808 
0 0.406593 0 0.407378 0 0.408163 0 0.408948 0 
0.409733 0 0.410518 0 0.411303 0 0.412088 0 0.412873 
0 0.413658 0 0.414443 0 0.415228 0 0.416013 0 
0.416797 0 0.417582 0 0.418367 0 0.419152 0 0.419937 
0 0.420722 0 0.421507 0 0.422292 0 0.423077 0 
0.423862 0 0.424647 0 0.425432 0 0.426217 0 0.427002 
0 0.427786 0 0.428571 0 0.429356 0 0.430141 0 
0.430926 0 0.431711 0 0.432496 0 0.433281 0 0.434066 
0 0.434851 0 0.435636 0 0.436421 0 0.437206 0 
0.437991 0 0.438776 0 0.43956 0 0.440345 0 0.44113 
0 0.441915 0 0.4427 0 0.443485 0 0.44427 0 
0.445055 0 0.44584 0 0.446625 0 0.44741 0 0.448195 
0 0.44898 0 0.449765 0 0.450549 0 0.451334 0 
0.452119 0 0.452904 0 0.453689 0 0.454474 0 0.455259 
0 0.456044 0 0.456829 0 0.457614 0 0.458399 0 
0.459184 0 0.459969 0 0.460754 0 0.461538 0 0.462323 
0 0.463108 0 0.463893 0 0.464678 0 0.465463 0 
0.466248 0 0.467033 0 0.467818 0 0.468603 0 0.469388 
0 0.470173 0 0.470958 0 0.471743 0 0.472527 0 
0.473312 0 0.474097 0 0.474882 0 0.475667 0 0.476452 
0 0.477237 0 0.478022 0 0.478807 0 0.479592 0 
0.480377 0 0.481162 0 0.481947 0 0.482732 0 0.483516 
0 0.484301 0 0.485086 0 0.485871 0 0.486656 0 
0.487441 0 0.488226 0 0.489011 0 0.489796 0 0.490581 
0 0.491366 0 0.492151 0 0.492936 0 0.493721 0 
0.494505 0 0.49529 0 0.496075 0 0.49686 0 0.497645 
0 0.49843 0 0.499215 0 0.5 0 0.500785 0 
0.50157 0 0.502355 0 0.50314 0 0.503925 0 0.50471 
0 0.505495 0 0.506279 0 0.507064 0 0.507849 0 
0.508634 0 0.509419 0 0.510204 0 0.510989 0 0.511774 
0 0.512559 0 0.513344 0 0.514129 0 0.514914 0 
0.515699 0 0.516484 0 0.517268 0 0.518053 0 0.518838 
0 0.519623 0 0.520408 0 0.521193 0 0.521978 0 
0.522763 0 0.523548 0 0.524333 0 0.525118 0 0.525903 
0 0.526688 0 0.527473 0 0.528257 0 0.529042 0 
0.529827 0 0.530612 0 0.531397 0 0.532182 0 0.532967 
0 0.533752 0 0.534537 0 0.535322 0 0.536107 0 
0.536892 0 0.537677 0 0.538462 0 0.539246 0 0.540031 
0 0.540816 0 0.541601 0 0.542386 0 0.543171 0 
0.543956 0 0.544741 0 0.545526 0 0.546311 0 0.547096 
0 0.547881 0 0.548666 0 0.549451 0 0.550235 0 
0.55102 0 0.551805 0 0.55259 0 0.553375 0 0.55416 
0 0.554945 0 0.55573 0 0.556515 0 0.5573 0 
0.558085 0 0.55887 0 0.559655 0 0.56044 0 0.561224 
0 0.562009 0 0.562794 0 0.563579 0 0.564364 0 
0.565149 0 0.565934 0 0.566719 0 0.567504 0 0.568289 
0 0.569074 0 0.569859 0 0.570644 0 0.571429 0 
0.572214 0 0.572998 0 0.573783 0 0.574568 0 0.575353 
0 0.576138 0 0.576923 0 0.577708 0 0.578493 0 
0.579278 0 0.580063 0 0.580848 0 0.581633 0 0.582418 
0 0.583203 0 0.583987 0 0.584772 0 0.585557 0 
0.586342 0 0.587127 0 0.587912 0 0.588697 0 0.589482 
0 0.590267 0 0.591052 0 0.591837 0 0.592622 0 
0.593407 0 0.594192 0 0.594976 0 0.595761 0 0.596546 
0 0.597331 0 0.598116 0 0.598901 0 0.599686 0 
0.600471 0 0.601256 0 0.602041 0 0.602826 0 0.603611 
0 0.604396 0 0.605181 0 0.605965 0 0.60675 0 
0.607535 0 0.60832 0 0.609105 0 0.60989 0 0.610675 
0 0.61146 0 0.612245 0 0.61303 0 0.613815 0 
0.6146 0 0.615385 0 0.61617 0 0.616954 0 0.617739 
0 0.618524 0 0.619309 0 0.620094 0 0.620879 0 
0.621664 0 0.622449 0 0.623234 0 0.624019 0 0.624804 
0 0.625589 0 0.626374 0 0.627159 0 0.627943 0 
0.628728 0 0.629513 0 0.630298 0 0.631083 0 0.631868 
0 0.632653 0 0.633438 0 0.634223 0 0.635008 0 
0.635793 0 0.636578 0 0.637363 0 0.638148 0 0.638932 
0 0.639717 0 0.640502 0 0.641287 0 0.642072 0 
0.642857 0 0.643642 0 0.644427 0 0.645212 0 0.645997 
0 0.646782 0 0.647567 0 0.648352 0 0.649137 0 
0.649922 0 0.650706 0 0.651491 0 0.652276 0 0.653061 
0 0.653846 0 0.654631 0 0.655416 0 0.656201 0 
0.656986 0 0.657771 0 0.658556 0 0.659341 0 0.660126 
0 0.660911 0 0.661695 0 0.66248 0 0.663265 0 
0.66405 0 0.664835 0 0.66562 0 0.666405 0 0.66719 
0 0.667975 0 0.66876 0 0.669545 0 0.67033 0 
0.671115 0 0.6719 0 0.672684 0 0.673469 0 0.674254 
0 0.675039 0 0.675824 0 0.676609 0 0.677394 0 