# vtk DataFile Version 4.2
vtk output
ASCII
DATASET POLYDATA
POINTS 1280 float
0 0 0 -0.00338335 0.000611227 0.00289833 -0.0132284 0.00238391 0.0113252 
-0.0290778 0.00522656 0.0248787 -0.050474 0.00904768 0.0431565 -0.0769597 0.0137558 0.0657566 
-0.108077 0.0192593 0.0922769 -0.143369 0.0254669 0.122315 -0.182379 0.0322869 0.15547 
-0.224648 0.039628 0.191338 -0.269719 0.0473985 0.229518 -0.317135 0.0555071 0.269608 
-0.366438 0.0638621 0.311206 -0.417171 0.0723722 0.353909 -0.468877 0.0809458 0.397315 
-0.521097 0.0894914 0.441023 -0.573375 0.0979176 0.48463 -0.625254 0.106133 0.527734 
-0.676275 0.114046 0.569934 -0.72599 0.121566 0.610833 -0.774202 0.128647 0.650252 
-0.820996 0.13529 0.688245 -0.86647 0.1415 0.724881 -0.910724 0.147279 0.760229 
-0.953854 0.152632 0.794355 -0.995961 0.157563 0.82733 -1.03714 0.162075 0.85922 
-1.0775 0.166173 0.890095 -1.11713 0.169861 0.920022 -1.15613 0.173141 0.94907 
-1.1946 0.176019 0.977307 -1.23264 0.178498 1.0048 -1.27035 0.180582 1.03162 
-1.30782 0.182275 1.05783 -1.34516 0.183581 1.08351 -1.38246 0.184503 1.10872 
-1.41982 0.185046 1.13352 -1.45735 0.185213 1.15799 -1.49514 0.185009 1.1822 
-1.53328 0.184437 1.20621 -1.57189 0.183501 1.23009 -1.61105 0.182205 1.25391 
-1.65086 0.180553 1.27774 -1.69135 0.17855 1.3016 -1.7325 0.176201 1.32547 
-1.77424 0.173511 1.34934 -1.81656 0.170486 1.37318 -1.8594 0.167131 1.39698 
-1.90272 0.163452 1.42071 -1.9465 0.159454 1.44435 -1.99067 0.155142 1.46789 
-2.03522 0.150523 1.49131 -2.08009 0.145601 1.51458 -2.12525 0.140382 1.53768 
-2.17065 0.134871 1.56061 -2.21626 0.129074 1.58332 -2.26203 0.122995 1.60581 
-2.30793 0.116642 1.62806 -2.35392 0.110018 1.65005 -2.39995 0.10313 1.67175 
-2.44599 0.0959827 1.69315 -2.49199 0.0885815 1.71422 -2.53794 0.0809265 1.73496 
-2.58384 0.0730103 1.75535 -2.62968 0.0648246 1.7754 -2.67549 0.0563615 1.79508 
-2.72126 0.0476128 1.8144 -2.767 0.0385704 1.83336 -2.81271 0.0292262 1.85194 
-2.85841 0.0195719 1.87013 -2.90409 0.00959961 1.88794 -2.94976 -0.000698894 1.90536 
-2.99543 -0.0113317 1.92238 -3.0411 -0.022307 1.93899 -3.08678 -0.0336328 1.95519 
-3.13247 -0.0453173 1.97097 -3.17818 -0.0573686 1.98632 -3.22392 -0.0697947 2.00125 
-3.26968 -0.0826039 2.01573 -3.31548 -0.0958043 2.02978 -3.36132 -0.109404 2.04337 
-3.40721 -0.123411 2.05651 -3.45315 -0.137832 2.06919 -3.49913 -0.152666 2.08141 
-3.54515 -0.167906 2.09317 -3.5912 -0.183544 2.10447 -3.63728 -0.199573 2.11532 
-3.68337 -0.215987 2.12572 -3.72946 -0.232778 2.13567 -3.77554 -0.24994 2.14517 
-3.82162 -0.267464 2.15422 -3.86767 -0.285345 2.16284 -3.9137 -0.303575 2.17101 
-3.95968 -0.322147 2.17875 -4.00562 -0.341053 2.18606 -4.0515 -0.360288 2.19293 
-4.09732 -0.379844 2.19937 -4.14307 -0.399713 2.20539 -4.18874 -0.419889 2.21098 
-4.23432 -0.440365 2.21615 -4.2798 -0.461134 2.2209 -4.32517 -0.482188 2.22523 
-4.37043 -0.503521 2.22915 -4.41557 -0.525127 2.23265 -4.46058 -0.547001 2.23575 
-4.50548 -0.56914 2.23845 -4.55025 -0.591539 2.24074 -4.59489 -0.614194 2.24264 
-4.63941 -0.637101 2.24415 -4.6838 -0.660256 2.24526 -4.72806 -0.683655 2.246 
-4.77219 -0.707293 2.24635 -4.81619 -0.731166 2.24632 -4.86005 -0.755271 2.24593 
-4.90378 -0.779602 2.24516 -4.94737 -0.804156 2.24403 -4.99082 -0.828929 2.24253 
-5.03414 -0.853916 2.24068 -5.07731 -0.879114 2.23848 -5.12035 -0.904517 2.23592 
-5.16324 -0.930123 2.23302 -5.20598 -0.955926 2.22978 -5.24858 -0.981923 2.2262 
-5.29103 -1.00811 2.22228 -5.33334 -1.03448 2.21804 -5.3755 -1.06103 2.21347 
-5.41751 -1.08777 2.20858 -5.45937 -1.11467 2.20337 -5.50109 -1.14175 2.19784 
-5.54266 -1.16899 2.19201 -5.58408 -1.19639 2.18588 -5.62535 -1.22395 2.17945 
-5.66648 -1.25167 2.17272 -5.70746 -1.27953 2.1657 -5.74829 -1.30754 2.15839 
-5.78897 -1.3357 2.1508 -5.82951 -1.36399 2.14293 -5.8699 -1.39242 2.13479 
-5.91013 -1.42098 2.12638 -5.95023 -1.44966 2.11771 -5.99017 -1.47847 2.10877 
-6.02996 -1.5074 2.09958 -6.06961 -1.53644 2.09014 -6.10911 -1.5656 2.08045 
-6.14846 -1.59486 2.07051 -6.18766 -1.62423 2.06034 -6.22673 -1.6537 2.04993 
-6.26565 -1.68327 2.03929 -6.30443 -1.71294 2.02842 -6.34307 -1.7427 2.01732 
-6.38158 -1.77256 2.00601 -6.41995 -1.80251 1.99448 -6.45819 -1.83254 1.98274 
-6.49629 -1.86266 1.97079 -6.53427 -1.89286 1.95864 -6.57212 -1.92314 1.94628 
-6.60984 -1.9535 1.93374 -6.64744 -1.98393 1.92099 -6.68492 -2.01444 1.90806 
-6.72228 -2.04501 1.89495 -6.75952 -2.07565 1.88166 -6.79664 -2.10635 1.86819 
-6.83364 -2.13712 1.85455 -6.87054 -2.16794 1.84073 -6.90732 -2.19882 1.82676 
-6.94399 -2.22975 1.81262 -6.98055 -2.26074 1.79832 -7.017 -2.29178 1.78386 
-7.05334 -2.32287 1.76924 -7.08958 -2.35401 1.75447 -7.12571 -2.3852 1.73954 
-7.16174 -2.41643 1.72447 -7.19767 -2.44771 1.70925 -7.2335 -2.47904 1.69387 
-7.26923 -2.5104 1.67836 -7.30486 -2.54181 1.6627 -7.3404 -2.57326 1.6469 
-7.37584 -2.60474 1.63097 -7.41118 -2.63626 1.6149 -7.44644 -2.66782 1.59869 
-7.4816 -2.69941 1.58235 -7.51667 -2.73103 1.56589 -7.55165 -2.76268 1.54929 
-7.58654 -2.79437 1.53257 -7.62135 -2.82608 1.51573 -7.65607 -2.85782 1.49876 
-7.69071 -2.88958 1.48167 -7.72527 -2.92137 1.46446 -7.75974 -2.95318 1.44713 
-7.79413 -2.98502 1.42968 -7.82844 -3.01688 1.41212 -7.86267 -3.04875 1.39443 
-7.89683 -3.08065 1.37664 -7.9309 -3.11257 1.35872 -7.9649 -3.1445 1.3407 
-7.99883 -3.17645 1.32256 -8.03268 -3.20842 1.30431 -8.06645 -3.2404 1.28595 
-8.10016 -3.27239 1.26747 -8.13379 -3.30439 1.24889 -8.16736 -3.33641 1.23021 
-8.20085 -3.36843 1.21141 -8.23428 -3.40047 1.19251 -8.26764 -3.43251 1.17351 
-8.30093 -3.46456 1.1544 -8.33416 -3.49661 1.13519 -8.36732 -3.52867 1.11588 
-8.40042 -3.56074 1.09646 -8.43345 -3.5928 1.07693 -8.46642 -3.62487 1.0573 
-8.49933 -3.65694 1.03757 -8.53217 -3.68901 1.01773 -8.56495 -3.72107 0.99778 
-8.59767 -3.75314 0.977728 -8.63032 -3.7852 0.95757 -8.66291 -3.81725 0.937304 
-8.69544 -3.84931 0.916932 -8.72791 -3.88135 0.896453 -8.76032 -3.91339 0.875866 
-8.79267 -3.94542 0.855171 -8.82495 -3.97744 0.834368 -8.85718 -4.00945 0.813457 
-8.88935 -4.04145 0.792437 -8.92146 -4.07344 0.771308 -8.95351 -4.10542 0.750069 
-8.9855 -4.13738 0.72872 -9.01744 -4.16932 0.70726 -9.04931 -4.20125 0.685686 
-9.08112 -4.23316 0.663997 -9.11288 -4.26505 0.642192 -9.14457 -4.29692 0.620269 
-9.1762 -4.32876 0.598226 -9.20777 -4.36059 0.576063 -9.23928 -4.39239 0.553777 
-9.27073 -4.42416 0.531367 -9.30212 -4.4559 0.508832 -9.33344 -4.48762 0.486169 
-9.3647 -4.51931 0.463379 -9.3959 -4.55096 0.440458 -9.42704 -4.58258 0.417406 
-9.45811 -4.61417 0.394221 -9.48912 -4.64572 0.370902 -9.52006 -4.67724 0.347446 
-9.55094 -4.70872 0.323853 -9.58176 -4.74015 0.300121 -9.61251 -4.77155 0.276248 
-9.64319 -4.8029 0.252231 -9.67381 -4.83421 0.228067 -9.70435 -4.86547 0.203752 
-9.73483 -4.89668 0.179284 -9.76523 -4.92783 0.154659 -9.79556 -4.95893 0.129875 
-9.82582 -4.98997 0.104929 -9.856 -5.02095 0.0798168 -9.88611 -5.05187 0.054536 
-9.91613 -5.08272 0.0290834 -9.94608 -5.11351 0.00345609 -9.97595 -5.14422 -0.0223491 
-10.0057 -5.17486 -0.0483353 -10.0354 -5.20543 -0.0745055 -10.0651 -5.23591 -0.100863 
-10.0946 -5.26632 -0.12741 -10.124 -5.29664 -0.154151 -10.1534 -5.32688 -0.181088 
-10.1827 -5.35704 -0.208224 -10.2118 -5.3871 -0.235563 -10.2409 -5.41706 -0.263107 
-10.2699 -5.44693 -0.290859 -10.2988 -5.4767 -0.318823 -10.3276 -5.50637 -0.347002 
-10.3563 -5.53592 -0.375399 -10.3849 -5.56536 -0.404016 -10.4134 -5.59469 -0.432857 
-10.4418 -5.62389 -0.461925 -10.47 -5.65297 -0.491223 -10.4982 -5.68192 -0.520753 
-10.5262 -5.71075 -0.55052 -10.5541 -5.73943 -0.580526 -10.5819 -5.76798 -0.610774 
-10.6096 -5.79638 -0.641267 -10.6372 -5.82463 -0.672008 -10.6646 -5.85274 -0.703 
-10.6919 -5.88069 -0.734247 -10.7191 -5.90848 -0.765751 -10.7461 -5.93611 -0.797516 
-10.773 -5.96357 -0.829544 -10.7998 -5.99087 -0.861835 -10.8264 -6.01799 -0.894389 
-10.8529 -6.04494 -0.927206 -10.8792 -6.07171 -0.960283 -10.9055 -6.0983 -0.993621 
-10.9315 -6.1247 -1.02722 -10.9574 -6.15092 -1.06107 -10.9832 -6.17695 -1.09519 
-11.0088 -6.20278 -1.12956 -11.0343 -6.22842 -1.16419 -11.0596 -6.25386 -1.19907 
-11.0847 -6.27909 -1.23421 -11.1098 -6.30412 -1.26961 -11.1346 -6.32895 -1.30525 
-11.1593 -6.35356 -1.34115 -11.1838 -6.37796 -1.37731 -11.2082 -6.40214 -1.41371 
-11.2324 -6.4261 -1.45036 -11.2564 -6.44983 -1.48726 -11.2803 -6.47334 -1.52442 
-11.304 -6.49663 -1.56181 -11.3276 -6.51969 -1.59945 -11.351 -6.54253 -1.63733 
-11.3742 -6.56514 -1.67543 -11.3973 -6.58754 -1.71376 -11.4202 -6.60973 -1.75232 
-11.4429 -6.6317 -1.79109 -11.4655 -6.65347 -1.83006 -11.488 -6.67502 -1.86925 
-11.5102 -6.69637 -1.90864 -11.5324 -6.71752 -1.94822 -11.5544 -6.73846 -1.98799 
-11.5762 -6.75921 -2.02795 -11.5979 -6.77976 -2.06809 -11.6195 -6.80012 -2.1084 
-11.6409 -6.82028 -2.14889 -11.6622 -6.84026 -2.18954 -11.6833 -6.86005 -2.23035 
-11.7043 -6.87966 -2.27131 -11.7252 -6.89908 -2.31243 -11.7459 -6.91833 -2.3537 
-11.7665 -6.9374 -2.3951 -11.7869 -6.9563 -2.43664 -11.8073 -6.97504 -2.47832 
-11.8275 -6.99362 -2.52012 -11.8476 -7.01204 -2.56206 -11.8675 -7.03031 -2.60411 
-11.8874 -7.04844 -2.64628 -11.9071 -7.06643 -2.68856 -11.9268 -7.08429 -2.73096 
-11.9463 -7.10201 -2.77346 -11.9657 -7.11961 -2.81606 -11.985 -7.13709 -2.85876 
-12.0042 -7.15446 -2.90155 -12.0233 -7.17171 -2.94443 -12.0423 -7.18886 -2.9874 
-12.0612 -7.20591 -3.03045 -12.08 -7.22287 -3.07357 -12.0988 -7.23973 -3.11677 
-12.1174 -7.25651 -3.16004 -12.136 -7.27321 -3.20337 -12.1544 -7.28983 -3.24677 
-12.1728 -7.30638 -3.29023 -12.1911 -7.32287 -3.33374 -12.2093 -7.33929 -3.37731 
-12.2275 -7.35566 -3.42094 -12.2456 -7.37198 -3.46461 -12.2636 -7.38825 -3.50833 
-12.2815 -7.40448 -3.5521 -12.2993 -7.42068 -3.5959 -12.3171 -7.43685 -3.63975 
-12.3348 -7.45299 -3.68364 -12.3525 -7.46911 -3.72756 -12.3701 -7.48521 -3.77151 
-12.3876 -7.5013 -3.81549 -12.405 -7.51739 -3.8595 -12.4224 -7.53347 -3.90354 
-12.4398 -7.54956 -3.9476 -12.457 -7.56566 -3.99168 -12.4742 -7.58177 -4.03577 
[...]
CELL_DATA 1
FIELD FieldData 2
Length 1 1 double
63.95689004 
Tortuosity 1 1 double
0.88928675723 
POINT_DATA 1280
SCALARS MaximumInscribedSphereRadius float
LOOKUP_TABLE default
1.24 1.23474 1.22948 1.22422 1.21896 1.21369 1.20843 1.20317 1.19791 
1.19265 1.18739 1.18213 1.17687 1.17161 1.16634 1.16108 1.15582 1.15056 
1.1453 1.14029 1.13558 1.13086 1.12615 1.12143 1.11672 1.112 1.10729 
1.10258 1.09786 1.09315 1.08843 1.08372 1.07901 1.07429 1.06958 1.06486 
1.06015 1.05543 1.05072 1.04601 1.04129 1.03658 1.03454 1.03533 1.03612 
1.0369 1.03769 1.03848 1.03927 1.04005 1.04084 1.04163 1.04242 1.0432 
1.04399 1.04478 1.04556 1.04635 1.04714 1.04793 1.04871 1.05235 1.06118 
1.07 1.07883 1.08765 1.09648 1.1053 1.11413 1.12295 1.13178 1.1406 
1.14943 1.15825 1.16708 1.1759 1.18473 1.19355 1.20237 1.2112 1.22002 
1.22885 1.24147 1.2555 1.26953 1.28356 1.2976 1.31163 1.32566 1.33969 
1.35373 1.36776 1.38179 1.39582 1.40986 1.42389 1.43792 1.45196 1.46599 
1.48002 1.49405 1.50809 1.51542 1.51462 1.51383 1.51303 1.51224 1.51144 
1.51064 1.50985 1.50905 1.50826 1.50746 1.50666 1.50587 1.50507 1.50427 
1.50348 1.50268 1.50189 1.50109 1.50029 1.49913 1.49596 1.49279 1.48962 
1.48644 1.48327 1.4801 1.47693 1.47375 1.47058 1.46741 1.46424 1.46106 
1.45789 1.45472 1.45155 1.44838 1.4452 1.44203 1.43886 1.43569 1.43475 
1.43423 1.43371 1.43318 1.43266 1.43214 1.43162 1.4311 1.43058 1.43005 
1.42953 1.42901 1.42849 1.42797 1.42745 1.42692 1.4264 1.42588 1.42536 
1.42484 1.42662 1.43032 1.43402 1.43771 1.44141 1.44511 1.44881 1.4525 
1.4562 1.4599 1.4636 1.46729 1.47099 1.47469 1.47839 1.48208 1.48578 
1.48948 1.49318 1.49687 1.50053 1.50405 1.50757 1.51109 1.51462 1.51814 
1.52166 1.52518 1.52871 1.53223 1.53575 1.53927 1.5428 1.54632 1.54984 
1.55336 1.55688 1.56041 1.56393 1.56745 1.57097 1.56659 1.56186 1.55713 
1.55241 1.54768 1.54295 1.53822 1.53349 1.52877 1.52404 1.51931 1.51458 
1.50986 1.50513 1.5004 1.49567 1.49094 1.48622 1.48149 1.47676 1.47154 
1.46606 1.46058 1.4551 1.44962 1.44415 1.43867 1.43319 1.42771 1.42224 
1.41676 1.41128 1.4058 1.40033 1.39485 1.38937 1.38389 1.37841 1.37294 
1.36746 1.3621 1.35694 1.35177 1.34661 1.34145 1.33629 1.33112 1.32596 
1.3208 1.31564 1.31047 1.30531 1.30015 1.29499 1.28982 1.28466 1.2795 
1.27433 1.26917 1.26401 1.25897 1.25541 1.25186 1.2483 1.24475 1.24119 
1.23764 1.23408 1.23053 1.22697 1.22342 1.21986 1.21631 1.21275 1.2092 
1.20564 1.20209 1.19853 1.19498 1.19142 1.18787 1.18956 1.19276 1.19595 
1.19915 1.20234 1.20553 1.20873 1.21192 1.21511 1.21831 1.2215 1.22469 
1.22789 1.23108 1.23428 1.23747 1.24066 1.24386 1.24705 1.25024 1.25669 
1.26673 1.27677 1.28681 1.29685 1.30689 1.31693 1.32696 1.337 1.34704 
1.35708 1.36712 1.37716 1.3872 1.39724 1.40728 1.41732 1.42735 1.43739 
1.44743 1.45751 1.46776 1.47801 1.48825 1.4985 1.50875 1.519 1.52924 
1.53949 1.54974 1.55999 1.57024 1.58048 1.59073 1.60098 1.61123 1.62147 
1.63172 1.64197 1.65222 1.66247 1.6711 1.67951 1.68792 1.69634 1.70475 
1.71317 1.72158 1.72999 1.73841 1.74682 1.75524 1.76365 1.77206 1.78048 
1.78889 1.79731 1.80572 1.81413 1.82255 1.83096 1.83745 1.8426 1.84775 
1.85289 1.85804 1.86319 1.86834 1.87348 1.87863 1.88378 1.88893 1.89407 
1.89922 1.90437 1.90951 1.91466 1.91981 1.92496 1.9301 1.93525 1.93824 
1.93612 1.934 1.93188 1.92976 1.92764 1.92552 1.92339 1.92127 1.91915 
1.91703 1.91491 1.91279 1.91067 1.90855 1.90643 1.90431 1.90219 1.90006 
1.89794 1.89581 1.88954 1.88326 1.87699 1.87072 1.86445 1.85818 1.8519 
1.84563 1.83936 1.83309 1.82681 1.82054 1.81427 1.808 1.80172 1.79545 
1.78918 1.78291 1.77663 1.77036 1.76111 1.75064 1.74016 1.72968 1.71921 
1.70873 1.69825 1.68778 1.6773 1.66682 1.65634 1.64587 1.63539 1.62491 
1.61444 1.60396 1.59348 1.58301 1.57253 1.56205 1.55154 1.54097 1.5304 
1.51982 1.50925 1.49868 1.48811 1.47754 1.46697 1.4564 1.44582 1.43525 
1.42468 1.41411 1.40354 1.39297 1.3824 1.37183 1.36125 1.35068 1.34073 
1.33574 1.33075 1.32577 1.32078 1.31579 1.3108 1.30581 1.30082 1.29583 
1.29084 1.28585 1.28086 1.27587 1.27088 1.26589 1.2609 1.25592 1.25093 
1.24594 1.24095 1.24 1.24 1.24 1.24 1.24 1.24 1.24 
1.24 1.24 1.24 1.24 1.24 1.24 1.24 1.24 1.24 
1.24 1.24 1.24 1.24 1.24024 1.24072 1.2412 1.24168 1.24216 
1.24263 1.24311 1.24359 1.24407 1.24455 1.24503 1.24551 1.24598 1.24646 
1.24694 1.24742 1.2479 1.24838 1.24886 1.24934 1.24986 1.25055 1.25124 
1.25193 1.25262 1.25331 1.254 1.25469 1.25538 1.25607 1.25676 1.25745 
1.25814 1.25883 1.25952 1.26021 1.2609 1.26159 1.26228 1.26297 1.26366 
1.26728 1.27125 1.27521 1.27918 1.28315 1.28712 1.29109 1.29505 1.29902 
1.30299 1.30696 1.31093 1.3149 1.31886 1.32283 1.3268 1.33077 1.33474 
1.3387 1.34267 1.35163 1.36405 1.37648 1.3889 1.40132 1.41375 1.42617 
1.4386 1.45102 1.46345 1.47587 1.4883 1.50072 1.51315 1.52557 1.53799 
1.55042 1.56284 1.57527 1.58769 1.60044 1.614 1.62755 1.64111 1.65466 
1.66821 1.68177 1.69532 1.70887 1.72243 1.73598 1.74953 1.76309 1.77664 
1.79019 1.80375 1.8173 1.83086 1.84441 1.85796 1.87152 1.87939 1.88721 
1.89503 1.90285 1.91067 1.91849 1.92631 1.93414 1.94196 1.94978 1.9576 
1.96542 1.97324 1.98106 1.98889 1.99671 2.00453 2.01235 2.02017 2.02799 
2.03417 2.03962 2.04507 2.05052 2.05597 2.06142 2.06687 2.07231 2.07776 
2.08321 2.08866 2.09411 2.09956 2.10501 2.11046 2.11591 2.12136 2.1268 
2.13225 2.1377 2.14153 2.14285 2.14416 2.14548 2.1468 2.14812 2.14944 
2.15075 2.15207 2.15339 2.15471 2.15603 2.15734 2.15866 2.15998 2.1613 
2.16262 2.16393 2.16525 2.16657 2.16682 2.15631 2.1458 2.13529 2.12479 
2.11428 2.10377 2.09326 2.08275 2.07224 2.06173 2.05122 2.04072 2.03021 
2.0197 2.00919 1.99868 1.98817 1.97766 1.96716 1.95665 1.94324 1.92902 
1.91481 1.9006 1.88638 1.87217 1.85795 1.84374 1.82953 1.81531 1.8011 
1.78689 1.77267 1.75846 1.74425 1.73003 1.71582 1.7016 1.68739 1.67318 
1.66574 1.66631 1.66688 1.66745 1.66802 1.66859 1.66916 1.66973 1.6703 
1.67087 1.67144 1.67201 1.67258 1.67315 1.67372 1.67429 1.67486 1.67543 
1.67599 1.67656 1.67763 1.68204 1.68645 1.69086 1.69527 1.69968 1.70409 
1.7085 1.7129 1.71731 1.72172 1.72613 1.73054 1.73495 1.73936 1.74377 
1.74818 1.75259 1.75699 1.7614 1.76581 1.76679 1.767 1.76721 1.76743 
1.76764 1.76786 1.76807 1.76829 1.7685 1.76872 1.76893 1.76914 1.76936 
1.76957 1.76979 1.77 1.77022 1.77043 1.77065 1.77086 1.7676 1.76067 
1.75374 1.74681 1.73988 1.73296 1.72603 1.7191 1.71217 1.70524 1.69831 
1.69138 1.68445 1.67752 1.67059 1.66366 1.65673 1.6498 1.64287 1.63595 
1.6297 1.62664 1.62357 1.62051 1.61744 1.61438 1.61132 1.60825 1.60519 
1.60213 1.59906 1.596 1.59294 1.58987 1.58681 1.58374 1.58068 1.57762 
1.57455 1.57149 1.56843 1.56727 1.56638 1.56549 1.5646 1.56371 1.56282 
1.56193 1.56104 1.56016 1.55927 1.55838 1.55749 1.5566 1.55571 1.55482 
1.55393 1.55304 1.55215 1.55126 1.55037 1.55109 1.55296 1.55483 1.5567 
1.55858 1.56045 1.56232 1.56419 1.56606 1.56794 1.56981 1.57168 1.57355 
1.57543 1.5773 1.57917 1.58104 1.58292 1.58479 1.58666 1.58934 1.59407 
1.5988 1.60353 1.60825 1.61298 1.61771 1.62244 1.62716 1.63189 1.63662 
1.64134 1.64607 1.6508 1.65553 1.66025 1.66498 1.66971 1.67444 1.67916 
1.68389 1.69034 1.69681 1.70327 1.70974 1.71621 1.72268 1.72914 1.73561 
1.74208 1.74855 1.75501 1.76148 1.76795 1.77442 1.78088 1.78735 1.79382 
1.80029 1.80675 1.81322 1.81643 1.81818 1.81994 1.8217 1.82346 1.82521 
1.82697 1.82873 1.83048 1.83224 1.834 1.83576 1.83751 1.83927 1.84103 
1.84279 1.84454 1.8463 1.84806 1.84981 1.85106 1.85151 1.85196 1.8524 
1.85285 1.8533 1.85375 1.8542 1.85465 1.8551 1.85555 1.856 1.85645 
1.8569 1.85735 1.8578 1.85825 1.85869 1.85914 1.85959 1.86 1.86 
1.86 1.86 1.86 1.86 1.86 1.86 1.86 1.86 1.86 
1.86 1.86 1.86 1.86 1.86 1.86 1.86 1.86 1.86 
1.86 1.85988 1.85973 1.85958 1.85943 1.85928 1.85913 1.85898 1.85883 
1.85868 1.85853 1.85838 1.85823 1.85808 1.85793 1.85778 1.85763 1.85748 
1.85733 1.85718 1.85703 1.85635 1.85514 1.85393 1.85272 1.85152 1.85031 
1.8491 1.84789 1.84668 1.84548 1.84427 1.84306 1.84185 1.84064 1.83944 
1.83823 1.83702 1.83581 1.8346 1.83339 1.83024 1.81939 1.80854 1.79769 
1.78684 1.77599 1.76513 1.75428 1.74343 1.73258 1.72173 1.71088 1.70003 
1.68918 1.67833 1.66748 1.65663 1.64577 1.63492 1.62407 1.61322 1.6024 
1.59157 1.58075 1.56993 1.5591 1.54828 1.53746 1.52663 1.51581 1.50499 
1.49417 1.48334 1.47252 1.4617 1.45087 1.44005 1.42923 1.41841 1.40758 
1.39676 1.39001 1.38583 1.38165 1.37747 1.37329 1.36911 1.36492 1.36074 
1.35656 1.35238 1.3482 1.34402 1.33983 1.33565 1.33147 1.32729 1.32311 
1.31893 1.31474 1.31056 1.3098 1.3163 1.32281 1.32931 1.33581 1.34232 
1.34882 1.35532 1.36183 1.36833 1.37483 1.38134 1.38784 1.39434 1.40085 
1.40735 1.41385 1.42036 1.42686 1.43336 1.43981 1.44431 1.44881 1.45331 
1.45781 1.46231 1.46681 1.47131 1.47581 1.48031 1.48481 1.48931 1.49381 
1.49831 1.50281 1.50731 1.5118 1.5163 1.5208 1.5253 1.5298 1.52591 
1.51898 1.51205 1.50512 1.49819 1.49126 1.48433 1.4774 1.47047 1.46354 
1.45661 1.44968 1.44275 1.43582 1.42889 1.42196 1.41502 1.40809 1.40116 
1.39423 1.38726 1.38023 1.37319 1.36616 1.35913 1.3521 1.34506 1.33803 
1.331 1.32397 1.31693 1.3099 1.30287 1.29584 1.2888 1.28177 1.27474 
1.26771 1.26067 1.25364 1.24753 1.24681 1.24608 1.24536 1.24463 1.2439 
1.24318 1.24245 1.24173 1.241 1.24027 1.23955 1.23882 1.2381 1.23737 
1.23664 1.23592 1.23519 1.23447 1.23374 1.23301 1.24079 1.25016 1.25953 
1.2689 1.27827 1.28763 1.297 1.30637 1.31574 1.32511 1.33447 1.34384 
1.35321 1.36258 1.37194 1.38131 1.39068 1.40005 1.40942 1.41878 1.42373 
1.4251 1.42647 1.42784 1.4292 1.43057 1.43194 1.43331 1.43467 1.43604 
1.43741 1.43878 1.44014 1.44151 1.44288 1.44424 1.44561 1.44698 1.44835 
1.44971 1.44917 1.44387 1.43858 1.43328 1.42798 1.42268 1.41738 1.41209 
1.40679 1.40149 1.39619 1.39089 1.3856 1.3803 1.375 1.3697 1.3644 
1.35911 1.35381 1.34851 1.34321 1.34092 1.34005 1.33919 1.33833 1.33746 
1.3366 1.33574 1.33487 1.33401 1.33315 1.33229 1.33142 1.33056 1.3297 
1.32883 1.32797 1.32711 1.32624 1.32538 1.3274 1.33244 1.33747 1.34251 
1.34754 1.35258 1.35761 1.36265 1.36768 1.37271 1.37775 1.38278 1.38782 
1.39285 1.39789 1.40292 1.40796 1.41299 1.41803 1.42306 1.4281 1.43313 
1.43817 1.44463 1.4522 1.45978 1.46735 1.47493 1.48251 1.49008 1.49766 
1.50524 1.51281 1.52039 1.52797 1.53554 1.54312 1.55069 1.55827 1.56585 
1.57342 1.581 
TEXTURE_COORDINATES TCoords 2 float
0 0 0.000781861 0 0.00156372 0 0.00234558 0 0.00312744 
0 0.0039093 0 0.00469116 0 0.00547303 0 0.00625489 0 
0.00703675 0 0.00781861 0 0.00860047 0 0.00938233 0 0.0101642 
0 0.0109461 0 0.0117279 0 0.0125098 0 0.0132916 0 
0.0140735 0 0.0148554 0 0.0156372 0 0.0164191 0 0.0172009 
0 0.0179828 0 0.0187647 0 0.0195465 0 0.0203284 0 
0.0211102 0 0.0218921 0 0.022674 0 0.0234558 0 0.0242377 
0 0.0250195 0 0.0258014 0 0.0265833 0 0.0273651 0 
0.028147 0 0.0289288 0 0.0297107 0 0.0304926 0 0.0312744 
0 0.0320563 0 0.0328382 0 0.03362 0 0.0344019 0 
0.0351837 0 0.0359656 0 0.0367475 0 0.0375293 0 0.0383112 
0 0.039093 0 0.0398749 0 0.0406568 0 0.0414386 0 
0.0422205 0 0.0430023 0 0.0437842 0 0.0445661 0 0.0453479 
0 0.0461298 0 0.0469116 0 0.0476935 0 0.0484754 0 
0.0492572 0 0.0500391 0 0.050821 0 0.0516028 0 0.0523847 
0 0.0531665 0 0.0539484 0 0.0547303 0 0.0555121 0 
0.056294 0 0.0570758 0 0.0578577 0 0.0586396 0 0.0594214 
0 0.0602033 0 0.0609851 0 0.061767 0 0.0625489 0 
0.0633307 0 0.0641126 0 0.0648944 0 0.0656763 0 0.0664582 
0 0.06724 0 0.0680219 0 0.0688037 0 0.0695856 0 
0.0703675 0 0.0711493 0 0.0719312 0 0.0727131 0 0.0734949 
0 0.0742768 0 0.0750586 0 0.0758405 0 0.0766224 0 
0.0774042 0 0.0781861 0 0.0789679 0 0.0797498 0 0.0805317 
0 0.0813135 0 0.0820954 0 0.0828772 0 0.0836591 0 
0.084441 0 0.0852228 0 0.0860047 0 0.0867866 0 0.0875684 
0 0.0883503 0 0.0891321 0 0.089914 0 0.0906959 0 
0.0914777 0 0.0922596 0 0.0930414 0 0.0938233 0 0.0946052 
0 0.095387 0 0.0961689 0 0.0969507 0 0.0977326 0 
0.0985145 0 0.0992963 0 0.100078 0 0.10086 0 0.101642 
0 0.102424 0 0.103206 0 0.103987 0 0.104769 0 
0.105551 0 0.106333 0 0.107115 0 0.107897 0 0.108679 
0 0.109461 0 0.110242 0 0.111024 0 0.111806 0 
0.112588 0 0.11337 0 0.114152 0 0.114934 0 0.115715 
0 0.116497 0 0.117279 0 0.118061 0 0.118843 0 
0.119625 0 0.120407 0 0.121188 0 0.12197 0 0.122752 
0 0.123534 0 0.124316 0 0.125098 0 0.12588 0 
0.126661 0 0.127443 0 0.128225 0 0.129007 0 0.129789 
0 0.130571 0 0.131353 0 0.132134 0 0.132916 0 
0.133698 0 0.13448 0 0.135262 0 0.136044 0 0.136826 
0 0.137607 0 0.138389 0 0.139171 0 0.139953 0 
0.140735 0 0.141517 0 0.142299 0 0.143081 0 0.143862 
0 0.144644 0 0.145426 0 0.146208 0 0.14699 0 
0.147772 0 0.148554 0 0.149335 0 0.150117 0 0.150899 
0 0.151681 0 0.152463 0 0.153245 0 0.154027 0 
0.154808 0 0.15559 0 0.156372 0 0.157154 0 0.157936 
0 0.158718 0 0.1595 0 0.160281 0 0.161063 0 
0.161845 0 0.162627 0 0.163409 0 0.164191 0 0.164973 
0 0.165754 0 0.166536 0 0.167318 0 0.1681 0 
0.168882 0 0.169664 0 0.170446 0 0.171228 0 0.172009 
0 0.172791 0 0.173573 0 0.174355 0 0.175137 0 
0.175919 0 0.176701 0 0.177482 0 0.178264 0 0.179046 
0 0.179828 0 0.18061 0 0.181392 0 0.182174 0 
0.182955 0 0.183737 0 0.184519 0 0.185301 0 0.186083 
0 0.186865 0 0.187647 0 0.188428 0 0.18921 0 
0.189992 0 0.190774 0 0.191556 0 0.192338 0 0.19312 
0 0.193901 0 0.194683 0 0.195465 0 0.196247 0 
0.197029 0 0.197811 0 0.198593 0 0.199375 0 0.200156 
0 0.200938 0 0.20172 0 0.202502 0 0.203284 0 
0.204066 0 0.204848 0 0.205629 0 0.206411 0 0.207193 
0 0.207975 0 0.208757 0 0.209539 0 0.210321 0 
0.211102 0 0.211884 0 0.212666 0 0.213448 0 0.21423 
0 0.215012 0 0.215794 0 0.216575 0 0.217357 0 
0.218139 0 0.218921 0 0.219703 0 0.220485 0 0.221267 
0 0.222048 0 0.22283 0 0.223612 0 0.224394 0 
0.225176 0 0.225958 0 0.22674 0 0.227521 0 0.228303 
0 0.229085 0 0.229867 0 0.230649 0 0.231431 0 
0.232213 0 0.232995 0 0.233776 0 0.234558 0 0.23534 
0 0.236122 0 0.236904 0 0.237686 0 0.238468 0 
0.239249 0 0.240031 0 0.240813 0 0.241595 0 0.242377 
0 0.243159 0 0.243941 0 0.244722 0 0.245504 0 
0.246286 0 0.247068 0 0.24785 0 0.248632 0 0.249414 
0 0.250195 0 0.250977 0 0.251759 0 0.252541 0 
0.253323 0 0.254105 0 0.254887 0 0.255668 0 0.25645 
0 0.257232 0 0.258014 0 0.258796 0 0.259578 0 
0.26036 0 0.261142 0 0.261923 0 0.262705 0 0.263487 
0 0.264269 0 0.265051 0 0.265833 0 0.266615 0 
0.267396 0 0.268178 0 0.26896 0 0.269742 0 0.270524 
0 0.271306 0 0.272088 0 0.272869 0 0.273651 0 
0.274433 0 0.275215 0 0.275997 0 0.276779 0 0.277561 
0 0.278342 0 0.279124 0 0.279906 0 0.280688 0 
0.28147 0 0.282252 0 0.283034 0 0.283815 0 0.284597 
0 0.285379 0 0.286161 0 0.286943 0 0.287725 0 
0.288507 0 0.289289 0 0.29007 0 0.290852 0 0.291634 
0 0.292416 0 0.293198 0 0.29398 0 0.294762 0 
0.295543 0 0.296325 0 0.297107 0 0.297889 0 0.298671 
0 0.299453 0 0.300235 0 0.301016 0 0.301798 0 
0.30258 0 0.303362 0 0.304144 0 0.304926 0 0.305708 
0 0.306489 0 0.307271 0 0.308053 0 0.308835 0 
0.309617 0 0.310399 0 0.311181 0 0.311962 0 0.312744 
0 0.313526 0 0.314308 0 0.31509 0 0.315872 0 
0.316654 0 0.317436 0 0.318217 0 0.318999 0 0.319781 
0 0.320563 0 0.321345 0 0.322127 0 0.322909 0 
0.32369 0 0.324472 0 0.325254 0 0.326036 0 0.326818 
0 0.3276 0 0.328382 0 0.329163 0 0.329945 0 
0.330727 0 0.331509 0 0.332291 0 0.333073 0 0.333855 
0 0.334636 0 0.335418 0 0.3362 0 0.336982 0 
0.337764 0 0.338546 0 0.339328 0 0.340109 0 0.340891 
0 0.341673 0 0.342455 0 0.343237 0 0.344019 0 
0.344801 0 0.345582 0 0.346364 0 0.347146 0 0.347928 
0 0.34871 0 0.349492 0 0.350274 0 0.351056 0 
0.351837 0 0.352619 0 0.353401 0 0.354183 0 0.354965 
0 0.355747 0 0.356529 0 0.35731 0 0.358092 0 
0.358874 0 0.359656 0 0.360438 0 0.36122 0 0.362002 
0 0.362783 0 0.363565 0 0.364347 0 0.365129 0 
0.365911 0 0.366693 0 0.367475 0 0.368256 0 0.369038 
0 0.36982 0 0.370602 0 0.371384 0 0.372166 0 
0.372948 0 0.373729 0 0.374511 0 0.375293 0 0.376075 
0 0.376857 0 0.377639 0 0.378421 0 0.379203 0 
0.379984 0 0.380766 0 0.381548 0 0.38233 0 0.383112 
0 0.383894 0 0.384676 0 0.385457 0 0.386239 0 
0.387021 0 0.387803 0 0.388585 0 0.389367 0 0.390149 
0 0.39093 0 0.391712 0 0.392494 0 0.393276 0 
0.394058 0 0.39484 0 0.395622 0 0.396403 0 0.397185 
0 0.397967 0 0.398749 0 0.399531 0 0.400313 0 
0.401095 0 0.401876 0 0.402658 0 0.40344 0 0.404222 
0 0.405004 0 0.405786 0 0.406568 0 0.407349 0 
0.408131 0 0.408913 0 0.409695 0 0.410477 0 0.411259 
0 0.412041 0 0.412823 0 0.413604 0 0.414386 0 
0.415168 0 0.41595 0 0.416732 0 0.417514 0 0.418296 
0 0.419077 0 0.419859 0 0.420641 0 0.421423 0 
0.422205 0 0.422987 0 0.423769 0 0.42455 0 0.425332 
0 0.426114 0 0.426896 0 0.427678 0 0.42846 0 
0.429242 0 0.430023 0 0.430805 0 0.431587 0 0.432369 
0 0.433151 0 0.433933 0 0.434715 0 0.435496 0 
0.436278 0 0.43706 0 0.437842 0 0.438624 0 0.439406 
0 0.440188 0 0.440969 0 0.441751 0 0.442533 0 
0.443315 0 0.444097 0 0.444879 0 0.445661 0 0.446443 
0 0.447224 0 0.448006 0 0.448788 0 0.44957 0 
0.450352 0 0.451134 0 0.451916 0 0.452697 0 0.453479 
0 0.454261 0 0.455043 0 0.455825 0 0.456607 0 
0.457389 0 0.45817 0 0.458952 0 0.459734 0 0.460516 
0 0.461298 0 0.46208 0 0.462862 0 0.463643 0 
0.464425 0 0.465207 0 0.465989 0 0.466771 0 0.467553 
0 0.468335 0 0.469117 0 0.469898 0 0.47068 0 
0.471462 0 0.472244 0 0.473026 0 0.473808 0 0.47459 
0 0.475371 0 0.476153 0 0.476935 0 0.477717 0 
0.478499 0 0.479281 0 0.480063 0 0.480844 0 0.481626 
0 0.482408 0 0.48319 0 0.483972 0 0.484754 0 
0.485536 0 0.486317 0 0.487099 0 0.487881 0 0.488663 
0 0.489445 0 0.490227 0 0.491009 0 0.49179 0 
0.492572 0 0.493354 0 0.494136 0 0.494918 0 0.4957 
0 0.496482 0 0.497263 0 0.498045 0 0.498827 0 
0.499609 0 0.500391 0 0.501173 0 0.501955 0 0.502737 
0 0.503518 0 0.5043 0 0.505082 0 0.505864 0 
0.506646 0 0.507428 0 0.50821 0 0.508991 0 0.509773 
0 0.510555 0 0.511337 0 0.512119 0 0.512901 0 
0.513683 0 0.514464 0 0.515246 0 0.516028 0 0.51681 
0 0.517592 0 0.518374 0 0.519156 0 0.519937 0 
0.520719 0 0.521501 0 0.522283 0 0.523065 0 0.523847 
0 0.524629 0 0.52541 0 0.526192 0 0.526974 0 
0.527756 0 0.528538 0 0.52932 0 0.530102 0 0.530883 
0 0.531665 0 0.532447 0 0.533229 0 0.534011 0 
0.534793 0 0.535575 0 0.536357 0 0.537138 0 0.53792 
0 0.538702 0 0.539484 0 0.540266 0 0.541048 0 
0.54183 0 0.542611 0 0.543393 0 0.544175 0 0.544957 
0 0.545739 0 0.546521 0 0.547303 0 0.548084 0 
0.548866 0 0.549648 0 0.55043 0 0.551212 0 0.551994 
0 0.552776 0 0.553557 0 0.554339 0 0.555121 0 
0.555903 0 0.556685 0 0.557467 0 0.558249 0 0.55903 
0 0.559812 0 0.560594 0 0.561376 0 0.562158 0 
0.56294 0 0.563722 0 0.564503 0 0.565285 0 0.566067 
0 0.566849 0 0.567631 0 0.568413 0 0.569195 0 
0.569977 0 0.570758 0 0.57154 0 0.572322 0 0.573104 
0 0.573886 0 0.574668 0 0.57545 0 0.576231 0 
0.577013 0 0.577795 0 0.578577 0 0.579359 0 0.580141 
0 0.580923 0 0.581704 0 0.582486 0 0.583268 0 
0.58405 0 0.584832 0 0.585614 0 0.586396 0 0.587177 
0 0.587959 0 0.588741 0 0.589523 0 0.590305 0 
0.591087 0 0.591869 0 0.592651 0 0.593432 0 0.594214 
0 0.594996 0 0.595778 0 0.59656 0 0.597342 0 
0.598124 0 0.598905 0 0.599687 0 0.600469 0 0.601251 
0 0.602033 0 0.602815 0 0.603597 0 0.604378 0 
0.60516 0 0.605942 0 0.606724 0 0.607506 0 0.608288 
0 0.60907 0 0.609851 0 0.610633 0 0.611415 0 
0.612197 0 0.612979 0 0.613761 0 0.614543 0 0.615324 
0 0.616106 0 0.616888 0 0.61767 0 0.618452 0 
0.619234 0 0.620016 0 0.620798 0 0.621579 0 0.622361 
0 0.623143 0 0.623925 0 0.624707 0 0.625489 0 
0.626271 0 0.627052 0 0.627834 0 0.628616 0 0.629398 
0 0.63018 0 0.630962 0 0.631744 0 0.632525 0 
0.633307 0 0.634089 0 0.634871 0 0.635653 0 0.636435 
0 0.637217 0 0.637998 0 0.63878 0 0.639562 0 
0.640344 0 0.641126 0 0.641908 0 0.64269 0 0.643471 
0 0.644253 0 0.645035 0 0.645817 0 0.646599 0 
0.647381 0 0.648163 0 0.648944 0 0.649726 0 0.650508 
0 0.65129 0 0.652072 0 0.652854 0 0.653636 0 
0.654418 0 0.655199 0 0.655981 0 0.656763 0 0.657545 
0 0.658327 0 0.659109 0 0.659891 0 0.660672 0 
0.661454 0 0.662236 0 0.663018 0 0.6638 0 0.664582 
0 0.665364 0 0.666145 0 0.666927 0 0.667709 0 