# vtk DataFile Version 4.2
vtk output
ASCII
DATASET POLYDATA
POINTS 1279 float
0 0 0 -0.00405933 0.000677221 0.00051309 -0.0158971 0.00262616 0.00200987 
-0.0350027 0.00572274 0.00442661 -0.0608659 0.00984287 0.00769957 -0.0929762 0.0148625 0.011765 
-0.130823 0.0206574 0.0165592 -0.173896 0.0271037 0.0220185 -0.221685 0.0340772 0.028079 
-0.273679 0.0414538 0.034677 -0.329369 0.0491095 0.0417489 -0.388242 0.0569201 0.0492309 
-0.44979 0.0647616 0.0570592 -0.513502 0.0725099 0.0651701 -0.578866 0.0800409 0.0734999 
-0.645374 0.0872306 0.0819849 -0.712513 0.0939547 0.0905612 -0.779775 0.100089 0.0991653 
-0.846648 0.10551 0.107733 -0.912622 0.110094 0.116201 -0.977187 0.113715 0.124506 
-1.03984 0.116252 0.132584 -1.10032 0.117649 0.140404 -1.15876 0.117945 0.147976 
-1.21528 0.117187 0.155318 -1.27002 0.115419 0.162443 -1.32313 0.11269 0.169366 
-1.37474 0.109043 0.176103 -1.42498 0.104527 0.18267 -1.474 0.0991869 0.189081 
-1.52194 0.0930688 0.195351 -1.56893 0.0862191 0.201495 -1.61512 0.0786838 0.207529 
-1.66063 0.0705091 0.213468 -1.70562 0.0617413 0.219327 -1.75021 0.0524264 0.225121 
-1.79454 0.0426106 0.230865 -1.83876 0.0323401 0.236574 -1.883 0.0216611 0.242265 
-1.9274 0.0106196 0.24795 -1.9721 -0.00073806 0.253647 -2.01722 -0.0123674 0.259369 
-2.06283 -0.0242515 0.26512 -2.10886 -0.0363965 0.270893 -2.1553 -0.0488093 0.276684 
-2.20209 -0.0614969 0.282485 -2.2492 -0.0744662 0.288291 -2.2966 -0.0877241 0.294094 
-2.34423 -0.101278 0.29989 -2.39207 -0.115133 0.305672 -2.44008 -0.129299 0.311434 
-2.48821 -0.14378 0.31717 -2.53644 -0.158585 0.322873 -2.58471 -0.17372 0.328537 
-2.63299 -0.189193 0.334157 -2.68124 -0.205009 0.339725 -2.72943 -0.221176 0.345237 
-2.77752 -0.237701 0.350685 -2.82546 -0.254591 0.356064 -2.87321 -0.271853 0.361368 
-2.92075 -0.289493 0.366589 -2.96803 -0.307519 0.371723 -3.01502 -0.325933 0.376764 
-3.06173 -0.344726 0.381712 -3.10817 -0.363885 0.386567 -3.15436 -0.383399 0.39133 
-3.2003 -0.403254 0.396 -3.24601 -0.42344 0.400579 -3.29151 -0.443943 0.405065 
-3.3368 -0.464752 0.409461 -3.38189 -0.485855 0.413765 -3.42681 -0.507238 0.417978 
-3.47156 -0.528891 0.422101 -3.51615 -0.550801 0.426134 -3.56061 -0.572956 0.430077 
-3.60493 -0.595343 0.43393 -3.64913 -0.617951 0.437694 -3.69323 -0.640767 0.441369 
-3.73724 -0.663779 0.444955 -3.78117 -0.686976 0.448453 -3.82503 -0.710344 0.451862 
-3.86883 -0.733872 0.455184 -3.9126 -0.757548 0.458418 -3.95632 -0.781368 0.461563 
-4 -0.80533 0.464618 -4.04363 -0.82943 0.467581 -4.08722 -0.853666 0.47045 
-4.13077 -0.878036 0.473225 -4.17426 -0.902537 0.475903 -4.21771 -0.927166 0.478483 
-4.26111 -0.951922 0.480964 -4.30446 -0.976802 0.483344 -4.34776 -1.0018 0.485621 
-4.391 -1.02692 0.487794 -4.43419 -1.05216 0.489862 -4.47733 -1.07751 0.491823 
-4.5204 -1.10297 0.493675 -4.56342 -1.12853 0.495417 -4.60638 -1.15421 0.497047 
-4.64928 -1.17999 0.498564 -4.69212 -1.20587 0.499967 -4.7349 -1.23185 0.501253 
-4.77761 -1.25792 0.502422 -4.82027 -1.28409 0.503472 -4.86286 -1.31034 0.5044 
-4.90539 -1.33668 0.505206 -4.94787 -1.3631 0.505888 -4.9903 -1.38959 0.506445 
-5.03268 -1.41615 0.506874 -5.07502 -1.44278 0.507174 -5.11731 -1.46947 0.507343 
-5.15956 -1.49622 0.507381 -5.20178 -1.52302 0.507285 -5.24396 -1.54987 0.507053 
-5.28611 -1.57677 0.506685 -5.32823 -1.6037 0.506178 -5.37033 -1.63067 0.50553 
-5.41241 -1.65767 0.504742 -5.45446 -1.6847 0.503809 -5.4965 -1.71174 0.502732 
-5.53853 -1.73881 0.501508 -5.58054 -1.76589 0.500136 -5.62254 -1.79298 0.498614 
-5.66454 -1.82007 0.496941 -5.70654 -1.84717 0.495112 -5.74852 -1.87426 0.493125 
-5.79051 -1.90136 0.490976 -5.83249 -1.92845 0.488664 -5.87446 -1.95553 0.486183 
-5.91644 -1.9826 0.483531 -5.95841 -2.00966 0.480706 -6.00038 -2.0367 0.477703 
-6.04234 -2.06373 0.474519 -6.08431 -2.09074 0.471152 -6.12627 -2.11772 0.467598 
-6.16824 -2.14469 0.463854 -6.2102 -2.17162 0.459917 -6.25217 -2.19852 0.455784 
-6.29414 -2.2254 0.45145 -6.33611 -2.25223 0.446914 -6.37808 -2.27904 0.442173 
-6.42005 -2.3058 0.437222 -6.46203 -2.33252 0.432058 -6.50401 -2.35919 0.426679 
-6.54599 -2.38582 0.42108 -6.58798 -2.4124 0.415255 -6.62996 -2.43893 0.409199 
-6.67194 -2.46542 0.402907 -6.71392 -2.49184 0.396374 -6.75589 -2.51822 0.389595 
-6.79785 -2.54453 0.382566 -6.83981 -2.57079 0.37528 -6.88176 -2.59699 0.367732 
-6.9237 -2.62313 0.359919 -6.96562 -2.6492 0.351834 -7.00753 -2.67521 0.343472 
-7.04943 -2.70115 0.334829 -7.09131 -2.72702 0.325899 -7.13317 -2.75282 0.316678 
-7.17501 -2.77855 0.307159 -7.21683 -2.80421 0.297339 -7.25862 -2.82979 0.287211 
-7.3004 -2.85529 0.276771 -7.34215 -2.88072 0.266014 -7.38386 -2.90606 0.254934 
-7.42555 -2.93133 0.243524 -7.46719 -2.95651 0.231778 -7.50878 -2.98161 0.21969 
-7.55033 -3.00662 0.207254 -7.59181 -3.03156 0.194463 -7.63324 -3.0564 0.181311 
-7.6746 -3.08116 0.167791 -7.71588 -3.10583 0.153897 -7.75708 -3.13042 0.139624 
-7.7982 -3.15491 0.124964 -7.83923 -3.17932 0.109911 -7.88017 -3.20363 0.0944589 
-7.92101 -3.22785 0.0786015 -7.96173 -3.25198 0.0623325 -8.00235 -3.27602 0.0456454 
-8.04285 -3.29996 0.0285339 -8.08323 -3.32381 0.0109917 -8.12348 -3.34756 -0.00698757 
-8.1636 -3.37122 -0.0254101 -8.20358 -3.39477 -0.0442805 -8.2434 -3.41824 -0.0636011 
-8.28307 -3.44161 -0.0833742 -8.32256 -3.46488 -0.103602 -8.36187 -3.48807 -0.124287 
-8.40099 -3.51118 -0.14543 -8.43991 -3.53419 -0.167036 -8.47861 -3.55713 -0.189104 
-8.5171 -3.57998 -0.211639 -8.55535 -3.60276 -0.234641 -8.59335 -3.62545 -0.258114 
-8.6311 -3.64807 -0.282059 -8.66859 -3.67062 -0.306479 -8.70581 -3.69309 -0.331376 
-8.74274 -3.7155 -0.356752 -8.77938 -3.73784 -0.382609 -8.81571 -3.76011 -0.40895 
-8.85173 -3.78232 -0.435776 -8.88742 -3.80446 -0.463091 -8.92277 -3.82655 -0.490896 
-8.95778 -3.84858 -0.519191 -8.99244 -3.87055 -0.547972 -9.02673 -3.89247 -0.577231 
-9.06066 -3.91435 -0.606963 -9.0942 -3.93618 -0.637161 -9.12735 -3.95797 -0.667819 
-9.16011 -3.97973 -0.69893 -9.19246 -4.00145 -0.730489 -9.22439 -4.02314 -0.762489 
-9.2559 -4.0448 -0.794924 -9.28698 -4.06645 -0.827788 -9.31762 -4.08807 -0.861073 
-9.3478 -4.10968 -0.894774 -9.37753 -4.13127 -0.928885 -9.4068 -4.15286 -0.9634 
-9.43558 -4.17444 -0.998311 -9.46388 -4.19602 -1.03361 -9.49169 -4.2176 -1.0693 
-9.519 -4.23919 -1.10536 -9.5458 -4.26079 -1.1418 -9.57208 -4.2824 -1.1786 
-9.59783 -4.30402 -1.21576 -9.62307 -4.32566 -1.25326 -9.64778 -4.34733 -1.2911 
-9.67197 -4.36901 -1.32927 -9.69564 -4.39072 -1.36774 -9.71878 -4.41246 -1.40653 
-9.74139 -4.43424 -1.44561 -9.76348 -4.45604 -1.48497 -9.78504 -4.47788 -1.52461 
-9.80607 -4.49976 -1.56451 -9.82657 -4.52168 -1.60467 -9.84654 -4.54364 -1.64507 
-9.86598 -4.56565 -1.6857 -9.88489 -4.58771 -1.72656 -9.90327 -4.60982 -1.76763 
-9.92111 -4.63199 -1.8089 -9.93842 -4.65421 -1.85037 -9.9552 -4.67649 -1.89202 
-9.97144 -4.69883 -1.93384 -9.98714 -4.72124 -1.97582 -10.0023 -4.74371 -2.01796 
-10.0169 -4.76625 -2.06024 -10.031 -4.78886 -2.10266 -10.0446 -4.81154 -2.14521 
-10.0577 -4.83429 -2.18789 -10.0702 -4.85711 -2.23068 -10.0823 -4.88 -2.27358 
-10.0938 -4.90296 -2.31658 -10.1048 -4.926 -2.35968 -10.1153 -4.94912 -2.40286 
-10.1254 -4.97231 -2.44612 -10.1349 -4.99557 -2.48945 -10.1439 -5.01892 -2.53285 
-10.1525 -5.04235 -2.5763 -10.1605 -5.06585 -2.6198 -10.1681 -5.08944 -2.66334 
-10.1752 -5.11311 -2.70692 -10.1819 -5.13686 -2.75052 -10.188 -5.16069 -2.79414 
-10.1937 -5.18462 -2.83777 -10.199 -5.20862 -2.88141 -10.2037 -5.23272 -2.92504 
-10.2081 -5.2569 -2.96868 -10.2119 -5.28116 -3.0123 -10.2154 -5.30551 -3.05592 
-10.2184 -5.32995 -3.09951 -10.2209 -5.35448 -3.14308 -10.223 -5.37909 -3.18663 
-10.2247 -5.40379 -3.23015 -10.226 -5.42858 -3.27364 -10.2269 -5.45345 -3.31708 
-10.2273 -5.47841 -3.36048 -10.2273 -5.50345 -3.40384 -10.2269 -5.52859 -3.44714 
-10.2262 -5.55381 -3.49039 -10.225 -5.57912 -3.53358 -10.2234 -5.60451 -3.5767 
-10.2214 -5.63 -3.61975 -10.2191 -5.65557 -3.66273 -10.2163 -5.68123 -3.70563 
-10.2132 -5.70697 -3.74845 -10.2097 -5.73281 -3.79119 -10.2059 -5.75873 -3.83384 
-10.2016 -5.78474 -3.87639 -10.197 -5.81083 -3.91886 -10.1921 -5.83702 -3.96123 
-10.1868 -5.86329 -4.0035 -10.1811 -5.88965 -4.04567 -10.1751 -5.91609 -4.08773 
-10.1687 -5.94262 -4.12969 -10.162 -5.96924 -4.17154 -10.1549 -5.99595 -4.21328 
-10.1475 -6.02274 -4.25491 -10.1398 -6.04962 -4.29642 -10.1317 -6.07659 -4.3378 
-10.1233 -6.10364 -4.37907 -10.1145 -6.13078 -4.42021 -10.1055 -6.158 -4.46122 
-10.0961 -6.18531 -4.5021 -10.0864 -6.21271 -4.54285 -10.0763 -6.2402 -4.58346 
-10.066 -6.26776 -4.62393 -10.0553 -6.29542 -4.66427 -10.0444 -6.32316 -4.70445 
-10.0331 -6.35099 -4.7445 -10.0215 -6.37891 -4.78439 -10.0097 -6.40691 -4.82413 
-9.99749 -6.43499 -4.86372 -9.985 -6.46317 -4.90316 -9.97222 -6.49143 -4.94243 
-9.95915 -6.51978 -4.98155 -9.94578 -6.54822 -5.0205 -9.93211 -6.57674 -5.05929 
-9.91816 -6.60535 -5.0979 -9.90391 -6.63405 -5.13635 -9.88938 -6.66284 -5.17462 
-9.87457 -6.69172 -5.21272 -9.85947 -6.72068 -5.25064 -9.84409 -6.74973 -5.28838 
-9.82843 -6.77887 -5.32594 -9.81249 -6.8081 -5.36331 -9.79628 -6.83742 -5.40049 
-9.77979 -6.86682 -5.43748 -9.76302 -6.89632 -5.47427 -9.74599 -6.92591 -5.51087 
-9.72867 -6.95558 -5.54726 -9.71109 -6.98535 -5.58345 -9.69323 -7.01521 -5.61942 
-9.6751 -7.04516 -5.65518 -9.6567 -7.07521 -5.69073 -9.63802 -7.10535 -5.72605 
-9.61908 -7.13558 -5.76115 -9.59986 -7.16591 -5.79602 -9.58038 -7.19633 -5.83066 
-9.56062 -7.22685 -5.86506 -9.5406 -7.25746 -5.89923 -9.52031 -7.28817 -5.93315 
-9.49975 -7.31897 -5.96682 -9.47892 -7.34988 -6.00025 -9.45783 -7.38088 -6.03342 
-9.43647 -7.41198 -6.06633 -9.41485 -7.44318 -6.09898 -9.39296 -7.47448 -6.13137 
-9.3708 -7.50588 -6.16348 -9.34838 -7.53737 -6.19531 -9.3257 -7.56897 -6.22685 
-9.30275 -7.60067 -6.2581 -9.27954 -7.63247 -6.28905 -9.25607 -7.66437 -6.31969 
-9.23233 -7.69638 -6.35002 -9.20833 -7.72848 -6.38003 -9.18407 -7.76069 -6.40971 
-9.15955 -7.793 -6.43906 -9.13476 -7.82541 -6.46807 -9.10972 -7.85793 -6.49674 
[...]
CELL_DATA 1
FIELD FieldData 2
Length 1 1 double
63.913274653 
Tortuosity 1 1 double
0.87677885447 
POINT_DATA 1279
SCALARS MaximumInscribedSphereRadius float
LOOKUP_TABLE default
0.62 0.636472 0.652944 0.669415 0.685887 0.702359 0.718831 0.735303 0.751774 
0.768246 0.784718 0.80119 0.817662 0.834134 0.850605 0.867077 0.883549 0.900021 
0.916493 0.932965 0.949436 0.964416 0.976845 0.989275 1.0017 1.01413 1.02656 
1.03899 1.05142 1.06385 1.07628 1.08871 1.10114 1.11357 1.126 1.13843 
1.15086 1.16329 1.17572 1.18815 1.20058 1.20222 1.19561 1.189 1.18238 
1.17577 1.16916 1.16254 1.15593 1.14932 1.1427 1.13609 1.12947 1.12286 
1.11625 1.10963 1.10302 1.09641 1.08979 1.08318 1.07657 1.07055 1.07029 
1.07004 1.06979 1.06954 1.06929 1.06903 1.06878 1.06853 1.06828 1.06803 
1.06777 1.06752 1.06727 1.06702 1.06677 1.06651 1.06626 1.06601 1.06576 
1.06551 1.07347 1.08276 1.09205 1.10134 1.11063 1.11993 1.12922 1.13851 
1.1478 1.15709 1.16638 1.17567 1.18496 1.19425 1.20355 1.21284 1.22213 
1.23142 1.24071 1.25 1.26129 1.27416 1.28704 1.29991 1.31278 1.32566 
1.33853 1.3514 1.36428 1.37715 1.39003 1.4029 1.41577 1.42865 1.44152 
1.45439 1.46727 1.48014 1.49301 1.50589 1.51718 1.52421 1.53124 1.53828 
1.54531 1.55234 1.55937 1.56641 1.57344 1.58047 1.5875 1.59454 1.60157 
1.6086 1.61563 1.62267 1.6297 1.63673 1.64376 1.65079 1.65783 1.64782 
1.63749 1.62716 1.61683 1.6065 1.59617 1.58583 1.5755 1.56517 1.55484 
1.54451 1.53418 1.52384 1.51351 1.50318 1.49285 1.48252 1.47219 1.46185 
1.45152 1.44653 1.4439 1.44127 1.43864 1.43601 1.43338 1.43075 1.42812 
1.42549 1.42286 1.42024 1.41761 1.41498 1.41235 1.40972 1.40709 1.40446 
1.40183 1.3992 1.39657 1.39692 1.40161 1.40631 1.41101 1.41571 1.42041 
1.42511 1.4298 1.4345 1.4392 1.4439 1.4486 1.4533 1.45799 1.46269 
1.46739 1.47209 1.47679 1.48149 1.48618 1.48963 1.48403 1.47844 1.47284 
1.46725 1.46165 1.45606 1.45046 1.44487 1.43927 1.43367 1.42808 1.42248 
1.41689 1.41129 1.4057 1.4001 1.39451 1.38891 1.38332 1.37772 1.37828 
1.38001 1.38174 1.38346 1.38519 1.38692 1.38864 1.39037 1.3921 1.39383 
1.39555 1.39728 1.39901 1.40074 1.40246 1.40419 1.40592 1.40764 1.40937 
1.4111 1.41557 1.4222 1.42884 1.43547 1.44211 1.44874 1.45537 1.46201 
1.46864 1.47528 1.48191 1.48855 1.49518 1.50182 1.50845 1.51509 1.52172 
1.52835 1.53499 1.54162 1.54649 1.54666 1.54684 1.54701 1.54719 1.54737 
1.54754 1.54772 1.54789 1.54807 1.54824 1.54842 1.54859 1.54877 1.54894 
1.54912 1.5493 1.54947 1.54965 1.54982 1.55 1.54866 1.54731 1.54596 
1.54461 1.54326 1.5419 1.54055 1.5392 1.53785 1.53649 1.53514 1.53379 
1.53244 1.53109 1.52973 1.52838 1.52703 1.52568 1.52433 1.52297 1.51717 
1.50947 1.50177 1.49407 1.48637 1.47867 1.47097 1.46327 1.45557 1.44787 
1.44017 1.43247 1.42477 1.41706 1.40936 1.40166 1.39396 1.38626 1.37856 
1.37086 1.36588 1.36473 1.36359 1.36244 1.3613 1.36016 1.35901 1.35787 
1.35672 1.35558 1.35444 1.35329 1.35215 1.351 1.34986 1.34872 1.34757 
1.34643 1.34528 1.34414 1.34497 1.35941 1.37385 1.38829 1.40273 1.41717 
1.43161 1.44605 1.46049 1.47493 1.48937 1.50381 1.51825 1.53269 1.54713 
1.56157 1.57601 1.59045 1.60489 1.61933 1.63377 1.64245 1.65002 1.6576 
1.66517 1.67274 1.68032 1.68789 1.69547 1.70304 1.71061 1.71819 1.72576 
1.73334 1.74091 1.74848 1.75606 1.76363 1.77121 1.77878 1.78635 1.78714 
1.78251 1.77789 1.77327 1.76865 1.76403 1.75941 1.75479 1.75016 1.74554 
1.74092 1.7363 1.73168 1.72706 1.72244 1.71781 1.71319 1.70857 1.70395 
1.69933 1.69479 1.69053 1.68627 1.682 1.67774 1.67348 1.66921 1.66495 
1.66068 1.65642 1.65216 1.64789 1.64363 1.63937 1.6351 1.63084 1.62658 
1.62231 1.61805 1.61378 1.60972 1.60779 1.60586 1.60394 1.60201 1.60008 
1.59815 1.59623 1.5943 1.59237 1.59045 1.58852 1.58659 1.58466 1.58274 
1.58081 1.57888 1.57695 1.57503 1.5731 1.57117 1.57091 1.57105 1.57119 
1.57133 1.57147 1.57161 1.57175 1.57188 1.57202 1.57216 1.5723 1.57244 
1.57258 1.57272 1.57286 1.573 1.57314 1.57327 1.57341 1.57355 1.57739 
1.58473 1.59207 1.59941 1.60675 1.6141 1.62144 1.62878 1.63612 1.64346 
1.6508 1.65814 1.66548 1.67282 1.68016 1.6875 1.69484 1.70218 1.70952 
1.71686 1.72408 1.73085 1.73763 1.7444 1.75118 1.75795 1.76473 1.7715 
1.77828 1.78505 1.79183 1.7986 1.80538 1.81215 1.81893 1.8257 1.83248 
1.83925 1.84603 1.8528 1.85958 1.86 1.86 1.86 1.86 1.86 
1.86 1.86 1.86 1.86 1.86 1.86 1.86 1.86 1.86 
1.86 1.86 1.86 1.86 1.86 1.86 1.86 1.86 1.86 
1.86 1.86 1.86 1.86 1.86 1.86 1.86 1.86 1.86 
1.86 1.86 1.86 1.86 1.86 1.86 1.86 1.86 1.85992 
1.8597 1.85948 1.85925 1.85903 1.85881 1.85859 1.85836 1.85814 1.85792 
1.8577 1.85747 1.85725 1.85703 1.85681 1.85659 1.85636 1.85614 1.85592 
1.8557 1.85527 1.85219 1.84911 1.84603 1.84295 1.83987 1.83679 1.83371 
1.83063 1.82755 1.82447 1.82139 1.81831 1.81523 1.81215 1.80907 1.80599 
1.80291 1.79983 1.79675 1.79367 1.78883 1.7835 1.77818 1.77285 1.76752 
1.76219 1.75687 1.75154 1.74621 1.74088 1.73556 1.73023 1.7249 1.71957 
1.71425 1.70892 1.70359 1.69827 1.69294 1.68761 1.68857 1.69586 1.70315 
1.71043 1.71772 1.725 1.73229 1.73957 1.74686 1.75415 1.76143 1.76872 
1.776 1.78329 1.79057 1.79786 1.80515 1.81243 1.81972 1.827 1.83504 
1.84585 1.85666 1.86746 1.87827 1.88908 1.89988 1.91069 1.9215 1.93231 
1.94311 1.95392 1.96473 1.97553 1.98634 1.99715 2.00795 2.01876 2.02957 
2.04038 2.05118 2.04906 2.04594 2.04281 2.03969 2.03656 2.03344 2.03031 
2.02719 2.02406 2.02094 2.01781 2.01469 2.01156 2.00844 2.00532 2.00219 
1.99907 1.99594 1.99282 1.98969 1.98708 1.98476 1.98244 1.98011 1.97779 
1.97547 1.97314 1.97082 1.9685 1.96617 1.96385 1.96153 1.9592 1.95688 
1.95456 1.95223 1.94991 1.94759 1.94527 1.94294 1.94364 1.94985 1.95607 
1.96228 1.9685 1.97471 1.98093 1.98714 1.99336 1.99957 2.00579 2.01201 
2.01822 2.02444 2.03065 2.03687 2.04308 2.0493 2.05551 2.06173 2.06761 
2.06871 2.06981 2.0709 2.072 2.0731 2.07419 2.07529 2.07639 2.07749 
2.07858 2.07968 2.08078 2.08187 2.08297 2.08407 2.08517 2.08626 2.08736 
2.08846 2.08955 2.08417 2.07691 2.06966 2.0624 2.05515 2.0479 2.04064 
2.03339 2.02613 2.01888 2.01163 2.00437 1.99712 1.98986 1.98261 1.97536 
1.9681 1.96085 1.9536 1.94634 1.94268 1.94278 1.94288 1.94297 1.94307 
1.94317 1.94327 1.94337 1.94347 1.94357 1.94366 1.94376 1.94386 1.94396 
1.94406 1.94416 1.94426 1.94435 1.94445 1.94455 1.94604 1.95302 1.96001 
1.96699 1.97398 1.98096 1.98794 1.99493 2.00191 2.0089 2.01588 2.02287 
2.02985 2.03683 2.04382 2.0508 2.05779 2.06477 2.07175 2.07874 2.08572 
2.07986 2.0728 2.06573 2.05867 2.05161 2.04454 2.03748 2.03042 2.02335 
2.01629 2.00923 2.00216 1.9951 1.98804 1.98097 1.97391 1.96685 1.95978 
1.95272 1.94566 1.93542 1.92332 1.91121 1.89911 1.887 1.87489 1.86279 
1.85068 1.83857 1.82647 1.81436 1.80226 1.79015 1.77804 1.76594 1.75383 
1.74172 1.72962 1.71751 1.70541 1.69963 1.70608 1.71253 1.71898 1.72544 
1.73189 1.73834 1.74479 1.75124 1.75769 1.76414 1.77059 1.77704 1.78349 
1.78995 1.7964 1.80285 1.8093 1.81575 1.8222 1.82881 1.83824 1.84768 
1.85711 1.86654 1.87598 1.88541 1.89485 1.90428 1.91371 1.92315 1.93258 
1.94201 1.95145 1.96088 1.97031 1.97975 1.98918 1.99861 2.00805 2.01748 
2.01349 2.00538 1.99726 1.98915 1.98103 1.97292 1.9648 1.95669 1.94857 
1.94046 1.93234 1.92422 1.91611 1.90799 1.89988 1.89176 1.88365 1.87553 
1.86742 1.8593 1.84942 1.83758 1.82574 1.81391 1.80207 1.79024 1.7784 
1.76656 1.75473 1.74289 1.73106 1.71922 1.70738 1.69555 1.68371 1.67188 
1.66004 1.64821 1.63637 1.62453 1.61431 1.61111 1.60791 1.60471 1.60151 
1.59832 1.59512 1.59192 1.58872 1.58552 1.58232 1.57912 1.57592 1.57272 
1.56952 1.56632 1.56312 1.55992 1.55673 1.55353 1.55033 1.55426 1.559 
1.56374 1.56849 1.57323 1.57797 1.58271 1.58745 1.5922 1.59694 1.60168 
1.60642 1.61117 1.61591 1.62065 1.62539 1.63014 1.63488 1.63962 1.64436 
1.65487 1.66909 1.68332 1.69754 1.71176 1.72599 1.74021 1.75443 1.76866 
1.78288 1.7971 1.81132 1.82555 1.83977 1.85399 1.86822 1.88244 1.89666 
1.91088 1.92511 1.93869 1.95091 1.96313 1.97535 1.98757 1.99979 2.01201 
2.02423 2.03645 2.04867 2.06089 2.07311 2.08533 2.09755 2.10976 2.12198 
2.1342 2.14642 2.15864 2.17086 2.1828 2.18536 2.18792 2.19048 2.19304 
2.1956 2.19816 2.20072 2.20328 2.20584 2.2084 2.21096 2.21352 2.21608 
2.21864 2.2212 2.22376 2.22632 2.22887 2.23143 2.23399 2.23492 2.23528 
2.23564 2.23599 2.23635 2.23671 2.23706 2.23742 2.23778 2.23814 2.23849 
2.23885 2.23921 2.23956 2.23992 2.24028 2.24063 2.24099 2.24135 2.2417 
2.24091 2.23872 2.23653 2.23434 2.23215 2.22996 2.22777 2.22558 2.22339 
2.2212 2.21901 2.21681 2.21462 2.21243 2.21024 2.20805 2.20586 2.20367 
2.20148 2.19929 2.19728 2.19624 2.1952 2.19417 2.19313 2.19209 2.19105 
2.19001 2.18897 2.18793 2.18689 2.18585 2.18481 2.18378 2.18274 2.1817 
2.18066 2.17962 2.17858 2.17754 2.1765 2.17685 2.1774 2.17795 2.1785 
2.17905 2.1796 2.18015 2.1807 2.18125 2.1818 2.18235 2.1829 2.18345 
2.18399 2.18454 2.18509 2.18564 2.18619 2.18674 2.18729 2.18745 2.18733 
2.18722 2.1871 2.18698 2.18686 2.18675 2.18663 2.18651 2.1864 2.18628 
2.18616 2.18604 2.18593 2.18581 2.18569 2.18557 2.18546 2.18534 2.18522 
2.18497 2.18441 2.18385 2.18329 2.18272 2.18216 2.1816 2.18104 2.18047 
2.17991 2.17935 2.17879 2.17823 2.17766 2.1771 2.17654 2.17598 2.17542 
2.17485 2.17429 2.17374 2.17355 2.17337 2.17318 2.173 2.17282 2.17263 
2.17245 2.17226 2.17208 2.17189 2.17171 2.17152 2.17134 2.17116 2.17097 
2.17079 2.1706 2.17042 2.17023 2.17005 2.17204 2.17484 2.17764 2.18044 
2.18324 2.18604 2.18883 2.19163 2.19443 2.19723 2.20003 2.20283 2.20562 
2.20842 2.21122 2.21402 2.21682 2.21962 2.22241 2.22521 2.22995 2.2371 
2.24424 2.25138 2.25852 2.26567 2.27281 2.27995 2.2871 2.29424 2.30138 
2.30852 2.31567 2.32281 2.32995 2.33709 2.34424 2.35138 2.35852 2.36567 
2.37191 2.37281 2.3737 2.3746 2.3755 2.3764 2.37729 2.37819 2.37909 
2.37998 2.38088 2.38178 2.38268 2.38357 2.38447 2.38537 2.38627 2.38716 
2.38806 2.38896 2.38985 2.38339 2.37624 2.3691 2.36196 2.35481 2.34767 
2.34053 2.33338 2.32624 2.3191 2.31195 2.30481 2.29767 2.29052 2.28338 
2.27623 2.26909 2.26195 2.2548 2.24766 2.24229 2.23923 2.23616 2.2331 
2.23003 2.22697 2.2239 2.22084 2.21777 2.21471 2.21164 2.20858 2.20551 
2.20245 2.19938 2.19631 2.19325 2.19018 2.18712 2.18405 2.18329 2.18387 
2.18445 2.18502 2.1856 2.18617 2.18675 2.18732 2.1879 2.18847 2.18905 
2.18962 2.1902 2.19077 2.19135 2.19192 2.1925 2.19307 2.19365 2.19422 
2.1948 
TEXTURE_COORDINATES TCoords 2 float
0 0 0.000782473 0 0.00156495 0 0.00234742 0 0.00312989 
0 0.00391236 0 0.00469484 0 0.00547731 0 0.00625978 0 
0.00704225 0 0.00782473 0 0.0086072 0 0.00938967 0 0.0101721 
0 0.0109546 0 0.0117371 0 0.0125196 0 0.013302 0 
0.0140845 0 0.014867 0 0.0156495 0 0.0164319 0 0.0172144 
0 0.0179969 0 0.0187793 0 0.0195618 0 0.0203443 0 
0.0211268 0 0.0219092 0 0.0226917 0 0.0234742 0 0.0242567 
0 0.0250391 0 0.0258216 0 0.0266041 0 0.0273865 0 
0.028169 0 0.0289515 0 0.029734 0 0.0305164 0 0.0312989 
0 0.0320814 0 0.0328638 0 0.0336463 0 0.0344288 0 
0.0352113 0 0.0359937 0 0.0367762 0 0.0375587 0 0.0383412 
0 0.0391236 0 0.0399061 0 0.0406886 0 0.041471 0 
0.0422535 0 0.043036 0 0.0438185 0 0.0446009 0 0.0453834 
0 0.0461659 0 0.0469484 0 0.0477308 0 0.0485133 0 
0.0492958 0 0.0500782 0 0.0508607 0 0.0516432 0 0.0524257 
0 0.0532081 0 0.0539906 0 0.0547731 0 0.0555556 0 
0.056338 0 0.0571205 0 0.057903 0 0.0586854 0 0.0594679 
0 0.0602504 0 0.0610329 0 0.0618153 0 0.0625978 0 
0.0633803 0 0.0641628 0 0.0649452 0 0.0657277 0 0.0665102 
0 0.0672926 0 0.0680751 0 0.0688576 0 0.0696401 0 
0.0704225 0 0.071205 0 0.0719875 0 0.07277 0 0.0735524 
0 0.0743349 0 0.0751174 0 0.0758998 0 0.0766823 0 
0.0774648 0 0.0782473 0 0.0790297 0 0.0798122 0 0.0805947 
0 0.0813771 0 0.0821596 0 0.0829421 0 0.0837246 0 
0.084507 0 0.0852895 0 0.086072 0 0.0868545 0 0.0876369 
0 0.0884194 0 0.0892019 0 0.0899843 0 0.0907668 0 
0.0915493 0 0.0923318 0 0.0931142 0 0.0938967 0 0.0946792 
0 0.0954617 0 0.0962441 0 0.0970266 0 0.0978091 0 
0.0985916 0 0.099374 0 0.100156 0 0.100939 0 0.101721 
0 0.102504 0 0.103286 0 0.104069 0 0.104851 0 
0.105634 0 0.106416 0 0.107199 0 0.107981 0 0.108764 
0 0.109546 0 0.110329 0 0.111111 0 0.111894 0 
0.112676 0 0.113459 0 0.114241 0 0.115023 0 0.115806 
0 0.116588 0 0.117371 0 0.118153 0 0.118936 0 
0.119718 0 0.120501 0 0.121283 0 0.122066 0 0.122848 
0 0.123631 0 0.124413 0 0.125196 0 0.125978 0 
0.126761 0 0.127543 0 0.128326 0 0.129108 0 0.12989 
0 0.130673 0 0.131455 0 0.132238 0 0.13302 0 
0.133803 0 0.134585 0 0.135368 0 0.13615 0 0.136933 
0 0.137715 0 0.138498 0 0.13928 0 0.140063 0 
0.140845 0 0.141628 0 0.14241 0 0.143192 0 0.143975 
0 0.144757 0 0.14554 0 0.146322 0 0.147105 0 
0.147887 0 0.14867 0 0.149452 0 0.150235 0 0.151017 
0 0.1518 0 0.152582 0 0.153365 0 0.154147 0 
0.15493 0 0.155712 0 0.156495 0 0.157277 0 0.158059 
0 0.158842 0 0.159624 0 0.160407 0 0.161189 0 
0.161972 0 0.162754 0 0.163537 0 0.164319 0 0.165102 
0 0.165884 0 0.166667 0 0.167449 0 0.168232 0 
0.169014 0 0.169797 0 0.170579 0 0.171362 0 0.172144 
0 0.172926 0 0.173709 0 0.174491 0 0.175274 0 
0.176056 0 0.176839 0 0.177621 0 0.178404 0 0.179186 
0 0.179969 0 0.180751 0 0.181534 0 0.182316 0 
0.183099 0 0.183881 0 0.184664 0 0.185446 0 0.186228 
0 0.187011 0 0.187793 0 0.188576 0 0.189358 0 
0.190141 0 0.190923 0 0.191706 0 0.192488 0 0.193271 
0 0.194053 0 0.194836 0 0.195618 0 0.196401 0 
0.197183 0 0.197966 0 0.198748 0 0.199531 0 0.200313 
0 0.201095 0 0.201878 0 0.20266 0 0.203443 0 
0.204225 0 0.205008 0 0.20579 0 0.206573 0 0.207355 
0 0.208138 0 0.20892 0 0.209703 0 0.210485 0 
0.211268 0 0.21205 0 0.212833 0 0.213615 0 0.214397 
0 0.21518 0 0.215962 0 0.216745 0 0.217527 0 
0.21831 0 0.219092 0 0.219875 0 0.220657 0 0.22144 
0 0.222222 0 0.223005 0 0.223787 0 0.22457 0 
0.225352 0 0.226135 0 0.226917 0 0.2277 0 0.228482 
0 0.229264 0 0.230047 0 0.230829 0 0.231612 0 
0.232394 0 0.233177 0 0.233959 0 0.234742 0 0.235524 
0 0.236307 0 0.237089 0 0.237872 0 0.238654 0 
0.239437 0 0.240219 0 0.241002 0 0.241784 0 0.242567 
0 0.243349 0 0.244131 0 0.244914 0 0.245696 0 
0.246479 0 0.247261 0 0.248044 0 0.248826 0 0.249609 
0 0.250391 0 0.251174 0 0.251956 0 0.252739 0 
0.253521 0 0.254304 0 0.255086 0 0.255869 0 0.256651 
0 0.257434 0 0.258216 0 0.258998 0 0.259781 0 
0.260563 0 0.261346 0 0.262128 0 0.262911 0 0.263693 
0 0.264476 0 0.265258 0 0.266041 0 0.266823 0 
0.267606 0 0.268388 0 0.269171 0 0.269953 0 0.270736 
0 0.271518 0 0.2723 0 0.273083 0 0.273865 0 
0.274648 0 0.27543 0 0.276213 0 0.276995 0 0.277778 
0 0.27856 0 0.279343 0 0.280125 0 0.280908 0 
0.28169 0 0.282473 0 0.283255 0 0.284038 0 0.28482 
0 0.285603 0 0.286385 0 0.287167 0 0.28795 0 
0.288732 0 0.289515 0 0.290297 0 0.29108 0 0.291862 
0 0.292645 0 0.293427 0 0.29421 0 0.294992 0 
0.295775 0 0.296557 0 0.29734 0 0.298122 0 0.298905 
0 0.299687 0 0.300469 0 0.301252 0 0.302034 0 
0.302817 0 0.303599 0 0.304382 0 0.305164 0 0.305947 
0 0.306729 0 0.307512 0 0.308294 0 0.309077 0 
0.309859 0 0.310642 0 0.311424 0 0.312207 0 0.312989 
0 0.313772 0 0.314554 0 0.315336 0 0.316119 0 
0.316901 0 0.317684 0 0.318466 0 0.319249 0 0.320031 
0 0.320814 0 0.321596 0 0.322379 0 0.323161 0 
0.323944 0 0.324726 0 0.325509 0 0.326291 0 0.327074 
0 0.327856 0 0.328638 0 0.329421 0 0.330203 0 
0.330986 0 0.331768 0 0.332551 0 0.333333 0 0.334116 
0 0.334898 0 0.335681 0 0.336463 0 0.337246 0 
0.338028 0 0.338811 0 0.339593 0 0.340376 0 0.341158 
0 0.341941 0 0.342723 0 0.343505 0 0.344288 0 
0.34507 0 0.345853 0 0.346635 0 0.347418 0 0.3482 
0 0.348983 0 0.349765 0 0.350548 0 0.35133 0 
0.352113 0 0.352895 0 0.353678 0 0.35446 0 0.355243 
0 0.356025 0 0.356808 0 0.35759 0 0.358372 0 
0.359155 0 0.359937 0 0.36072 0 0.361502 0 0.362285 
0 0.363067 0 0.36385 0 0.364632 0 0.365415 0 
0.366197 0 0.36698 0 0.367762 0 0.368545 0 0.369327 
0 0.37011 0 0.370892 0 0.371674 0 0.372457 0 
0.373239 0 0.374022 0 0.374804 0 0.375587 0 0.376369 
0 0.377152 0 0.377934 0 0.378717 0 0.379499 0 
0.380282 0 0.381064 0 0.381847 0 0.382629 0 0.383412 
0 0.384194 0 0.384977 0 0.385759 0 0.386541 0 
0.387324 0 0.388106 0 0.388889 0 0.389671 0 0.390454 
0 0.391236 0 0.392019 0 0.392801 0 0.393584 0 
0.394366 0 0.395149 0 0.395931 0 0.396714 0 0.397496 
0 0.398279 0 0.399061 0 0.399844 0 0.400626 0 
0.401408 0 0.402191 0 0.402973 0 0.403756 0 0.404538 
0 0.405321 0 0.406103 0 0.406886 0 0.407668 0 
0.408451 0 0.409233 0 0.410016 0 0.410798 0 0.411581 
0 0.412363 0 0.413146 0 0.413928 0 0.41471 0 
0.415493 0 0.416275 0 0.417058 0 0.41784 0 0.418623 
0 0.419405 0 0.420188 0 0.42097 0 0.421753 0 
0.422535 0 0.423318 0 0.4241 0 0.424883 0 0.425665 
0 0.426448 0 0.42723 0 0.428013 0 0.428795 0 
0.429577 0 0.43036 0 0.431142 0 0.431925 0 0.432707 
0 0.43349 0 0.434272 0 0.435055 0 0.435837 0 
0.43662 0 0.437402 0 0.438185 0 0.438967 0 0.43975 
0 0.440532 0 0.441315 0 0.442097 0 0.442879 0 
0.443662 0 0.444444 0 0.445227 0 0.446009 0 0.446792 
0 0.447574 0 0.448357 0 0.449139 0 0.449922 0 
0.450704 0 0.451487 0 0.452269 0 0.453052 0 0.453834 
0 0.454617 0 0.455399 0 0.456182 0 0.456964 0 
0.457746 0 0.458529 0 0.459311 0 0.460094 0 0.460876 
0 0.461659 0 0.462441 0 0.463224 0 0.464006 0 
0.464789 0 0.465571 0 0.466354 0 0.467136 0 0.467919 
0 0.468701 0 0.469484 0 0.470266 0 0.471049 0 
0.471831 0 0.472613 0 0.473396 0 0.474178 0 0.474961 
0 0.475743 0 0.476526 0 0.477308 0 0.478091 0 
0.478873 0 0.479656 0 0.480438 0 0.481221 0 0.482003 
0 0.482786 0 0.483568 0 0.484351 0 0.485133 0 
0.485915 0 0.486698 0 0.48748 0 0.488263 0 0.489045 
0 0.489828 0 0.49061 0 0.491393 0 0.492175 0 
0.492958 0 0.49374 0 0.494523 0 0.495305 0 0.496088 
0 0.49687 0 0.497653 0 0.498435 0 0.499218 0 
0.5 0 0.500782 0 0.501565 0 0.502347 0 0.50313 
0 0.503912 0 0.504695 0 0.505477 0 0.50626 0 
0.507042 0 0.507825 0 0.508607 0 0.50939 0 0.510172 
0 0.510955 0 0.511737 0 0.51252 0 0.513302 0 
0.514085 0 0.514867 0 0.515649 0 0.516432 0 0.517214 
0 0.517997 0 0.518779 0 0.519562 0 0.520344 0 
0.521127 0 0.521909 0 0.522692 0 0.523474 0 0.524257 
0 0.525039 0 0.525822 0 0.526604 0 0.527387 0 
0.528169 0 0.528951 0 0.529734 0 0.530516 0 0.531299 
0 0.532081 0 0.532864 0 0.533646 0 0.534429 0 
0.535211 0 0.535994 0 0.536776 0 0.537559 0 0.538341 
0 0.539124 0 0.539906 0 0.540689 0 0.541471 0 
0.542253 0 0.543036 0 0.543818 0 0.544601 0 0.545383 
0 0.546166 0 0.546948 0 0.547731 0 0.548513 0 
0.549296 0 0.550078 0 0.550861 0 0.551643 0 0.552426 
0 0.553208 0 0.553991 0 0.554773 0 0.555556 0 
0.556338 0 0.557121 0 0.557903 0 0.558685 0 0.559468 
0 0.56025 0 0.561033 0 0.561815 0 0.562598 0 
0.56338 0 0.564163 0 0.564945 0 0.565728 0 0.56651 
0 0.567293 0 0.568075 0 0.568858 0 0.56964 0 
0.570423 0 0.571205 0 0.571988 0 0.57277 0 0.573552 
0 0.574335 0 0.575117 0 0.5759 0 0.576682 0 
0.577465 0 0.578247 0 0.57903 0 0.579812 0 0.580595 
0 0.581377 0 0.58216 0 0.582942 0 0.583725 0 
0.584507 0 0.58529 0 0.586072 0 0.586854 0 0.587637 
0 0.588419 0 0.589202 0 0.589984 0 0.590767 0 
0.591549 0 0.592332 0 0.593114 0 0.593897 0 0.594679 
0 0.595462 0 0.596244 0 0.597027 0 0.597809 0 
0.598592 0 0.599374 0 0.600156 0 0.600939 0 0.601721 
0 0.602504 0 0.603286 0 0.604069 0 0.604851 0 
0.605634 0 0.606416 0 0.607199 0 0.607981 0 0.608764 
0 0.609546 0 0.610329 0 0.611111 0 0.611894 0 
0.612676 0 0.613459 0 0.614241 0 0.615023 0 0.615806 
0 0.616588 0 0.617371 0 0.618153 0 0.618936 0 
0.619718 0 0.620501 0 0.621283 0 0.622066 0 0.622848 
0 0.623631 0 0.624413 0 0.625196 0 0.625978 0 
0.626761 0 0.627543 0 0.628326 0 0.629108 0 0.62989 
0 0.630673 0 0.631455 0 0.632238 0 0.63302 0 
0.633803 0 0.634585 0 0.635368 0 0.63615 0 0.636933 
0 0.637715 0 0.638498 0 0.63928 0 0.640063 0 
0.640845 0 0.641628 0 0.64241 0 0.643192 0 0.643975 
0 0.644757 0 0.64554 0 0.646322 0 0.647105 0 
0.647887 0 0.64867 0 0.649452 0 0.650235 0 0.651017 
0 0.6518 0 0.652582 0 0.653365 0 0.654147 0 
0.65493 0 0.655712 0 0.656494 0 0.657277 0 0.658059 
0 0.658842 0 0.659624 0 0.660407 0 0.661189 0 
0.661972 0 0.662754 0 0.663537 0 0.664319 0 0.665102 
0 0.665884 0 0.666667 0 0.667449 0 0.668232 0 