# vtk DataFile Version 4.2
vtk output
ASCII
DATASET POLYDATA
POINTS 1278 float
0 0 0 0.000203883 0.00409001 0.000426486 0.000769991 0.0160148 0.00168254 
0.00163002 0.0352567 0.00373305 0.00271566 0.0612979 0.00654291 0.0039586 0.0936204 0.010077 
0.00529053 0.131707 0.0143002 0.00664316 0.175039 0.0191775 0.00794816 0.223099 0.0246736 
0.00913723 0.27537 0.0307536 0.0101421 0.331333 0.0373822 0.0108944 0.390471 0.0445244 
0.0113258 0.452265 0.0521451 0.0113681 0.516199 0.0602092 0.0109529 0.581755 0.0686815 
0.0100119 0.648413 0.077527 0.00847689 0.715658 0.0867104 0.00627945 0.782971 0.0961969 
0.00335131 0.849834 0.105951 -0.000375838 0.915729 0.115938 -0.0049703 0.980139 0.126123 
-0.0105004 1.04255 0.13647 -0.0170109 1.10258 0.146953 -0.0244763 1.1603 0.157571 
-0.0328581 1.21586 0.16833 -0.0421177 1.26941 0.179233 -0.0522163 1.32109 0.190285 
-0.0631155 1.37106 0.20149 -0.0747767 1.41945 0.212852 -0.0871611 1.46642 0.224376 
-0.10023 1.51211 0.236067 -0.113946 1.55667 0.247928 -0.128268 1.60026 0.259964 
-0.14316 1.643 0.27218 -0.158582 1.68507 0.28458 -0.174496 1.72659 0.297168 
-0.190863 1.76772 0.309948 -0.207644 1.80861 0.322925 -0.224801 1.84941 0.336104 
-0.242296 1.89025 0.349488 -0.260089 1.9313 0.363083 -0.278143 1.97268 0.376892 
-0.296447 2.01444 0.390916 -0.315005 2.05654 0.405155 -0.333823 2.09893 0.419606 
-0.352908 2.14158 0.43427 -0.372265 2.18444 0.449144 -0.391901 2.22747 0.464227 
-0.411821 2.27062 0.479518 -0.432032 2.31385 0.495016 -0.452539 2.35713 0.510719 
-0.473349 2.4004 0.526627 -0.494468 2.44363 0.542737 -0.515901 2.48678 0.55905 
-0.537656 2.5298 0.575563 -0.559737 2.57264 0.592275 -0.582151 2.61527 0.609185 
-0.604904 2.65765 0.626292 -0.628002 2.69973 0.643594 -0.65145 2.74146 0.661091 
-0.675256 2.78282 0.67878 -0.699425 2.82375 0.696662 -0.72396 2.86422 0.714733 
-0.748852 2.90425 0.732994 -0.774093 2.94384 0.751442 -0.799674 2.983 0.770076 
-0.825585 3.02175 0.788894 -0.851817 3.06009 0.807895 -0.878361 3.09805 0.827076 
-0.905208 3.13562 0.846438 -0.932349 3.17282 0.865977 -0.959775 3.20967 0.885693 
-0.987476 3.24617 0.905584 -1.01544 3.28233 0.925648 -1.04367 3.31817 0.945884 
-1.07214 3.3537 0.96629 -1.10085 3.38893 0.986865 -1.12979 3.42387 1.00761 
-1.15895 3.45853 1.02851 -1.18832 3.49293 1.04959 -1.2179 3.52707 1.07082 
-1.24766 3.56097 1.09222 -1.27761 3.59464 1.11377 -1.30775 3.62807 1.13548 
-1.33806 3.66126 1.15735 -1.36855 3.69421 1.17938 -1.39922 3.72691 1.20156 
-1.43007 3.75936 1.2239 -1.46109 3.79156 1.24639 -1.49228 3.82349 1.26904 
-1.52365 3.85516 1.29184 -1.55519 3.88657 1.31479 -1.5869 3.9177 1.33789 
-1.61878 3.94855 1.36114 -1.65082 3.97912 1.38454 -1.68304 4.00941 1.40809 
-1.71541 4.0394 1.43178 -1.74796 4.0691 1.45562 -1.78066 4.09851 1.47961 
-1.81353 4.12761 1.50374 -1.84655 4.1564 1.52801 -1.87974 4.18489 1.55243 
-1.91308 4.21305 1.57699 -1.94658 4.2409 1.60169 -1.98023 4.26843 1.62654 
-2.01403 4.29565 1.65152 -2.04798 4.32254 1.67664 -2.08208 4.3491 1.70189 
-2.11633 4.37535 1.72728 -2.15072 4.40127 1.75281 -2.18525 4.42687 1.77847 
-2.21992 4.45214 1.80426 -2.25472 4.47708 1.83019 -2.28967 4.5017 1.85625 
-2.32474 4.52598 1.88243 -2.35994 4.54994 1.90875 -2.39528 4.57357 1.93519 
-2.43073 4.59686 1.96176 -2.46632 4.61982 1.98845 -2.50202 4.64245 2.01527 
-2.53785 4.66474 2.04221 -2.57379 4.68669 2.06928 -2.60985 4.70831 2.09646 
-2.64602 4.72959 2.12377 -2.68231 4.75052 2.15119 -2.71871 4.77111 2.17873 
-2.75522 4.79134 2.20639 -2.79183 4.81122 2.23416 -2.82856 4.83074 2.26204 
-2.8654 4.84989 2.29003 -2.90234 4.86867 2.31813 -2.93939 4.88708 2.34634 
-2.97654 4.90511 2.37465 -3.0138 4.92276 2.40307 -3.05116 4.94002 2.43159 
-3.08862 4.95689 2.46021 -3.12618 4.97336 2.48892 -3.16384 4.98944 2.51774 
-3.2016 5.00511 2.54665 -3.23945 5.02037 2.57565 -3.27741 5.03522 2.60475 
-3.31546 5.04965 2.63394 -3.3536 5.06366 2.66321 -3.39183 5.07724 2.69257 
-3.43016 5.09039 2.72202 -3.46858 5.10311 2.75154 -3.50709 5.11537 2.78115 
-3.54568 5.12718 2.81082 -3.58437 5.13852 2.84056 -3.62313 5.1494 2.87036 
-3.66198 5.1598 2.90023 -3.70092 5.16971 2.93015 -3.73994 5.17914 2.96012 
-3.77903 5.18807 2.99014 -3.81821 5.19649 3.0202 -3.85746 5.2044 3.05031 
-3.89679 5.21178 3.08045 -3.93619 5.21865 3.11063 -3.97567 5.22497 3.14083 
-4.01522 5.23076 3.17106 -4.05484 5.23599 3.20131 -4.09453 5.24067 3.23158 
-4.13428 5.24479 3.26186 -4.17411 5.24834 3.29215 -4.214 5.2513 3.32244 
-4.25394 5.25368 3.35273 -4.29394 5.25546 3.38299 -4.33399 5.25662 3.41323 
-4.37407 5.25716 3.44343 -4.4142 5.25707 3.47358 -4.45436 5.25634 3.50367 
-4.49455 5.25496 3.5337 -4.53476 5.25292 3.56365 -4.57498 5.2502 3.59351 
-4.61522 5.2468 3.62328 -4.65547 5.24271 3.65294 -4.69571 5.23792 3.68248 
-4.73596 5.23241 3.7119 -4.7762 5.22618 3.74118 -4.81642 5.21922 3.77031 
-4.85663 5.21151 3.79929 -4.89682 5.20304 3.82811 -4.93697 5.19382 3.85675 
-4.9771 5.18381 3.8852 -5.01718 5.17304 3.91346 -5.05721 5.16148 3.94152 
-5.09719 5.14916 3.96935 -5.13709 5.13608 3.99696 -5.17691 5.12223 4.02433 
-5.21664 5.10763 4.05144 -5.25628 5.09228 4.07829 -5.2958 5.07619 4.10487 
-5.33521 5.05935 4.13117 -5.37448 5.04178 4.15717 -5.41362 5.02347 4.18286 
-5.4526 5.00443 4.20823 -5.49143 4.98467 4.23327 -5.53009 4.9642 4.25797 
-5.56857 4.943 4.28232 -5.60686 4.9211 4.3063 -5.64496 4.89849 4.32991 
-5.68284 4.87518 4.35314 -5.72051 4.85118 4.37597 -5.75795 4.82648 4.39838 
-5.79515 4.8011 4.42039 -5.83212 4.77506 4.44198 -5.86886 4.74837 4.46317 
-5.90537 4.72105 4.48395 -5.94165 4.69314 4.50434 -5.97771 4.66464 4.52434 
-6.01353 4.63557 4.54396 -6.04914 4.60596 4.56319 -6.08452 4.57583 4.58204 
-6.11968 4.54519 4.60052 -6.15463 4.51406 4.61864 -6.18935 4.48247 4.63639 
-6.22386 4.45043 4.65379 -6.25816 4.41797 4.67083 -6.29225 4.38511 4.68753 
-6.32612 4.35185 4.70388 -6.35979 4.31824 4.71989 -6.39324 4.28427 4.73558 
-6.4265 4.24998 4.75093 -6.45954 4.21539 4.76596 -6.49239 4.1805 4.78067 
-6.52505 4.14535 4.79508 -6.55752 4.10993 4.80918 -6.58982 4.07426 4.823 
-6.62195 4.03836 4.83654 -6.65394 4.00224 4.84981 -6.68578 3.9659 4.86282 
-6.71749 3.92937 4.87558 -6.74908 3.89265 4.88811 -6.78055 3.85577 4.9004 
-6.81192 3.81872 4.91248 -6.8432 3.78152 4.92435 -6.8744 3.7442 4.93602 
-6.90552 3.70675 4.9475 -6.93658 3.66919 4.9588 -6.96759 3.63154 4.96994 
-6.99856 3.59381 4.98092 -7.02949 3.556 4.99174 -7.06041 3.51814 5.00243 
-7.0913 3.48023 5.01299 -7.1222 3.44229 5.02344 -7.15311 3.40433 5.03376 
-7.18402 3.36635 5.04399 -7.21496 3.32837 5.05411 -7.24593 3.29038 5.06413 
-7.27694 3.25241 5.07405 -7.308 3.21445 5.08389 -7.33911 3.17652 5.09364 
-7.37028 3.13862 5.10332 -7.40152 3.10076 5.11292 -7.43284 3.06295 5.12244 
-7.46425 3.02519 5.13191 -7.49575 2.9875 5.14131 -7.52736 2.94989 5.15065 
-7.55908 2.91235 5.15994 -7.59091 2.8749 5.16919 -7.62288 2.83754 5.17839 
-7.65498 2.80029 5.18755 -7.68722 2.76315 5.19668 -7.71961 2.72614 5.20578 
-7.75216 2.68924 5.21486 -7.78488 2.65249 5.22391 -7.81777 2.61587 5.23294 
-7.85082 2.5794 5.24195 -7.88406 2.54308 5.25093 -7.91747 2.50691 5.25989 
-7.95106 2.47091 5.26882 -7.98484 2.43507 5.27772 -8.01881 2.3994 5.28659 
-8.05296 2.36391 5.29543 -8.08732 2.3286 5.30424 -8.12187 2.29348 5.31301 
-8.15662 2.25855 5.32176 -8.19157 2.22382 5.33047 -8.22674 2.1893 5.33914 
-8.26211 2.15498 5.34778 -8.2977 2.12087 5.35638 -8.33351 2.08699 5.36494 
-8.36953 2.05333 5.37346 -8.40578 2.0199 5.38194 -8.44226 1.98671 5.39038 
-8.47897 1.95375 5.39878 -8.5159 1.92104 5.40712 -8.55306 1.88856 5.41542 
-8.59044 1.85632 5.42366 -8.62804 1.82432 5.43185 -8.66586 1.79256 5.43997 
-8.70389 1.76103 5.44802 -8.74213 1.72974 5.45601 -8.78058 1.69869 5.46392 
-8.81924 1.66787 5.47175 -8.8581 1.63729 5.4795 -8.89716 1.60694 5.48716 
-8.93641 1.57682 5.49473 -8.97587 1.54694 5.50221 -9.01552 1.51729 5.50959 
-9.05535 1.48787 5.51687 -9.09538 1.45869 5.52404 -9.13559 1.42973 5.5311 
-9.17598 1.40101 5.53805 -9.21655 1.37251 5.54488 -9.2573 1.34425 5.55159 
-9.29822 1.31621 5.55818 -9.33931 1.28839 5.56463 -9.38057 1.2608 5.57095 
-9.42199 1.23342 5.57714 -9.46357 1.20625 5.58318 -9.50531 1.17929 5.58907 
-9.5472 1.15253 5.59482 -9.58924 1.12597 5.6004 -9.63143 1.09961 5.60583 
-9.67375 1.07345 5.6111 -9.71622 1.04747 5.6162 -9.75882 1.02168 5.62113 
-9.80155 0.996072 5.62589 -9.84441 0.970642 5.63046 -9.8874 0.945387 5.63485 
-9.9305 0.920303 5.63905 -9.97373 0.895386 5.64306 -10.0171 0.870634 5.64688 
-10.0605 0.846041 5.65049 -10.1041 0.821605 5.6539 -10.1477 0.797321 5.65711 
-10.1915 0.773183 5.66009 -10.2353 0.749188 5.66286 -10.2793 0.725329 5.6654 
-10.3233 0.701602 5.66771 -10.3674 0.678002 5.66978 -10.4115 0.654524 5.67161 
-10.4558 0.631162 5.67319 -10.5001 0.607912 5.67452 -10.5445 0.584769 5.67559 
-10.5889 0.561727 5.67639 -10.6333 0.538782 5.67693 -10.6779 0.515928 5.67719 
-10.7224 0.493161 5.67717 -10.767 0.470475 5.67686 -10.8116 0.447865 5.67627 
-10.8563 0.425327 5.67537 -10.9009 0.402855 5.67417 -10.9456 0.380445 5.67266 
-10.9903 0.358091 5.67084 -11.035 0.335787 5.6687 -11.0797 0.313526 5.66623 
-11.1244 0.291302 5.66343 -11.1691 0.269108 5.66028 -11.2138 0.246935 5.65678 
-11.2584 0.224778 5.65291 -11.3031 0.202628 5.64868 -11.3476 0.18048 5.64407 
-11.3922 0.158325 5.63907 -11.4367 0.136156 5.63369 -11.4812 0.113968 5.6279 
-11.5256 0.0917513 5.62169 -11.57 0.0695003 5.61508 -11.6143 0.0472074 5.60803 
-11.6585 0.0248656 5.60055 -11.7026 0.00246777 5.59263 -11.7467 -0.0199932 5.58426 
-11.7907 -0.0425244 5.57542 -11.8346 -0.065133 5.56613 -11.8784 -0.0878261 5.55635 
-11.9221 -0.110612 5.54609 -11.9657 -0.133505 5.53532 -12.0091 -0.156521 5.52402 
-12.0522 -0.179674 5.51216 -12.0951 -0.20298 5.49972 -12.1378 -0.226455 5.48668 
-12.1801 -0.250114 5.473 -12.222 -0.273972 5.45867 -12.2636 -0.298045 5.44365 
-12.3047 -0.322348 5.42794 -12.3454 -0.346896 5.41149 -12.3855 -0.371705 5.39429 
-12.4251 -0.396791 5.37631 -12.4641 -0.422168 5.35753 -12.5025 -0.447852 5.33792 
-12.5402 -0.473859 5.31747 -12.5772 -0.500203 5.29613 -12.6135 -0.526901 5.27389 
[...]
CELL_DATA 1
FIELD FieldData 2
Length 1 1 double
63.875945006 
Tortuosity 1 1 double
1.5233768418 
POINT_DATA 1278
SCALARS MaximumInscribedSphereRadius float
LOOKUP_TABLE default
0.62 0.629028 0.638056 0.647083 0.656111 0.665139 0.674167 0.683195 0.692223 
0.70125 0.710278 0.719306 0.728334 0.737362 0.74639 0.755417 0.764445 0.773473 
0.782501 0.791529 0.800557 0.809055 0.812631 0.816207 0.819783 0.823358 0.826934 
0.83051 0.834086 0.837662 0.841237 0.844813 0.848389 0.851965 0.855541 0.859116 
0.862692 0.866268 0.869844 0.87342 0.876995 0.874374 0.867635 0.860896 0.854156 
0.847417 0.840678 0.833938 0.827199 0.82046 0.813721 0.806981 0.800242 0.793503 
0.786763 0.780024 0.773285 0.766546 0.759806 0.753067 0.746328 0.741669 0.75057 
0.75947 0.768371 0.777272 0.786173 0.795073 0.803974 0.812875 0.821775 0.830676 
0.839577 0.848477 0.857378 0.866279 0.87518 0.88408 0.892981 0.901882 0.910782 
0.919683 0.933046 0.947008 0.960971 0.974933 0.988895 1.00286 1.01682 1.03078 
1.04474 1.05871 1.07267 1.08663 1.10059 1.11456 1.12852 1.14248 1.15644 
1.17041 1.18437 1.19833 1.19676 1.18486 1.17296 1.16106 1.14916 1.13726 
1.12536 1.11346 1.10156 1.08966 1.07775 1.06585 1.05395 1.04205 1.03015 
1.01825 1.00635 0.994448 0.982547 0.970646 0.96066 0.954745 0.94883 0.942915 
0.937 0.931085 0.92517 0.919254 0.913339 0.907424 0.901509 0.895594 0.889679 
0.883764 0.877848 0.871933 0.866018 0.860103 0.854188 0.848273 0.843187 0.857337 
0.871487 0.885638 0.899788 0.913938 0.928088 0.942239 0.956389 0.970539 0.98469 
0.99884 1.01299 1.02714 1.04129 1.05544 1.06959 1.08374 1.09789 1.11204 
1.12619 1.12774 1.12547 1.12319 1.12091 1.11863 1.11635 1.11408 1.1118 
1.10952 1.10724 1.10497 1.10269 1.10041 1.09813 1.09585 1.09358 1.0913 
1.08902 1.08674 1.08447 1.07953 1.07196 1.06439 1.05682 1.04925 1.04167 
1.0341 1.02653 1.01896 1.01139 1.00382 0.996245 0.988673 0.981102 0.97353 
0.965959 0.958387 0.950815 0.943244 0.935673 0.930089 0.930442 0.930795 0.931148 
0.931502 0.931855 0.932208 0.932562 0.932915 0.933268 0.933621 0.933975 0.934328 
0.934681 0.935034 0.935388 0.935741 0.936094 0.936448 0.936801 0.937154 0.938474 
0.93981 0.941147 0.942483 0.94382 0.945156 0.946493 0.947829 0.949166 0.950502 
0.951839 0.953175 0.954512 0.955848 0.957185 0.958521 0.959858 0.961194 0.962531 
0.963867 0.96417 0.964026 0.963881 0.963737 0.963592 0.963448 0.963303 0.963159 
0.963014 0.96287 0.962725 0.962581 0.962436 0.962292 0.962147 0.962003 0.961858 
0.961714 0.961569 0.961425 0.960828 0.959586 0.958344 0.957101 0.955859 0.954617 
0.953374 0.952132 0.95089 0.949647 0.948405 0.947163 0.945921 0.944678 0.943436 
0.942194 0.940951 0.939709 0.938467 0.937225 0.936281 0.937346 0.93841 0.939475 
0.94054 0.941605 0.942669 0.943734 0.944799 0.945864 0.946929 0.947993 0.949058 
0.950123 0.951188 0.952253 0.953317 0.954382 0.955447 0.956512 0.957576 0.965056 
0.973683 0.98231 0.990936 0.999563 1.00819 1.01682 1.02544 1.03407 1.0427 
1.05132 1.05995 1.06858 1.0772 1.08583 1.09446 1.10309 1.11171 1.12034 
1.12897 1.14454 1.16545 1.18636 1.20727 1.22818 1.24909 1.27 1.29091 
1.31182 1.33273 1.35364 1.37455 1.39546 1.41637 1.43727 1.45818 1.47909 
1.5 1.52091 1.54182 1.55707 1.55794 1.5588 1.55966 1.56052 1.56139 
1.56225 1.56311 1.56397 1.56484 1.5657 1.56656 1.56742 1.56829 1.56915 
1.57001 1.57087 1.57174 1.5726 1.57346 1.57425 1.55934 1.54443 1.52952 
1.51461 1.4997 1.4848 1.46989 1.45498 1.44007 1.42516 1.41025 1.39534 
1.38044 1.36553 1.35062 1.33571 1.3208 1.30589 1.29098 1.27608 1.26821 
1.26291 1.25762 1.25232 1.24702 1.24173 1.23643 1.23113 1.22584 1.22054 
1.21524 1.20995 1.20465 1.19935 1.19406 1.18876 1.18346 1.17817 1.17287 
1.16757 1.16669 1.16828 1.16987 1.17146 1.17305 1.17464 1.17623 1.17782 
1.17941 1.181 1.18259 1.18418 1.18578 1.18737 1.18896 1.19055 1.19214 
1.19373 1.19532 1.19691 1.19865 1.20062 1.2026 1.20458 1.20655 1.20853 
1.21051 1.21248 1.21446 1.21644 1.21841 1.22039 1.22237 1.22434 1.22632 
1.2283 1.23027 1.23225 1.23423 1.2362 1.238 1.2381 1.2382 1.2383 
1.2384 1.23849 1.23859 1.23869 1.23879 1.23889 1.23899 1.23909 1.23919 
1.23929 1.23939 1.23949 1.23959 1.23968 1.23978 1.23988 1.23998 1.24 
1.24 1.24 1.24 1.24 1.24 1.24 1.24 1.24 1.24 
1.24 1.24 1.24 1.24 1.24 1.24 1.24 1.24 1.24 
1.24 1.24 1.24 1.24 1.24 1.24 1.24 1.24 1.24 
1.24 1.24 1.24 1.24 1.24 1.24 1.24 1.24 1.24 
1.24 1.24 1.24 1.24 1.24 1.24 1.24 1.24 1.24 
1.24 1.24 1.24 1.24 1.24 1.24 1.24 1.24 1.24 
1.24 1.24 1.24 1.24 1.24 1.24 1.24 1.24 1.24 
1.24 1.24 1.24 1.24 1.24 1.24 1.24 1.24 1.24 
1.24 1.24 1.24 1.24 1.24 1.24 1.24 1.24 1.24 
1.24 1.24 1.24 1.24 1.24 1.24 1.24 1.24 1.24 
1.24 1.24 1.24 1.24 1.24 1.24 1.24 1.24 1.24 
1.24 1.24 1.24 1.24 1.24 1.24 1.24 1.24 1.24 
1.24 1.24 1.24 1.24 1.24 1.24 1.24 1.24 1.24 
1.24 1.24 1.24 1.24 1.24 1.24 1.24 1.24 1.24 
1.24 1.24 1.24 1.24 1.24 1.24 1.24 1.24 1.24 
1.24 1.24 1.24 1.24 1.24 1.2404 1.2434 1.2464 1.24941 
1.25241 1.25541 1.25842 1.26142 1.26442 1.26743 1.27043 1.27343 1.27643 
1.27944 1.28244 1.28544 1.28845 1.29145 1.29445 1.29746 1.30046 1.30388 
1.30738 1.31087 1.31437 1.31786 1.32135 1.32485 1.32834 1.33184 1.33533 
1.33883 1.34232 1.34582 1.34931 1.35281 1.3563 1.35979 1.36329 1.36678 
1.37028 1.36977 1.36633 1.36288 1.35943 1.35598 1.35253 1.34908 1.34563 
1.34219 1.33874 1.33529 1.33184 1.32839 1.32494 1.3215 1.31805 1.3146 
1.31115 1.3077 1.30425 1.30114 1.29883 1.29651 1.2942 1.29188 1.28956 
1.28725 1.28493 1.28262 1.2803 1.27799 1.27567 1.27336 1.27104 1.26873 
1.26641 1.26409 1.26178 1.25946 1.25715 1.25488 1.25557 1.25627 1.25696 
1.25765 1.25835 1.25904 1.25973 1.26043 1.26112 1.26181 1.26251 1.2632 
1.26389 1.26459 1.26528 1.26597 1.26667 1.26736 1.26805 1.26875 1.27328 
1.2792 1.28511 1.29103 1.29695 1.30286 1.30878 1.3147 1.32062 1.32653 
1.33245 1.33837 1.34429 1.3502 1.35612 1.36204 1.36796 1.37387 1.37979 
1.38571 1.39143 1.39691 1.4024 1.40788 1.41336 1.41885 1.42433 1.42982 
1.4353 1.44078 1.44627 1.45175 1.45724 1.46272 1.4682 1.47369 1.47917 
1.48466 1.49014 1.49562 1.49827 1.48947 1.48067 1.47187 1.46307 1.45427 
1.44547 1.43667 1.42787 1.41907 1.41026 1.40146 1.39266 1.38386 1.37506 
1.36626 1.35746 1.34866 1.33986 1.33106 1.32226 1.31879 1.31557 1.31235 
1.30913 1.30591 1.30269 1.29947 1.29626 1.29304 1.28982 1.2866 1.28338 
1.28016 1.27694 1.27372 1.2705 1.26728 1.26406 1.26084 1.25762 1.25719 
1.25794 1.25868 1.25942 1.26016 1.26091 1.26165 1.26239 1.26313 1.26388 
1.26462 1.26536 1.2661 1.26685 1.26759 1.26833 1.26907 1.26982 1.27056 
1.2713 1.27138 1.27059 1.26981 1.26902 1.26824 1.26745 1.26667 1.26588 
1.26509 1.26431 1.26352 1.26274 1.26195 1.26117 1.26038 1.2596 1.25881 
1.25803 1.25724 1.25646 1.25627 1.25918 1.26208 1.26499 1.26789 1.2708 
1.2737 1.2766 1.27951 1.28241 1.28532 1.28822 1.29113 1.29403 1.29694 
1.29984 1.30275 1.30565 1.30856 1.31146 1.31437 1.32216 1.33061 1.33906 
1.34751 1.35596 1.36441 1.37286 1.3813 1.38975 1.3982 1.40665 1.4151 
1.42355 1.432 1.44044 1.44889 1.45734 1.46579 1.47424 1.48269 1.48794 
1.49104 1.49414 1.49724 1.50034 1.50344 1.50654 1.50964 1.51274 1.51584 
1.51894 1.52204 1.52514 1.52824 1.53134 1.53444 1.53754 1.54064 1.54374 
1.54684 1.54895 1.54889 1.54884 1.54878 1.54872 1.54867 1.54861 1.54855 
1.54849 1.54844 1.54838 1.54832 1.54827 1.54821 1.54815 1.54809 1.54804 
1.54798 1.54792 1.54787 1.54763 1.5403 1.53297 1.52564 1.51832 1.51099 
1.50366 1.49634 1.48901 1.48168 1.47435 1.46703 1.4597 1.45237 1.44505 
1.43772 1.43039 1.42307 1.41574 1.40841 1.40108 1.39419 1.38746 1.38072 
1.37398 1.36724 1.3605 1.35376 1.34703 1.34029 1.33355 1.32681 1.32007 
1.31333 1.3066 1.29986 1.29312 1.28638 1.27964 1.2729 1.26617 1.262 
1.26089 1.25978 1.25867 1.25756 1.25645 1.25534 1.25423 1.25312 1.25201 
1.2509 1.24979 1.24868 1.24757 1.24646 1.24535 1.24424 1.24313 1.24202 
1.24091 1.24 1.24 1.24 1.24 1.24 1.24 1.24 1.24 
1.24 1.24 1.24 1.24 1.24 1.24 1.24 1.24 1.24 
1.24 1.24 1.24 1.24 1.236 1.23168 1.22736 1.22304 1.21872 
1.2144 1.21008 1.20576 1.20143 1.19711 1.19279 1.18847 1.18415 1.17983 
1.17551 1.17119 1.16687 1.16255 1.15822 1.1539 1.14864 1.14294 1.13725 
1.13156 1.12586 1.12017 1.11447 1.10878 1.10309 1.09739 1.0917 1.086 
1.08031 1.07461 1.06892 1.06323 1.05753 1.05184 1.04614 1.04045 1.04195 
1.05352 1.06508 1.07664 1.0882 1.09977 1.11133 1.12289 1.13446 1.14602 
1.15758 1.16915 1.18071 1.19227 1.20383 1.2154 1.22696 1.23852 1.25009 
1.26165 1.27329 1.28546 1.29762 1.30979 1.32196 1.33412 1.34629 1.35845 
1.37062 1.38278 1.39495 1.40711 1.41928 1.43144 1.44361 1.45577 1.46794 
1.4801 1.49227 1.50443 1.5166 1.51974 1.52129 1.52285 1.52441 1.52596 
1.52752 1.52908 1.53064 1.53219 1.53375 1.53531 1.53686 1.53842 1.53998 
1.54154 1.54309 1.54465 1.54621 1.54777 1.54932 1.55 1.55 1.55 
1.55 1.55 1.55 1.55 1.55 1.55 1.55 1.55 1.55 
1.55 1.55 1.55 1.55 1.55 1.55 1.55 1.55 1.54992 
1.54966 1.54939 1.54912 1.54885 1.54858 1.54831 1.54804 1.54778 1.54751 
1.54724 1.54697 1.5467 1.54643 1.54616 1.5459 1.54563 1.54536 1.54509 
1.54482 1.54455 1.53522 1.52582 1.51642 1.50703 1.49763 1.48823 1.47883 
1.46943 1.46004 1.45064 1.44124 1.43184 1.42244 1.41304 1.40365 1.39425 
1.38485 1.37545 1.36605 1.35666 1.34214 1.3255 1.30886 1.29222 1.27558 
1.25894 1.2423 1.22566 1.20902 1.19238 1.17575 1.15911 1.14247 1.12583 
1.10919 1.09255 1.07591 1.05927 1.04263 1.02599 1.01851 1.02363 1.02876 
1.03389 1.03901 1.04414 1.04926 1.05439 1.05952 1.06464 1.06977 1.0749 
1.08002 1.08515 1.09028 1.0954 1.10053 1.10566 1.11078 1.11591 1.12078 
1.12402 1.12725 1.13049 1.13373 1.13696 1.1402 1.14344 1.14667 1.14991 
1.15315 1.15638 1.15962 1.16286 1.16609 1.16933 1.17257 1.1758 1.17904 
1.18228 1.18551 1.17783 1.16871 1.15959 1.15047 1.14135 1.13223 1.12311 
1.11399 1.10487 1.09575 1.08663 1.07751 1.06839 1.05927 1.05015 1.04103 
1.03191 1.02279 1.01367 1.00455 0.995139 0.985265 0.97539 0.965516 0.955641 
0.945767 0.935892 0.926018 0.916143 0.906269 0.896395 0.88652 0.876646 0.866771 
0.856897 0.847022 0.837148 0.827273 0.817399 0.807524 0.798518 0.789593 0.780667 
0.771741 0.762815 0.753889 0.744963 0.736037 0.727111 0.718185 0.709259 0.700333 
0.691407 0.682481 0.673556 0.66463 0.655704 0.646778 0.637852 0.628926 0.62 

TEXTURE_COORDINATES TCoords 2 float
0 0 0.000783085 0 0.00156617 0 0.00234926 0 0.00313234 
0 0.00391543 0 0.00469851 0 0.0054816 0 0.00626468 0 
0.00704777 0 0.00783085 0 0.00861394 0 0.00939702 0 0.0101801 
0 0.0109632 0 0.0117463 0 0.0125294 0 0.0133125 0 
0.0140955 0 0.0148786 0 0.0156617 0 0.0164448 0 0.0172279 
0 0.018011 0 0.018794 0 0.0195771 0 0.0203602 0 
0.0211433 0 0.0219264 0 0.0227095 0 0.0234926 0 0.0242756 
0 0.0250587 0 0.0258418 0 0.0266249 0 0.027408 0 
0.0281911 0 0.0289742 0 0.0297572 0 0.0305403 0 0.0313234 
0 0.0321065 0 0.0328896 0 0.0336727 0 0.0344558 0 
0.0352388 0 0.0360219 0 0.036805 0 0.0375881 0 0.0383712 
0 0.0391543 0 0.0399374 0 0.0407204 0 0.0415035 0 
0.0422866 0 0.0430697 0 0.0438528 0 0.0446359 0 0.045419 
0 0.046202 0 0.0469851 0 0.0477682 0 0.0485513 0 
0.0493344 0 0.0501175 0 0.0509005 0 0.0516836 0 0.0524667 
0 0.0532498 0 0.0540329 0 0.054816 0 0.0555991 0 
0.0563821 0 0.0571652 0 0.0579483 0 0.0587314 0 0.0595145 
0 0.0602976 0 0.0610807 0 0.0618637 0 0.0626468 0 
0.0634299 0 0.064213 0 0.0649961 0 0.0657792 0 0.0665623 
0 0.0673453 0 0.0681284 0 0.0689115 0 0.0696946 0 
0.0704777 0 0.0712608 0 0.0720439 0 0.0728269 0 0.07361 
0 0.0743931 0 0.0751762 0 0.0759593 0 0.0767424 0 
0.0775255 0 0.0783085 0 0.0790916 0 0.0798747 0 0.0806578 
0 0.0814409 0 0.082224 0 0.083007 0 0.0837901 0 
0.0845732 0 0.0853563 0 0.0861394 0 0.0869225 0 0.0877056 
0 0.0884886 0 0.0892717 0 0.0900548 0 0.0908379 0 
0.091621 0 0.0924041 0 0.0931872 0 0.0939702 0 0.0947533 
0 0.0955364 0 0.0963195 0 0.0971026 0 0.0978857 0 
0.0986688 0 0.0994518 0 0.100235 0 0.101018 0 0.101801 
0 0.102584 0 0.103367 0 0.10415 0 0.104933 0 
0.105717 0 0.1065 0 0.107283 0 0.108066 0 0.108849 
0 0.109632 0 0.110415 0 0.111198 0 0.111981 0 
0.112764 0 0.113547 0 0.11433 0 0.115114 0 0.115897 
0 0.11668 0 0.117463 0 0.118246 0 0.119029 0 
0.119812 0 0.120595 0 0.121378 0 0.122161 0 0.122944 
0 0.123727 0 0.124511 0 0.125294 0 0.126077 0 
0.12686 0 0.127643 0 0.128426 0 0.129209 0 0.129992 
0 0.130775 0 0.131558 0 0.132341 0 0.133125 0 
0.133908 0 0.134691 0 0.135474 0 0.136257 0 0.13704 
0 0.137823 0 0.138606 0 0.139389 0 0.140172 0 
0.140955 0 0.141738 0 0.142522 0 0.143305 0 0.144088 
0 0.144871 0 0.145654 0 0.146437 0 0.14722 0 
0.148003 0 0.148786 0 0.149569 0 0.150352 0 0.151135 
0 0.151919 0 0.152702 0 0.153485 0 0.154268 0 
0.155051 0 0.155834 0 0.156617 0 0.1574 0 0.158183 
0 0.158966 0 0.159749 0 0.160533 0 0.161316 0 
0.162099 0 0.162882 0 0.163665 0 0.164448 0 0.165231 
0 0.166014 0 0.166797 0 0.16758 0 0.168363 0 
0.169146 0 0.16993 0 0.170713 0 0.171496 0 0.172279 
0 0.173062 0 0.173845 0 0.174628 0 0.175411 0 
0.176194 0 0.176977 0 0.17776 0 0.178543 0 0.179327 
0 0.18011 0 0.180893 0 0.181676 0 0.182459 0 
0.183242 0 0.184025 0 0.184808 0 0.185591 0 0.186374 
0 0.187157 0 0.18794 0 0.188724 0 0.189507 0 
0.19029 0 0.191073 0 0.191856 0 0.192639 0 0.193422 
0 0.194205 0 0.194988 0 0.195771 0 0.196554 0 
0.197338 0 0.198121 0 0.198904 0 0.199687 0 0.20047 
0 0.201253 0 0.202036 0 0.202819 0 0.203602 0 
0.204385 0 0.205168 0 0.205951 0 0.206735 0 0.207518 
0 0.208301 0 0.209084 0 0.209867 0 0.21065 0 
0.211433 0 0.212216 0 0.212999 0 0.213782 0 0.214565 
0 0.215348 0 0.216132 0 0.216915 0 0.217698 0 
0.218481 0 0.219264 0 0.220047 0 0.22083 0 0.221613 
0 0.222396 0 0.223179 0 0.223962 0 0.224745 0 
0.225529 0 0.226312 0 0.227095 0 0.227878 0 0.228661 
0 0.229444 0 0.230227 0 0.23101 0 0.231793 0 
0.232576 0 0.233359 0 0.234143 0 0.234926 0 0.235709 
0 0.236492 0 0.237275 0 0.238058 0 0.238841 0 
0.239624 0 0.240407 0 0.24119 0 0.241973 0 0.242756 
0 0.24354 0 0.244323 0 0.245106 0 0.245889 0 
0.246672 0 0.247455 0 0.248238 0 0.249021 0 0.249804 
0 0.250587 0 0.25137 0 0.252153 0 0.252937 0 
0.25372 0 0.254503 0 0.255286 0 0.256069 0 0.256852 
0 0.257635 0 0.258418 0 0.259201 0 0.259984 0 
0.260767 0 0.261551 0 0.262334 0 0.263117 0 0.2639 
0 0.264683 0 0.265466 0 0.266249 0 0.267032 0 
0.267815 0 0.268598 0 0.269381 0 0.270164 0 0.270948 
0 0.271731 0 0.272514 0 0.273297 0 0.27408 0 
0.274863 0 0.275646 0 0.276429 0 0.277212 0 0.277995 
0 0.278778 0 0.279561 0 0.280345 0 0.281128 0 
0.281911 0 0.282694 0 0.283477 0 0.28426 0 0.285043 
0 0.285826 0 0.286609 0 0.287392 0 0.288175 0 
0.288958 0 0.289742 0 0.290525 0 0.291308 0 0.292091 
0 0.292874 0 0.293657 0 0.29444 0 0.295223 0 
0.296006 0 0.296789 0 0.297572 0 0.298356 0 0.299139 
0 0.299922 0 0.300705 0 0.301488 0 0.302271 0 
0.303054 0 0.303837 0 0.30462 0 0.305403 0 0.306186 
0 0.306969 0 0.307753 0 0.308536 0 0.309319 0 
0.310102 0 0.310885 0 0.311668 0 0.312451 0 0.313234 
0 0.314017 0 0.3148 0 0.315583 0 0.316366 0 
0.31715 0 0.317933 0 0.318716 0 0.319499 0 0.320282 
0 0.321065 0 0.321848 0 0.322631 0 0.323414 0 
0.324197 0 0.32498 0 0.325763 0 0.326547 0 0.32733 
0 0.328113 0 0.328896 0 0.329679 0 0.330462 0 
0.331245 0 0.332028 0 0.332811 0 0.333594 0 0.334377 
0 0.335161 0 0.335944 0 0.336727 0 0.33751 0 
0.338293 0 0.339076 0 0.339859 0 0.340642 0 0.341425 
0 0.342208 0 0.342991 0 0.343774 0 0.344558 0 
0.345341 0 0.346124 0 0.346907 0 0.34769 0 0.348473 
0 0.349256 0 0.350039 0 0.350822 0 0.351605 0 
0.352388 0 0.353171 0 0.353955 0 0.354738 0 0.355521 
0 0.356304 0 0.357087 0 0.35787 0 0.358653 0 
0.359436 0 0.360219 0 0.361002 0 0.361785 0 0.362569 
0 0.363352 0 0.364135 0 0.364918 0 0.365701 0 
0.366484 0 0.367267 0 0.36805 0 0.368833 0 0.369616 
0 0.370399 0 0.371182 0 0.371966 0 0.372749 0 
0.373532 0 0.374315 0 0.375098 0 0.375881 0 0.376664 
0 0.377447 0 0.37823 0 0.379013 0 0.379796 0 
0.380579 0 0.381363 0 0.382146 0 0.382929 0 0.383712 
0 0.384495 0 0.385278 0 0.386061 0 0.386844 0 
0.387627 0 0.38841 0 0.389193 0 0.389977 0 0.39076 
0 0.391543 0 0.392326 0 0.393109 0 0.393892 0 
0.394675 0 0.395458 0 0.396241 0 0.397024 0 0.397807 
0 0.39859 0 0.399374 0 0.400157 0 0.40094 0 
0.401723 0 0.402506 0 0.403289 0 0.404072 0 0.404855 
0 0.405638 0 0.406421 0 0.407204 0 0.407987 0 
0.408771 0 0.409554 0 0.410337 0 0.41112 0 0.411903 
0 0.412686 0 0.413469 0 0.414252 0 0.415035 0 
0.415818 0 0.416601 0 0.417385 0 0.418168 0 0.418951 
0 0.419734 0 0.420517 0 0.4213 0 0.422083 0 
0.422866 0 0.423649 0 0.424432 0 0.425215 0 0.425998 
0 0.426782 0 0.427565 0 0.428348 0 0.429131 0 
0.429914 0 0.430697 0 0.43148 0 0.432263 0 0.433046 
0 0.433829 0 0.434612 0 0.435395 0 0.436179 0 
0.436962 0 0.437745 0 0.438528 0 0.439311 0 0.440094 
0 0.440877 0 0.44166 0 0.442443 0 0.443226 0 
0.444009 0 0.444792 0 0.445576 0 0.446359 0 0.447142 
0 0.447925 0 0.448708 0 0.449491 0 0.450274 0 
0.451057 0 0.45184 0 0.452623 0 0.453406 0 0.45419 
0 0.454973 0 0.455756 0 0.456539 0 0.457322 0 
0.458105 0 0.458888 0 0.459671 0 0.460454 0 0.461237 
0 0.46202 0 0.462803 0 0.463587 0 0.46437 0 
0.465153 0 0.465936 0 0.466719 0 0.467502 0 0.468285 
0 0.469068 0 0.469851 0 0.470634 0 0.471417 0 
0.4722 0 0.472984 0 0.473767 0 0.47455 0 0.475333 
0 0.476116 0 0.476899 0 0.477682 0 0.478465 0 
0.479248 0 0.480031 0 0.480814 0 0.481597 0 0.482381 
0 0.483164 0 0.483947 0 0.48473 0 0.485513 0 
0.486296 0 0.487079 0 0.487862 0 0.488645 0 0.489428 
0 0.490211 0 0.490995 0 0.491778 0 0.492561 0 
0.493344 0 0.494127 0 0.49491 0 0.495693 0 0.496476 
0 0.497259 0 0.498042 0 0.498825 0 0.499608 0 
0.500392 0 0.501175 0 0.501958 0 0.502741 0 0.503524 
0 0.504307 0 0.50509 0 0.505873 0 0.506656 0 
0.507439 0 0.508222 0 0.509005 0 0.509789 0 0.510572 
0 0.511355 0 0.512138 0 0.512921 0 0.513704 0 
0.514487 0 0.51527 0 0.516053 0 0.516836 0 0.517619 
0 0.518403 0 0.519186 0 0.519969 0 0.520752 0 
0.521535 0 0.522318 0 0.523101 0 0.523884 0 0.524667 
0 0.52545 0 0.526233 0 0.527016 0 0.5278 0 
0.528583 0 0.529366 0 0.530149 0 0.530932 0 0.531715 
0 0.532498 0 0.533281 0 0.534064 0 0.534847 0 
0.53563 0 0.536413 0 0.537197 0 0.53798 0 0.538763 
0 0.539546 0 0.540329 0 0.541112 0 0.541895 0 
0.542678 0 0.543461 0 0.544244 0 0.545027 0 0.545811 
0 0.546594 0 0.547377 0 0.54816 0 0.548943 0 
0.549726 0 0.550509 0 0.551292 0 0.552075 0 0.552858 
0 0.553641 0 0.554424 0 0.555207 0 0.555991 0 
0.556774 0 0.557557 0 0.55834 0 0.559123 0 0.559906 
0 0.560689 0 0.561472 0 0.562255 0 0.563038 0 
0.563821 0 0.564605 0 0.565388 0 0.566171 0 0.566954 
0 0.567737 0 0.56852 0 0.569303 0 0.570086 0 
0.570869 0 0.571652 0 0.572435 0 0.573218 0 0.574002 
0 0.574785 0 0.575568 0 0.576351 0 0.577134 0 
0.577917 0 0.5787 0 0.579483 0 0.580266 0 0.581049 
0 0.581832 0 0.582615 0 0.583399 0 0.584182 0 
0.584965 0 0.585748 0 0.586531 0 0.587314 0 0.588097 
0 0.58888 0 0.589663 0 0.590446 0 0.591229 0 
0.592013 0 0.592796 0 0.593579 0 0.594362 0 0.595145 
0 0.595928 0 0.596711 0 0.597494 0 0.598277 0 
0.59906 0 0.599843 0 0.600626 0 0.60141 0 0.602193 
0 0.602976 0 0.603759 0 0.604542 0 0.605325 0 
0.606108 0 0.606891 0 0.607674 0 0.608457 0 0.60924 
0 0.610023 0 0.610807 0 0.61159 0 0.612373 0 
0.613156 0 0.613939 0 0.614722 0 0.615505 0 0.616288 
0 0.617071 0 0.617854 0 0.618637 0 0.619421 0 
0.620204 0 0.620987 0 0.62177 0 0.622553 0 0.623336 
0 0.624119 0 0.624902 0 0.625685 0 0.626468 0 
0.627251 0 0.628034 0 0.628818 0 0.629601 0 0.630384 
0 0.631167 0 0.63195 0 0.632733 0 0.633516 0 
0.634299 0 0.635082 0 0.635865 0 0.636648 0 0.637432 
0 0.638215 0 0.638998 0 0.639781 0 0.640564 0 
0.641347 0 0.64213 0 0.642913 0 0.643696 0 0.644479 
0 0.645262 0 0.646045 0 0.646829 0 0.647612 0 
0.648395 0 0.649178 0 0.649961 0 0.650744 0 0.651527 
0 0.65231 0 0.653093 0 0.653876 0 0.654659 0 
0.655442 0 0.656226 0 0.657009 0 0.657792 0 0.658575 
0 0.659358 0 0.660141 0 0.660924 0 0.661707 0 
0.66249 0 0.663273 0 0.664056 0 0.664839 0 0.665623 
0 0.666406 0 0.667189 0 0.667972 0 0.668755 0 
0.669538 0 0.670321 0 0.671104 0 0.671887 0 0.67267 
0 0.673453 0 0.674236 0 0.67502 0 0.675803 0 
0.676586 0 0.677369 0 0.678152 0 0.678935 0 0.679718 