# vtk DataFile Version 4.2
vtk output
ASCII
DATASET POLYDATA
POINTS 1276 float
0 0 0 -0.00374379 0.000485598 -0.0015732 -0.0146664 0.00188722 -0.00615785 
-0.0323046 0.0041221 -0.0135515 -0.0561953 0.00710748 -0.0235517 -0.0858753 0.0107606 -0.035956 
-0.120881 0.0149987 -0.0505619 -0.160751 0.019739 -0.0671671 -0.20502 0.0248988 -0.085569 
-0.253225 0.0303953 -0.105565 -0.304904 0.0361457 -0.126953 -0.359594 0.0420673 -0.149531 
-0.41683 0.0480773 -0.173096 -0.476151 0.0540929 -0.197445 -0.537092 0.0600315 -0.222376 
-0.599191 0.0658102 -0.247687 -0.661985 0.0713462 -0.273175 -0.72501 0.0765569 -0.298637 
-0.787803 0.0813594 -0.323872 -0.849901 0.085671 -0.348677 -0.910841 0.0894089 -0.37285 
-0.97016 0.0924904 -0.396187 -1.02753 0.0948532 -0.418543 -1.083 0.0964959 -0.43994 
-1.13672 0.097428 -0.460429 -1.18882 0.0976593 -0.480062 -1.23942 0.0971995 -0.498891 
-1.28867 0.0960583 -0.516968 -1.3367 0.0942453 -0.534346 -1.38364 0.0917703 -0.551077 
-1.42963 0.088643 -0.567212 -1.47479 0.084873 -0.582803 -1.51927 0.0804701 -0.597903 
-1.56319 0.0754439 -0.612564 -1.6067 0.0698042 -0.626837 -1.64992 0.0635606 -0.640775 
-1.69298 0.0567228 -0.654429 -1.73603 0.0493006 -0.667853 -1.77919 0.0413036 -0.681097 
-1.8226 0.0327415 -0.694214 -1.8664 0.023624 -0.707256 -1.91071 0.01396 -0.720274 
-1.95556 0.00373972 -0.733273 -2.0009 -0.00706609 -0.746215 -2.04667 -0.0184873 -0.759059 
-2.0928 -0.0305541 -0.771766 -2.13923 -0.0432962 -0.784295 -2.18589 -0.0567437 -0.796606 
-2.23272 -0.0709267 -0.808658 -2.27965 -0.085875 -0.82041 -2.32662 -0.101619 -0.831822 
-2.37357 -0.118188 -0.842854 -2.42043 -0.135612 -0.853466 -2.46713 -0.153922 -0.863616 
-2.51363 -0.173147 -0.873266 -2.55984 -0.193317 -0.882373 -2.6057 -0.214463 -0.890898 
-2.65116 -0.236614 -0.8988 -2.69615 -0.2598 -0.906039 -2.7406 -0.284051 -0.912574 
-2.78445 -0.309398 -0.918365 -2.82763 -0.335869 -0.923372 -2.8701 -0.363473 -0.927571 
-2.91185 -0.392173 -0.930965 -2.95285 -0.42193 -0.933562 -2.99311 -0.452704 -0.935372 
-3.0326 -0.484454 -0.936401 -3.07132 -0.517141 -0.936657 -3.10926 -0.550725 -0.93615 
-3.1464 -0.585165 -0.934885 -3.18272 -0.620421 -0.932873 -3.21823 -0.656453 -0.930119 
-3.2529 -0.693222 -0.926633 -3.28673 -0.730688 -0.922422 -3.31971 -0.768809 -0.917495 
-3.35181 -0.807547 -0.911859 -3.38304 -0.846861 -0.905521 -3.41337 -0.88671 -0.898492 
-3.4428 -0.927056 -0.890777 -3.47132 -0.967858 -0.882385 -3.49891 -1.00908 -0.873324 
-3.52556 -1.05067 -0.863602 -3.55127 -1.0926 -0.85323 -3.57607 -1.13486 -0.842226 
-3.59998 -1.17741 -0.830613 -3.62303 -1.22025 -0.818408 -3.64525 -1.26334 -0.805634 
-3.66668 -1.30668 -0.79231 -3.68734 -1.35023 -0.778457 -3.70726 -1.394 -0.764096 
-3.72646 -1.43794 -0.749245 -3.74499 -1.48205 -0.733927 -3.76287 -1.5263 -0.718161 
-3.78012 -1.57068 -0.701967 -3.79678 -1.61516 -0.685366 -3.81287 -1.65973 -0.668379 
-3.82844 -1.70437 -0.651026 -3.84349 -1.74905 -0.633326 -3.85807 -1.79376 -0.615301 
-3.8722 -1.83848 -0.596971 -3.88592 -1.88319 -0.578356 -3.89924 -1.92786 -0.559477 
-3.91221 -1.9725 -0.540352 -3.92483 -2.01707 -0.520992 -3.93713 -2.0616 -0.501402 
-3.94911 -2.10608 -0.481591 -3.96079 -2.15051 -0.461565 -3.97219 -2.19489 -0.441332 
-3.98333 -2.23923 -0.420897 -3.9942 -2.28352 -0.400269 -4.00484 -2.32776 -0.379454 
-4.01525 -2.37196 -0.358459 -4.02545 -2.41612 -0.337291 -4.03546 -2.46023 -0.315957 
-4.04528 -2.5043 -0.294464 -4.05494 -2.54833 -0.272819 -4.06445 -2.59232 -0.251029 
-4.07382 -2.63626 -0.229101 -4.08307 -2.68017 -0.207042 -4.09221 -2.72405 -0.184858 
-4.10125 -2.76788 -0.162558 -4.11022 -2.81168 -0.140147 -4.11913 -2.85544 -0.117633 
-4.12799 -2.89917 -0.0950228 -4.1368 -2.94286 -0.0723242 -4.14558 -2.98653 -0.0495445 
-4.15433 -3.03016 -0.0266909 -4.16307 -3.07377 -0.00377091 -4.1718 -3.11735 0.0192081 
-4.18054 -3.1609 0.0422386 -4.18928 -3.20443 0.0653134 -4.19805 -3.24794 0.0884249 
-4.20685 -3.29143 0.111566 -4.21568 -3.3349 0.134729 -4.22457 -3.37836 0.157906 
-4.23351 -3.42179 0.181091 -4.24252 -3.46522 0.204276 -4.2516 -3.50863 0.227452 
-4.26077 -3.55203 0.250614 -4.27003 -3.59542 0.273754 -4.2794 -3.63881 0.296864 
-4.28888 -3.68218 0.319936 -4.29847 -3.72556 0.342964 -4.3082 -3.76893 0.365938 
-4.31807 -3.8123 0.388845 -4.32809 -3.85568 0.411674 -4.33828 -3.89906 0.434411 
-4.34863 -3.94246 0.457045 -4.35917 -3.98587 0.479561 -4.36991 -4.02931 0.501949 
-4.38084 -4.07276 0.524196 -4.39199 -4.11624 0.546288 -4.40337 -4.15975 0.568214 
-4.41498 -4.20329 0.589961 -4.42684 -4.24687 0.611516 -4.43895 -4.29049 0.632868 
-4.45133 -4.33416 0.654002 -4.46399 -4.37787 0.674907 -4.47693 -4.42163 0.695571 
-4.49018 -4.46545 0.71598 -4.50373 -4.50932 0.736122 -4.5176 -4.55326 0.755985 
-4.5318 -4.59726 0.775556 -4.54634 -4.64133 0.794819 -4.56121 -4.68547 0.813741 
-4.57643 -4.72967 0.832291 -4.59199 -4.77393 0.850434 -4.60789 -4.81825 0.868137 
-4.62414 -4.86263 0.885365 -4.64073 -4.90706 0.902086 -4.65766 -4.95155 0.918266 
-4.67494 -4.9961 0.933871 -4.69256 -5.04069 0.948867 -4.71053 -5.08533 0.963221 
-4.72885 -5.13001 0.9769 -4.74751 -5.17474 0.989869 -4.76653 -5.21951 1.00209 
-4.78589 -5.26432 1.01354 -4.8056 -5.30916 1.02418 -4.82567 -5.35404 1.03398 
-4.84608 -5.39896 1.0429 -4.86685 -5.4439 1.0509 -4.88797 -5.48888 1.05797 
-4.90945 -5.53388 1.06405 -4.93125 -5.5789 1.06915 -4.95334 -5.62392 1.07327 
-4.97571 -5.66892 1.07639 -4.99831 -5.71391 1.07853 -5.02112 -5.75886 1.07967 
-5.0441 -5.80375 1.07983 -5.06723 -5.84858 1.07898 -5.09048 -5.89334 1.07714 
-5.1138 -5.93801 1.0743 -5.13718 -5.98257 1.07047 -5.16059 -6.02701 1.06563 
-5.18398 -6.07133 1.05979 -5.20734 -6.1155 1.05294 -5.23062 -6.15952 1.04509 
-5.25381 -6.20336 1.03623 -5.27687 -6.24702 1.02636 -5.29976 -6.29049 1.01549 
-5.32247 -6.33375 1.0036 -5.34495 -6.37678 0.990694 -5.36718 -6.41958 0.976777 
-5.38914 -6.46215 0.961867 -5.41082 -6.50449 0.945999 -5.43221 -6.5466 0.929208 
-5.4533 -6.58851 0.911529 -5.47409 -6.63021 0.892997 -5.49455 -6.67171 0.873647 
-5.51469 -6.71303 0.853515 -5.53449 -6.75417 0.832635 -5.55394 -6.79513 0.811042 
-5.57304 -6.83593 0.788771 -5.59176 -6.87657 0.765859 -5.61011 -6.91706 0.742339 
-5.62808 -6.95742 0.718246 -5.64565 -6.99763 0.693616 -5.66281 -7.03773 0.668485 
-5.67955 -7.0777 0.642886 -5.69588 -7.11757 0.616855 -5.71176 -7.15733 0.590427 
-5.7272 -7.197 0.563637 -5.74219 -7.23659 0.53652 -5.75672 -7.27609 0.509103 
-5.77079 -7.31553 0.481399 -5.78441 -7.35489 0.453424 -5.79758 -7.3942 0.425192 
-5.8103 -7.43346 0.396716 -5.82257 -7.47267 0.36801 -5.83441 -7.51184 0.33909 
-5.8458 -7.55098 0.309969 -5.85676 -7.59009 0.280661 -5.86728 -7.62918 0.251181 
-5.87738 -7.66826 0.221543 -5.88704 -7.70734 0.19176 -5.89628 -7.74641 0.161847 
-5.9051 -7.78549 0.131819 -5.9135 -7.82458 0.101689 -5.92148 -7.86369 0.0714718 
-5.92905 -7.90283 0.0411812 -5.93621 -7.942 0.0108316 -5.94296 -7.98122 -0.0195629 
-5.9493 -8.02047 -0.0499881 -5.95524 -8.05978 -0.0804319 -5.96079 -8.09914 -0.110887 
-5.96593 -8.13855 -0.141348 -5.97068 -8.17802 -0.171809 -5.97503 -8.21754 -0.202264 
-5.97899 -8.25711 -0.232707 -5.98256 -8.29673 -0.263132 -5.98574 -8.33641 -0.293532 
-5.98853 -8.37615 -0.323903 -5.99094 -8.41593 -0.354237 -5.99297 -8.45578 -0.38453 
-5.99461 -8.49567 -0.414775 -5.99588 -8.53562 -0.444967 -5.99677 -8.57563 -0.475098 
-5.99729 -8.61569 -0.505164 -5.99744 -8.65581 -0.535158 -5.99721 -8.69599 -0.565074 
-5.99662 -8.73622 -0.594907 -5.99566 -8.77651 -0.624651 -5.99433 -8.81686 -0.654299 
-5.99264 -8.85726 -0.683846 -5.99059 -8.89773 -0.71329 -5.98819 -8.93824 -0.742629 
-5.98543 -8.97881 -0.771863 -5.98231 -9.01942 -0.800989 -5.97884 -9.06009 -0.830007 
-5.97502 -9.1008 -0.858916 -5.97086 -9.14155 -0.887713 -5.96635 -9.18235 -0.916399 
-5.96149 -9.22319 -0.944971 -5.9563 -9.26407 -0.973429 -5.95076 -9.30498 -1.00177 
-5.94489 -9.34593 -1.03 -5.93869 -9.38691 -1.0581 -5.93215 -9.42793 -1.08609 
-5.92528 -9.46897 -1.11395 -5.91808 -9.51004 -1.1417 -5.91056 -9.55113 -1.16932 
-5.90271 -9.59225 -1.19681 -5.89454 -9.63338 -1.22418 -5.88605 -9.67454 -1.25142 
-5.87724 -9.71571 -1.27854 -5.86812 -9.7569 -1.30553 -5.85868 -9.7981 -1.3324 
-5.84893 -9.8393 -1.35915 -5.83887 -9.8805 -1.38578 -5.8285 -9.9217 -1.41229 
-5.81782 -9.96289 -1.43869 -5.80684 -10.0041 -1.46498 -5.79555 -10.0452 -1.49116 
-5.78396 -10.0864 -1.51723 -5.77207 -10.1275 -1.54319 -5.75988 -10.1686 -1.56905 
-5.74739 -10.2097 -1.59481 -5.73461 -10.2508 -1.62047 -5.72153 -10.2918 -1.64603 
-5.70817 -10.3327 -1.6715 -5.69451 -10.3737 -1.69687 -5.68056 -10.4146 -1.72216 
-5.66633 -10.4554 -1.74735 -5.65181 -10.4962 -1.77245 -5.63701 -10.5369 -1.79747 
-5.62193 -10.5775 -1.82241 -5.60656 -10.6181 -1.84727 -5.59092 -10.6587 -1.87206 
-5.57499 -10.6991 -1.89677 -5.55878 -10.7395 -1.92141 -5.5423 -10.7799 -1.94599 
-5.52553 -10.8201 -1.97051 -5.50849 -10.8603 -1.99496 -5.49118 -10.9004 -2.01936 
-5.47359 -10.9405 -2.04371 -5.45572 -10.9804 -2.068 -5.43758 -11.0203 -2.09225 
-5.41917 -11.0601 -2.11646 -5.40048 -11.0998 -2.14062 -5.38153 -11.1394 -2.16475 
-5.3623 -11.1789 -2.18884 -5.3428 -11.2183 -2.2129 -5.32303 -11.2577 -2.23693 
-5.303 -11.2969 -2.26094 -5.2827 -11.336 -2.28492 -5.26213 -11.3751 -2.30889 
-5.24129 -11.414 -2.33286 -5.2202 -11.4527 -2.35683 -5.19883 -11.4913 -2.3808 
-5.1772 -11.5298 -2.4048 -5.15531 -11.5681 -2.42882 -5.13316 -11.6061 -2.45287 
-5.11075 -11.644 -2.47697 -5.08807 -11.6817 -2.50111 -5.06514 -11.7191 -2.52531 
-5.04195 -11.7563 -2.54957 -5.0185 -11.7932 -2.57391 -4.99479 -11.8299 -2.59833 
-4.97082 -11.8663 -2.62283 -4.9466 -11.9024 -2.64743 -4.92212 -11.9382 -2.67213 
-4.89739 -11.9737 -2.69695 -4.87241 -12.0088 -2.72188 -4.84717 -12.0436 -2.74694 
-4.82168 -12.0781 -2.77214 -4.79593 -12.1121 -2.79747 -4.76993 -12.1459 -2.82295 
-4.74367 -12.1793 -2.84856 -4.71714 -12.2124 -2.87431 -4.69035 -12.2452 -2.90021 
-4.6633 -12.2777 -2.92625 -4.63597 -12.3099 -2.95243 -4.60837 -12.3418 -2.97876 
-4.58049 -12.3735 -3.00524 -4.55233 -12.4049 -3.03186 -4.52389 -12.4361 -3.05863 
[...]
CELL_DATA 1
FIELD FieldData 2
Length 1 1 double
63.786341213 
Tortuosity 1 1 double
0.89022323246 
POINT_DATA 1276
SCALARS MaximumInscribedSphereRadius float
LOOKUP_TABLE default
0.9796 0.990868 1.00214 1.0134 1.02467 1.03594 1.04721 1.05848 1.06975 
1.08101 1.09228 1.10355 1.11482 1.12609 1.13736 1.14862 1.15989 1.17116 
1.18243 1.1937 1.20496 1.21658 1.23127 1.24596 1.26065 1.27534 1.29003 
1.30472 1.31941 1.3341 1.3488 1.36349 1.37818 1.39287 1.40756 1.42225 
1.43694 1.45163 1.46632 1.48101 1.49571 1.49554 1.47999 1.46444 1.44889 
1.43334 1.41779 1.40224 1.38669 1.37114 1.35559 1.34004 1.32449 1.30895 
1.2934 1.27785 1.2623 1.24675 1.2312 1.21565 1.2001 1.18841 1.18755 
1.1867 1.18584 1.18499 1.18414 1.18328 1.18243 1.18157 1.18072 1.17986 
1.17901 1.17816 1.1773 1.17645 1.17559 1.17474 1.17389 1.17303 1.17218 
1.17396 1.19246 1.21096 1.22946 1.24797 1.26647 1.28497 1.30347 1.32198 
1.34048 1.35898 1.37748 1.39599 1.41449 1.43299 1.45149 1.47 1.4885 
1.507 1.5255 1.54401 1.54614 1.54634 1.54654 1.54674 1.54694 1.54713 
1.54733 1.54753 1.54773 1.54793 1.54813 1.54833 1.54853 1.54873 1.54893 
1.54913 1.54933 1.54953 1.54973 1.54992 1.54593 1.53938 1.53283 1.52628 
1.51974 1.51319 1.50664 1.50009 1.49354 1.487 1.48045 1.4739 1.46735 
1.4608 1.45426 1.44771 1.44116 1.43461 1.42807 1.42152 1.41559 1.41085 
1.40611 1.40137 1.39663 1.39189 1.38715 1.3824 1.37766 1.37292 1.36818 
1.36344 1.3587 1.35396 1.34922 1.34448 1.33974 1.335 1.33026 1.32551 
1.3218 1.3316 1.3414 1.3512 1.361 1.3708 1.3806 1.3904 1.4002 
1.41 1.4198 1.4296 1.4394 1.4492 1.459 1.4688 1.4786 1.4884 
1.49819 1.50799 1.51779 1.51326 1.50579 1.49831 1.49084 1.48337 1.4759 
1.46842 1.46095 1.45348 1.44601 1.43853 1.43106 1.42359 1.41612 1.40864 
1.40117 1.3937 1.38623 1.37876 1.37128 1.37282 1.37938 1.38595 1.39251 
1.39907 1.40563 1.41219 1.41875 1.42531 1.43187 1.43843 1.44499 1.45155 
1.45811 1.46467 1.47123 1.47779 1.48435 1.49091 1.49747 1.50404 1.51063 
1.51721 1.52379 1.53038 1.53696 1.54354 1.55013 1.55671 1.56329 1.56988 
1.57646 1.58304 1.58963 1.59621 1.60279 1.60938 1.61596 1.62254 1.62913 
1.63437 1.63114 1.62791 1.62468 1.62145 1.61822 1.61499 1.61176 1.60853 
1.6053 1.60208 1.59885 1.59562 1.59239 1.58916 1.58593 1.5827 1.57947 
1.57624 1.57301 1.56978 1.58229 1.59717 1.61204 1.62692 1.64179 1.65667 
1.67155 1.68642 1.7013 1.71617 1.73105 1.74592 1.7608 1.77567 1.79055 
1.80542 1.8203 1.83517 1.85005 1.86492 1.87867 1.89166 1.90465 1.91765 
1.93064 1.94364 1.95663 1.96962 1.98262 1.99561 2.0086 2.0216 2.03459 
2.04759 2.06058 2.07357 2.08657 2.09956 2.11255 2.12555 2.13481 2.13649 
2.13818 2.13986 2.14154 2.14323 2.14491 2.1466 2.14828 2.14997 2.15165 
2.15334 2.15502 2.15671 2.15839 2.16008 2.16176 2.16344 2.16513 2.16681 
2.16775 2.15666 2.14558 2.13449 2.1234 2.11231 2.10123 2.09014 2.07905 
2.06796 2.05688 2.04579 2.0347 2.02362 2.01253 2.00144 1.99035 1.97927 
1.96818 1.95709 1.946 1.92034 1.89086 1.86137 1.83189 1.8024 1.77292 
1.74344 1.71395 1.68447 1.65498 1.6255 1.59601 1.56653 1.53704 1.50756 
1.47807 1.44859 1.4191 1.38962 1.36014 1.34439 1.34096 1.33754 1.33411 
1.33068 1.32725 1.32382 1.32039 1.31696 1.31354 1.31011 1.30668 1.30325 
1.29982 1.29639 1.29297 1.28954 1.28611 1.28268 1.27925 1.28071 1.30913 
1.33756 1.36598 1.3944 1.42283 1.45125 1.47967 1.5081 1.53652 1.56494 
1.59337 1.62179 1.65021 1.67863 1.70706 1.73548 1.7639 1.79233 1.8204 
1.80884 1.79728 1.78573 1.77417 1.76261 1.75105 1.7395 1.72794 1.71638 
1.70482 1.69327 1.68171 1.67015 1.65859 1.64704 1.63548 1.62392 1.61236 
1.60081 1.58925 1.57782 1.56639 1.55496 1.54353 1.5321 1.52068 1.50925 
1.49782 1.48639 1.47496 1.46353 1.4521 1.44068 1.42925 1.41782 1.40639 
1.39496 1.38353 1.3721 1.36068 1.36053 1.363 1.36547 1.36793 1.3704 
1.37286 1.37533 1.3778 1.38026 1.38273 1.3852 1.38766 1.39013 1.3926 
1.39506 1.39753 1.39999 1.40246 1.40493 1.40739 1.41878 1.43766 1.45654 
1.47542 1.4943 1.51318 1.53206 1.55094 1.56982 1.5887 1.60758 1.62646 
1.64534 1.66422 1.6831 1.70198 1.72086 1.73974 1.75863 1.77751 1.7923 
1.79633 1.80036 1.80439 1.80842 1.81245 1.81648 1.82051 1.82454 1.82857 
1.8326 1.83663 1.84066 1.84469 1.84872 1.85274 1.85677 1.8608 1.86483 
1.86886 1.87283 1.87226 1.87168 1.87111 1.87054 1.86996 1.86939 1.86881 
1.86824 1.86767 1.86709 1.86652 1.86594 1.86537 1.8648 1.86422 1.86365 
1.86307 1.8625 1.86193 1.86135 1.86204 1.8631 1.86416 1.86522 1.86628 
1.86734 1.8684 1.86946 1.87053 1.87159 1.87265 1.87371 1.87477 1.87583 
1.87689 1.87795 1.87902 1.88008 1.88114 1.8822 1.89485 1.91575 1.93665 
1.95755 1.97845 1.99935 2.02025 2.04115 2.06205 2.08295 2.10385 2.12475 
2.14565 2.16655 2.18745 2.20835 2.22925 2.25016 2.27106 2.29196 2.29985 
2.28861 2.27737 2.26613 2.25489 2.24364 2.2324 2.22116 2.20992 2.19868 
2.18744 2.1762 2.16496 2.15371 2.14247 2.13123 2.11999 2.10875 2.09751 
2.08627 2.07702 2.07786 2.0787 2.07954 2.08039 2.08123 2.08207 2.08291 
2.08375 2.08459 2.08544 2.08628 2.08712 2.08796 2.0888 2.08965 2.09049 
2.09133 2.09217 2.09301 2.09385 2.1066 2.12053 2.13446 2.14839 2.16231 
2.17624 2.19017 2.2041 2.21803 2.23195 2.24588 2.25981 2.27374 2.28767 
2.30159 2.31552 2.32945 2.34338 2.35731 2.37123 2.36554 2.34897 2.33239 
2.31582 2.29925 2.28268 2.26611 2.24954 2.23297 2.2164 2.19983 2.18325 
2.16668 2.15011 2.13354 2.11697 2.1004 2.08383 2.06726 2.05069 2.03697 
2.02808 2.01919 2.0103 2.00141 1.99252 1.98362 1.97473 1.96584 1.95695 
1.94806 1.93917 1.93028 1.92138 1.91249 1.9036 1.89471 1.88582 1.87693 
1.86804 1.86009 1.86102 1.86196 1.86289 1.86382 1.86476 1.86569 1.86662 
1.86756 1.86849 1.86942 1.87036 1.87129 1.87222 1.87316 1.87409 1.87503 
1.87596 1.87689 1.87783 1.87876 1.88603 1.89472 1.90341 1.91209 1.92078 
1.92947 1.93816 1.94685 1.95554 1.96423 1.97292 1.98161 1.9903 1.99899 
2.00768 2.01636 2.02505 2.03374 2.04243 2.05112 2.05818 2.06384 2.06951 
2.07518 2.08084 2.08651 2.09218 2.09785 2.10351 2.10918 2.11485 2.12051 
2.12618 2.13185 2.13751 2.14318 2.14885 2.15452 2.16018 2.16585 2.16943 
2.1673 2.16517 2.16304 2.16091 2.15878 2.15665 2.15452 2.15239 2.15026 
2.14813 2.146 2.14387 2.14174 2.13961 2.13748 2.13535 2.13322 2.13109 
2.12896 2.12683 2.11171 2.09655 2.08139 2.06623 2.05107 2.03591 2.02074 
2.00558 1.99042 1.97526 1.9601 1.94494 1.92978 1.91462 1.89946 1.88429 
1.86913 1.85397 1.83881 1.82365 1.81887 1.81798 1.81709 1.8162 1.81531 
1.81442 1.81353 1.81264 1.81175 1.81086 1.80997 1.80908 1.80819 1.8073 
1.80641 1.80552 1.80463 1.80374 1.80285 1.80196 1.81848 1.85519 1.89189 
1.9286 1.9653 2.00201 2.03871 2.07542 2.11213 2.14883 2.18554 2.22224 
2.25895 2.29566 2.33236 2.36907 2.40577 2.44248 2.47919 2.51589 2.54073 
2.51886 2.49698 2.47511 2.45324 2.43137 2.40949 2.38762 2.36575 2.34387 
2.322 2.30013 2.27826 2.25638 2.23451 2.21264 2.19077 2.16889 2.14702 
2.12515 2.10328 2.08205 2.06087 2.03968 2.0185 1.99732 1.97613 1.95495 
1.93376 1.91258 1.89139 1.87021 1.84903 1.82784 1.80666 1.78547 1.76429 
1.7431 1.72192 1.70074 1.67955 1.67068 1.66757 1.66445 1.66134 1.65822 
1.65511 1.652 1.64888 1.64577 1.64266 1.63954 1.63643 1.63332 1.6302 
1.62709 1.62397 1.62086 1.61775 1.61463 1.61152 1.61316 1.62157 1.62998 
1.6384 1.64681 1.65522 1.66363 1.67205 1.68046 1.68887 1.69728 1.70569 
1.71411 1.72252 1.73093 1.73934 1.74776 1.75617 1.76458 1.77299 1.78159 
1.79136 1.80113 1.81089 1.82066 1.83043 1.84019 1.84996 1.85973 1.86949 
1.87926 1.88903 1.89879 1.90856 1.91833 1.92809 1.93786 1.94763 1.95739 
1.96716 1.97693 1.98147 1.98517 1.98888 1.99258 1.99628 1.99999 2.00369 
2.00739 2.01109 2.0148 2.0185 2.0222 2.02591 2.02961 2.03331 2.03702 
2.04072 2.04442 2.04812 2.05183 2.05604 2.06061 2.06519 2.06976 2.07433 
2.07891 2.08348 2.08805 2.09263 2.0972 2.10177 2.10635 2.11092 2.11549 
2.12007 2.12464 2.12921 2.13379 2.13836 2.14293 2.14722 2.15085 2.15449 
2.15812 2.16175 2.16539 2.16902 2.17266 2.17629 2.17992 2.18356 2.18719 
2.19082 2.19446 2.19809 2.20172 2.20536 2.20899 2.21262 2.21626 2.21975 
2.21833 2.21691 2.21549 2.21407 2.21265 2.21123 2.20981 2.20838 2.20696 
2.20554 2.20412 2.2027 2.20128 2.19986 2.19844 2.19702 2.1956 2.19418 
2.19276 2.19133 2.1891 2.18658 2.18407 2.18156 2.17905 2.17653 2.17402 
2.17151 2.169 2.16649 2.16397 2.16146 2.15895 2.15644 2.15393 2.15141 
2.1489 2.14639 2.14388 2.14136 2.13943 2.13814 2.13684 2.13555 2.13426 
2.13296 2.13167 2.13038 2.12908 2.12779 2.1265 2.1252 2.12391 2.12262 
2.12133 2.12003 2.11874 2.11745 2.11615 2.11486 2.11585 2.1262 2.13654 
2.14689 2.15724 2.16759 2.17793 2.18828 2.19863 2.20898 2.21932 2.22967 
2.24002 2.25037 2.26071 2.27106 2.28141 2.29175 2.3021 2.31245 2.3228 
2.33476 2.34685 2.35895 2.37104 2.38314 2.39524 2.40733 2.41943 2.43152 
2.44362 2.45571 2.46781 2.4799 2.492 2.50409 2.51619 2.52828 2.54038 
2.55248 2.56457 2.57449 2.58326 2.59204 2.60082 2.6096 2.61838 2.62716 
2.63594 2.64472 2.6535 2.66228 2.67106 2.67984 2.68862 2.6974 2.70618 
2.71496 2.72374 2.73252 2.7413 2.73502 2.70725 2.67947 2.65169 2.62392 
2.59614 2.56837 2.54059 2.51281 2.48504 2.45726 2.42949 2.40171 2.37393 
2.34616 2.31838 2.29061 2.26283 2.23505 2.20728 2.18327 2.17774 2.17221 
2.16669 2.16116 2.15563 2.1501 2.14457 2.13904 2.13351 2.12798 2.12245 
2.11693 2.1114 2.10587 2.10034 2.09481 2.08928 2.08375 2.07822 2.07269 
2.08491 2.09886 2.11282 2.12677 2.14073 2.15468 2.16864 2.18259 2.19655 
2.2105 2.22446 2.23841 2.25237 2.26632 2.28028 2.29423 2.30819 2.32214 
2.3361 2.35005 2.37993 2.41875 2.45758 2.49641 2.53523 2.57406 2.61288 
2.65171 2.69053 2.72936 2.76818 2.80701 2.84583 2.88466 2.92348 2.96231 
3.00114 3.03996 3.07879 3.11761 3.1399 3.13398 3.12805 3.12213 3.1162 
3.11028 3.10435 3.09843 3.09251 3.08658 3.08066 3.07473 3.06881 3.06288 
3.05696 3.05104 3.04511 3.03919 3.03326 3.02734 3.01975 2.99671 2.97367 
2.95063 2.9276 2.90456 2.88152 2.85848 2.83545 2.81241 2.78937 2.76633 
2.74329 2.72026 2.69722 2.67418 2.65114 2.62811 2.60507 2.58203 2.55899 
2.55167 2.54799 2.54431 2.54063 2.53695 2.53327 2.52959 2.52592 2.52224 
2.51856 2.51488 2.5112 2.50752 2.50385 2.50017 2.49649 2.49281 2.48913 
2.48545 2.48178 2.48 2.48 2.48 2.48 2.48 2.48 2.48 
2.48 2.48 2.48 2.48 2.48 2.48 2.48 2.48 2.48 
2.48 2.48 2.48 2.48 2.48 2.48 2.48 2.48 2.48 
2.48 2.48 2.48 2.48 2.48 2.48 2.48 2.48 2.48 
2.48 2.48 2.48 2.48 2.48 2.48 2.48 
TEXTURE_COORDINATES TCoords 2 float
0 0 0.000784314 0 0.00156863 0 0.00235294 0 0.00313725 
0 0.00392157 0 0.00470588 0 0.0054902 0 0.00627451 0 
0.00705882 0 0.00784314 0 0.00862745 0 0.00941176 0 0.0101961 
0 0.0109804 0 0.0117647 0 0.012549 0 0.0133333 0 
0.0141176 0 0.014902 0 0.0156863 0 0.0164706 0 0.0172549 
0 0.0180392 0 0.0188235 0 0.0196078 0 0.0203922 0 
0.0211765 0 0.0219608 0 0.0227451 0 0.0235294 0 0.0243137 
0 0.025098 0 0.0258824 0 0.0266667 0 0.027451 0 
0.0282353 0 0.0290196 0 0.0298039 0 0.0305882 0 0.0313726 
0 0.0321569 0 0.0329412 0 0.0337255 0 0.0345098 0 
0.0352941 0 0.0360784 0 0.0368627 0 0.0376471 0 0.0384314 
0 0.0392157 0 0.04 0 0.0407843 0 0.0415686 0 
0.0423529 0 0.0431373 0 0.0439216 0 0.0447059 0 0.0454902 
0 0.0462745 0 0.0470588 0 0.0478431 0 0.0486275 0 
0.0494118 0 0.0501961 0 0.0509804 0 0.0517647 0 0.052549 
0 0.0533333 0 0.0541176 0 0.054902 0 0.0556863 0 
0.0564706 0 0.0572549 0 0.0580392 0 0.0588235 0 0.0596078 
0 0.0603922 0 0.0611765 0 0.0619608 0 0.0627451 0 
0.0635294 0 0.0643137 0 0.065098 0 0.0658824 0 0.0666667 
0 0.067451 0 0.0682353 0 0.0690196 0 0.0698039 0 
0.0705882 0 0.0713725 0 0.0721569 0 0.0729412 0 0.0737255 
0 0.0745098 0 0.0752941 0 0.0760784 0 0.0768627 0 
0.0776471 0 0.0784314 0 0.0792157 0 0.08 0 0.0807843 
0 0.0815686 0 0.0823529 0 0.0831373 0 0.0839216 0 
0.0847059 0 0.0854902 0 0.0862745 0 0.0870588 0 0.0878431 
0 0.0886275 0 0.0894118 0 0.0901961 0 0.0909804 0 
0.0917647 0 0.092549 0 0.0933333 0 0.0941176 0 0.094902 
0 0.0956863 0 0.0964706 0 0.0972549 0 0.0980392 0 
0.0988235 0 0.0996078 0 0.100392 0 0.101176 0 0.101961 
0 0.102745 0 0.103529 0 0.104314 0 0.105098 0 
0.105882 0 0.106667 0 0.107451 0 0.108235 0 0.10902 
0 0.109804 0 0.110588 0 0.111373 0 0.112157 0 
0.112941 0 0.113725 0 0.11451 0 0.115294 0 0.116078 
0 0.116863 0 0.117647 0 0.118431 0 0.119216 0 
0.12 0 0.120784 0 0.121569 0 0.122353 0 0.123137 
0 0.123922 0 0.124706 0 0.12549 0 0.126275 0 
0.127059 0 0.127843 0 0.128627 0 0.129412 0 0.130196 
0 0.13098 0 0.131765 0 0.132549 0 0.133333 0 
0.134118 0 0.134902 0 0.135686 0 0.136471 0 0.137255 
0 0.138039 0 0.138824 0 0.139608 0 0.140392 0 
0.141176 0 0.141961 0 0.142745 0 0.143529 0 0.144314 
0 0.145098 0 0.145882 0 0.146667 0 0.147451 0 
0.148235 0 0.14902 0 0.149804 0 0.150588 0 0.151373 
0 0.152157 0 0.152941 0 0.153725 0 0.15451 0 
0.155294 0 0.156078 0 0.156863 0 0.157647 0 0.158431 
0 0.159216 0 0.16 0 0.160784 0 0.161569 0 
0.162353 0 0.163137 0 0.163922 0 0.164706 0 0.16549 
0 0.166275 0 0.167059 0 0.167843 0 0.168627 0 
0.169412 0 0.170196 0 0.17098 0 0.171765 0 0.172549 
0 0.173333 0 0.174118 0 0.174902 0 0.175686 0 
0.176471 0 0.177255 0 0.178039 0 0.178824 0 0.179608 
0 0.180392 0 0.181176 0 0.181961 0 0.182745 0 
0.183529 0 0.184314 0 0.185098 0 0.185882 0 0.186667 
0 0.187451 0 0.188235 0 0.18902 0 0.189804 0 
0.190588 0 0.191373 0 0.192157 0 0.192941 0 0.193725 
0 0.19451 0 0.195294 0 0.196078 0 0.196863 0 
0.197647 0 0.198431 0 0.199216 0 0.2 0 0.200784 
0 0.201569 0 0.202353 0 0.203137 0 0.203922 0 
0.204706 0 0.20549 0 0.206275 0 0.207059 0 0.207843 
0 0.208627 0 0.209412 0 0.210196 0 0.21098 0 
0.211765 0 0.212549 0 0.213333 0 0.214118 0 0.214902 
0 0.215686 0 0.216471 0 0.217255 0 0.218039 0 
0.218824 0 0.219608 0 0.220392 0 0.221176 0 0.221961 
0 0.222745 0 0.223529 0 0.224314 0 0.225098 0 
0.225882 0 0.226667 0 0.227451 0 0.228235 0 0.22902 
0 0.229804 0 0.230588 0 0.231373 0 0.232157 0 
0.232941 0 0.233725 0 0.23451 0 0.235294 0 0.236078 
0 0.236863 0 0.237647 0 0.238431 0 0.239216 0 
0.24 0 0.240784 0 0.241569 0 0.242353 0 0.243137 
0 0.243922 0 0.244706 0 0.24549 0 0.246275 0 
0.247059 0 0.247843 0 0.248627 0 0.249412 0 0.250196 
0 0.25098 0 0.251765 0 0.252549 0 0.253333 0 
0.254118 0 0.254902 0 0.255686 0 0.256471 0 0.257255 
0 0.258039 0 0.258824 0 0.259608 0 0.260392 0 
0.261176 0 0.261961 0 0.262745 0 0.263529 0 0.264314 
0 0.265098 0 0.265882 0 0.266667 0 0.267451 0 
0.268235 0 0.26902 0 0.269804 0 0.270588 0 0.271373 
0 0.272157 0 0.272941 0 0.273725 0 0.27451 0 
0.275294 0 0.276078 0 0.276863 0 0.277647 0 0.278431 
0 0.279216 0 0.28 0 0.280784 0 0.281569 0 
0.282353 0 0.283137 0 0.283922 0 0.284706 0 0.28549 
0 0.286275 0 0.287059 0 0.287843 0 0.288627 0 
0.289412 0 0.290196 0 0.29098 0 0.291765 0 0.292549 
0 0.293333 0 0.294118 0 0.294902 0 0.295686 0 
0.296471 0 0.297255 0 0.298039 0 0.298824 0 0.299608 
0 0.300392 0 0.301176 0 0.301961 0 0.302745 0 
0.303529 0 0.304314 0 0.305098 0 0.305882 0 0.306667 
0 0.307451 0 0.308235 0 0.30902 0 0.309804 0 
0.310588 0 0.311373 0 0.312157 0 0.312941 0 0.313726 
0 0.31451 0 0.315294 0 0.316078 0 0.316863 0 
0.317647 0 0.318431 0 0.319216 0 0.32 0 0.320784 
0 0.321569 0 0.322353 0 0.323137 0 0.323922 0 
0.324706 0 0.32549 0 0.326275 0 0.327059 0 0.327843 
0 0.328627 0 0.329412 0 0.330196 0 0.33098 0 
0.331765 0 0.332549 0 0.333333 0 0.334118 0 0.334902 
0 0.335686 0 0.336471 0 0.337255 0 0.338039 0 
0.338824 0 0.339608 0 0.340392 0 0.341176 0 0.341961 
0 0.342745 0 0.343529 0 0.344314 0 0.345098 0 
0.345882 0 0.346667 0 0.347451 0 0.348235 0 0.34902 
0 0.349804 0 0.350588 0 0.351373 0 0.352157 0 
0.352941 0 0.353725 0 0.35451 0 0.355294 0 0.356078 
0 0.356863 0 0.357647 0 0.358431 0 0.359216 0 
0.36 0 0.360784 0 0.361569 0 0.362353 0 0.363137 
0 0.363922 0 0.364706 0 0.36549 0 0.366275 0 
0.367059 0 0.367843 0 0.368627 0 0.369412 0 0.370196 
0 0.37098 0 0.371765 0 0.372549 0 0.373333 0 
0.374118 0 0.374902 0 0.375686 0 0.376471 0 0.377255 
0 0.378039 0 0.378824 0 0.379608 0 0.380392 0 
0.381176 0 0.381961 0 0.382745 0 0.383529 0 0.384314 
0 0.385098 0 0.385882 0 0.386667 0 0.387451 0 
0.388235 0 0.38902 0 0.389804 0 0.390588 0 0.391373 
0 0.392157 0 0.392941 0 0.393725 0 0.39451 0 
0.395294 0 0.396078 0 0.396863 0 0.397647 0 0.398431 
0 0.399216 0 0.4 0 0.400784 0 0.401569 0 
0.402353 0 0.403137 0 0.403922 0 0.404706 0 0.40549 
0 0.406274 0 0.407059 0 0.407843 0 0.408627 0 
0.409412 0 0.410196 0 0.41098 0 0.411765 0 0.412549 
0 0.413333 0 0.414118 0 0.414902 0 0.415686 0 
0.416471 0 0.417255 0 0.418039 0 0.418824 0 0.419608 
0 0.420392 0 0.421176 0 0.421961 0 0.422745 0 
0.423529 0 0.424314 0 0.425098 0 0.425882 0 0.426667 
0 0.427451 0 0.428235 0 0.42902 0 0.429804 0 
0.430588 0 0.431373 0 0.432157 0 0.432941 0 0.433725 
0 0.43451 0 0.435294 0 0.436078 0 0.436863 0 
0.437647 0 0.438431 0 0.439216 0 0.44 0 0.440784 
0 0.441569 0 0.442353 0 0.443137 0 0.443922 0 
0.444706 0 0.44549 0 0.446275 0 0.447059 0 0.447843 
0 0.448627 0 0.449412 0 0.450196 0 0.45098 0 
0.451765 0 0.452549 0 0.453333 0 0.454118 0 0.454902 
0 0.455686 0 0.456471 0 0.457255 0 0.458039 0 
0.458824 0 0.459608 0 0.460392 0 0.461176 0 0.461961 
0 0.462745 0 0.463529 0 0.464314 0 0.465098 0 
0.465882 0 0.466667 0 0.467451 0 0.468235 0 0.46902 
0 0.469804 0 0.470588 0 0.471373 0 0.472157 0 
0.472941 0 0.473725 0 0.47451 0 0.475294 0 0.476078 
0 0.476863 0 0.477647 0 0.478431 0 0.479216 0 
0.48 0 0.480784 0 0.481569 0 0.482353 0 0.483137 
0 0.483922 0 0.484706 0 0.48549 0 0.486275 0 
0.487059 0 0.487843 0 0.488627 0 0.489412 0 0.490196 
0 0.49098 0 0.491765 0 0.492549 0 0.493333 0 
0.494118 0 0.494902 0 0.495686 0 0.496471 0 0.497255 
0 0.498039 0 0.498824 0 0.499608 0 0.500392 0 
0.501176 0 0.501961 0 0.502745 0 0.503529 0 0.504314 
0 0.505098 0 0.505882 0 0.506667 0 0.507451 0 
0.508235 0 0.50902 0 0.509804 0 0.510588 0 0.511373 
0 0.512157 0 0.512941 0 0.513726 0 0.51451 0 
0.515294 0 0.516078 0 0.516863 0 0.517647 0 0.518431 
0 0.519216 0 0.52 0 0.520784 0 0.521569 0 
0.522353 0 0.523137 0 0.523922 0 0.524706 0 0.52549 
0 0.526275 0 0.527059 0 0.527843 0 0.528627 0 
0.529412 0 0.530196 0 0.53098 0 0.531765 0 0.532549 
0 0.533333 0 0.534118 0 0.534902 0 0.535686 0 
0.536471 0 0.537255 0 0.538039 0 0.538824 0 0.539608 
0 0.540392 0 0.541176 0 0.541961 0 0.542745 0 
0.543529 0 0.544314 0 0.545098 0 0.545882 0 0.546667 
0 0.547451 0 0.548235 0 0.54902 0 0.549804 0 
0.550588 0 0.551373 0 0.552157 0 0.552941 0 0.553725 
0 0.55451 0 0.555294 0 0.556078 0 0.556863 0 
0.557647 0 0.558431 0 0.559216 0 0.56 0 0.560784 
0 0.561569 0 0.562353 0 0.563137 0 0.563922 0 
0.564706 0 0.56549 0 0.566275 0 0.567059 0 0.567843 
0 0.568627 0 0.569412 0 0.570196 0 0.57098 0 
0.571765 0 0.572549 0 0.573333 0 0.574118 0 0.574902 
0 0.575686 0 0.576471 0 0.577255 0 0.578039 0 
0.578824 0 0.579608 0 0.580392 0 0.581176 0 0.581961 
0 0.582745 0 0.583529 0 0.584314 0 0.585098 0 
0.585882 0 0.586667 0 0.587451 0 0.588235 0 0.58902 
0 0.589804 0 0.590588 0 0.591373 0 0.592157 0 
0.592941 0 0.593726 0 0.59451 0 0.595294 0 0.596078 
0 0.596863 0 0.597647 0 0.598431 0 0.599216 0 
0.6 0 0.600784 0 0.601569 0 0.602353 0 0.603137 
0 0.603922 0 0.604706 0 0.60549 0 0.606274 0 
0.607059 0 0.607843 0 0.608627 0 0.609412 0 0.610196 
0 0.61098 0 0.611765 0 0.612549 0 0.613333 0 
0.614118 0 0.614902 0 0.615686 0 0.616471 0 0.617255 
0 0.618039 0 0.618824 0 0.619608 0 0.620392 0 
0.621176 0 0.621961 0 0.622745 0 0.623529 0 0.624314 
0 0.625098 0 0.625882 0 0.626667 0 0.627451 0 
0.628235 0 0.62902 0 0.629804 0 0.630588 0 0.631373 
0 0.632157 0 0.632941 0 0.633725 0 0.63451 0 
0.635294 0 0.636078 0 0.636863 0 0.637647 0 0.638431 
0 0.639216 0 0.64 0 0.640784 0 0.641569 0 
0.642353 0 0.643137 0 0.643922 0 0.644706 0 0.64549 
0 0.646275 0 0.647059 0 0.647843 0 0.648627 0 
0.649412 0 0.650196 0 0.65098 0 0.651765 0 0.652549 
0 0.653333 0 0.654118 0 0.654902 0 0.655686 0 
0.656471 0 0.657255 0 0.658039 0 0.658824 0 0.659608 
0 0.660392 0 0.661176 0 0.661961 0 0.662745 0 
0.663529 0 0.664314 0 0.665098 0 0.665882 0 0.666667 
0 0.667451 0 0.668235 0 0.66902 0 0.669804 0 
0.670588 0 0.671373 0 0.672157 0 0.672941 0 0.673725 
0 0.67451 0 0.675294 0 0.676078 0 0.676863 0 