# vtk DataFile Version 4.2
vtk output
ASCII
DATASET POLYDATA
POINTS 1278 float
0 0 0 -0.00302785 0.00180963 0.00208207 -0.0118732 0.00707332 0.00814376 
-0.0261787 0.0155433 0.0179083 -0.0455871 0.0269718 0.031099 -0.0697409 0.041111 0.047439 
-0.098283 0.0577132 0.0666516 -0.130856 0.0765306 0.0884601 -0.167103 0.0973153 0.112588 
-0.206665 0.11982 0.138757 -0.249187 0.143796 0.166693 -0.29431 0.168996 0.196117 
-0.341678 0.195173 0.226753 -0.390932 0.222078 0.258325 -0.441716 0.249464 0.290555 
-0.493673 0.277082 0.323167 -0.546444 0.304686 0.355883 -0.599674 0.332028 0.388429 
-0.653003 0.358859 0.420525 -0.706075 0.384931 0.451896 -0.758534 0.409998 0.482266 
-0.81002 0.433811 0.511356 -0.860279 0.45619 0.538968 -0.909355 0.477156 0.565133 
-0.95735 0.496766 0.589926 -1.00437 0.515078 0.61342 -1.0505 0.532152 0.635689 
-1.09586 0.548044 0.656809 -1.14055 0.562813 0.676852 -1.18466 0.576517 0.695894 
-1.22829 0.589214 0.714009 -1.27156 0.600962 0.73127 -1.31456 0.61182 0.747752 
-1.35739 0.621844 0.76353 -1.40015 0.631094 0.778677 -1.44295 0.639628 0.793268 
-1.48588 0.647503 0.807377 -1.52905 0.654778 0.821078 -1.57256 0.66151 0.834445 
-1.61651 0.667759 0.847554 -1.66101 0.673581 0.860477 -1.70614 0.679032 0.873285 
-1.75192 0.684117 0.885995 -1.79832 0.688808 0.898585 -1.84528 0.693075 0.911029 
-1.89276 0.696886 0.923304 -1.94072 0.700214 0.935386 -1.98912 0.703026 0.947251 
-2.0379 0.705294 0.958876 -2.08703 0.706988 0.970236 -2.13646 0.708076 0.981307 
-2.18614 0.70853 0.992067 -2.23604 0.708318 1.00249 -2.28611 0.707412 1.01255 
-2.3363 0.705781 1.02223 -2.38657 0.703394 1.0315 -2.43688 0.700223 1.04034 
-2.48717 0.696236 1.04872 -2.53742 0.691404 1.05663 -2.58757 0.685697 1.06403 
-2.63757 0.679084 1.0709 -2.68739 0.671537 1.07722 -2.73699 0.663038 1.08298 
-2.78637 0.653607 1.08819 -2.83551 0.643269 1.09289 -2.88444 0.632045 1.09709 
-2.93313 0.619959 1.10082 -2.98158 0.607036 1.1041 -3.0298 0.593299 1.10695 
-3.07779 0.578771 1.1094 -3.12553 0.563476 1.11147 -3.17304 0.547437 1.11319 
-3.2203 0.530679 1.11458 -3.26731 0.513223 1.11566 -3.31408 0.495095 1.11646 
-3.3606 0.476318 1.11699 -3.40686 0.456914 1.11729 -3.45287 0.436909 1.11738 
-3.49863 0.416324 1.11727 -3.54413 0.395185 1.117 -3.58936 0.373514 1.11659 
-3.63434 0.351335 1.11606 -3.67905 0.328669 1.11543 -3.7235 0.30553 1.11471 
-3.76769 0.281928 1.11392 -3.81162 0.257874 1.11306 -3.8553 0.233378 1.11213 
-3.89872 0.20845 1.11116 -3.9419 0.183101 1.11014 -3.98483 0.157342 1.10908 
-4.02751 0.131182 1.108 -4.06996 0.104633 1.1069 -4.11217 0.0777053 1.1058 
-4.15414 0.0504085 1.10469 -4.19587 0.0227536 1.10359 -4.23738 -0.00524902 1.10251 
-4.27866 -0.0335889 1.10145 -4.31971 -0.0622555 1.10043 -4.36054 -0.0912383 1.09944 
-4.40115 -0.120527 1.09851 -4.44155 -0.150111 1.09764 -4.48172 -0.17998 1.09684 
-4.52169 -0.210123 1.09611 -4.56144 -0.240532 1.09547 -4.601 -0.271199 1.09491 
-4.64035 -0.302116 1.09445 -4.67951 -0.333275 1.09408 -4.71848 -0.364667 1.09381 
-4.75727 -0.396287 1.09366 -4.79588 -0.428124 1.09361 -4.83431 -0.460172 1.09368 
-4.87257 -0.492423 1.09387 -4.91066 -0.524869 1.09419 -4.9486 -0.557501 1.09464 
-4.98638 -0.590313 1.09522 -5.024 -0.623296 1.09595 -5.06148 -0.656442 1.09682 
-5.09882 -0.689743 1.09784 -5.13603 -0.723192 1.09902 -5.1731 -0.756781 1.10036 
-5.21004 -0.790502 1.10186 -5.24686 -0.824346 1.10353 -5.28356 -0.858307 1.10538 
-5.32015 -0.892377 1.1074 -5.35662 -0.926552 1.1096 -5.39299 -0.960828 1.11198 
-5.42926 -0.9952 1.11453 -5.46542 -1.02966 1.11726 -5.50149 -1.06421 1.12016 
-5.53747 -1.09885 1.12323 -5.57335 -1.13356 1.12647 -5.60914 -1.16835 1.12989 
-5.64486 -1.2032 1.13347 -5.68049 -1.23812 1.13723 -5.71604 -1.2731 1.14116 
-5.75152 -1.30814 1.14525 -5.78693 -1.34322 1.14951 -5.82227 -1.37836 1.15394 
-5.85754 -1.41353 1.15853 -5.89276 -1.44875 1.16329 -5.92791 -1.484 1.16821 
-5.96302 -1.51927 1.1733 -5.99807 -1.55458 1.17855 -6.03307 -1.5899 1.18396 
-6.06803 -1.62524 1.18953 -6.10294 -1.6606 1.19525 -6.13782 -1.69597 1.20111 
-6.17266 -1.73135 1.20711 -6.20746 -1.76675 1.21325 -6.24224 -1.80215 1.21951 
-6.27698 -1.83756 1.2259 -6.3117 -1.87298 1.2324 -6.34639 -1.9084 1.23902 
-6.38107 -1.94382 1.24574 -6.41572 -1.97924 1.25256 -6.45036 -2.01465 1.25948 
-6.48499 -2.05006 1.26648 -6.51961 -2.08547 1.27357 -6.55422 -2.12086 1.28074 
-6.58883 -2.15625 1.28798 -6.62344 -2.19162 1.29528 -6.65805 -2.22698 1.30265 
-6.69266 -2.26232 1.31007 -6.72728 -2.29764 1.31754 -6.7619 -2.33295 1.32506 
-6.79654 -2.36823 1.3326 -6.83119 -2.40351 1.34017 -6.86584 -2.43876 1.34776 
-6.90052 -2.474 1.35535 -6.9352 -2.50923 1.36294 -6.9699 -2.54444 1.37052 
-7.00462 -2.57964 1.37808 -7.03936 -2.61483 1.38561 -7.07412 -2.65 1.3931 
-7.10889 -2.68517 1.40054 -7.14369 -2.72033 1.40793 -7.17851 -2.75547 1.41525 
-7.21336 -2.79061 1.4225 -7.24823 -2.82575 1.42966 -7.28313 -2.86087 1.43674 
-7.31805 -2.89599 1.44371 -7.35301 -2.93111 1.45058 -7.38799 -2.96622 1.45732 
-7.42301 -3.00133 1.46394 -7.45806 -3.03644 1.47043 -7.49313 -3.07155 1.47676 
-7.52824 -3.10665 1.48292 -7.56338 -3.14176 1.48891 -7.59855 -3.17688 1.49472 
-7.63374 -3.21199 1.50031 -7.66896 -3.24712 1.5057 -7.7042 -3.28225 1.51085 
-7.73947 -3.3174 1.51576 -7.77476 -3.35255 1.52042 -7.81007 -3.38772 1.52481 
-7.8454 -3.4229 1.52893 -7.88076 -3.4581 1.53274 -7.91613 -3.49332 1.53626 
-7.95152 -3.52855 1.53945 -7.98693 -3.56381 1.54231 -8.02235 -3.59908 1.54483 
-8.05779 -3.63438 1.54699 -8.09325 -3.66971 1.54878 -8.12871 -3.70506 1.55019 
-8.16419 -3.74043 1.5512 -8.19967 -3.77584 1.55179 -8.23514 -3.81127 1.55196 
-8.27059 -3.84673 1.55168 -8.30601 -3.88221 1.55094 -8.3414 -3.91771 1.54973 
-8.37673 -3.95324 1.54802 -8.41201 -3.98879 1.54581 -8.44723 -4.02436 1.54307 
-8.48236 -4.05996 1.53979 -8.51741 -4.09558 1.53596 -8.55236 -4.13121 1.53156 
-8.58721 -4.16687 1.52656 -8.62194 -4.20255 1.52097 -8.65654 -4.23824 1.51475 
-8.69102 -4.27395 1.50791 -8.72534 -4.30968 1.50041 -8.75951 -4.34543 1.49224 
-8.79352 -4.38119 1.48339 -8.82736 -4.41697 1.47385 -8.86101 -4.45276 1.46359 
-8.89445 -4.48857 1.45262 -8.92768 -4.52438 1.44094 -8.96067 -4.56019 1.42854 
-8.99341 -4.596 1.41543 -9.02587 -4.6318 1.4016 -9.05803 -4.66759 1.38707 
-9.08989 -4.70337 1.37182 -9.12142 -4.73913 1.35586 -9.15259 -4.77486 1.33919 
-9.1834 -4.81056 1.32181 -9.21383 -4.84623 1.30372 -9.24385 -4.88186 1.28492 
-9.27346 -4.91746 1.26541 -9.30262 -4.953 1.24519 -9.33133 -4.9885 1.22426 
-9.35956 -5.02394 1.20262 -9.38729 -5.05932 1.18028 -9.41451 -5.09463 1.15722 
-9.4412 -5.12988 1.13346 -9.46735 -5.16506 1.109 -9.49293 -5.20017 1.08384 
-9.51795 -5.23519 1.058 -9.54239 -5.27014 1.0315 -9.56626 -5.30501 1.00437 
-9.58954 -5.3398 0.976608 -9.61222 -5.3745 0.948245 -9.63431 -5.40912 0.919296 
-9.65579 -5.44366 0.889777 -9.67666 -5.4781 0.859707 -9.69691 -5.51246 0.829104 
-9.71653 -5.54672 0.797986 -9.73552 -5.58089 0.766371 -9.75387 -5.61497 0.734276 
-9.77158 -5.64895 0.701719 -9.78863 -5.68283 0.668718 -9.80502 -5.71661 0.635292 
-9.82074 -5.75029 0.601458 -9.83579 -5.78386 0.567233 -9.85016 -5.81733 0.532636 
-9.86385 -5.85069 0.497685 -9.87685 -5.88395 0.462395 -9.88916 -5.9171 0.426781 
-9.9008 -5.95014 0.390855 -9.91176 -5.98308 0.354633 -9.92206 -6.01592 0.318126 
-9.93169 -6.04865 0.28135 -9.94066 -6.08128 0.244318 -9.94898 -6.11381 0.207043 
-9.95665 -6.14624 0.169539 -9.96368 -6.17856 0.131821 -9.97007 -6.21079 0.0939011 
-9.97582 -6.24292 0.0557939 -9.98094 -6.27496 0.0175128 -9.98544 -6.30689 -0.0209283 
-9.98932 -6.33874 -0.0595157 -9.99258 -6.37048 -0.0982358 -9.99524 -6.40214 -0.137075 
-9.99729 -6.4337 -0.176019 -9.99874 -6.46516 -0.215055 -9.99959 -6.49654 -0.254168 
-9.99985 -6.52782 -0.293348 -9.99953 -6.55902 -0.332586 -9.99863 -6.59013 -0.371875 
-9.99716 -6.62115 -0.41121 -9.99513 -6.65208 -0.450582 -9.99254 -6.68293 -0.489986 
-9.9894 -6.71369 -0.529414 -9.98571 -6.74437 -0.568859 -9.98149 -6.77497 -0.608315 
-9.97674 -6.80549 -0.647774 -9.97146 -6.83592 -0.68723 -9.96566 -6.86628 -0.726676 
-9.95936 -6.89656 -0.766105 -9.95254 -6.92676 -0.805511 -9.94524 -6.95688 -0.844885 
-9.93743 -6.98693 -0.884222 -9.92915 -7.01691 -0.923515 -9.92038 -7.04681 -0.962756 
-9.91115 -7.07664 -1.00194 -9.90145 -7.1064 -1.04106 -9.89129 -7.13608 -1.0801 
-9.88068 -7.1657 -1.11908 -9.86962 -7.19525 -1.15797 -9.85811 -7.22473 -1.19678 
-9.84617 -7.25415 -1.23551 -9.83381 -7.2835 -1.27415 -9.82101 -7.31278 -1.3127 
-9.80779 -7.342 -1.35115 -9.79416 -7.37116 -1.38951 -9.78012 -7.40026 -1.42777 
-9.76568 -7.42929 -1.46592 -9.75083 -7.45826 -1.50397 -9.7356 -7.48718 -1.54191 
-9.71997 -7.51604 -1.57974 -9.70397 -7.54483 -1.61745 -9.68758 -7.57358 -1.65504 
-9.67083 -7.60226 -1.69251 -9.6537 -7.63089 -1.72986 -9.63622 -7.65947 -1.76708 
-9.61839 -7.68799 -1.80417 -9.6002 -7.71646 -1.84112 -9.58167 -7.74488 -1.87794 
-9.56279 -7.77325 -1.91462 -9.54358 -7.80158 -1.95116 -9.52404 -7.82985 -1.98755 
-9.50416 -7.85807 -2.02381 -9.48396 -7.88625 -2.05992 -9.46344 -7.91439 -2.09588 
-9.44261 -7.94247 -2.13169 -9.42146 -7.97052 -2.16736 -9.39999 -7.99853 -2.20287 
-9.37823 -8.02649 -2.23822 -9.35616 -8.05441 -2.27343 -9.3338 -8.08229 -2.30847 
-9.31114 -8.11014 -2.34335 -9.2882 -8.13795 -2.37808 -9.26497 -8.16572 -2.41264 
-9.24146 -8.19345 -2.44703 -9.21767 -8.22116 -2.48126 -9.1936 -8.24883 -2.51532 
-9.16927 -8.27646 -2.54921 -9.14468 -8.30407 -2.58293 -9.11982 -8.33164 -2.61648 
-9.0947 -8.35919 -2.64985 -9.06932 -8.38671 -2.68305 -9.04369 -8.4142 -2.71608 
-9.01781 -8.44166 -2.74893 -8.99168 -8.4691 -2.78161 -8.96531 -8.49652 -2.81411 
-8.9387 -8.52392 -2.84644 -8.91184 -8.55129 -2.87859 -8.88475 -8.57864 -2.91056 
-8.85743 -8.60598 -2.94235 -8.82987 -8.6333 -2.97396 -8.80209 -8.66059 -3.00539 
-8.77409 -8.68788 -3.03665 -8.74586 -8.71515 -3.06772 -8.71742 -8.7424 -3.09861 
-8.68876 -8.76965 -3.12931 -8.65988 -8.79688 -3.15984 -8.6308 -8.8241 -3.19018 
-8.60151 -8.85131 -3.22033 -8.57202 -8.87852 -3.2503 -8.54232 -8.90572 -3.28006 
[...]
CELL_DATA 1
FIELD FieldData 2
Length 1 1 double
63.874401743 
Tortuosity 1 1 double
0.80732278949 
POINT_DATA 1278
SCALARS MaximumInscribedSphereRadius float
LOOKUP_TABLE default
1.64 1.64 1.64 1.64 1.64 1.64 1.64 1.64 1.64 
1.64 1.64 1.64 1.64 1.64 1.64 1.64 1.64 1.64 
1.64 1.64 1.64 1.63938 1.63303 1.62668 1.62033 1.61399 1.60764 
1.60129 1.59494 1.58859 1.58224 1.57589 1.56954 1.5632 1.55685 1.5505 
1.54415 1.5378 1.53145 1.5251 1.51876 1.50197 1.47873 1.45549 1.43225 
1.40901 1.38577 1.36253 1.33929 1.31605 1.2928 1.26956 1.24632 1.22308 
1.19984 1.1766 1.15336 1.13012 1.10688 1.08364 1.0604 1.04115 1.03962 
1.03809 1.03656 1.03503 1.0335 1.03196 1.03043 1.0289 1.02737 1.02584 
1.02431 1.02278 1.02125 1.01972 1.01819 1.01666 1.01513 1.0136 1.01207 
1.01053 1.02563 1.04159 1.05754 1.07349 1.08944 1.1054 1.12135 1.1373 
1.15326 1.16921 1.18516 1.20112 1.21707 1.23302 1.24897 1.26493 1.28088 
1.29683 1.31279 1.32874 1.35154 1.3777 1.40387 1.43003 1.45619 1.48236 
1.50852 1.53468 1.56085 1.58701 1.61317 1.63934 1.6655 1.69166 1.71783 
1.74399 1.77015 1.79632 1.82248 1.84864 1.87117 1.88799 1.90481 1.92162 
1.93844 1.95525 1.97207 1.98888 2.0057 2.02252 2.03933 2.05615 2.07296 
2.08978 2.1066 2.12341 2.14023 2.15704 2.17386 2.19067 2.2062 2.2108 
2.21539 2.21998 2.22458 2.22917 2.23376 2.23836 2.24295 2.24755 2.25214 
2.25673 2.26133 2.26592 2.27051 2.27511 2.2797 2.28429 2.28889 2.29348 
2.29807 2.28913 2.27722 2.26531 2.2534 2.2415 2.22959 2.21768 2.20577 
2.19386 2.18195 2.17004 2.15813 2.14622 2.13432 2.12241 2.1105 2.09859 
2.08668 2.07477 2.06286 2.04911 2.03376 2.01841 2.00306 1.98771 1.97236 
1.957 1.94165 1.9263 1.91095 1.8956 1.88025 1.8649 1.84955 1.8342 
1.81884 1.80349 1.78814 1.77279 1.75744 1.74363 1.73443 1.72522 1.71602 
1.70681 1.69761 1.6884 1.6792 1.66999 1.66078 1.65158 1.64237 1.63317 
1.62396 1.61476 1.60555 1.59635 1.58714 1.57793 1.56873 1.55952 1.5639 
1.56858 1.57325 1.57793 1.58261 1.58729 1.59197 1.59665 1.60133 1.60601 
1.61069 1.61537 1.62005 1.62473 1.62941 1.63408 1.63876 1.64344 1.64812 
1.6528 1.66153 1.67177 1.68202 1.69226 1.7025 1.71275 1.72299 1.73324 
1.74348 1.75373 1.76397 1.77422 1.78446 1.79471 1.80495 1.81519 1.82544 
1.83568 1.84593 1.85617 1.86771 1.8807 1.89368 1.90666 1.91964 1.93262 
1.94561 1.95859 1.97157 1.98455 1.99754 2.01052 2.0235 2.03648 2.04947 
2.06245 2.07543 2.08841 2.1014 2.11438 2.12937 2.15211 2.17485 2.1976 
2.22034 2.24308 2.26582 2.28856 2.3113 2.33404 2.35678 2.37952 2.40226 
2.425 2.44774 2.47048 2.49322 2.51596 2.5387 2.56144 2.58418 2.59029 
2.59519 2.6001 2.605 2.60991 2.61481 2.61971 2.62462 2.62952 2.63443 
2.63933 2.64424 2.64914 2.65405 2.65895 2.66386 2.66876 2.67367 2.67857 
2.68348 2.67162 2.65094 2.63026 2.60957 2.58889 2.56821 2.54753 2.52684 
2.50616 2.48548 2.4648 2.44412 2.42343 2.40275 2.38207 2.36139 2.3407 
2.32002 2.29934 2.27866 2.26428 2.26042 2.25656 2.2527 2.24884 2.24498 
2.24112 2.23726 2.23339 2.22953 2.22567 2.22181 2.21795 2.21409 2.21023 
2.20637 2.20251 2.19865 2.19479 2.19093 2.18816 2.19622 2.20428 2.21234 
2.2204 2.22846 2.23651 2.24457 2.25263 2.26069 2.26875 2.27681 2.28486 
2.29292 2.30098 2.30904 2.3171 2.32516 2.33322 2.34127 2.34933 2.35911 
2.36929 2.37947 2.38965 2.39983 2.41001 2.42019 2.43036 2.44054 2.45072 
2.4609 2.47108 2.48126 2.49144 2.50161 2.51179 2.52197 2.53215 2.54233 
2.55251 2.56201 2.57094 2.57987 2.58881 2.59774 2.60667 2.6156 2.62454 
2.63347 2.6424 2.65134 2.66027 2.6692 2.67813 2.68707 2.696 2.70493 
2.71386 2.7228 2.73173 2.7386 2.73158 2.72456 2.71754 2.71052 2.7035 
2.69647 2.68945 2.68243 2.67541 2.66839 2.66137 2.65435 2.64732 2.6403 
2.63328 2.62626 2.61924 2.61222 2.6052 2.60098 2.60085 2.60073 2.60061 
2.60048 2.60036 2.60023 2.60011 2.59998 2.59986 2.59973 2.59961 2.59948 
2.59936 2.59924 2.59911 2.59899 2.59886 2.59874 2.59861 2.60598 2.6346 
2.66322 2.69184 2.72047 2.74909 2.77771 2.80633 2.83496 2.86358 2.8922 
2.92083 2.94945 2.97807 3.00669 3.03532 3.06394 3.09256 3.12118 3.14981 
3.17843 3.16507 3.14926 3.13344 3.11763 3.10182 3.086 3.07019 3.05437 
3.03856 3.02275 3.00693 2.99112 2.97531 2.95949 2.94368 2.92787 2.91205 
2.89624 2.88043 2.86461 2.84984 2.8356 2.82137 2.80713 2.79289 2.77866 
2.76442 2.75018 2.73595 2.72171 2.70747 2.69324 2.679 2.66477 2.65053 
2.63629 2.62206 2.60782 2.59358 2.57935 2.57366 2.58214 2.59063 2.59911 
2.60759 2.61607 2.62455 2.63303 2.64151 2.65 2.65848 2.66696 2.67544 
2.68392 2.6924 2.70088 2.70936 2.71785 2.72633 2.73481 2.74364 2.75596 
2.76829 2.78061 2.79294 2.80526 2.81759 2.82991 2.84224 2.85456 2.86689 
2.87921 2.89154 2.90386 2.91619 2.92851 2.94084 2.95316 2.96549 2.97781 
2.99014 3.00259 3.01506 3.02754 3.04001 3.05249 3.06496 3.07744 3.08991 
3.10239 3.11486 3.12734 3.13981 3.15229 3.16476 3.17724 3.18971 3.20219 
3.21466 3.22713 3.23961 3.2336 3.2111 3.1886 3.16611 3.14361 3.12111 
3.09862 3.07612 3.05362 3.03112 3.00863 2.98613 2.96363 2.94114 2.91864 
2.89614 2.87365 2.85115 2.82865 2.80615 2.78672 2.77621 2.7657 2.7552 
2.74469 2.73418 2.72367 2.71317 2.70266 2.69215 2.68164 2.67114 2.66063 
2.65012 2.63961 2.62911 2.6186 2.60809 2.59758 2.58708 2.57657 2.58456 
2.59297 2.60137 2.60978 2.61819 2.62659 2.635 2.6434 2.65181 2.66021 
2.66862 2.67703 2.68543 2.69384 2.70224 2.71065 2.71905 2.72746 2.73587 
2.74427 2.73564 2.71958 2.70353 2.68748 2.67143 2.65538 2.63933 2.62328 
2.60723 2.59118 2.57513 2.55908 2.54303 2.52698 2.51093 2.49488 2.47883 
2.46278 2.44673 2.43067 2.41493 2.3996 2.38428 2.36896 2.35363 2.33831 
2.32299 2.30767 2.29234 2.27702 2.2617 2.24637 2.23105 2.21573 2.2004 
2.18508 2.16976 2.15444 2.13911 2.12379 2.11194 2.12336 2.13478 2.14619 
2.15761 2.16902 2.18044 2.19186 2.20327 2.21469 2.2261 2.23752 2.24893 
2.26035 2.27177 2.28318 2.2946 2.30601 2.31743 2.32885 2.34026 2.34694 
2.35276 2.35857 2.36439 2.37021 2.37602 2.38184 2.38766 2.39347 2.39929 
2.40511 2.41092 2.41674 2.42256 2.42837 2.43419 2.44001 2.44582 2.45164 
2.45746 2.46073 2.46202 2.46331 2.46459 2.46588 2.46717 2.46846 2.46975 
2.47104 2.47233 2.47362 2.47491 2.4762 2.47749 2.47878 2.48007 2.48136 
2.48265 2.48394 2.48523 2.4888 2.49825 2.50769 2.51714 2.52659 2.53604 
2.54549 2.55494 2.56439 2.57384 2.58329 2.59274 2.60219 2.61164 2.62109 
2.63054 2.63999 2.64944 2.65889 2.66834 2.67778 2.68162 2.68544 2.68926 
2.69309 2.69691 2.70073 2.70455 2.70838 2.7122 2.71602 2.71985 2.72367 
2.72749 2.73131 2.73514 2.73896 2.74278 2.74661 2.75043 2.75425 2.73856 
2.71521 2.69186 2.6685 2.64515 2.6218 2.59844 2.57509 2.55174 2.52838 
2.50503 2.48168 2.45832 2.43497 2.41162 2.38826 2.36491 2.34156 2.3182 
2.29485 2.27672 2.2653 2.25387 2.24244 2.23102 2.21959 2.20817 2.19674 
2.18531 2.17389 2.16246 2.15103 2.13961 2.12818 2.11676 2.10533 2.0939 
2.08248 2.07105 2.05962 2.05043 2.05319 2.05594 2.05869 2.06144 2.06419 
2.06694 2.0697 2.07245 2.0752 2.07795 2.0807 2.08346 2.08621 2.08896 
2.09171 2.09446 2.09721 2.09997 2.10272 2.10547 2.12038 2.137 2.15362 
2.17025 2.18687 2.20349 2.22011 2.23674 2.25336 2.26998 2.28661 2.30323 
2.31985 2.33647 2.3531 2.36972 2.38634 2.40296 2.41959 2.43621 2.45451 
2.47396 2.4934 2.51284 2.53229 2.55173 2.57118 2.59062 2.61007 2.62951 
2.64896 2.6684 2.68785 2.70729 2.72674 2.74618 2.76562 2.78507 2.80451 
2.82396 2.84126 2.85388 2.86651 2.87913 2.89175 2.90438 2.917 2.92963 
2.94225 2.95488 2.9675 2.98012 2.99275 3.00537 3.018 3.03062 3.04324 
3.05587 3.06849 3.08112 3.09288 3.07912 3.06537 3.05161 3.03785 3.02409 
3.01033 2.99657 2.98282 2.96906 2.9553 2.94154 2.92778 2.91402 2.90026 
2.88651 2.87275 2.85899 2.84523 2.83147 2.81771 2.79094 2.75983 2.72871 
2.6976 2.66648 2.63537 2.60425 2.57314 2.54202 2.51091 2.47979 2.44868 
2.41756 2.38645 2.35533 2.32421 2.2931 2.26198 2.23087 2.19975 2.18007 
2.1735 2.16694 2.16038 2.15382 2.14725 2.14069 2.13413 2.12757 2.12101 
2.11444 2.10788 2.10132 2.09476 2.08819 2.08163 2.07507 2.06851 2.06195 
2.05538 2.05056 2.05367 2.05678 2.05989 2.063 2.06611 2.06922 2.07232 
2.07543 2.07854 2.08165 2.08476 2.08787 2.09098 2.09409 2.0972 2.10031 
2.10342 2.10653 2.10964 2.11275 2.12357 2.13531 2.14705 2.15878 2.17052 
2.18226 2.194 2.20574 2.21748 2.22922 2.24096 2.2527 2.26443 2.27617 
2.28791 2.29965 2.31139 2.32313 2.33487 2.34661 2.35834 2.37008 2.38181 
2.39355 2.40528 2.41702 2.42876 2.44049 2.45223 2.46396 2.4757 2.48743 
2.49917 2.5109 2.52264 2.53437 2.54611 2.55784 2.56958 2.58131 2.59323 
2.60555 2.61786 2.63017 2.64248 2.65479 2.6671 2.67941 2.69172 2.70403 
2.71634 2.72866 2.74097 2.75328 2.76559 2.7779 2.79021 2.80252 2.81483 
2.82714 2.83984 2.86167 2.88349 2.90532 2.92714 2.94897 2.97079 2.99261 
3.01444 3.03626 3.05809 3.07991 3.10173 3.12356 3.14538 3.16721 3.18903 
3.21086 3.23268 3.2545 3.27633 3.29488 3.3124 3.32992 3.34744 3.36497 
3.38249 3.40001 3.41753 3.43505 3.45257 3.47009 3.48762 3.50514 3.52266 
3.54018 3.5577 3.57522 3.59274 3.61026 3.62779 3.63169 3.62102 3.61035 
3.59969 3.58902 3.57835 3.56769 3.55702 3.54635 3.53569 3.52502 3.51435 
3.50369 3.49302 3.48235 3.47169 3.46102 3.45035 3.43969 3.42902 3.4221 
3.42906 3.43602 3.44298 3.44994 3.45689 3.46385 3.47081 3.47777 3.48473 
3.49169 3.49865 3.50561 3.51257 3.51953 3.52649 3.53345 3.54041 3.54737 
3.55433 3.56128 3.56376 3.56599 3.56823 3.57047 3.57271 3.57494 3.57718 
3.57942 3.58166 3.5839 3.58613 3.58837 3.59061 3.59285 3.59508 3.59732 
3.59956 3.6018 3.60403 3.60627 3.58791 3.56022 3.53252 3.50483 3.47713 
3.44943 3.42174 3.39404 3.36635 3.33865 3.31096 3.28326 3.25556 3.22787 
3.20017 3.17248 3.14478 3.11708 3.08939 3.06169 3.04573 3.04619 3.04665 
3.04711 3.04757 3.04803 3.04849 3.04894 3.0494 3.04986 3.05032 3.05078 
3.05124 3.0517 3.05216 3.05262 3.05307 3.05353 3.05399 3.05445 3.05575 
3.06256 3.06938 3.07619 3.08301 3.08982 3.09663 3.10345 3.11026 3.11707 
3.12389 3.1307 3.13751 3.14433 3.15114 3.15796 3.16477 3.17158 3.1784 
3.18521 3.19202 3.18553 3.17747 3.16941 3.16135 3.1533 3.14524 3.13718 
3.12912 3.12106 3.113 3.10495 3.09689 3.08883 3.08077 3.07271 3.06465 
3.0566 3.04854 3.04048 3.03242 3.0301 3.03753 3.04495 3.05237 3.0598 
3.06722 3.07464 3.08207 3.08949 3.09691 3.10434 3.11176 3.11918 3.12661 
3.13403 3.14145 3.14888 3.1563 3.16372 3.17115 3.19429 3.21907 3.24386 
3.26864 3.29343 3.31821 3.343 3.36779 3.39257 3.41736 3.44214 3.46693 
3.49171 3.5165 3.54129 3.56607 3.59086 3.61564 3.64043 3.66521 3.69 

TEXTURE_COORDINATES TCoords 2 float
0 0 0.000783085 0 0.00156617 0 0.00234926 0 0.00313234 
0 0.00391543 0 0.00469851 0 0.0054816 0 0.00626468 0 
0.00704777 0 0.00783085 0 0.00861394 0 0.00939702 0 0.0101801 
0 0.0109632 0 0.0117463 0 0.0125294 0 0.0133125 0 
0.0140955 0 0.0148786 0 0.0156617 0 0.0164448 0 0.0172279 
0 0.018011 0 0.018794 0 0.0195771 0 0.0203602 0 
0.0211433 0 0.0219264 0 0.0227095 0 0.0234926 0 0.0242756 
0 0.0250587 0 0.0258418 0 0.0266249 0 0.027408 0 
0.0281911 0 0.0289742 0 0.0297572 0 0.0305403 0 0.0313234 
0 0.0321065 0 0.0328896 0 0.0336727 0 0.0344558 0 
0.0352388 0 0.0360219 0 0.036805 0 0.0375881 0 0.0383712 
0 0.0391543 0 0.0399374 0 0.0407204 0 0.0415035 0 
0.0422866 0 0.0430697 0 0.0438528 0 0.0446359 0 0.045419 
0 0.046202 0 0.0469851 0 0.0477682 0 0.0485513 0 
0.0493344 0 0.0501175 0 0.0509005 0 0.0516836 0 0.0524667 
0 0.0532498 0 0.0540329 0 0.054816 0 0.0555991 0 
0.0563821 0 0.0571652 0 0.0579483 0 0.0587314 0 0.0595145 
0 0.0602976 0 0.0610807 0 0.0618637 0 0.0626468 0 
0.0634299 0 0.064213 0 0.0649961 0 0.0657792 0 0.0665623 
0 0.0673453 0 0.0681284 0 0.0689115 0 0.0696946 0 
0.0704777 0 0.0712608 0 0.0720439 0 0.0728269 0 0.07361 
0 0.0743931 0 0.0751762 0 0.0759593 0 0.0767424 0 
0.0775255 0 0.0783085 0 0.0790916 0 0.0798747 0 0.0806578 
0 0.0814409 0 0.082224 0 0.083007 0 0.0837901 0 
0.0845732 0 0.0853563 0 0.0861394 0 0.0869225 0 0.0877056 
0 0.0884886 0 0.0892717 0 0.0900548 0 0.0908379 0 
0.091621 0 0.0924041 0 0.0931872 0 0.0939702 0 0.0947533 
0 0.0955364 0 0.0963195 0 0.0971026 0 0.0978857 0 
0.0986688 0 0.0994518 0 0.100235 0 0.101018 0 0.101801 
0 0.102584 0 0.103367 0 0.10415 0 0.104933 0 
0.105717 0 0.1065 0 0.107283 0 0.108066 0 0.108849 
0 0.109632 0 0.110415 0 0.111198 0 0.111981 0 
0.112764 0 0.113547 0 0.11433 0 0.115114 0 0.115897 
0 0.11668 0 0.117463 0 0.118246 0 0.119029 0 
0.119812 0 0.120595 0 0.121378 0 0.122161 0 0.122944 
0 0.123727 0 0.124511 0 0.125294 0 0.126077 0 
0.12686 0 0.127643 0 0.128426 0 0.129209 0 0.129992 
0 0.130775 0 0.131558 0 0.132341 0 0.133125 0 
0.133908 0 0.134691 0 0.135474 0 0.136257 0 0.13704 
0 0.137823 0 0.138606 0 0.139389 0 0.140172 0 
0.140955 0 0.141738 0 0.142522 0 0.143305 0 0.144088 
0 0.144871 0 0.145654 0 0.146437 0 0.14722 0 
0.148003 0 0.148786 0 0.149569 0 0.150352 0 0.151135 
0 0.151919 0 0.152702 0 0.153485 0 0.154268 0 
0.155051 0 0.155834 0 0.156617 0 0.1574 0 0.158183 
0 0.158966 0 0.159749 0 0.160533 0 0.161316 0 
0.162099 0 0.162882 0 0.163665 0 0.164448 0 0.165231 
0 0.166014 0 0.166797 0 0.16758 0 0.168363 0 
0.169146 0 0.16993 0 0.170713 0 0.171496 0 0.172279 
0 0.173062 0 0.173845 0 0.174628 0 0.175411 0 
0.176194 0 0.176977 0 0.17776 0 0.178543 0 0.179327 
0 0.18011 0 0.180893 0 0.181676 0 0.182459 0 
0.183242 0 0.184025 0 0.184808 0 0.185591 0 0.186374 
0 0.187157 0 0.18794 0 0.188724 0 0.189507 0 
0.19029 0 0.191073 0 0.191856 0 0.192639 0 0.193422 
0 0.194205 0 0.194988 0 0.195771 0 0.196554 0 
0.197338 0 0.198121 0 0.198904 0 0.199687 0 0.20047 
0 0.201253 0 0.202036 0 0.202819 0 0.203602 0 
0.204385 0 0.205168 0 0.205951 0 0.206735 0 0.207518 
0 0.208301 0 0.209084 0 0.209867 0 0.21065 0 
0.211433 0 0.212216 0 0.212999 0 0.213782 0 0.214565 
0 0.215348 0 0.216132 0 0.216915 0 0.217698 0 
0.218481 0 0.219264 0 0.220047 0 0.22083 0 0.221613 
0 0.222396 0 0.223179 0 0.223962 0 0.224745 0 
0.225529 0 0.226312 0 0.227095 0 0.227878 0 0.228661 
0 0.229444 0 0.230227 0 0.23101 0 0.231793 0 
0.232576 0 0.233359 0 0.234143 0 0.234926 0 0.235709 
0 0.236492 0 0.237275 0 0.238058 0 0.238841 0 
0.239624 0 0.240407 0 0.24119 0 0.241973 0 0.242756 
0 0.24354 0 0.244323 0 0.245106 0 0.245889 0 
0.246672 0 0.247455 0 0.248238 0 0.249021 0 0.249804 
0 0.250587 0 0.25137 0 0.252153 0 0.252937 0 
0.25372 0 0.254503 0 0.255286 0 0.256069 0 0.256852 
0 0.257635 0 0.258418 0 0.259201 0 0.259984 0 
0.260767 0 0.261551 0 0.262334 0 0.263117 0 0.2639 
0 0.264683 0 0.265466 0 0.266249 0 0.267032 0 
0.267815 0 0.268598 0 0.269381 0 0.270164 0 0.270948 
0 0.271731 0 0.272514 0 0.273297 0 0.27408 0 
0.274863 0 0.275646 0 0.276429 0 0.277212 0 0.277995 
0 0.278778 0 0.279561 0 0.280345 0 0.281128 0 
0.281911 0 0.282694 0 0.283477 0 0.28426 0 0.285043 
0 0.285826 0 0.286609 0 0.287392 0 0.288175 0 
0.288958 0 0.289742 0 0.290525 0 0.291308 0 0.292091 
0 0.292874 0 0.293657 0 0.29444 0 0.295223 0 
0.296006 0 0.296789 0 0.297572 0 0.298356 0 0.299139 
0 0.299922 0 0.300705 0 0.301488 0 0.302271 0 
0.303054 0 0.303837 0 0.30462 0 0.305403 0 0.306186 
0 0.306969 0 0.307753 0 0.308536 0 0.309319 0 
0.310102 0 0.310885 0 0.311668 0 0.312451 0 0.313234 
0 0.314017 0 0.3148 0 0.315583 0 0.316366 0 
0.31715 0 0.317933 0 0.318716 0 0.319499 0 0.320282 
0 0.321065 0 0.321848 0 0.322631 0 0.323414 0 
0.324197 0 0.32498 0 0.325763 0 0.326547 0 0.32733 
0 0.328113 0 0.328896 0 0.329679 0 0.330462 0 
0.331245 0 0.332028 0 0.332811 0 0.333594 0 0.334377 
0 0.335161 0 0.335944 0 0.336727 0 0.33751 0 
0.338293 0 0.339076 0 0.339859 0 0.340642 0 0.341425 
0 0.342208 0 0.342991 0 0.343774 0 0.344558 0 
0.345341 0 0.346124 0 0.346907 0 0.34769 0 0.348473 
0 0.349256 0 0.350039 0 0.350822 0 0.351605 0 
0.352388 0 0.353171 0 0.353955 0 0.354738 0 0.355521 
0 0.356304 0 0.357087 0 0.35787 0 0.358653 0 
0.359436 0 0.360219 0 0.361002 0 0.361785 0 0.362569 
0 0.363352 0 0.364135 0 0.364918 0 0.365701 0 
0.366484 0 0.367267 0 0.36805 0 0.368833 0 0.369616 
0 0.370399 0 0.371182 0 0.371966 0 0.372749 0 
0.373532 0 0.374315 0 0.375098 0 0.375881 0 0.376664 
0 0.377447 0 0.37823 0 0.379013 0 0.379796 0 
0.380579 0 0.381363 0 0.382146 0 0.382929 0 0.383712 
0 0.384495 0 0.385278 0 0.386061 0 0.386844 0 
0.387627 0 0.38841 0 0.389193 0 0.389977 0 0.39076 
0 0.391543 0 0.392326 0 0.393109 0 0.393892 0 
0.394675 0 0.395458 0 0.396241 0 0.397024 0 0.397807 
0 0.39859 0 0.399374 0 0.400157 0 0.40094 0 
0.401723 0 0.402506 0 0.403289 0 0.404072 0 0.404855 
0 0.405638 0 0.406421 0 0.407204 0 0.407987 0 
0.408771 0 0.409554 0 0.410337 0 0.41112 0 0.411903 
0 0.412686 0 0.413469 0 0.414252 0 0.415035 0 
0.415818 0 0.416601 0 0.417385 0 0.418168 0 0.418951 
0 0.419734 0 0.420517 0 0.4213 0 0.422083 0 
0.422866 0 0.423649 0 0.424432 0 0.425215 0 0.425998 
0 0.426782 0 0.427565 0 0.428348 0 0.429131 0 
0.429914 0 0.430697 0 0.43148 0 0.432263 0 0.433046 
0 0.433829 0 0.434612 0 0.435395 0 0.436179 0 
0.436962 0 0.437745 0 0.438528 0 0.439311 0 0.440094 
0 0.440877 0 0.44166 0 0.442443 0 0.443226 0 
0.444009 0 0.444792 0 0.445576 0 0.446359 0 0.447142 
0 0.447925 0 0.448708 0 0.449491 0 0.450274 0 
0.451057 0 0.45184 0 0.452623 0 0.453406 0 0.45419 
0 0.454973 0 0.455756 0 0.456539 0 0.457322 0 
0.458105 0 0.458888 0 0.459671 0 0.460454 0 0.461237 
0 0.46202 0 0.462803 0 0.463587 0 0.46437 0 
0.465153 0 0.465936 0 0.466719 0 0.467502 0 0.468285 
0 0.469068 0 0.469851 0 0.470634 0 0.471417 0 
0.4722 0 0.472984 0 0.473767 0 0.47455 0 0.475333 
0 0.476116 0 0.476899 0 0.477682 0 0.478465 0 
0.479248 0 0.480031 0 0.480814 0 0.481597 0 0.482381 
0 0.483164 0 0.483947 0 0.48473 0 0.485513 0 
0.486296 0 0.487079 0 0.487862 0 0.488645 0 0.489428 
0 0.490211 0 0.490995 0 0.491778 0 0.492561 0 
0.493344 0 0.494127 0 0.49491 0 0.495693 0 0.496476 
0 0.497259 0 0.498042 0 0.498825 0 0.499608 0 
0.500392 0 0.501175 0 0.501958 0 0.502741 0 0.503524 
0 0.504307 0 0.50509 0 0.505873 0 0.506656 0 
0.507439 0 0.508222 0 0.509005 0 0.509789 0 0.510572 
0 0.511355 0 0.512138 0 0.512921 0 0.513704 0 
0.514487 0 0.51527 0 0.516053 0 0.516836 0 0.517619 
0 0.518403 0 0.519186 0 0.519969 0 0.520752 0 
0.521535 0 0.522318 0 0.523101 0 0.523884 0 0.524667 
0 0.52545 0 0.526233 0 0.527016 0 0.5278 0 
0.528583 0 0.529366 0 0.530149 0 0.530932 0 0.531715 
0 0.532498 0 0.533281 0 0.534064 0 0.534847 0 
0.53563 0 0.536413 0 0.537197 0 0.53798 0 0.538763 
0 0.539546 0 0.540329 0 0.541112 0 0.541895 0 
0.542678 0 0.543461 0 0.544244 0 0.545027 0 0.545811 
0 0.546594 0 0.547377 0 0.54816 0 0.548943 0 
0.549726 0 0.550509 0 0.551292 0 0.552075 0 0.552858 
0 0.553641 0 0.554424 0 0.555207 0 0.555991 0 
0.556774 0 0.557557 0 0.55834 0 0.559123 0 0.559906 
0 0.560689 0 0.561472 0 0.562255 0 0.563038 0 
0.563821 0 0.564605 0 0.565388 0 0.566171 0 0.566954 
0 0.567737 0 0.56852 0 0.569303 0 0.570086 0 
0.570869 0 0.571652 0 0.572435 0 0.573218 0 0.574002 
0 0.574785 0 0.575568 0 0.576351 0 0.577134 0 
0.577917 0 0.5787 0 0.579483 0 0.580266 0 0.581049 
0 0.581832 0 0.582615 0 0.583399 0 0.584182 0 
0.584965 0 0.585748 0 0.586531 0 0.587314 0 0.588097 
0 0.58888 0 0.589663 0 0.590446 0 0.591229 0 
0.592013 0 0.592796 0 0.593579 0 0.594362 0 0.595145 
0 0.595928 0 0.596711 0 0.597494 0 0.598277 0 
0.59906 0 0.599843 0 0.600626 0 0.60141 0 0.602193 
0 0.602976 0 0.603759 0 0.604542 0 0.605325 0 
0.606108 0 0.606891 0 0.607674 0 0.608457 0 0.60924 
0 0.610023 0 0.610807 0 0.61159 0 0.612373 0 
0.613156 0 0.613939 0 0.614722 0 0.615505 0 0.616288 
0 0.617071 0 0.617854 0 0.618637 0 0.619421 0 
0.620204 0 0.620987 0 0.62177 0 0.622553 0 0.623336 
0 0.624119 0 0.624902 0 0.625685 0 0.626468 0 
0.627251 0 0.628034 0 0.628818 0 0.629601 0 0.630384 
0 0.631167 0 0.63195 0 0.632733 0 0.633516 0 
0.634299 0 0.635082 0 0.635865 0 0.636648 0 0.637432 
0 0.638215 0 0.638998 0 0.639781 0 0.640564 0 
0.641347 0 0.64213 0 0.642913 0 0.643696 0 0.644479 
0 0.645262 0 0.646045 0 0.646829 0 0.647612 0 
0.648395 0 0.649178 0 0.649961 0 0.650744 0 0.651527 
0 0.65231 0 0.653093 0 0.653876 0 0.654659 0 
0.655442 0 0.656226 0 0.657009 0 0.657792 0 0.658575 
0 0.659358 0 0.660141 0 0.660924 0 0.661707 0 
0.66249 0 0.663273 0 0.664056 0 0.664839 0 0.665623 