# vtk DataFile Version 4.2
vtk output
ASCII
DATASET POLYDATA
POINTS 1277 float
0 0 0 -0.00254952 0.000505571 0.00316568 -0.0100006 0.0019803 0.0123852 
-0.0220571 0.00436121 0.0272421 -0.0384227 0.00758532 0.0473203 -0.0588013 0.0115897 0.0722032 
-0.0828966 0.0163113 0.101475 -0.110412 0.0216871 0.134718 -0.141053 0.0276543 0.171518 
-0.174521 0.0341497 0.211457 -0.210521 0.0411106 0.254119 -0.248757 0.0484737 0.299088 
-0.288933 0.0561763 0.345948 -0.330751 0.0641553 0.394282 -0.373917 0.0723477 0.443674 
-0.418134 0.0806905 0.493707 -0.463105 0.0891208 0.543966 -0.508535 0.0975757 0.594033 
-0.554127 0.105992 0.643493 -0.599586 0.114307 0.69193 -0.644614 0.122457 0.738926 
-0.688916 0.13038 0.784067 -0.732277 0.138031 0.827056 -0.774727 0.145416 0.867958 
-0.81634 0.152554 0.906904 -0.857188 0.159461 0.944026 -0.897347 0.166155 0.979452 
-0.936889 0.172652 1.01332 -0.975888 0.178971 1.04574 -1.01442 0.185128 1.07687 
-1.05255 0.19114 1.10683 -1.09037 0.197026 1.13574 -1.12793 0.202801 1.16375 
-1.16533 0.208483 1.19097 -1.20262 0.21409 1.21755 -1.23988 0.219639 1.2436 
-1.2772 0.225147 1.26927 -1.31463 0.23063 1.29469 -1.35226 0.236107 1.31997 
-1.39016 0.241595 1.34526 -1.4284 0.24711 1.37069 -1.46705 0.25267 1.39638 
-1.50615 0.258281 1.42238 -1.54566 0.263936 1.44867 -1.58558 0.269629 1.47522 
-1.62588 0.275355 1.50198 -1.66654 0.281107 1.52894 -1.70753 0.286879 1.55605 
-1.74884 0.292664 1.58329 -1.79045 0.298458 1.61062 -1.83232 0.304252 1.63801 
-1.87446 0.310042 1.66544 -1.91682 0.31582 1.69287 -1.95939 0.321582 1.72026 
-2.00215 0.32732 1.74758 -2.04508 0.333029 1.77481 -2.08815 0.338701 1.80191 
-2.13135 0.344332 1.82885 -2.17465 0.349915 1.8556 -2.21803 0.355443 1.88212 
-2.26148 0.360911 1.90838 -2.30496 0.366313 1.93436 -2.34847 0.371642 1.96003 
-2.39201 0.376897 1.98539 -2.43558 0.382077 2.01046 -2.47918 0.387178 2.03525 
-2.52282 0.392199 2.05977 -2.56651 0.397138 2.08403 -2.61024 0.401993 2.10803 
-2.65402 0.406762 2.13179 -2.69786 0.411443 2.15532 -2.74176 0.416034 2.17863 
-2.78572 0.420534 2.20173 -2.82974 0.424939 2.22463 -2.87384 0.429249 2.24734 
-2.91801 0.43346 2.26986 -2.96227 0.437572 2.29222 -3.0066 0.441582 2.31441 
-3.05102 0.445488 2.33646 -3.09554 0.449289 2.35836 -3.14015 0.452981 2.38014 
-3.18485 0.456564 2.40179 -3.22966 0.460035 2.42334 -3.27457 0.463389 2.44477 
-3.31958 0.466619 2.46609 -3.36469 0.469719 2.4873 -3.40989 0.472684 2.5084 
-3.45518 0.475508 2.52938 -3.50056 0.478183 2.55024 -3.54603 0.480705 2.57098 
-3.59158 0.483067 2.5916 -3.63721 0.485262 2.6121 -3.68292 0.487286 2.63247 
-3.72871 0.489131 2.65271 -3.77457 0.490792 2.67283 -3.8205 0.492263 2.69282 
-3.8665 0.493537 2.71267 -3.91256 0.494609 2.73239 -3.95869 0.495472 2.75198 
-4.00488 0.49612 2.77143 -4.05113 0.496547 2.79074 -4.09744 0.496748 2.80992 
-4.1438 0.496715 2.82895 -4.1902 0.49644 2.84784 -4.23666 0.495913 2.86658 
-4.28317 0.495123 2.88519 -4.32971 0.494059 2.90366 -4.3763 0.492711 2.92198 
-4.42293 0.491068 2.94017 -4.46959 0.48912 2.95822 -4.51628 0.486856 2.97613 
-4.56301 0.484266 2.99391 -4.60976 0.481338 3.01154 -4.65654 0.478063 3.02904 
-4.70334 0.47443 3.0464 -4.75016 0.470428 3.06363 -4.797 0.466046 3.08073 
-4.84385 0.461274 3.09768 -4.89071 0.456102 3.11451 -4.93759 0.450519 3.1312 
-4.98447 0.444514 3.14776 -5.03135 0.438077 3.16419 -5.07824 0.431197 3.18048 
-5.12513 0.423863 3.19664 -5.172 0.416068 3.21267 -5.21885 0.407799 3.22856 
-5.26567 0.39905 3.2443 -5.31245 0.389809 3.25991 -5.35917 0.380067 3.27536 
-5.40584 0.369815 3.29066 -5.45243 0.359044 3.30581 -5.49895 0.347743 3.32081 
-5.54538 0.335903 3.33564 -5.5917 0.323515 3.35031 -5.63792 0.310568 3.36481 
-5.68403 0.297055 3.37914 -5.73 0.282964 3.3933 -5.77584 0.268287 3.40729 
-5.82153 0.253014 3.42109 -5.86706 0.237136 3.43472 -5.91243 0.220642 3.44816 
-5.95762 0.203524 3.46141 -6.00263 0.185771 3.47447 -6.04745 0.167379 3.48734 
-6.09206 0.148355 3.50001 -6.13647 0.128706 3.51248 -6.18067 0.108445 3.52474 
-6.22466 0.0875782 3.5368 -6.26842 0.0661168 3.54865 -6.31196 0.0440698 3.56029 
-6.35527 0.0214466 3.5717 -6.39834 -0.00174335 3.5829 -6.44117 -0.0254906 3.59388 
-6.48376 -0.0497859 3.60462 -6.52609 -0.0746196 3.61514 -6.56817 -0.0999824 3.62543 
-6.60998 -0.125865 3.63548 -6.65153 -0.152258 3.64529 -6.69281 -0.179151 3.65486 
-6.73381 -0.206536 3.66418 -6.77452 -0.234403 3.67325 -6.81495 -0.262742 3.68207 
-6.85508 -0.291545 3.69063 -6.89492 -0.320801 3.69894 -6.93446 -0.350496 3.70698 
-6.97372 -0.380614 3.71477 -7.01271 -0.411141 3.72229 -7.05142 -0.442061 3.72956 
-7.08988 -0.473358 3.73656 -7.1281 -0.505017 3.74329 -7.16607 -0.537022 3.74977 
-7.2038 -0.569358 3.75598 -7.24132 -0.602009 3.76193 -7.27862 -0.63496 3.76761 
-7.31571 -0.668195 3.77303 -7.3526 -0.701699 3.77818 -7.38931 -0.735456 3.78307 
-7.42583 -0.769452 3.78769 -7.46218 -0.803669 3.79204 -7.49837 -0.838093 3.79612 
-7.5344 -0.872709 3.79994 -7.57029 -0.907501 3.80348 -7.60604 -0.942452 3.80676 
-7.64165 -0.977549 3.80977 -7.67715 -1.01278 3.81251 -7.71253 -1.04814 3.81497 
-7.7478 -1.08361 3.81717 -7.78297 -1.11919 3.81909 -7.81804 -1.15488 3.82074 
-7.85302 -1.19066 3.82211 -7.88793 -1.22652 3.82321 -7.92275 -1.26246 3.82403 
-7.9575 -1.29847 3.82458 -7.9922 -1.33454 3.82485 -8.02683 -1.37067 3.82485 
-8.06142 -1.40684 3.82456 -8.09596 -1.44304 3.824 -8.13047 -1.47928 3.82315 
-8.16494 -1.51554 3.82203 -8.19939 -1.55181 3.82063 -8.23383 -1.58809 3.81894 
-8.26825 -1.62436 3.81697 -8.30267 -1.66062 3.81472 -8.3371 -1.69687 3.81218 
-8.37153 -1.73308 3.80936 -8.40597 -1.76927 3.80626 -8.44041 -1.80543 3.80286 
-8.47487 -1.84155 3.79918 -8.50934 -1.87764 3.79521 -8.54382 -1.91368 3.79095 
-8.57831 -1.94967 3.7864 -8.61281 -1.98562 3.78156 -8.64732 -2.02151 3.77642 
-8.68185 -2.05735 3.77099 -8.71639 -2.09312 3.76526 -8.75094 -2.12884 3.75924 
-8.78551 -2.16449 3.75292 -8.8201 -2.20007 3.7463 -8.8547 -2.23557 3.73938 
-8.88931 -2.271 3.73216 -8.92395 -2.30636 3.72463 -8.9586 -2.34162 3.7168 
-8.99327 -2.37681 3.70867 -9.02797 -2.4119 3.70023 -9.06268 -2.4469 3.69149 
-9.0974 -2.48181 3.68244 -9.13214 -2.51662 3.67308 -9.16688 -2.55134 3.6634 
-9.20163 -2.58597 3.65341 -9.23639 -2.62051 3.64311 -9.27113 -2.65495 3.63249 
-9.30587 -2.6893 3.62155 -9.3406 -2.72356 3.61029 -9.37532 -2.75773 3.59871 
-9.41002 -2.7918 3.58681 -9.44469 -2.82578 3.57458 -9.47934 -2.85966 3.56202 
-9.51396 -2.89346 3.54914 -9.54854 -2.92716 3.53592 -9.58309 -2.96077 3.52238 
-9.6176 -2.99428 3.5085 -9.65206 -3.0277 3.49428 -9.68647 -3.06103 3.47973 
-9.72083 -3.09427 3.46483 -9.75513 -3.12742 3.4496 -9.78937 -3.16047 3.43402 
-9.82354 -3.19343 3.4181 -9.85763 -3.22631 3.40183 -9.89164 -3.2591 3.38521 
-9.92555 -3.2918 3.36823 -9.95936 -3.32442 3.3509 -9.99306 -3.35697 3.33321 
-10.0266 -3.38943 3.31515 -10.0601 -3.42181 3.29673 -10.0934 -3.45412 3.27794 
-10.1266 -3.48636 3.25879 -10.1597 -3.51852 3.23925 -10.1926 -3.55061 3.21935 
-10.2253 -3.58263 3.19906 -10.2578 -3.61459 3.17839 -10.2902 -3.64648 3.15734 
-10.3224 -3.67831 3.13589 -10.3544 -3.71008 3.11406 -10.3862 -3.74178 3.09184 
-10.4178 -3.77343 3.06922 -10.4492 -3.80502 3.0462 -10.4803 -3.83656 3.02278 
-10.5112 -3.86804 2.99896 -10.5418 -3.89948 2.97474 -10.5722 -3.93086 2.95011 
-10.6023 -3.9622 2.92506 -10.632 -3.99349 2.89961 -10.6615 -4.02473 2.87374 
-10.6906 -4.05594 2.84746 -10.7194 -4.0871 2.82076 -10.7478 -4.11823 2.79364 
-10.7759 -4.14932 2.7661 -10.8035 -4.18038 2.73813 -10.8308 -4.2114 2.70974 
-10.8576 -4.24239 2.68091 -10.8841 -4.27336 2.65166 -10.91 -4.30429 2.62197 
-10.9356 -4.3352 2.59185 -10.9606 -4.36609 2.56128 -10.9852 -4.39695 2.53028 
-11.0093 -4.42779 2.49884 -11.0328 -4.45862 2.46697 -11.0559 -4.48942 2.43467 
-11.0783 -4.52019 2.40197 -11.1003 -4.55095 2.36885 -11.1217 -4.58168 2.33535 
-11.1425 -4.61239 2.30145 -11.1626 -4.64307 2.26718 -11.1822 -4.67373 2.23253 
-11.2012 -4.70436 2.19753 -11.2195 -4.73497 2.16217 -11.2372 -4.76555 2.12648 
-11.2542 -4.7961 2.09045 -11.2705 -4.82662 2.05409 -11.2861 -4.85712 2.01741 
-11.301 -4.88758 1.98043 -11.3152 -4.91802 1.94315 -11.3287 -4.94843 1.90558 
-11.3414 -4.9788 1.86773 -11.3533 -5.00915 1.82961 -11.3645 -5.03946 1.79123 
-11.3748 -5.06974 1.75259 -11.3845 -5.09999 1.71373 -11.3933 -5.13021 1.67465 
-11.4014 -5.1604 1.63538 -11.4087 -5.19056 1.59591 -11.4153 -5.22068 1.55629 
-11.4211 -5.25078 1.51651 -11.4261 -5.28085 1.4766 -11.4304 -5.31089 1.43657 
-11.434 -5.3409 1.39644 -11.4369 -5.37088 1.35622 -11.439 -5.40084 1.31594 
-11.4404 -5.43077 1.2756 -11.441 -5.46066 1.23522 -11.441 -5.49054 1.19482 
-11.4402 -5.52038 1.15442 -11.4388 -5.5502 1.11403 -11.4366 -5.57999 1.07366 
-11.4337 -5.60975 1.03334 -11.4301 -5.63949 0.993079 -11.4259 -5.66921 0.952888 
-11.4209 -5.69891 0.912774 -11.4153 -5.72859 0.872747 -11.4091 -5.75826 0.832813 
-11.4022 -5.78792 0.792982 -11.3947 -5.81757 0.753261 -11.3866 -5.84722 0.713657 
-11.3779 -5.87687 0.67418 -11.3686 -5.90653 0.634837 -11.3588 -5.9362 0.595636 
-11.3483 -5.96587 0.556585 -11.3374 -5.99557 0.517692 -11.3259 -6.02528 0.478965 
-11.3138 -6.05501 0.440412 -11.3013 -6.08477 0.402041 -11.2883 -6.11456 0.36386 
-11.2748 -6.14438 0.325878 -11.2608 -6.17424 0.288101 -11.2464 -6.20414 0.250539 
-11.2315 -6.23408 0.213199 -11.2162 -6.26407 0.176087 -11.2004 -6.29411 0.13921 
-11.1843 -6.32421 0.102572 -11.1677 -6.35438 0.0661796 -11.1507 -6.38463 0.0300374 
-11.1334 -6.41495 -0.00584901 -11.1157 -6.44536 -0.0414742 -11.0976 -6.47587 -0.0768329 
-11.0791 -6.50647 -0.11192 -11.0603 -6.53718 -0.146729 -11.0412 -6.56799 -0.181256 
-11.0217 -6.59893 -0.215494 -11.0019 -6.62999 -0.249439 -10.9818 -6.66118 -0.283085 
-10.9614 -6.69251 -0.316427 -10.9406 -6.72398 -0.349459 -10.9196 -6.7556 -0.382176 
-10.8983 -6.78738 -0.414573 -10.8768 -6.81932 -0.446644 -10.855 -6.85143 -0.478384 
-10.8329 -6.88371 -0.509787 -10.8106 -6.91616 -0.540849 -10.7881 -6.9488 -0.571564 
-10.7653 -6.98161 -0.601928 -10.7423 -7.0146 -0.631935 -10.7192 -7.04777 -0.661581 
[...]
CELL_DATA 1
FIELD FieldData 2
Length 1 1 double
63.837010132 
Tortuosity 1 1 double
0.96309242517 
POINT_DATA 1277
SCALARS MaximumInscribedSphereRadius float
LOOKUP_TABLE default
1.2772 1.27804 1.27888 1.27972 1.28056 1.28139 1.28223 1.28307 1.28391 
1.28475 1.28559 1.28643 1.28727 1.2881 1.28894 1.28978 1.29062 1.29146 
1.2923 1.29314 1.29398 1.29547 1.30278 1.3101 1.31741 1.32472 1.33204 
1.33935 1.34667 1.35398 1.36129 1.36861 1.37592 1.38323 1.39055 1.39786 
1.40517 1.41249 1.4198 1.42711 1.43443 1.43866 1.43963 1.44061 1.44158 
1.44256 1.44353 1.44451 1.44549 1.44646 1.44744 1.44841 1.44939 1.45037 
1.45134 1.45232 1.45329 1.45427 1.45524 1.45622 1.4572 1.45664 1.4489 
1.44116 1.43342 1.42568 1.41795 1.41021 1.40247 1.39473 1.38699 1.37925 
1.37152 1.36378 1.35604 1.3483 1.34056 1.33283 1.32509 1.31735 1.30961 
1.30187 1.30699 1.31376 1.32053 1.3273 1.33407 1.34084 1.34761 1.35438 
1.36116 1.36793 1.3747 1.38147 1.38824 1.39501 1.40178 1.40855 1.41532 
1.4221 1.42887 1.43564 1.43343 1.42547 1.41752 1.40957 1.40161 1.39366 
1.3857 1.37775 1.36979 1.36184 1.35388 1.34593 1.33797 1.33002 1.32206 
1.31411 1.30616 1.2982 1.29025 1.28229 1.27277 1.26018 1.24759 1.235 
1.22241 1.20981 1.19722 1.18463 1.17204 1.15945 1.14686 1.13426 1.12167 
1.10908 1.09649 1.0839 1.0713 1.05871 1.04612 1.03353 1.02328 1.03976 
1.05625 1.07274 1.08923 1.10571 1.1222 1.13869 1.15518 1.17167 1.18815 
1.20464 1.22113 1.23762 1.25411 1.27059 1.28708 1.30357 1.32006 1.33655 
1.35303 1.37251 1.39258 1.41266 1.43274 1.45282 1.4729 1.49297 1.51305 
1.53313 1.55321 1.57328 1.59336 1.61344 1.63352 1.6536 1.67367 1.69375 
1.71383 1.73391 1.75398 1.76878 1.77947 1.79017 1.80086 1.81155 1.82224 
1.83294 1.84363 1.85432 1.86502 1.87571 1.8864 1.8971 1.90779 1.91848 
1.92918 1.93987 1.95056 1.96125 1.97195 1.9788 1.97611 1.97342 1.97073 
1.96805 1.96536 1.96267 1.95998 1.95729 1.95461 1.95192 1.94923 1.94654 
1.94385 1.94117 1.93848 1.93579 1.9331 1.93041 1.92773 1.92486 1.90756 
1.89026 1.87296 1.85566 1.83836 1.82107 1.80377 1.78647 1.76917 1.75187 
1.73457 1.71727 1.69998 1.68268 1.66538 1.64808 1.63078 1.61348 1.59618 
1.57888 1.55768 1.53509 1.5125 1.48991 1.46732 1.44473 1.42214 1.39956 
1.37697 1.35438 1.33179 1.3092 1.28661 1.26402 1.24144 1.21885 1.19626 
1.17367 1.15108 1.12849 1.11672 1.11717 1.11763 1.11809 1.11855 1.11901 
1.11947 1.11993 1.12039 1.12085 1.12131 1.12176 1.12222 1.12268 1.12314 
1.1236 1.12406 1.12452 1.12498 1.12544 1.13035 1.15218 1.17401 1.19585 
1.21768 1.23951 1.26134 1.28317 1.305 1.32684 1.34867 1.3705 1.39233 
1.41416 1.43599 1.45782 1.47966 1.50149 1.52332 1.54515 1.56698 1.5798 
1.5923 1.60479 1.61729 1.62979 1.64229 1.65479 1.66729 1.67978 1.69228 
1.70478 1.71728 1.72978 1.74228 1.75478 1.76727 1.77977 1.79227 1.80477 
1.81727 1.83512 1.85498 1.87485 1.89471 1.91458 1.93444 1.95431 1.97417 
1.99404 2.0139 2.03377 2.05364 2.0735 2.09337 2.11323 2.1331 2.15296 
2.17283 2.19269 2.21256 2.22879 2.2409 2.25301 2.26512 2.27724 2.28935 
2.30146 2.31357 2.32568 2.33779 2.3499 2.36201 2.37412 2.38623 2.39834 
2.41046 2.42257 2.43468 2.44679 2.4589 2.46868 2.46925 2.46981 2.47038 
2.47094 2.4715 2.47207 2.47263 2.4732 2.47376 2.47432 2.47489 2.47545 
2.47602 2.47658 2.47714 2.47771 2.47827 2.47884 2.4794 2.47996 2.4791 
2.47813 2.47717 2.47621 2.47524 2.47428 2.47331 2.47235 2.47139 2.47042 
2.46946 2.46849 2.46753 2.46657 2.4656 2.46464 2.46367 2.46271 2.46175 
2.46078 2.44356 2.41959 2.39562 2.37166 2.34769 2.32372 2.29975 2.27578 
2.25182 2.22785 2.20388 2.17991 2.15595 2.13198 2.10801 2.08404 2.06007 
2.03611 2.01214 1.98817 1.97738 1.9731 1.96883 1.96455 1.96027 1.95599 
1.95171 1.94743 1.94315 1.93887 1.93459 1.93031 1.92603 1.92175 1.91747 
1.91319 1.90891 1.90463 1.90035 1.89607 1.90196 1.91168 1.92139 1.93111 
1.94082 1.95054 1.96025 1.96997 1.97968 1.9894 1.99912 2.00883 2.01855 
2.02826 2.03798 2.04769 2.05741 2.06712 2.07684 2.08655 2.08994 2.08655 
2.08315 2.07976 2.07636 2.07297 2.06957 2.06618 2.06279 2.05939 2.056 
2.0526 2.04921 2.04581 2.04242 2.03902 2.03563 2.03223 2.02884 2.02545 
2.02259 2.02166 2.02073 2.0198 2.01887 2.01794 2.01701 2.01608 2.01515 
2.01421 2.01328 2.01235 2.01142 2.01049 2.00956 2.00863 2.0077 2.00677 
2.00584 2.00491 2.00398 2.02006 2.03714 2.05422 2.0713 2.08838 2.10547 
2.12255 2.13963 2.15671 2.17379 2.19087 2.20796 2.22504 2.24212 2.2592 
2.27628 2.29336 2.31044 2.32753 2.34461 2.35456 2.36096 2.36736 2.37375 
2.38015 2.38654 2.39294 2.39933 2.40573 2.41213 2.41852 2.42492 2.43131 
2.43771 2.4441 2.4505 2.45689 2.46329 2.46969 2.47608 2.47727 2.47021 
2.46316 2.4561 2.44905 2.44199 2.43494 2.42788 2.42083 2.41377 2.40672 
2.39966 2.39261 2.38555 2.3785 2.37144 2.36439 2.35733 2.35028 2.34322 
2.3351 2.31812 2.30114 2.28416 2.26718 2.2502 2.23323 2.21625 2.19927 
2.18229 2.16531 2.14833 2.13136 2.11438 2.0974 2.08042 2.06344 2.04647 
2.02949 2.01251 1.99553 1.99941 2.00703 2.01465 2.02226 2.02988 2.0375 
2.04512 2.05273 2.06035 2.06797 2.07559 2.0832 2.09082 2.09844 2.10606 
2.11368 2.12129 2.12891 2.13653 2.14415 2.14778 2.14893 2.15008 2.15123 
2.15237 2.15352 2.15467 2.15582 2.15697 2.15812 2.15927 2.16042 2.16157 
2.16272 2.16387 2.16502 2.16616 2.16731 2.16846 2.16961 2.1719 2.17477 
2.17764 2.1805 2.18337 2.18624 2.18911 2.19198 2.19484 2.19771 2.20058 
2.20345 2.20632 2.20918 2.21205 2.21492 2.21779 2.22066 2.22352 2.22639 
2.23154 2.24031 2.24907 2.25784 2.26661 2.27538 2.28414 2.29291 2.30168 
2.31044 2.31921 2.32798 2.33674 2.34551 2.35428 2.36305 2.37181 2.38058 
2.38935 2.39811 2.4054 2.40106 2.39672 2.39237 2.38803 2.38369 2.37935 
2.37501 2.37067 2.36632 2.36198 2.35764 2.3533 2.34896 2.34461 2.34027 
2.33593 2.33159 2.32725 2.32291 2.31856 2.30458 2.28866 2.27274 2.25682 
2.2409 2.22498 2.20907 2.19315 2.17723 2.16131 2.14539 2.12947 2.11356 
2.09764 2.08172 2.0658 2.04988 2.03396 2.01805 2.00213 1.9803 1.95365 
1.927 1.90035 1.8737 1.84705 1.8204 1.79375 1.7671 1.74045 1.7138 
1.68715 1.6605 1.63385 1.6072 1.58055 1.5539 1.52725 1.5006 1.47395 
1.45625 1.46255 1.46885 1.47515 1.48144 1.48774 1.49404 1.50034 1.50664 
1.51294 1.51923 1.52553 1.53183 1.53813 1.54443 1.55073 1.55702 1.56332 
1.56962 1.57592 1.58222 1.59616 1.61017 1.62418 1.63819 1.6522 1.6662 
1.68021 1.69422 1.70823 1.72224 1.73625 1.75026 1.76427 1.77827 1.79228 
1.80629 1.8203 1.83431 1.84832 1.86233 1.86798 1.87024 1.8725 1.87476 
1.87702 1.87928 1.88154 1.88379 1.88605 1.88831 1.89057 1.89283 1.89509 
1.89735 1.89961 1.90187 1.90413 1.90639 1.90865 1.91091 1.91708 1.92827 
1.93945 1.95064 1.96183 1.97301 1.9842 1.99538 2.00657 2.01776 2.02894 
2.04013 2.05132 2.0625 2.07369 2.08488 2.09606 2.10725 2.11844 2.12962 
2.13984 2.14525 2.15066 2.15606 2.16147 2.16688 2.17229 2.1777 2.18311 
2.18852 2.19393 2.19933 2.20474 2.21015 2.21556 2.22097 2.22638 2.23179 
2.23719 2.2426 2.24801 2.24581 2.24281 2.23982 2.23682 2.23383 2.23083 
2.22784 2.22485 2.22185 2.21886 2.21586 2.21287 2.20987 2.20688 2.20388 
2.20089 2.1979 2.1949 2.19191 2.18891 2.1827 2.17472 2.16675 2.15877 
2.15079 2.14281 2.13483 2.12686 2.11888 2.1109 2.10292 2.09494 2.08697 
2.07899 2.07101 2.06303 2.05505 2.04708 2.0391 2.03112 2.02744 2.0307 
2.03396 2.03722 2.04048 2.04375 2.04701 2.05027 2.05353 2.05679 2.06005 
2.06332 2.06658 2.06984 2.0731 2.07636 2.07962 2.08289 2.08615 2.08941 
2.09212 2.0905 2.08888 2.08727 2.08565 2.08403 2.08242 2.0808 2.07919 
2.07757 2.07595 2.07434 2.07272 2.0711 2.06949 2.06787 2.06626 2.06464 
2.06302 2.06141 2.05979 2.05223 2.04359 2.03494 2.02629 2.01765 2.009 
2.00036 1.99171 1.98306 1.97442 1.96577 1.95712 1.94848 1.93983 1.93118 
1.92254 1.91389 1.90524 1.8966 1.88795 1.88422 1.88416 1.88409 1.88402 
1.88396 1.88389 1.88382 1.88376 1.88369 1.88362 1.88356 1.88349 1.88342 
1.88336 1.88329 1.88322 1.88316 1.88309 1.88302 1.88296 1.88744 1.90275 
1.91805 1.93335 1.94866 1.96396 1.97926 1.99456 2.00987 2.02517 2.04047 
2.05577 2.07108 2.08638 2.10168 2.11698 2.13229 2.14759 2.16289 2.17819 
2.19336 2.2012 2.20903 2.21687 2.2247 2.23254 2.24037 2.24821 2.25604 
2.26388 2.27172 2.27955 2.28739 2.29522 2.30306 2.31089 2.31873 2.32656 
2.3344 2.34223 2.35007 2.33896 2.3211 2.30324 2.28538 2.26752 2.24966 
2.2318 2.21394 2.19608 2.17821 2.16035 2.14249 2.12463 2.10677 2.08891 
2.07105 2.05319 2.03533 2.01746 1.9996 1.99128 1.99432 1.99737 2.00041 
2.00346 2.0065 2.00955 2.01259 2.01564 2.01868 2.02172 2.02477 2.02781 
2.03086 2.0339 2.03695 2.03999 2.04304 2.04608 2.04913 2.05395 2.06702 
2.0801 2.09317 2.10624 2.11931 2.13239 2.14546 2.15853 2.1716 2.18467 
2.19775 2.21082 2.22389 2.23696 2.25004 2.26311 2.27618 2.28925 2.30233 
2.3154 2.32627 2.33689 2.34751 2.35813 2.36875 2.37937 2.38999 2.40061 
2.41123 2.42185 2.43247 2.44309 2.45371 2.46434 2.47496 2.48558 2.4962 
2.50682 2.51744 2.52806 2.52126 2.50398 2.48669 2.46941 2.45213 2.43485 
2.41756 2.40028 2.383 2.36572 2.34843 2.33115 2.31387 2.29659 2.2793 
2.26202 2.24474 2.22746 2.21017 2.19289 2.17742 2.16526 2.15311 2.14095 
2.12879 2.11664 2.10448 2.09233 2.08017 2.06801 2.05586 2.0437 2.03154 
2.01939 2.00723 1.99508 1.98292 1.97076 1.95861 1.94645 1.93603 1.94244 
1.94885 1.95526 1.96168 1.96809 1.9745 1.98091 1.98733 1.99374 2.00015 
2.00656 2.01297 2.01939 2.0258 2.03221 2.03862 2.04504 2.05145 2.05786 
2.06427 2.08112 2.09969 2.11826 2.13682 2.15539 2.17396 2.19253 2.2111 
2.22966 2.24823 2.2668 2.28537 2.30394 2.3225 2.34107 2.35964 2.37821 
2.39678 2.41534 2.43391 2.44202 2.44382 2.44562 2.44743 2.44923 2.45104 
2.45284 2.45464 2.45645 2.45825 2.46006 2.46186 2.46366 2.46547 2.46727 
2.46908 2.47088 2.47268 2.47449 2.47629 2.47368 2.46334 2.453 2.44267 
2.43233 2.42199 2.41166 2.40132 2.39098 2.38064 2.37031 2.35997 2.34963 
2.33929 2.32896 2.31862 2.30828 2.29795 2.28761 2.27727 2.26682 2.2552 
2.24359 2.23197 2.22036 2.20875 2.19713 2.18552 2.1739 2.16229 2.15067 
2.13906 2.12744 2.11583 2.10422 2.0926 2.08099 2.06937 2.05776 2.04614 
2.03453 2.03716 2.0433 2.04944 2.05558 2.06172 2.06786 2.07401 2.08015 
2.08629 2.09243 2.09857 2.10471 2.11086 2.117 2.12314 2.12928 2.13542 
2.14156 2.1477 2.15385 2.17067 2.19819 2.2257 2.25322 2.28074 2.30826 
2.33578 2.36329 2.39081 2.41833 2.44585 2.47337 2.50088 2.5284 2.55592 
2.58344 2.61096 2.63847 2.66599 2.69351 2.66757 2.62719 2.58681 2.54643 
2.50605 2.46567 2.4253 2.38492 2.34454 2.30416 2.26378 2.2234 2.18303 
2.14265 2.10227 2.06189 2.02151 1.98113 1.94076 1.90038 1.86 
TEXTURE_COORDINATES TCoords 2 float
0 0 0.000783699 0 0.0015674 0 0.0023511 0 0.0031348 
0 0.0039185 0 0.00470219 0 0.00548589 0 0.00626959 0 
0.00705329 0 0.00783699 0 0.00862069 0 0.00940439 0 0.0101881 
0 0.0109718 0 0.0117555 0 0.0125392 0 0.0133229 0 
0.0141066 0 0.0148903 0 0.015674 0 0.0164577 0 0.0172414 
0 0.0180251 0 0.0188088 0 0.0195925 0 0.0203762 0 
0.0211599 0 0.0219436 0 0.0227273 0 0.023511 0 0.0242947 
0 0.0250784 0 0.0258621 0 0.0266458 0 0.0274295 0 
0.0282132 0 0.0289969 0 0.0297806 0 0.0305643 0 0.031348 
0 0.0321317 0 0.0329154 0 0.0336991 0 0.0344828 0 
0.0352665 0 0.0360502 0 0.0368339 0 0.0376176 0 0.0384013 
0 0.039185 0 0.0399687 0 0.0407524 0 0.0415361 0 
0.0423197 0 0.0431034 0 0.0438871 0 0.0446708 0 0.0454545 
0 0.0462382 0 0.0470219 0 0.0478056 0 0.0485893 0 
0.049373 0 0.0501567 0 0.0509404 0 0.0517241 0 0.0525078 
0 0.0532915 0 0.0540752 0 0.0548589 0 0.0556426 0 
0.0564263 0 0.05721 0 0.0579937 0 0.0587774 0 0.0595611 
0 0.0603448 0 0.0611285 0 0.0619122 0 0.0626959 0 
0.0634796 0 0.0642633 0 0.065047 0 0.0658307 0 0.0666144 
0 0.0673981 0 0.0681818 0 0.0689655 0 0.0697492 0 
0.0705329 0 0.0713166 0 0.0721003 0 0.072884 0 0.0736677 
0 0.0744514 0 0.0752351 0 0.0760188 0 0.0768025 0 
0.0775862 0 0.0783699 0 0.0791536 0 0.0799373 0 0.080721 
0 0.0815047 0 0.0822884 0 0.0830721 0 0.0838558 0 
0.0846395 0 0.0854232 0 0.0862069 0 0.0869906 0 0.0877743 
0 0.088558 0 0.0893417 0 0.0901254 0 0.0909091 0 
0.0916928 0 0.0924765 0 0.0932602 0 0.0940439 0 0.0948276 
0 0.0956113 0 0.096395 0 0.0971787 0 0.0979624 0 
0.0987461 0 0.0995298 0 0.100313 0 0.101097 0 0.101881 
0 0.102665 0 0.103448 0 0.104232 0 0.105016 0 
0.105799 0 0.106583 0 0.107367 0 0.10815 0 0.108934 
0 0.109718 0 0.110502 0 0.111285 0 0.112069 0 
0.112853 0 0.113636 0 0.11442 0 0.115204 0 0.115987 
0 0.116771 0 0.117555 0 0.118339 0 0.119122 0 
0.119906 0 0.12069 0 0.121473 0 0.122257 0 0.123041 
0 0.123824 0 0.124608 0 0.125392 0 0.126176 0 
0.126959 0 0.127743 0 0.128527 0 0.12931 0 0.130094 
0 0.130878 0 0.131661 0 0.132445 0 0.133229 0 
0.134013 0 0.134796 0 0.13558 0 0.136364 0 0.137147 
0 0.137931 0 0.138715 0 0.139498 0 0.140282 0 
0.141066 0 0.14185 0 0.142633 0 0.143417 0 0.144201 
0 0.144984 0 0.145768 0 0.146552 0 0.147335 0 
0.148119 0 0.148903 0 0.149687 0 0.15047 0 0.151254 
0 0.152038 0 0.152821 0 0.153605 0 0.154389 0 
0.155172 0 0.155956 0 0.15674 0 0.157524 0 0.158307 
0 0.159091 0 0.159875 0 0.160658 0 0.161442 0 
0.162226 0 0.163009 0 0.163793 0 0.164577 0 0.16536 
0 0.166144 0 0.166928 0 0.167712 0 0.168495 0 
0.169279 0 0.170063 0 0.170846 0 0.17163 0 0.172414 
0 0.173197 0 0.173981 0 0.174765 0 0.175549 0 
0.176332 0 0.177116 0 0.1779 0 0.178683 0 0.179467 
0 0.180251 0 0.181034 0 0.181818 0 0.182602 0 
0.183386 0 0.184169 0 0.184953 0 0.185737 0 0.18652 
0 0.187304 0 0.188088 0 0.188871 0 0.189655 0 
0.190439 0 0.191223 0 0.192006 0 0.19279 0 0.193574 
0 0.194357 0 0.195141 0 0.195925 0 0.196708 0 
0.197492 0 0.198276 0 0.19906 0 0.199843 0 0.200627 
0 0.201411 0 0.202194 0 0.202978 0 0.203762 0 
0.204545 0 0.205329 0 0.206113 0 0.206897 0 0.20768 
0 0.208464 0 0.209248 0 0.210031 0 0.210815 0 
0.211599 0 0.212382 0 0.213166 0 0.21395 0 0.214734 
0 0.215517 0 0.216301 0 0.217085 0 0.217868 0 
0.218652 0 0.219436 0 0.220219 0 0.221003 0 0.221787 
0 0.222571 0 0.223354 0 0.224138 0 0.224922 0 
0.225705 0 0.226489 0 0.227273 0 0.228056 0 0.22884 
0 0.229624 0 0.230408 0 0.231191 0 0.231975 0 
0.232759 0 0.233542 0 0.234326 0 0.23511 0 0.235893 
0 0.236677 0 0.237461 0 0.238245 0 0.239028 0 
0.239812 0 0.240596 0 0.241379 0 0.242163 0 0.242947 
0 0.24373 0 0.244514 0 0.245298 0 0.246082 0 
0.246865 0 0.247649 0 0.248433 0 0.249216 0 0.25 
0 0.250784 0 0.251567 0 0.252351 0 0.253135 0 
0.253918 0 0.254702 0 0.255486 0 0.25627 0 0.257053 
0 0.257837 0 0.258621 0 0.259404 0 0.260188 0 
0.260972 0 0.261755 0 0.262539 0 0.263323 0 0.264107 
0 0.26489 0 0.265674 0 0.266458 0 0.267241 0 
0.268025 0 0.268809 0 0.269592 0 0.270376 0 0.27116 
0 0.271944 0 0.272727 0 0.273511 0 0.274295 0 
0.275078 0 0.275862 0 0.276646 0 0.277429 0 0.278213 
0 0.278997 0 0.279781 0 0.280564 0 0.281348 0 
0.282132 0 0.282915 0 0.283699 0 0.284483 0 0.285266 
0 0.28605 0 0.286834 0 0.287618 0 0.288401 0 
0.289185 0 0.289969 0 0.290752 0 0.291536 0 0.29232 
0 0.293103 0 0.293887 0 0.294671 0 0.295455 0 
0.296238 0 0.297022 0 0.297806 0 0.298589 0 0.299373 
0 0.300157 0 0.30094 0 0.301724 0 0.302508 0 
0.303292 0 0.304075 0 0.304859 0 0.305643 0 0.306426 
0 0.30721 0 0.307994 0 0.308777 0 0.309561 0 
0.310345 0 0.311129 0 0.311912 0 0.312696 0 0.31348 
0 0.314263 0 0.315047 0 0.315831 0 0.316614 0 
0.317398 0 0.318182 0 0.318966 0 0.319749 0 0.320533 
0 0.321317 0 0.3221 0 0.322884 0 0.323668 0 
0.324451 0 0.325235 0 0.326019 0 0.326803 0 0.327586 
0 0.32837 0 0.329154 0 0.329937 0 0.330721 0 
0.331505 0 0.332288 0 0.333072 0 0.333856 0 0.334639 
0 0.335423 0 0.336207 0 0.336991 0 0.337774 0 
0.338558 0 0.339342 0 0.340125 0 0.340909 0 0.341693 
0 0.342476 0 0.34326 0 0.344044 0 0.344828 0 
0.345611 0 0.346395 0 0.347179 0 0.347962 0 0.348746 
0 0.34953 0 0.350313 0 0.351097 0 0.351881 0 
0.352665 0 0.353448 0 0.354232 0 0.355016 0 0.355799 
0 0.356583 0 0.357367 0 0.35815 0 0.358934 0 
0.359718 0 0.360502 0 0.361285 0 0.362069 0 0.362853 
0 0.363636 0 0.36442 0 0.365204 0 0.365987 0 
0.366771 0 0.367555 0 0.368339 0 0.369122 0 0.369906 
0 0.37069 0 0.371473 0 0.372257 0 0.373041 0 
0.373824 0 0.374608 0 0.375392 0 0.376176 0 0.376959 
0 0.377743 0 0.378527 0 0.37931 0 0.380094 0 
0.380878 0 0.381661 0 0.382445 0 0.383229 0 0.384013 
0 0.384796 0 0.38558 0 0.386364 0 0.387147 0 
0.387931 0 0.388715 0 0.389498 0 0.390282 0 0.391066 
0 0.39185 0 0.392633 0 0.393417 0 0.394201 0 
0.394984 0 0.395768 0 0.396552 0 0.397335 0 0.398119 
0 0.398903 0 0.399687 0 0.40047 0 0.401254 0 
0.402038 0 0.402821 0 0.403605 0 0.404389 0 0.405172 
0 0.405956 0 0.40674 0 0.407524 0 0.408307 0 
0.409091 0 0.409875 0 0.410658 0 0.411442 0 0.412226 
0 0.413009 0 0.413793 0 0.414577 0 0.415361 0 
0.416144 0 0.416928 0 0.417712 0 0.418495 0 0.419279 
0 0.420063 0 0.420846 0 0.42163 0 0.422414 0 
0.423197 0 0.423981 0 0.424765 0 0.425549 0 0.426332 
0 0.427116 0 0.4279 0 0.428683 0 0.429467 0 
0.430251 0 0.431034 0 0.431818 0 0.432602 0 0.433386 
0 0.434169 0 0.434953 0 0.435737 0 0.43652 0 
0.437304 0 0.438088 0 0.438871 0 0.439655 0 0.440439 
0 0.441223 0 0.442006 0 0.44279 0 0.443574 0 
0.444357 0 0.445141 0 0.445925 0 0.446708 0 0.447492 
0 0.448276 0 0.44906 0 0.449843 0 0.450627 0 
0.451411 0 0.452194 0 0.452978 0 0.453762 0 0.454545 
0 0.455329 0 0.456113 0 0.456897 0 0.45768 0 
0.458464 0 0.459248 0 0.460031 0 0.460815 0 0.461599 
0 0.462382 0 0.463166 0 0.46395 0 0.464734 0 
0.465517 0 0.466301 0 0.467085 0 0.467868 0 0.468652 
0 0.469436 0 0.470219 0 0.471003 0 0.471787 0 
0.472571 0 0.473354 0 0.474138 0 0.474922 0 0.475705 
0 0.476489 0 0.477273 0 0.478056 0 0.47884 0 
0.479624 0 0.480408 0 0.481191 0 0.481975 0 0.482759 
0 0.483542 0 0.484326 0 0.48511 0 0.485893 0 
0.486677 0 0.487461 0 0.488245 0 0.489028 0 0.489812 
0 0.490596 0 0.491379 0 0.492163 0 0.492947 0 
0.49373 0 0.494514 0 0.495298 0 0.496082 0 0.496865 
0 0.497649 0 0.498433 0 0.499216 0 0.5 0 
0.500784 0 0.501567 0 0.502351 0 0.503135 0 0.503918 
0 0.504702 0 0.505486 0 0.50627 0 0.507053 0 
0.507837 0 0.508621 0 0.509404 0 0.510188 0 0.510972 
0 0.511755 0 0.512539 0 0.513323 0 0.514107 0 
0.51489 0 0.515674 0 0.516458 0 0.517241 0 0.518025 
0 0.518809 0 0.519592 0 0.520376 0 0.52116 0 
0.521944 0 0.522727 0 0.523511 0 0.524295 0 0.525078 
0 0.525862 0 0.526646 0 0.527429 0 0.528213 0 
0.528997 0 0.529781 0 0.530564 0 0.531348 0 0.532132 
0 0.532915 0 0.533699 0 0.534483 0 0.535266 0 
0.53605 0 0.536834 0 0.537618 0 0.538401 0 0.539185 
0 0.539969 0 0.540752 0 0.541536 0 0.54232 0 
0.543103 0 0.543887 0 0.544671 0 0.545455 0 0.546238 
0 0.547022 0 0.547806 0 0.548589 0 0.549373 0 
0.550157 0 0.55094 0 0.551724 0 0.552508 0 0.553292 
0 0.554075 0 0.554859 0 0.555643 0 0.556426 0 
0.55721 0 0.557994 0 0.558777 0 0.559561 0 0.560345 
0 0.561128 0 0.561912 0 0.562696 0 0.56348 0 
0.564263 0 0.565047 0 0.565831 0 0.566614 0 0.567398 
0 0.568182 0 0.568965 0 0.569749 0 0.570533 0 
0.571317 0 0.5721 0 0.572884 0 0.573668 0 0.574451 
0 0.575235 0 0.576019 0 0.576802 0 0.577586 0 
0.57837 0 0.579154 0 0.579937 0 0.580721 0 0.581505 
0 0.582288 0 0.583072 0 0.583856 0 0.584639 0 
0.585423 0 0.586207 0 0.586991 0 0.587774 0 0.588558 
0 0.589342 0 0.590125 0 0.590909 0 0.591693 0 
0.592476 0 0.59326 0 0.594044 0 0.594828 0 0.595611 
0 0.596395 0 0.597179 0 0.597962 0 0.598746 0 
0.59953 0 0.600313 0 0.601097 0 0.601881 0 0.602665 
0 0.603448 0 0.604232 0 0.605016 0 0.605799 0 
0.606583 0 0.607367 0 0.60815 0 0.608934 0 0.609718 
0 0.610502 0 0.611285 0 0.612069 0 0.612853 0 
0.613636 0 0.61442 0 0.615204 0 0.615987 0 0.616771 
0 0.617555 0 0.618339 0 0.619122 0 0.619906 0 
0.62069 0 0.621473 0 0.622257 0 0.623041 0 0.623824 
0 0.624608 0 0.625392 0 0.626176 0 0.626959 0 
0.627743 0 0.628527 0 0.62931 0 0.630094 0 0.630878 
0 0.631661 0 0.632445 0 0.633229 0 0.634013 0 
0.634796 0 0.63558 0 0.636364 0 0.637147 0 0.637931 
0 0.638715 0 0.639498 0 0.640282 0 0.641066 0 
0.64185 0 0.642633 0 0.643417 0 0.644201 0 0.644984 
0 0.645768 0 0.646552 0 0.647335 0 0.648119 0 
0.648903 0 0.649687 0 0.65047 0 0.651254 0 0.652038 
0 0.652821 0 0.653605 0 0.654389 0 0.655172 0 
0.655956 0 0.65674 0 0.657524 0 0.658307 0 0.659091 
0 0.659875 0 0.660658 0 0.661442 0 0.662226 0 