# vtk DataFile Version 4.2
vtk output
ASCII
DATASET POLYDATA
POINTS 1278 float
0 0 0 -0.00143773 -0.000878276 0.0037403 -0.00565473 -0.00343134 0.0146394 
-0.0125067 -0.00753654 0.0322147 -0.0218493 -0.0130712 0.0559835 -0.0335383 -0.0199128 0.0854631 
-0.0474294 -0.0279385 0.120171 -0.0633782 -0.0370257 0.159624 -0.0812404 -0.0470519 0.20334 
-0.100872 -0.0578943 0.250837 -0.122128 -0.0694302 0.30163 -0.144865 -0.0815372 0.355239 
-0.168938 -0.0940924 0.41118 -0.194203 -0.106973 0.468971 -0.220516 -0.120057 0.528128 
-0.247732 -0.133221 0.588169 -0.275707 -0.146343 0.648612 -0.304297 -0.1593 0.708974 
-0.333357 -0.17197 0.768773 -0.362744 -0.184229 0.827524 -0.392312 -0.195955 0.884747 
-0.421918 -0.207025 0.939958 -0.451452 -0.217352 0.992803 -0.480919 -0.226955 1.04334 
-0.510346 -0.235879 1.09171 -0.539761 -0.244166 1.13806 -0.569191 -0.25186 1.18253 
-0.598663 -0.259003 1.22526 -0.628204 -0.26564 1.2664 -0.657843 -0.271813 1.30608 
-0.687605 -0.277566 1.34445 -0.717519 -0.282942 1.38165 -0.747612 -0.287984 1.41783 
-0.777911 -0.292736 1.45312 -0.808444 -0.29724 1.48767 -0.839238 -0.30154 1.52161 
-0.870319 -0.305679 1.55511 -0.901717 -0.309701 1.58828 -0.933457 -0.313648 1.62129 
-0.965567 -0.317565 1.65426 -0.998075 -0.321493 1.68734 -1.03101 -0.325475 1.72068 
-1.06437 -0.329526 1.7543 -1.09815 -0.333637 1.78817 -1.13233 -0.337801 1.82225 
-1.16692 -0.342012 1.85651 -1.20189 -0.34626 1.89091 -1.23724 -0.350538 1.9254 
-1.27295 -0.354839 1.95994 -1.30902 -0.359155 1.99451 -1.34543 -0.363479 2.02906 
-1.38217 -0.367802 2.06355 -1.41923 -0.372117 2.09794 -1.45661 -0.376416 2.1322 
-1.49428 -0.380692 2.16629 -1.53224 -0.384937 2.20016 -1.57049 -0.389143 2.23378 
-1.609 -0.393302 2.26712 -1.64776 -0.397408 2.30012 -1.68678 -0.401452 2.33276 
-1.72602 -0.405427 2.36499 -1.7655 -0.409325 2.39678 -1.80518 -0.413141 2.4281 
-1.84508 -0.416883 2.45895 -1.88519 -0.420556 2.48935 -1.9255 -0.42417 2.51932 
-1.96602 -0.427731 2.54886 -2.00673 -0.431248 2.57799 -2.04764 -0.434727 2.60672 
-2.08873 -0.438177 2.63506 -2.13002 -0.441606 2.66303 -2.17149 -0.44502 2.69064 
-2.21315 -0.448428 2.7179 -2.25498 -0.451837 2.74483 -2.29699 -0.455255 2.77143 
-2.33917 -0.458689 2.79773 -2.38151 -0.462147 2.82373 -2.42403 -0.465637 2.84945 
-2.4667 -0.469167 2.87489 -2.50954 -0.472744 2.90008 -2.55253 -0.476375 2.92503 
-2.59567 -0.480069 2.94974 -2.63897 -0.483832 2.97423 -2.68241 -0.487669 2.99851 
-2.72599 -0.491583 3.02256 -2.76971 -0.495577 3.04639 -2.81357 -0.499653 3.07 
-2.85757 -0.503815 3.09337 -2.9017 -0.508066 3.11652 -2.94595 -0.512408 3.13943 
-2.99034 -0.516846 3.16211 -3.03485 -0.521381 3.18455 -3.07947 -0.526017 3.20674 
-3.12422 -0.530758 3.2287 -3.16908 -0.535605 3.25041 -3.21405 -0.540561 3.27187 
-3.25914 -0.545631 3.29309 -3.30433 -0.550817 3.31405 -3.34962 -0.556122 3.33475 
-3.39501 -0.561549 3.3552 -3.44051 -0.5671 3.37539 -3.48609 -0.57278 3.39532 
-3.53177 -0.578591 3.41498 -3.57754 -0.584537 3.43438 -3.6234 -0.590622 3.45351 
-3.66934 -0.596851 3.47238 -3.71536 -0.603229 3.49099 -3.76146 -0.609759 3.50934 
-3.80763 -0.616448 3.52743 -3.85388 -0.623298 3.54525 -3.9002 -0.630315 3.56282 
-3.94659 -0.637503 3.58013 -3.99304 -0.644866 3.59718 -4.03956 -0.65241 3.61397 
-4.08613 -0.660139 3.63051 -4.13276 -0.668056 3.64679 -4.17945 -0.676168 3.66282 
-4.22618 -0.684478 3.6786 -4.27297 -0.69299 3.69412 -4.3198 -0.70171 3.70939 
-4.36668 -0.710642 3.72441 -4.41359 -0.719791 3.73918 -4.46054 -0.72916 3.7537 
-4.50753 -0.738754 3.76797 -4.55455 -0.748577 3.782 -4.6016 -0.758633 3.79577 
-4.64867 -0.768925 3.80929 -4.69576 -0.779457 3.82256 -4.74287 -0.790233 3.83557 
-4.78999 -0.801256 3.84833 -4.83712 -0.81253 3.86083 -4.88426 -0.824059 3.87308 
-4.93139 -0.835846 3.88508 -4.97853 -0.847895 3.89681 -5.02566 -0.86021 3.90829 
-5.07279 -0.872794 3.9195 -5.1199 -0.885652 3.93046 -5.16699 -0.898786 3.94115 
-5.21407 -0.912201 3.95159 -5.26112 -0.9259 3.96176 -5.30814 -0.939887 3.97166 
-5.35514 -0.954165 3.9813 -5.4021 -0.968739 3.99068 -5.44902 -0.983611 3.99979 
-5.4959 -0.998784 4.00863 -5.54273 -1.01426 4.0172 -5.58952 -1.03004 4.02551 
-5.63624 -1.04613 4.03354 -5.6829 -1.06252 4.04131 -5.7295 -1.07923 4.04881 
-5.77603 -1.09625 4.05604 -5.82248 -1.11359 4.06299 -5.86885 -1.13124 4.06968 
-5.91513 -1.14921 4.07609 -5.96133 -1.1675 4.08223 -6.00743 -1.18611 4.0881 
-6.05343 -1.20505 4.0937 -6.09933 -1.22431 4.09902 -6.14512 -1.2439 4.10406 
-6.1908 -1.26383 4.10883 -6.23636 -1.28408 4.11333 -6.2818 -1.30467 4.11755 
-6.32711 -1.3256 4.12149 -6.37229 -1.34686 4.12515 -6.41733 -1.36846 4.12854 
-6.46223 -1.3904 4.13165 -6.50698 -1.41267 4.13449 -6.55159 -1.43528 4.13705 
-6.59604 -1.45822 4.13934 -6.64033 -1.4815 4.14136 -6.68446 -1.50511 4.1431 
-6.72842 -1.52904 4.14458 -6.77221 -1.55331 4.14579 -6.81582 -1.5779 4.14673 
-6.85925 -1.60282 4.1474 -6.90249 -1.62806 4.14781 -6.94555 -1.65363 4.14795 
-6.98841 -1.67952 4.14783 -7.03107 -1.70574 4.14744 -7.07353 -1.73227 4.1468 
-7.11578 -1.75913 4.14589 -7.15781 -1.7863 4.14472 -7.19963 -1.81379 4.14329 
-7.24123 -1.8416 4.14161 -7.28261 -1.86972 4.13967 -7.32375 -1.89815 4.13747 
-7.36467 -1.92689 4.13503 -7.40536 -1.95593 4.13233 -7.44582 -1.98527 4.1294 
-7.48604 -2.01491 4.12622 -7.52603 -2.04484 4.1228 -7.56578 -2.07506 4.11914 
-7.60529 -2.10556 4.11525 -7.64456 -2.13635 4.11114 -7.68359 -2.16741 4.10679 
-7.72237 -2.19875 4.10222 -7.7609 -2.23036 4.09742 -7.79918 -2.26223 4.09241 
-7.83722 -2.29437 4.08718 -7.875 -2.32677 4.08174 -7.91253 -2.35942 4.07609 
-7.9498 -2.39233 4.07023 -7.98681 -2.42549 4.06416 -8.02357 -2.45889 4.05789 
-8.06006 -2.49253 4.05143 -8.09629 -2.52642 4.04477 -8.13226 -2.56053 4.03791 
-8.16798 -2.59488 4.03087 -8.20343 -2.62945 4.02364 -8.23862 -2.66425 4.01623 
-8.27356 -2.69927 4.00864 -8.30824 -2.73451 4.00087 -8.34266 -2.76996 3.99294 
-8.37683 -2.80562 3.98483 -8.41074 -2.84148 3.97656 -8.4444 -2.87755 3.96812 
-8.4778 -2.91382 3.95953 -8.51094 -2.95028 3.95078 -8.54384 -2.98694 3.94188 
-8.57648 -3.02378 3.93283 -8.60887 -3.06081 3.92363 -8.64101 -3.09801 3.9143 
-8.6729 -3.1354 3.90482 -8.70453 -3.17296 3.89521 -8.73592 -3.21069 3.88546 
-8.76706 -3.24859 3.87559 -8.79795 -3.28665 3.86559 -8.8286 -3.32488 3.85546 
-8.85901 -3.36326 3.84521 -8.88917 -3.4018 3.83485 -8.9191 -3.44049 3.82436 
-8.9488 -3.47933 3.81376 -8.97826 -3.51832 3.80305 -9.00749 -3.55746 3.79223 
-9.03649 -3.59673 3.78131 -9.06526 -3.63615 3.77028 -9.0938 -3.6757 3.75914 
-9.12213 -3.71538 3.74791 -9.15023 -3.75519 3.73658 -9.17811 -3.79513 3.72516 
-9.20577 -3.83519 3.71364 -9.23322 -3.87537 3.70204 -9.26046 -3.91568 3.69035 
-9.28748 -3.95609 3.67857 -9.3143 -3.99662 3.66672 -9.34091 -4.03726 3.65478 
-9.36731 -4.07801 3.64276 -9.39352 -4.11885 3.63066 -9.41953 -4.1598 3.61848 
-9.44535 -4.20084 3.60622 -9.47098 -4.24198 3.59387 -9.49643 -4.2832 3.58144 
-9.5217 -4.32451 3.56893 -9.54678 -4.36591 3.55634 -9.5717 -4.40738 3.54366 
-9.59644 -4.44893 3.5309 -9.62102 -4.49056 3.51805 -9.64544 -4.53225 3.50512 
-9.66969 -4.57401 3.49211 -9.69379 -4.61583 3.47901 -9.71774 -4.65771 3.46583 
-9.74154 -4.69965 3.45256 -9.76519 -4.74165 3.43921 -9.7887 -4.78369 3.42577 
-9.81208 -4.82578 3.41224 -9.83532 -4.86791 3.39863 -9.85843 -4.91008 3.38492 
-9.88142 -4.95229 3.37112 -9.90428 -4.99452 3.35722 -9.92704 -5.03679 3.34321 
-9.94969 -5.07907 3.3291 -9.97224 -5.12137 3.31487 -9.99468 -5.16369 3.30053 
-10.017 -5.20601 3.28607 -10.0393 -5.24833 3.27148 -10.0615 -5.29066 3.25676 
-10.0836 -5.33298 3.24191 -10.1056 -5.3753 3.22692 -10.1276 -5.4176 3.21178 
-10.1495 -5.45988 3.19651 -10.1714 -5.50214 3.18108 -10.1932 -5.54437 3.1655 
-10.2149 -5.58658 3.14976 -10.2366 -5.62875 3.13385 -10.2583 -5.67088 3.11778 
-10.28 -5.71296 3.10154 -10.3016 -5.75499 3.08511 -10.3232 -5.79696 3.06849 
-10.3448 -5.83886 3.05166 -10.3664 -5.88066 3.0346 -10.3879 -5.92238 3.01731 
-10.4095 -5.96399 2.99977 -10.4311 -6.00548 2.98197 -10.4526 -6.04684 2.96389 
-10.4742 -6.08808 2.94553 -10.4958 -6.12916 2.92686 -10.5174 -6.17008 2.90789 
-10.5391 -6.21084 2.88858 -10.5608 -6.25143 2.86894 -10.5825 -6.29182 2.84894 
-10.6042 -6.33201 2.82858 -10.626 -6.372 2.80785 -10.6479 -6.41177 2.78672 
-10.6698 -6.45131 2.76518 -10.6917 -6.4906 2.74323 -10.7137 -6.52965 2.72086 
-10.7358 -6.56844 2.69804 -10.7579 -6.60696 2.67478 -10.7801 -6.64519 2.65108 
-10.8023 -6.68314 2.62692 -10.8245 -6.72078 2.60231 -10.8468 -6.7581 2.57723 
-10.869 -6.79511 2.55169 -10.8913 -6.83177 2.52568 -10.9135 -6.8681 2.4992 
-10.9357 -6.90406 2.47223 -10.9579 -6.93966 2.44478 -10.9801 -6.97489 2.41684 
-11.0022 -7.00972 2.3884 -11.0243 -7.04416 2.35947 -11.0463 -7.07819 2.33002 
-11.0683 -7.1118 2.30007 -11.0902 -7.14497 2.26961 -11.112 -7.17771 2.23863 
-11.1337 -7.21 2.20712 -11.1553 -7.24182 2.17508 -11.1768 -7.27318 2.14252 
-11.1982 -7.30409 2.10945 -11.2194 -7.33454 2.07587 -11.2405 -7.36456 2.0418 
-11.2615 -7.39415 2.00725 -11.2823 -7.42331 1.97224 -11.303 -7.45206 1.93677 
-11.3234 -7.48041 1.90086 -11.3437 -7.50835 1.86451 -11.3638 -7.53591 1.82775 
-11.3836 -7.56308 1.79058 -11.4033 -7.58989 1.75301 -11.4227 -7.61632 1.71507 
-11.4419 -7.64241 1.67674 -11.4608 -7.66814 1.63806 -11.4795 -7.69354 1.59903 
-11.4979 -7.7186 1.55967 -11.516 -7.74334 1.51998 -11.5338 -7.76777 1.47998 
-11.5513 -7.79189 1.43968 -11.5686 -7.81572 1.39908 -11.5855 -7.83925 1.35821 
-11.6021 -7.86251 1.31707 -11.6183 -7.8855 1.27565 -11.6343 -7.90824 1.23398 
-11.6499 -7.93072 1.19206 -11.6652 -7.95296 1.1499 -11.6802 -7.97498 1.1075 
-11.6948 -7.99678 1.06488 -11.7091 -8.01836 1.02203 -11.7231 -8.03975 0.978976 
-11.7367 -8.06094 0.935718 -11.75 -8.08196 0.892264 -11.7629 -8.1028 0.848621 
-11.7754 -8.12348 0.804799 -11.7876 -8.14401 0.760805 -11.7995 -8.1644 0.716645 
-11.8109 -8.18466 0.67233 -11.8221 -8.2048 0.627865 -11.8328 -8.22482 0.583259 
-11.8432 -8.24474 0.538519 -11.8531 -8.26456 0.493652 -11.8628 -8.28429 0.448661 
-11.872 -8.30393 0.403554 -11.8809 -8.32348 0.358333 -11.8893 -8.34296 0.313006 
[...]
CELL_DATA 1
FIELD FieldData 2
Length 1 1 double
63.848386747 
Tortuosity 1 1 double
1.2525478519 
POINT_DATA 1278
SCALARS MaximumInscribedSphereRadius float
LOOKUP_TABLE default
0.93 0.931462 0.932923 0.934385 0.935847 0.937308 0.93877 0.940232 0.941693 
0.943155 0.944616 0.946078 0.94754 0.949001 0.950463 0.951925 0.953386 0.954848 
0.95631 0.957771 0.959233 0.960659 0.961628 0.962596 0.963565 0.964534 0.965502 
0.966471 0.967439 0.968408 0.969376 0.970345 0.971314 0.972282 0.973251 0.974219 
0.975188 0.976156 0.977125 0.978093 0.979062 0.979693 0.98009 0.980487 0.980884 
0.98128 0.981677 0.982074 0.982471 0.982868 0.983265 0.983661 0.984058 0.984455 
0.984852 0.985249 0.985645 0.986042 0.986439 0.986836 0.987233 0.989914 1.01019 
1.03046 1.05074 1.07101 1.09129 1.11156 1.13184 1.15211 1.17238 1.19266 
1.21293 1.23321 1.25348 1.27376 1.29403 1.31431 1.33458 1.35485 1.37513 
1.3954 1.41496 1.4344 1.45384 1.47328 1.49271 1.51215 1.53159 1.55103 
1.57047 1.5899 1.60934 1.62878 1.64822 1.66765 1.68709 1.70653 1.72597 
1.7454 1.76484 1.78428 1.78296 1.76569 1.74841 1.73114 1.71386 1.69659 
1.67931 1.66203 1.64476 1.62748 1.61021 1.59293 1.57566 1.55838 1.5411 
1.52383 1.50655 1.48928 1.472 1.45472 1.43837 1.4244 1.41043 1.39646 
1.3825 1.36853 1.35456 1.3406 1.32663 1.31266 1.29869 1.28473 1.27076 
1.25679 1.24282 1.22886 1.21489 1.20092 1.18696 1.17299 1.15902 1.1494 
1.13981 1.13022 1.12064 1.11105 1.10146 1.09187 1.08229 1.0727 1.06311 
1.05352 1.04394 1.03435 1.02476 1.01517 1.00559 0.995998 0.98641 0.976823 
0.967235 0.968752 0.974817 0.980882 0.986947 0.993012 0.999078 1.00514 1.01121 
1.01727 1.02334 1.0294 1.03547 1.04153 1.0476 1.05366 1.05973 1.06579 
1.07186 1.07792 1.08399 1.09044 1.09742 1.10439 1.11136 1.11833 1.12531 
1.13228 1.13925 1.14622 1.1532 1.16017 1.16714 1.17411 1.18109 1.18806 
1.19503 1.20201 1.20898 1.21595 1.22292 1.22896 1.22951 1.23006 1.2306 
1.23115 1.2317 1.23225 1.2328 1.23335 1.23389 1.23444 1.23499 1.23554 
1.23609 1.23663 1.23718 1.23773 1.23828 1.23883 1.23938 1.23992 1.23474 
1.22863 1.22251 1.2164 1.21028 1.20417 1.19805 1.19194 1.18582 1.17971 
1.17359 1.16748 1.16136 1.15525 1.14913 1.14302 1.1369 1.13079 1.12467 
1.11856 1.11128 1.10313 1.09498 1.08683 1.07868 1.07053 1.06238 1.05423 
1.04608 1.03793 1.02978 1.02163 1.01348 1.00533 0.997178 0.989028 0.980879 
0.972729 0.964579 0.956429 0.954088 0.966511 0.978935 0.991358 1.00378 1.01621 
1.02863 1.04105 1.05348 1.0659 1.07832 1.09075 1.10317 1.11559 1.12802 
1.14044 1.15286 1.16529 1.17771 1.19014 1.20256 1.22601 1.24955 1.2731 
1.29664 1.32018 1.34373 1.36727 1.39081 1.41436 1.4379 1.46144 1.48499 
1.50853 1.53207 1.55562 1.57916 1.6027 1.62624 1.64979 1.67333 1.67339 
1.6634 1.6534 1.6434 1.63341 1.62341 1.61342 1.60342 1.59343 1.58343 
1.57343 1.56344 1.55344 1.54345 1.53345 1.52346 1.51346 1.50346 1.49347 
1.48347 1.47326 1.46277 1.45228 1.44179 1.4313 1.42081 1.41032 1.39983 
1.38934 1.37885 1.36836 1.35787 1.34738 1.33689 1.3264 1.31591 1.30542 
1.29493 1.28444 1.27395 1.26907 1.29419 1.3193 1.34442 1.36953 1.39465 
1.41977 1.44488 1.47 1.49511 1.52023 1.54535 1.57046 1.59558 1.62069 
1.64581 1.67092 1.69604 1.72116 1.74627 1.77139 1.76807 1.76072 1.75337 
1.74602 1.73868 1.73133 1.72398 1.71663 1.70928 1.70193 1.69458 1.68723 
1.67988 1.67253 1.66518 1.65783 1.65048 1.64313 1.63578 1.62843 1.62323 
1.61951 1.61579 1.61207 1.60835 1.60464 1.60092 1.5972 1.59348 1.58976 
1.58604 1.58232 1.5786 1.57489 1.57117 1.56745 1.56373 1.56001 1.55629 
1.55257 1.55 1.55 1.55 1.55 1.55 1.55 1.55 1.55 
1.55 1.55 1.55 1.55 1.55 1.55 1.55 1.55 1.55 
1.55 1.55 1.55 1.55 1.55 1.55 1.55 1.55 1.55 
1.55 1.55 1.55 1.55 1.55 1.55 1.55 1.55 1.55 
1.55 1.55 1.55 1.55 1.55 1.55 1.54783 1.54487 1.54192 
1.53897 1.53602 1.53307 1.53012 1.52716 1.52421 1.52126 1.51831 1.51536 
1.51241 1.50945 1.5065 1.50355 1.5006 1.49765 1.4947 1.49174 1.48619 
1.47747 1.46874 1.46001 1.45129 1.44256 1.43383 1.42511 1.41638 1.40765 
1.39893 1.3902 1.38147 1.37275 1.36402 1.35529 1.34657 1.33784 1.32911 
1.32039 1.31371 1.31735 1.32098 1.32461 1.32825 1.33188 1.33551 1.33915 
1.34278 1.34641 1.35005 1.35368 1.35731 1.36094 1.36458 1.36821 1.37184 
1.37548 1.37911 1.38274 1.38638 1.39791 1.41051 1.42311 1.43571 1.44831 
1.46091 1.47351 1.48611 1.49871 1.51132 1.52392 1.53652 1.54912 1.56172 
1.57432 1.58692 1.59952 1.61212 1.62472 1.63732 1.64848 1.6584 1.66833 
1.67825 1.68817 1.69809 1.70801 1.71793 1.72785 1.73777 1.74769 1.75761 
1.76753 1.77745 1.78738 1.7973 1.80722 1.81714 1.82706 1.82537 1.81438 
1.80339 1.7924 1.78141 1.77042 1.75943 1.74844 1.73745 1.72646 1.71547 
1.70448 1.6935 1.68251 1.67152 1.66053 1.64954 1.63855 1.62756 1.61657 
1.60558 1.58853 1.5712 1.55387 1.53654 1.51922 1.50189 1.48456 1.46724 
1.44991 1.43258 1.41525 1.39793 1.3806 1.36327 1.34595 1.32862 1.31129 
1.29397 1.27664 1.25931 1.25384 1.25313 1.25242 1.25172 1.25101 1.2503 
1.2496 1.24889 1.24818 1.24748 1.24677 1.24606 1.24536 1.24465 1.24394 
1.24324 1.24253 1.24182 1.24111 1.24041 1.24 1.24 1.24 1.24 
1.24 1.24 1.24 1.24 1.24 1.24 1.24 1.24 1.24 
1.24 1.24 1.24 1.24 1.24 1.24 1.24 1.24 1.24 
1.24 1.24 1.24 1.24 1.24 1.24 1.24 1.24 1.24 
1.24 1.24 1.24 1.24 1.24 1.24 1.24 1.24 1.24 
1.24 1.24 1.24 1.24 1.24 1.24 1.24 1.24 1.24 
1.24 1.24 1.24 1.24 1.24 1.24 1.24 1.24 1.24 
1.24 1.24 1.24 1.24022 1.24061 1.24101 1.24141 1.2418 1.2422 
1.24259 1.24299 1.24338 1.24378 1.24417 1.24457 1.24497 1.24536 1.24576 
1.24615 1.24655 1.24694 1.24734 1.24774 1.24827 1.24918 1.25008 1.25099 
1.25189 1.2528 1.2537 1.25461 1.25551 1.25642 1.25732 1.25823 1.25913 
1.26004 1.26094 1.26185 1.26275 1.26366 1.26456 1.26547 1.26631 1.26556 
1.26481 1.26406 1.26331 1.26256 1.26181 1.26106 1.26031 1.25955 1.2588 
1.25805 1.2573 1.25655 1.2558 1.25505 1.2543 1.25355 1.2528 1.25205 
1.2513 1.2553 1.26064 1.26598 1.27132 1.27667 1.28201 1.28735 1.2927 
1.29804 1.30338 1.30873 1.31407 1.31941 1.32476 1.3301 1.33544 1.34079 
1.34613 1.35147 1.35681 1.36406 1.37321 1.38236 1.39151 1.40066 1.40981 
1.41896 1.4281 1.43725 1.4464 1.45555 1.4647 1.47385 1.483 1.49214 
1.50129 1.51044 1.51959 1.52874 1.53789 1.54695 1.55571 1.56446 1.57321 
1.58197 1.59072 1.59948 1.60823 1.61698 1.62574 1.63449 1.64325 1.652 
1.66076 1.66951 1.67826 1.68702 1.69577 1.70453 1.71328 1.72203 1.7281 
1.73395 1.7398 1.74565 1.7515 1.75736 1.76321 1.76906 1.77491 1.78076 
1.78661 1.79246 1.79832 1.80417 1.81002 1.81587 1.82172 1.82757 1.83342 
1.83927 1.84199 1.84291 1.84382 1.84474 1.84566 1.84657 1.84749 1.8484 
1.84932 1.85024 1.85115 1.85207 1.85299 1.8539 1.85482 1.85573 1.85665 
1.85757 1.85848 1.8594 1.85883 1.85543 1.85202 1.84862 1.84521 1.84181 
1.83841 1.835 1.8316 1.8282 1.82479 1.82139 1.81798 1.81458 1.81118 
1.80777 1.80437 1.80096 1.79756 1.79416 1.79048 1.78176 1.77304 1.76431 
1.75559 1.74687 1.73815 1.72943 1.72071 1.71199 1.70327 1.69455 1.68583 
1.67711 1.66839 1.65966 1.65094 1.64222 1.6335 1.62478 1.61606 1.60714 
1.59815 1.58917 1.58018 1.57119 1.56221 1.55322 1.54423 1.53525 1.52626 
1.51728 1.50829 1.4993 1.49032 1.48133 1.47234 1.46336 1.45437 1.44539 
1.4364 1.42854 1.42194 1.41535 1.40876 1.40216 1.39557 1.38898 1.38238 
1.37579 1.3692 1.36261 1.35601 1.34942 1.34283 1.33623 1.32964 1.32305 
1.31645 1.30986 1.30327 1.29902 1.3056 1.31218 1.31876 1.32534 1.33192 
1.3385 1.34508 1.35166 1.35824 1.36482 1.3714 1.37798 1.38456 1.39114 
1.39772 1.4043 1.41088 1.41746 1.42404 1.43062 1.43655 1.4424 1.44825 
1.4541 1.45995 1.4658 1.47165 1.4775 1.48335 1.4892 1.49505 1.5009 
1.50675 1.5126 1.51844 1.52429 1.53014 1.53599 1.54184 1.54769 1.55 
1.55 1.55 1.55 1.55 1.55 1.55 1.55 1.55 1.55 
1.55 1.55 1.55 1.55 1.55 1.55 1.55 1.55 1.55 
1.55 1.55 1.55 1.55 1.55 1.55 1.55 1.55 1.55 
1.55 1.55 1.55 1.55 1.55 1.55 1.55 1.55 1.55 
1.55 1.55 1.55 1.54995 1.5487 1.54745 1.54619 1.54494 1.54369 
1.54244 1.54119 1.53994 1.53868 1.53743 1.53618 1.53493 1.53368 1.53243 
1.53117 1.52992 1.52867 1.52742 1.52617 1.52492 1.52123 1.51674 1.51226 
1.50778 1.5033 1.49882 1.49434 1.48986 1.48537 1.48089 1.47641 1.47193 
1.46745 1.46297 1.45848 1.454 1.44952 1.44504 1.44056 1.43608 1.43161 
1.42716 1.4227 1.41825 1.4138 1.40935 1.40489 1.40044 1.39599 1.39153 
1.38708 1.38263 1.37818 1.37372 1.36927 1.36482 1.36037 1.35591 1.35146 
1.34701 1.34275 1.33936 1.33598 1.33259 1.32921 1.32583 1.32244 1.31906 
1.31567 1.31229 1.30891 1.30552 1.30214 1.29875 1.29537 1.29199 1.2886 
1.28522 1.28183 1.27845 1.27506 1.2797 1.28533 1.29096 1.2966 1.30223 
1.30786 1.31349 1.31912 1.32476 1.33039 1.33602 1.34165 1.34729 1.35292 
1.35855 1.36418 1.36982 1.37545 1.38108 1.38671 1.39646 1.40895 1.42145 
1.43395 1.44644 1.45894 1.47144 1.48393 1.49643 1.50893 1.52142 1.53392 
1.54642 1.55891 1.57141 1.58391 1.59641 1.6089 1.6214 1.6339 1.65252 
1.68484 1.71717 1.74949 1.78182 1.81414 1.84647 1.87879 1.91112 1.94344 
1.97577 2.00809 2.04042 2.07274 2.10506 2.13739 2.16971 2.20204 2.23436 
2.26669 2.29849 2.303 2.30752 2.31203 2.31655 2.32106 2.32558 2.33009 
2.33461 2.33912 2.34364 2.34816 2.35267 2.35719 2.3617 2.36622 2.37073 
2.37525 2.37976 2.38428 2.38879 2.37484 2.35408 2.33332 2.31256 2.2918 
2.27103 2.25027 2.22951 2.20875 2.18799 2.16723 2.14646 2.1257 2.10494 
2.08418 2.06342 2.04266 2.0219 2.00113 1.98037 1.97181 1.97864 1.98547 
1.99231 1.99914 2.00597 2.0128 2.01963 2.02646 2.0333 2.04013 2.04696 
2.05379 2.06062 2.06745 2.07429 2.08112 2.08795 2.09478 2.10161 2.11004 
2.12714 2.14423 2.16132 2.17842 2.19551 2.21261 2.2297 2.2468 2.26389 
2.28099 2.29808 2.31518 2.33227 2.34936 2.36646 2.38355 2.40065 2.41774 
2.43484 2.45193 2.47306 2.49463 2.51621 2.53779 2.55937 2.58095 2.60252 
2.6241 2.64568 2.66726 2.68884 2.71041 2.73199 2.75357 2.77515 2.79673 
2.8183 2.83988 2.86146 2.88304 2.89191 2.88127 2.87062 2.85998 2.84933 
2.83869 2.82804 2.81739 2.80675 2.7961 2.78546 2.77481 2.76417 2.75352 
2.74287 2.73223 2.72158 2.71094 2.70029 2.68965 2.66563 2.64085 2.61607 
2.59129 2.5665 2.54172 2.51694 2.49216 2.46738 2.4426 2.41782 2.39303 
2.36825 2.34347 2.31869 2.29391 2.26913 2.24434 2.21956 2.19478 2.17 

TEXTURE_COORDINATES TCoords 2 float
0 0 0.000783085 0 0.00156617 0 0.00234926 0 0.00313234 
0 0.00391543 0 0.00469851 0 0.0054816 0 0.00626468 0 
0.00704777 0 0.00783085 0 0.00861394 0 0.00939702 0 0.0101801 
0 0.0109632 0 0.0117463 0 0.0125294 0 0.0133125 0 
0.0140955 0 0.0148786 0 0.0156617 0 0.0164448 0 0.0172279 
0 0.018011 0 0.018794 0 0.0195771 0 0.0203602 0 
0.0211433 0 0.0219264 0 0.0227095 0 0.0234926 0 0.0242756 
0 0.0250587 0 0.0258418 0 0.0266249 0 0.027408 0 
0.0281911 0 0.0289742 0 0.0297572 0 0.0305403 0 0.0313234 
0 0.0321065 0 0.0328896 0 0.0336727 0 0.0344558 0 
0.0352388 0 0.0360219 0 0.036805 0 0.0375881 0 0.0383712 
0 0.0391543 0 0.0399374 0 0.0407204 0 0.0415035 0 
0.0422866 0 0.0430697 0 0.0438528 0 0.0446359 0 0.045419 
0 0.046202 0 0.0469851 0 0.0477682 0 0.0485513 0 
0.0493344 0 0.0501175 0 0.0509005 0 0.0516836 0 0.0524667 
0 0.0532498 0 0.0540329 0 0.054816 0 0.0555991 0 
0.0563821 0 0.0571652 0 0.0579483 0 0.0587314 0 0.0595145 
0 0.0602976 0 0.0610807 0 0.0618637 0 0.0626468 0 
0.0634299 0 0.064213 0 0.0649961 0 0.0657792 0 0.0665623 
0 0.0673453 0 0.0681284 0 0.0689115 0 0.0696946 0 
0.0704777 0 0.0712608 0 0.0720439 0 0.0728269 0 0.07361 
0 0.0743931 0 0.0751762 0 0.0759593 0 0.0767424 0 
0.0775255 0 0.0783085 0 0.0790916 0 0.0798747 0 0.0806578 
0 0.0814409 0 0.082224 0 0.083007 0 0.0837901 0 
0.0845732 0 0.0853563 0 0.0861394 0 0.0869225 0 0.0877056 
0 0.0884886 0 0.0892717 0 0.0900548 0 0.0908379 0 
0.091621 0 0.0924041 0 0.0931872 0 0.0939702 0 0.0947533 
0 0.0955364 0 0.0963195 0 0.0971026 0 0.0978857 0 
0.0986688 0 0.0994518 0 0.100235 0 0.101018 0 0.101801 
0 0.102584 0 0.103367 0 0.10415 0 0.104933 0 
0.105717 0 0.1065 0 0.107283 0 0.108066 0 0.108849 
0 0.109632 0 0.110415 0 0.111198 0 0.111981 0 
0.112764 0 0.113547 0 0.11433 0 0.115114 0 0.115897 
0 0.11668 0 0.117463 0 0.118246 0 0.119029 0 
0.119812 0 0.120595 0 0.121378 0 0.122161 0 0.122944 
0 0.123727 0 0.124511 0 0.125294 0 0.126077 0 
0.12686 0 0.127643 0 0.128426 0 0.129209 0 0.129992 
0 0.130775 0 0.131558 0 0.132341 0 0.133125 0 
0.133908 0 0.134691 0 0.135474 0 0.136257 0 0.13704 
0 0.137823 0 0.138606 0 0.139389 0 0.140172 0 
0.140955 0 0.141738 0 0.142522 0 0.143305 0 0.144088 
0 0.144871 0 0.145654 0 0.146437 0 0.14722 0 
0.148003 0 0.148786 0 0.149569 0 0.150352 0 0.151135 
0 0.151919 0 0.152702 0 0.153485 0 0.154268 0 
0.155051 0 0.155834 0 0.156617 0 0.1574 0 0.158183 
0 0.158966 0 0.159749 0 0.160533 0 0.161316 0 
0.162099 0 0.162882 0 0.163665 0 0.164448 0 0.165231 
0 0.166014 0 0.166797 0 0.16758 0 0.168363 0 
0.169146 0 0.16993 0 0.170713 0 0.171496 0 0.172279 
0 0.173062 0 0.173845 0 0.174628 0 0.175411 0 
0.176194 0 0.176977 0 0.17776 0 0.178543 0 0.179327 
0 0.18011 0 0.180893 0 0.181676 0 0.182459 0 
0.183242 0 0.184025 0 0.184808 0 0.185591 0 0.186374 
0 0.187157 0 0.18794 0 0.188724 0 0.189507 0 
0.19029 0 0.191073 0 0.191856 0 0.192639 0 0.193422 
0 0.194205 0 0.194988 0 0.195771 0 0.196554 0 
0.197338 0 0.198121 0 0.198904 0 0.199687 0 0.20047 
0 0.201253 0 0.202036 0 0.202819 0 0.203602 0 
0.204385 0 0.205168 0 0.205951 0 0.206735 0 0.207518 
0 0.208301 0 0.209084 0 0.209867 0 0.21065 0 
0.211433 0 0.212216 0 0.212999 0 0.213782 0 0.214565 
0 0.215348 0 0.216132 0 0.216915 0 0.217698 0 
0.218481 0 0.219264 0 0.220047 0 0.22083 0 0.221613 
0 0.222396 0 0.223179 0 0.223962 0 0.224745 0 
0.225529 0 0.226312 0 0.227095 0 0.227878 0 0.228661 
0 0.229444 0 0.230227 0 0.23101 0 0.231793 0 
0.232576 0 0.233359 0 0.234143 0 0.234926 0 0.235709 
0 0.236492 0 0.237275 0 0.238058 0 0.238841 0 
0.239624 0 0.240407 0 0.24119 0 0.241973 0 0.242756 
0 0.24354 0 0.244323 0 0.245106 0 0.245889 0 
0.246672 0 0.247455 0 0.248238 0 0.249021 0 0.249804 
0 0.250587 0 0.25137 0 0.252153 0 0.252937 0 
0.25372 0 0.254503 0 0.255286 0 0.256069 0 0.256852 
0 0.257635 0 0.258418 0 0.259201 0 0.259984 0 
0.260767 0 0.261551 0 0.262334 0 0.263117 0 0.2639 
0 0.264683 0 0.265466 0 0.266249 0 0.267032 0 
0.267815 0 0.268598 0 0.269381 0 0.270164 0 0.270948 
0 0.271731 0 0.272514 0 0.273297 0 0.27408 0 
0.274863 0 0.275646 0 0.276429 0 0.277212 0 0.277995 
0 0.278778 0 0.279561 0 0.280345 0 0.281128 0 
0.281911 0 0.282694 0 0.283477 0 0.28426 0 0.285043 
0 0.285826 0 0.286609 0 0.287392 0 0.288175 0 
0.288958 0 0.289742 0 0.290525 0 0.291308 0 0.292091 
0 0.292874 0 0.293657 0 0.29444 0 0.295223 0 
0.296006 0 0.296789 0 0.297572 0 0.298356 0 0.299139 
0 0.299922 0 0.300705 0 0.301488 0 0.302271 0 
0.303054 0 0.303837 0 0.30462 0 0.305403 0 0.306186 
0 0.306969 0 0.307753 0 0.308536 0 0.309319 0 
0.310102 0 0.310885 0 0.311668 0 0.312451 0 0.313234 
0 0.314017 0 0.3148 0 0.315583 0 0.316366 0 
0.31715 0 0.317933 0 0.318716 0 0.319499 0 0.320282 
0 0.321065 0 0.321848 0 0.322631 0 0.323414 0 
0.324197 0 0.32498 0 0.325763 0 0.326547 0 0.32733 
0 0.328113 0 0.328896 0 0.329679 0 0.330462 0 
0.331245 0 0.332028 0 0.332811 0 0.333594 0 0.334377 
0 0.335161 0 0.335944 0 0.336727 0 0.33751 0 
0.338293 0 0.339076 0 0.339859 0 0.340642 0 0.341425 
0 0.342208 0 0.342991 0 0.343774 0 0.344558 0 
0.345341 0 0.346124 0 0.346907 0 0.34769 0 0.348473 
0 0.349256 0 0.350039 0 0.350822 0 0.351605 0 
0.352388 0 0.353171 0 0.353955 0 0.354738 0 0.355521 
0 0.356304 0 0.357087 0 0.35787 0 0.358653 0 
0.359436 0 0.360219 0 0.361002 0 0.361785 0 0.362569 
0 0.363352 0 0.364135 0 0.364918 0 0.365701 0 
0.366484 0 0.367267 0 0.36805 0 0.368833 0 0.369616 
0 0.370399 0 0.371182 0 0.371966 0 0.372749 0 
0.373532 0 0.374315 0 0.375098 0 0.375881 0 0.376664 
0 0.377447 0 0.37823 0 0.379013 0 0.379796 0 
0.380579 0 0.381363 0 0.382146 0 0.382929 0 0.383712 
0 0.384495 0 0.385278 0 0.386061 0 0.386844 0 
0.387627 0 0.38841 0 0.389193 0 0.389977 0 0.39076 
0 0.391543 0 0.392326 0 0.393109 0 0.393892 0 
0.394675 0 0.395458 0 0.396241 0 0.397024 0 0.397807 
0 0.39859 0 0.399374 0 0.400157 0 0.40094 0 
0.401723 0 0.402506 0 0.403289 0 0.404072 0 0.404855 
0 0.405638 0 0.406421 0 0.407204 0 0.407987 0 
0.408771 0 0.409554 0 0.410337 0 0.41112 0 0.411903 
0 0.412686 0 0.413469 0 0.414252 0 0.415035 0 
0.415818 0 0.416601 0 0.417385 0 0.418168 0 0.418951 
0 0.419734 0 0.420517 0 0.4213 0 0.422083 0 
0.422866 0 0.423649 0 0.424432 0 0.425215 0 0.425998 
0 0.426782 0 0.427565 0 0.428348 0 0.429131 0 
0.429914 0 0.430697 0 0.43148 0 0.432263 0 0.433046 
0 0.433829 0 0.434612 0 0.435395 0 0.436179 0 
0.436962 0 0.437745 0 0.438528 0 0.439311 0 0.440094 
0 0.440877 0 0.44166 0 0.442443 0 0.443226 0 
0.444009 0 0.444792 0 0.445576 0 0.446359 0 0.447142 
0 0.447925 0 0.448708 0 0.449491 0 0.450274 0 
0.451057 0 0.45184 0 0.452623 0 0.453406 0 0.45419 
0 0.454973 0 0.455756 0 0.456539 0 0.457322 0 
0.458105 0 0.458888 0 0.459671 0 0.460454 0 0.461237 
0 0.46202 0 0.462803 0 0.463587 0 0.46437 0 
0.465153 0 0.465936 0 0.466719 0 0.467502 0 0.468285 
0 0.469068 0 0.469851 0 0.470634 0 0.471417 0 
0.4722 0 0.472984 0 0.473767 0 0.47455 0 0.475333 
0 0.476116 0 0.476899 0 0.477682 0 0.478465 0 
0.479248 0 0.480031 0 0.480814 0 0.481597 0 0.482381 
0 0.483164 0 0.483947 0 0.48473 0 0.485513 0 
0.486296 0 0.487079 0 0.487862 0 0.488645 0 0.489428 
0 0.490211 0 0.490995 0 0.491778 0 0.492561 0 
0.493344 0 0.494127 0 0.49491 0 0.495693 0 0.496476 
0 0.497259 0 0.498042 0 0.498825 0 0.499608 0 
0.500392 0 0.501175 0 0.501958 0 0.502741 0 0.503524 
0 0.504307 0 0.50509 0 0.505873 0 0.506656 0 
0.507439 0 0.508222 0 0.509005 0 0.509789 0 0.510572 
0 0.511355 0 0.512138 0 0.512921 0 0.513704 0 
0.514487 0 0.51527 0 0.516053 0 0.516836 0 0.517619 
0 0.518403 0 0.519186 0 0.519969 0 0.520752 0 
0.521535 0 0.522318 0 0.523101 0 0.523884 0 0.524667 
0 0.52545 0 0.526233 0 0.527016 0 0.5278 0 
0.528583 0 0.529366 0 0.530149 0 0.530932 0 0.531715 
0 0.532498 0 0.533281 0 0.534064 0 0.534847 0 
0.53563 0 0.536413 0 0.537197 0 0.53798 0 0.538763 
0 0.539546 0 0.540329 0 0.541112 0 0.541895 0 
0.542678 0 0.543461 0 0.544244 0 0.545027 0 0.545811 
0 0.546594 0 0.547377 0 0.54816 0 0.548943 0 
0.549726 0 0.550509 0 0.551292 0 0.552075 0 0.552858 
0 0.553641 0 0.554424 0 0.555207 0 0.555991 0 
0.556774 0 0.557557 0 0.55834 0 0.559123 0 0.559906 
0 0.560689 0 0.561472 0 0.562255 0 0.563038 0 
0.563821 0 0.564605 0 0.565388 0 0.566171 0 0.566954 
0 0.567737 0 0.56852 0 0.569303 0 0.570086 0 
0.570869 0 0.571652 0 0.572435 0 0.573218 0 0.574002 
0 0.574785 0 0.575568 0 0.576351 0 0.577134 0 
0.577917 0 0.5787 0 0.579483 0 0.580266 0 0.581049 
0 0.581832 0 0.582615 0 0.583399 0 0.584182 0 
0.584965 0 0.585748 0 0.586531 0 0.587314 0 0.588097 
0 0.58888 0 0.589663 0 0.590446 0 0.591229 0 
0.592013 0 0.592796 0 0.593579 0 0.594362 0 0.595145 
0 0.595928 0 0.596711 0 0.597494 0 0.598277 0 
0.59906 0 0.599843 0 0.600626 0 0.60141 0 0.602193 
0 0.602976 0 0.603759 0 0.604542 0 0.605325 0 
0.606108 0 0.606891 0 0.607674 0 0.608457 0 0.60924 
0 0.610023 0 0.610807 0 0.61159 0 0.612373 0 
0.613156 0 0.613939 0 0.614722 0 0.615505 0 0.616288 
0 0.617071 0 0.617854 0 0.618637 0 0.619421 0 
0.620204 0 0.620987 0 0.62177 0 0.622553 0 0.623336 
0 0.624119 0 0.624902 0 0.625685 0 0.626468 0 
0.627251 0 0.628034 0 0.628818 0 0.629601 0 0.630384 
0 0.631167 0 0.63195 0 0.632733 0 0.633516 0 
0.634299 0 0.635082 0 0.635865 0 0.636648 0 0.637432 
0 0.638215 0 0.638998 0 0.639781 0 0.640564 0 
0.641347 0 0.64213 0 0.642913 0 0.643696 0 0.644479 
0 0.645262 0 0.646045 0 0.646829 0 0.647612 0 
0.648395 0 0.649178 0 0.649961 0 0.650744 0 0.651527 
0 0.65231 0 0.653093 0 0.653876 0 0.654659 0 
0.655442 0 0.656226 0 0.657009 0 0.657792 0 0.658575 
0 0.659358 0 0.660141 0 0.660924 0 0.661707 0 
0.66249 0 0.663273 0 0.664056 0 0.664839 0 0.665623 
0 0.666406 0 0.667189 0 0.667972 0 0.668755 0 
0.669538 0 0.670321 0 0.671104 0 0.671887 0 0.67267 
0 0.673453 0 0.674236 0 0.67502 0 0.675803 0 
0.676586 0 0.677369 0 0.678152 0 0.678935 0 0.679718 
0 0.680501 0 0.681284 0 0.682067 0 0.68285 0 
0.683634 0 0.684417 0 0.6852 0 0.685983 0 0.686766 