# vtk DataFile Version 4.2
vtk output
ASCII
DATASET POLYDATA
POINTS 1278 float
0 0 0 -0.0027142 0.00222388 0.00212514 -0.0106471 0.00869037 0.00831834 
-0.0234841 0.0190917 0.0183063 -0.0409107 0.0331201 0.0318157 -0.0626123 0.0504678 0.0485731 
-0.0882743 0.0708271 0.0683054 -0.117582 0.0938902 0.0907392 -0.150222 0.119349 0.115601 
-0.185878 0.146897 0.142618 -0.224236 0.176225 0.171516 -0.264982 0.207026 0.202023 
-0.307801 0.238991 0.233864 -0.352378 0.271814 0.266767 -0.3984 0.305187 0.300458 
-0.445551 0.338801 0.334665 -0.493517 0.37235 0.369112 -0.541983 0.405524 0.403529 
-0.590635 0.438017 0.43764 -0.639158 0.469521 0.471173 -0.687238 0.499728 0.503854 
-0.734559 0.528329 0.53541 -0.780887 0.555101 0.56564 -0.826244 0.58009 0.594577 
-0.870708 0.6034 0.622308 -0.914357 0.625135 0.648915 -0.957267 0.645399 0.674483 
-0.999515 0.664295 0.699096 -1.04118 0.681928 0.722839 -1.08234 0.698401 0.745795 
-1.12307 0.713818 0.768048 -1.16345 0.728284 0.789683 -1.20355 0.741901 0.810784 
-1.24346 0.754774 0.831436 -1.28324 0.767007 0.851721 -1.32299 0.778704 0.871725 
-1.36276 0.789967 0.891532 -1.40266 0.800902 0.911226 -1.44274 0.811613 0.93089 
-1.48309 0.822202 0.95061 -1.52378 0.832774 0.970469 -1.56489 0.843428 0.990548 
-1.60644 0.854196 1.01087 -1.64841 0.865054 1.03142 -1.69077 0.875975 1.05218 
-1.7335 0.886936 1.07312 -1.77659 0.897911 1.09422 -1.82 0.908874 1.11546 
-1.86371 0.9198 1.13683 -1.90771 0.930664 1.1583 -1.95196 0.94144 1.17985 
-1.99645 0.952104 1.20146 -2.04115 0.962629 1.22311 -2.08604 0.97299 1.24478 
-2.1311 0.983163 1.26645 -2.1763 0.993122 1.28809 -2.22162 1.00284 1.30969 
-2.26704 1.01229 1.33123 -2.31254 1.02146 1.35268 -2.35809 1.03031 1.37403 
-2.40367 1.03881 1.39525 -2.44925 1.04696 1.41632 -2.49483 1.05472 1.43724 
-2.5404 1.0621 1.458 -2.58596 1.06911 1.47861 -2.63152 1.07577 1.49908 
-2.67708 1.08209 1.51941 -2.72265 1.08806 1.53962 -2.76822 1.09371 1.55972 
-2.8138 1.09904 1.5797 -2.85939 1.10406 1.59958 -2.905 1.10878 1.61936 
-2.95062 1.11322 1.63905 -2.99627 1.11737 1.65867 -3.04194 1.12126 1.67821 
-3.08764 1.12488 1.69768 -3.13337 1.12826 1.7171 -3.17914 1.1314 1.73646 
-3.22494 1.13431 1.75578 -3.27077 1.13699 1.77507 -3.31666 1.13947 1.79433 
-3.36258 1.14174 1.81356 -3.40856 1.14383 1.83278 -3.45458 1.14572 1.85199 
-3.50065 1.14741 1.87119 -3.54675 1.14891 1.89036 -3.5929 1.15021 1.90953 
-3.63908 1.15131 1.92868 -3.68529 1.1522 1.94781 -3.73153 1.15289 1.96692 
-3.77779 1.15336 1.98601 -3.82409 1.15363 2.00509 -3.8704 1.15368 2.02414 
-3.91673 1.15352 2.04318 -3.96308 1.15313 2.06219 -4.00944 1.15253 2.08119 
-4.0558 1.1517 2.10015 -4.10218 1.15065 2.1191 -4.14856 1.14936 2.13802 
-4.19494 1.14785 2.15692 -4.24132 1.14611 2.17579 -4.2877 1.14412 2.19463 
-4.33407 1.1419 2.21345 -4.38043 1.13945 2.23224 -4.42678 1.13675 2.25101 
-4.47312 1.1338 2.26975 -4.51944 1.13062 2.28847 -4.56575 1.12719 2.30716 
-4.61205 1.12352 2.32584 -4.65833 1.11959 2.34449 -4.70459 1.11542 2.36313 
-4.75083 1.111 2.38175 -4.79705 1.10633 2.40035 -4.84324 1.10141 2.41893 
-4.88942 1.09624 2.4375 -4.93556 1.09081 2.45606 -4.98169 1.08512 2.47461 
-5.02778 1.07918 2.49314 -5.07384 1.07298 2.51166 -5.11988 1.06653 2.53018 
-5.16588 1.05981 2.54869 -5.21185 1.05283 2.56719 -5.25778 1.04559 2.58568 
-5.30368 1.03808 2.60417 -5.34954 1.03031 2.62266 -5.39536 1.02226 2.64113 
-5.44113 1.01394 2.65961 -5.48685 1.00533 2.67807 -5.53253 0.996449 2.69652 
-5.57815 0.987279 2.71497 -5.62372 0.977818 2.73341 -5.66923 0.968065 2.75184 
-5.71468 0.958014 2.77026 -5.76007 0.947663 2.78867 -5.80539 0.937008 2.80706 
-5.85065 0.926045 2.82545 -5.89583 0.91477 2.84382 -5.94094 0.903181 2.86218 
-5.98597 0.891273 2.88052 -6.03093 0.879043 2.89886 -6.0758 0.866488 2.91717 
-6.12059 0.853603 2.93547 -6.16529 0.840386 2.95376 -6.2099 0.826832 2.97203 
-6.25442 0.812938 2.99028 -6.29884 0.798702 3.00851 -6.34316 0.784119 3.02671 
-6.38738 0.769188 3.04489 -6.43149 0.753903 3.06304 -6.47548 0.738263 3.08115 
-6.51937 0.722264 3.09923 -6.56313 0.705902 3.11726 -6.60677 0.689175 3.13526 
-6.65028 0.672079 3.15321 -6.69367 0.654611 3.17112 -6.73692 0.636767 3.18898 
-6.78003 0.618546 3.20678 -6.823 0.599942 3.22453 -6.86583 0.580953 3.24222 
-6.90851 0.561576 3.25985 -6.95103 0.541808 3.27742 -6.9934 0.521645 3.29492 
-7.03561 0.501084 3.31235 -7.07766 0.480122 3.32971 -7.11954 0.458759 3.34699 
-7.16125 0.436995 3.36419 -7.2028 0.414833 3.38131 -7.24416 0.392273 3.39833 
-7.28536 0.369316 3.41525 -7.32637 0.345962 3.43206 -7.3672 0.322214 3.44877 
-7.40785 0.298072 3.46536 -7.44831 0.273537 3.48183 -7.48858 0.24861 3.49817 
-7.52866 0.223293 3.51439 -7.56855 0.197585 3.53046 -7.60824 0.171489 3.54639 
-7.64773 0.145005 3.56217 -7.68701 0.118134 3.5778 -7.7261 0.090878 3.59327 
-7.76497 0.063237 3.60857 -7.80364 0.0352124 3.62371 -7.84209 0.00680519 3.63866 
-7.88033 -0.0219835 3.65344 -7.91835 -0.0511501 3.66802 -7.95616 -0.0806888 3.68242 
-7.99376 -0.110594 3.69661 -8.03115 -0.140859 3.7106 -8.06832 -0.171479 3.72439 
-8.10529 -0.202447 3.73795 -8.14205 -0.233758 3.7513 -8.1786 -0.265406 3.76441 
-8.21495 -0.297384 3.7773 -8.2511 -0.329687 3.78994 -8.28704 -0.36231 3.80234 
-8.32279 -0.395245 3.8145 -8.35833 -0.428488 3.82639 -8.39368 -0.462032 3.83803 
-8.42884 -0.495872 3.8494 -8.46379 -0.530001 3.86049 -8.49856 -0.564414 3.87131 
-8.53313 -0.599104 3.88184 -8.56751 -0.634066 3.89209 -8.60171 -0.669295 3.90204 
-8.63571 -0.704782 3.91169 -8.66954 -0.740522 3.92103 -8.70318 -0.776506 3.93007 
-8.73666 -0.812726 3.93879 -8.76996 -0.849175 3.9472 -8.8031 -0.885845 3.95529 
-8.83608 -0.922729 3.96305 -8.86891 -0.959818 3.97048 -8.90158 -0.997105 3.97759 
-8.93411 -1.03458 3.98435 -8.9665 -1.07224 3.99078 -8.99875 -1.11008 3.99686 
-9.03087 -1.14808 4.0026 -9.06286 -1.18624 4.00798 -9.09472 -1.22455 4.01301 
-9.12647 -1.26301 4.01768 -9.15811 -1.30161 4.02198 -9.18963 -1.34033 4.02591 
-9.22105 -1.37917 4.02948 -9.25237 -1.41813 4.03267 -9.28359 -1.45719 4.03547 
-9.31473 -1.49635 4.0379 -9.34577 -1.5356 4.03994 -9.37673 -1.57494 4.0416 
-9.40761 -1.61435 4.04287 -9.43842 -1.65383 4.04375 -9.46915 -1.69337 4.04423 
-9.49982 -1.73297 4.04432 -9.53042 -1.77261 4.04401 -9.56097 -1.8123 4.04331 
-9.59146 -1.85201 4.0422 -9.6219 -1.89176 4.04069 -9.65229 -1.93152 4.03877 
-9.68264 -1.97129 4.03645 -9.71295 -2.01106 4.03371 -9.74323 -2.05083 4.03057 
-9.77348 -2.09059 4.02701 -9.8037 -2.13033 4.02303 -9.8339 -2.17005 4.01864 
-9.86408 -2.20973 4.01382 -9.89424 -2.24938 4.00858 -9.9244 -2.28897 4.00292 
-9.95454 -2.32852 3.99683 -9.98466 -2.36801 3.99032 -10.0148 -2.40744 3.98339 
-10.0449 -2.4468 3.97602 -10.075 -2.48609 3.96824 -10.105 -2.52531 3.96002 
-10.1351 -2.56444 3.95138 -10.1651 -2.60349 3.94231 -10.1952 -2.64245 3.93282 
-10.2252 -2.6813 3.92289 -10.2552 -2.72006 3.91254 -10.2852 -2.75871 3.90176 
-10.3151 -2.79725 3.89055 -10.3451 -2.83568 3.8789 -10.375 -2.87398 3.86683 
-10.405 -2.91215 3.85433 -10.4349 -2.95019 3.84139 -10.4648 -2.9881 3.82803 
-10.4946 -3.02586 3.81423 -10.5245 -3.06348 3.8 -10.5543 -3.10095 3.78534 
-10.5841 -3.13827 3.77025 -10.6139 -3.17545 3.75474 -10.6437 -3.21247 3.73881 
-10.6734 -3.24935 3.72245 -10.703 -3.28607 3.70568 -10.7326 -3.32264 3.68849 
-10.7622 -3.35906 3.67088 -10.7917 -3.39533 3.65286 -10.8211 -3.43144 3.63444 
-10.8505 -3.46739 3.6156 -10.8798 -3.50319 3.59636 -10.909 -3.53882 3.57671 
-10.9381 -3.5743 3.55667 -10.9672 -3.60962 3.53622 -10.9962 -3.64478 3.51538 
-11.025 -3.67977 3.49414 -11.0538 -3.7146 3.4725 -11.0825 -3.74927 3.45048 
-11.1111 -3.78377 3.42807 -11.1395 -3.81811 3.40527 -11.1679 -3.85229 3.38209 
-11.1961 -3.88632 3.35854 -11.2242 -3.92018 3.3346 -11.2521 -3.95389 3.3103 
-11.2799 -3.98745 3.28563 -11.3076 -4.02086 3.26059 -11.3351 -4.05413 3.23519 
-11.3625 -4.08724 3.20943 -11.3897 -4.12021 3.18332 -11.4167 -4.15305 3.15686 
-11.4435 -4.18574 3.13004 -11.4702 -4.21829 3.10289 -11.4967 -4.25071 3.07539 
-11.523 -4.283 3.04755 -11.5491 -4.31515 3.01937 -11.575 -4.34718 2.99087 
-11.6007 -4.37908 2.96204 -11.6262 -4.41085 2.93288 -11.6514 -4.44251 2.9034 
-11.6764 -4.47404 2.8736 -11.7012 -4.50546 2.84349 -11.7258 -4.53676 2.81307 
-11.7501 -4.56796 2.78235 -11.7742 -4.59905 2.75133 -11.798 -4.63004 2.72 
-11.8215 -4.66094 2.68839 -11.8448 -4.69174 2.65649 -11.8678 -4.72245 2.6243 
-11.8905 -4.75307 2.59183 -11.9129 -4.78361 2.55909 -11.9351 -4.81407 2.52607 
-11.9569 -4.84446 2.49279 -11.9785 -4.87477 2.45924 -11.9997 -4.90501 2.42543 
-12.0206 -4.93519 2.39137 -12.0412 -4.96531 2.35705 -12.0615 -4.99538 2.32249 
-12.0814 -5.02538 2.28769 -12.101 -5.05534 2.25265 -12.1202 -5.08525 2.21737 
-12.1391 -5.11512 2.18186 -12.1576 -5.14494 2.14613 -12.1758 -5.17473 2.11018 
-12.1936 -5.20448 2.07402 -12.211 -5.23421 2.03765 -12.2281 -5.2639 2.00108 
-12.2447 -5.29357 1.96431 -12.261 -5.32321 1.92735 -12.2768 -5.35284 1.8902 
-12.2923 -5.38245 1.85287 -12.3073 -5.41205 1.81536 -12.322 -5.44164 1.77768 
-12.3362 -5.47122 1.73983 -12.3499 -5.5008 1.70182 -12.3633 -5.53038 1.66365 
-12.3762 -5.55996 1.62534 -12.3886 -5.58954 1.58688 -12.4006 -5.61914 1.54827 
-12.4122 -5.64874 1.50954 -12.4233 -5.67837 1.47067 -12.4339 -5.708 1.43168 
-12.444 -5.73766 1.39257 -12.4537 -5.76733 1.35336 -12.4629 -5.79702 1.31405 
-12.4716 -5.82674 1.27464 -12.4798 -5.85647 1.23514 -12.4876 -5.88624 1.19556 
-12.4948 -5.91602 1.15591 -12.5015 -5.94584 1.11619 -12.5077 -5.97568 1.07641 
-12.5135 -6.00556 1.03658 -12.5187 -6.03546 0.996704 -12.5233 -6.0654 0.956789 
-12.5275 -6.09538 0.916842 -12.5311 -6.12538 0.876871 -12.5342 -6.15543 0.836882 
-12.5368 -6.18552 0.796882 -12.5388 -6.21564 0.756878 -12.5403 -6.24581 0.716878 
-12.5412 -6.27602 0.676889 -12.5416 -6.30627 0.636917 -12.5415 -6.33657 0.596973 
-12.5407 -6.3669 0.557063 -12.5395 -6.39728 0.517195 -12.5377 -6.4277 0.477378 
-12.5353 -6.45816 0.43762 -12.5324 -6.48866 0.397929 -12.5289 -6.5192 0.358313 
-12.5249 -6.54977 0.31878 -12.5203 -6.58039 0.279337 -12.5152 -6.61104 0.239994 
[...]
CELL_DATA 1
FIELD FieldData 2
Length 1 1 double
63.890647955 
Tortuosity 1 1 double
0.72247745466 
POINT_DATA 1278
SCALARS MaximumInscribedSphereRadius float
LOOKUP_TABLE default
1.581 1.56997 1.55893 1.5479 1.53687 1.52584 1.5148 1.50377 1.49274 
1.48171 1.47067 1.45964 1.44861 1.43758 1.42654 1.41551 1.40448 1.39345 
1.38241 1.37138 1.36035 1.34965 1.34401 1.33836 1.33271 1.32706 1.32142 
1.31577 1.31012 1.30447 1.29882 1.29318 1.28753 1.28188 1.27623 1.27058 
1.26494 1.25929 1.25364 1.24799 1.24234 1.24 1.24 1.24 1.24 
1.24 1.24 1.24 1.24 1.24 1.24 1.24 1.24 1.24 
1.24 1.24 1.24 1.24 1.24 1.24 1.24 1.24 1.24 
1.24 1.24 1.24 1.24 1.24 1.24 1.24 1.24 1.24 
1.24 1.24 1.24 1.24 1.24 1.24 1.24 1.24 1.24 
1.24 1.23764 1.23498 1.23232 1.22966 1.227 1.22434 1.22168 1.21902 
1.21636 1.2137 1.21104 1.20838 1.20572 1.20306 1.2004 1.19774 1.19508 
1.19242 1.18976 1.1871 1.18079 1.17215 1.16351 1.15486 1.14622 1.13758 
1.12894 1.1203 1.11166 1.10302 1.09438 1.08574 1.0771 1.06846 1.05982 
1.05117 1.04253 1.03389 1.02525 1.01661 1.01312 1.01994 1.02676 1.03358 
1.04039 1.04721 1.05403 1.06085 1.06767 1.07448 1.0813 1.08812 1.09494 
1.10176 1.10857 1.11539 1.12221 1.12903 1.13585 1.14266 1.15014 1.16836 
1.18658 1.2048 1.22302 1.24124 1.25946 1.27768 1.2959 1.31412 1.33234 
1.35056 1.36878 1.387 1.40522 1.42344 1.44166 1.45988 1.4781 1.49632 
1.51454 1.52789 1.53991 1.55193 1.56395 1.57597 1.58799 1.60001 1.61202 
1.62404 1.63606 1.64808 1.6601 1.67212 1.68414 1.69615 1.70817 1.72019 
1.73221 1.74423 1.75625 1.75965 1.75499 1.75033 1.74566 1.741 1.73634 
1.73167 1.72701 1.72235 1.71768 1.71302 1.70836 1.70369 1.69903 1.69437 
1.68971 1.68504 1.68038 1.67572 1.67105 1.66328 1.64601 1.62875 1.61148 
1.59422 1.57695 1.55968 1.54242 1.52515 1.50789 1.49062 1.47335 1.45609 
1.43882 1.42156 1.40429 1.38702 1.36976 1.35249 1.33523 1.31796 1.2975 
1.27696 1.25642 1.23589 1.21535 1.19481 1.17427 1.15373 1.13319 1.11265 
1.09211 1.07157 1.05103 1.03049 1.00996 0.989417 0.968878 0.948339 0.9278 
0.907261 0.906542 0.914187 0.921831 0.929476 0.93712 0.944764 0.952409 0.960053 
0.967698 0.975342 0.982987 0.990631 0.998276 1.00592 1.01356 1.02121 1.02885 
1.0365 1.04414 1.05179 1.06536 1.08669 1.10801 1.12934 1.15067 1.172 
1.19333 1.21465 1.23598 1.25731 1.27864 1.29997 1.32129 1.34262 1.36395 
1.38528 1.40661 1.42793 1.44926 1.47059 1.49054 1.50341 1.51628 1.52915 
1.54202 1.55489 1.56776 1.58064 1.59351 1.60638 1.61925 1.63212 1.64499 
1.65786 1.67074 1.68361 1.69648 1.70935 1.72222 1.73509 1.74796 1.74701 
1.74438 1.74175 1.73912 1.73649 1.73386 1.73123 1.7286 1.72596 1.72333 
1.7207 1.71807 1.71544 1.71281 1.71018 1.70755 1.70491 1.70228 1.69965 
1.69702 1.69092 1.68268 1.67444 1.6662 1.65796 1.64972 1.64148 1.63324 
1.625 1.61677 1.60853 1.60029 1.59205 1.58381 1.57557 1.56733 1.55909 
1.55085 1.54261 1.53438 1.52726 1.52222 1.51718 1.51214 1.5071 1.50206 
1.49702 1.49198 1.48695 1.48191 1.47687 1.47183 1.46679 1.46175 1.45671 
1.45167 1.44663 1.4416 1.43656 1.43152 1.42674 1.42486 1.42298 1.4211 
1.41922 1.41734 1.41546 1.41358 1.4117 1.40982 1.40794 1.40606 1.40418 
1.4023 1.40042 1.39854 1.39666 1.39478 1.3929 1.39102 1.38914 1.38811 
1.38727 1.38642 1.38558 1.38474 1.3839 1.38305 1.38221 1.38137 1.38053 
1.37968 1.37884 1.378 1.37716 1.37631 1.37547 1.37463 1.37379 1.37294 
1.3721 1.36962 1.36583 1.36204 1.35826 1.35447 1.35068 1.34689 1.34311 
1.33932 1.33553 1.33174 1.32796 1.32417 1.32038 1.31659 1.31281 1.30902 
1.30523 1.30144 1.29766 1.29306 1.28652 1.27999 1.27345 1.26691 1.26037 
1.25384 1.2473 1.24076 1.23422 1.22769 1.22115 1.21461 1.20807 1.20154 
1.195 1.18846 1.18192 1.17539 1.16885 1.16232 1.15614 1.14996 1.14378 
1.1376 1.13141 1.12523 1.11905 1.11287 1.10669 1.10051 1.09433 1.08814 
1.08196 1.07578 1.0696 1.06342 1.05724 1.05106 1.04487 1.03869 1.04973 
1.06582 1.08191 1.098 1.11409 1.13018 1.14627 1.16236 1.17845 1.19454 
1.21063 1.22672 1.24282 1.25891 1.275 1.29109 1.30718 1.32327 1.33936 
1.35545 1.36379 1.36553 1.36728 1.36902 1.37077 1.37251 1.37425 1.376 
1.37774 1.37948 1.38123 1.38297 1.38471 1.38646 1.3882 1.38994 1.39169 
1.39343 1.39517 1.39692 1.39648 1.39289 1.3893 1.3857 1.38211 1.37852 
1.37492 1.37133 1.36773 1.36414 1.36055 1.35695 1.35336 1.34977 1.34617 
1.34258 1.33899 1.33539 1.3318 1.3282 1.32595 1.33056 1.33516 1.33976 
1.34437 1.34897 1.35357 1.35817 1.36278 1.36738 1.37198 1.37659 1.38119 
1.38579 1.3904 1.395 1.3996 1.4042 1.40881 1.41341 1.41801 1.42313 
1.4283 1.43347 1.43865 1.44382 1.44899 1.45416 1.45934 1.46451 1.46968 
1.47485 1.48003 1.4852 1.49037 1.49554 1.50072 1.50589 1.51106 1.51623 
1.52141 1.5242 1.52551 1.52682 1.52814 1.52945 1.53076 1.53207 1.53339 
1.5347 1.53601 1.53732 1.53864 1.53995 1.54126 1.54257 1.54388 1.5452 
1.54651 1.54782 1.54913 1.54944 1.54781 1.54618 1.54454 1.54291 1.54128 
1.53964 1.53801 1.53637 1.53474 1.53311 1.53147 1.52984 1.52821 1.52657 
1.52494 1.5233 1.52167 1.52004 1.5184 1.51657 1.51195 1.50734 1.50272 
1.49811 1.49349 1.48888 1.48426 1.47965 1.47503 1.47042 1.46581 1.46119 
1.45658 1.45196 1.44735 1.44273 1.43812 1.4335 1.42889 1.42428 1.42462 
1.42622 1.42783 1.42943 1.43103 1.43264 1.43424 1.43584 1.43745 1.43905 
1.44065 1.44226 1.44386 1.44546 1.44707 1.44867 1.45027 1.45188 1.45348 
1.45509 1.45683 1.45869 1.46055 1.46242 1.46428 1.46615 1.46801 1.46988 
1.47174 1.47361 1.47547 1.47734 1.4792 1.48107 1.48293 1.4848 1.48666 
1.48853 1.49039 1.49226 1.49196 1.48506 1.47816 1.47127 1.46437 1.45747 
1.45058 1.44368 1.43678 1.42989 1.42299 1.41609 1.40919 1.4023 1.3954 
1.3885 1.38161 1.37471 1.36781 1.36092 1.35402 1.35522 1.35671 1.35819 
1.35968 1.36116 1.36264 1.36413 1.36561 1.3671 1.36858 1.37006 1.37155 
1.37303 1.37451 1.376 1.37748 1.37897 1.38045 1.38193 1.38342 1.39606 
1.41376 1.43145 1.44914 1.46684 1.48453 1.50223 1.51992 1.53761 1.55531 
1.573 1.5907 1.60839 1.62608 1.64378 1.66147 1.67917 1.69686 1.71456 
1.73225 1.74789 1.76057 1.77326 1.78595 1.79864 1.81132 1.82401 1.8367 
1.84938 1.86207 1.87476 1.88745 1.90013 1.91282 1.92551 1.9382 1.95088 
1.96357 1.97626 1.98895 2.00071 2.00642 2.01213 2.01785 2.02356 2.02927 
2.03499 2.0407 2.04641 2.05212 2.05784 2.06355 2.06926 2.07497 2.08069 
2.0864 2.09211 2.09783 2.10354 2.10925 2.11496 2.10948 2.10213 2.09477 
2.08742 2.08007 2.07272 2.06536 2.05801 2.05066 2.04331 2.03595 2.0286 
2.02125 2.0139 2.00654 1.99919 1.99184 1.98449 1.97713 1.96978 1.97073 
1.97761 1.98448 1.99135 1.99823 2.0051 2.01198 2.01885 2.02572 2.0326 
2.03947 2.04635 2.05322 2.06009 2.06697 2.07384 2.08072 2.08759 2.09446 
2.10134 2.11171 2.1298 2.14789 2.16598 2.18407 2.20216 2.22025 2.23835 
2.25644 2.27453 2.29262 2.31071 2.3288 2.34689 2.36498 2.38307 2.40116 
2.41925 2.43735 2.45544 2.47326 2.48457 2.49588 2.50719 2.5185 2.52981 
2.54112 2.55243 2.56374 2.57505 2.58635 2.59766 2.60897 2.62028 2.63159 
2.6429 2.65421 2.66552 2.67683 2.68814 2.69945 2.69412 2.68364 2.67317 
2.66269 2.65221 2.64174 2.63126 2.62078 2.61031 2.59983 2.58935 2.57888 
2.5684 2.55793 2.54745 2.53697 2.5265 2.51602 2.50554 2.49507 2.47941 
2.45827 2.43713 2.41599 2.39485 2.3737 2.35256 2.33142 2.31028 2.28914 
2.268 2.24686 2.22571 2.20457 2.18343 2.16229 2.14115 2.12001 2.09887 
2.07773 2.05935 2.05158 2.04382 2.03606 2.02829 2.02053 2.01277 2.005 
1.99724 1.98948 1.98171 1.97395 1.96618 1.95842 1.95066 1.94289 1.93513 
1.92737 1.9196 1.91184 1.90408 1.90943 1.91581 1.92219 1.92858 1.93496 
1.94134 1.94772 1.95411 1.96049 1.96687 1.97325 1.97964 1.98602 1.9924 
1.99878 2.00517 2.01155 2.01793 2.02431 2.0307 2.04377 2.0605 2.07723 
2.09395 2.11068 2.12741 2.14413 2.16086 2.17758 2.19431 2.21104 2.22776 
2.24449 2.26122 2.27794 2.29467 2.3114 2.32812 2.34485 2.36157 2.37411 
2.37943 2.38475 2.39006 2.39538 2.4007 2.40602 2.41133 2.41665 2.42197 
2.42729 2.4326 2.43792 2.44324 2.44856 2.45387 2.45919 2.46451 2.46983 
2.47514 2.47984 2.47796 2.47607 2.47419 2.47231 2.47043 2.46854 2.46666 
2.46478 2.4629 2.46102 2.45913 2.45725 2.45537 2.45349 2.45161 2.44972 
2.44784 2.44596 2.44408 2.4422 2.43506 2.42666 2.41826 2.40986 2.40145 
2.39305 2.38465 2.37625 2.36784 2.35944 2.35104 2.34264 2.33424 2.32583 
2.31743 2.30903 2.30063 2.29222 2.28382 2.27542 2.27418 2.27941 2.28464 
2.28987 2.2951 2.30033 2.30556 2.31079 2.31602 2.32125 2.32648 2.33171 
2.33694 2.34217 2.3474 2.35263 2.35786 2.36309 2.36833 2.37356 2.38178 
2.39919 2.4166 2.43401 2.45142 2.46882 2.48623 2.50364 2.52105 2.53846 
2.55587 2.57328 2.59068 2.60809 2.6255 2.64291 2.66032 2.67773 2.69514 
2.71254 2.72995 2.71489 2.69877 2.68265 2.66653 2.65041 2.63429 2.61817 
2.60205 2.58593 2.56981 2.55369 2.53757 2.52145 2.50533 2.48921 2.47309 
2.45697 2.44085 2.42473 2.40861 2.39202 2.37524 2.35845 2.34167 2.32489 
2.3081 2.29132 2.27453 2.25775 2.24096 2.22418 2.20739 2.19061 2.17383 
2.15704 2.14026 2.12347 2.10669 2.0899 2.07312 2.05887 2.04778 2.03669 
2.02561 2.01452 2.00343 1.99234 1.98125 1.97017 1.95908 1.94799 1.9369 
1.92581 1.91473 1.90364 1.89255 1.88146 1.87037 1.85929 1.8482 1.83724 
1.82679 1.81633 1.80587 1.79542 1.78496 1.77451 1.76405 1.75359 1.74314 
1.73268 1.72223 1.71177 1.70131 1.69086 1.6804 1.66994 1.65949 1.64903 
1.63858 1.62812 1.63525 1.64322 1.6512 1.65917 1.66715 1.67512 1.68309 
1.69107 1.69904 1.70702 1.71499 1.72297 1.73094 1.73891 1.74689 1.75486 
1.76284 1.77081 1.77879 1.78676 1.79842 1.81179 1.82517 1.83855 1.85193 
1.8653 1.87868 1.89206 1.90543 1.91881 1.93219 1.94556 1.95894 1.97232 
1.9857 1.99907 2.01245 2.02583 2.0392 2.05258 2.05673 2.04715 2.03757 
2.02799 2.01842 2.00884 1.99926 1.98968 1.9801 1.97052 1.96095 1.95137 
1.94179 1.93221 1.92263 1.91305 1.90348 1.8939 1.88432 1.87474 1.86457 
1.85028 1.83599 1.82169 1.8074 1.79311 1.77882 1.76452 1.75023 1.73594 
1.72165 1.70735 1.69306 1.67877 1.66448 1.65018 1.63589 1.6216 1.60731 
1.59301 1.57872 1.584 1.59259 1.60119 1.60978 1.61837 1.62697 1.63556 
1.64416 1.65275 1.66135 1.66994 1.67853 1.68713 1.69572 1.70432 1.71291 
1.7215 1.7301 1.73869 1.74729 1.75446 1.75963 1.7648 1.76997 1.77514 
1.78031 1.78548 1.79065 1.79582 1.80099 1.80616 1.81133 1.8165 1.82168 
1.82685 1.83202 1.83719 1.84236 1.84753 1.8527 1.85336 1.85369 1.85402 
1.85436 1.85469 1.85502 1.85535 1.85568 1.85602 1.85635 1.85668 1.85701 
1.85734 1.85768 1.85801 1.85834 1.85867 1.859 1.85934 1.85967 1.86 

TEXTURE_COORDINATES TCoords 2 float
0 0 0.000783085 0 0.00156617 0 0.00234926 0 0.00313234 
0 0.00391543 0 0.00469851 0 0.0054816 0 0.00626468 0 
0.00704777 0 0.00783085 0 0.00861394 0 0.00939702 0 0.0101801 
0 0.0109632 0 0.0117463 0 0.0125294 0 0.0133125 0 
0.0140955 0 0.0148786 0 0.0156617 0 0.0164448 0 0.0172279 
0 0.018011 0 0.018794 0 0.0195771 0 0.0203602 0 
0.0211433 0 0.0219264 0 0.0227095 0 0.0234926 0 0.0242756 
0 0.0250587 0 0.0258418 0 0.0266249 0 0.027408 0 
0.0281911 0 0.0289742 0 0.0297572 0 0.0305403 0 0.0313234 
0 0.0321065 0 0.0328896 0 0.0336727 0 0.0344558 0 
0.0352388 0 0.0360219 0 0.036805 0 0.0375881 0 0.0383712 
0 0.0391543 0 0.0399374 0 0.0407204 0 0.0415035 0 
0.0422866 0 0.0430697 0 0.0438528 0 0.0446359 0 0.045419 
0 0.046202 0 0.0469851 0 0.0477682 0 0.0485513 0 
0.0493344 0 0.0501175 0 0.0509005 0 0.0516836 0 0.0524667 
0 0.0532498 0 0.0540329 0 0.054816 0 0.0555991 0 
0.0563821 0 0.0571652 0 0.0579483 0 0.0587314 0 0.0595145 
0 0.0602976 0 0.0610807 0 0.0618637 0 0.0626468 0 
0.0634299 0 0.064213 0 0.0649961 0 0.0657792 0 0.0665623 
0 0.0673453 0 0.0681284 0 0.0689115 0 0.0696946 0 
0.0704777 0 0.0712608 0 0.0720439 0 0.0728269 0 0.07361 
0 0.0743931 0 0.0751762 0 0.0759593 0 0.0767424 0 
0.0775255 0 0.0783085 0 0.0790916 0 0.0798747 0 0.0806578 
0 0.0814409 0 0.082224 0 0.083007 0 0.0837901 0 
0.0845732 0 0.0853563 0 0.0861394 0 0.0869225 0 0.0877056 
0 0.0884886 0 0.0892717 0 0.0900548 0 0.0908379 0 
0.091621 0 0.0924041 0 0.0931872 0 0.0939702 0 0.0947533 
0 0.0955364 0 0.0963195 0 0.0971026 0 0.0978857 0 
0.0986688 0 0.0994518 0 0.100235 0 0.101018 0 0.101801 
0 0.102584 0 0.103367 0 0.10415 0 0.104933 0 
0.105717 0 0.1065 0 0.107283 0 0.108066 0 0.108849 
0 0.109632 0 0.110415 0 0.111198 0 0.111981 0 
0.112764 0 0.113547 0 0.11433 0 0.115114 0 0.115897 
0 0.11668 0 0.117463 0 0.118246 0 0.119029 0 
0.119812 0 0.120595 0 0.121378 0 0.122161 0 0.122944 
0 0.123727 0 0.124511 0 0.125294 0 0.126077 0 
0.12686 0 0.127643 0 0.128426 0 0.129209 0 0.129992 
0 0.130775 0 0.131558 0 0.132341 0 0.133125 0 
0.133908 0 0.134691 0 0.135474 0 0.136257 0 0.13704 
0 0.137823 0 0.138606 0 0.139389 0 0.140172 0 
0.140955 0 0.141738 0 0.142522 0 0.143305 0 0.144088 
0 0.144871 0 0.145654 0 0.146437 0 0.14722 0 
0.148003 0 0.148786 0 0.149569 0 0.150352 0 0.151135 
0 0.151919 0 0.152702 0 0.153485 0 0.154268 0 
0.155051 0 0.155834 0 0.156617 0 0.1574 0 0.158183 
0 0.158966 0 0.159749 0 0.160533 0 0.161316 0 
0.162099 0 0.162882 0 0.163665 0 0.164448 0 0.165231 
0 0.166014 0 0.166797 0 0.16758 0 0.168363 0 
0.169146 0 0.16993 0 0.170713 0 0.171496 0 0.172279 
0 0.173062 0 0.173845 0 0.174628 0 0.175411 0 
0.176194 0 0.176977 0 0.17776 0 0.178543 0 0.179327 
0 0.18011 0 0.180893 0 0.181676 0 0.182459 0 
0.183242 0 0.184025 0 0.184808 0 0.185591 0 0.186374 
0 0.187157 0 0.18794 0 0.188724 0 0.189507 0 
0.19029 0 0.191073 0 0.191856 0 0.192639 0 0.193422 
0 0.194205 0 0.194988 0 0.195771 0 0.196554 0 
0.197338 0 0.198121 0 0.198904 0 0.199687 0 0.20047 
0 0.201253 0 0.202036 0 0.202819 0 0.203602 0 
0.204385 0 0.205168 0 0.205951 0 0.206735 0 0.207518 
0 0.208301 0 0.209084 0 0.209867 0 0.21065 0 
0.211433 0 0.212216 0 0.212999 0 0.213782 0 0.214565 
0 0.215348 0 0.216132 0 0.216915 0 0.217698 0 
0.218481 0 0.219264 0 0.220047 0 0.22083 0 0.221613 
0 0.222396 0 0.223179 0 0.223962 0 0.224745 0 
0.225529 0 0.226312 0 0.227095 0 0.227878 0 0.228661 
0 0.229444 0 0.230227 0 0.23101 0 0.231793 0 
0.232576 0 0.233359 0 0.234143 0 0.234926 0 0.235709 
0 0.236492 0 0.237275 0 0.238058 0 0.238841 0 
0.239624 0 0.240407 0 0.24119 0 0.241973 0 0.242756 
0 0.24354 0 0.244323 0 0.245106 0 0.245889 0 
0.246672 0 0.247455 0 0.248238 0 0.249021 0 0.249804 
0 0.250587 0 0.25137 0 0.252153 0 0.252937 0 
0.25372 0 0.254503 0 0.255286 0 0.256069 0 0.256852 
0 0.257635 0 0.258418 0 0.259201 0 0.259984 0 
0.260767 0 0.261551 0 0.262334 0 0.263117 0 0.2639 
0 0.264683 0 0.265466 0 0.266249 0 0.267032 0 
0.267815 0 0.268598 0 0.269381 0 0.270164 0 0.270948 
0 0.271731 0 0.272514 0 0.273297 0 0.27408 0 
0.274863 0 0.275646 0 0.276429 0 0.277212 0 0.277995 
0 0.278778 0 0.279561 0 0.280345 0 0.281128 0 
0.281911 0 0.282694 0 0.283477 0 0.28426 0 0.285043 
0 0.285826 0 0.286609 0 0.287392 0 0.288175 0 
0.288958 0 0.289742 0 0.290525 0 0.291308 0 0.292091 
0 0.292874 0 0.293657 0 0.29444 0 0.295223 0 
0.296006 0 0.296789 0 0.297572 0 0.298356 0 0.299139 
0 0.299922 0 0.300705 0 0.301488 0 0.302271 0 
0.303054 0 0.303837 0 0.30462 0 0.305403 0 0.306186 
0 0.306969 0 0.307753 0 0.308536 0 0.309319 0 
0.310102 0 0.310885 0 0.311668 0 0.312451 0 0.313234 
0 0.314017 0 0.3148 0 0.315583 0 0.316366 0 
0.31715 0 0.317933 0 0.318716 0 0.319499 0 0.320282 
0 0.321065 0 0.321848 0 0.322631 0 0.323414 0 
0.324197 0 0.32498 0 0.325763 0 0.326547 0 0.32733 
0 0.328113 0 0.328896 0 0.329679 0 0.330462 0 
0.331245 0 0.332028 0 0.332811 0 0.333594 0 0.334377 
0 0.335161 0 0.335944 0 0.336727 0 0.33751 0 
0.338293 0 0.339076 0 0.339859 0 0.340642 0 0.341425 
0 0.342208 0 0.342991 0 0.343774 0 0.344558 0 
0.345341 0 0.346124 0 0.346907 0 0.34769 0 0.348473 
0 0.349256 0 0.350039 0 0.350822 0 0.351605 0 
0.352388 0 0.353171 0 0.353955 0 0.354738 0 0.355521 
0 0.356304 0 0.357087 0 0.35787 0 0.358653 0 
0.359436 0 0.360219 0 0.361002 0 0.361785 0 0.362569 
0 0.363352 0 0.364135 0 0.364918 0 0.365701 0 
0.366484 0 0.367267 0 0.36805 0 0.368833 0 0.369616 
0 0.370399 0 0.371182 0 0.371966 0 0.372749 0 
0.373532 0 0.374315 0 0.375098 0 0.375881 0 0.376664 
0 0.377447 0 0.37823 0 0.379013 0 0.379796 0 
0.380579 0 0.381363 0 0.382146 0 0.382929 0 0.383712 
0 0.384495 0 0.385278 0 0.386061 0 0.386844 0 
0.387627 0 0.38841 0 0.389193 0 0.389977 0 0.39076 
0 0.391543 0 0.392326 0 0.393109 0 0.393892 0 
0.394675 0 0.395458 0 0.396241 0 0.397024 0 0.397807 
0 0.39859 0 0.399374 0 0.400157 0 0.40094 0 
0.401723 0 0.402506 0 0.403289 0 0.404072 0 0.404855 
0 0.405638 0 0.406421 0 0.407204 0 0.407987 0 
0.408771 0 0.409554 0 0.410337 0 0.41112 0 0.411903 
0 0.412686 0 0.413469 0 0.414252 0 0.415035 0 
0.415818 0 0.416601 0 0.417385 0 0.418168 0 0.418951 
0 0.419734 0 0.420517 0 0.4213 0 0.422083 0 
0.422866 0 0.423649 0 0.424432 0 0.425215 0 0.425998 
0 0.426782 0 0.427565 0 0.428348 0 0.429131 0 
0.429914 0 0.430697 0 0.43148 0 0.432263 0 0.433046 
0 0.433829 0 0.434612 0 0.435395 0 0.436179 0 
0.436962 0 0.437745 0 0.438528 0 0.439311 0 0.440094 
0 0.440877 0 0.44166 0 0.442443 0 0.443226 0 
0.444009 0 0.444792 0 0.445576 0 0.446359 0 0.447142 
0 0.447925 0 0.448708 0 0.449491 0 0.450274 0 
0.451057 0 0.45184 0 0.452623 0 0.453406 0 0.45419 
0 0.454973 0 0.455756 0 0.456539 0 0.457322 0 
0.458105 0 0.458888 0 0.459671 0 0.460454 0 0.461237 
0 0.46202 0 0.462803 0 0.463587 0 0.46437 0 
0.465153 0 0.465936 0 0.466719 0 0.467502 0 0.468285 
0 0.469068 0 0.469851 0 0.470634 0 0.471417 0 
0.4722 0 0.472984 0 0.473767 0 0.47455 0 0.475333 
0 0.476116 0 0.476899 0 0.477682 0 0.478465 0 
0.479248 0 0.480031 0 0.480814 0 0.481597 0 0.482381 
0 0.483164 0 0.483947 0 0.48473 0 0.485513 0 
0.486296 0 0.487079 0 0.487862 0 0.488645 0 0.489428 
0 0.490211 0 0.490995 0 0.491778 0 0.492561 0 
0.493344 0 0.494127 0 0.49491 0 0.495693 0 0.496476 
0 0.497259 0 0.498042 0 0.498825 0 0.499608 0 
0.500392 0 0.501175 0 0.501958 0 0.502741 0 0.503524 
0 0.504307 0 0.50509 0 0.505873 0 0.506656 0 
0.507439 0 0.508222 0 0.509005 0 0.509789 0 0.510572 
0 0.511355 0 0.512138 0 0.512921 0 0.513704 0 
0.514487 0 0.51527 0 0.516053 0 0.516836 0 0.517619 
0 0.518403 0 0.519186 0 0.519969 0 0.520752 0 
0.521535 0 0.522318 0 0.523101 0 0.523884 0 0.524667 
0 0.52545 0 0.526233 0 0.527016 0 0.5278 0 
0.528583 0 0.529366 0 0.530149 0 0.530932 0 0.531715 
0 0.532498 0 0.533281 0 0.534064 0 0.534847 0 
0.53563 0 0.536413 0 0.537197 0 0.53798 0 0.538763 
0 0.539546 0 0.540329 0 0.541112 0 0.541895 0 
0.542678 0 0.543461 0 0.544244 0 0.545027 0 0.545811 
0 0.546594 0 0.547377 0 0.54816 0 0.548943 0 
0.549726 0 0.550509 0 0.551292 0 0.552075 0 0.552858 
0 0.553641 0 0.554424 0 0.555207 0 0.555991 0 
0.556774 0 0.557557 0 0.55834 0 0.559123 0 0.559906 
0 0.560689 0 0.561472 0 0.562255 0 0.563038 0 
0.563821 0 0.564605 0 0.565388 0 0.566171 0 0.566954 
0 0.567737 0 0.56852 0 0.569303 0 0.570086 0 
0.570869 0 0.571652 0 0.572435 0 0.573218 0 0.574002 
0 0.574785 0 0.575568 0 0.576351 0 0.577134 0 
0.577917 0 0.5787 0 0.579483 0 0.580266 0 0.581049 
0 0.581832 0 0.582615 0 0.583399 0 0.584182 0 
0.584965 0 0.585748 0 0.586531 0 0.587314 0 0.588097 
0 0.58888 0 0.589663 0 0.590446 0 0.591229 0 
0.592013 0 0.592796 0 0.593579 0 0.594362 0 0.595145 
0 0.595928 0 0.596711 0 0.597494 0 0.598277 0 
0.59906 0 0.599843 0 0.600626 0 0.60141 0 0.602193 
0 0.602976 0 0.603759 0 0.604542 0 0.605325 0 
0.606108 0 0.606891 0 0.607674 0 0.608457 0 0.60924 
0 0.610023 0 0.610807 0 0.61159 0 0.612373 0 
0.613156 0 0.613939 0 0.614722 0 0.615505 0 0.616288 
0 0.617071 0 0.617854 0 0.618637 0 0.619421 0 
0.620204 0 0.620987 0 0.62177 0 0.622553 0 0.623336 
0 0.624119 0 0.624902 0 0.625685 0 0.626468 0 
0.627251 0 0.628034 0 0.628818 0 0.629601 0 0.630384 
0 0.631167 0 0.63195 0 0.632733 0 0.633516 0 
0.634299 0 0.635082 0 0.635865 0 0.636648 0 0.637432 
0 0.638215 0 0.638998 0 0.639781 0 0.640564 0 
0.641347 0 0.64213 0 0.642913 0 0.643696 0 0.644479 
0 0.645262 0 0.646045 0 0.646829 0 0.647612 0 
0.648395 0 0.649178 0 0.649961 0 0.650744 0 0.651527 
0 0.65231 0 0.653093 0 0.653876 0 0.654659 0 
0.655442 0 0.656226 0 0.657009 0 0.657792 0 0.658575 
0 0.659358 0 0.660141 0 0.660924 0 0.661707 0 
0.66249 0 0.663273 0 0.664056 0 0.664839 0 0.665623 
0 0.666406 0 0.667189 0 0.667972 0 0.668755 0 