# vtk DataFile Version 4.2
vtk output
ASCII
DATASET POLYDATA
POINTS 1278 float
0 0 0 -0.00265666 0.00110059 0.00289169 -0.010414 0.0043165 0.0113164 
-0.0229531 0.00951894 0.0248988 -0.0399549 0.0165791 0.0432634 -0.0611005 0.0253683 0.0660346 
-0.086071 0.0357576 0.0928371 -0.114547 0.0476182 0.123295 -0.146211 0.0608215 0.157034 
-0.180742 0.0752386 0.193678 -0.217822 0.0907406 0.232851 -0.257132 0.107199 0.274178 
-0.298354 0.124485 0.317283 -0.341167 0.142469 0.361792 -0.385254 0.161023 0.407328 
-0.430295 0.180018 0.453516 -0.475971 0.199326 0.499981 -0.521963 0.218817 0.546348 
-0.567953 0.238363 0.59224 -0.613621 0.257834 0.637283 -0.658648 0.277103 0.6811 
-0.702716 0.29604 0.723317 -0.745583 0.314547 0.763651 -0.787279 0.33263 0.802145 
-0.827896 0.350319 0.838916 -0.867522 0.367645 0.874079 -0.906249 0.384636 0.907749 
-0.944167 0.401324 0.940041 -0.981367 0.417737 0.971072 -1.01794 0.433907 1.00096 
-1.05397 0.449862 1.02981 -1.08956 0.465633 1.05775 -1.12478 0.481249 1.08489 
-1.15974 0.496741 1.11134 -1.19453 0.512139 1.13723 -1.22923 0.527472 1.16266 
-1.26393 0.54277 1.18776 -1.29872 0.558063 1.21263 -1.33371 0.573382 1.2374 
-1.36896 0.588755 1.26217 -1.40458 0.604214 1.28707 -1.44066 0.619786 1.31221 
-1.47721 0.63548 1.33761 -1.51423 0.651286 1.36327 -1.55169 0.667191 1.38914 
-1.58957 0.683185 1.4152 -1.62784 0.699256 1.44142 -1.66648 0.715393 1.46776 
-1.70548 0.731585 1.49421 -1.7448 0.747821 1.52072 -1.78442 0.764089 1.54727 
-1.82433 0.780377 1.57383 -1.86449 0.796676 1.60036 -1.9049 0.812973 1.62685 
-1.94552 0.829257 1.65325 -1.98633 0.845517 1.67955 -2.02731 0.861742 1.70571 
-2.06844 0.87792 1.73169 -2.10969 0.89404 1.75748 -2.15104 0.910091 1.78304 
-2.19248 0.926062 1.80834 -2.23397 0.94194 1.83335 -2.2755 0.957719 1.85805 
-2.31708 0.973395 1.88245 -2.3587 0.988967 1.90655 -2.40039 1.00443 1.93036 
-2.44213 1.0198 1.9539 -2.48395 1.03505 1.97717 -2.52583 1.0502 2.00018 
-2.56779 1.06523 2.02293 -2.60984 1.08016 2.04544 -2.65198 1.09497 2.06771 
-2.69421 1.10967 2.08976 -2.73654 1.12426 2.11158 -2.77898 1.13873 2.1332 
-2.82153 1.15309 2.15461 -2.8642 1.16733 2.17583 -2.90699 1.18145 2.19686 
-2.94991 1.19545 2.21772 -2.99296 1.20933 2.23841 -3.03615 1.22308 2.25894 
-3.07949 1.23672 2.27931 -3.12298 1.25022 2.29955 -3.16662 1.2636 2.31964 
-3.2104 1.27685 2.33958 -3.25433 1.28996 2.35938 -3.2984 1.30293 2.37902 
-3.34262 1.31576 2.39852 -3.38697 1.32844 2.41786 -3.43145 1.34096 2.43705 
-3.47607 1.35333 2.45608 -3.52082 1.36553 2.47495 -3.5657 1.37757 2.49366 
-3.61071 1.38944 2.5122 -3.65584 1.40113 2.53059 -3.70109 1.41265 2.5488 
-3.74646 1.42398 2.56685 -3.79194 1.43512 2.58472 -3.83754 1.44608 2.60242 
-3.88326 1.45684 2.61995 -3.92908 1.4674 2.6373 -3.97501 1.47776 2.65448 
-4.02104 1.48791 2.67147 -4.06718 1.49785 2.68828 -4.11342 1.50757 2.70491 
-4.15976 1.51707 2.72137 -4.20621 1.52634 2.73764 -4.25275 1.53539 2.75375 
-4.29939 1.5442 2.76968 -4.34612 1.55277 2.78543 -4.39295 1.56109 2.80101 
-4.43988 1.56917 2.81643 -4.4869 1.577 2.83167 -4.53401 1.58457 2.84675 
-4.58122 1.59187 2.86166 -4.62851 1.59891 2.8764 -4.67589 1.60568 2.89098 
-4.72337 1.61218 2.9054 -4.77093 1.61839 2.91966 -4.81857 1.62432 2.93375 
-4.8663 1.62996 2.94769 -4.91411 1.63531 2.96147 -4.96201 1.64036 2.97509 
-5.00999 1.64511 2.98856 -5.05804 1.64954 3.00187 -5.10617 1.65366 3.01503 
-5.15437 1.65746 3.02804 -5.20264 1.66093 3.04089 -5.25097 1.66407 3.0536 
-5.29936 1.66686 3.06616 -5.34781 1.66931 3.07856 -5.39632 1.6714 3.09083 
-5.44487 1.67313 3.10294 -5.49348 1.6745 3.11491 -5.54213 1.67549 3.12674 
-5.59082 1.67611 3.13842 -5.63955 1.67634 3.14996 -5.68831 1.67618 3.16136 
-5.73711 1.67561 3.17262 -5.78593 1.67465 3.18374 -5.83478 1.67327 3.19473 
-5.88365 1.67148 3.20557 -5.93254 1.66927 3.21628 -5.98145 1.66662 3.22686 
-6.03036 1.66354 3.2373 -6.07928 1.66001 3.24762 -6.12818 1.65604 3.2578 
-6.17708 1.65161 3.26786 -6.22596 1.64673 3.27779 -6.27482 1.64137 3.2876 
-6.32364 1.63554 3.29729 -6.37243 1.62923 3.30685 -6.42117 1.62243 3.31631 
-6.46986 1.61515 3.32564 -6.51849 1.60736 3.33487 -6.56706 1.59907 3.34398 
-6.61555 1.59026 3.35299 -6.66397 1.58094 3.36188 -6.7123 1.5711 3.37067 
-6.76055 1.56072 3.37936 -6.80869 1.54981 3.38795 -6.85673 1.53835 3.39644 
-6.90466 1.52635 3.40483 -6.95247 1.51379 3.41313 -7.00015 1.50068 3.42133 
-7.0477 1.48701 3.42944 -7.09511 1.47278 3.43746 -7.14237 1.45801 3.44539 
-7.18947 1.44268 3.45323 -7.23641 1.42681 3.46099 -7.28317 1.41039 3.46866 
-7.32975 1.39342 3.47625 -7.37614 1.3759 3.48376 -7.42234 1.35784 3.49118 
-7.46833 1.33924 3.49853 -7.5141 1.3201 3.5058 -7.55965 1.30041 3.513 
-7.60498 1.28019 3.52012 -7.65006 1.25943 3.52716 -7.6949 1.23813 3.53414 
-7.73949 1.21629 3.54105 -7.78382 1.19392 3.54788 -7.82787 1.17102 3.55465 
-7.87165 1.14759 3.56136 -7.91515 1.12363 3.568 -7.95836 1.09916 3.57457 
-8.0013 1.07418 3.58108 -8.04395 1.04871 3.58751 -8.08633 1.02275 3.59388 
-8.12843 0.996319 3.60018 -8.17024 0.969426 3.6064 -8.21178 0.94208 3.61256 
-8.25304 0.914292 3.61864 -8.29402 0.886073 3.62464 -8.33473 0.857432 3.63057 
-8.37515 0.82838 3.63643 -8.4153 0.798928 3.6422 -8.45518 0.769086 3.6479 
-8.49477 0.738864 3.65352 -8.53409 0.708273 3.65906 -8.57314 0.677324 3.66451 
-8.61191 0.646026 3.66989 -8.6504 0.614391 3.67518 -8.68862 0.582428 3.68039 
-8.72657 0.550148 3.68551 -8.76425 0.51756 3.69054 -8.80168 0.484675 3.69548 
-8.83885 0.451501 3.70033 -8.87578 0.41805 3.70508 -8.91247 0.384329 3.70974 
-8.94894 0.350349 3.71429 -8.98518 0.31612 3.71874 -9.02121 0.281652 3.72309 
-9.05703 0.246953 3.72733 -9.09265 0.212034 3.73146 -9.12808 0.176904 3.73547 
-9.16332 0.141573 3.73938 -9.19839 0.106051 3.74316 -9.23328 0.0703473 3.74682 
-9.26801 0.0344716 3.75037 -9.30258 -0.00156636 3.75379 -9.337 -0.0377569 3.75708 
-9.37129 -0.0740904 3.76024 -9.40543 -0.110557 3.76327 -9.43945 -0.147148 3.76617 
-9.47335 -0.183854 3.76892 -9.50714 -0.220669 3.77154 -9.54082 -0.257585 3.77401 
-9.57441 -0.294595 3.77633 -9.60791 -0.33169 3.7785 -9.64133 -0.368864 3.78051 
-9.67468 -0.406109 3.78236 -9.70797 -0.443417 3.78405 -9.7412 -0.480781 3.78556 
-9.77439 -0.518193 3.7869 -9.80754 -0.555646 3.78807 -9.84065 -0.593132 3.78906 
-9.87375 -0.630644 3.78986 -9.90683 -0.668174 3.79047 -9.9399 -0.705715 3.79089 
-9.97298 -0.74326 3.79112 -10.0061 -0.780799 3.79114 -10.0392 -0.818327 3.79096 
-10.0723 -0.855836 3.79058 -10.1055 -0.893318 3.78998 -10.1387 -0.930765 3.78917 
-10.1719 -0.968168 3.78813 -10.2052 -1.00552 3.78687 -10.2386 -1.04281 3.78537 
-10.272 -1.08003 3.78363 -10.3055 -1.11718 3.78165 -10.3391 -1.15423 3.77941 
-10.3727 -1.1912 3.77692 -10.4065 -1.22806 3.77416 -10.4403 -1.26481 3.77114 
-10.4743 -1.30144 3.76784 -10.5083 -1.33794 3.76426 -10.5425 -1.3743 3.76039 
-10.5768 -1.41052 3.75623 -10.6112 -1.44659 3.75177 -10.6457 -1.48249 3.747 
-10.6804 -1.51823 3.74193 -10.7153 -1.55378 3.73654 -10.7502 -1.58914 3.73083 
-10.7854 -1.62431 3.72479 -10.8207 -1.65928 3.71842 -10.8561 -1.69403 3.71171 
-10.8917 -1.72857 3.70466 -10.9275 -1.76288 3.69725 -10.9634 -1.79695 3.6895 
-10.9995 -1.83078 3.68139 -11.0357 -1.86437 3.67292 -11.0721 -1.8977 3.66408 
-11.1086 -1.93076 3.65487 -11.1453 -1.96355 3.64528 -11.1821 -1.99607 3.63531 
-11.219 -2.02829 3.62495 -11.2561 -2.06023 3.6142 -11.2933 -2.09186 3.60306 
-11.3307 -2.12319 3.59151 -11.3681 -2.15419 3.57956 -11.4058 -2.18488 3.5672 
-11.4435 -2.21523 3.55442 -11.4814 -2.24525 3.54123 -11.5194 -2.27492 3.5276 
-11.5575 -2.30424 3.51355 -11.5958 -2.3332 3.49907 -11.6341 -2.36182 3.48416 
-11.6726 -2.39007 3.46882 -11.7111 -2.41797 3.45305 -11.7497 -2.44552 3.43686 
-11.7884 -2.47271 3.42023 -11.8272 -2.49954 3.40318 -11.866 -2.52601 3.3857 
-11.9049 -2.55212 3.36779 -11.9438 -2.57788 3.34946 -11.9828 -2.60327 3.3307 
-12.0218 -2.6283 3.31151 -12.0607 -2.65296 3.29189 -12.0997 -2.67727 3.27185 
-12.1388 -2.70121 3.25138 -12.1778 -2.72478 3.23049 -12.2167 -2.74799 3.20917 
-12.2557 -2.77083 3.18742 -12.2946 -2.79331 3.16525 -12.3335 -2.81541 3.14265 
-12.3724 -2.83716 3.11963 -12.4111 -2.85854 3.09619 -12.4499 -2.87957 3.07234 
-12.4885 -2.90026 3.04807 -12.5271 -2.92061 3.02339 -12.5656 -2.94061 2.9983 
-12.604 -2.96029 2.9728 -12.6423 -2.97965 2.9469 -12.6804 -2.99868 2.92061 
-12.7185 -3.0174 2.89391 -12.7564 -3.03582 2.86683 -12.7942 -3.05393 2.83935 
-12.8319 -3.07174 2.81148 -12.8694 -3.08926 2.78323 -12.9067 -3.10649 2.7546 
-12.9439 -3.12345 2.72558 -12.9809 -3.14013 2.69619 -13.0178 -3.15654 2.66643 
-13.0544 -3.17268 2.63629 -13.0908 -3.18857 2.60579 -13.1271 -3.2042 2.57492 
-13.1631 -3.2196 2.54369 -13.1989 -3.23476 2.5121 -13.2345 -3.24969 2.48014 
-13.2698 -3.26441 2.44783 -13.3049 -3.27893 2.41517 -13.3398 -3.29324 2.38214 
-13.3743 -3.30737 2.34877 -13.4087 -3.32131 2.31505 -13.4427 -3.33509 2.28098 
-13.4765 -3.3487 2.24656 -13.5099 -3.36215 2.21179 -13.5431 -3.37547 2.17669 
-13.576 -3.38864 2.14124 -13.6085 -3.40169 2.10546 -13.6407 -3.41462 2.06933 
-13.6726 -3.42744 2.03288 -13.7042 -3.44016 1.99609 -13.7354 -3.45278 1.95896 
-13.7662 -3.46532 1.92151 -13.7967 -3.47779 1.88374 -13.8268 -3.4902 1.84563 
-13.8565 -3.50255 1.80721 -13.8859 -3.51485 1.76846 -13.9148 -3.52712 1.72939 
-13.9432 -3.53936 1.69 -13.9713 -3.55158 1.6503 -13.9989 -3.5638 1.61028 
-14.026 -3.57602 1.56995 -14.0527 -3.58826 1.52931 -14.0789 -3.60051 1.48837 
-14.1045 -3.6128 1.44711 -14.1297 -3.62513 1.40555 -14.1543 -3.63751 1.36369 
-14.1784 -3.64996 1.32153 -14.202 -3.66247 1.27907 -14.225 -3.67506 1.23631 
-14.2474 -3.68774 1.19325 -14.2692 -3.70053 1.14991 -14.2904 -3.71342 1.10627 
-14.3111 -3.72643 1.06234 -14.3311 -3.73957 1.01814 -14.3504 -3.75284 0.973672 
-14.3691 -3.76625 0.928956 -14.3871 -3.77982 0.884002 -14.4044 -3.79354 0.838824 
-14.421 -3.80743 0.793433 -14.4369 -3.8215 0.747842 -14.4521 -3.83574 0.702064 
-14.4664 -3.85018 0.656113 -14.48 -3.86482 0.61 -14.4928 -3.87966 0.563738 
-14.5048 -3.89471 0.517341 -14.516 -3.90999 0.470821 -14.5263 -3.9255 0.42419 
[...]
CELL_DATA 1
FIELD FieldData 2
Length 1 1 double
63.884010815 
Tortuosity 1 1 double
0.8788065034 
POINT_DATA 1278
SCALARS MaximumInscribedSphereRadius float
LOOKUP_TABLE default
0.93 0.931836 0.933672 0.935508 0.937344 0.939181 0.941017 0.942853 0.944689 
0.946525 0.948361 0.950197 0.952033 0.95387 0.955706 0.957542 0.959378 0.961214 
0.96305 0.964886 0.966722 0.968726 0.974416 0.980106 0.985797 0.991487 0.997177 
1.00287 1.00856 1.01425 1.01994 1.02563 1.03132 1.03701 1.0427 1.04839 
1.05408 1.05977 1.06546 1.07115 1.07684 1.08371 1.09157 1.09943 1.10729 
1.11514 1.123 1.13086 1.13872 1.14658 1.15443 1.16229 1.17015 1.17801 
1.18587 1.19372 1.20158 1.20944 1.2173 1.22516 1.23301 1.23962 1.23964 
1.23966 1.23968 1.2397 1.23972 1.23974 1.23975 1.23977 1.23979 1.23981 
1.23983 1.23985 1.23987 1.23989 1.2399 1.23992 1.23994 1.23996 1.23998 
1.24 1.23582 1.23103 1.22624 1.22146 1.21667 1.21188 1.2071 1.20231 
1.19752 1.19273 1.18795 1.18316 1.17837 1.17359 1.1688 1.16401 1.15922 
1.15444 1.14965 1.14486 1.13779 1.12918 1.12058 1.11197 1.10337 1.09476 
1.08615 1.07755 1.06894 1.06034 1.05173 1.04312 1.03452 1.02591 1.01731 
1.0087 1.0001 0.99149 0.982884 0.974278 0.970902 0.978575 0.986248 0.993922 
1.00159 1.00927 1.01694 1.02461 1.03229 1.03996 1.04763 1.05531 1.06298 
1.07065 1.07832 1.086 1.09367 1.10134 1.10902 1.11669 1.124 1.124 
1.12401 1.12401 1.12402 1.12402 1.12403 1.12403 1.12404 1.12404 1.12404 
1.12405 1.12405 1.12406 1.12406 1.12407 1.12407 1.12408 1.12408 1.12408 
1.12409 1.11771 1.10953 1.10135 1.09317 1.08499 1.07681 1.06864 1.06046 
1.05228 1.0441 1.03592 1.02774 1.01956 1.01139 1.00321 0.995029 0.98685 
0.978672 0.970493 0.962315 0.964087 0.975046 0.986004 0.996963 1.00792 1.01888 
1.02984 1.0408 1.05175 1.06271 1.07367 1.08463 1.09559 1.10655 1.11751 
1.12846 1.13942 1.15038 1.16134 1.1723 1.18231 1.18954 1.19677 1.20401 
1.21124 1.21847 1.2257 1.23293 1.24017 1.2474 1.25463 1.26186 1.26909 
1.27633 1.28356 1.29079 1.29802 1.30525 1.31249 1.31972 1.32695 1.32297 
1.31872 1.31447 1.31023 1.30598 1.30173 1.29748 1.29323 1.28899 1.28474 
1.28049 1.27624 1.27199 1.26774 1.2635 1.25925 1.255 1.25075 1.2465 
1.24226 1.23405 1.22412 1.21418 1.20424 1.1943 1.18436 1.17443 1.16449 
1.15455 1.14461 1.13467 1.12474 1.1148 1.10486 1.09492 1.08498 1.07505 
1.06511 1.05517 1.04523 1.04304 1.05166 1.06028 1.06891 1.07753 1.08615 
1.09478 1.1034 1.11202 1.12065 1.12927 1.13789 1.14652 1.15514 1.16376 
1.17238 1.18101 1.18963 1.19825 1.20688 1.21583 1.22663 1.23743 1.24824 
1.25904 1.26984 1.28064 1.29145 1.30225 1.31305 1.32386 1.33466 1.34546 
1.35626 1.36707 1.37787 1.38867 1.39948 1.41028 1.42108 1.43189 1.4386 
1.4448 1.451 1.45721 1.46341 1.46961 1.47581 1.48201 1.48821 1.49441 
1.50061 1.50681 1.51301 1.51921 1.52541 1.53161 1.53781 1.54401 1.55021 
1.55641 1.5598 1.56147 1.56313 1.5648 1.56647 1.56814 1.56981 1.57148 
1.57315 1.57481 1.57648 1.57815 1.57982 1.58149 1.58316 1.58482 1.58649 
1.58816 1.58983 1.5915 1.59502 1.60194 1.60887 1.6158 1.62273 1.62965 
1.63658 1.64351 1.65043 1.65736 1.66429 1.67122 1.67814 1.68507 1.692 
1.69892 1.70585 1.71278 1.71971 1.72663 1.73273 1.73021 1.7277 1.72518 
1.72267 1.72015 1.71764 1.71512 1.7126 1.71009 1.70757 1.70506 1.70254 
1.70003 1.69751 1.695 1.69248 1.68997 1.68745 1.68494 1.68242 1.67982 
1.6772 1.67459 1.67197 1.66936 1.66674 1.66412 1.66151 1.65889 1.65628 
1.65366 1.65104 1.64843 1.64581 1.6432 1.64058 1.63796 1.63535 1.63273 
1.63012 1.6331 1.63942 1.64574 1.65206 1.65838 1.6647 1.67102 1.67734 
1.68366 1.68998 1.6963 1.70261 1.70893 1.71525 1.72157 1.72789 1.73421 
1.74053 1.74685 1.75317 1.75179 1.73831 1.72484 1.71136 1.69789 1.68441 
1.67094 1.65746 1.64399 1.63051 1.61704 1.60356 1.59009 1.57661 1.56314 
1.54966 1.53619 1.52271 1.50924 1.49576 1.48294 1.47459 1.46624 1.45789 
1.44953 1.44118 1.43283 1.42448 1.41613 1.40778 1.39942 1.39107 1.38272 
1.37437 1.36602 1.35767 1.34932 1.34096 1.33261 1.32426 1.31591 1.32236 
1.33125 1.34013 1.34902 1.35791 1.36679 1.37568 1.38457 1.39345 1.40234 
1.41123 1.42011 1.429 1.43789 1.44677 1.45566 1.46455 1.47343 1.48232 
1.49121 1.49642 1.49915 1.50187 1.5046 1.50733 1.51006 1.51278 1.51551 
1.51824 1.52097 1.5237 1.52642 1.52915 1.53188 1.53461 1.53734 1.54006 
1.54279 1.54552 1.54825 1.55326 1.5624 1.57154 1.58067 1.58981 1.59895 
1.60808 1.61722 1.62636 1.63549 1.64463 1.65377 1.6629 1.67204 1.68118 
1.69031 1.69945 1.70859 1.71772 1.72686 1.73563 1.74308 1.75053 1.75798 
1.76543 1.77288 1.78033 1.78778 1.79523 1.80268 1.81013 1.81757 1.82502 
1.83247 1.83992 1.84737 1.85482 1.86227 1.86972 1.87717 1.88462 1.87984 
1.87475 1.86966 1.86458 1.85949 1.8544 1.84932 1.84423 1.83915 1.83406 
1.82897 1.82389 1.8188 1.81371 1.80863 1.80354 1.79846 1.79337 1.78828 
1.7832 1.77028 1.75404 1.73779 1.72155 1.70531 1.68906 1.67282 1.65658 
1.64033 1.62409 1.60785 1.59161 1.57536 1.55912 1.54288 1.52663 1.51039 
1.49415 1.4779 1.46166 1.45731 1.46938 1.48145 1.49352 1.50558 1.51765 
1.52972 1.54179 1.55386 1.56593 1.578 1.59007 1.60213 1.6142 1.62627 
1.63834 1.65041 1.66248 1.67455 1.68662 1.69956 1.71789 1.73621 1.75453 
1.77285 1.79117 1.8095 1.82782 1.84614 1.86446 1.88278 1.90111 1.91943 
1.93775 1.95607 1.97439 1.99271 2.01104 2.02936 2.04768 2.066 2.06136 
2.05315 2.04495 2.03675 2.02854 2.02034 2.01214 2.00393 1.99573 1.98753 
1.97932 1.97112 1.96292 1.95471 1.94651 1.9383 1.9301 1.9219 1.91369 
1.90549 1.89584 1.8852 1.87456 1.86392 1.85328 1.84264 1.83201 1.82137 
1.81073 1.80009 1.78945 1.77881 1.76817 1.75753 1.74689 1.73625 1.72561 
1.71497 1.70433 1.69369 1.68568 1.68332 1.68095 1.67859 1.67623 1.67386 
1.6715 1.66914 1.66677 1.66441 1.66205 1.65968 1.65732 1.65496 1.65259 
1.65023 1.64787 1.64551 1.64314 1.64078 1.63885 1.64732 1.65579 1.66426 
1.67272 1.68119 1.68966 1.69813 1.7066 1.71507 1.72354 1.73201 1.74048 
1.74895 1.75741 1.76588 1.77435 1.78282 1.79129 1.79976 1.80823 1.81212 
1.81458 1.81703 1.81948 1.82194 1.82439 1.82684 1.82929 1.83175 1.8342 
1.83665 1.8391 1.84156 1.84401 1.84646 1.84891 1.85137 1.85382 1.85627 
1.85873 1.86186 1.86574 1.86962 1.8735 1.87738 1.88125 1.88513 1.88901 
1.89289 1.89677 1.90064 1.90452 1.9084 1.91228 1.91616 1.92003 1.92391 
1.92779 1.93167 1.93555 1.94047 1.94943 1.9584 1.96736 1.97633 1.98529 
1.99426 2.00322 2.01219 2.02115 2.03012 2.03908 2.04805 2.05701 2.06598 
2.07494 2.08391 2.09287 2.10184 2.1108 2.11977 2.12265 2.1251 2.12755 
2.13 2.13245 2.1349 2.13734 2.13979 2.14224 2.14469 2.14714 2.14959 
2.15203 2.15448 2.15693 2.15938 2.16183 2.16428 2.16672 2.16917 2.16719 
2.16294 2.15869 2.15444 2.1502 2.14595 2.1417 2.13745 2.13321 2.12896 
2.12471 2.12046 2.11621 2.11197 2.10772 2.10347 2.09922 2.09498 2.09073 
2.08648 2.0818 2.07646 2.07111 2.06576 2.06041 2.05506 2.04971 2.04436 
2.03902 2.03367 2.02832 2.02297 2.01762 2.01227 2.00692 2.00158 1.99623 
1.99088 1.98553 1.98018 1.97685 1.98929 2.00173 2.01416 2.0266 2.03904 
2.05147 2.06391 2.07635 2.08878 2.10122 2.11366 2.12609 2.13853 2.15097 
2.1634 2.17584 2.18828 2.20071 2.21315 2.22559 2.22518 2.2222 2.21922 
2.21624 2.21327 2.21029 2.20731 2.20433 2.20135 2.19838 2.1954 2.19242 
2.18944 2.18646 2.18349 2.18051 2.17753 2.17455 2.17157 2.1686 2.15397 
2.12986 2.10575 2.08164 2.05753 2.03342 2.00931 1.9852 1.96109 1.93699 
1.91288 1.88877 1.86466 1.84055 1.81644 1.79233 1.76822 1.74411 1.72 
1.69589 1.67684 1.67148 1.66612 1.66076 1.6554 1.65004 1.64468 1.63932 
1.63396 1.6286 1.62324 1.61788 1.61252 1.60716 1.6018 1.59644 1.59109 
1.58573 1.58037 1.57501 1.56965 1.58535 1.60132 1.61729 1.63326 1.64923 
1.6652 1.68118 1.69715 1.71312 1.72909 1.74506 1.76103 1.777 1.79297 
1.80895 1.82492 1.84089 1.85686 1.87283 1.8888 1.9108 1.93532 1.95983 
1.98434 2.00886 2.03337 2.05788 2.0824 2.10691 2.13142 2.15594 2.18045 
2.20497 2.22948 2.25399 2.27851 2.30302 2.32753 2.35205 2.37656 2.38827 
2.3826 2.37694 2.37127 2.36561 2.35994 2.35428 2.34861 2.34295 2.33728 
2.33162 2.32595 2.32029 2.31462 2.30896 2.30329 2.29763 2.29196 2.2863 
2.28063 2.27595 2.27719 2.27843 2.27967 2.28091 2.28215 2.28339 2.28463 
2.28587 2.28711 2.28836 2.2896 2.29084 2.29208 2.29332 2.29456 2.2958 
2.29704 2.29828 2.29952 2.30077 2.30767 2.31549 2.32332 2.33115 2.33897 
2.3468 2.35463 2.36246 2.37028 2.37811 2.38594 2.39376 2.40159 2.40942 
2.41724 2.42507 2.4329 2.44073 2.44855 2.45638 2.46026 2.46126 2.46226 
2.46327 2.46427 2.46527 2.46627 2.46728 2.46828 2.46928 2.47028 2.47128 
2.47229 2.47329 2.47429 2.47529 2.4763 2.4773 2.4783 2.4793 2.48132 
2.48567 2.49002 2.49437 2.49872 2.50307 2.50742 2.51178 2.51613 2.52048 
2.52483 2.52918 2.53353 2.53788 2.54223 2.54658 2.55093 2.55528 2.55963 
2.56398 2.568 2.56326 2.55853 2.5538 2.54907 2.54434 2.53961 2.53488 
2.53014 2.52541 2.52068 2.51595 2.51122 2.50649 2.50176 2.49702 2.49229 
2.48756 2.48283 2.4781 2.47337 2.45472 2.43201 2.40931 2.38661 2.3639 
2.3412 2.31849 2.29579 2.27309 2.25038 2.22768 2.20497 2.18227 2.15956 
2.13686 2.11416 2.09145 2.06875 2.04604 2.02334 2.01887 2.03208 2.04528 
2.05849 2.0717 2.08491 2.09812 2.11133 2.12454 2.13775 2.15096 2.16417 
2.17738 2.19059 2.2038 2.21701 2.23022 2.24343 2.25663 2.26984 2.28331 
2.2976 2.31189 2.32617 2.34046 2.35475 2.36904 2.38332 2.39761 2.4119 
2.42619 2.44048 2.45476 2.46905 2.48334 2.49763 2.51191 2.5262 2.54049 
2.55478 2.56906 2.57932 2.58942 2.59953 2.60963 2.61974 2.62984 2.63995 
2.65005 2.66016 2.67026 2.68037 2.69047 2.70058 2.71068 2.72078 2.73089 
2.74099 2.7511 2.7612 2.77131 2.77645 2.77931 2.78216 2.78502 2.78787 
2.79073 2.79358 2.79644 2.79929 2.80215 2.80501 2.80786 2.81072 2.81357 
2.81643 2.81928 2.82214 2.82499 2.82785 2.8307 2.83062 2.82618 2.82173 
2.81729 2.81284 2.8084 2.80395 2.79951 2.79506 2.79062 2.78617 2.78172 
2.77728 2.77283 2.76839 2.76394 2.7595 2.75505 2.75061 2.74616 2.74074 
2.72832 2.7159 2.70348 2.69106 2.67864 2.66622 2.6538 2.64138 2.62896 
2.61654 2.60412 2.5917 2.57928 2.56686 2.55444 2.54202 2.5296 2.51718 
2.50476 2.49234 2.48999 2.48963 2.48926 2.4889 2.48853 2.48816 2.4878 
2.48743 2.48707 2.4867 2.48633 2.48597 2.4856 2.48524 2.48487 2.4845 
2.48414 2.48377 2.4834 2.48304 2.4753 2.45883 2.44236 2.42588 2.40941 
2.39294 2.37646 2.35999 2.34352 2.32704 2.31057 2.29409 2.27762 2.26115 
2.24467 2.2282 2.21173 2.19525 2.17878 2.16231 2.1337 2.10452 2.07533 
2.04615 2.01696 1.98778 1.95859 1.92941 1.90022 1.87104 1.84185 1.81267 
1.78348 1.7543 1.72511 1.69593 1.66674 1.63756 1.60837 1.57919 1.55 

TEXTURE_COORDINATES TCoords 2 float
0 0 0.000783085 0 0.00156617 0 0.00234926 0 0.00313234 
0 0.00391543 0 0.00469851 0 0.0054816 0 0.00626468 0 
0.00704777 0 0.00783085 0 0.00861394 0 0.00939702 0 0.0101801 
0 0.0109632 0 0.0117463 0 0.0125294 0 0.0133125 0 
0.0140955 0 0.0148786 0 0.0156617 0 0.0164448 0 0.0172279 
0 0.018011 0 0.018794 0 0.0195771 0 0.0203602 0 
0.0211433 0 0.0219264 0 0.0227095 0 0.0234926 0 0.0242756 
0 0.0250587 0 0.0258418 0 0.0266249 0 0.027408 0 
0.0281911 0 0.0289742 0 0.0297572 0 0.0305403 0 0.0313234 
0 0.0321065 0 0.0328896 0 0.0336727 0 0.0344558 0 
0.0352388 0 0.0360219 0 0.036805 0 0.0375881 0 0.0383712 
0 0.0391543 0 0.0399374 0 0.0407204 0 0.0415035 0 
0.0422866 0 0.0430697 0 0.0438528 0 0.0446359 0 0.045419 
0 0.046202 0 0.0469851 0 0.0477682 0 0.0485513 0 
0.0493344 0 0.0501175 0 0.0509005 0 0.0516836 0 0.0524667 
0 0.0532498 0 0.0540329 0 0.054816 0 0.0555991 0 
0.0563821 0 0.0571652 0 0.0579483 0 0.0587314 0 0.0595145 
0 0.0602976 0 0.0610807 0 0.0618637 0 0.0626468 0 
0.0634299 0 0.064213 0 0.0649961 0 0.0657792 0 0.0665623 
0 0.0673453 0 0.0681284 0 0.0689115 0 0.0696946 0 
0.0704777 0 0.0712608 0 0.0720439 0 0.0728269 0 0.07361 
0 0.0743931 0 0.0751762 0 0.0759593 0 0.0767424 0 
0.0775255 0 0.0783085 0 0.0790916 0 0.0798747 0 0.0806578 
0 0.0814409 0 0.082224 0 0.083007 0 0.0837901 0 
0.0845732 0 0.0853563 0 0.0861394 0 0.0869225 0 0.0877056 
0 0.0884886 0 0.0892717 0 0.0900548 0 0.0908379 0 
0.091621 0 0.0924041 0 0.0931872 0 0.0939702 0 0.0947533 
0 0.0955364 0 0.0963195 0 0.0971026 0 0.0978857 0 
0.0986688 0 0.0994518 0 0.100235 0 0.101018 0 0.101801 
0 0.102584 0 0.103367 0 0.10415 0 0.104933 0 
0.105717 0 0.1065 0 0.107283 0 0.108066 0 0.108849 
0 0.109632 0 0.110415 0 0.111198 0 0.111981 0 
0.112764 0 0.113547 0 0.11433 0 0.115114 0 0.115897 
0 0.11668 0 0.117463 0 0.118246 0 0.119029 0 
0.119812 0 0.120595 0 0.121378 0 0.122161 0 0.122944 
0 0.123727 0 0.124511 0 0.125294 0 0.126077 0 
0.12686 0 0.127643 0 0.128426 0 0.129209 0 0.129992 
0 0.130775 0 0.131558 0 0.132341 0 0.133125 0 
0.133908 0 0.134691 0 0.135474 0 0.136257 0 0.13704 
0 0.137823 0 0.138606 0 0.139389 0 0.140172 0 
0.140955 0 0.141738 0 0.142522 0 0.143305 0 0.144088 
0 0.144871 0 0.145654 0 0.146437 0 0.14722 0 
0.148003 0 0.148786 0 0.149569 0 0.150352 0 0.151135 
0 0.151919 0 0.152702 0 0.153485 0 0.154268 0 
0.155051 0 0.155834 0 0.156617 0 0.1574 0 0.158183 
0 0.158966 0 0.159749 0 0.160533 0 0.161316 0 
0.162099 0 0.162882 0 0.163665 0 0.164448 0 0.165231 
0 0.166014 0 0.166797 0 0.16758 0 0.168363 0 
0.169146 0 0.16993 0 0.170713 0 0.171496 0 0.172279 
0 0.173062 0 0.173845 0 0.174628 0 0.175411 0 
0.176194 0 0.176977 0 0.17776 0 0.178543 0 0.179327 
0 0.18011 0 0.180893 0 0.181676 0 0.182459 0 
0.183242 0 0.184025 0 0.184808 0 0.185591 0 0.186374 
0 0.187157 0 0.18794 0 0.188724 0 0.189507 0 
0.19029 0 0.191073 0 0.191856 0 0.192639 0 0.193422 
0 0.194205 0 0.194988 0 0.195771 0 0.196554 0 
0.197338 0 0.198121 0 0.198904 0 0.199687 0 0.20047 
0 0.201253 0 0.202036 0 0.202819 0 0.203602 0 
0.204385 0 0.205168 0 0.205951 0 0.206735 0 0.207518 
0 0.208301 0 0.209084 0 0.209867 0 0.21065 0 
0.211433 0 0.212216 0 0.212999 0 0.213782 0 0.214565 
0 0.215348 0 0.216132 0 0.216915 0 0.217698 0 
0.218481 0 0.219264 0 0.220047 0 0.22083 0 0.221613 
0 0.222396 0 0.223179 0 0.223962 0 0.224745 0 
0.225529 0 0.226312 0 0.227095 0 0.227878 0 0.228661 
0 0.229444 0 0.230227 0 0.23101 0 0.231793 0 
0.232576 0 0.233359 0 0.234143 0 0.234926 0 0.235709 
0 0.236492 0 0.237275 0 0.238058 0 0.238841 0 
0.239624 0 0.240407 0 0.24119 0 0.241973 0 0.242756 
0 0.24354 0 0.244323 0 0.245106 0 0.245889 0 
0.246672 0 0.247455 0 0.248238 0 0.249021 0 0.249804 
0 0.250587 0 0.25137 0 0.252153 0 0.252937 0 
0.25372 0 0.254503 0 0.255286 0 0.256069 0 0.256852 
0 0.257635 0 0.258418 0 0.259201 0 0.259984 0 
0.260767 0 0.261551 0 0.262334 0 0.263117 0 0.2639 
0 0.264683 0 0.265466 0 0.266249 0 0.267032 0 
0.267815 0 0.268598 0 0.269381 0 0.270164 0 0.270948 
0 0.271731 0 0.272514 0 0.273297 0 0.27408 0 
0.274863 0 0.275646 0 0.276429 0 0.277212 0 0.277995 
0 0.278778 0 0.279561 0 0.280345 0 0.281128 0 
0.281911 0 0.282694 0 0.283477 0 0.28426 0 0.285043 
0 0.285826 0 0.286609 0 0.287392 0 0.288175 0 
0.288958 0 0.289742 0 0.290525 0 0.291308 0 0.292091 
0 0.292874 0 0.293657 0 0.29444 0 0.295223 0 
0.296006 0 0.296789 0 0.297572 0 0.298356 0 0.299139 
0 0.299922 0 0.300705 0 0.301488 0 0.302271 0 
0.303054 0 0.303837 0 0.30462 0 0.305403 0 0.306186 
0 0.306969 0 0.307753 0 0.308536 0 0.309319 0 
0.310102 0 0.310885 0 0.311668 0 0.312451 0 0.313234 
0 0.314017 0 0.3148 0 0.315583 0 0.316366 0 
0.31715 0 0.317933 0 0.318716 0 0.319499 0 0.320282 
0 0.321065 0 0.321848 0 0.322631 0 0.323414 0 
0.324197 0 0.32498 0 0.325763 0 0.326547 0 0.32733 
0 0.328113 0 0.328896 0 0.329679 0 0.330462 0 
0.331245 0 0.332028 0 0.332811 0 0.333594 0 0.334377 
0 0.335161 0 0.335944 0 0.336727 0 0.33751 0 
0.338293 0 0.339076 0 0.339859 0 0.340642 0 0.341425 
0 0.342208 0 0.342991 0 0.343774 0 0.344558 0 
0.345341 0 0.346124 0 0.346907 0 0.34769 0 0.348473 
0 0.349256 0 0.350039 0 0.350822 0 0.351605 0 
0.352388 0 0.353171 0 0.353955 0 0.354738 0 0.355521 
0 0.356304 0 0.357087 0 0.35787 0 0.358653 0 
0.359436 0 0.360219 0 0.361002 0 0.361785 0 0.362569 
0 0.363352 0 0.364135 0 0.364918 0 0.365701 0 
0.366484 0 0.367267 0 0.36805 0 0.368833 0 0.369616 
0 0.370399 0 0.371182 0 0.371966 0 0.372749 0 
0.373532 0 0.374315 0 0.375098 0 0.375881 0 0.376664 
0 0.377447 0 0.37823 0 0.379013 0 0.379796 0 
0.380579 0 0.381363 0 0.382146 0 0.382929 0 0.383712 
0 0.384495 0 0.385278 0 0.386061 0 0.386844 0 
0.387627 0 0.38841 0 0.389193 0 0.389977 0 0.39076 
0 0.391543 0 0.392326 0 0.393109 0 0.393892 0 
0.394675 0 0.395458 0 0.396241 0 0.397024 0 0.397807 
0 0.39859 0 0.399374 0 0.400157 0 0.40094 0 
0.401723 0 0.402506 0 0.403289 0 0.404072 0 0.404855 
0 0.405638 0 0.406421 0 0.407204 0 0.407987 0 
0.408771 0 0.409554 0 0.410337 0 0.41112 0 0.411903 
0 0.412686 0 0.413469 0 0.414252 0 0.415035 0 
0.415818 0 0.416601 0 0.417385 0 0.418168 0 0.418951 
0 0.419734 0 0.420517 0 0.4213 0 0.422083 0 
0.422866 0 0.423649 0 0.424432 0 0.425215 0 0.425998 
0 0.426782 0 0.427565 0 0.428348 0 0.429131 0 
0.429914 0 0.430697 0 0.43148 0 0.432263 0 0.433046 
0 0.433829 0 0.434612 0 0.435395 0 0.436179 0 
0.436962 0 0.437745 0 0.438528 0 0.439311 0 0.440094 
0 0.440877 0 0.44166 0 0.442443 0 0.443226 0 
0.444009 0 0.444792 0 0.445576 0 0.446359 0 0.447142 
0 0.447925 0 0.448708 0 0.449491 0 0.450274 0 
0.451057 0 0.45184 0 0.452623 0 0.453406 0 0.45419 
0 0.454973 0 0.455756 0 0.456539 0 0.457322 0 
0.458105 0 0.458888 0 0.459671 0 0.460454 0 0.461237 
0 0.46202 0 0.462803 0 0.463587 0 0.46437 0 
0.465153 0 0.465936 0 0.466719 0 0.467502 0 0.468285 
0 0.469068 0 0.469851 0 0.470634 0 0.471417 0 
0.4722 0 0.472984 0 0.473767 0 0.47455 0 0.475333 
0 0.476116 0 0.476899 0 0.477682 0 0.478465 0 
0.479248 0 0.480031 0 0.480814 0 0.481597 0 0.482381 
0 0.483164 0 0.483947 0 0.48473 0 0.485513 0 
0.486296 0 0.487079 0 0.487862 0 0.488645 0 0.489428 
0 0.490211 0 0.490995 0 0.491778 0 0.492561 0 
0.493344 0 0.494127 0 0.49491 0 0.495693 0 0.496476 
0 0.497259 0 0.498042 0 0.498825 0 0.499608 0 
0.500392 0 0.501175 0 0.501958 0 0.502741 0 0.503524 
0 0.504307 0 0.50509 0 0.505873 0 0.506656 0 
0.507439 0 0.508222 0 0.509005 0 0.509789 0 0.510572 
0 0.511355 0 0.512138 0 0.512921 0 0.513704 0 
0.514487 0 0.51527 0 0.516053 0 0.516836 0 0.517619 
0 0.518403 0 0.519186 0 0.519969 0 0.520752 0 
0.521535 0 0.522318 0 0.523101 0 0.523884 0 0.524667 
0 0.52545 0 0.526233 0 0.527016 0 0.5278 0 
0.528583 0 0.529366 0 0.530149 0 0.530932 0 0.531715 
0 0.532498 0 0.533281 0 0.534064 0 0.534847 0 
0.53563 0 0.536413 0 0.537197 0 0.53798 0 0.538763 
0 0.539546 0 0.540329 0 0.541112 0 0.541895 0 
0.542678 0 0.543461 0 0.544244 0 0.545027 0 0.545811 
0 0.546594 0 0.547377 0 0.54816 0 0.548943 0 
0.549726 0 0.550509 0 0.551292 0 0.552075 0 0.552858 
0 0.553641 0 0.554424 0 0.555207 0 0.555991 0 
0.556774 0 0.557557 0 0.55834 0 0.559123 0 0.559906 
0 0.560689 0 0.561472 0 0.562255 0 0.563038 0 
0.563821 0 0.564605 0 0.565388 0 0.566171 0 0.566954 
0 0.567737 0 0.56852 0 0.569303 0 0.570086 0 
0.570869 0 0.571652 0 0.572435 0 0.573218 0 0.574002 
0 0.574785 0 0.575568 0 0.576351 0 0.577134 0 
0.577917 0 0.5787 0 0.579483 0 0.580266 0 0.581049 
0 0.581832 0 0.582615 0 0.583399 0 0.584182 0 
0.584965 0 0.585748 0 0.586531 0 0.587314 0 0.588097 
0 0.58888 0 0.589663 0 0.590446 0 0.591229 0 
0.592013 0 0.592796 0 0.593579 0 0.594362 0 0.595145 
0 0.595928 0 0.596711 0 0.597494 0 0.598277 0 
0.59906 0 0.599843 0 0.600626 0 0.60141 0 0.602193 
0 0.602976 0 0.603759 0 0.604542 0 0.605325 0 
0.606108 0 0.606891 0 0.607674 0 0.608457 0 0.60924 
0 0.610023 0 0.610807 0 0.61159 0 0.612373 0 
0.613156 0 0.613939 0 0.614722 0 0.615505 0 0.616288 
0 0.617071 0 0.617854 0 0.618637 0 0.619421 0 
0.620204 0 0.620987 0 0.62177 0 0.622553 0 0.623336 
0 0.624119 0 0.624902 0 0.625685 0 0.626468 0 
0.627251 0 0.628034 0 0.628818 0 0.629601 0 0.630384 
0 0.631167 0 0.63195 0 0.632733 0 0.633516 0 
0.634299 0 0.635082 0 0.635865 0 0.636648 0 0.637432 
0 0.638215 0 0.638998 0 0.639781 0 0.640564 0 
0.641347 0 0.64213 0 0.642913 0 0.643696 0 0.644479 
0 0.645262 0 0.646045 0 0.646829 0 0.647612 0 
0.648395 0 0.649178 0 0.649961 0 0.650744 0 0.651527 
0 0.65231 0 0.653093 0 0.653876 0 0.654659 0 
0.655442 0 0.656226 0 0.657009 0 0.657792 0 0.658575 