# vtk DataFile Version 2.0
Vessel Segment
ASCII
DATASET POLYDATA
POINTS 640 float
6.216889446942766 0.36367044586907726 -18.37876180147545
6.224478204936817 0.361523127758733 -18.327180636508547
6.232049907603138 0.3593293558564691 -18.27537635758846
6.239600338330517 0.35708918416680036 -18.2233592237904
6.247113538663325 0.35479978888419805 -18.171130506159425
6.254563427077128 0.35245218646558996 -18.11868951767169
6.261933118304595 0.3500395207380482 -18.066042273360694
6.2692186006685215 0.3475577136367917 -18.01319984979813
6.27642807786685 0.3449898471358876 -17.960151927132493
6.283580995915136 0.34234008109442104 -17.906927386876344
6.290730019993461 0.33960403984353077 -17.85349853935108
6.297942284520842 0.33678023035616017 -17.799783600670846
6.305188877085939 0.33391762516135953 -17.74577569864248
6.312779310705565 0.33084763383939264 -17.691135381263667
6.320753157736164 0.32761829926022246 -17.636199914621557
6.32887019833851 0.3242358834325095 -17.581255330346835
6.336874334699415 0.3207192244508358 -17.52643855730018
6.344786815468173 0.3170714589419484 -17.47166277424923
6.352650984785948 0.31331931191962403 -17.416844183497293
6.360518417240977 0.30949296088055533 -17.36195878876506
6.368402222627551 0.3056095732291712 -17.307000848615065
6.376391153866946 0.3016508908804929 -17.251540180888345
6.38443278579804 0.29764427986657505 -17.195742248684702
6.3924807985320795 0.29359815881517987 -17.13972593671446
6.400545369704968 0.2895394026703017 -17.083299656321937
6.408353083903079 0.28555530214702296 -17.02754341558567
6.415977940236444 0.28162274625417005 -16.971903721561134
6.423309456730809 0.27770355636034216 -16.91650115754385
6.430392283729344 0.27376668215873196 -16.861332425926165
6.437147659980741 0.2697720344853158 -16.806720956285787
6.443775993996265 0.26571022825412277 -16.751881187178927
6.450310657129612 0.2615705410862344 -16.69694042786504
6.456790370025306 0.25738408939495555 -16.641828724806267
6.4633449090951895 0.25322093674384594 -16.585772500170425
6.469902585341258 0.24907598075207618 -16.528375204802746
6.476453459565869 0.24482767951918744 -16.469869018195855
6.482869462697327 0.24061579437189565 -16.410796025026837
6.488834676227236 0.236554305829093 -16.352534546377193
6.494214301328625 0.23264520013810688 -16.29443593155547
6.498991697300986 0.22892594533157795 -16.236384916404333
6.50313984056094 0.22537655136851775 -16.180689445249016
6.506833287881407 0.2219433323534526 -16.1238951974928
6.510037349247063 0.21853030633013215 -16.066928956346356
6.512931513304866 0.21511535002382573 -16.01124894891584
6.515409430727819 0.21171739128642347 -15.9539799182161
6.517591075309073 0.20825219346295432 -15.897800641938883
6.519352786668778 0.20468217084202212 -15.840167623350746
6.520698573918361 0.20122603145988888 -15.783537167130675
6.521446149466089 0.19784940106357088 -15.727080610882116
6.521759248161503 0.19463990543243906 -15.6714590698186
6.52133191546525 0.1915914949899973 -15.616544347102952
6.520399886042576 0.1887402200073636 -15.561483042168414
6.51869122514259 0.1861727488530971 -15.505965091378618
6.516939995222146 0.18391407473052282 -15.451500287337016
6.514754068383151 0.1817705291427327 -15.396640578662659
6.511648679216651 0.17959880649178062 -15.340200335066129
6.508168031596361 0.17744046947635064 -15.284866365312057
6.504303095281045 0.1753189790896958 -15.23095357039839
6.4998546209690815 0.17318525007568816 -15.176482550383069
6.495248666804148 0.17123958094395808 -15.120361336506015
6.490620745815138 0.16959533988549702 -15.063033122051968
6.4854089280904885 0.1679885027018201 -15.007502472982905
6.4798434777862495 0.1665218677304905 -14.952467422279065
6.473498989660254 0.16526500202534855 -14.897155832998303
6.465957525080462 0.16418399879383075 -14.842458450779915
6.457562313404446 0.16316699954280828 -14.788475526195361
6.448743340376069 0.16238678655345032 -14.735507496863082
6.4394244037106825 0.16174513447309496 -14.683085749445999
6.429270713935637 0.16132504050267632 -14.630715472447921
6.41857247995755 0.16108801640722634 -14.578559399059657
6.407286093852246 0.16100022624637564 -14.526343075539152
6.395520658218829 0.16100028540291544 -14.474568717172183
6.3829606123131795 0.1611102085604455 -14.422780659726847
6.36987437369144 0.1613496678240083 -14.37050799703747
6.356603912855946 0.16171752314692436 -14.317765413293783
6.342835061660226 0.16228480339727192 -14.263773101454559
6.328156002692539 0.16291250418944053 -14.210785078650213
6.312782957893489 0.16363637295854183 -14.158624460814481
6.2971222696141105 0.16444341346716657 -14.107218171711818
6.280773412078435 0.16537760801539403 -14.05555184299665
6.264016372412286 0.16637559019557804 -14.004682198139038
6.247181825251264 0.16738753023062355 -13.956152823688335
6.229354345931721 0.16851793323899622 -13.90682477011749
6.21085406088443 0.16973320020229246 -13.857399356224695
6.192082488503353 0.17099718086525387 -13.809018188827222
6.172362627201132 0.17239295880150282 -13.760359113621163
6.152239040075633 0.17386440557409102 -13.712625561347615
6.131142421075471 0.17545356950473323 -13.664894022627013
6.110010092715052 0.1770726606758034 -13.617878550128573
6.088647085386495 0.17875542203468195 -13.57139018140518
6.066841087978897 0.18054547241100863 -13.525091303292665
6.044323045287445 0.18244883699258754 -13.478792915482869
6.021011166234184 0.18443326394715562 -13.432443423533742
5.9973828024403835 0.18645996484779817 -13.386499088845813
5.973132219189626 0.1885940287271861 -13.340749113019172
5.948306423987079 0.19087132463297082 -13.295246137683087
5.922523872044572 0.19336719924250578 -13.249754163014462
5.896184819962238 0.19603782965827385 -13.204618963746363
5.86941642868433 0.198853894766407 -13.159940947478512
5.842104684114785 0.20181516415707793 -13.11553301551568
5.814325634082804 0.20490062463997286 -13.07135539348319
5.7860939395309074 0.2080999182103533 -13.027368919839267
5.757006082062106 0.21145439548796136 -12.98334865080699
5.727657683335166 0.21492212326721086 -12.939713799656202
5.697775800436674 0.21850431629128964 -12.896335234020546
5.6673352439391484 0.22220996677857663 -12.853178021918216
5.6362891598237805 0.22606061351658166 -12.810152950912782
5.604525989459394 0.2300741674873542 -12.767199927481586
5.572739275723549 0.2341834625221772 -12.724698138862623
5.540503814655743 0.2384410960286458 -12.682471480796629
5.5077943718388385 0.24284898611052408 -12.640505526499643
5.474594868206654 0.2474090163552597 -12.59880998501819
5.440890918500098 0.2521207261746771 -12.557389343552032
5.406686736701689 0.2569570911200134 -12.516205316042605
5.371953089896722 0.2619176173047517 -12.475193904189112
5.336647120490283 0.26704155687618025 -12.434282400561337
5.3007001860722465 0.27235674845850066 -12.393517730374244
5.26410355652309 0.2778534687251352 -12.352894259660538
5.226918592997725 0.28351618977267107 -12.312395148574158
5.189256107884066 0.2893156165457511 -12.272009307421008
5.151168873945996 0.29522425675056274 -12.231717227820353
5.112644654118152 0.30123377982801125 -12.191542270558907
5.073665710340198 0.307362666214447 -12.151505143999799
5.034174900041106 0.31362814480007045 -12.111652082245643
4.994163727471476 0.3200424986414271 -12.07199489513517
4.953627054339026 0.3265940754119171 -12.032531365365944
4.912558412569501 0.3332848652077316 -11.993223487159975
4.870916398668635 0.34014528351104206 -11.954019618934533
4.828664251355408 0.3472019960773287 -11.914944383698096
4.785759349925245 0.3544802279243056 -11.87603361687197
4.742214974036744 0.36198086011352715 -11.83728383799567
4.698129120750701 0.36966008498179165 -11.798647837788229
4.653599159136086 0.37745797324642716 -11.760108045536883
4.608661752652649 0.3853488381265561 -11.721651793342279
4.563263514840288 0.39333481956520255 -11.683281645205902
4.5173262958541995 0.40143109453604964 -11.644997107109276
4.47085438366587 0.40964828598187636 -11.606846247464052
4.423851611404666 0.41798471906236373 -11.56884169705478
4.376283196152219 0.4264372128498473 -11.530935331206678
4.328147829758935 0.43500935183790906 -11.493124832409013
4.279432522738098 0.44374360017418024 -11.455431036966226
4.230149747760734 0.4526843799935579 -11.417893342991524
4.180336968536683 0.4618277646735756 -11.380553996486833
4.130045176998039 0.47113759877574457 -11.343416060664502
4.079313370140881 0.480595033153484 -11.30646877007382
4.028141072600291 0.49018115358072034 -11.269668130721646
3.9764770180826736 0.4999096330806663 -11.23298047510263
3.9242629634682813 0.5097793638432252 -11.196380317305708
3.8714416357952386 0.5197880704152769 -11.15986548041953
3.818006585202329 0.5299171631741593 -11.123465115837801
3.7639760472369383 0.540157903863358 -11.087187604596842
3.709319593819513 0.5505038400944482 -11.05100296201083
3.654114139522915 0.5609364875457692 -11.014893969936223
3.5984384925073587 0.5714759468133359 -10.978861732500874
3.542309181119776 0.5821634917742163 -10.942944827440845
3.4857572229250997 0.5930064736216287 -10.907230035805396
3.4288244670378485 0.6039615317130795 -10.871736222739939
3.3715095415161325 0.6150102563398974 -10.836407552684934
3.3137682399460737 0.6261471471233376 -10.801188492817639
3.255533943797478 0.6373658343815404 -10.76607324213294
3.1967486738646267 0.6486877665523308 -10.731113958972966
3.1374408278251136 0.6601170293123821 -10.696364162253102
3.0777184526152377 0.6716318020816261 -10.661795553318209
3.0176627858520333 0.6831909910630927 -10.627307148033287
2.957233331291672 0.6947634898903279 -10.592847053035044
2.8964774790751715 0.7063666296025375 -10.558388660896634
2.8354345819202305 0.7180071057377271 -10.523988290069484
2.774074009579847 0.7297142026656739 -10.489707509134709
2.7123510539037996 0.7414750266662615 -10.455584847382356
2.650281737001336 0.7532680139247547 -10.421618746085144
2.5878832867198818 0.7650655461757605 -10.38780451449607
2.525127466099895 0.7768566780728012 -10.354173264595836
[...]
POINT_DATA 640
SCALARS Curvature float
LOOKUP_TABLE default
0.01838496805237682
0.027702279970782593
0.03283264628730139
0.0380785802273183
0.042240067496714946
0.042287942764821444
0.03857941329465948
0.03406364059819781
0.024894001256181793
0.040490613410643354
0.06286912717200424
0.07296963869594321
0.08475097328967345
0.07275571735377248
0.05270254280235744
0.04172749357171422
0.03208992316289201
0.023198094481936368
0.015733329601930593
0.012764076619875784
0.011986499348587223
0.020792143610813753
0.032357788258217175
0.05034443893232759
0.06455402328709058
0.07431593913269033
0.07406332055786168
0.06371201742121171
0.05269379409022518
0.03785129062171825
0.03862183233156634
0.03782699313225574
0.04592899504492194
0.0654510097561124
0.0940305268475941
0.12985875872180894
0.15084829162329122
0.16580817182950253
0.16139059622767404
0.13668361672532295
0.13817031810945546
0.11845468358297444
0.11509787676106618
0.12513267334603978
0.13417731974119734
0.14718023279991335
0.1741375603578558
0.18757837686078596
0.20635616688719816
0.19413888413907024
0.16886638730645742
0.18862359966652442
0.15926505564611088
0.17702865676971763
0.18524123074244156
0.14084884152544247
0.13089001285156823
0.14923949638977113
0.13906024040930995
0.18094340769338257
0.25611772505334207
0.27450348064991537
0.2927369380623113
0.28427520544572693
0.25689178059795686
0.23185805794314382
0.22873629892651687
0.22643079152832873
0.21973897088661737
0.2027384894407453
0.16497833306129928
0.13545081086481056
0.16135083626685337
0.20101145258231815
0.2312444223500158
0.25915139400635984
0.22243261416816246
0.22548624643262027
0.2417392105912199
0.2452369429209408
0.24804109641022615
0.23976647411970237
0.24719632680745707
0.27362597762964896
0.24766651893673786
0.21994316696731342
0.19923625080877436
0.17881156370050313
0.210479964583675
0.21264779841578832
0.2253924806104551
0.2237243336552835
0.2375145138021222
0.2548940961990132
0.25191808545598254
0.24965082973697877
0.22148597464227224
0.20509903940190008
0.21080619988623717
0.19498052080323966
0.19945353944179547
0.2069616050264922
0.19569320384935576
0.20989626677399795
0.18526276475666778
0.1801594712203534
0.17729566230752608
0.1720568226176896
0.19424960703789415
0.19384761295144792
0.19063096533702248
0.18484058585328728
0.18445761386434878
0.18634132394354996
0.18498268233475845
0.17716000256601175
0.15821467230635172
0.14148913392144272
0.13214574573068863
0.13598891224945542
0.14546005376037285
0.15291425603616943
0.1561442492110888
0.15317350426321494
0.15222505183314575
0.15533948454090243
0.15913676629230125
0.15569294845054288
0.1429127452734548
0.12365391253016497
0.10797892476663824
0.10348047335365522
0.10752628125460696
0.11448328204829063
0.11766843690456445
0.11733251468183395
0.11655444712225214
0.11750737312178895
0.12037486790451282
0.12121506762635109
0.11809994488570415
0.1105125770930097
0.10250118950421347
0.09725780890262962
0.09566423940754988
0.09776185037055597
0.0993055385867529
0.09964522879766877
0.09519198459867709
0.08735115060960957
0.08174053053421312
0.0801381199314152
0.08116289757462017
0.08175201423223971
0.07920436539561755
0.07487881407466351
0.07513234820435992
0.07960819280862903
0.08141798135726508
0.07529133941331724
0.06434915496927088
0.04949332489627092
0.040269874976521604
0.041176330771437224
0.04580746079279972
0.05240224219011816
0.057003531263002796
0.060121680452111255
0.06188493586382695
0.06113225454536752
0.05599490266961248
0.04276312127276459
0.03097647694765139
0.024891345936719354
0.019911972715563043
0.02171287541462677
0.024196799742661795
0.025956422561280668
0.03268836268131253
0.041321433397734565
0.04479322250451232
0.04311724908883313
0.03744927134950107
0.030617341013872593
0.02888000935178436
0.03331889853269002
0.04370732505685669
0.04962674725170624
0.04771692646176281
0.04334322578117838
0.038425897183444156
0.03657169856976301
0.03882797621617112
0.03975294350538888
0.039110387223442754
0.04238231870287303
0.04822564099106739
0.058507081470002456
0.06875072326194492
0.07428719867677341
0.07309249891804678
0.06528494014446037
0.06015433612773173
0.05887968316363472
0.06233216446528167
0.06826550353639001
0.07199143107989245
0.07494767455767297
0.0815698956574475
0.08689430295665934
0.09344125002524567
0.09483313676306997
0.09157197430701579
0.08908958384231928
0.08710234033370139
0.09055523240244942
0.09846514349462375
0.10931830301110296
0.1175197161247789
0.12047353014459825
0.12638401795168758
0.12518502269633278
0.12380602485016752
0.1238636193012464
0.11217766827800477
0.10631726652839454
0.10463732750037356
0.11070548288447883
0.12694587908533003
0.15137303988360626
0.16874936995077663
0.17072747282235667
0.16468517998261895
0.1506109065987301
0.1416503088633219
0.14199794265477228
0.14371004035934068
0.13693261778418206
0.1353293151972568
0.13614544531548523
0.13986647645209158
0.14805703382040356
0.16674733428949046
0.16534159018433017
0.16724079102807807
0.17591412911534332
0.16398809130142503
0.16899604663110593
0.18444588182949825
0.17242076338779322
0.16534764215063041
0.16217195960682562
0.14581708501133672
0.17121141116058058
0.1864285824395697
0.1779798621273748
0.18581689281797417
0.17625680003284552
0.17512871336205318
0.18282714357691351
0.17885384390523412
0.17553801840658423
0.1701318474644069
0.1782110123870127
0.18167076150074934
0.19586686422081825
0.1815846312347147
0.1635235674345763
0.15711828390022609
0.1363176308434275
0.16063109484618293
0.1908673251830464
0.18859511347982885
0.1839229182091177
0.18050580100456873
0.18263748615603492
0.18234076949973324
0.18187293226673282
0.16038126231661662
0.18735913647092295
0.1970219378869479
0.21254087011306103
0.2866886908843647
0.25146243574380667
0.24873191492695598
0.24331707093703575
0.17251549972164207
0.20677456917803605
0.21897109060847678
0.2020754055253263
0.20786335766444855
0.19246616990961657
0.16320078468808993
0.18695882962285848
0.20053947836085326
0.17188770449686155
0.19441598017798675
0.1873151882362251
0.19512259382141706
0.1879268157260515
0.1842915685233056
0.18522621238994677
0.15436008636140652
0.15686474270926537
0.13980571116622886
0.13624643842625075
0.1533478703620584
0.16238233846360714
0.15301707767883468
0.1563768040086783
0.15527853718418405
0.1595892221268218
0.17224568764286707
0.16154786634443496
0.13204080311148694
0.12698827333914312
0.16233879735875922
0.16290263097237084
0.18331027428302224
0.18467969716820978
0.1599693705261684
0.17645764236056458
0.2034517488349802
0.2315929469849919
0.24304273709921315
0.2852822612808559
0.2951017918948999
0.3484203960318318
0.3178363403791301
0.25600887500635033
0.20279286389362178
0.1095759784402425
0.1296474685476
0.15833440254974668
0.16482758592792565
0.1435071408391983
0.12336121685464455
0.09507309484223644
0.10491174158420373
0.11244706611116913
0.10771147686550069
0.19189437641201287
0.18159672600263235
0.6408593227420082
0.6586334107606678
0.8316405545459532
0.8313389766920715
0.549616340356197
0.6262494936122869
0.3920697176870431
0.5846108921674718
0.7133821835998608
0.6771313021336093
0.5891341048356687
0.5075416499093387
0.3564418400398487
0.3610648401828017
0.4418769498014574
0.49832493764664576
0.568464319654148
0.5336416287474032
0.5538920279135374
0.4225308995758632
0.5765794510981602
0.5855759320348916
0.5296650796811402
0.6068532278168219
0.5639898675427936
0.6409050477073085
0.8062481689433366
0.8041697973995398
0.6833621266416344
0.7444995643625639
0.6836467911929985
0.7699128001382781
0.7883792554413507
0.8827305138108592
0.8208617906559045
0.9046661002386989
0.9385805951072741
0.8615887727259114
0.8913708970509369
0.9169698374367331
0.874630559812816
0.9063798417820113
0.8971020257742608
0.7703480568909782
0.8194309911134824
0.8527848761845831
0.9590161179464728
0.9360649652284683
0.9351839310934734
0.9435361533600821
0.9154070376331243
0.9345181103544078
0.9324633960036626
0.928718963629686
0.9621393659237792
0.9627146340909251
0.9997865645256777
0.999621565178664
0.9992879332888118
0.9997887864870815
0.9971206880005593
0.9992324776397319
0.9994767896134753
0.9997024961364719
0.9982250705353442
0.9997870758319359
0.9993119233763552
0.9992649200963456
0.9998339533914946
0.9997944214061566
0.9999804004224668
0.9999995129898827
0.9999999055567316
0.9999995191883664
0.9999974738595513
0.999988369326144
0.9993640246799049
0.9984893486856281
0.9992133298814664
0.9683972986823943
0.9906372701864764
0.9950662332859552
0.9791831562904929
0.9741283895322892
0.9454375760427586
0.753459273797066
0.9699989445973316
0.9765033941409311
0.9614972242991632
0.9874490343797211
0.8514218521809956
0.7157916061034048
0.6664915441200433
0.157809158505004
0.15507702668413878
0.14799583474220954
0.1525607266785854
0.16488298511398827
0.17418328984128467
0.17990870166559705
0.19007595157387075
0.20211985392399648
0.20931136390599325
0.2051137441767715
0.18841190117280207
0.16691691728935673
0.14803589462399075
0.40577364939643695
0.43176840270224653
0.6268747075142596
0.6365960803053411
0.44470963614758074
0.4301225281464107
0.1991294271155144
0.1983345495038114
0.19529388666454223
0.19252651033526502
0.18679699966201485
0.18503373624278152
0.17985825825287383
0.17245888391959527
0.16949230916257152
0.17045425676939072
0.18210124051240048
0.19358664833068995
0.19739263247102792
0.19917689661356114
0.20265969359644093
0.20711330440758957
0.2226008992339588
0.24150290061727403
0.24712804215720743
0.2540688050101824
0.261123950935172
0.2610859870019337
0.25806888042638565
0.2497972975586935
0.23710699460563422
0.22894094054575512
0.23428532894278137
0.2443167990408927
0.2570651294475029
0.2795707598077766
0.3004963554528715
0.31527037756397563
0.3239412077559727
0.32780823225519196
0.3185433358194042
0.3009751797414801
0.2876491514802843
0.2678463864945749
0.25240399781277356
0.24931861953266157
0.2578587225543611
0.2673308774813694
0.2896582576875894
0.3137231284106197
0.32534359620725245
0.3288796310595968
0.3239273021838459
0.31089337667413164
0.29045709053435337
0.2765468253021151
0.2567618199377517
0.25064071381181796
0.2523249047075389
0.251751216344884
0.2672605625212809
0.2743904129555718
0.2985536385130013
0.3248288471457275
0.35057469386304724
0.3649967043602489
0.3532237027846725
0.3351627371948111
0.2997208717562052
0.258748133336515
0.234347837140981
0.21101290625984329
0.19429901408029723
0.2060782415554435
0.1831661807599121
0.17423285086062654
0.16543756625666955
0.14744185282254818
0.15499199285597556
0.14847626937664113
0.14372326574623656
0.14016315932776804
0.1338866717886224
0.14425154404549645
0.1473486577637842
0.1451793070312189
0.1544441688897949
0.14245931011762597
0.13598115490389165
0.13163621811086917
0.11958663282074088
0.11818415777337545
0.12217085118788022
0.12189101530528193
0.12555864923080318
0.13229662595897346
0.13848764227538177
0.15507425915868248
0.15484739252173235
0.14804338013452453
0.13594018493481277
0.1207560413929137
0.11814624898263447
0.11416287115449882
0.11665402422109791
0.11876725459727498
0.12362282805215535
0.13518045190181432
0.1377251989529001
0.14450278434515734
0.14306345022184128
0.14711075437894508
0.15274939833736287
0.1513134624613781
0.1557892398153113
0.14794436463555696
0.1406053287307682
0.13839665807766016
0.13197914448707068
0.12853043806342135
0.13100906951904123
0.124677663042072
0.14615383122557743
0.14831955390925855
0.15982235175416112
0.1762404565969137
0.16652925670793253
0.1783891470608584
0.1796927190941681
0.15985783791385613
0.1449144589620136
0.13668659371230854
0.11363639843877754
0.13249384519102939
0.13789197927114633
0.12939211263887837
0.15858276707292052
0.16626889113599025
0.1730495833786312
0.1999605682308522
0.1824862578606829
0.16311131134530948
0.15319350385368904
0.12316789859034613
0.09536283980287844
0.09281244624687207
0.07590082856270194
0.09383713503945121
0.13205852783400415
0.16664612805176165
0.22364787486207266
0.235887429625645
0.24276862521365017
0.20780449155131894
0.1523121643052612
0.10653955930593893
0.06808610305155775
0.0491084926012179
0.05411222862428404
0.07444869286505244
0.11293882079431988
0.1823459572917142
0.22538428149354203
0.24172057486841617
0.23240005371104724
0.18854962042259693
0.1360567839804096
0.09092287524186843
0.05239145251821792
0.03466855663782452
0.04426288030679597
0.06484573032370466
0.12306112022724905
0.18998411536120124
0.2515280468998854
0.3049432130447161
0.27837039869476626
0.21533576789941594
0.142584496057321
0.08496199563018102
0.0702309825690232
0.0753546151911304
0.07977920375281418
0.06445825421890711
0.04871903576592214
0.07048350896369468
0.055808947626569946
0.04113438628944521
0.02645982495232048
0.011785263615195746
SCALARS Torsion float
LOOKUP_TABLE default
0.0
0.0
0.0
0.0
0.0
0.0
0.0
0.0
0.0
0.0
0.0
0.0
0.0
0.0
0.0
0.0
0.0
0.0
0.0
0.0
0.0
0.0
0.0
0.0
0.0
0.0
0.0
0.0
0.0
0.0
0.0
0.0
0.0
0.0
0.0
0.0
0.0
0.0
0.0
0.0
0.0
0.0
0.0
0.0
0.0
0.0
0.0
0.0
0.0
0.0
0.0
0.0
0.0
0.0
0.0
0.0
0.0
0.0
0.0
0.0
0.0
0.0
0.0
0.0
0.0
0.0
0.0
0.0
0.0
0.0
0.0
0.0
0.0
0.0
0.0
0.0
0.0
0.0
0.0
0.0
0.0
0.0
0.0
0.0
0.0
0.0
0.0
0.0
0.0
0.0
0.0
0.0
0.0
0.0
0.0
0.0
0.0
0.0
0.0
0.0
0.0
0.0
0.0
0.0
0.0
0.0
0.0
0.0
0.0
0.0
0.0
0.0
0.0
0.0
0.0
0.0
0.0
0.0
0.0
0.0
0.0
0.0
0.0
0.0
0.0
0.0
0.0
0.0
0.0
0.0
0.0
0.0
0.0
0.0
0.0
0.0
0.0
0.0
0.0
0.0
0.0
0.0
0.0
0.0
0.0
0.0
0.0
0.0
0.0
0.0
0.0
0.0
0.0
0.0
0.0
0.0
0.0
0.0
0.0
0.0
0.0
0.0
0.0
0.0
0.0
0.0
0.0
0.0
0.0
0.0
0.0
0.0
0.0
0.0
0.0
0.0
0.0
0.0
0.0
0.0
0.0
0.0
0.0
0.0
0.0
0.0
0.0
0.0
0.0
0.0
0.0
0.0
0.0
0.0
0.0
0.0
0.0
0.0
0.0
0.0
0.0
0.0
0.0
0.0
0.0
0.0
0.0
0.0
0.0
0.0
0.0
0.0
0.0
0.0
0.0
0.0
0.0
0.0
0.0
0.0
0.0
0.0
0.0
0.0
0.0
0.0
0.0
0.0
0.0
0.0
0.0
0.0
0.0
0.0
0.0
0.0
0.0
0.0
0.0
0.0
0.0
0.0
0.0
0.0
0.0
0.0
0.0
0.0
0.0
0.0
0.0
0.0
0.0
0.0
0.0
0.0
0.0
0.0
0.0
0.0
0.0
0.0
0.0
0.0
0.0
0.0
0.0
0.0
0.0
0.0
0.0
0.0
0.0
0.0
0.0
0.0
0.0
0.0
0.0
0.0
0.0
0.0
0.0
0.0
0.0
0.0
0.0
0.0
0.0
0.0
0.0
0.0
0.0
0.0
0.0
0.0
0.0
0.0
0.0
0.0
0.0
0.0
0.0
0.0
0.0
0.0
0.0
0.0
0.0
0.0
0.0
0.0
0.0
0.0
0.0
0.0
0.0
0.0
0.0
0.0
0.0
0.0
0.0
0.0
0.0
0.0
0.0
0.0
0.0
0.0
0.0
0.0
0.0
0.0
0.0
0.0
0.0
0.0
0.0
0.0
0.0
0.0
0.0
-0.0523336559632963
-0.0523336559632963
-0.3087835676865249
-0.3087835676865249
-0.26066215294408596
-0.26066215294408596
0.0
-0.9803030854042639
-0.9803030854042639
-0.9803030854042639
-0.9803030854042639
0.0
0.0
0.0
0.0
0.0
0.0
0.0
0.0
0.0
0.3888958013760297
0.3888958013760297
0.3888958013760297
0.3888958013760297
0.08511663225188193
0.9988582708884837
0.9999568440252911
0.9999568440252911
0.9999488141553688
0.8496720296890242
-0.3653461310512015
-0.8863709241032931
-0.8863709241032931
-0.7596025609371554
-0.7596025609371554
-0.21599837731461646
-0.2159983773146164
-0.24103585789133405
-0.24103585789133405
-0.5538119827765307
-0.5538119827765307
0.21778455974309985
0.21778455974309985
0.6885494264532915
0.6885494264532915
-0.12967487441798375
-0.9096226129549971
-0.9096226129549971
-0.9096226129549971
-0.6332561477987799
0.5703831812492297
0.5703831812492296
0.5703831812492296
-0.08653269293666443
-0.44359987471017676
-0.44359987471017676
-0.6931786145695621
-0.6453560641636485
-0.3603993620343921
-0.3603993620343921
0.8924865035070921
0.8924865035070922
0.8924865035070922
0.8992360398120539
0.03418456522504809
0.5576958449241275
0.5576958449241275
0.9137049563464512
0.9137049563464512
0.7416909105537045
0.7416909105537045
0.0
0.0
0.0
0.0
0.0
0.0
0.0
0.0
0.0
0.0
0.0
0.0
0.0
0.0
0.0
0.0
0.0
0.0
0.0
0.0
0.0
0.0
0.0
0.0
0.0
0.0
0.0
0.0
0.0
0.0
0.0
0.0
0.0
0.0
0.0
0.0
0.0
0.0
0.0
0.0
0.0
0.0
0.0
0.0
0.0
0.0
0.0
0.0
0.0
0.0
0.0
0.0
0.0
0.0
0.0
0.0
0.0
0.0
0.0
0.0
0.0
0.0
0.0
0.0
0.0
0.0
0.0
0.0
0.0
0.0
0.0
0.0
0.0
0.0
0.0
0.0
0.0
0.0
0.0
0.0
0.0
0.0
0.0
0.0
0.0
0.0
0.0
0.0
0.0
0.0
0.0
0.0
0.0
0.0
0.0
0.0
0.0
0.0
0.0
0.0
0.0
0.0
0.0
0.0
0.0
0.0
0.0
0.0
0.0
0.0
0.0
0.0
0.0
0.0
0.0
0.0
0.0
0.0
0.0
0.0
0.0
0.0
0.0
0.0
0.0
0.0
0.0
0.0
0.0
0.0
0.0
0.0
0.0
0.0
0.0
0.0
0.0
0.0
0.0
0.0
0.0
0.0
0.0
0.0
0.0
0.0
0.0
0.0
0.0
0.0
0.0
0.0
0.0
0.0
0.0
0.0
0.0
0.0
0.0
0.0
0.0
0.0
0.0
0.0
0.0
0.0
0.0
0.0
0.0
0.0
0.0
0.0
0.0
0.0
0.0
0.0
0.0
0.0
0.0
0.0
0.0
0.0
0.0
0.0
0.0
0.0
0.0
0.0
0.0
0.0
0.0
0.0
0.0
0.0
0.0
0.0
0.0
0.0
0.0
0.0
0.0
0.0
0.0
0.0
0.0
0.0
0.0
0.0
0.0
0.0
0.0
0.0
0.0
0.0
0.0
0.0
0.0
0.0
0.0
0.0
0.0
0.0
0.0
0.0
0.0
0.0
