# vtk DataFile Version 4.2
vtk output
ASCII
DATASET POLYDATA
POINTS 64 float
0 0 0 -0.72023 0.458134 0.60881 -1.44702 0.784898 1.17093 
-2.26666 1.02554 1.72732 -3.14914 1.1344 2.21544 -4.08468 1.08451 2.60229 
-5.03499 0.851046 2.86667 -5.94675 0.439541 3.03238 -6.79434 -0.102513 3.16168 
-7.59059 -0.714564 3.30539 -8.36407 -1.34764 3.47964 -9.14738 -1.97131 3.64304 
-9.96028 -2.5764 3.66937 -10.73 -3.1548 3.36269 -11.309 -3.7201 2.75243 
-11.7008 -4.34759 2.05893 -11.9534 -5.08609 1.41175 -12.0853 -5.92397 0.85594 
-12.1026 -6.81647 0.37433 -12.0096 -7.72316 -0.0709197 -11.8099 -8.61706 -0.506858 
-11.505 -9.48225 -0.939819 -11.0914 -10.3146 -1.34604 -10.5539 -11.1159 -1.6572 
-9.8752 -11.8643 -1.72187 -9.14897 -12.4248 -1.30985 -8.61828 -12.6683 -0.48507 
-8.34772 -12.684 0.490844 -8.29978 -12.5793 1.49804 -8.44052 -12.4282 2.49084 
-8.73852 -12.2945 3.45097 -9.15894 -12.2479 4.37263 -9.65275 -12.3763 5.24848 
-10.1322 -12.7738 6.04685 -10.4728 -13.4583 6.71009 -10.6113 -14.3252 7.21601 
-10.5852 -15.2645 7.59733 -10.463 -16.2263 7.89608 -10.2997 -17.1967 8.14301 
-10.1291 -18.1728 8.36087 -9.96174 -19.1511 8.5716 -9.78561 -20.1225 8.80558 
-9.56849 -21.0646 9.11233 -9.25735 -21.9112 9.57359 -8.8044 -22.5085 10.2517 
-8.22773 -22.7751 11.0411 -7.55543 -22.8479 11.7969 -6.79445 -22.8558 12.4674 
-5.96314 -22.8576 13.0488 -5.0879 -22.8736 13.5616 -4.18989 -22.9064 14.0326 
-3.28172 -22.946 14.4833 -2.36935 -22.9714 14.9264 -1.45603 -22.9571 15.3679 
-0.54623 -22.8826 15.8106 0.35361 -22.7423 16.2577 1.23919 -22.5525 16.715 
2.11315 -22.3538 17.1905 2.98216 -22.2071 17.6929 3.84348 -22.1866 18.2275 
4.67142 -22.3569 18.7876 5.4298 -22.7343 19.3535 6.07162 -23.2474 19.8788 
6.66198 -23.9299 20.4124 
LINES 1 65
64 0 1 2 3 4 5 6 7 8 9 10 11 12 13 14 15 16 17 18 19 20 21 22 23 24 25 26 27 28 29 30 31 32 33 34 35 36 37 38 39 40 41 42 43 44 45 46 47 48 49 50 51 52 53 54 55 56 57 58 59 60 61 62 63 

POINT_DATA 64
SCALARS MaximumInscribedSphereRadius float
LOOKUP_TABLE default
1.116 1.20781 1.26251 1.24775 1.13077 0.959051 0.932598 1.03719 1.27537 
1.00181 0.921925 1.55418 1.67546 1.26172 0.84705 1.24278 1.4648 1.51489 
1.34701 1.17417 1.00392 1.02727 1.2083 1.49958 1.65418 1.40904 1.58745 
1.80667 2.01017 2.2301 2.31848 2.21427 2.22863 2.23298 2.17493 2.17 
2.23867 2.40668 2.48 2.48 2.24275 1.94008 1.86 1.76878 1.63079 
1.78965 1.47545 1.42952 1.78077 1.51883 1.20337 1.00851 1.03723 1.19756 
1.24 1.24581 1.26831 1.37945 1.52489 1.55 1.62631 1.75225 1.68623 
1.55 
TEXTURE_COORDINATES TCoords 2 float
0 0 0.015873 0 0.031746 0 0.047619 0 0.0634921 
0 0.0793651 0 0.0952381 0 0.111111 0 0.126984 0 
0.142857 0 0.15873 0 0.174603 0 0.190476 0 0.206349 
0 0.222222 0 0.238095 0 0.253968 0 0.269841 0 
0.285714 0 0.301587 0 0.31746 0 0.333333 0 0.349206 
0 0.365079 0 0.380952 0 0.396825 0 0.412698 0 
0.428571 0 0.444444 0 0.460317 0 0.47619 0 0.492063 
0 0.507937 0 0.52381 0 0.539683 0 0.555556 0 
0.571429 0 0.587302 0 0.603175 0 0.619048 0 0.634921 
0 0.650794 0 0.666667 0 0.68254 0 0.698413 0 
0.714286 0 0.730159 0 0.746032 0 0.761905 0 0.777778 
0 0.793651 0 0.809524 0 0.825397 0 0.84127 0 
0.857143 0 0.873016 0 0.888889 0 0.904762 0 0.920635 
0 0.936508 0 0.952381 0 0.968254 0 0.984127 0 
1 0 
FIELD FieldData 4
Curvature 1 64 float
0.076829 0.0806961 0.0954053 0.11852 0.144381 0.162275 0.153745 0.112739 0.0667228 
0.0362835 0.0535563 0.139342 0.267013 0.274173 0.177136 0.147676 0.139571 0.112674 
0.0885424 0.0792202 0.0788523 0.0888703 0.130345 0.2281 0.389955 0.416968 0.283011 
0.192388 0.14315 0.117858 0.117509 0.148834 0.209394 0.254818 0.236697 0.170679 
0.104647 0.0545706 0.0243074 0.0143557 0.0366691 0.0931055 0.182495 0.287536 0.278198 
0.174712 0.117238 0.0934845 0.065643 0.0384297 0.0176797 0.0132913 0.0291806 0.0437973 
0.0491973 0.0388365 0.0232367 0.0458522 0.0969004 0.142331 0.161797 0.151731 0.131296 
0.110504 
Torsion 1 64 float
-0.151478 -0.139105 -0.103961 -0.0534126 0.00573548 0.0741748 0.180174 0.252721 0.396686 
0.518254 0.221897 0.12537 0.159503 0.306744 0.463916 0.268383 -0.000307498 -0.184268 
-0.24419 -0.164758 0.00658052 0.202162 0.219427 0.139341 0.0986833 0.0839972 0.0962399 
0.132327 0.190154 0.282013 0.351953 0.2976 0.210977 0.156034 0.0989855 0.029617 
-0.0499146 -0.172122 -0.386473 -0.29443 -0.0682643 -0.0267383 -0.00870456 -0.0286791 -0.170405 
-0.343433 -0.322208 -0.163955 -0.118222 -0.0874025 0.482627 0.706104 0.107815 0.0500487 
0.0806593 0.248962 0.939434 0.35033 0.0648549 0.0101583 -0.000954179 -0.000141861 0.000275966 
0.000248288 
Abscissas 1 64 double
0 1.0484596278 2.023645474 3.0430890174 4.0574335203 5.0710332412 6.0846797339 7.0986356292 8.1130080028 
9.1275417305 10.142141698 11.156650849 12.170374074 13.180823724 14.194364101 15.208370054 16.222281582 17.236370824 
18.250671358 19.265054462 20.279445355 21.293824283 22.308144542 23.321991856 24.334388461 25.3400008 26.350543827 
27.363388997 28.37714962 29.391193784 30.405363567 31.419450551 32.433079712 33.445628463 34.457776364 35.471007792 
36.485095229 37.499563293 38.514132169 39.528730984 40.543336974 41.557915835 42.572183889 43.585303736 44.596090029 
45.609396711 46.623572888 47.637867574 48.652293328 49.666823298 50.681404044 51.69600678 52.710600197 53.725157397 
54.739677624 55.754203157 56.768779538 57.783372457 58.797853777 59.811810422 60.82578708 61.844539602 62.819833083 
63.868171163 
ParallelTransportNormals 3 64 double
0.64556181748 0 0.76370802 0.61616526419 0.015846094658 0.78745747091 0.56805829648 0.033580185132 0.82230295084 
0.48812638915 0.049975923849 0.87134094088 0.37913570869 0.053508115444 0.92379272349 0.25973276188 0.035567712581 0.9650253003 
0.1759504064 0.0065489763376 0.9843772475 0.15411063684 -0.0052876331069 0.98803944888 0.17212667181 0.007360924246 0.98504732153 
0.19794938437 0.027843752936 0.97981670054 0.18863112138 0.020321415676 0.98183773614 0.079582511826 -0.06362298662 0.99479582799 
-0.1826467231 -0.25972740791 0.94825199611 -0.40404954172 -0.44743838369 0.79783636207 -0.45859757435 -0.51445266675 0.72458727458 
-0.45012337971 -0.49648884209 0.74221814362 -0.4382767514 -0.44792358888 0.77928040377 -0.43593995035 -0.42082983272 0.79552411125 
-0.43545383061 -0.43238839745 0.78956965187 -0.42908287316 -0.47157968181 0.77038983097 -0.41522556996 -0.51988803691 0.74652806721 
-0.40040233141 -0.55490795588 0.72921542325 -0.40160000796 -0.55285089631 0.73011870272 -0.45846779378 -0.48039399294 0.74768234807 
-0.63941227472 -0.31192878997 0.70274630766 -0.85064191973 -0.1767454189 0.49514581822 -0.95431650803 -0.14318091307 0.26225794293 
-0.98636593048 -0.15212636488 0.062767987831 -0.97825419105 -0.17449463081 -0.11211762352 -0.94379263803 -0.19686629969 -0.26551669713 
-0.89358000291 -0.20946293097 -0.39703911515 -0.83952094655 -0.20461890735 -0.5033246299 -0.79985932167 -0.18318334566 -0.57154958439 
-0.79213260325 -0.17298789496 -0.58532138784 -0.80086381034 -0.20125596483 -0.56401524262 -0.80345924231 -0.24293617229 -0.54353956815 
-0.80151114311 -0.26791798303 -0.53460250827 -0.80111446391 -0.27060297139 -0.53384421659 -0.8029265965 -0.26003698761 -0.53636708112 
-0.804066976 -0.25344307618 -0.53781307648 -0.80051688696 -0.27359067912 -0.53321745469 -0.785270511 -0.34777475374 -0.51225281377 
-0.73689445212 -0.51155900595 -0.44192075065 -0.61040227403 -0.7504968277 -0.25330530093 -0.4276900335 -0.90389736947 0.007126058766 
-0.29474906996 -0.94003961615 0.17160566959 -0.22347542563 -0.94405253347 0.24253566376 -0.19003996411 -0.94425552157 0.26882396103 
-0.1789136056 -0.94437134158 0.2759577702 -0.1791803657 -0.94436400303 0.27580976474 -0.17825645559 -0.94440103711 0.27628122836 
-0.16391115257 -0.94491313159 0.28332368027 -0.13007756983 -0.94511851901 0.29971788544 -0.080421038445 -0.94270075726 0.3238020056 
-0.027693660589 -0.93644247819 0.34972638763 0.0090319456251 -0.929652026 0.36832802569 0.010475945586 -0.92933321134 0.36909353403 
-0.03885976364 -0.93911036381 0.34141125252 -0.14853624676 -0.94970499314 0.27567627646 -0.30867499064 -0.93550483721 0.1719024424 
-0.47630041091 -0.87768782601 0.05293390828 -0.60132132379 -0.79776166788 -0.044598058483 -0.6984220991 -0.70416565385 -0.12789567397 
-0.6984220991 -0.70416565385 -0.12789567397 
