# vtk DataFile Version 4.2
vtk output
ASCII
DATASET POLYDATA
POINTS 64 float
0 0 0 -0.769107 0.657636 0.270812 -1.59341 1.10524 0.544847 
-2.53504 1.32099 0.858872 -3.47881 1.19053 1.20099 -4.3201 0.754535 1.5595 
-5.0328 0.134114 1.9274 -5.64819 -0.579807 2.30246 -6.20801 -1.34147 2.67098 
-6.75164 -2.13559 2.99164 -7.32067 -2.95846 3.15443 -7.91412 -3.73774 2.91563 
-8.40973 -4.32513 2.25598 -8.78385 -4.78887 1.43527 -9.06125 -5.23416 0.567047 
-9.22862 -5.71016 -0.312807 -9.24644 -6.2348 -1.18028 -9.07713 -6.80216 -2.00316 
-8.71992 -7.38978 -2.74813 -8.21152 -7.98028 -3.39717 -7.59417 -8.57274 -3.94165 
-6.89079 -9.17396 -4.35642 -6.10908 -9.78429 -4.56444 -5.29216 -10.3448 -4.37167 
-4.66489 -10.6522 -3.6484 -4.33937 -10.6725 -2.68974 -4.1914 -10.5635 -1.6923 
-4.14124 -10.4351 -0.687222 -4.16094 -10.369 0.324766 -4.24952 -10.4387 1.3324 
-4.41572 -10.7053 2.2959 -4.6523 -11.1919 3.15261 -4.92055 -11.8679 3.85866 
-5.16581 -12.6738 4.42313 -5.34016 -13.5583 4.88798 -5.40587 -14.4838 5.29773 
-5.33166 -15.4172 5.68706 -5.09495 -16.3248 6.07254 -4.68621 -17.171 6.45308 
-4.11264 -17.9226 6.81927 -3.40003 -18.5553 7.16584 -2.58717 -19.0598 7.50234 
-1.71313 -19.4375 7.85183 -0.813232 -19.6924 8.24414 0.0809271 -19.8309 8.70239 
0.946429 -19.8701 9.22992 1.77577 -19.8426 9.81355 2.57378 -19.7872 10.4376 
3.35015 -19.7421 11.0892 4.11142 -19.7397 11.7599 4.85674 -19.8041 12.4451 
5.57764 -19.9498 13.1438 6.26245 -20.1827 13.855 6.90362 -20.5025 14.5731 
7.50241 -20.9052 15.2861 8.06713 -21.3889 15.9762 8.60508 -21.9575 16.6213 
9.11249 -22.6215 17.1961 9.57093 -23.3883 17.676 9.96081 -24.2486 18.0448 
10.2769 -25.178 18.3018 10.5301 -26.1513 18.4605 10.7309 -27.1041 18.5397 
10.9152 -28.1357 18.5546 
LINES 1 65
64 0 1 2 3 4 5 6 7 8 9 10 11 12 13 14 15 16 17 18 19 20 21 22 23 24 25 26 27 28 29 30 31 32 33 34 35 36 37 38 39 40 41 42 43 44 45 46 47 48 49 50 51 52 53 54 55 56 57 58 59 60 61 62 63 

POINT_DATA 64
SCALARS MaximumInscribedSphereRadius float
LOOKUP_TABLE default
0.8742 0.904215 0.991724 1.17273 1.06976 1.33449 1.82282 1.93206 1.74743 
1.55027 1.48012 1.24629 1.23711 1.12602 1.6124 1.73628 1.58746 1.77836 
1.69109 1.48041 1.30321 1.42539 1.7591 2.0153 1.984 2.0364 2.18773 
2.36429 2.10801 1.86 1.86 1.94941 2.33963 2.28294 1.94227 1.63744 
1.79377 1.55021 1.4009 1.81457 1.85843 1.75403 1.56276 1.79156 1.8848 
1.88081 1.88212 2.03758 2.0852 1.92595 2.06183 1.9274 1.69169 2.04119 
2.07832 2.13177 2.42905 2.48 2.64766 2.79 2.76664 2.58234 2.59289 
2.79 
TEXTURE_COORDINATES TCoords 2 float
0 0 0.015873 0 0.031746 0 0.047619 0 0.0634921 
0 0.0793651 0 0.0952381 0 0.111111 0 0.126984 0 
0.142857 0 0.15873 0 0.174603 0 0.190476 0 0.206349 
0 0.222222 0 0.238095 0 0.253968 0 0.269841 0 
0.285714 0 0.301587 0 0.31746 0 0.333333 0 0.349206 
0 0.365079 0 0.380952 0 0.396825 0 0.412698 0 
0.428571 0 0.444444 0 0.460317 0 0.47619 0 0.492063 
0 0.507937 0 0.52381 0 0.539683 0 0.555556 0 
0.571429 0 0.587302 0 0.603175 0 0.619048 0 0.634921 
0 0.650794 0 0.666667 0 0.68254 0 0.698413 0 
0.714286 0 0.730159 0 0.746032 0 0.761905 0 0.777778 
0 0.793651 0 0.809524 0 0.825397 0 0.84127 0 
0.857143 0 0.873016 0 0.888889 0 0.904762 0 0.920635 
0 0.936508 0 0.952381 0 0.968254 0 0.984127 0 
1 0 
FIELD FieldData 4
Curvature 1 64 float
0.140412 0.178895 0.225762 0.258819 0.233482 0.166752 0.100935 0.0546049 0.0674574 
0.162985 0.327154 0.368389 0.206162 0.0979012 0.0849911 0.112976 0.142371 0.147836 
0.130703 0.108134 0.115434 0.173258 0.318035 0.474057 0.362693 0.175871 0.0734757 
0.068901 0.111786 0.157465 0.183118 0.178508 0.144911 0.109578 0.0932069 0.101709 
0.117979 0.131017 0.136426 0.132437 0.117062 0.101457 0.0947898 0.0965284 0.0894964 
0.0679694 0.0424219 0.02661 0.0354067 0.0503941 0.0619022 0.0682819 0.069892 0.0669257 
0.0652662 0.0716404 0.0879552 0.106443 0.116381 0.110906 0.0947234 0.074745 0.0573489 
0.0435945 
Torsion 1 64 float
-0.0164471 -0.0257507 -0.0404476 -0.0574126 -0.0636199 -0.0702706 -0.0205232 0.283013 0.296033 
0.0847551 0.00788717 -0.0595288 -0.15623 -0.312429 -0.186758 -0.0227373 0.0151358 -0.00230671 
-0.0500803 -0.107069 -0.101959 -0.0442724 -0.000924335 0.0246311 0.00543692 -0.11006 -0.535631 
-0.498524 -0.120148 -0.0260998 -0.0448277 -0.0993682 -0.187297 -0.289052 -0.335846 -0.211988 
-0.0824543 -0.0217993 -0.0146677 -0.047305 -0.115843 -0.199384 -0.22751 -0.157634 -0.0971933 
-0.133592 -0.356342 -0.742305 -0.316974 -0.050948 0.0375247 0.031302 -0.0222667 -0.102613 
-0.159382 -0.124581 -0.0177919 0.0300245 0.0178989 -0.00680866 -0.0317353 -0.0517587 -0.0717605 
-0.0994119 
Abscissas 1 64 double
0 1.0475444566 2.0247440649 3.0405354162 4.0528417853 5.0659472346 6.079961307 7.0943849515 8.1089419372 
9.1233374669 10.1369519 11.145156981 12.157975938 13.172165557 14.186585201 15.200847325 16.2147938 17.228543558 
18.242384175 19.256485815 20.270680002 21.284700027 22.298038131 23.307317826 24.312848098 25.32547807 26.339702227 
27.354197433 28.36853191 29.382446452 30.395886997 31.409142906 32.422754833 33.436822357 34.451097211 35.465370391 
36.479507691 37.493506685 38.50741553 39.52130128 40.535299772 41.549454645 42.563713539 43.577973451 44.592220165 
45.606578465 46.621068288 47.635641894 48.650218732 49.664754513 50.679233568 51.693675803 52.708091459 53.722515377 
54.736960833 55.751399019 56.765780464 57.780024527 58.794131903 59.808082514 60.822852129 61.841030195 62.817905985 
63.865937912 
ParallelTransportNormals 3 64 double
0.33212466646 0 0.94323549866 0.31965132899 0.0085844445507 0.94749635102 0.31822905071 0.0091230170821 0.9479699583 
0.3397936954 0.0081542769073 0.94046464704 0.38241456498 0.021676075608 0.92373656864 0.42363113598 0.049692238092 0.90447075249 
0.45154146648 0.07773295626 0.8888576329 0.46044734953 0.088915044986 0.88322270866 0.44021349857 0.060386640505 0.89586021751 
0.35612504066 -0.061816377036 0.93239138292 0.12690264575 -0.37769458297 0.91719273901 -0.12421853277 -0.69286531865 0.71028684792 
-0.2165110957 -0.80440581762 0.55322167892 -0.23621726517 -0.83190032288 0.50213868247 -0.237581699 -0.83472664109 0.49677597663 
-0.23656461434 -0.82923039645 0.50637351119 -0.23758663704 -0.82186418364 0.51777587193 -0.24078013038 -0.81485893618 0.52728535249 
-0.24779377836 -0.80531297654 0.53858077688 -0.26479605902 -0.78744652684 0.55660669641 -0.30117298844 -0.75456903091 0.58302693645 
-0.37713579395 -0.69259846208 0.61487881997 -0.53919023936 -0.57392964837 0.61634296013 -0.76258448555 -0.43971941146 0.47445942038 
-0.86918521927 -0.40297328342 0.28658260143 -0.89561211376 -0.4079144381 0.1774394344 -0.90343108051 -0.4172845923 0.098416725226 
-0.90476329445 -0.42579286465 0.010189084195 -0.89840536416 -0.42558231011 -0.10838587999 -0.8785398518 -0.39936011369 -0.26206722113 
-0.84313540996 -0.33315102455 -0.4220581421 -0.8048924436 -0.24508267153 -0.5404467026 -0.78224430113 -0.17972384614 -0.59648402534 
-0.77854068549 -0.16480403068 -0.60556918061 -0.78374775863 -0.2040631205 -0.58659840921 -0.78334881873 -0.29128389442 -0.54910683938 
-0.76314368639 -0.41091730036 -0.49875714149 -0.71440827404 -0.54333330981 -0.44091919036 -0.63590114825 -0.67103300492 -0.38124065361 
-0.53452803671 -0.78013731544 -0.32506237407 -0.42234686566 -0.86376601309 -0.27482976494 -0.30784101175 -0.92364974364 -0.22826533369 
-0.19432156303 -0.96413283104 -0.18079550394 -0.086521237584 -0.98777288999 -0.12968729026 0.0032001915531 -0.99683575662 -0.079424385997 
0.061891481682 -0.99724264314 -0.040945759332 0.086744014752 -0.99597647272 -0.022502037514 0.080831752402 -0.99635402454 -0.027292591981 
0.050285352485 -0.99729771982 -0.053559699062 0.0026481753778 -0.99533624447 -0.096430014076 -0.054084932672 -0.98720882442 -0.14997852196 
-0.1131587911 -0.97129739891 -0.20922822677 -0.16984093907 -0.94766909809 -0.27032820042 -0.22248251601 -0.91699701035 -0.33108611127 
-0.27310046292 -0.87843705161 -0.39212814679 -0.32663634417 -0.82734537027 -0.45695550873 -0.38830458559 -0.75462780959 -0.52892004859 
-0.45761109087 -0.65195980207 -0.60459945915 -0.52381886087 -0.52497157831 -0.67083428875 -0.57551531465 -0.39391667716 -0.71666712918 
-0.6097561546 -0.27949271705 -0.74167462748 -0.62957512693 -0.19523716063 -0.75200904959 -0.64309660388 -0.12576459533 -0.75538733418 
-0.64309660388 -0.12576459533 -0.75538733418 
