# vtk DataFile Version 4.2
vtk output
ASCII
DATASET POLYDATA
POINTS 64 float
0 0 0 -0.539411 0.0497539 0.701926 -1.34396 0.104739 1.59493 
-2.08403 0.109717 2.18061 -2.94411 0.0564307 2.73561 -3.84964 -0.0923126 3.18185 
-4.76273 -0.36201 3.52448 -5.65753 -0.759103 3.79761 -6.50491 -1.27101 4.02177 
-7.29912 -1.87027 4.22171 -8.04494 -2.5312 4.41371 -8.75061 -3.23455 4.60586 
-9.42375 -3.96845 4.8003 -10.0685 -4.72749 4.99438 -10.6847 -5.51157 5.18178 
-11.2663 -6.32533 5.35273 -11.7995 -7.17725 5.49385 -12.2601 -8.07706 5.58801 
-12.6141 -9.0282 5.61647 -12.8246 -10.0207 5.56363 -12.8668 -11.0258 5.42417 
-12.7467 -12.0103 5.2054 -12.494 -12.9514 4.91984 -12.1496 -13.8432 4.57887 
-11.7486 -14.6903 4.18996 -11.3188 -15.5024 3.75915 -10.8814 -16.2907 3.29356 
-10.4522 -17.068 2.80315 -10.043 -17.8504 2.30084 -9.66614 -18.6535 1.81218 
-9.33438 -19.5048 1.37435 -9.06696 -20.4517 1.0595 -8.95824 -21.4448 1.15974 
-9.06044 -22.2648 1.7723 -9.32587 -22.6832 2.66178 -9.67446 -22.8358 3.61034 
-10.0745 -22.8046 4.54006 -10.516 -22.6086 5.43432 -10.9801 -22.2626 6.2689 
-11.4435 -21.7752 7.02947 -11.8768 -21.1591 7.71049 -12.2462 -20.4338 8.31749 
-12.5157 -19.6255 8.86979 -12.6469 -18.7663 9.39516 -12.5935 -17.9018 9.92717 
-12.309 -17.1094 10.499 -11.774 -16.515 11.1298 -11.0666 -16.2273 11.8013 
-10.309 -16.2696 12.4818 -9.60638 -16.575 13.1498 -9.00356 -17.0706 13.8004 
-8.51885 -17.7046 14.4289 -8.1594 -18.4438 15.0253 -7.92777 -19.2666 15.5736 
-7.82442 -20.1577 16.0498 -7.84358 -21.103 16.4208 -7.96746 -22.0858 16.6461 
-8.16029 -23.0834 16.6844 -8.37057 -24.0609 16.5196 -8.53388 -24.9966 16.1467 
-8.60183 -25.8639 15.6045 -8.57816 -26.5995 15.0094 -8.33974 -27.3996 14.1447 
-8.09272 -27.9394 13.4853 
LINES 1 65
64 0 1 2 3 4 5 6 7 8 9 10 11 12 13 14 15 16 17 18 19 20 21 22 23 24 25 26 27 28 29 30 31 32 33 34 35 36 37 38 39 40 41 42 43 44 45 46 47 48 49 50 51 52 53 54 55 56 57 58 59 60 61 62 63 

POINT_DATA 64
SCALARS MaximumInscribedSphereRadius float
LOOKUP_TABLE default
1.24 1.14699 1.04721 0.962495 0.93338 0.93 0.93 0.93 0.93 
1.00169 1.09889 1.20047 1.22973 1.24 1.24 1.24 1.24 1.24 
1.24 1.24 1.29246 1.37885 1.4897 1.53514 1.55 1.55 1.55 
1.55 1.55 1.55 1.55 1.58726 1.69365 1.85413 1.85885 1.88857 
1.95496 2.06585 2.11389 2.0684 1.97493 1.89129 1.87524 1.85964 1.82102 
1.69388 1.52208 1.30669 1.06075 0.95992 0.93 0.947831 1.00137 1.10542 
1.21352 1.32408 1.43829 1.55499 1.67118 1.78549 1.89313 1.99265 2.08501 
2.17 
TEXTURE_COORDINATES TCoords 2 float
0 0 0.015873 0 0.031746 0 0.047619 0 0.0634921 
0 0.0793651 0 0.0952381 0 0.111111 0 0.126984 0 
0.142857 0 0.15873 0 0.174603 0 0.190476 0 0.206349 
0 0.222222 0 0.238095 0 0.253968 0 0.269841 0 
0.285714 0 0.301587 0 0.31746 0 0.333333 0 0.349206 
0 0.365079 0 0.380952 0 0.396825 0 0.412698 0 
0.428571 0 0.444444 0 0.460317 0 0.47619 0 0.492063 
0 0.507937 0 0.52381 0 0.539683 0 0.555556 0 
0.571429 0 0.587302 0 0.603175 0 0.619048 0 0.634921 
0 0.650794 0 0.666667 0 0.68254 0 0.698413 0 
0.714286 0 0.730159 0 0.746032 0 0.761905 0 0.777778 
0 0.793651 0 0.809524 0 0.825397 0 0.84127 0 
0.857143 0 0.873016 0 0.888889 0 0.904762 0 0.920635 
0 0.936508 0 0.952381 0 0.968254 0 0.984127 0 
1 0 
FIELD FieldData 4
Curvature 1 64 float
0.177196 0.18923 0.198655 0.20546 0.20914 0.208846 0.201241 0.184586 0.152156 
0.118985 0.0888591 0.0640376 0.0530721 0.0567468 0.0736368 0.104464 0.146853 0.191003 
0.232042 0.254056 0.244826 0.216544 0.173503 0.13187 0.095375 0.0642142 0.039685 
0.0533442 0.0970774 0.177186 0.323749 0.631636 0.788903 0.690157 0.431807 0.30407 
0.243272 0.221951 0.215654 0.207436 0.198741 0.191601 0.21412 0.265658 0.343316 
0.438056 0.470624 0.447542 0.373147 0.30139 0.254279 0.226028 0.21472 0.220734 
0.233266 0.250365 0.269341 0.281227 0.285772 0.282735 0.271684 0.255012 0.234912 
0.212314 
Torsion 1 64 float
-0.0828529 -0.123221 -0.177988 -0.242128 -0.308671 -0.322666 -0.294711 -0.235373 -0.18778 
-0.150357 -0.0940682 -0.00271957 0.159254 0.200114 0.15669 0.063838 0.018161 -0.00847891 
-0.0192396 -0.0113087 0.0268952 0.0779518 0.135871 0.200701 0.297902 0.502931 0.923224 
0.624843 0.348703 0.167952 0.128988 0.0908741 0.027364 -0.0591403 -0.0794505 -0.0534225 
-0.000494169 0.0713688 0.142976 0.23922 0.34908 0.458943 0.451878 0.395501 0.314047 
0.271033 0.251825 0.236322 0.216015 0.174532 0.0999445 0.0144242 -0.0650164 -0.141892 
-0.215016 -0.279224 -0.320835 -0.337788 -0.326226 -0.284977 -0.215002 -0.153835 -0.104289 
-0.069222 
Abscissas 1 64 double
0 0.8866446974 2.0898833477 3.033673852 4.0586636697 5.0790761872 6.0909343488 7.107280197 8.1223434211 
9.137160044 10.152020018 11.166712594 12.181369159 13.196034839 14.210715176 15.225416292 16.24030977 17.255556564 
18.270835096 19.286768791 20.302351974 21.317997944 22.333443078 23.348372688 24.363154944 25.377937885 26.392576466 
27.406866152 28.422754463 29.435520089 30.448713162 31.481822587 32.485803169 33.514448612 34.53263417 35.554670707 
36.56729591 37.583687723 38.599355337 39.614614763 40.630104661 41.645450067 42.660825183 43.676443264 44.692901195 
45.710650903 46.729258086 47.746113956 48.765385431 49.781818808 50.797879928 51.813638262 52.829191088 53.844737794 
54.860389043 55.876045276 56.891940324 57.908755494 58.922068813 59.942468506 60.967569387 61.914006322 63.116018796 
64.003272582 
ParallelTransportNormals 3 64 double
0 -0.99749729171 0.070704688846 0.0044071948714 -0.99784865968 0.065411230019 0.027733091184 -0.99866705168 0.043531546489 
0.070247528044 -0.99744360803 0.013097083479 0.14731502431 -0.98861636846 -0.030593457092 0.25555396979 -0.96368204992 -0.077518224888 
0.37266065035 -0.92050971245 -0.11741341053 0.4822184101 -0.86334135639 -0.14868459001 0.56584141022 -0.80673751449 -0.17028822978 
0.62460823289 -0.75864951258 -0.18524435883 0.6649829189 -0.72070054106 -0.19592970086 0.69392571986 -0.69053086732 -0.20404464364 
0.71768107613 -0.66362089661 -0.21104781103 0.74131067953 -0.6347036739 -0.21819652322 0.76929272457 -0.59737378952 -0.22656844334 
0.80545835579 -0.54333534414 -0.23669292532 0.85165366944 -0.46191550095 -0.24762895089 0.90357531965 -0.34394767198 -0.25544400691 
0.94894650008 -0.18773592128 -0.25348720648 0.97167551487 -0.008003184082 -0.23618349403 0.96496283442 0.16336100538 -0.2053287854 
0.93792671451 0.30301139522 -0.16875299278 0.9058433255 0.40149642128 -0.1350869844 0.87842519737 0.46546039169 -0.10823953253 
0.8597633112 0.50273069662 -0.089827030357 0.85066396711 0.51952205133 -0.080421721192 0.85038487037 0.5200262988 -0.080113799067 
0.85796027049 0.50593306219 -0.089083729438 0.87305424152 0.47548720709 -0.10811201253 0.89650580974 0.42073631806 -0.13877421868 
0.92934965319 0.32231918548 -0.18005433845 0.97487891667 0.085992798747 -0.20546614415 0.97627861458 -0.19379761745 -0.09655335405 
0.9264683618 -0.36093470118 0.10668887511 0.87642622223 -0.40752405823 0.25651748274 0.83064110983 -0.41489426966 0.37134632307 
0.78296756494 -0.40203831873 0.47468619374 0.73601856502 -0.3739406285 0.56430938173 0.69342274334 -0.33566842796 0.63756694197 
0.66145480566 -0.29632401273 0.68896271274 0.64538349614 -0.26946608502 0.71475042633 0.64632563744 -0.27172746411 0.71304092144 
0.65733632771 -0.31755379944 0.68342412654 0.66205570898 -0.42199774517 0.61935461674 0.62761760938 -0.59098925601 0.50678184229 
0.50430865887 -0.79970696821 0.32579371017 0.29043967204 -0.9514801557 0.10163813366 0.0514626522 -0.99157166792 -0.11890005386 
-0.13494312622 -0.94714252669 -0.29105220637 -0.26199205973 -0.8691816066 -0.41938466279 -0.34724247409 -0.78063156668 -0.5196508648 
-0.40586848807 -0.68526499378 -0.60471700712 -0.44572993591 -0.57992458727 -0.68191810162 -0.46959502101 -0.45781851367 -0.75490577212 
-0.47624032059 -0.31287316794 -0.82176975962 -0.46356964106 -0.14205673574 -0.87459880615 -0.43300220288 0.049102866666 -0.90005444324 
-0.39510503866 0.23476451495 -0.88813153922 -0.36304546611 0.39888456991 -0.84207427786 -0.3479489025 0.51648206227 -0.78241794497 
-0.34625113412 0.58325392869 -0.73479589465 -0.35435876681 0.63562842311 -0.68586177334 -0.36019909839 0.65123527846 -0.6679440258 
-0.36019909839 0.65123527846 -0.6679440258 
