# vtk DataFile Version 4.2
vtk output
ASCII
DATASET POLYDATA
POINTS 64 float
0 0 0 -0.308675 0.665585 0.630333 -0.719831 1.43165 1.28596 
-1.16738 2.12453 1.81023 -1.69979 2.84223 2.31966 -2.29789 3.52306 2.76655 
-2.96919 4.17116 3.16813 -3.71031 4.76913 3.51797 -4.51868 5.30579 3.81514 
-5.38884 5.76848 4.05708 -6.31361 6.143 4.24241 -7.28382 6.41123 4.37175 
-8.28647 6.54805 4.44984 -9.3004 6.52278 4.48901 -10.2925 6.30961 4.51271 
-11.2227 5.90511 4.55309 -12.0602 5.33816 4.63899 -12.7973 4.65548 4.7825 
-13.4447 3.89857 4.97671 -14.0184 3.09231 5.20142 -14.5293 2.24526 5.4276 
-14.9776 1.35489 5.61727 -15.3464 0.414752 5.71991 -15.5943 -0.568369 5.67048 
-15.6621 -1.5485 5.41207 -15.5177 -2.44591 4.95981 -15.1816 -3.21719 4.39132 
-14.6925 -3.8632 3.77996 -14.087 -4.40464 3.17154 -13.397 -4.86733 2.58881 
-12.6507 -5.279 2.03826 -11.8725 -5.66713 1.51557 -11.0838 -6.057 1.01014 
-10.3026 -6.46946 0.511142 -9.5425 -6.92035 0.0123791 -8.81354 -7.42058 -0.484247 
-8.12057 -7.98402 -0.970049 -7.47793 -8.62112 -1.41799 -6.8973 -9.38255 -1.78359 
-6.50405 -10.3115 -1.87254 -6.6622 -11.1433 -1.30808 -7.1801 -11.4921 -0.505892 
-7.80767 -11.5576 0.293532 -8.46915 -11.4738 1.0562 -9.14723 -11.2578 1.78081 
-9.81825 -10.9312 2.46801 -10.4603 -10.503 3.12701 -11.047 -9.98946 3.77639 
-11.5503 -9.41542 4.44496 -11.9385 -8.82168 5.17072 -12.174 -8.27827 5.99591 
-12.2119 -7.90951 6.94298 -12.0358 -7.86627 7.94059 -11.6962 -8.1988 8.83984 
-11.2803 -8.8158 9.53217 -10.8437 -9.60084 10.0054 -10.4123 -10.4798 10.2734 
-10.0005 -11.4046 10.3484 -9.62012 -12.3391 10.2341 -9.283 -13.2472 9.9369 
-9.00567 -14.0918 9.42837 -8.80346 -14.8061 8.7787 -8.70428 -15.3554 7.85113 
-8.70505 -15.6499 6.92705 
LINES 1 65
64 0 1 2 3 4 5 6 7 8 9 10 11 12 13 14 15 16 17 18 19 20 21 22 23 24 25 26 27 28 29 30 31 32 33 34 35 36 37 38 39 40 41 42 43 44 45 46 47 48 49 50 51 52 53 54 55 56 57 58 59 60 61 62 63 

POINT_DATA 64
SCALARS MaximumInscribedSphereRadius float
LOOKUP_TABLE default
0.93 1.18864 1.44289 1.45959 1.35402 1.23085 1.10832 1.00647 1.06867 
1.30689 1.4302 1.29208 1.06108 0.93 0.937162 0.977079 1.11169 1.19396 
1.1132 0.989315 0.864275 0.734779 0.624703 0.621195 0.647445 0.787623 0.894291 
0.93 0.950386 1.01913 1.14566 1.29641 1.64042 1.97846 2.07344 2.00862 
1.89084 1.76282 1.61529 1.43456 1.31659 1.35903 1.49484 1.66972 1.80542 
1.86 1.86 1.86 1.86 1.84045 1.72442 1.64389 1.70056 1.82727 
1.86 1.8581 1.75863 1.64117 1.62053 1.69672 1.78443 1.78294 1.6638 
1.55 
TEXTURE_COORDINATES TCoords 2 float
0 0 0.015873 0 0.031746 0 0.047619 0 0.0634921 
0 0.0793651 0 0.0952381 0 0.111111 0 0.126984 0 
0.142857 0 0.15873 0 0.174603 0 0.190476 0 0.206349 
0 0.222222 0 0.238095 0 0.253968 0 0.269841 0 
0.285714 0 0.301587 0 0.31746 0 0.333333 0 0.349206 
0 0.365079 0 0.380952 0 0.396825 0 0.412698 0 
0.428571 0 0.444444 0 0.460317 0 0.47619 0 0.492063 
0 0.507937 0 0.52381 0 0.539683 0 0.555556 0 
0.571429 0 0.587302 0 0.603175 0 0.619048 0 0.634921 
0 0.650794 0 0.666667 0 0.68254 0 0.698413 0 
0.714286 0 0.730159 0 0.746032 0 0.761905 0 0.777778 
0 0.793651 0 0.809524 0 0.825397 0 0.84127 0 
0.857143 0 0.873016 0 0.888889 0 0.904762 0 0.920635 
0 0.936508 0 0.952381 0 0.968254 0 0.984127 0 
1 0 
FIELD FieldData 4
Curvature 1 64 float
0.11373 0.10427 0.099469 0.0987742 0.10129 0.105894 0.111621 0.117961 0.124457 
0.132727 0.146032 0.165877 0.190553 0.213854 0.226199 0.218417 0.18844 0.14687 
0.10786 0.0899347 0.107491 0.160886 0.236844 0.317518 0.33774 0.292455 0.235702 
0.184899 0.141227 0.101461 0.0653973 0.0369365 0.0370534 0.0506638 0.0673745 0.0941718 
0.147027 0.259324 0.511821 1.10965 0.759267 0.40347 0.233711 0.165169 0.135871 
0.123679 0.120173 0.128504 0.164694 0.236205 0.340964 0.439724 0.470167 0.413962 
0.325993 0.260626 0.227239 0.215005 0.219639 0.238715 0.268509 0.300562 0.320449 
0.311886 
Torsion 1 64 float
0.150277 0.159167 0.15781 0.143679 0.118881 0.0909105 0.0678291 0.0532786 0.050581 
0.0685337 0.100967 0.134669 0.164992 0.187591 0.194406 0.175674 0.122511 0.0179568 
-0.203984 -0.411776 -0.386806 -0.177938 -0.0491572 0.0195793 0.098304 0.147958 0.163714 
0.157842 0.150332 0.171447 0.28077 0.584078 0.441195 0.13209 -0.0624235 -0.131434 
-0.127061 -0.0963642 -0.0663151 -0.0292492 0.027024 0.0190807 -0.0139611 -0.0722272 -0.163119 
-0.282149 -0.40212 -0.473311 -0.416418 -0.329778 -0.245105 -0.164123 -0.0879383 -0.0278041 
0.0030342 0.0144427 0.0152787 0.0148894 0.0151979 0.0158428 0.0156328 0.0137226 0.0103853 
0.0070372 
Abscissas 1 64 double
0 0.96726635986 2.0561840047 3.0335565574 4.0621790511 5.0726079443 6.0884471527 7.102958445 8.1177403411 
9.1325255407 10.14732447 11.162201061 12.177153292 13.192157485 14.207153773 15.222300498 16.237344132 17.252187147 
18.266953581 19.281663641 20.296401785 21.311149497 22.326253412 23.34134984 24.35724115 25.372484175 26.387896942 
27.402925977 28.417802539 29.432571542 30.447246448 31.461867652 32.476480402 33.491069913 34.505881887 35.51990834 
36.536608792 37.546327938 38.571302904 39.583961991 40.60157285 41.618142731 42.636575664 43.649606981 44.665239594 
45.679735965 46.694563123 47.709293674 48.724058535 49.738943175 50.754653009 51.771689009 52.785655496 53.80278643 
54.819161185 55.834466516 56.849606695 57.864685717 58.880109285 59.893304811 60.917446753 61.903940282 62.986518003 
63.956403756 
ParallelTransportNormals 3 64 double
-0.90718945944 -0.4207223368 0 -0.89094610205 -0.45316730361 -0.029230774413 -0.86119263704 -0.50346667793 -0.069774967659 
-0.83193106002 -0.54566106215 -0.10072098406 -0.78732881679 -0.60079628974 -0.13840936557 -0.73568654676 -0.65487245982 -0.1729374635 
-0.6716613149 -0.71135324895 -0.20699669868 -0.59645683793 -0.7664232803 -0.23840007528 -0.50922245188 -0.81836056362 -0.2664178718 
-0.40861521089 -0.86528668723 -0.2903662486 -0.29151074327 -0.90500705788 -0.30981238152 -0.15265253222 -0.93351679948 -0.32441268392 
0.010593052844 -0.9425472269 -0.33390494499 0.18983726737 -0.92124159027 -0.3395228185 0.36162027177 -0.86604483521 -0.3452493627 
0.49879281728 -0.79066209631 -0.35504813038 0.59202068433 -0.71667468522 -0.36863112306 0.6511318682 -0.6552094805 -0.38305068447 
0.69193815682 -0.6029698252 -0.39705034572 0.72748924149 -0.54877623231 -0.4118301232 0.76685186297 -0.47748026553 -0.42889487789 
0.81543885865 -0.36864296731 -0.44627550959 0.87053569551 -0.19682625486 -0.45102885521 0.90958399948 0.045957129917 -0.41297081022 
0.89906606385 0.3036106439 -0.31543745772 0.8404734281 0.50708377608 -0.1909724082 0.75949518006 0.64615176097 -0.075199556292 
0.67623099876 0.73647967316 0.017587704095 0.60326866234 0.79303065665 0.084671711026 0.54937737785 0.82583685712 0.12719269684 
0.51936266842 0.84158348591 0.14832280637 0.51439057319 0.84405227168 0.15158529244 0.53112032393 0.83550204257 0.14088129179 
0.563523726 0.81735169037 0.11990506449 0.60527165547 0.7906848981 0.091997907609 0.65406878679 0.75418631054 0.058284055711 
0.71049971314 0.7034454342 0.018832916288 0.78724919363 0.61579217918 -0.032228856548 0.91388479478 0.39560044267 -0.091185917879 
0.98713113388 -0.14992606409 0.055626430999 0.83637306338 -0.41308564567 0.3603336623 0.7177897801 -0.45600481297 0.52615343973 
0.64738270367 -0.45498268817 0.61146249963 0.58586970181 -0.44122582902 0.67976206154 0.53978562184 -0.42268815998 0.7279877759 
0.50920417579 -0.40510912189 0.75934031022 0.50099975529 -0.39882127348 0.768076062 0.51822944009 -0.41601401474 0.74724198689 
0.55912690753 -0.46958710845 0.68327523653 0.61312537207 -0.5680293623 0.5490172326 0.65192087438 -0.69741086471 0.29768651184 
0.62525344039 -0.77663925797 -0.076743718013 0.52054618795 -0.71799718074 -0.46207327844 0.39238093581 -0.55690611487 -0.73204697966 
0.28204569995 -0.37542990297 -0.88289445071 0.19031609294 -0.1995793463 -0.96122207075 0.11147676267 -0.030935833663 -0.99328540993 
0.039813053789 0.13726808355 -0.98973349645 -0.024592759875 0.30267521245 -0.95277642285 -0.090856170677 0.491623854 -0.86605493038 
-0.13790141888 0.64476973957 -0.75183454404 -0.18418769474 0.83695919944 -0.51533890944 -0.19511071557 0.93450527134 -0.29771077661 
-0.19511071557 0.93450527134 -0.29771077661 
