# vtk DataFile Version 4.2
vtk output
ASCII
DATASET POLYDATA
POINTS 64 float
0 0 0 -0.8673 0.509284 0.286714 -1.74535 0.885537 0.51085 
-2.69425 1.17316 0.731008 -3.67201 1.33165 0.951622 -4.66118 1.3335 1.17432 
-5.63635 1.16219 1.39283 -6.56945 0.829087 1.60909 -7.44274 0.371386 1.84698 
-8.25074 -0.166945 2.14062 -9.00059 -0.746093 2.50314 -9.71672 -1.33996 2.90796 
-10.4366 -1.94321 3.29144 -11.1944 -2.57312 3.52883 -11.9212 -3.2405 3.33528 
-12.3039 -3.85649 2.63403 -12.2728 -4.45571 1.81959 -11.8758 -5.14214 1.19534 
-11.2168 -5.87998 0.995109 -10.4938 -6.5763 1.13637 -9.77943 -7.2534 1.38314 
-9.08449 -7.97945 1.51825 -8.55026 -8.74103 1.15753 -8.4261 -9.24625 0.293523 
-8.57309 -9.52027 -0.673911 -8.83886 -9.68547 -1.63211 -9.11257 -9.75612 -1.35184 
-8.95637 -9.5767 -0.333283 -8.87323 -9.33406 0.658143 -8.93048 -9.06426 1.63266 
-9.21226 -8.8504 2.58156 -9.78464 -8.87416 3.41278 -10.485 -9.26396 4.02928 
-11.0909 -9.92779 4.49665 -11.513 -10.7519 4.90868 -11.722 -11.6609 5.30529 
-11.7231 -12.5987 5.69026 -11.5604 -13.5302 6.05688 -11.3075 -14.4489 6.4054 
-11.0325 -15.3648 6.7444 -10.7663 -16.2826 7.0852 -10.5018 -17.1941 7.44394 
-10.2013 -18.0736 7.85031 -9.79997 -18.8549 8.35578 -9.24837 -19.3996 9.00547 
-8.60182 -19.5891 9.76019 -7.95276 -19.5023 10.5342 -7.30766 -19.2969 11.2898 
-6.6313 -19.0727 12.012 -5.89686 -18.8638 12.6798 -5.10154 -18.6582 13.275 
-4.25782 -18.439 13.7938 -3.38074 -18.2106 14.2497 -2.48407 -17.9909 14.6706 
-1.58424 -17.7946 15.0962 -0.703227 -17.629 15.5711 0.137602 -17.5016 16.124 
0.933727 -17.4291 16.7484 1.70153 -17.4404 17.4112 2.46305 -17.5774 18.0667 
3.21679 -17.8864 18.6708 3.91436 -18.4 19.1986 4.4639 -19.0877 19.6343 
4.81066 -19.9965 20.0144 
LINES 1 65
64 0 1 2 3 4 5 6 7 8 9 10 11 12 13 14 15 16 17 18 19 20 21 22 23 24 25 26 27 28 29 30 31 32 33 34 35 36 37 38 39 40 41 42 43 44 45 46 47 48 49 50 51 52 53 54 55 56 57 58 59 60 61 62 63 

POINT_DATA 64
SCALARS MaximumInscribedSphereRadius float
LOOKUP_TABLE default
1.55 1.36478 1.18542 1.01281 1.03227 1.21581 1.40188 1.53042 1.43558 
1.38979 1.39297 1.4486 1.49322 1.19931 0.988601 1.11757 1.20724 1.24 
1.24 1.24 1.36357 2.01085 2.26402 1.88 2.05916 2.16849 1.84495 
1.66042 1.60573 1.72633 1.90614 2.14422 2.52426 2.71745 2.55976 2.58128 
2.73086 2.63833 2.45761 2.27979 2.11069 1.95341 1.98173 2.17259 2.47038 
2.50032 2.23089 2.17 2.0604 1.69565 1.66497 1.83448 1.86 1.80826 
1.66404 1.77044 2.13007 1.94117 1.67976 1.5896 1.62156 1.75186 1.55373 
1.24 
TEXTURE_COORDINATES TCoords 2 float
0 0 0.015873 0 0.031746 0 0.047619 0 0.0634921 
0 0.0793651 0 0.0952381 0 0.111111 0 0.126984 0 
0.142857 0 0.15873 0 0.174603 0 0.190476 0 0.206349 
0 0.222222 0 0.238095 0 0.253968 0 0.269841 0 
0.285714 0 0.301587 0 0.31746 0 0.333333 0 0.349206 
0 0.365079 0 0.380952 0 0.396825 0 0.412698 0 
0.428571 0 0.444444 0 0.460317 0 0.47619 0 0.492063 
0 0.507937 0 0.52381 0 0.539683 0 0.555556 0 
0.571429 0 0.587302 0 0.603175 0 0.619048 0 0.634921 
0 0.650794 0 0.666667 0 0.68254 0 0.698413 0 
0.714286 0 0.730159 0 0.746032 0 0.761905 0 0.777778 
0 0.793651 0 0.809524 0 0.825397 0 0.84127 0 
0.857143 0 0.873016 0 0.888889 0 0.904762 0 0.920635 
0 0.936508 0 0.952381 0 0.968254 0 0.984127 0 
1 0 
FIELD FieldData 4
Curvature 1 64 float
0.118137 0.0886735 0.0797626 0.0908652 0.108778 0.120478 0.115311 0.0970685 0.0846698 
0.0749989 0.0422397 0.0325069 0.133051 0.332058 0.468438 0.31099 0.288966 0.358367 
0.2625 0.0865882 0.116664 0.401021 0.513453 0.253277 0.160077 0.591552 0.606222 
0.109029 0.100237 0.178209 0.291137 0.325264 0.234587 0.174562 0.158422 0.145442 
0.114566 0.0635825 0.0193754 0.0170895 0.0149075 0.0491744 0.128071 0.228221 0.270691 
0.198099 0.0884987 0.0332743 0.0561668 0.0660368 0.0635612 0.0509309 0.0305966 0.0203698 
0.0425287 0.0662743 0.0699933 0.0676195 0.087093 0.123546 0.155045 0.18224 0.200704 
0.198696 
Torsion 1 64 float
-0.126558 -0.167308 -0.157444 -0.0667175 -0.000576359 -0.000815591 -0.0782629 -0.220999 -0.264363 
-0.157205 0.108192 0.227481 -0.0407764 -0.0943304 -0.233673 -0.411691 -0.320307 -0.121601 
-0.0504179 -0.801067 -0.601215 -0.0212513 0.0015074 0.0581188 0.151764 0.0482969 -0.0498633 
-0.208444 -0.302184 -0.199393 -0.224663 -0.292445 -0.317252 -0.252769 -0.119995 -0.0319246 
0.0122004 0.0671872 0.310763 0.200832 0.784092 0.22584 0.0261726 -0.0275866 -0.0489472 
-0.0091653 0.286139 1.06905 -0.00713134 -0.194203 -0.0873237 0.109722 0.464974 0.94737 
0.254308 -0.00620209 -0.211604 -0.399953 -0.262107 -0.0214181 0.12153 0.145585 0.100031 
0.0579243 
Abscissas 1 64 double
0 1.0458414976 2.0270568789 3.0427325175 4.0575213164 5.0714543278 6.0853825343 7.0994811345 8.1137425255 
9.1280848739 10.142535113 11.157125452 12.171621017 13.185201355 14.190781823 15.199554958 16.211160284 17.220331734 
18.229714528 19.243401033 20.258106981 21.272179314 22.269943204 23.278485331 24.2946645 25.302664388 25.700735237 
26.746701422 27.770769236 28.783563884 29.79625725 30.805761901 31.816936501 32.82999342 33.843401888 34.856939249 
35.870733896 36.884967544 37.89952942 38.9141336 39.928735131 40.943323103 41.957676379 42.9711056 43.982563595 
44.994265195 46.00810587 47.022655296 48.03717356 49.051590269 50.065996394 51.080450301 52.094986247 53.109576439 
54.124150598 55.138612171 56.152981766 57.167389527 58.181758799 59.195843132 60.209995651 61.224383781 62.206608263 
63.250914103 
ParallelTransportNormals 3 64 double
0.31387586837 0 0.94946402736 0.25847192606 0.027970066725 0.96561376275 0.23622847379 0.036076898216 0.9710275823 
0.22586740572 0.03847566059 0.97339793434 0.21954513965 0.038990833385 0.97482287959 0.21206425207 0.038345469729 0.9765031377 
0.21255899271 0.038476240845 0.97639042064 0.23817881174 0.049691916347 0.96994926006 0.29197508924 0.081561722109 0.9529418832 
0.35213098389 0.124712639 0.92760472608 0.38724798548 0.15281161888 0.90922362864 0.37169953528 0.13984980545 0.91775894841 
0.26189430548 0.048212696888 0.96389154401 -0.051675249546 -0.22584395195 0.97279194998 -0.36697595288 -0.59040046431 0.71885738624 
-0.41083895211 -0.74177892336 0.53007111248 -0.41417822602 -0.73175884403 0.5412812497 -0.50175731471 -0.61363621223 0.60966400268 
-0.60639511098 -0.50503687317 0.61418460264 -0.64866277393 -0.46464872215 0.60277538994 -0.62667792095 -0.4865385651 0.60873229589 
-0.50609581476 -0.63265993421 0.5861812296 -0.41336121241 -0.81068541097 0.41463438415 -0.41465791771 -0.857069921 0.30576128237 
-0.4230520004 -0.86598295234 0.26664682861 0.68856119071 -0.46707409015 0.55472991713 0.88372646078 -0.46492047082 -0.053632996627 
0.89416205454 -0.44642974397 0.034273953943 0.89585345502 -0.41190927224 0.16666534901 0.8653039211 -0.36832982555 0.33997391626 
0.77656937518 -0.34863083137 0.52478238248 0.72133110313 -0.36656859683 0.58762990349 0.77423053477 -0.32391383486 0.54373422424 
0.85768993189 -0.2031265568 0.47234265386 0.91766126443 -0.038439293584 0.39549996773 0.93701896022 0.13167651234 0.3235069772 
0.92527698985 0.26749877831 0.26889941549 0.90868787457 0.34134256711 0.24035723098 0.90389752324 0.35799181932 0.23411775836 
0.90603966505 0.35073320808 0.23680866137 0.90476282826 0.35513391077 0.23512577491 0.88962234529 0.40312375809 0.21462366696 
0.83784508169 0.52564586424 0.14735007468 0.70833260697 0.70581289452 -0.0096475818369 0.51595099563 0.82371098545 -0.23514842665 
0.37166029973 0.83517826164 -0.4053959705 0.30540952476 0.82021901596 -0.48370010134 0.27903122314 0.81164509039 -0.51319959447 
0.25720305004 0.80494487468 -0.53470584415 0.21859690644 0.79448318804 -0.56657908223 0.16700741436 0.78111097032 -0.60164289707 
0.12467653443 0.77009980297 -0.62562133533 0.10947812307 0.76626090961 -0.63313407662 0.12736219229 0.77040198469 -0.62470765479 
0.17664007547 0.78041636389 -0.599790449 0.24681696352 0.79235693836 -0.55789951492 0.32208399422 0.80155090003 -0.50376388847 
0.39496748561 0.80440350651 -0.44377436162 0.46982519815 0.7971429546 -0.37924582148 0.55989574534 0.77063114849 -0.30437540524 
0.67835734711 0.70348635663 -0.21198645159 0.80943178817 0.57668945183 -0.11067726253 0.93399169394 0.35728824562 0.0021506246808 
0.93399169394 0.35728824562 0.0021506246808 
