# vtk DataFile Version 4.2
vtk output
ASCII
DATASET POLYDATA
POINTS 64 float
0 0 0 -0.834903 -0.0305022 0.632325 -1.70537 0.0021655 1.07275 
-2.65821 0.0677496 1.42897 -3.63399 0.149071 1.69553 -4.62441 0.225067 1.90112 
-5.62376 0.270485 2.07024 -6.62557 0.249511 2.22868 -7.61471 0.113861 2.40706 
-8.55867 -0.178891 2.63347 -9.42249 -0.626728 2.91897 -10.2019 -1.18295 3.25368 
-10.9223 -1.79546 3.62134 -11.6155 -2.42877 4.00587 -12.31 -3.06226 4.38758 
-13.0311 -3.68717 4.73217 -13.8038 -4.30374 4.95779 -14.5978 -4.90065 4.78522 
-15.0574 -5.37115 4.02209 -15.153 -5.76883 3.0955 -15.0626 -6.19217 2.17825 
-14.8582 -6.67461 1.30974 -14.5748 -7.23224 0.511313 -14.2358 -7.87807 -0.193335 
-13.8646 -8.62536 -0.76949 -13.4941 -9.48413 -1.15969 -13.176 -10.4382 -1.27637 
-12.9762 -11.403 -1.04703 -12.9162 -12.267 -0.521409 -12.9551 -13.0059 0.172071 
-13.0432 -13.6637 0.939426 -13.1412 -14.2964 1.7265 -13.2121 -14.9584 2.49199 
-13.217 -15.694 3.19006 -13.1259 -16.5175 3.77467 -12.939 -17.4041 4.23009 
-12.682 -18.3192 4.58463 -12.3831 -19.2415 4.88367 -12.0597 -20.161 5.1653 
-11.717 -21.0709 5.455 -11.3473 -21.9627 5.76726 -10.9307 -22.823 6.10712 
-10.4389 -23.6315 6.47231 -9.84932 -24.3623 6.85577 -9.15885 -24.9911 7.25132 
-8.38646 -25.506 7.66004 -7.56125 -25.907 8.09258 -6.71246 -26.1996 8.56466 
-5.86746 -26.3908 9.09223 -5.05087 -26.4922 9.68539 -4.28005 -26.525 10.344 
-3.55922 -26.5234 11.0579 -2.87937 -26.5316 11.811 -2.22543 -26.5999 12.5835 
-1.58576 -26.7765 13.3506 -0.960417 -27.0905 14.0847 -0.359661 -27.5399 14.7672 
0.203829 -28.0976 15.4 0.71813 -28.7289 16.0051 1.16863 -29.4043 16.6132 
1.5324 -30.1028 17.253 1.77239 -30.8055 17.9504 1.8511 -31.4548 18.6762 
1.68171 -32.0607 19.5131 
LINES 1 65
64 0 1 2 3 4 5 6 7 8 9 10 11 12 13 14 15 16 17 18 19 20 21 22 23 24 25 26 27 28 29 30 31 32 33 34 35 36 37 38 39 40 41 42 43 44 45 46 47 48 49 50 51 52 53 54 55 56 57 58 59 60 61 62 63 

POINT_DATA 64
SCALARS MaximumInscribedSphereRadius float
LOOKUP_TABLE default
1.24 1.24 1.33091 1.50759 1.39794 1.21348 1.03246 1.02767 1.24745 
1.6276 1.76698 1.57951 1.78288 1.94062 1.89475 1.54111 1.12464 1.21465 
1.15605 1.29302 1.74157 2.0589 1.75348 1.62755 1.79983 1.87252 1.8848 
1.88204 1.86833 1.9639 2.12985 2.17 2.41467 2.81728 2.15002 1.82577 
2.39981 2.5156 2.40145 2.03165 2.16522 2.58793 2.36298 2.11838 2.2185 
2.22574 2.1948 2.19642 2.30506 2.47923 2.48717 2.48556 2.51615 2.73141 
2.89715 2.84999 2.65865 2.37201 2.04271 2.23417 2.72759 2.17067 1.96334 
2.17 
TEXTURE_COORDINATES TCoords 2 float
0 0 0.015873 0 0.031746 0 0.047619 0 0.0634921 
0 0.0793651 0 0.0952381 0 0.111111 0 0.126984 0 
0.142857 0 0.15873 0 0.174603 0 0.190476 0 0.206349 
0 0.222222 0 0.238095 0 0.253968 0 0.269841 0 
0.285714 0 0.301587 0 0.31746 0 0.333333 0 0.349206 
0 0.365079 0 0.380952 0 0.396825 0 0.412698 0 
0.428571 0 0.444444 0 0.460317 0 0.47619 0 0.492063 
0 0.507937 0 0.52381 0 0.539683 0 0.555556 0 
0.571429 0 0.587302 0 0.603175 0 0.619048 0 0.634921 
0 0.650794 0 0.666667 0 0.68254 0 0.698413 0 
0.714286 0 0.730159 0 0.746032 0 0.761905 0 0.777778 
0 0.793651 0 0.809524 0 0.825397 0 0.84127 0 
0.857143 0 0.873016 0 0.888889 0 0.904762 0 0.920635 
0 0.936508 0 0.952381 0 0.968254 0 0.984127 0 
1 0 
FIELD FieldData 4
Curvature 1 64 float
0.167208 0.131803 0.0976029 0.0684731 0.0465721 0.0381974 0.0551863 0.0922549 0.128113 
0.137641 0.11273 0.0735913 0.0337474 0.0173115 0.0595471 0.149471 0.353886 0.592977 
0.350458 0.184826 0.117689 0.0991301 0.102808 0.124688 0.167441 0.225099 0.275235 
0.254557 0.175402 0.0927244 0.0270454 0.0378809 0.0914641 0.127431 0.129844 0.0982192 
0.0576327 0.0251621 0.017388 0.0304055 0.0483353 0.0708967 0.0930434 0.106345 0.103789 
0.0939599 0.0861105 0.084744 0.084587 0.0778652 0.0609752 0.0441979 0.0522614 0.081363 
0.104794 0.108959 0.0940029 0.0699628 0.0577646 0.07033 0.099262 0.13913 0.181616 
0.211033 
Torsion 1 64 float
-0.0193316 -0.0283945 -0.048687 -0.106021 -0.288435 -0.492684 -0.315055 -0.1438 -0.0750476 
-0.0537374 -0.0501084 -0.0588667 -0.0682164 -0.0499464 -0.0550933 -0.0636586 -0.105026 -0.219244 
-0.214141 -0.187517 -0.175686 -0.162675 -0.137368 -0.107225 -0.0759855 -0.0470578 -0.0241175 
-0.00399837 0.00547768 0.0236637 2.45162 0.826902 0.00412701 -0.00954162 -0.0163058 -0.0339553 
-0.100449 -0.412563 -0.59009 0.0141979 0.133772 0.0973823 0.0406117 -0.0202892 -0.0857254 
-0.150436 -0.187929 -0.178996 -0.155252 -0.163972 -0.292887 -0.612702 -0.493179 -0.184884 
-0.0533604 0.0108896 0.0980731 0.267352 0.384715 0.230852 0.0906829 0.0414642 0.0233457 
0.0148097 
Abscissas 1 64 double
0 1.0477727823 2.0238608451 3.0432210729 4.0580214147 5.0724061425 6.0869835908 7.1014658949 8.1156662907 
9.1295819014 10.143610737 11.157988501 12.172531459 13.187134783 14.201724043 15.216210764 16.230187416 17.238423523 
18.245880932 19.258723044 20.272998543 21.287298945 22.301573904 23.315761893 24.329756065 25.343182845 26.355583936 
27.367275921 28.380365279 29.394478944 30.408983371 31.423593831 32.438085424 33.452253309 34.466202032 35.480350192 
36.494789472 37.509362892 38.523960715 39.538551326 40.553109485 41.567611025 42.58198316 43.596221542 44.610430087 
45.6246941 46.639031205 47.653386488 48.667742853 49.682108956 50.696534429 51.711058427 52.72561105 53.740084201 
54.754363534 55.768537304 56.782772057 57.797169112 58.811674446 59.826016239 60.840659339 61.859356432 62.836363179 
63.883375906 
ParallelTransportNormals 3 64 double
0.60375004647 0 0.79717368333 0.45147717581 0.000392852213 0.89228258158 0.35052556682 0.0057985773567 0.9365352121 
0.26445471946 0.012356079419 0.9643189455 0.20448174104 0.017154514586 0.97872005201 0.16768743298 0.019399727962 0.98564931663 
0.15577697233 0.019545193675 0.98759886609 0.17464180106 0.021029404421 0.98440743875 0.22374880496 0.031912850517 0.97412424375 
0.28628066811 0.057529792218 0.9564171172 0.33844398434 0.089401106453 0.93673001 0.37190334745 0.11547368421 0.92106119689 
0.38787333353 0.12954873246 0.91256309538 0.38576870597 0.12762746456 0.91372519708 0.35614122507 0.10128981764 0.92892615457 
0.26275603588 0.023677305417 0.96457174477 -0.048479608855 -0.21736366215 0.97488602713 -0.48162470318 -0.58618713946 0.65147700099 
-0.57352807149 -0.72968818177 0.37231802079 -0.57374767696 -0.76369804627 0.29593731991 -0.57290910149 -0.76627524791 0.29085633202 
-0.58069196553 -0.7496795263 0.31745464088 -0.60002809717 -0.71229444545 0.36414681871 -0.63470941585 -0.64426838287 0.42668748314 
-0.69007674407 -0.5243803728 0.49881791459 -0.76641577609 -0.32339270545 0.55499911371 -0.84122799043 -0.046168809959 0.5387057723 
-0.87678493597 0.20400297366 0.43546637391 -0.87871778697 0.35045438725 0.32409377243 -0.8727920988 0.41559064627 0.25596555825 
-0.87062217154 0.43063766993 0.23784076956 -0.87400913332 0.40466816624 0.26898273198 -0.87791432754 0.33262930132 0.34441861362 
-0.87147663726 0.21617801732 0.4402221434 -0.85049613002 0.08711441873 0.51871708172 -0.82574256013 -0.013366824575 0.56388877662 
-0.80792875873 -0.072248458228 0.58483440485 -0.79880894819 -0.099236902561 0.59334332512 -0.79506609627 -0.10951628354 0.59655350658 
-0.79162728911 -0.11821404427 0.59945948559 -0.78229020185 -0.13901888479 0.60720325244 -0.75993006964 -0.18009544373 0.6245573796 
-0.71933185867 -0.23788764873 0.65266464871 -0.66371884215 -0.29695550179 0.68650908845 -0.60716206824 -0.34117314934 0.71760372425 
-0.56519736329 -0.36523098831 0.73970147067 -0.5458825723 -0.37323398916 0.75013905817 -0.55071736409 -0.37185285364 0.74728564828 
-0.57601574782 -0.36739821116 0.73022216667 -0.61393714532 -0.36419261897 0.70031772638 -0.65518471225 -0.3633288058 0.66236332304 
-0.69355034772 -0.36314752448 0.62218308451 -0.72723557909 -0.36121529818 0.58365393931 -0.75643330914 -0.35568787948 0.54890325306 
-0.78213948622 -0.34571862645 0.51839797011 -0.8056829532 -0.33106098495 0.49119609441 -0.8292325621 -0.31068945756 0.46459166902 
-0.85589124951 -0.28127949216 0.43397236812 -0.8879504478 -0.23785955177 0.39365827297 -0.92560622854 -0.17432593865 0.33595174773 
-0.96504743261 -0.082831283773 0.24864116962 -0.99083788788 0.027653769272 0.13219511709 -0.98050805958 0.18578183044 -0.063945731529 
-0.98050805958 0.18578183044 -0.063945731529 
