# vtk DataFile Version 4.2
vtk output
ASCII
DATASET POLYDATA
POINTS 64 float
0 0 0 -1.04403 0.0270342 0.0787288 -2.01032 -0.0467412 0.158849 
-3.01155 -0.237367 0.268472 -3.95588 -0.566998 0.427138 -4.82777 -1.03091 0.657798 
-5.61157 -1.59617 0.96613 -6.32004 -2.21831 1.34057 -6.98024 -2.86168 1.76431 
-7.62017 -3.5036 2.22021 -8.26454 -4.13178 2.68884 -8.93566 -4.74057 3.14514 
-9.6587 -5.32756 3.54767 -10.4698 -5.8819 3.79905 -11.3486 -6.33173 3.61918 
-11.9872 -6.5633 2.86961 -12.2961 -6.6891 1.91164 -12.3958 -6.82888 0.912195 
-12.3335 -7.03348 -0.079162 -12.1246 -7.335 -1.02459 -11.7771 -7.75396 -1.88005 
-11.307 -8.29614 -2.59618 -10.7442 -8.94955 -3.12928 -10.1304 -9.6908 -3.4479 
-9.51402 -10.4914 -3.5296 -8.95283 -11.3169 -3.35422 -8.51597 -12.1183 -2.91428 
-8.26189 -12.8388 -2.24869 -8.19598 -13.4528 -1.44441 -8.27672 -13.9812 -0.582323 
-8.45596 -14.465 0.291187 -8.69287 -14.9467 1.15215 -8.95193 -15.4664 1.98407 
-9.19639 -16.0619 2.76803 -9.38392 -16.7635 3.47597 -9.47094 -17.5793 4.07181 
-9.4341 -18.4818 4.53268 -9.28465 -19.4261 4.87175 -9.0514 -20.3799 5.12675 
-8.76076 -21.3283 5.33988 -8.43016 -22.2645 5.5484 -8.06682 -23.1823 5.78301 
-7.66832 -24.0712 6.06624 -7.22396 -24.9162 6.40941 -6.71884 -25.6988 6.81129 
-6.14057 -26.4011 7.25989 -5.48446 -27.0104 7.7366 -4.75486 -27.5207 8.22267 
-3.96596 -27.9335 8.70881 -3.13981 -28.2559 9.20152 -2.30061 -28.4966 9.71827 
-1.47226 -28.667 10.2786 -0.676646 -28.7838 10.8971 0.068766 -28.8691 11.58 
0.752922 -28.9513 12.3245 1.37049 -29.0626 13.1217 1.91922 -29.2378 13.9567 
2.39654 -29.5121 14.8086 2.79845 -29.9144 15.6485 3.12459 -30.453 16.4436 
3.38646 -31.108 17.1704 3.61285 -31.8574 17.8328 3.81682 -32.6159 18.4058 
4.05622 -33.4666 18.9679 
LINES 1 65
64 0 1 2 3 4 5 6 7 8 9 10 11 12 13 14 15 16 17 18 19 20 21 22 23 24 25 26 27 28 29 30 31 32 33 34 35 36 37 38 39 40 41 42 43 44 45 46 47 48 49 50 51 52 53 54 55 56 57 58 59 60 61 62 63 

POINT_DATA 64
SCALARS MaximumInscribedSphereRadius float
LOOKUP_TABLE default
1.24 1.24 1.26637 1.39477 1.57313 1.75065 1.79244 1.63769 1.84266 
2.19065 2.0225 1.54116 1.4606 1.56474 1.67643 1.81636 1.86 1.82169 
1.6488 1.70002 2.03369 2.07783 1.95244 2.01405 2.20978 2.53022 2.68418 
2.31284 2.05489 1.8793 1.87202 1.95183 2.22716 2.40736 2.26072 2.17802 
2.17098 2.03569 1.86491 1.86 1.90057 2.03643 2.1724 2.18584 2.18931 
2.17619 2.27387 2.46743 2.74944 2.99268 2.79612 2.50539 2.48738 2.42206 
2.27349 2.18741 2.19597 2.32095 2.46236 2.48 2.48 2.48 2.48 
2.48 
TEXTURE_COORDINATES TCoords 2 float
0 0 0.015873 0 0.031746 0 0.047619 0 0.0634921 
0 0.0793651 0 0.0952381 0 0.111111 0 0.126984 0 
0.142857 0 0.15873 0 0.174603 0 0.190476 0 0.206349 
0 0.222222 0 0.238095 0 0.253968 0 0.269841 0 
0.285714 0 0.301587 0 0.31746 0 0.333333 0 0.349206 
0 0.365079 0 0.380952 0 0.396825 0 0.412698 0 
0.428571 0 0.444444 0 0.460317 0 0.47619 0 0.492063 
0 0.507937 0 0.52381 0 0.539683 0 0.555556 0 
0.571429 0 0.587302 0 0.603175 0 0.619048 0 0.634921 
0 0.650794 0 0.666667 0 0.68254 0 0.698413 0 
0.714286 0 0.730159 0 0.746032 0 0.761905 0 0.777778 
0 0.793651 0 0.809524 0 0.825397 0 0.84127 0 
0.857143 0 0.873016 0 0.888889 0 0.904762 0 0.920635 
0 0.936508 0 0.952381 0 0.968254 0 0.984127 0 
1 0 
FIELD FieldData 4
Curvature 1 64 float
0.0940031 0.106457 0.120132 0.132573 0.137726 0.125549 0.0984883 0.0686848 0.0412002 
0.019806 0.038077 0.0920452 0.190968 0.40041 0.560254 0.357079 0.200118 0.147479 
0.146134 0.161142 0.177254 0.18566 0.188681 0.195026 0.212105 0.236578 0.241281 
0.206211 0.146934 0.0897429 0.0494137 0.0460938 0.076982 0.117281 0.152006 0.16234 
0.140253 0.101453 0.0619163 0.0364317 0.0377004 0.0550907 0.072237 0.0852048 0.0945798 
0.0989759 0.0988927 0.0913358 0.0784746 0.068968 0.0669515 0.0688474 0.0704479 0.0704232 
0.0728742 0.082535 0.100263 0.11946 0.129711 0.121754 0.0966728 0.0711926 0.0544697 
0.0495942 
Torsion 1 64 float
0.0428163 0.058448 0.0779058 0.096831 0.107611 0.107519 0.117191 0.158984 0.264958 
0.856508 0.415466 0.116534 0.0664875 0.0859156 0.151687 0.194012 0.214201 0.195888 
0.133484 0.0835117 0.0579622 0.0516538 0.0573894 0.0647458 0.0663491 0.063079 0.0625976 
0.07318 0.109074 0.214304 0.594279 0.701202 0.269157 0.120573 0.0750191 0.0567854 
0.0567861 0.0865804 0.218089 0.532534 0.398718 0.0557077 -0.0859046 -0.118174 -0.120575 
-0.102914 -0.0690599 0.0400754 0.178495 0.290363 0.300171 0.267688 0.258251 0.280627 
0.296041 0.260074 0.188444 0.124578 0.0899151 0.0915536 0.142069 0.228594 0.319703 
0.324256 
Abscissas 1 64 double
0 1.0473421672 2.0197472136 3.0448431426 4.0575638804 5.0717615534 6.0861251038 7.1006154133 8.1151861468 
9.1297835041 10.144391855 11.15891333 12.173489154 13.187604968 14.19105756 15.202631943 16.217003492 17.231093942 
18.245260002 19.259358316 20.273291223 21.287121311 22.300921646 23.314715241 24.328412455 25.341887512 26.35508679 
27.368395369 28.382353924 29.39672132 30.411241879 31.425818052 32.440362346 33.454770373 34.468966335 35.482929392 
36.496969948 37.511300558 38.525792745 39.540360251 40.554945824 41.569508004 42.584025119 43.598499006 44.612922796 
45.627307246 46.641685459 47.656077124 48.670521642 49.685011984 50.699519435 51.714022077 52.728516714 53.743010585 
54.757506664 55.771986865 56.786427434 57.800754806 58.815030551 59.829271849 60.842050446 61.867516587 62.839788054 
63.887190587 
ParallelTransportNormals 3 64 double
0.075195099317 0 0.99716884079 0.082618274241 0.0001866727826 0.99658124903 0.10816242475 0.0035809523522 0.994126786 
0.15976064788 0.017403471379 0.98700235794 0.23119911718 0.048611521996 0.97169125145 0.30477942729 0.094348212057 0.94773831598 
0.36314884201 0.14079245638 0.9210322485 0.40305321324 0.17768931735 0.89776088899 0.42661540995 0.20098261032 0.88181930255 
0.43416100003 0.20844473743 0.87638748136 0.42241520654 0.19740005437 0.88464603759 0.37819768656 0.1594743712 0.91188509957 
0.25349277687 0.066703388702 0.96503475068 -0.12099362605 -0.15565639674 0.98037320884 -0.63878619332 -0.38833246331 0.66419131066 
-0.82619339308 -0.45901314525 0.32666712372 -0.8623302717 -0.48250133479 0.15355443478 -0.8642968578 -0.50059220243 0.048973344397 
-0.85419827733 -0.51943289144 -0.02312518745 -0.83797076667 -0.54044633135 -0.075648907025 -0.81913852838 -0.56258514323 -0.11184823623 
-0.80196764188 -0.5824611182 -0.13261578778 -0.79135855377 -0.59503675956 -0.14029573816 -0.79140752303 -0.5949753853 -0.14027980392 
-0.80447464173 -0.57693094354 -0.14131962778 -0.82866156035 -0.5375047908 -0.15623257747 -0.85370225508 -0.48234805877 -0.19629775819 
-0.86667449733 -0.42825857302 -0.25587088602 -0.86612556784 -0.38589693949 -0.31766342695 -0.85795812048 -0.35409579683 -0.372188165 
-0.84716254515 -0.3290493182 -0.41718361459 -0.83669597209 -0.30791751348 -0.45290910256 -0.82864237135 -0.29007965637 -0.47875423065 
-0.82442444416 -0.27741403631 -0.49332118171 -0.82387030207 -0.27435117405 -0.49595277866 -0.82414929593 -0.28390462093 -0.49007765122 
-0.82221057488 -0.30312581375 -0.48175150398 -0.81745281476 -0.32672343977 -0.4743655653 -0.81010650708 -0.35339728814 -0.46780103027 
-0.79969622108 -0.38497913991 -0.46073529909 -0.78440459134 -0.42583454844 -0.45097048068 -0.76151722207 -0.48011106214 -0.43541346844 
-0.72782168486 -0.5494275848 -0.4103716902 -0.68036494621 -0.63077375313 -0.37313270069 -0.61814945897 -0.71604864096 -0.32429244541 
-0.54355778893 -0.79531023572 -0.26837764261 -0.46166295621 -0.86147809015 -0.21147769401 -0.37921145802 -0.91160115348 -0.15868839618 
-0.30243964249 -0.94654674748 -0.11215844814 -0.23441434287 -0.96954608163 -0.070924688639 -0.1787088359 -0.98328129571 -0.034943461126 
-0.13994851718 -0.99013538792 -0.0068063302012 -0.1216202598 -0.99253882481 0.0086714275346 -0.12498701 -0.99214416979 0.0053097718192 
-0.14871306068 -0.98861774072 -0.022790092634 -0.18991985923 -0.97849742359 -0.080456442289 -0.24460560008 -0.95453820206 -0.17036701918 
-0.30586448275 -0.90739401772 -0.28824124409 -0.36276430817 -0.83386246071 -0.41602338076 -0.40562951859 -0.74683846375 -0.52696964117 
-0.43348052878 -0.66680038677 -0.6061945854 -0.44899353821 -0.61236312575 -0.65070439131 -0.45899728347 -0.57602315489 -0.67640137404 
-0.45899728347 -0.57602315489 -0.67640137404 
