# vtk DataFile Version 4.2
vtk output
ASCII
DATASET POLYDATA
POINTS 64 float
0 0 0 -0.96782 -0.0159555 0.359933 -1.92795 -0.0535391 0.629726 
-2.89405 -0.177636 0.905397 -3.82104 -0.438184 1.22245 -4.66471 -0.868987 1.58267 
-5.39541 -1.4798 1.92873 -6.01456 -2.25632 2.1245 -6.53288 -3.11081 1.9809 
-6.94842 -3.87087 1.45928 -7.26497 -4.4757 0.710563 -7.47205 -4.9665 -0.152047 
-7.5345 -5.38793 -1.07197 -7.41907 -5.78153 -1.99898 -7.14307 -6.19716 -2.88173 
-6.77556 -6.69868 -3.68258 -6.39051 -7.36196 -4.34375 -6.08354 -8.25525 -4.69409 
-6.03021 -9.19836 -4.38874 -6.24464 -9.68244 -3.53636 -6.53432 -9.67209 -2.56878 
-6.78731 -9.32092 -1.65354 -6.95028 -8.76966 -0.818582 -6.99995 -8.13989 -0.0251047 
-6.93973 -7.54779 0.795828 -6.8139 -7.14023 1.71385 -6.73719 -7.10216 2.71894 
-6.83516 -7.49235 3.6442 -7.10086 -8.18511 4.33046 -7.44455 -9.05369 4.71892 
-7.77961 -10.0048 4.81015 -8.05449 -10.9707 4.6727 -8.2529 -11.9318 4.41609 
-8.37423 -12.9008 4.14166 -8.4181 -13.8904 3.92352 -8.37695 -14.8965 3.80319 
-8.22832 -15.8993 3.7947 -7.92449 -16.8605 3.8973 -7.39962 -17.6999 4.10616 
-6.65231 -18.3097 4.41155 -5.79212 -18.6734 4.80421 -4.91871 -18.8613 5.28362 
-4.07639 -18.9271 5.84448 -3.27578 -18.8842 6.46558 -2.50717 -18.7227 7.10725 
-1.75175 -18.4434 7.72377 -0.990041 -18.0896 8.29277 -0.20626 -17.7377 8.83236 
0.602043 -17.4758 9.38587 1.40442 -17.4032 9.9998 2.12252 -17.6044 10.6835 
2.6823 -18.0757 11.3831 3.08385 -18.7378 12.0368 3.3709 -19.5175 12.6182 
3.58246 -20.3692 13.1267 3.73655 -21.2668 13.5734 3.83288 -22.196 13.9689 
3.86214 -23.1492 14.3146 3.8129 -24.1216 14.5988 3.67259 -25.1055 14.8008 
3.42705 -26.0842 14.9 3.06697 -27.0299 14.8848 2.60066 -27.903 14.7602 
2.00853 -28.7157 14.5257 
LINES 1 65
64 0 1 2 3 4 5 6 7 8 9 10 11 12 13 14 15 16 17 18 19 20 21 22 23 24 25 26 27 28 29 30 31 32 33 34 35 36 37 38 39 40 41 42 43 44 45 46 47 48 49 50 51 52 53 54 55 56 57 58 59 60 61 62 63 

POINT_DATA 64
SCALARS MaximumInscribedSphereRadius float
LOOKUP_TABLE default
0.93 0.969443 0.76303 1.04862 1.67152 1.33968 1.02735 0.794646 0.970917 
1.1903 1.15106 1.22705 1.24 1.24 1.24 1.29736 1.59482 2.03129 
1.84285 1.58289 1.57371 1.76288 1.86 1.86 1.86913 2.35672 2.02492 
2.11242 2.17 2.17 2.3026 2.39088 2.23578 2.39762 2.32864 2.09807 
1.87423 2.34289 1.92713 1.56658 1.55051 1.63159 2.07421 1.96723 1.72573 
1.62198 1.85017 2.29075 2.49028 2.48048 2.43628 2.20043 1.77354 1.70964 
1.90103 1.98901 2.31221 2.34801 2.18163 2.19985 2.40363 2.64242 2.61897 
2.17 
TEXTURE_COORDINATES TCoords 2 float
0 0 0.015873 0 0.031746 0 0.047619 0 0.0634921 
0 0.0793651 0 0.0952381 0 0.111111 0 0.126984 0 
0.142857 0 0.15873 0 0.174603 0 0.190476 0 0.206349 
0 0.222222 0 0.238095 0 0.253968 0 0.269841 0 
0.285714 0 0.301587 0 0.31746 0 0.333333 0 0.349206 
0 0.365079 0 0.380952 0 0.396825 0 0.412698 0 
0.428571 0 0.444444 0 0.460317 0 0.47619 0 0.492063 
0 0.507937 0 0.52381 0 0.539683 0 0.555556 0 
0.571429 0 0.587302 0 0.603175 0 0.619048 0 0.634921 
0 0.650794 0 0.666667 0 0.68254 0 0.698413 0 
0.714286 0 0.730159 0 0.746032 0 0.761905 0 0.777778 
0 0.793651 0 0.809524 0 0.825397 0 0.84127 0 
0.857143 0 0.873016 0 0.888889 0 0.904762 0 0.920635 
0 0.936508 0 0.952381 0 0.968254 0 0.984127 0 
1 0 
FIELD FieldData 4
Curvature 1 64 float
0.181949 0.0742886 0.0557143 0.0888017 0.11784 0.131699 0.155802 0.224979 0.249741 
0.180167 0.116553 0.101705 0.109603 0.102383 0.0904859 0.126357 0.244233 0.44416 
0.491162 0.316045 0.212023 0.140977 0.0880481 0.0831602 0.143372 0.239163 0.287088 
0.254017 0.212595 0.185833 0.144767 0.0872992 0.051052 0.0591111 0.0777263 0.0923057 
0.117227 0.167196 0.203193 0.173526 0.119208 0.0890982 0.0774547 0.0748259 0.0735179 
0.0558535 0.0272712 0.0572322 0.120872 0.178885 0.189533 0.152726 0.107984 0.0753832 
0.056161 0.0497031 0.051901 0.0601191 0.0729808 0.0873556 0.0993005 0.103938 0.102932 
0.0986295 
Torsion 1 64 float
-0.110603 -0.339368 -0.364553 -0.068676 0.0549209 0.213075 0.33536 0.229617 0.105301 
-0.0315797 -0.179399 -0.239163 -0.207855 -0.282666 -0.405593 -0.18965 -0.0391423 0.0152314 
0.042437 0.0608676 0.093987 0.177711 0.439117 0.540517 0.271471 0.181797 0.0981912 
-0.00974529 -0.0870193 -0.0841139 -0.0996635 -0.257359 -0.568327 -0.261386 -0.025236 0.0905196 
0.130316 0.0732316 -0.0231973 -0.128082 -0.17587 -0.0842201 0.111263 0.23274 0.23004 
0.276993 1.12796 0.359613 0.104722 0.0387032 -0.0137904 -0.0563615 -0.0816881 -0.052927 
0.0366783 0.0826524 0.0316789 -0.0289876 -0.0202999 0.00872138 0.0255877 0.0297753 0.0271792 
0.0225049 
Abscissas 1 64 double
0 1.0327057802 2.0307286834 3.0430263382 4.0567948271 5.0702617043 6.0835592019 7.0958139507 8.1054876348 
9.1166498378 10.129861911 11.143696469 12.157484249 13.171186718 14.185176549 15.19905121 16.21164601 17.21908682 
18.211827617 19.215251176 20.225323333 21.23773725 22.251441025 23.265679524 24.279655744 25.291934664 26.300658667 
27.309595207 28.320275384 29.331930406 30.344447939 31.358087051 32.372443342 33.386869501 34.401117419 35.415185319 
36.429030462 37.442272824 38.454121798 39.465807793 40.478931503 41.492823483 42.50692892 43.521114606 44.535299223 
45.549561937 46.564066627 47.578609148 48.592666239 49.605581886 50.617316285 51.629684531 52.643085525 53.657113797 
54.671415019 55.685824412 56.700252789 57.714630808 58.728914797 59.74305523 60.756976771 61.768999051 62.766658474 
63.79913665 
ParallelTransportNormals 3 64 double
0.34857575248 0 0.93728061155 0.27059745843 -0.0021805448016 0.96269011666 0.27461012082 -0.0018450097343 0.96155388694 
0.32166801034 0.0077137481521 0.94682109673 0.37938606226 0.030250683062 0.92474380881 0.39824191549 0.042726143981 0.91628481018 
0.33114666436 -0.026238942573 0.94321440011 0.16728466278 -0.26123973336 0.95066799847 -0.0073206435655 -0.56310649955 0.8263519095 
-0.10787128967 -0.75056859301 0.65192834887 -0.15201601493 -0.84293261942 0.51609662887 -0.16654732268 -0.89211349653 0.41999464117 
-0.1650551138 -0.91506705807 0.36797973945 -0.16696059246 -0.91112750158 0.37679017561 -0.19649277712 -0.86903717583 0.45405393465 
-0.27087459004 -0.75390203589 0.59854713828 -0.40539322401 -0.4511261857 0.79507326612 -0.53866436952 0.23179629373 0.81000689826 
-0.47391319451 0.81157712478 0.34168531518 -0.34771267381 0.93063819148 -0.11405460543 -0.26295304285 0.87423818976 -0.40812165443 
-0.22517738217 0.7923061976 -0.56705029389 -0.21892025167 0.75755859596 -0.61496251682 -0.21856219066 0.79897603752 -0.56023910992 
-0.19871547201 0.90556537081 -0.37478463198 -0.16189619205 0.98649077495 -0.025011476227 -0.16622317311 0.91478012324 0.36816732994 
-0.22894360534 0.72797849276 0.64624464381 -0.32191890628 0.4897631704 0.81024703313 -0.41822395502 0.23158411881 0.87832654484 
-0.48731851416 0.014433088703 0.87310500612 -0.5199730766 -0.11851359479 0.84592111184 -0.52840850797 -0.16943411351 0.83191137141 
-0.52765460841 -0.16049531502 0.8341593781 -0.52760241013 -0.12213083011 0.8406662579 -0.53103122139 -0.085836533912 0.84299343494 
-0.53273262732 -0.07845194306 0.84263944865 -0.51717084569 -0.11225721072 0.8484884413 -0.47953271291 -0.15513151776 0.86370283631 
-0.46600674368 -0.16332466224 0.86957620111 -0.50053735955 -0.15233599827 0.85220660366 -0.55622557329 -0.14410190368 0.81844227223 
-0.6017993667 -0.14346709331 0.78565559591 -0.61590300574 -0.14530429407 0.77430623764 -0.59474054048 -0.13918459469 0.79177732861 
-0.55652152237 -0.12323496785 0.82164282863 -0.52933036288 -0.11081748844 0.84114734214 -0.53607750835 -0.1134185581 0.83651487477 
-0.5956351286 -0.12578335999 0.79334566232 -0.70180976995 -0.11679316832 0.70272498364 -0.80007069092 -0.065089751294 0.59636416208 
-0.85318788592 -0.0024710001931 0.521597858 -0.87353676592 0.040132319588 0.48510093333 -0.88027533847 0.062178786473 0.47037126507 
-0.88359746765 0.078072942091 0.46169268013 -0.88663810085 0.10025459818 0.45146638155 -0.88875199931 0.13193738947 0.43899021513 
-0.88836049203 0.16966650434 0.42664846597 -0.884298667 0.21158537233 0.41623010193 -0.87461314237 0.26084778205 0.40866891953 
-0.85616719475 0.31944996644 0.40611507429 -0.82719715809 0.38313337501 0.41103975306 -0.78552442635 0.44968223428 0.42513205453 
-0.78552442635 0.44968223428 0.42513205453 
