# vtk DataFile Version 4.2
vtk output
ASCII
DATASET POLYDATA
POINTS 64 float
0 0 0 -1.02712 -0.036364 0.185796 -1.9014 -0.412554 0.420011 
-2.72623 -0.94375 0.692382 -3.48293 -1.55185 0.98791 -4.20453 -2.19275 1.30043 
-4.91873 -2.8432 1.61072 -5.65498 -3.49629 1.85641 -6.42732 -4.14917 1.81932 
-7.0349 -4.70944 1.24341 -7.38046 -5.18569 0.418366 -7.57412 -5.67482 -0.448938 
-7.66137 -6.21313 -1.30423 -7.65278 -6.81067 -2.12384 -7.54399 -7.46589 -2.89039 
-7.32233 -8.17079 -3.58505 -6.96759 -8.91175 -4.17937 -6.45169 -9.6642 -4.62039 
-5.75531 -10.3749 -4.80577 -4.94168 -10.9296 -4.58543 -4.22035 -11.2102 -3.93691 
-3.73515 -11.2566 -3.0494 -3.4701 -11.1781 -2.07404 -3.37707 -11.0532 -1.07187 
-3.41517 -10.9404 -0.0645445 -3.54825 -10.8968 0.94006 -3.73739 -10.9881 1.93212 
-3.93672 -11.2819 2.88144 -4.09866 -11.8103 3.73063 -4.19367 -12.5367 4.43103 
-4.22298 -13.3856 4.98511 -4.20075 -14.2968 5.43037 -4.13528 -15.2369 5.80594 
-4.02471 -16.1875 6.14269 -3.85773 -17.1351 6.46429 -3.61437 -18.0649 6.78914 
-3.26887 -18.9555 7.13008 -2.7967 -19.776 7.49364 -2.18878 -20.4902 7.87901 
-1.46136 -21.0707 8.28164 -0.647916 -21.5095 8.6991 0.217111 -21.8118 9.13395 
1.10524 -21.9859 9.59192 1.9935 -22.0411 10.0786 2.86394 -21.9926 10.5973 
3.70573 -21.8658 11.1491 4.5163 -21.6967 11.7353 5.30041 -21.5297 12.3572 
6.06527 -21.414 13.0135 6.81402 -21.397 13.6975 7.54159 -21.5159 14.394 
8.23592 -21.7869 15.0817 8.88325 -22.2051 15.741 9.47089 -22.7557 16.3575 
9.98614 -23.4222 16.9222 10.4142 -24.1893 17.4291 10.7386 -25.042 17.8721 
10.9457 -25.9636 18.2412 11.0345 -26.9338 18.5229 11.0239 -27.9315 18.7043 
10.95 -28.9409 18.7763 10.8581 -29.9554 18.733 10.7931 -30.918 18.5893 
10.8066 -31.9286 18.3113 
LINES 1 65
64 0 1 2 3 4 5 6 7 8 9 10 11 12 13 14 15 16 17 18 19 20 21 22 23 24 25 26 27 28 29 30 31 32 33 34 35 36 37 38 39 40 41 42 43 44 45 46 47 48 49 50 51 52 53 54 55 56 57 58 59 60 61 62 63 

POINT_DATA 64
SCALARS MaximumInscribedSphereRadius float
LOOKUP_TABLE default
0.9796 0.946422 1.07421 1.33991 1.46611 1.48031 1.24573 1.02612 1.02572 
1.00561 0.976447 1.21534 1.24 1.24 1.24 1.33893 1.522 1.67325 
1.59414 1.52615 1.94456 1.73196 1.60699 1.60746 1.77723 1.69772 1.55 
1.58908 1.77394 1.7231 1.73375 2.24004 2.15784 1.72397 1.88369 2.07739 
1.68671 1.41809 1.32999 1.7001 1.98054 2.02317 1.47539 1.24119 1.50397 
1.71818 1.86418 1.87836 1.87403 1.86 1.86 1.86 1.86 1.86 
1.86 1.86 1.86 1.98122 2.31207 2.18611 1.82738 1.64092 1.66973 
1.86 
TEXTURE_COORDINATES TCoords 2 float
0 0 0.015873 0 0.031746 0 0.047619 0 0.0634921 
0 0.0793651 0 0.0952381 0 0.111111 0 0.126984 0 
0.142857 0 0.15873 0 0.174603 0 0.190476 0 0.206349 
0 0.222222 0 0.238095 0 0.253968 0 0.269841 0 
0.285714 0 0.301587 0 0.31746 0 0.333333 0 0.349206 
0 0.365079 0 0.380952 0 0.396825 0 0.412698 0 
0.428571 0 0.444444 0 0.460317 0 0.47619 0 0.492063 
0 0.507937 0 0.52381 0 0.539683 0 0.555556 0 
0.571429 0 0.587302 0 0.603175 0 0.619048 0 0.634921 
0 0.650794 0 0.666667 0 0.68254 0 0.698413 0 
0.714286 0 0.730159 0 0.746032 0 0.761905 0 0.777778 
0 0.793651 0 0.809524 0 0.825397 0 0.84127 0 
0.857143 0 0.873016 0 0.888889 0 0.904762 0 0.920635 
0 0.936508 0 0.952381 0 0.968254 0 0.984127 0 
1 0 
FIELD FieldData 4
Curvature 1 64 float
0.359653 0.256979 0.147916 0.0757875 0.044747 0.0650163 0.130918 0.280762 0.472621 
0.326861 0.174619 0.113005 0.0944105 0.0940117 0.104548 0.129463 0.174538 0.246211 
0.342229 0.387505 0.310549 0.206266 0.136739 0.096459 0.0898517 0.113533 0.156666 
0.190254 0.192665 0.157449 0.1096 0.0698681 0.0459538 0.0437437 0.0594118 0.0839899 
0.109487 0.128845 0.132228 0.122301 0.107815 0.0968824 0.0896022 0.080942 0.0658965 
0.0466468 0.0334704 0.048797 0.0767222 0.101692 0.114312 0.115237 0.110924 0.106853 
0.105851 0.109125 0.113703 0.114024 0.105679 0.0934136 0.0848615 0.0882455 0.10115 
0.116781 
Torsion 1 64 float
0.0177536 0.0322019 0.0571946 0.0973239 0.0717607 -0.0231534 0.00505612 0.0494057 0.148339 
0.190825 0.17761 0.132642 0.0558562 -0.00602986 -0.0320559 -0.0274932 -0.00553474 0.0298452 
0.0642737 0.0861167 0.0965499 0.116051 0.177431 0.311433 0.396248 0.292084 0.154867 
0.080684 0.0413434 0.0248105 0.0482236 0.129963 0.304615 0.323296 0.154932 0.0591244 
0.0259558 0.0215039 0.0378203 0.0631587 0.0886577 0.0999827 0.0968364 0.100573 0.159335 
0.369924 0.770718 0.419292 0.153468 0.0690313 0.0326376 0.011285 -0.00687232 -0.0279275 
-0.0436367 -0.0337181 0.00308346 0.0593145 0.134938 0.221042 0.296384 0.272327 0.188945 
0.116006 
Abscissas 1 64 double
0 1.0444268503 2.024596987 3.0427832737 4.0575296858 5.0719920862 6.0866074217 7.1009831298 8.1129754276 
9.1203167017 10.133690036 11.148071762 12.16243097 13.176761416 14.19103648 15.205218282 16.219160798 17.232493437 
18.24463027 19.253720343 20.263488965 21.276029575 22.289800533 23.304005542 24.318348447 25.332665923 26.346706623 
27.36025343 28.373454361 29.387007949 30.401094291 31.415502577 32.430021827 33.444570932 34.459097805 35.473549844 
36.487855018 37.501953158 38.515937142 39.52996055 40.544121018 41.558367996 42.572678397 43.587027256 44.601437027 
45.615932281 46.630494307 47.645060584 48.659532769 49.673853595 50.688035657 51.702167566 52.716329113 53.730527322 
54.744746803 55.758957776 56.773134254 57.787283156 58.801473855 59.815561024 60.830214518 61.849740906 62.825217919 
63.873453453 
ParallelTransportNormals 3 64 double
0.17800112729 0 0.98403028342 0.25208953613 0.016537678013 0.9675625928 0.2914840155 0.037495816723 0.95584053714 
0.3215471705 0.059156539643 0.94504387251 0.33979983385 0.074578163622 0.93753622353 0.33959930401 0.0743978066 0.93762320742 
0.29144977816 0.031125121795 0.95607962723 0.080637471227 -0.1513660387 0.98518319137 -0.31119394276 -0.49587544387 0.81071935597 
-0.46796815194 -0.6662657281 0.58059950769 -0.49092808914 -0.70736527291 0.50855086469 -0.49248238148 -0.71305034762 0.49901934401 
-0.49198983757 -0.70593709392 0.5095084093 -0.49304709104 -0.69465324774 0.52379521897 -0.49571341596 -0.68367859041 0.53558546867 
-0.49921823205 -0.67488721142 0.54342286356 -0.50376957863 -0.66708075517 0.54883465428 -0.51683036784 -0.65131866622 0.55558110652 
-0.56607370646 -0.61006370652 0.55442116919 -0.66470629594 -0.55638336994 0.49860112895 -0.75430978583 -0.53208400824 0.3845820526 
-0.80391745643 -0.53420034359 0.26143204882 -0.82506294788 -0.54620797237 0.14466507161 -0.82816004295 -0.55961267947 0.031378212645 
-0.81836496684 -0.56856412564 -0.08374733473 -0.79890030686 -0.56568204722 -0.20435782626 -0.77379036501 -0.54078812604 -0.32984340792 
-0.75036848601 -0.4874777264 -0.44644439907 -0.73603865484 -0.41750058693 -0.5328605432 -0.73110947675 -0.35505278639 -0.58259458621 
-0.73094382503 -0.31392993052 -0.60594481875 -0.73178530199 -0.29616690604 -0.61382036098 -0.73126561701 -0.30174874534 -0.61171749367 
-0.72682697502 -0.3321059587 -0.60118897244 -0.71416589424 -0.39003041064 -0.58124293913 -0.68616832531 -0.47657771926 -0.54958776082 
-0.63312411842 -0.58758219551 -0.50388591386 -0.5487689279 -0.70744304969 -0.44539532465 -0.43892459837 -0.81394623001 -0.380574213 
-0.31919354038 -0.89315285026 -0.31684928571 -0.20111634546 -0.94528250962 -0.25689140233 -0.088438376893 -0.97589694005 -0.19950893686 
0.017084072882 -0.98951825524 -0.14339371327 0.10920091871 -0.98986977713 -0.090735790448 0.17890200324 -0.98273602616 -0.047159051317 
0.21816392481 -0.97570477106 -0.020117197583 0.22153263301 -0.97499474686 -0.017565195873 0.18752134135 -0.98120011687 -0.045629783989 
0.11931261521 -0.98717861411 -0.10603246532 0.025364196284 -0.9806963308 -0.19388492542 -0.078975839216 -0.95208624022 -0.29545660934 
-0.17886178986 -0.9007777523 -0.39573716163 -0.26755580248 -0.83119997654 -0.48736074069 -0.34350504519 -0.74738134794 -0.56870502431 
-0.40708344396 -0.65075861705 -0.6409339217 -0.45817249105 -0.54078177681 -0.70543110104 -0.49537412037 -0.41658984886 -0.7622711976 
-0.51642379708 -0.28201423146 -0.80856319176 -0.52177964099 -0.14724233211 -0.84027715778 -0.51655887009 -0.023230086209 -0.8559365028 
-0.50789067095 0.082601815277 -0.85745204325 -0.50170990109 0.16073594173 -0.84997125374 -0.49998196317 0.22345511038 -0.83671133024 
-0.49998196317 0.22345511038 -0.83671133024 
