# vtk DataFile Version 4.2
vtk output
ASCII
DATASET POLYDATA
POINTS 64 float
0 0 0 -0.888553 0.414753 0.320251 -1.80507 0.674974 0.589601 
-2.8001 0.73777 0.822295 -3.76666 0.500271 0.999435 -4.62008 -0.0277528 1.14884 
-5.31431 -0.7505 1.30607 -5.88335 -1.56948 1.49264 -6.37668 -2.42942 1.70842 
-6.83583 -3.30309 1.94359 -7.29196 -4.17857 2.17791 -7.76555 -5.05423 2.37368 
-8.25895 -5.93594 2.46442 -8.73483 -6.82377 2.34671 -9.09395 -7.67311 1.92586 
-9.25117 -8.41542 1.25273 -9.22576 -9.05413 0.465097 -9.06903 -9.6316 -0.354175 
-8.81478 -10.1817 -1.16798 -8.48025 -10.7275 -1.95461 -8.06994 -11.2873 -2.69653 
-7.57418 -11.879 -3.34734 -6.96108 -12.5336 -3.84536 -6.22625 -13.1674 -3.5982 
-5.93699 -13.2744 -2.64563 -5.91896 -13.128 -1.64091 -6.0042 -12.9022 -0.654857 
-6.14302 -12.6544 0.318809 -6.31262 -12.4258 1.29281 -6.49791 -12.2666 2.27751 
-6.68479 -12.2475 3.27454 -6.8547 -12.4527 4.25287 -6.98786 -12.9142 5.14578 
-7.07763 -13.5745 5.91072 -7.12868 -14.3524 6.5599 -7.14523 -15.1938 7.12671 
-7.12642 -16.0677 7.64174 -7.06514 -16.9553 8.12945 -6.94858 -17.8411 8.61017 
-6.75654 -18.7077 9.10155 -6.46265 -19.5301 9.61779 -6.03861 -20.2706 10.1663 
-5.46857 -20.8803 10.7426 -4.766 -21.3192 11.3279 -3.97077 -21.5818 11.9003 
-3.124 -21.6951 12.4475 -2.25237 -21.6967 12.9667 -1.36911 -21.6215 13.4603 
-0.479497 -21.499 13.9325 0.414874 -21.3535 14.3889 1.31307 -21.2053 14.837 
2.21244 -21.0698 15.2866 3.10733 -20.9553 15.7508 3.98926 -20.8632 16.2439 
4.84825 -20.7891 16.7787 5.67571 -20.7269 17.3625 6.46728 -20.6755 17.9951 
7.2232 -20.6424 18.671 7.94547 -20.6428 19.3834 8.63533 -20.7039 20.1257 
9.28587 -20.8603 20.885 9.88319 -21.1809 21.6512 10.3738 -21.678 22.354 
10.734 -22.4208 22.9724 
LINES 1 65
64 0 1 2 3 4 5 6 7 8 9 10 11 12 13 14 15 16 17 18 19 20 21 22 23 24 25 26 27 28 29 30 31 32 33 34 35 36 37 38 39 40 41 42 43 44 45 46 47 48 49 50 51 52 53 54 55 56 57 58 59 60 61 62 63 

POINT_DATA 64
SCALARS MaximumInscribedSphereRadius float
LOOKUP_TABLE default
0.93 1.05964 1.17831 1.08912 0.88817 0.723263 0.758931 0.946981 1.12617 
1.30105 1.47675 1.33399 1.00406 1.15567 1.25513 1.24174 1.04685 0.93 
0.930384 0.973395 1.06969 1.35359 1.61643 1.33936 1.34605 1.49108 1.33143 
1.07036 1.1116 1.27361 1.43446 1.30086 1.12808 1.39062 1.35434 1.028 
1.05417 1.21109 1.24 1.24 1.24 1.24 1.25769 1.3749 1.49721 
1.42453 1.2478 1.0421 1.1182 1.43266 1.31893 0.996712 1.10771 1.28246 
1.34889 1.36096 1.33779 1.54627 1.83199 1.7981 1.68687 1.6678 1.61926 
1.55 
TEXTURE_COORDINATES TCoords 2 float
0 0 0.015873 0 0.031746 0 0.047619 0 0.0634921 
0 0.0793651 0 0.0952381 0 0.111111 0 0.126984 0 
0.142857 0 0.15873 0 0.174603 0 0.190476 0 0.206349 
0 0.222222 0 0.238095 0 0.253968 0 0.269841 0 
0.285714 0 0.301587 0 0.31746 0 0.333333 0 0.349206 
0 0.365079 0 0.380952 0 0.396825 0 0.412698 0 
0.428571 0 0.444444 0 0.460317 0 0.47619 0 0.492063 
0 0.507937 0 0.52381 0 0.539683 0 0.555556 0 
0.571429 0 0.587302 0 0.603175 0 0.619048 0 0.634921 
0 0.650794 0 0.666667 0 0.68254 0 0.698413 0 
0.714286 0 0.730159 0 0.746032 0 0.761905 0 0.777778 
0 0.793651 0 0.809524 0 0.825397 0 0.84127 0 
0.857143 0 0.873016 0 0.888889 0 0.904762 0 0.920635 
0 0.936508 0 0.952381 0 0.968254 0 0.984127 0 
1 0 
FIELD FieldData 4
Curvature 1 64 float
0.162256 0.202363 0.252564 0.29485 0.290433 0.231324 0.157078 0.0939343 0.0438537 
0.0185935 0.052276 0.118428 0.207542 0.308156 0.324303 0.245491 0.163631 0.108134 
0.0809937 0.0908782 0.147677 0.290358 0.750566 1.00464 0.397162 0.166499 0.0716401 
0.037919 0.0784284 0.143804 0.2114 0.246832 0.224086 0.168823 0.114173 0.0725321 
0.0488232 0.0510934 0.0758243 0.110473 0.148308 0.181437 0.195525 0.18148 0.148261 
0.110506 0.0763173 0.0479566 0.0261538 0.0151189 0.0187372 0.0270598 0.0362674 0.0461633 
0.0539239 0.0559681 0.053772 0.0553326 0.0695319 0.101333 0.150656 0.21084 0.257886 
0.261451 
Torsion 1 64 float
-0.019006 -0.0310305 -0.0542099 -0.0948736 -0.14344 -0.164623 -0.136843 -0.127328 -0.122184 
0.0705503 -0.0709933 -0.147203 -0.156226 -0.14813 -0.142962 -0.139452 -0.158519 -0.212698 
-0.260692 -0.201696 -0.0964201 -0.0424027 -0.0173268 -0.00283019 -0.0113881 -0.0517457 -0.314926 
-1.01169 -0.265469 -0.0737955 -0.0268608 -0.0127416 -0.0159101 -0.0376931 -0.0920008 -0.22274 
-0.455546 -0.397135 -0.178355 -0.0783728 -0.0393746 -0.0240555 -0.0167664 -0.0107807 -0.00127301 
0.0156078 0.0456978 0.110312 0.281356 0.53078 0.330273 0.282299 0.269183 0.204676 
0.0967814 -0.0453373 -0.194524 -0.290716 -0.26152 -0.158553 -0.0811502 -0.0415844 -0.023377 
-0.0134196 
Abscissas 1 64 double
0 1.0315556744 2.0216431934 3.045445333 4.0563928095 5.0710170994 6.0854364824 7.100004142 8.1146063213 
9.1292158936 10.143815841 11.15840624 12.172848742 13.187028599 14.200662878 15.214987673 16.229363389 17.243879216 
18.258535964 19.272733339 20.288718439 21.298336233 22.324261067 23.325637617 24.326890781 25.34238155 26.35755093 
27.371803836 28.386536753 29.401094687 30.41565812 31.429604602 32.44350505 33.457982344 34.472523552 35.487107084 
36.501699179 37.516290422 38.530873709 39.545437682 40.559954507 41.574375559 42.588641195 43.602917672 44.61734525 
45.63186235 46.646427318 47.661016106 48.675616551 49.690221507 50.704826959 51.719430542 52.73403013 53.748624604 
54.763209726 55.7777917 56.792368247 57.806993896 58.821422211 59.836632913 60.84868269 61.871755694 62.862590451 
63.894027296 
ParallelTransportNormals 3 64 double
0.33906795277 0 0.94076188454 0.28696837264 0.019384029326 0.95774391802 0.22936385769 0.029224534381 0.97290192074 
0.17443953498 0.024279294635 0.98436851051 0.16117237159 0.018703308621 0.98674903237 0.18388301505 0.037057871165 0.98224933238 
0.21369231909 0.073437500861 0.97413681084 0.23521396488 0.10744920788 0.965986055 0.24692460806 0.1287639001 0.96044161507 
0.2467864653 0.12849990068 0.96051247575 0.2280999294 0.093303866709 0.96915675237 0.17775322053 0.0018055663097 0.98407343858 
0.081549690271 -0.17382653783 0.98139389786 -0.041345256663 -0.42950965353 0.90211530708 -0.11417120736 -0.65397680933 0.74784976317 
-0.12548848011 -0.77255034854 0.62242959468 -0.11806171423 -0.82214204138 0.55690564319 -0.11186365701 -0.8391474052 0.53227638928 
-0.11240607005 -0.83813782059 0.5337507556 -0.12221026792 -0.82358329001 0.55387292299 -0.15166240233 -0.78616290946 0.59912135291 
-0.21774182259 -0.71186115782 0.66771415342 -0.56986775687 -0.37570176504 0.73082071907 -0.95532865756 -0.096870348296 0.27921907468 
-0.99428900683 -0.10160594096 0.032643585246 -0.991210932 -0.11864999336 -0.058506985486 -0.98562890545 -0.13044962237 -0.10732453943 
-0.98071186999 -0.13804433961 -0.13837625653 -0.9766607619 -0.14247105478 -0.16073504505 -0.97311024925 -0.14417201896 -0.17964095232 
-0.96974365981 -0.14241528462 -0.19828040994 -0.96707047981 -0.1365352137 -0.21478552677 -0.96567775309 -0.12952797408 -0.22514213535 
-0.9654085766 -0.12677885355 -0.22784512837 -0.96562281145 -0.13191097654 -0.22399125046 -0.96560272587 -0.14712930992 -0.21439296155 
-0.96431277032 -0.17550273419 -0.19824144695 -0.95979670387 -0.22053641902 -0.17364899976 -0.94800711709 -0.28748381664 -0.13651212807 
-0.9213323717 -0.38020168636 -0.081199375232 -0.86740444071 -0.49760230548 -0.0012173005301 -0.77385783683 -0.62465712866 0.10463039706 
-0.64352711345 -0.73203979293 0.22358576838 -0.50279283821 -0.79795429948 0.33236771472 -0.37957345619 -0.82616352776 0.41638661933 
-0.28463868128 -0.83250850422 0.47530033823 -0.21686444493 -0.82966701194 0.51441467885 -0.17231381883 -0.82469879759 0.5386834331 
-0.1478634206 -0.82102500084 0.55141124113 -0.14144033461 -0.81997294057 0.55465215088 -0.1510679476 -0.82149236929 0.54984430742 
-0.17372583989 -0.82465003994 0.5383044159 -0.20506470599 -0.82829303753 0.52142028186 -0.24001419777 -0.83162945015 0.50078502624 
-0.27447026528 -0.834414763 0.47793103766 -0.30768398755 -0.83674466591 0.4529778448 -0.34221433232 -0.8386302192 0.42377907712 
-0.38179275431 -0.83950535929 0.38660709315 -0.43319722767 -0.83726552607 0.3336564113 -0.5002993756 -0.82637145198 0.25847777104 
-0.59940489016 -0.78857432901 0.13734738907 -0.70648443796 -0.70769025057 -0.0073653362899 -0.81788391539 -0.54649174098 -0.18003521317 
-0.81788391539 -0.54649174098 -0.18003521317 
