# vtk DataFile Version 4.2
vtk output
ASCII
DATASET POLYDATA
POINTS 64 float
0 0 0 -1.01465 -0.113794 0.201553 -1.99326 -0.126131 0.339653 
-2.97992 -0.252201 0.52904 -3.85576 -0.672516 0.808018 -4.47853 -1.42583 1.06533 
-4.87781 -2.35455 1.07693 -5.17039 -3.24751 0.704987 -5.43019 -3.96802 0.0420126 
-5.67947 -4.54064 -0.757029 -5.90496 -5.03248 -1.61518 -6.07192 -5.49402 -2.50298 
-6.12629 -5.95786 -3.40316 -6.01476 -6.4356 -4.29038 -5.74522 -6.92353 -5.1376 
-5.3877 -7.43728 -5.93596 -5.01692 -8.02194 -6.67722 -4.70219 -8.74823 -7.30925 
-4.53657 -9.6866 -7.63785 -4.61098 -10.6149 -7.28765 -4.86083 -11.0611 -6.42191 
-5.18981 -11.003 -5.46882 -5.53385 -10.5956 -4.60783 -5.84768 -10.0205 -3.83339 
-6.11345 -9.41951 -3.06049 -6.32458 -8.92764 -2.20005 -6.48141 -8.73445 -1.22067 
-6.59457 -9.01798 -0.260267 -6.66581 -9.73103 0.450706 -6.66738 -10.6659 0.838071 
-6.57017 -11.6659 0.97077 -6.37223 -12.6607 0.981959 -6.1076 -13.6383 1.03731 
-5.83806 -14.5944 1.24066 -5.60895 -15.5316 1.55425 -5.41307 -16.473 1.87798 
-5.21098 -17.4275 2.15579 -4.94602 -18.3746 2.40438 -4.5439 -19.2543 2.70635 
-3.95504 -19.9333 3.16948 -3.25587 -20.3337 3.78344 -2.52867 -20.56 4.45342 
-1.78009 -20.7216 5.11887 -0.995961 -20.8496 5.7497 -0.173082 -20.9231 6.33838 
0.669035 -20.9226 6.90407 1.4995 -20.8713 7.48461 2.29528 -20.8245 8.11204 
3.04707 -20.8387 8.79286 3.76373 -20.9454 9.50275 4.46684 -21.1516 10.2042 
5.17339 -21.4623 10.8622 5.87341 -21.9022 11.4491 6.5203 -22.506 11.9431 
7.05771 -23.2645 12.3476 7.47061 -24.1138 12.7175 7.77844 -24.9923 13.1202 
7.99844 -25.8628 13.5921 8.1301 -26.7237 14.1122 8.15137 -27.6198 14.5859 
8.03295 -28.5945 14.8294 7.81079 -29.5767 14.7344 7.56635 -30.4818 14.4249 
7.31506 -31.3894 13.979 
LINES 1 65
64 0 1 2 3 4 5 6 7 8 9 10 11 12 13 14 15 16 17 18 19 20 21 22 23 24 25 26 27 28 29 30 31 32 33 34 35 36 37 38 39 40 41 42 43 44 45 46 47 48 49 50 51 52 53 54 55 56 57 58 59 60 61 62 63 

POINT_DATA 64
SCALARS MaximumInscribedSphereRadius float
LOOKUP_TABLE default
0.93 0.932525 1.0936 1.04308 0.703201 1.02695 0.936288 0.688463 0.988094 
1.25609 1.22038 1.03212 1.05368 1.16537 1.00759 1.1115 1.24 1.30195 
1.74885 1.86 1.86 1.86 1.86 1.86 1.86 1.86461 2.00642 
2.17 2.11165 1.95117 2.22696 2.18774 1.65272 1.80344 2.0301 2.01929 
1.60008 1.55 1.55 1.57698 1.67283 1.81675 1.87341 2.04864 2.4575 
2.24368 2.17 2.25431 2.41844 2.02964 2.14571 2.30217 1.95487 2.01766 
2.26791 2.47015 2.4739 2.30304 2.06427 1.87005 1.90314 2.10779 2.03152 
1.86 
TEXTURE_COORDINATES TCoords 2 float
0 0 0.015873 0 0.031746 0 0.047619 0 0.0634921 
0 0.0793651 0 0.0952381 0 0.111111 0 0.126984 0 
0.142857 0 0.15873 0 0.174603 0 0.190476 0 0.206349 
0 0.222222 0 0.238095 0 0.253968 0 0.269841 0 
0.285714 0 0.301587 0 0.31746 0 0.333333 0 0.349206 
0 0.365079 0 0.380952 0 0.396825 0 0.412698 0 
0.428571 0 0.444444 0 0.460317 0 0.47619 0 0.492063 
0 0.507937 0 0.52381 0 0.539683 0 0.555556 0 
0.571429 0 0.587302 0 0.603175 0 0.619048 0 0.634921 
0 0.650794 0 0.666667 0 0.68254 0 0.698413 0 
0.714286 0 0.730159 0 0.746032 0 0.761905 0 0.777778 
0 0.793651 0 0.809524 0 0.825397 0 0.84127 0 
0.857143 0 0.873016 0 0.888889 0 0.904762 0 0.920635 
0 0.936508 0 0.952381 0 0.968254 0 0.984127 0 
1 0 
FIELD FieldData 4
Curvature 1 64 float
0.268428 0.0707681 0.081709 0.222864 0.286239 0.252469 0.269619 0.232111 0.140378 
0.0691451 0.0483529 0.0778988 0.111096 0.108883 0.0720927 0.0596739 0.12787 0.271175 
0.49692 0.492257 0.344479 0.246729 0.133781 0.0413945 0.103756 0.220419 0.319148 
0.33158 0.263301 0.184761 0.104924 0.066207 0.104028 0.0849992 0.0442687 0.0399526 
0.0493158 0.120501 0.22609 0.223873 0.124665 0.050008 0.0382714 0.0522421 0.0543952 
0.037977 0.039542 0.0612136 0.0683294 0.0656803 0.0730034 0.0962023 0.12791 0.139822 
0.108337 0.0765978 0.0737326 0.0744252 0.10255 0.193067 0.248109 0.196666 0.13703 
0.100304 
Torsion 1 64 float
0.00508896 0.373595 0.0177562 -0.080967 -0.246767 -0.464065 -0.289924 -0.118451 -0.00552352 
0.261964 0.518092 0.173184 0.0369016 0.0660414 0.363298 0.523993 0.0865151 -0.0571888 
-0.0763841 0.0256757 0.0467751 -0.0211902 -0.170493 -1.33261 -0.350655 -0.109423 -0.0749124 
-0.0053094 0.0851435 0.156595 0.440978 0.982054 0.294178 0.265171 0.489447 0.495715 
0.65501 0.275959 0.110619 0.0482493 -0.0614956 -0.431461 -0.073114 0.235067 0.343536 
0.736349 0.665299 0.301544 0.259343 0.278485 0.133749 -0.0739978 -0.116126 -0.155834 
-0.292187 -0.413414 -0.146565 0.279135 0.402095 0.192631 0.084522 0.0441574 0.0300228 
0.0212856 
Abscissas 1 64 double
0 1.0407125061 2.0290986476 3.0416466019 4.0523854976 5.0630966975 6.0740742096 7.0846788543 8.0976781482 
9.1118266122 10.126310672 11.140748972 12.154868565 13.168681747 14.182844139 15.197301723 16.211589654 17.2245126 
18.232449815 19.227381213 20.232875807 21.242814256 22.255569351 23.269949479 24.284435794 25.297780781 26.30827892 
27.316032624 28.325488594 29.337457826 30.350835533 31.365262193 32.379494973 33.393462539 34.407960464 35.422534645 
36.43705123 37.451448259 38.464701585 39.47577487 40.488768324 41.503110377 42.517659403 43.532151873 44.546576459 
45.561059605 46.575611974 47.590074423 48.604419787 49.61877776 50.633137875 51.647371788 52.661295959 53.674782193 
54.688495072 55.702716579 56.717037665 57.73134799 58.745742462 59.759538144 60.771133861 61.782576321 62.769894691 
63.811858235 
ParallelTransportNormals 3 64 double
0.19483660998 0 0.98083571275 0.1397746377 -0.0034135798393 0.9901774579 0.18850894391 -1.5287551015e-05 0.98207147287 
0.29032376454 0.029869184798 0.95646220184 0.32312538493 0.055557772987 0.94472393823 0.23525558817 -0.089047647212 0.9678457133 
0.11215632171 -0.41317612199 0.90371812625 0.020482368804 -0.68096206139 0.73203220115 -0.029560703722 -0.8080861507 0.58832213781 
-0.052862957505 -0.86033215535 0.50698529583 -0.06130043829 -0.88082934728 0.46944852458 -0.062454555538 -0.88565511818 0.46012437464 
-0.062676127314 -0.88200672118 0.46705015454 -0.065990563393 -0.87360703232 0.48213690859 -0.07830128326 -0.85394146584 0.51444424573 
-0.10983139134 -0.80638795978 0.58109854913 -0.17172857978 -0.68800253478 0.70509701959 -0.2662466381 -0.36009375328 0.89411700383 
-0.30071606327 0.35763895939 0.88411776592 -0.1745750383 0.89485362301 0.41080475823 -0.022108128164 0.99741441719 -0.068379171205 
0.098415592151 0.91413861901 -0.39327465778 0.15982838023 0.82243402162 -0.54594612275 0.16823527448 0.80537573657 -0.56838966859 
0.13826333871 0.87405869335 -0.4657302328 0.081206102479 0.98024281975 -0.18035959426 0.01646575027 0.95842119756 0.28488188277 
-0.030032028852 0.70725851685 0.70631683229 -0.044401636978 0.3824696296 0.9229005781 -0.031853854861 0.1284435271 0.99120512119 
-0.014101361457 0.0084398055869 0.99986495152 -0.02386494763 0.050071563869 0.9984604663 -0.062707971878 0.19067975752 0.97964735509 
-0.090460331665 0.29604911594 0.95087951358 -0.092818503897 0.3064730066 0.94734313823 -0.083508613325 0.26211985551 0.96141535917 
-0.07637776751 0.23308581402 0.96945213391 -0.095005771866 0.28409037358 0.95407890814 -0.19084740966 0.43478240971 0.8800804068 
-0.34119905537 0.5608277499 0.75435763372 -0.43240172023 0.60090758196 0.67226395879 -0.4514680033 0.60591860075 0.65501090927 
-0.43776632059 0.60332937331 0.6665990668 -0.42828220033 0.60214036761 0.67379621146 -0.44513311633 0.60287862025 0.66211319122 
-0.48222210213 0.60173107105 0.63669581619 -0.51693719787 0.59963791508 0.61090940757 -0.53109485121 0.59933944714 0.59894113744 
-0.5172419287 0.59819948406 0.61206058888 -0.47734364158 0.58940726186 0.65172243134 -0.41438249184 0.56631947118 0.71243905495 
-0.33112901539 0.52188818658 0.78612104404 -0.23785699395 0.4496050933 0.86097578973 -0.16763391972 0.36883215378 0.91425472998 
-0.14702280264 0.33396383187 0.93104911498 -0.15978879145 0.36456896035 0.91736416721 -0.18046619558 0.43308767354 0.88310079792 
-0.19121246565 0.48599565062 0.85278720708 -0.18854960578 0.4553949288 0.87009453796 -0.19870013277 0.26022483543 0.9448816287 
-0.25041466731 -0.036898931075 0.96743525018 -0.29951947789 -0.23530217894 0.92461936328 -0.32858166765 -0.34161060197 0.88053181902 
-0.32858166765 -0.34161060197 0.88053181902 
