# vtk DataFile Version 4.2
vtk output
ASCII
DATASET POLYDATA
POINTS 64 float
0 0 0 -1.01889 -0.218552 0.0892002 -1.95939 -0.270939 0.33778 
-2.91834 -0.218384 0.695385 -3.83348 -0.0818373 1.10752 -4.73754 0.097245 1.53206 
-5.64759 0.287174 1.9385 -6.57936 0.455694 2.30274 -7.54214 0.565286 2.60296 
-8.53158 0.570847 2.82604 -9.52238 0.429786 2.99064 -10.4723 0.120194 3.16472 
-11.3305 -0.339204 3.44795 -12.0661 -0.873315 3.89711 -12.7067 -1.41028 4.47207 
-13.3149 -1.93701 5.09013 -13.9482 -2.47953 5.6679 -14.6398 -3.0805 6.10217 
-15.3609 -3.7765 6.24699 -15.9724 -4.54251 5.99608 -16.3302 -5.2988 5.42544 
-16.409 -5.99775 4.6957 -16.2539 -6.63411 3.92156 -15.9215 -7.22179 3.16468 
-15.459 -7.78237 2.45696 -14.902 -8.34234 1.82059 -14.2757 -8.93904 1.28979 
-13.6114 -9.62657 0.956912 -13.0782 -10.4225 1.19638 -13.0902 -10.8245 2.13142 
-13.3594 -10.8299 3.1079 -13.6793 -10.6759 4.05818 -13.9962 -10.4347 4.99128 
-14.2718 -10.1582 5.92777 -14.4589 -9.9093 6.89316 -14.4884 -9.80199 7.90071 
-14.3186 -9.98631 8.88137 -14.0401 -10.4636 9.73114 -13.774 -11.111 10.4652 
-13.575 -11.8464 11.1351 -13.458 -12.6278 11.7713 -13.4149 -13.4318 12.3887 
-13.4188 -14.2451 12.9952 -13.4245 -15.0613 13.5979 -13.3642 -15.8729 14.2035 
-13.1447 -16.6545 14.811 -12.6773 -17.3388 15.3939 -11.9698 -17.8516 15.9074 
-11.1211 -18.1939 16.3446 -10.214 -18.4181 16.7399 -9.29069 -18.5671 17.133 
-8.37452 -18.6621 17.5584 -7.48359 -18.7078 18.0414 -6.63302 -18.6996 18.5942 
-5.83177 -18.635 19.2131 -5.07727 -18.5217 19.8818 -4.35335 -18.3816 20.5788 
-3.63518 -18.2466 21.2826 -2.89817 -18.1514 21.9733 -2.12697 -18.1255 22.6321 
-1.3235 -18.184 23.2455 -0.48655 -18.3321 23.8204 0.3143 -18.5399 24.3318 
1.17126 -18.8368 24.8542 
LINES 1 65
64 0 1 2 3 4 5 6 7 8 9 10 11 12 13 14 15 16 17 18 19 20 21 22 23 24 25 26 27 28 29 30 31 32 33 34 35 36 37 38 39 40 41 42 43 44 45 46 47 48 49 50 51 52 53 54 55 56 57 58 59 60 61 62 63 

POINT_DATA 64
SCALARS MaximumInscribedSphereRadius float
LOOKUP_TABLE default
0.9796 0.762299 0.79556 1.15249 1.24 1.18971 1.0229 1.0479 1.24312 
1.44631 1.32907 1.05696 1.2115 1.423 1.4995 1.33461 1.11142 1.00182 
1.11089 1.10724 1.02839 1.00826 1.16365 1.1538 1.05163 1.16886 1.3406 
1.29735 1.09857 1.33919 1.18442 1.0168 1.17488 1.24 1.36743 1.7743 
1.85724 1.73697 1.5798 1.55 1.64514 1.78491 1.56242 1.34816 1.46798 
1.41781 1.28824 1.48466 1.55 1.49348 1.32319 1.25353 1.26806 1.25458 
1.24923 1.268 1.25699 1.16465 0.97613 1.08708 1.24788 1.29505 1.15937 
0.93 
TEXTURE_COORDINATES TCoords 2 float
0 0 0.015873 0 0.031746 0 0.047619 0 0.0634921 
0 0.0793651 0 0.0952381 0 0.111111 0 0.126984 0 
0.142857 0 0.15873 0 0.174603 0 0.190476 0 0.206349 
0 0.222222 0 0.238095 0 0.253968 0 0.269841 0 
0.285714 0 0.301587 0 0.31746 0 0.333333 0 0.349206 
0 0.365079 0 0.380952 0 0.396825 0 0.412698 0 
0.428571 0 0.444444 0 0.460317 0 0.47619 0 0.492063 
0 0.507937 0 0.52381 0 0.539683 0 0.555556 0 
0.571429 0 0.587302 0 0.603175 0 0.619048 0 0.634921 
0 0.650794 0 0.666667 0 0.68254 0 0.698413 0 
0.714286 0 0.730159 0 0.746032 0 0.761905 0 0.777778 
0 0.793651 0 0.809524 0 0.825397 0 0.84127 0 
0.857143 0 0.873016 0 0.888889 0 0.904762 0 0.920635 
0 0.936508 0 0.952381 0 0.968254 0 0.984127 0 
1 0 
FIELD FieldData 4
Curvature 1 64 float
0.196893 0.176901 0.133729 0.0850978 0.042498 0.0209007 0.0431947 0.0779391 0.112218 
0.134938 0.147047 0.17123 0.180776 0.137673 0.0578579 0.0422425 0.140912 0.255177 
0.347034 0.335898 0.272761 0.208944 0.15592 0.11616 0.0981948 0.124403 0.229361 
0.523752 0.911083 0.434329 0.182454 0.0793096 0.0509639 0.104382 0.200677 0.299486 
0.290996 0.18721 0.119225 0.0868224 0.0655917 0.0408133 0.0293412 0.0699238 0.143511 
0.22362 0.248042 0.197711 0.122275 0.0655942 0.0508953 0.0661397 0.0799807 0.0818332 
0.0687486 0.0402218 0.0184146 0.0374272 0.0680337 0.083051 0.0817716 0.0727108 0.0626288 
0.0545003 
Torsion 1 64 float
0.0182361 0.0329341 0.0610334 0.12924 0.387107 1.2448 0.350492 0.153526 0.165955 
0.272515 0.410984 0.407423 0.282354 0.163727 0.124686 0.282894 0.101715 0.113692 
0.141098 0.150989 0.135119 0.121266 0.133071 0.195353 0.283617 0.241847 0.122739 
0.0338571 -0.0612146 -0.080959 -0.113606 -0.317481 -0.78703 -0.316065 -0.173857 -0.167787 
-0.206487 -0.26487 -0.277906 -0.204979 -0.104112 0.0101689 0.154554 0.0530742 0.021539 
0.0211294 0.0282794 0.0553785 0.145877 0.398985 0.470185 0.152927 0.0117593 -0.0239214 
-0.0124156 0.203259 0.708827 0.300276 0.0206736 -0.0281683 -0.0651376 -0.0963259 -0.115463 
-0.125709 
Abscissas 1 64 double
0 1.0458772418 2.0200814125 3.0448929663 4.0577956638 5.0724988533 6.087126235 7.1016566701 8.1160905832 
9.1303801684 10.144618803 11.158773337 12.17257524 13.186562544 14.201037781 15.215661492 16.230159062 17.244083124 
18.256657404 19.268416945 20.281148947 21.294689402 22.308731402 23.32299765 24.337408827 25.35169147 26.366636187 
27.378944239 28.366410681 29.384279009 30.397192098 31.411624368 32.426184005 33.44075939 34.45512108 35.468810332 
36.480987338 37.494671799 38.508898141 39.523359376 40.537852913 41.552396922 42.566990637 43.581599536 44.596043469 
45.610004797 46.623161785 47.63664508 48.650899636 49.665403876 50.679962504 51.694506454 52.708997636 53.723458831 
54.737937354 55.752473669 56.767076385 57.781663195 58.796242481 59.810836643 60.823365866 61.8494667 62.822148281 
63.868788663 
ParallelTransportNormals 3 64 double
0.087212889086 0 0.99618969678 0.2542875132 0.022632023703 0.96686382295 0.35041156597 0.022757980584 0.93631928783 
0.41261925237 0.016463879735 0.91075479315 0.42727548488 0.013921347189 0.90401430084 0.41073152776 0.017286575939 0.91159244534 
0.36798280265 0.025606133996 0.92947995291 0.30117294832 0.035413482151 0.95291171705 0.21997996618 0.040202415079 0.97467562825 
0.15878512751 0.03601497766 0.98665607213 0.16806758234 0.038170477455 0.98503619345 0.2722451318 0.082478502719 0.95868654147 
0.4183504161 0.17355086342 0.89155091114 0.52024940078 0.25285894253 0.81572232786 0.55333999572 0.28104470347 0.78411014774 
0.52324893203 0.25513022488 0.81309232163 0.41813132859 0.16440385477 0.8933854513 0.21626320874 -0.020941895924 0.97611047609 
-0.029067034694 -0.2901207432 0.95654851516 -0.18482907779 -0.53471755009 0.82456979913 -0.2314186664 -0.68997475518 0.68584272108 
-0.2266146486 -0.77417537703 0.59101462473 -0.21044229622 -0.81478840827 0.54021652114 -0.20155367092 -0.82762799397 0.5238396905 
-0.21041704156 -0.81788610596 0.53552496328 -0.25194464631 -0.77729460294 0.57648676952 -0.36342803625 -0.6663593143 0.65106476384 
-0.69086468279 -0.25978643004 0.67469771071 -0.94225396429 0.31189442036 0.12198088918 -0.88849274864 0.38944422389 -0.24272171738 
-0.85574450621 0.38118807772 -0.34985281118 -0.84435523161 0.37411960544 -0.38353456647 -0.851009124 0.379933452 -0.36253833304 
-0.8726829048 0.40454883011 -0.27343151195 -0.89466773402 0.44069320265 -0.07320619403 -0.8731311489 0.42884640227 0.23180327883 
-0.81677465737 0.34569552799 0.46192397753 -0.78946662287 0.28930908057 0.54133419186 -0.78783115128 0.2844467095 0.54627112914 
-0.79292917064 0.30892269702 0.52519529474 -0.79617640307 0.34107928203 0.49976800475 -0.79672589817 0.36375782904 0.48260551695 
-0.79673316238 0.3625198238 0.4835241931 -0.79542107207 0.3234173308 0.51254906911 -0.77953759701 0.23298115599 0.58141286175 
-0.7165862416 0.098675093317 0.69048344245 -0.59779174989 -0.02237242844 0.80133919048 -0.48331268429 -0.085287527748 0.87128347099 
-0.41909351183 -0.10600849616 0.90173323499 -0.40430196436 -0.1090240589 0.90810444124 -0.42772598998 -0.10591611327 0.8976815997 
-0.47818659711 -0.10198754649 0.87231652438 -0.54150472022 -0.10062481734 0.83465399065 -0.60275985213 -0.10332410744 0.7912045813 
-0.65016512254 -0.10874499073 0.751970638 -0.67759898669 -0.11344597024 0.72662894593 -0.68423828905 -0.11471256069 0.72017983325 
-0.67167614368 -0.11272468959 0.73221875308 -0.6433939494 -0.11045362092 0.7575250646 -0.60813580228 -0.11118693229 0.78600783207 
-0.57616981925 -0.1152010953 0.80917059204 -0.55621972578 -0.1195573603 0.82239020802 -0.54716808616 -0.12229853743 0.82803994664 
-0.54716808616 -0.12229853743 0.82803994664 
