# vtk DataFile Version 4.2
vtk output
ASCII
DATASET POLYDATA
POINTS 64 float
0 0 0 -0.842619 0.351885 0.51471 -1.69826 0.500751 0.958582 
-2.61885 0.398841 1.37948 -3.4698 -0.0116172 1.7449 -4.18636 -0.647813 2.07564 
-4.78136 -1.40217 2.40092 -5.29696 -2.21249 2.72769 -5.776 -3.05409 3.03027 
-6.26415 -3.91804 3.24028 -6.80002 -4.77537 3.1963 -7.3181 -5.51748 2.74709 
-7.71106 -6.12495 2.03671 -7.96774 -6.70179 1.2429 -8.09507 -7.31318 0.44372 
-8.10027 -7.98522 -0.315857 -7.99947 -8.72655 -1.00058 -7.81891 -9.53813 -1.58138 
-7.59373 -10.4169 -2.03488 -7.36377 -11.3577 -2.3352 -7.17727 -12.3492 -2.43024 
-7.12269 -13.328 -2.1736 -7.34979 -13.8081 -1.35307 -7.66884 -13.5048 -0.440745 
-7.90494 -12.91 0.345703 -8.04465 -12.2378 1.09249 -8.0802 -11.5963 1.87723 
-8.00377 -11.1071 2.76136 -7.83175 -10.947 3.74468 -7.63348 -11.2322 4.69372 
-7.4765 -11.8688 5.46515 -7.37242 -12.7 6.036 -7.30398 -13.6261 6.44359 
-7.25124 -14.597 6.73275 -7.19586 -15.5879 6.94325 -7.11974 -16.5858 7.10999 
-7.00488 -17.5821 7.26341 -6.8379 -18.5694 7.42653 -6.61279 -19.5406 7.61466 
-6.32627 -20.4881 7.83679 -5.96745 -21.3999 8.09929 -5.51226 -22.2521 8.40787 
-4.92808 -23.001 8.76258 -4.19338 -23.5812 9.15047 -3.32799 -23.9323 9.54351 
-2.39413 -24.054 9.91894 -1.4483 -24.0084 10.2825 -0.517995 -23.8689 10.6624 
0.385233 -23.6939 11.0899 1.25504 -23.5226 11.5832 2.09166 -23.3782 12.1386 
2.90177 -23.2815 12.7415 3.69251 -23.2639 13.3767 4.46065 -23.3732 14.0298 
5.17936 -23.6629 14.6834 5.79277 -24.1654 15.3143 6.23317 -24.8593 15.9071 
6.45173 -25.6732 16.47 6.43027 -26.5227 17.0224 6.18395 -27.3368 17.5737 
5.75588 -28.0785 18.1174 5.19386 -28.7491 18.6409 4.57452 -29.3383 19.1099 
3.84226 -29.9466 19.5495 
LINES 1 65
64 0 1 2 3 4 5 6 7 8 9 10 11 12 13 14 15 16 17 18 19 20 21 22 23 24 25 26 27 28 29 30 31 32 33 34 35 36 37 38 39 40 41 42 43 44 45 46 47 48 49 50 51 52 53 54 55 56 57 58 59 60 61 62 63 

POINT_DATA 64
SCALARS MaximumInscribedSphereRadius float
LOOKUP_TABLE default
0.62 0.790661 0.914757 0.93 0.93 0.93 0.943787 1.19753 1.50755 
1.54227 1.40959 1.15174 0.967203 1.18272 1.47213 1.69529 1.43474 1.43515 
1.72474 1.7331 1.57072 1.78139 1.8696 2.06526 2.26761 2.43641 2.14808 
1.87167 1.86804 2.05573 2.06248 1.87749 1.86 1.92216 2.09434 2.28083 
2.35626 1.9316 1.67394 2.04531 1.92607 1.64623 1.74296 1.84648 1.85039 
2.01979 2.10879 1.97304 2.19616 2.54751 2.50108 2.58691 2.74067 2.60905 
2.49261 2.47686 2.32257 2.30949 2.65342 2.65793 2.48685 2.49496 2.59567 
2.79 
TEXTURE_COORDINATES TCoords 2 float
0 0 0.015873 0 0.031746 0 0.047619 0 0.0634921 
0 0.0793651 0 0.0952381 0 0.111111 0 0.126984 0 
0.142857 0 0.15873 0 0.174603 0 0.190476 0 0.206349 
0 0.222222 0 0.238095 0 0.253968 0 0.269841 0 
0.285714 0 0.301587 0 0.31746 0 0.333333 0 0.349206 
0 0.365079 0 0.380952 0 0.396825 0 0.412698 0 
0.428571 0 0.444444 0 0.460317 0 0.47619 0 0.492063 
0 0.507937 0 0.52381 0 0.539683 0 0.555556 0 
0.571429 0 0.587302 0 0.603175 0 0.619048 0 0.634921 
0 0.650794 0 0.666667 0 0.68254 0 0.698413 0 
0.714286 0 0.730159 0 0.746032 0 0.761905 0 0.777778 
0 0.793651 0 0.809524 0 0.825397 0 0.84127 0 
0.857143 0 0.873016 0 0.888889 0 0.904762 0 0.920635 
0 0.936508 0 0.952381 0 0.968254 0 0.984127 0 
1 0 
FIELD FieldData 4
Curvature 1 64 float
0.133802 0.172019 0.216493 0.238558 0.201373 0.135828 0.0743053 0.0507263 0.104135 
0.224382 0.322017 0.24799 0.140671 0.108587 0.107624 0.109889 0.110588 0.109972 
0.121379 0.167923 0.291839 0.636145 0.626774 0.269434 0.114872 0.0903928 0.165692 
0.269529 0.333769 0.295623 0.214839 0.143461 0.0932051 0.0593663 0.0387424 0.0347858 
0.0401839 0.0486337 0.0556994 0.0656574 0.088171 0.12723 0.169044 0.195461 0.17576 
0.123431 0.0702999 0.0497318 0.0546968 0.0553911 0.0533449 0.0632545 0.0944321 0.136699 
0.175138 0.19088 0.185477 0.177337 0.166211 0.142367 0.109444 0.0828844 0.0779766 
0.117342 
Torsion 1 64 float
-0.0440431 -0.0620097 -0.0840859 -0.106285 -0.119189 -0.105987 0.0425342 0.434125 0.191711 
0.013851 -0.0964979 -0.235852 -0.361765 -0.281079 -0.174509 -0.152787 -0.160145 -0.181738 
-0.160785 -0.0968328 -0.0344943 0.0286375 0.0857296 0.149819 0.517947 0.593949 0.229895 
0.135234 0.0865911 0.0394357 -0.00253237 -0.0358734 -0.0789462 -0.18519 -0.402376 -0.422931 
-0.234262 -0.107033 -0.0358948 0.0195536 0.0488509 0.0485519 0.0363495 0.0173572 -0.0258807 
-0.122141 -0.387054 -0.581144 -0.283409 -0.204142 -0.285205 -0.24672 -0.0896818 0.00566076 
0.0595252 0.134667 0.187279 0.178239 0.110216 0.0223842 -0.0530192 -0.169847 -0.26897 
-0.199355 
Abscissas 1 64 double
0 1.0482152907 2.0235626151 3.0409307331 4.0539035925 5.0676052838 6.0819487456 7.0964606802 8.1110236348 
9.1253195392 10.13730528 11.147715102 12.161657871 13.175933006 14.190176471 15.204386446 16.21857888 17.2327715 
18.246936412 19.260970568 20.274326314 21.287700499 22.265103141 23.278076523 24.291992229 25.306444134 26.320632621 
27.333937119 28.344948079 29.355561053 30.367968435 31.381643031 32.395809406 33.410221495 34.424761122 35.439338862 
36.453902578 37.468438351 38.482956447 39.49744513 40.511854491 41.526099318 42.539967349 43.553331505 44.56656429 
45.580387694 46.594716621 47.609227327 48.623743104 49.638232834 50.652739769 51.667241662 52.681653912 53.69581667 
54.709545088 55.722884634 56.736214305 57.749673418 58.763223901 59.77677965 60.791150506 61.810776369 62.785795614 
63.834358364 
ParallelTransportNormals 3 64 double
0.52128462814 0 0.853382878 0.46274936736 0.017003133129 0.88632607796 0.41404927817 0.018436675956 0.91006773606 
0.38989259795 0.011440320958 0.92078927074 0.40376975408 0.020705368249 0.91462630261 0.43051302229 0.049057559009 0.90125018366 
0.44823863061 0.074030230715 0.89084322693 0.4446225874 0.068024608075 0.89313123754 0.40305779257 -0.0052713035427 0.91515934635 
0.27526711577 -0.22006280377 0.9358420686 0.059748440849 -0.5471121597 0.83492419328 -0.069661859522 -0.73880343645 0.6703109037 
-0.097649513454 -0.78982377681 0.60551050702 -0.095509730024 -0.78320273871 0.61438698029 -0.091614707166 -0.74548380439 0.66019742715 
-0.095882964723 -0.6823825043 0.72467963604 -0.11177966369 -0.59464405652 0.79618072875 -0.13881053949 -0.48203434817 0.86508642419 
-0.17485629602 -0.33793138788 0.9247851928 -0.21884756722 -0.13380795495 0.96654082869 -0.26346977887 0.23088304021 0.93663050205 
-0.1852140881 0.86967740289 0.45755541355 0.052564608372 0.9529794173 -0.29844127087 0.1412587238 0.80952416405 -0.56983910078 
0.15939845887 0.74837240766 -0.64384071847 0.15676243287 0.76813265714 -0.62080412424 0.1600093896 0.85781313468 -0.48841951355 
0.19954281868 0.96101634185 -0.19139031899 0.27885155591 0.93420671992 0.22248508763 0.34726592017 0.75676467234 0.55381730867 
0.38314986856 0.55505761319 0.73831377087 0.39897190805 0.39390803007 0.82804461258 0.40618283649 0.28103037928 0.86950412838 
0.41002062651 0.21139708734 0.8872397406 0.41205354303 0.18065177856 0.89307156073 0.41164894451 0.18487660043 0.89239329284 
0.40729617426 0.21551186093 0.88750462772 0.39788458995 0.26252225295 0.87907333015 0.3828201 0.31901632308 0.86699328524 
0.35954948627 0.38606199976 0.84951768626 0.32111209583 0.46935616564 0.82255201154 0.25601770467 0.56962725579 0.78101198733 
0.15162783953 0.6748226893 0.7222349592 0.010393037858 0.75702369273 0.65330476304 -0.13420874047 0.79502436797 0.59154396989 
-0.2486392702 0.79966012222 0.54655484835 -0.3289077079 0.79174165912 0.51474737969 -0.38378669024 0.78232883019 0.49058065376 
-0.42014348717 0.77522853964 0.47169922781 -0.43873698971 0.77178914529 0.46027314615 -0.43616722523 0.77216546564 0.4620807779 
-0.40669909843 0.77427045822 0.48487225211 -0.34551744614 0.77066774401 0.53543339713 -0.25684123327 0.74686987392 0.61336609975 
-0.16090158152 0.6898154873 0.70587907927 -0.092502800336 0.61215999582 0.78530463608 -0.067602868309 0.55518615947 0.82897417362 
-0.066403483057 0.54506406761 0.83576057555 -0.061997349634 0.57243803597 0.81760077276 -0.046595170664 0.60797298188 0.79258926524 
-0.030592498891 0.63081049362 0.77533361861 -0.02393151814 0.63789593373 0.76975064805 -0.044395763656 0.61972066769 0.78356576636 
-0.044395763656 0.61972066769 0.78356576636 
