# vtk DataFile Version 4.2
vtk output
ASCII
DATASET POLYDATA
POINTS 64 float
0 0 0 -0.432967 0.626357 0.706387 -1.03644 1.07065 1.35382 
-1.79599 1.35892 1.95726 -2.65979 1.45329 2.47886 -3.5656 1.32933 2.91566 
-4.43983 0.976266 3.28659 -5.21532 0.415707 3.62038 -5.86206 -0.294198 3.94553 
-6.40044 -1.08987 4.27104 -6.87848 -1.93639 4.56052 -7.34152 -2.82848 4.68463 
-7.76536 -3.7016 4.41034 -8.06587 -4.46321 3.81279 -8.24833 -5.1849 3.12383 
-8.30566 -5.92778 2.43592 -8.19024 -6.68617 1.77342 -7.8632 -7.4007 1.13358 
-7.36722 -8.03465 0.51669 -6.78777 -8.63601 -0.0593346 -6.20136 -9.30723 -0.542161 
-5.77208 -10.2054 -0.699606 -5.97407 -10.8504 -0.0107339 -6.40283 -10.7682 0.898435 
-6.72452 -10.3447 1.76013 -6.87461 -9.76376 2.57707 -6.83867 -9.17489 3.40092 
-6.60363 -8.82655 4.31756 -6.27378 -9.16835 5.19473 -6.04072 -9.96865 5.77076 
-5.86702 -10.8843 6.17087 -5.7078 -11.8356 6.48528 -5.5407 -12.7978 6.76057 
-5.34635 -13.7564 7.02998 -5.09927 -14.6995 7.31066 -4.7669 -15.6128 7.60071 
-4.3153 -16.4737 7.88927 -3.72126 -17.2459 8.16964 -2.98491 -17.8844 8.44784 
-2.13381 -18.3485 8.7436 -1.21576 -18.6151 9.08024 -0.282694 -18.6852 9.47013 
0.625624 -18.5813 9.90854 1.49125 -18.3384 10.378 2.31944 -17.9976 10.8545 
3.13326 -17.6029 11.3141 3.95641 -17.1974 11.7469 4.79952 -16.8217 12.168 
5.66247 -16.5225 12.6092 6.53202 -16.3693 13.107 7.35652 -16.4702 13.6847 
8.00278 -16.9348 14.3049 8.30814 -17.7306 14.8449 8.27517 -18.6678 15.2258 
8.03808 -19.6195 15.4831 7.70643 -20.5591 15.6733 7.33863 -21.493 15.8214 
6.96041 -22.4299 15.9132 6.58367 -23.3717 15.9207 6.22336 -24.3179 15.8555 
5.90037 -25.2787 15.812 5.64684 -26.2439 15.9734 5.49926 -27.097 16.451 
5.4436 -27.8044 17.2096 
LINES 1 65
64 0 1 2 3 4 5 6 7 8 9 10 11 12 13 14 15 16 17 18 19 20 21 22 23 24 25 26 27 28 29 30 31 32 33 34 35 36 37 38 39 40 41 42 43 44 45 46 47 48 49 50 51 52 53 54 55 56 57 58 59 60 61 62 63 

POINT_DATA 64
SCALARS MaximumInscribedSphereRadius float
LOOKUP_TABLE default
1.116 1.20322 1.11498 0.898268 0.703896 0.803585 1.03612 1.21733 1.05737 
1.01166 1.19894 1.24 1.24 1.08997 1.01622 1.21441 1.43418 1.34396 
0.949301 1.35311 1.55 1.67658 1.86 1.86 1.89366 2.07381 2.17 
2.09279 1.95535 2.12583 1.97007 1.76407 1.57075 1.55 1.55 1.49096 
1.28725 1.4167 1.55 1.57146 1.75403 1.96941 2.10445 1.90145 1.69375 
1.55 1.55278 1.70457 1.91233 2.11206 2.17 2.03835 1.94621 2.06763 
1.76028 1.75019 2.10732 1.7465 1.67568 1.78146 1.62741 1.772 1.72896 
1.55 
TEXTURE_COORDINATES TCoords 2 float
0 0 0.015873 0 0.031746 0 0.047619 0 0.0634921 
0 0.0793651 0 0.0952381 0 0.111111 0 0.126984 0 
0.142857 0 0.15873 0 0.174603 0 0.190476 0 0.206349 
0 0.222222 0 0.238095 0 0.253968 0 0.269841 0 
0.285714 0 0.301587 0 0.31746 0 0.333333 0 0.349206 
0 0.365079 0 0.380952 0 0.396825 0 0.412698 0 
0.428571 0 0.444444 0 0.460317 0 0.47619 0 0.492063 
0 0.507937 0 0.52381 0 0.539683 0 0.555556 0 
0.571429 0 0.587302 0 0.603175 0 0.619048 0 0.634921 
0 0.650794 0 0.666667 0 0.68254 0 0.698413 0 
0.714286 0 0.730159 0 0.746032 0 0.761905 0 0.777778 
0 0.793651 0 0.809524 0 0.825397 0 0.84127 0 
0.857143 0 0.873016 0 0.888889 0 0.904762 0 0.920635 
0 0.936508 0 0.952381 0 0.968254 0 0.984127 0 
1 0 
FIELD FieldData 4
Curvature 1 64 float
0.16292 0.151685 0.148516 0.149899 0.151142 0.15358 0.149273 0.127907 0.0881392 
0.0608699 0.138568 0.283957 0.248652 0.120432 0.084152 0.111497 0.141954 0.124266 
0.0637585 0.0883286 0.289947 0.837281 0.547971 0.250533 0.155988 0.124454 0.240187 
0.511132 0.386111 0.152752 0.0605549 0.0352996 0.0349502 0.0379532 0.0577383 0.0831826 
0.107108 0.124314 0.133476 0.135356 0.129914 0.115877 0.0943205 0.0671053 0.0381045 
0.0250245 0.0297285 0.051217 0.101291 0.177305 0.266429 0.313816 0.264046 0.160103 
0.0742349 0.0365827 0.0435502 0.0613554 0.0544864 0.0415422 0.139719 0.253107 0.249437 
0.191066 
Torsion 1 64 float
-0.00340733 -0.00285183 0.0110412 0.0625702 0.127169 0.148023 0.138 0.120046 -0.0216072 
-0.466466 -0.180739 0.0129616 0.138055 0.324582 0.19266 -0.110523 -0.166931 -0.0051067 
0.498572 0.542896 0.0346102 -0.0872412 -0.157267 -0.194623 -0.303961 -0.504926 -0.320337 
-0.153679 -0.0283976 0.0525279 0.13126 0.225597 0.182962 0.00645036 -0.0849029 -0.0310696 
0.0323826 0.0826842 0.116749 0.111902 0.0795318 0.0334483 -0.019928 -0.127177 -0.434103 
-0.590018 -0.488378 -0.232779 -0.0678235 -0.0116971 0.00383895 0.00211302 -0.00444786 -0.00504722 
0.0276483 0.268258 0.150742 0.0572516 0.232278 0.809991 0.149346 0.0385249 0.0138846 
0.00531512 
Abscissas 1 64 double
0 1.0386370434 2.0289559671 3.040960597 4.0544426475 5.0676760074 6.0808495051 7.0942723201 8.1081580483 
9.1225114792 10.136866022 11.14959813 12.158168462 13.171784197 14.186080712 15.200168492 16.213769747 17.227131193 
18.241255559 19.255748493 20.26942346 21.277282306 22.242347125 23.250900922 24.263491058 25.277103422 26.290408304 
27.29878435 28.296304583 29.309522964 30.323774251 31.338279477 32.352866765 33.367436899 34.381913701 35.396234381 
36.410287988 37.424077641 38.437656832 39.451163896 40.464683029 41.478360383 42.492281831 43.506497775 44.520943154 
45.535510592 46.55009312 47.564627228 48.578935176 49.592545953 50.604366121 51.613357631 52.622425912 53.634531344 
54.64852466 55.662994713 56.67755171 57.692031571 58.706424747 59.720983586 60.735565682 61.746542239 62.73527471 
63.773991478 
ParallelTransportNormals 3 64 double
0 -0.74822008041 0.66345060952 0.0511037858 -0.8005916198 0.59702718647 0.11279404033 -0.8338649475 0.54032097293 
0.1975253287 -0.85384531189 0.48159311446 0.31747630366 -0.85183841882 0.41662945747 0.47378395123 -0.80994984365 0.34570221049 
0.63821397109 -0.71889046308 0.27546221011 0.76895080547 -0.60211018987 0.21489061873 0.84710776122 -0.50282286924 0.17198140319 
0.88198489466 -0.44647312549 0.15087873876 0.88596575017 -0.43911844041 0.1491297583 0.87101959621 -0.46886863982 0.14658465681 
0.87385166309 -0.4624787911 0.14998879526 0.8906186895 -0.41098776804 0.1946468711 0.90470387915 -0.32495248249 0.27552998961 
0.89990653283 -0.20107553232 0.38695847643 0.85841564303 -0.062962975519 0.509075876 0.79719805444 0.03735007752 0.60256139415 
0.74881005607 0.092933186278 0.65623694107 0.71473890673 0.13012399288 0.68717977392 0.67209777762 0.19606709255 0.714032403 
0.63514069649 0.4621128736 0.61890870709 0.75823613967 0.57597251971 0.3055055041 0.85796953814 0.50887905232 0.07021667702 
0.91020163234 0.39770600591 -0.11559810272 0.91982149332 0.29909072758 -0.25391564959 0.90784321748 0.25776166609 -0.33072589251 
0.93315783768 0.25788731187 -0.25042081454 0.97306005429 0.17729200861 -0.14738274808 0.98352596829 0.13314513077 -0.12226628256 
0.98490479035 0.12541286283 -0.11930703155 0.98315041046 0.13570017841 -0.12247747541 0.97823428506 0.16182485535 -0.12988610287 
0.96693631136 0.21049539064 -0.14396478838 0.94228675323 0.28946500286 -0.16824293982 0.89337509023 0.40015703973 -0.20434111605 
0.80917487185 0.53165708926 -0.25015348531 0.68712573684 0.66107371531 -0.30139635812 0.53959526106 0.76354316766 -0.3547376289 
0.38950774529 0.82553182009 -0.40838821039 0.25630309773 0.84976066136 -0.4606685799 0.14872344446 0.84778506116 -0.5090597481 
0.065785762688 0.83157492278 -0.55150283882 0.0038212530966 0.810224458 -0.58610726466 -0.038901799976 0.79108784405 -0.61046430932 
-0.058432095826 0.78154039517 -0.6211121484 -0.044563533961 0.78804294359 -0.61400522026 0.016577930382 0.81222783295 -0.58310472439 
0.14497115164 0.84574655421 -0.51351351612 0.36587944535 0.85253764725 -0.37324494838 0.65985993688 0.73938868811 -0.13375063214 
0.88742249293 0.43799263365 0.14367940672 0.94087132411 0.098630133842 0.3240883339 0.90975646796 -0.1191418423 0.39767875279 
0.87811699693 -0.22436385887 0.42257709183 0.86082297447 -0.27068760621 0.43094318241 0.84906314699 -0.3001767855 0.43472482085 
0.83659206409 -0.33121012484 0.43636403553 0.83068459073 -0.34634241096 0.43590141672 0.84579996352 -0.30415736783 0.43830436605 
0.88847840912 -0.16154283372 0.42954630647 0.9326935779 0.039349230907 0.35851684446 0.95196039472 0.18598014337 0.24327513881 
0.95196039472 0.18598014337 0.24327513881 
