# vtk DataFile Version 4.2
vtk output
ASCII
DATASET POLYDATA
POINTS 64 float
0 0 0 -0.927436 -0.0324115 0.462972 -1.88641 -0.0426414 0.719077 
-2.89127 -0.0760906 0.839272 -3.89948 -0.182638 0.876393 -4.88564 -0.417124 0.90291 
-5.81231 -0.819575 0.98383 -6.64016 -1.38468 1.13521 -7.36502 -2.07316 1.30558 
-8.0145 -2.84633 1.39799 -8.61023 -3.66058 1.30478 -9.1474 -4.45048 0.967854 
-9.60945 -5.16237 0.414115 -9.98015 -5.7798 -0.299273 -10.2272 -6.30927 -1.12762 
-10.2913 -6.7656 -2.03005 -10.1177 -7.17743 -2.93915 -9.72408 -7.59912 -3.77239 
-9.19009 -8.09654 -4.47575 -8.61189 -8.73534 -5.00817 -8.12478 -9.5812 -5.26508 
-8.05352 -10.5205 -4.96396 -8.51944 -10.9976 -4.21261 -9.14619 -11.0257 -3.41859 
-9.76394 -10.8061 -2.64536 -10.3076 -10.4475 -1.86802 -10.7288 -10.0262 -1.04756 
-10.9689 -9.62899 -0.147039 -10.955 -9.39334 0.835988 -10.6538 -9.50317 1.79144 
-10.1773 -10.0237 2.51207 -9.69187 -10.8156 2.91246 -9.26766 -11.7261 3.04441 
-8.90357 -12.6707 2.98636 -8.56799 -13.6121 2.81239 -8.20904 -14.5367 2.59919 
-7.7464 -15.4266 2.45365 -7.09878 -16.1985 2.53066 -6.31213 -16.726 2.88506 
-5.49051 -17.0253 3.39765 -4.66171 -17.174 3.96301 -3.81945 -17.2146 4.5268 
-2.95685 -17.1616 5.05785 -2.07345 -17.0224 5.53652 -1.17539 -16.8117 5.95865 
-0.270758 -16.5617 6.34409 0.634882 -16.3268 6.73637 1.52965 -16.1859 7.19197 
2.36885 -16.2408 7.75578 3.06279 -16.5685 8.41477 3.53384 -17.1572 9.08953 
3.76486 -17.9339 9.69658 3.77963 -18.8197 10.1879 3.62076 -19.751 10.5554 
3.33824 -20.6873 10.8242 2.98083 -21.6128 11.0361 2.59241 -22.5291 11.2336 
2.21024 -23.4446 11.4458 1.86324 -24.3698 11.6762 1.56996 -25.3157 11.8962 
1.33938 -26.292 12.0464 1.17421 -27.2905 12.0501 1.07044 -28.258 11.8558 
1.01195 -29.2017 11.4295 
LINES 1 65
64 0 1 2 3 4 5 6 7 8 9 10 11 12 13 14 15 16 17 18 19 20 21 22 23 24 25 26 27 28 29 30 31 32 33 34 35 36 37 38 39 40 41 42 43 44 45 46 47 48 49 50 51 52 53 54 55 56 57 58 59 60 61 62 63 

POINT_DATA 64
SCALARS MaximumInscribedSphereRadius float
LOOKUP_TABLE default
1.24 0.854119 0.879761 1.43588 1.13551 1.05646 1.22602 1.24 1.24 
1.24 1.22492 1.14641 1.18093 1.3417 1.58641 1.38952 1.24 1.27321 
1.49155 1.89038 2.16783 1.7245 1.38429 1.6125 1.79258 1.48469 1.23105 
1.76112 1.49551 1.4996 1.83755 1.86 1.86 1.86 1.86 1.86 
1.93243 2.16192 2.16524 2.01448 1.81304 1.62112 1.55 1.57598 1.73786 
1.95018 2.17 2.17 1.99431 1.97572 2.12628 1.98406 2.23515 2.18029 
1.66174 1.92319 2.16285 2.1718 2.18475 2.09939 1.87815 1.64367 1.79229 
2.17 
TEXTURE_COORDINATES TCoords 2 float
0 0 0.015873 0 0.031746 0 0.047619 0 0.0634921 
0 0.0793651 0 0.0952381 0 0.111111 0 0.126984 0 
0.142857 0 0.15873 0 0.174603 0 0.190476 0 0.206349 
0 0.222222 0 0.238095 0 0.253968 0 0.269841 0 
0.285714 0 0.301587 0 0.31746 0 0.333333 0 0.349206 
0 0.365079 0 0.380952 0 0.396825 0 0.412698 0 
0.428571 0 0.444444 0 0.460317 0 0.47619 0 0.492063 
0 0.507937 0 0.52381 0 0.539683 0 0.555556 0 
0.571429 0 0.587302 0 0.603175 0 0.619048 0 0.634921 
0 0.650794 0 0.666667 0 0.68254 0 0.698413 0 
0.714286 0 0.730159 0 0.746032 0 0.761905 0 0.777778 
0 0.793651 0 0.809524 0 0.825397 0 0.84127 0 
0.857143 0 0.873016 0 0.888889 0 0.904762 0 0.920635 
0 0.936508 0 0.952381 0 0.968254 0 0.984127 0 
1 0 
FIELD FieldData 4
Curvature 1 64 float
0.146574 0.128051 0.0971162 0.0736386 0.0855277 0.11895 0.127478 0.102736 0.0876893 
0.124165 0.159398 0.151619 0.12788 0.117675 0.131682 0.153551 0.147418 0.128555 
0.143686 0.234806 0.474015 0.576084 0.320086 0.172867 0.101752 0.09176 0.131453 
0.203949 0.288234 0.325648 0.269651 0.193153 0.128743 0.0748553 0.043529 0.104574 
0.209264 0.255871 0.187295 0.107092 0.0695588 0.0625332 0.0649417 0.0587746 0.0360362 
0.0247755 0.0767378 0.148631 0.204668 0.215589 0.196049 0.16916 0.137531 0.0997237 
0.0590092 0.0227881 0.0151989 0.0286738 0.0387624 0.0624934 0.101666 0.140026 0.155192 
0.146639 
Torsion 1 64 float
-0.0462897 -0.0983628 -0.222153 -0.442522 -0.358925 -0.127041 0.0280964 0.270405 0.495877 
0.232478 0.0785617 0.00743466 -0.0618502 -0.1553 -0.191886 -0.2017 -0.258231 -0.329449 
-0.275879 -0.119779 -0.0357395 0.00396911 0.0561806 0.146894 0.30986 0.37954 0.245386 
0.159534 0.131919 0.108065 0.0571773 0.0103299 -0.0355211 -0.176908 -0.597896 -0.194046 
-0.0507806 0.00376979 0.0535015 0.136412 0.207336 0.144268 0.0769325 0.0346808 0.0484927 
0.20639 0.00545553 -0.0123637 -0.0245761 -0.0382163 -0.0404516 -0.028167 -0.00173579 0.0282785 
0.0853131 0.526046 0.537987 0.291574 0.407146 0.290685 0.144717 0.0745418 0.038733 
0.01998 
Abscissas 1 64 double
0 1.037078269 2.029717943 3.0422900558 4.0567977558 5.0707932309 6.0843170022 7.0980211083 8.1121481341 
9.1261281924 10.13933887 11.152250972 12.165621566 13.179307517 14.1929804 15.206252319 16.219282607 17.232701126 
18.246254022 19.25910011 20.268432647 21.257364949 22.261992303 23.27396448 24.287727305 25.301841932 26.31580262 
27.328872186 28.339844711 29.347652989 30.356255322 31.367720793 32.380817247 33.39479189 34.409246438 35.423772303 
36.437293216 37.447760636 38.459070635 39.472656966 40.486887528 41.501239765 42.515583522 43.529926452 44.54437948 
45.558972339 46.573491349 47.587407091 48.599907637 49.611437522 50.623242189 51.635733867 52.648824036 53.662550377 
54.676755523 55.691267297 56.705868455 57.720449252 58.734992221 59.749496911 60.763868585 61.775955123 62.768180429 
63.805298701 
ParallelTransportNormals 3 64 double
0.44663726654 0 0.89471512345 0.25805816926 -0.0042126407955 0.96612019694 0.11900287957 -0.0072898473359 0.9928671476 
0.03815368342 -0.012909622721 0.99918848977 0.030263882058 -0.014258894296 0.99944023402 0.08524647051 0.0040506196994 0.99635166068 
0.15249087454 0.041132896788 0.98744853941 0.17481266068 0.05915385371 0.98282315564 0.12885719397 0.010278751458 0.99160988843 
0.020175223896 -0.12827506202 0.99153339268 -0.11639546516 -0.32165640797 0.9396750773 -0.23368087255 -0.4979304918 0.83513979377 
-0.31629178459 -0.62980230688 0.70944242983 -0.36968746531 -0.7289357817 0.57618035732 -0.39474468581 -0.80831944516 0.43680236675 
-0.38755505771 -0.8652854729 0.31793415613 -0.37284196228 -0.88690596713 0.27273920993 -0.39576043665 -0.864196268 0.31070643244 
-0.48234744142 -0.77573580198 0.40690897174 -0.65290384037 -0.53794882296 0.53322381708 -0.85102937334 0.10066191469 0.51537965098 
-0.67669235498 0.73476409937 0.047001861487 -0.42669811761 0.85079462546 -0.30672010321 -0.2954715807 0.83062131598 -0.47197963349 
-0.24344156363 0.80472276696 -0.54144018455 -0.24467606463 0.80572058647 -0.53939592132 -0.27945414168 0.84877851194 -0.44886570415 
-0.3071719549 0.92640856294 -0.2177442643 -0.24151512507 0.95247702689 0.18562854739 -0.046916169529 0.79476101872 0.60510643375 
0.15474360926 0.51970195862 0.84021681107 0.2892816039 0.26795878845 0.91897455968 0.3671979496 0.084610578787 0.92628651926 
0.40731294518 -0.023518839138 0.91298577694 0.41632685565 -0.047737275684 0.90796095829 0.37501005752 0.043510883127 0.92599906037 
0.2189267558 0.27704257987 0.93558456835 -0.041885922884 0.51335390371 0.85715420959 -0.24268030158 0.61661371142 0.74892843591 
-0.34809036522 0.64522996833 0.68008189625 -0.4002862338 0.65114325691 0.64481267823 -0.42654926159 0.65095188414 0.62794694997 
-0.4387883952 0.64960483598 0.62086898884 -0.44304858653 0.6487680206 0.61871480135 -0.44291256436 0.64880278068 0.61877573653 
-0.43765502442 0.65021095903 0.62103445022 -0.42267567787 0.65333725936 0.62808892433 -0.39149205654 0.65488197528 0.6464236754 
-0.34517549312 0.64332095562 0.68336814895 -0.29817632284 0.60635369445 0.7371743876 -0.2657729968 0.54334624479 0.79632880925 
-0.25430368932 0.46578810592 0.84756774006 -0.2601111599 0.39252815442 0.88219262776 -0.27239213304 0.34056350229 0.8998994537 
-0.28086266109 0.31591912865 0.9062622522 -0.28133528163 0.31475202549 0.9065217161 -0.27696234391 0.32514722347 0.90419640738 
-0.27569656575 0.32834251689 0.90342824576 -0.2853146654 0.30023613891 0.91019437627 -0.3084450968 0.21535936255 0.92654301963 
-0.33964908823 0.05961808758 0.93866084423 -0.36759098923 -0.14506929006 0.91860316009 -0.3859271811 -0.35977616631 0.84948297278 
-0.3859271811 -0.35977616631 0.84948297278 
