# vtk DataFile Version 4.2
vtk output
ASCII
DATASET POLYDATA
POINTS 64 float
0 0 0 -0.966862 -0.371026 0.134917 -1.863 -0.668171 0.410133 
-2.76543 -0.975434 0.75904 -3.64197 -1.34474 1.11311 -4.46349 -1.87838 1.36967 
-5.13369 -2.63489 1.40908 -5.63594 -3.5052 1.27183 -6.0744 -4.39563 1.06167 
-6.50341 -5.27091 0.78093 -6.9019 -6.10291 0.360508 -7.19329 -6.84968 -0.258549 
-7.29565 -7.47611 -1.04794 -7.18883 -8.00041 -1.90884 -6.90678 -8.47638 -2.75868 
-6.49963 -8.96318 -3.54984 -6.02139 -9.52053 -4.24919 -5.54628 -10.2174 -4.81045 
-5.22705 -11.1259 -5.11352 -5.36478 -12.0887 -4.90304 -5.9141 -12.6549 -4.27514 
-6.56312 -12.8161 -3.51593 -7.16359 -12.668 -2.71392 -7.61769 -12.288 -1.89191 
-7.84771 -11.7739 -1.04985 -7.79822 -11.2602 -0.17877 -7.43758 -10.9389 0.708454 
-6.80652 -11.081 1.47635 -6.15268 -11.7412 1.86347 -5.6626 -12.6266 1.87679 
-5.31486 -13.5615 1.69395 -5.05133 -14.5128 1.45956 -4.81589 -15.4873 1.30673 
-4.54502 -16.4609 1.37226 -4.18858 -17.3526 1.69479 -3.73117 -18.1265 2.164 
-3.16377 -18.7996 2.66741 -2.4747 -19.369 3.14599 -1.66603 -19.803 3.57661 
-0.769188 -20.0695 3.96713 0.1633 -20.1737 4.35194 1.08653 -20.1617 4.77204 
1.98025 -20.0887 5.24649 2.84725 -19.9913 5.76436 3.70264 -19.8859 6.29975 
4.56242 -19.7779 6.82747 5.43534 -19.6771 7.33466 6.32139 -19.6114 7.82443 
7.20876 -19.6397 8.31472 8.04233 -19.8837 8.8358 8.61175 -20.5059 9.385 
8.73684 -21.3839 9.87014 8.58012 -22.2969 10.2821 8.29679 -23.194 10.6618 
7.96731 -24.0785 11.034 7.64377 -24.9648 11.4071 7.36735 -25.8688 11.7751 
7.16607 -26.8013 12.1201 7.04285 -27.7622 12.4211 6.9777 -28.7439 12.6683 
6.94249 -29.7387 12.8677 6.91202 -30.7393 13.0369 6.8687 -31.7088 13.1914 
6.78213 -32.7347 13.372 
LINES 1 65
64 0 1 2 3 4 5 6 7 8 9 10 11 12 13 14 15 16 17 18 19 20 21 22 23 24 25 26 27 28 29 30 31 32 33 34 35 36 37 38 39 40 41 42 43 44 45 46 47 48 49 50 51 52 53 54 55 56 57 58 59 60 61 62 63 

POINT_DATA 64
SCALARS MaximumInscribedSphereRadius float
LOOKUP_TABLE default
1.24 1.26101 1.27651 1.2772 1.26318 1.24084 1.25956 1.44181 1.30357 
0.956228 1.16723 1.09525 1.00845 1.20362 1.26277 1.24163 1.24 1.38218 
1.70346 1.35797 1.43613 1.45535 1.20084 1.17327 1.27849 1.61093 1.5353 
1.32149 1.53509 1.36256 1.31665 1.48041 1.55 1.63735 2.05845 2.02918 
1.88331 1.86 1.86 1.86 1.6917 1.61879 1.7766 1.65312 1.45496 
1.69581 1.93985 2.13753 2.18359 2.10913 1.91392 2.2842 2.32304 2.07234 
2.07078 2.15981 2.17 2.07893 1.90639 2.03238 2.15951 2.1575 1.80986 
1.24 
TEXTURE_COORDINATES TCoords 2 float
0 0 0.015873 0 0.031746 0 0.047619 0 0.0634921 
0 0.0793651 0 0.0952381 0 0.111111 0 0.126984 0 
0.142857 0 0.15873 0 0.174603 0 0.190476 0 0.206349 
0 0.222222 0 0.238095 0 0.253968 0 0.269841 0 
0.285714 0 0.301587 0 0.31746 0 0.333333 0 0.349206 
0 0.365079 0 0.380952 0 0.396825 0 0.412698 0 
0.428571 0 0.444444 0 0.460317 0 0.47619 0 0.492063 
0 0.507937 0 0.52381 0 0.539683 0 0.555556 0 
0.571429 0 0.587302 0 0.603175 0 0.619048 0 0.634921 
0 0.650794 0 0.666667 0 0.68254 0 0.698413 0 
0.714286 0 0.730159 0 0.746032 0 0.761905 0 0.777778 
0 0.793651 0 0.809524 0 0.825397 0 0.84127 0 
0.857143 0 0.873016 0 0.888889 0 0.904762 0 0.920635 
0 0.936508 0 0.952381 0 0.968254 0 0.984127 0 
1 0 
FIELD FieldData 4
Curvature 1 64 float
0.163638 0.102268 0.0583704 0.0832449 0.172385 0.251953 0.19576 0.0892576 0.0532037 
0.101863 0.165544 0.197357 0.172308 0.130904 0.0982184 0.0927461 0.14268 0.267745 
0.495124 0.504995 0.30535 0.218472 0.187185 0.17964 0.193445 0.257671 0.386615 
0.452954 0.331035 0.175377 0.0694496 0.0810704 0.162397 0.199176 0.154508 0.107563 
0.10964 0.128293 0.13253 0.114562 0.0837082 0.0595574 0.0392399 0.0211263 0.0199172 
0.0231717 0.0289257 0.0727212 0.168723 0.332381 0.381438 0.220432 0.0997834 0.0347574 
0.0190624 0.0435526 0.0614705 0.0647661 0.0564736 0.0416943 0.0233687 0.0130781 0.0278332 
0.0504808 
Torsion 1 64 float
-0.0430388 -0.121755 -0.375742 -0.282041 -0.0917106 -0.0243001 -0.0053222 -0.162349 -0.111988 
0.132991 0.134113 0.160873 0.192186 0.243257 0.359598 0.417149 0.269905 0.125303 
0.0468716 -0.0206067 -0.0831759 -0.150995 -0.223631 -0.288082 -0.315739 -0.247106 -0.141799 
-0.0451262 -0.0122965 -0.0886378 -0.615353 -0.542346 -0.174571 -0.16184 -0.259875 -0.314636 
-0.109255 0.0573783 0.143227 0.235381 0.343081 0.290163 0.147334 -0.0684807 -0.106924 
-0.245256 -0.509853 -0.205194 -0.0876958 -0.066284 -0.0566875 -0.0532905 -0.0638305 -0.142391 
-0.100834 -0.0798903 -0.110691 -0.141317 -0.157906 -0.179318 -0.401826 -1.03787 -0.278684 
-0.0774171 
Abscissas 1 64 double
0 1.0443590391 2.027772897 3.0429221522 4.0578507946 5.0705089513 6.0819635715 7.0961209464 8.110657978 
9.1250453513 10.138835855 11.151661761 12.164594846 13.178223506 14.192290106 15.206527789 16.220653823 17.233759805 
18.24324211 19.238356431 20.246617242 21.258362321 22.271156634 23.284195926 24.297242126 25.309759331 26.319939261 
27.3239817 28.330629691 29.342682072 30.35675047 31.371307241 32.385420171 33.398188312 34.411218851 35.425256718 
36.439377922 37.453302241 38.467053303 39.48089535 40.495027633 41.509410549 42.523897522 43.538470565 44.553076757 
45.567672917 46.582258323 47.59678504 48.610987187 49.623855061 50.630297294 51.641243344 52.655060427 53.669521876 
54.684125403 55.698715435 56.713211938 57.727620291 58.742030699 59.756483815 60.771705813 61.786949529 62.76960314 
63.814887504 
ParallelTransportNormals 3 64 double
0.13820246415 0 0.99040399782 0.27801416075 0.050034331088 0.95927300188 0.33876366386 0.070444867866 0.93823062231 
0.34675444089 0.07348391691 0.93507297666 0.27646245861 0.036096978324 0.96034656095 0.14531156206 -0.077350792732 0.98635764548 
0.063359380366 -0.1910299534 0.97953721002 0.034247234112 -0.2455186598 0.96878672299 0.0039557907077 -0.30717593188 0.95164452323 
-0.055162406767 -0.42914723397 0.90154853472 -0.13069292105 -0.60200476602 0.78772433127 -0.17595873574 -0.75986609591 0.62581310277 
-0.17561360523 -0.85033647881 0.49607230769 -0.16296007449 -0.88288799477 0.44040072981 -0.1680132494 -0.87582889166 0.45243264754 
-0.20752293704 -0.82923520056 0.5189443253 -0.29563121598 -0.71331198125 0.63544331104 -0.44086589142 -0.41962407829 0.79344369599 
-0.50488344905 0.25266106147 0.82538178493 -0.25227043436 0.81801265881 0.51692834897 0.0086850361379 0.9766042473 0.21486906318 
0.20346242265 0.97866799123 -0.028495710326 0.33748122463 0.91155829161 -0.23487848775 0.40297727393 0.82596795954 -0.39419062205 
0.41203188022 0.77439357503 -0.48015031047 0.41796955921 0.78646967282 -0.45471628661 0.52251993442 0.80519817622 -0.28040830078 
0.73367691099 0.67344330169 -0.090511378788 0.87443063428 0.48340362719 -0.0411339161 0.93252630217 0.35721015415 -0.052873448331 
0.95684164968 0.28218440431 -0.069469557438 0.9663411294 0.24552033752 -0.076841300733 0.96193274193 0.26248209878 -0.076082506662 
0.93565865497 0.34061286895 -0.092335014449 0.88719132177 0.43981333727 -0.13948400243 0.81847091471 0.53684398347 -0.20470441909 
0.71986817888 0.63434809045 -0.2817664018 0.58352648098 0.72568110305 -0.36453227933 0.42648693599 0.79017998435 -0.44014143835 
0.29574047942 0.81667734071 -0.49555594033 0.22820738143 0.82003428359 -0.52484775392 0.21507035887 0.81941963099 -0.53131554568 
0.22268628613 0.82015684324 -0.52702331111 0.22710657674 0.82067708572 -0.52432024925 0.22105649096 0.81992427315 -0.52807027383 
0.21450206097 0.81913413737 -0.53198508515 0.22880358642 0.8204873873 -0.52387915221 0.29534638701 0.82188770204 -0.48710483155 
0.47199228214 0.79392228524 -0.38328930406 0.78918483825 0.59771519799 -0.14115180896 0.9696983752 0.20849240233 0.12734197775 
0.96519320207 -0.049838359547 0.25674543927 0.93700371365 -0.16580091685 0.30746397607 0.9228167253 -0.20704527313 0.32487158445 
0.92476075667 -0.20177368391 0.32265294576 0.93804751994 -0.1621240643 0.30623951101 0.9538582877 -0.10133816121 0.28263924722 
0.96411702333 -0.041482962291 0.26221656919 0.96803283817 -0.0011017255545 0.25082107252 0.96886303681 0.015246432847 0.24712742095 
0.96876823473 0.012366294241 0.24765940754 0.96817710111 -0.003367257311 0.25024340644 0.9660420085 -0.036480212345 0.25579685673 
0.9660420085 -0.036480212345 0.25579685673 
