# vtk DataFile Version 4.2
vtk output
ASCII
DATASET POLYDATA
POINTS 64 float
0 0 0 -0.498211 0.302426 0.851659 -0.996171 0.665953 1.63762 
-1.54914 1.05974 2.38886 -2.17613 1.43553 3.092 -2.8875 1.74714 3.74421 
-3.68127 1.95215 4.34082 -4.54167 2.01001 4.87364 -5.43285 1.88535 5.33989 
-6.29851 1.55925 5.75368 -7.0789 1.04585 6.14702 -7.74756 0.398196 6.54909 
-8.33401 -0.326496 6.94908 -8.89378 -1.1023 7.2859 -9.46022 -1.92622 7.44893 
-10.004 -2.77116 7.32958 -10.4656 -3.56615 6.90652 -10.7916 -4.2351 6.22124 
-10.911 -4.71137 5.3372 -10.7935 -5.00543 4.37515 -10.4913 -5.2208 3.43155 
-10.0684 -5.46925 2.54395 -9.57444 -5.84492 1.7428 -9.06394 -6.44922 1.11369 
-8.68244 -7.35235 0.922141 -8.70293 -8.20508 1.43383 -9.09372 -8.56974 2.28462 
-9.65645 -8.44947 3.11378 -10.2378 -7.99696 3.80857 -10.7515 -7.37745 4.42557 
-11.138 -6.72802 5.10085 -11.2735 -6.26615 5.98442 -11.0801 -6.25533 6.97277 
-10.7289 -6.60441 7.8555 -10.3504 -7.17215 8.60462 -10.0035 -7.90556 9.21167 
-9.72418 -8.78188 9.6356 -9.51849 -9.75698 9.81437 -9.33357 -10.7507 9.74243 
-9.08711 -11.7063 9.50932 -8.70609 -12.605 9.23575 -8.13705 -13.4207 9.04534 
-7.37956 -14.091 9.05149 -6.5134 -14.5513 9.29922 -5.63563 -14.7857 9.74638 
-4.8004 -14.8073 10.3195 -4.02428 -14.6291 10.9465 -3.29438 -14.2814 11.5585 
-2.57661 -13.8338 12.1185 -1.83593 -13.3718 12.6354 -1.05688 -12.9744 13.1491 
-0.258537 -12.725 13.7212 0.471338 -12.7462 14.4195 0.931698 -13.1539 15.2164 
1.02317 -13.8535 15.9395 0.86613 -14.6763 16.5093 0.588655 -15.5491 16.9446 
0.274284 -16.4522 17.2832 -0.0157089 -17.382 17.5671 -0.23189 -18.3344 17.8413 
-0.342827 -19.2955 18.1454 -0.346927 -20.2431 18.5015 -0.270464 -21.152 18.9085 
-0.139985 -22.0584 19.3847 
LINES 1 65
64 0 1 2 3 4 5 6 7 8 9 10 11 12 13 14 15 16 17 18 19 20 21 22 23 24 25 26 27 28 29 30 31 32 33 34 35 36 37 38 39 40 41 42 43 44 45 46 47 48 49 50 51 52 53 54 55 56 57 58 59 60 61 62 63 

POINT_DATA 64
SCALARS MaximumInscribedSphereRadius float
LOOKUP_TABLE default
1.24 0.984202 1.14366 1.06311 0.93 0.996723 1.22193 0.979276 1.13655 
1.08493 0.951231 0.977793 1.02202 1.47939 1.31398 1.24 1.24 1.24 
1.12732 1.0005 1.21761 1.34244 1.16922 1.04306 1.24 1.40403 1.4171 
1.29464 1.36229 1.25197 1.25464 1.47339 1.32811 1.66389 1.68845 1.25752 
1.21125 1.02089 1.12123 1.50512 1.91176 2.05491 1.78745 1.6048 1.55049 
1.66865 1.81878 1.70807 2.30663 2.35474 2.48785 2.89111 2.80478 2.49367 
2.1946 1.5235 1.25923 1.47766 2.05091 1.93945 1.86 1.86 1.78442 
1.55 
TEXTURE_COORDINATES TCoords 2 float
0 0 0.015873 0 0.031746 0 0.047619 0 0.0634921 
0 0.0793651 0 0.0952381 0 0.111111 0 0.126984 0 
0.142857 0 0.15873 0 0.174603 0 0.190476 0 0.206349 
0 0.222222 0 0.238095 0 0.253968 0 0.269841 0 
0.285714 0 0.301587 0 0.31746 0 0.333333 0 0.349206 
0 0.365079 0 0.380952 0 0.396825 0 0.412698 0 
0.428571 0 0.444444 0 0.460317 0 0.47619 0 0.492063 
0 0.507937 0 0.52381 0 0.539683 0 0.555556 0 
0.571429 0 0.587302 0 0.603175 0 0.619048 0 0.634921 
0 0.650794 0 0.666667 0 0.68254 0 0.698413 0 
0.714286 0 0.730159 0 0.746032 0 0.761905 0 0.777778 
0 0.793651 0 0.809524 0 0.825397 0 0.84127 0 
0.857143 0 0.873016 0 0.888889 0 0.904762 0 0.920635 
0 0.936508 0 0.952381 0 0.968254 0 0.984127 0 
1 0 
FIELD FieldData 4
Curvature 1 64 float
0.0656929 0.0478027 0.0441202 0.0549598 0.0697393 0.0852025 0.101575 0.115473 0.12351 
0.122502 0.103488 0.0658967 0.051996 0.108823 0.168458 0.188576 0.185531 0.204856 
0.18766 0.126838 0.0859358 0.100304 0.174405 0.33942 0.512222 0.420713 0.310816 
0.217884 0.117203 0.0968478 0.23935 0.360964 0.247865 0.155277 0.127402 0.142033 
0.163846 0.151005 0.105393 0.0914456 0.131372 0.184763 0.200092 0.177424 0.145903 
0.126297 0.104445 0.0689218 0.0353379 0.0461694 0.0969562 0.187372 0.292827 0.290884 
0.194473 0.114325 0.0636274 0.0425944 0.0527345 0.0673003 0.0714801 0.0643729 0.0553069 
0.0492391 
Torsion 1 64 float
-0.179689 -0.352344 -0.400205 -0.259697 -0.156769 -0.0967923 -0.0812225 -0.109582 -0.145727 
-0.168306 -0.115789 0.212729 0.593698 0.0679868 -0.0216457 -0.00945013 -0.0225874 -0.0824046 
-0.143106 -0.257737 -0.425477 -0.270837 -0.0867299 -0.0240181 -0.0178702 -0.0325422 0.000918818 
0.07655 0.353266 0.591868 0.168815 0.0751574 0.0861594 0.104036 0.0730151 0.00154988 
-0.100831 -0.210239 -0.401788 -0.487205 -0.236543 -0.0974156 -0.042912 0.00837866 0.0648101 
0.136162 0.202739 0.297704 0.800765 0.559992 0.204648 0.100255 0.0336388 -0.021848 
-0.0608636 -0.121948 -0.277825 -0.502937 -0.312483 -0.164066 -0.113785 -0.107651 -0.110125 
-0.0990557 
Abscissas 1 64 double
0 1.0319881016 2.0309114826 3.0434404649 4.0577060144 5.0718659514 6.0857898593 7.0994634009 8.1129379484 
9.1263174709 10.139873064 11.153892372 12.168330586 13.182558895 14.195614058 15.207494234 16.219416912 17.231068072 
18.242303595 19.255127767 20.269081181 21.283168568 22.296577791 23.307306756 24.306241965 25.30092519 26.305677258 
27.314958456 28.327586 29.341702385 30.355165779 31.361340676 32.368499198 33.380639672 34.393925686 35.407191041 
36.419955336 37.432425954 38.44575539 39.45975634 40.473527088 41.486142422 42.49764059 43.50931549 44.521931036 
45.535108431 46.548634896 47.562640108 48.577081547 49.591619322 50.605896977 51.619223659 52.629527097 53.636089858 
54.646391131 55.659454092 56.673544065 57.687974834 58.702471952 59.716845053 60.731006784 61.743356017 62.742158825 
63.774281594 
ParallelTransportNormals 3 64 double
0 -0.94234959068 0.33463001799 -0.039145075932 -0.91614139867 0.39893934461 -0.059504295277 -0.90146898752 0.42873407071 
-0.059503074546 -0.90146978375 0.42873256596 -0.032709194384 -0.91523136784 0.40159886942 0.024631060258 -0.93491191759 0.35402403481 
0.11652980807 -0.94951448697 0.2912782911 0.24590521592 -0.94457962713 0.21748552321 0.40598850375 -0.903506072 0.13729571251 
0.56875891704 -0.82049321417 0.057481995346 0.69245610626 -0.72138481162 -0.010416068071 0.76130517527 -0.64610657549 -0.054412528091 
0.79298429183 -0.60463577438 -0.074776288043 0.81332565557 -0.5757416978 -0.083802597844 0.84326764043 -0.53073417395 -0.084976015443 
0.87784509399 -0.47433062718 -0.066320789102 0.90803591437 -0.41821375421 -0.023833463932 0.93313023142 -0.35368893231 0.064591875471 
0.93328612004 -0.29540569099 0.20423637255 0.90174095643 -0.25710189509 0.34750807623 0.85331272197 -0.22612371613 0.46981428622 
0.79485469462 -0.18632837634 0.577483983 0.71715613943 -0.11050443553 0.68809580831 0.60137744723 0.085549044593 0.79437178131 
0.53145250824 0.42643336231 0.73192405275 0.59173486173 0.60604484343 0.53156326168 0.68236662325 0.62938744632 0.37181612915 
0.76687061231 0.58711924728 0.25923050254 0.83662754095 0.51884041702 0.17566724052 0.89485448045 0.43675809463 0.092075108435 
0.93783219577 0.34515886718 -0.036553098192 0.93322488162 0.30740427633 -0.18599443868 0.91760422663 0.31708724668 -0.23970432047 
0.92204947363 0.31150267868 -0.22976259348 0.93925125937 0.28064450168 -0.19759993786 0.96008984838 0.2270750257 -0.163292424 
0.97289401052 0.17820057058 -0.14738317728 0.97029731508 0.19128843374 -0.14809407641 0.95108259713 0.27811750687 -0.1345085343 
0.90527683008 0.4134773087 -0.097521157237 0.81321109228 0.57958974813 -0.052568462559 0.66249954618 0.74839343027 -0.031648457002 
0.48175330166 0.87425671616 -0.059907850803 0.31544101091 0.94052033097 -0.12616844167 0.1706167327 0.96216753951 -0.21242306003 
0.035179915311 0.94900465992 -0.31329304015 -0.085806122102 0.90675814062 -0.41282803178 -0.16557659581 0.86293947558 -0.47740952274 
-0.18631133348 0.85000863456 -0.49272041584 -0.14162316599 0.87528035615 -0.46241450776 -0.018558983546 0.92574068165 -0.37770326245 
0.20860361575 0.95959683038 -0.18883446352 0.48554747301 0.85958442746 0.15924278168 0.61240810405 0.60548071987 0.50828083965 
0.60246566077 0.37346050801 0.70538101516 0.56281443293 0.21870948641 0.7971236257 0.53264891099 0.12819166955 0.83657159495 
0.52202545703 0.095973076738 0.84751318029 0.52896031412 0.12175995493 0.83986635809 0.54167079105 0.19611283549 0.81739373003 
0.54746236522 0.29228909103 0.78412501933 0.5439931901 0.38062002728 0.74779663275 0.53591444922 0.4517935793 0.71321684277 
0.53591444922 0.4517935793 0.71321684277 
