# vtk DataFile Version 4.2
vtk output
ASCII
DATASET POLYDATA
POINTS 64 float
0 0 0 -0.933763 0.141362 0.449345 -1.83758 0.278131 0.806755 
-2.78773 0.38391 1.14991 -3.74462 0.417134 1.48708 -4.69423 0.341436 1.83506 
-5.61555 0.127334 2.20072 -6.48751 -0.231546 2.574 -7.30611 -0.713828 2.92908 
-8.08845 -1.2862 3.22781 -8.8575 -1.91972 3.41669 -9.61526 -2.59265 3.42006 
-10.3067 -3.27663 3.14034 -10.7841 -3.92245 2.5274 -10.9008 -4.48892 1.69831 
-10.6853 -4.98188 0.839946 -10.275 -5.44536 0.0365526 -9.77762 -5.92912 -0.703482 
-9.26571 -6.48406 -1.38082 -8.82119 -7.18066 -1.9667 -8.73738 -8.14726 -2.20695 
-9.3253 -8.66482 -1.60322 -9.91261 -8.61554 -0.783379 -10.3743 -8.35519 0.0808876 
-10.686 -7.99541 0.976187 -10.8251 -7.61596 1.90599 -10.7611 -7.30645 2.86873 
-10.4707 -7.19681 3.83169 -9.9946 -7.44576 4.68634 -9.49409 -8.0761 5.29789 
-9.10037 -8.92793 5.67974 -8.82628 -9.87353 5.9229 -8.64032 -10.856 6.09374 
-8.49977 -11.8513 6.23213 -8.35476 -12.8468 6.36356 -8.14786 -13.8296 6.50633 
-7.81708 -14.7729 6.6765 -7.31192 -15.6251 6.89012 -6.62061 -16.3142 7.16111 
-5.78419 -16.7775 7.49538 -4.87529 -16.9939 7.88757 -3.96188 -16.983 8.32687 
-3.0887 -16.7862 8.80323 -2.27524 -16.4524 9.30875 -1.51775 -16.031 9.83582 
-0.793548 -15.568 10.3749 -0.0701251 -15.1062 10.9159 0.682315 -14.6888 11.4533 
1.47875 -14.3648 11.9913 2.30897 -14.1956 12.548 3.11758 -14.2659 13.1536 
3.75985 -14.6614 13.8258 4.07153 -15.3452 14.5016 4.07173 -16.1627 15.0998 
3.88583 -17.0222 15.6049 3.6164 -17.9042 16.0274 3.33681 -18.8149 16.3763 
3.10409 -19.7615 16.6567 2.9571 -20.7407 16.8767 2.90325 -21.7375 17.0572 
2.91312 -22.7369 17.235 2.93395 -23.7279 17.4564 2.91233 -24.6648 17.7499 
2.77853 -25.6022 18.1924 
LINES 1 65
64 0 1 2 3 4 5 6 7 8 9 10 11 12 13 14 15 16 17 18 19 20 21 22 23 24 25 26 27 28 29 30 31 32 33 34 35 36 37 38 39 40 41 42 43 44 45 46 47 48 49 50 51 52 53 54 55 56 57 58 59 60 61 62 63 

POINT_DATA 64
SCALARS MaximumInscribedSphereRadius float
LOOKUP_TABLE default
0.62 1.01351 1.27195 1.33664 1.15405 0.93 0.93 1.06286 1.21444 
1.24 1.24 1.22518 1.02219 0.93 0.93 0.93 0.93 0.93 
0.93 1.07432 1.2339 1.24 1.37179 1.58077 1.70007 1.68591 1.52972 
1.32345 1.7746 1.94693 1.64357 1.74648 1.86 1.86 1.74043 1.58337 
1.54956 1.46928 1.26373 1.24 1.17036 1.07348 1.45865 1.82919 1.6166 
1.55 1.59258 1.76346 1.86 1.84268 1.66214 1.73537 1.85874 1.38271 
1.5281 1.77663 1.65927 1.62851 1.8213 1.54531 1.27116 1.24573 1.36386 
1.55 
TEXTURE_COORDINATES TCoords 2 float
0 0 0.015873 0 0.031746 0 0.047619 0 0.0634921 
0 0.0793651 0 0.0952381 0 0.111111 0 0.126984 0 
0.142857 0 0.15873 0 0.174603 0 0.190476 0 0.206349 
0 0.222222 0 0.238095 0 0.253968 0 0.269841 0 
0.285714 0 0.301587 0 0.31746 0 0.333333 0 0.349206 
0 0.365079 0 0.380952 0 0.396825 0 0.412698 0 
0.428571 0 0.444444 0 0.460317 0 0.47619 0 0.492063 
0 0.507937 0 0.52381 0 0.539683 0 0.555556 0 
0.571429 0 0.587302 0 0.603175 0 0.619048 0 0.634921 
0 0.650794 0 0.666667 0 0.68254 0 0.698413 0 
0.714286 0 0.730159 0 0.746032 0 0.761905 0 0.777778 
0 0.793651 0 0.809524 0 0.825397 0 0.84127 0 
0.857143 0 0.873016 0 0.888889 0 0.904762 0 0.920635 
0 0.936508 0 0.952381 0 0.968254 0 0.984127 0 
1 0 
FIELD FieldData 4
Curvature 1 64 float
0.0816711 0.0480826 0.0343353 0.0505096 0.0756584 0.097879 0.105328 0.0944546 0.0778399 
0.0865959 0.136676 0.207902 0.27892 0.301043 0.251221 0.158615 0.0818011 0.0752233 
0.161019 0.451742 1.06406 0.459467 0.195449 0.128124 0.12273 0.154465 0.215859 
0.29521 0.319208 0.243328 0.153042 0.0882951 0.0406242 0.0156984 0.0478958 0.0946416 
0.140787 0.174885 0.190102 0.180988 0.159065 0.132592 0.103962 0.0725527 0.037433 
0.00644938 0.0366888 0.0706118 0.11156 0.173288 0.260779 0.307383 0.249126 0.156422 
0.0854941 0.0567699 0.065164 0.0782872 0.0722749 0.0455821 0.0352822 0.0720703 0.116462 
0.146056 
Torsion 1 64 float
0.140798 0.389108 0.62481 0.265276 0.0905974 0.0159008 -0.0501088 -0.156935 -0.3431 
-0.290851 -0.0746565 0.0303245 0.133336 0.17188 0.139509 0.162062 0.389214 0.460939 
0.111551 0.0230195 -0.0653252 -0.11884 -0.175263 -0.261562 -0.27764 -0.22542 -0.188209 
-0.171991 -0.154266 -0.128506 -0.102122 -0.0710956 0.0633305 0.572082 0.0526056 0.0201655 
0.0325255 0.0502317 0.0593111 0.0594484 0.0603793 0.0640648 0.0654821 0.0574575 0.0496257 
0.932582 -0.0486884 -0.128976 -0.15146 -0.155957 -0.125446 -0.0568321 0.00961976 0.0878156 
0.265078 0.49809 0.3064 0.15942 0.159113 0.516253 0.846967 0.21205 0.0713789 
0.0295286 
Abscissas 1 64 double
0 1.045852156 2.027350477 3.0430903612 4.058190658 5.0723784764 6.0864655688 7.1005926378 8.1148755379 
9.1292243462 10.143364441 11.156792463 12.168767381 13.17907882 14.189968483 15.203009362 16.217209446 17.231628696 
18.245931751 19.258895826 20.258424771 21.247369266 22.257071427 23.270924979 24.284909885 25.298740667 26.312033413 
27.323762205 28.333273359 29.344133299 30.357264397 31.37137035 32.385822963 33.400412425 34.415001709 35.429416747 
36.443402426 37.456858299 38.469848418 39.482787857 40.496061779 41.509683595 42.523637229 43.53788862 44.552348436 
45.566944842 46.581539541 47.596009753 48.610276674 49.624065847 50.636761535 51.647091096 52.657752692 53.670728985 
54.684848322 55.699277675 56.713744394 57.728121679 58.742438395 59.75681256 60.772012227 61.787631311 62.769718415 
63.814866396 
ParallelTransportNormals 3 64 double
0.43362390334 0 0.90109395207 0.36899717688 0.0097816495489 0.9293790415 0.34097513771 0.013457264974 0.93997598772 
0.3327366832 0.014057660927 0.94291499183 0.34303071726 0.014287260553 0.93921552436 0.36527908284 0.017733550631 0.93072912967 
0.38504545935 0.0240491835 0.9225842135 0.38570414795 0.024376919235 0.92230042614 0.35434269714 0.0037169533005 0.93510824894 
0.27996812598 -0.05409454011 0.95848402656 0.15065016727 -0.1647506462 0.97476240781 -0.040028014665 -0.34329868303 0.9383729388 
-0.2389714072 -0.56966538122 0.78636761122 -0.33073990299 -0.75687793895 0.56369043109 -0.3217425303 -0.8536961037 0.40949323159 
-0.30165889607 -0.88439619122 0.35615346044 -0.30795412392 -0.87782645246 0.36685825181 -0.34777910853 -0.83684035512 0.42278589347 
-0.43259197761 -0.72584354646 0.534804008 -0.58509422122 -0.24303669325 0.77369109988 -0.21567707307 0.83517187579 0.50593610075 
0.15804672484 0.98595640692 0.053955504034 0.27768194808 0.95070166183 -0.13805464826 0.32769187916 0.91060408627 -0.25182976471 
0.34223303029 0.88675679971 -0.3107071469 0.34213084334 0.8876956319 -0.30812814078 0.35983703972 0.90862319999 -0.21194618486 
0.45247870182 0.89174219065 0.0076739705022 0.61910918507 0.74176167865 0.25786319834 0.74902084712 0.52649967507 0.40220127142 
0.81295011514 0.35445229862 0.4620342826 0.83945544346 0.24337018177 0.48588631703 0.84850125631 0.18857756198 0.49445335591 
0.84846078274 0.18885972553 0.49441511326 0.83810030315 0.24710026145 0.48634282421 0.80478088192 0.36644811577 0.46695129354 
0.72506287579 0.53766257219 0.43035193111 0.57856416865 0.72636847521 0.37101528402 0.37273616659 0.88163166464 0.28947082412 
0.1465691755 0.96972296962 0.19533263676 -0.060351606237 0.99306246397 0.10091890945 -0.22773762207 0.97360496187 0.015131216374 
-0.34927858586 0.93536652138 -0.055623197863 -0.42599322761 0.89848968936 -0.1060473863 -0.46222994293 0.87686229713 -0.13212112522 
-0.46160426935 0.87726201747 -0.13165428677 -0.42437376251 0.89944267262 -0.10444993235 -0.3468043332 0.93657192617 -0.050594284053 
-0.22128168421 0.97462126809 0.033879197529 -0.037387831988 0.98570073225 0.16430525389 0.18544888573 0.91409833001 0.36060082342 
0.34403473987 0.73470074769 0.58468359743 0.38339743646 0.54546212926 0.74530361012 0.36845638359 0.41045990562 0.8341238273 
0.34426970074 0.3179481367 0.88339535629 0.32354842885 0.25028882676 0.91250858483 0.30949276956 0.19933170646 0.92977475573 
0.30281507115 0.16546278452 0.9385761022 0.30165177704 0.15401801126 0.94089566776 0.30200180442 0.16989660697 0.93804586939 
0.30132284338 0.2139264069 0.92921474186 0.30137345485 0.27872051097 0.9118601414 0.30874005225 0.36959956681 0.87639930417 
0.30874005225 0.36959956681 0.87639930417 
