# vtk DataFile Version 4.2
vtk output
ASCII
DATASET POLYDATA
POINTS 64 float
0 0 0 -0.244546 0.933922 -0.323469 -0.779351 1.78183 -0.308354 
-1.51851 2.41237 -0.031874 -2.36756 2.75443 0.39812 -3.24524 2.75644 0.899361 
-4.04166 2.4005 1.41015 -4.67378 1.77581 1.89531 -5.15408 0.999018 2.33521 
-5.54849 0.109225 2.61236 -5.86084 -0.809903 2.36933 -5.991 -1.58404 1.72964 
-5.9428 -2.32559 1.04014 -5.72412 -3.08409 0.404216 -5.35546 -3.8336 -0.170728 
-4.87345 -4.52774 -0.73147 -4.31762 -5.14389 -1.31482 -3.71485 -5.71271 -1.89998 
-3.07681 -6.30854 -2.41596 -2.43789 -7.03536 -2.70678 -2.05437 -7.88669 -2.39043 
-2.25959 -8.38694 -1.54894 -2.80778 -8.45311 -0.704608 -3.48636 -8.16291 -0.0148907 
-4.1108 -7.54182 0.479924 -4.51166 -6.67968 0.824536 -4.64475 -5.72167 1.1253 
-4.56837 -4.78915 1.51288 -4.32625 -4.09162 2.19279 -4.02239 -4.2708 3.10795 
-3.78163 -5.04935 3.70431 -3.55176 -5.99295 3.98806 -3.33363 -6.97972 3.95028 
-3.20047 -7.92275 3.60756 -3.23735 -8.80719 3.1142 -3.46581 -9.70781 2.71269 
-3.77259 -10.6675 2.6691 -3.91313 -11.585 3.06186 -3.73928 -12.3316 3.71908 
-3.28868 -12.8651 4.45132 -2.66224 -13.2099 5.16935 -1.94863 -13.4092 5.86175 
-1.20376 -13.5007 6.54417 -0.448188 -13.5045 7.22099 0.330419 -13.4228 7.86586 
1.15313 -13.2699 8.43897 2.02001 -13.106 8.93982 2.90476 -13.0193 9.42793 
3.75701 -13.0805 9.97288 4.50504 -13.3269 10.6095 5.0756 -13.7611 11.3242 
5.43334 -14.3562 12.0615 5.58757 -15.0765 12.757 5.56175 -15.8863 13.3656 
5.38482 -16.7464 13.8722 5.10446 -17.6285 14.287 4.77643 -18.5276 14.6234 
4.43647 -19.4515 14.8669 4.0967 -20.4019 14.9597 3.76355 -21.3503 14.8345 
3.44086 -22.2506 14.499 3.13261 -23.0982 14.0374 2.85648 -23.9268 13.5373 
2.64233 -24.8121 13.0702 
LINES 1 65
64 0 1 2 3 4 5 6 7 8 9 10 11 12 13 14 15 16 17 18 19 20 21 22 23 24 25 26 27 28 29 30 31 32 33 34 35 36 37 38 39 40 41 42 43 44 45 46 47 48 49 50 51 52 53 54 55 56 57 58 59 60 61 62 63 

POINT_DATA 64
SCALARS MaximumInscribedSphereRadius float
LOOKUP_TABLE default
0.93 0.695165 0.977401 1.36422 1.40889 0.906865 0.646731 0.859151 1.12737 
1.15872 0.993839 1.42778 1.25688 1.17895 1.13819 0.956 1.10272 1.25398 
1.42813 1.55 1.85069 2.00805 1.86025 1.86625 1.87945 1.85332 1.67787 
1.55092 1.55 1.60509 1.4084 1.01439 1.50493 1.31971 1.59572 1.86 
1.53797 1.08729 1.57391 1.77555 1.42812 1.77865 2.05541 1.86898 1.86 
1.88222 2.0836 2.17 2.08655 1.91175 1.77931 1.80569 1.84082 1.67138 
1.82541 2.17 2.12655 1.91062 2.11263 2.17 2.50278 2.35315 1.49967 
1.24 
TEXTURE_COORDINATES TCoords 2 float
0 0 0.015873 0 0.031746 0 0.047619 0 0.0634921 
0 0.0793651 0 0.0952381 0 0.111111 0 0.126984 0 
0.142857 0 0.15873 0 0.174603 0 0.190476 0 0.206349 
0 0.222222 0 0.238095 0 0.253968 0 0.269841 0 
0.285714 0 0.301587 0 0.31746 0 0.333333 0 0.349206 
0 0.365079 0 0.380952 0 0.396825 0 0.412698 0 
0.428571 0 0.444444 0 0.460317 0 0.47619 0 0.492063 
0 0.507937 0 0.52381 0 0.539683 0 0.555556 0 
0.571429 0 0.587302 0 0.603175 0 0.619048 0 0.634921 
0 0.650794 0 0.666667 0 0.68254 0 0.698413 0 
0.714286 0 0.730159 0 0.746032 0 0.761905 0 0.777778 
0 0.793651 0 0.809524 0 0.825397 0 0.84127 0 
0.857143 0 0.873016 0 0.888889 0 0.904762 0 0.920635 
0 0.936508 0 0.952381 0 0.968254 0 0.984127 0 
1 0 
FIELD FieldData 4
Curvature 1 64 float
0.235627 0.254093 0.219996 0.187283 0.189977 0.204531 0.174551 0.118996 0.1406 
0.325365 0.281776 0.123823 0.102178 0.0893777 0.0702752 0.0634284 0.0412876 0.0464157 
0.152152 0.396924 0.530126 0.303321 0.223151 0.214843 0.202624 0.162828 0.123948 
0.236847 0.587217 0.402256 0.195848 0.176356 0.18175 0.133063 0.127571 0.212609 
0.265965 0.249291 0.197353 0.141316 0.0927522 0.0608703 0.0491825 0.0534102 0.062255 
0.0511786 0.0473486 0.089431 0.127119 0.148347 0.146314 0.131899 0.119259 0.103751 
0.0763037 0.0500312 0.0525227 0.0842152 0.122016 0.121749 0.0778626 0.0318168 0.0501525 
0.122248 
Torsion 1 64 float
0.0271511 0.0529171 0.0771707 0.0784866 0.0372594 -0.0311042 -0.0513207 0.0836395 0.290179 
0.0642069 -0.205906 -0.351372 -0.0873564 0.148775 0.331201 0.131886 -0.356896 -0.551407 
-0.0918914 -0.0377677 -0.0374628 -0.00968505 0.0870344 0.190669 0.219335 0.260348 0.416112 
0.192649 0.00134686 -0.0859358 -0.0854871 0.0275703 0.165343 0.437884 0.630247 0.319013 
0.242257 0.146092 0.0696083 -0.00761271 -0.0954787 -0.142356 0.0338272 0.23458 0.233313 
0.496325 0.693103 0.179766 0.0687937 0.012407 -0.0437835 -0.0711086 -0.0342139 -0.00503156 
-0.07081 -0.238058 -0.133541 0.0102878 0.0261082 0.0346992 -0.0602469 -0.732002 -0.328246 
-0.0658268 
Abscissas 1 64 double
0 1.0181579972 2.020754041 3.0308907217 4.0422189234 5.0529396405 6.0638221711 7.0763456236 8.0900542792 
9.1020340888 10.102743917 11.115382334 12.129104721 13.142781394 14.156799109 15.170994236 16.185338341 17.199876648 
18.213951303 19.224427376 20.210298177 21.210530581 22.219383034 23.229525482 24.2397375 25.251040885 26.263928768 
27.276670528 28.280391306 29.261188886 30.271008071 31.28280892 32.294109918 33.306281809 34.319695483 35.331881182 
36.340338496 37.348187228 38.357941698 39.36980811 40.383148602 41.39723421 42.411586259 43.425978727 44.440263191 
45.454509328 46.468985876 47.483168319 48.496605666 49.509296695 50.521693672 51.534407768 52.547493818 53.560865233 
54.574658706 55.588910033 56.603319225 57.617532347 58.631097837 59.644077842 60.657584033 61.670702126 62.67719242 
63.700769094 
ParallelTransportNormals 3 64 double
-0.96738550967 -0.25330865695 0 -0.84444639588 -0.53347674038 0.048092119504 -0.64826861058 -0.76140451153 0.0033133601688 
-0.41512061841 -0.90421087136 -0.10038711212 -0.143265088 -0.95836546711 -0.24700353439 0.13548826046 -0.89943870474 -0.41551527973 
0.33179400938 -0.7647251101 -0.55236603926 0.43684872203 -0.6323912694 -0.63972218693 0.52881600597 -0.45714283554 -0.71510422999 
0.69026808436 -0.043604482956 -0.72223861762 0.78344946312 0.31226811234 -0.53730397798 0.790567599 0.44375991022 -0.42199527661 
0.77687177034 0.52074042116 -0.35397692894 0.74823266899 0.59427599926 -0.2949303473 0.70110014153 0.67426411245 -0.23200538402 
0.64566159351 0.74425619832 -0.17089124592 0.60856924015 0.78219315183 -0.13348165856 0.61393688538 0.77715495108 -0.13824501001 
0.69796834869 0.69010156228 -0.19131131164 0.91997856708 0.34603360747 -0.18412001146 0.97854519515 -0.088382642885 0.18611235718 
0.82863728573 -0.20167581451 0.52219451792 0.66512954174 -0.17184507171 0.72668560192 0.55742057658 -0.096517144531 0.82460095902 
0.54576582496 -0.079660597278 0.83414258586 0.57286973718 -0.17201400566 0.80139344025 0.57829821285 -0.35305303124 0.73547585559 
0.51350471157 -0.68368122208 0.51854883836 0.24568535179 -0.93265353901 -0.26418948519 0.052692317147 -0.59693206965 -0.80055956926 
-0.029959377191 -0.29452553861 -0.95517388094 -0.10192012214 0.015549134246 -0.99467105775 -0.15692443256 0.31768791741 -0.93511983702 
-0.16578512126 0.4856799152 -0.85827170147 -0.17297679623 0.43731986681 -0.88251366112 -0.26220585439 0.12726004431 -0.95658401149 
-0.36821758052 -0.31765500799 -0.87379122752 -0.36138638751 -0.66207462669 -0.65654936419 -0.26993259333 -0.8496758223 -0.45297614954 
-0.16249937228 -0.93730881136 -0.30829555001 -0.068876204723 -0.9753256388 -0.20975215545 0.0058911080409 -0.99023647366 -0.13927318864 
0.068751374179 -0.99423099743 -0.082328441668 0.12915375706 -0.9911617899 -0.03029213232 0.17807458537 -0.9839926788 0.0069173781809 
0.18086492331 -0.9834695448 0.0086910280231 0.1135396855 -0.99310072466 -0.029320479248 -0.0069022958671 -0.99486717651 -0.10095374887 
-0.14572289393 -0.9681784904 -0.20345822398 -0.27136700713 -0.90331853537 -0.3322281913 -0.36144764114 -0.80343897848 -0.47311881233 
-0.41052388924 -0.67736401737 -0.61044911691 -0.42239734398 -0.53591924189 -0.73100687409 -0.40594048723 -0.40035042428 -0.82154236568 
-0.37775594489 -0.29296636973 -0.87833430555 -0.35054833257 -0.21331296933 -0.91192842024 -0.31988307788 -0.12962340493 -0.93854812843 
-0.27174922146 0.003107305792 -0.96236308392 -0.20272429255 0.19787539977 -0.95903502927 -0.13521823495 0.38816315473 -0.911616912 
-0.094013558963 0.50230886918 -0.85956224363 -0.08260527547 0.53503609504 -0.84078103301 -0.097578385422 0.48276372102 -0.87029744821 
-0.097578385422 0.48276372102 -0.87029744821 
