# vtk DataFile Version 4.2
vtk output
ASCII
DATASET POLYDATA
POINTS 64 float
0 0 0 -0.675289 0.635518 0.437055 -1.42838 1.22607 0.741935 
-2.27896 1.71814 0.985449 -3.21663 2.02813 1.21038 -4.19326 2.06719 1.47184 
-5.10181 1.794 1.82217 -5.85995 1.28281 2.258 -6.48954 0.640295 2.72626 
-7.07465 -0.0842738 3.12684 -7.68187 -0.883084 3.22258 -8.17906 -1.62381 2.7601 
-8.43524 -2.23827 1.997 -8.49566 -2.83252 1.17789 -8.39617 -3.47375 0.399091 
-8.14784 -4.17586 -0.288469 -7.74729 -4.8933 -0.882264 -7.20326 -5.53248 -1.45066 
-6.56938 -6.03261 -2.06393 -5.90011 -6.43001 -2.71448 -5.1964 -6.79831 -3.34503 
-4.39088 -7.23853 -3.76909 -4.07448 -7.55371 -3.00147 -4.38585 -7.50786 -2.04508 
-4.88967 -7.30834 -1.18917 -5.51525 -6.93951 -0.483594 -6.15811 -6.36523 0.0477719 
-6.64922 -5.61923 0.524678 -6.81678 -4.89039 1.19843 -6.58899 -4.5568 2.11436 
-6.11856 -4.84572 2.94893 -5.65114 -5.64072 3.34151 -5.35128 -6.60375 3.27779 
-5.2057 -7.57147 3.01236 -5.16165 -8.55217 2.75783 -5.17015 -9.56245 2.68901 
-5.16834 -10.5543 2.89258 -5.08308 -11.4679 3.32155 -4.82092 -12.2498 3.90782 
-4.2818 -12.7848 4.57219 -3.50546 -13.0021 5.18281 -2.62805 -13.0107 5.69062 
-1.72037 -12.9328 6.13702 -0.81018 -12.8236 6.5718 0.0857297 -12.6876 7.02799 
0.959823 -12.5101 7.51144 1.82 -12.309 8.01052 2.68111 -12.1537 8.52365 
3.53392 -12.1485 9.07091 4.30054 -12.4046 9.67847 4.83689 -12.9583 10.3311 
5.07206 -13.7158 10.9592 5.06277 -14.5668 11.5088 4.89677 -15.4588 11.9615 
4.6459 -16.3763 12.3134 4.36504 -17.3167 12.5697 4.09274 -18.276 12.7567 
3.84863 -19.2475 12.9176 3.63627 -20.2263 13.0795 3.44053 -21.2099 13.233 
3.22487 -22.1957 13.3359 2.93492 -23.1655 13.3195 2.52229 -24.0559 13.1111 
1.96843 -24.7988 12.6763 
LINES 1 65
64 0 1 2 3 4 5 6 7 8 9 10 11 12 13 14 15 16 17 18 19 20 21 22 23 24 25 26 27 28 29 30 31 32 33 34 35 36 37 38 39 40 41 42 43 44 45 46 47 48 49 50 51 52 53 54 55 56 57 58 59 60 61 62 63 

POINT_DATA 64
SCALARS MaximumInscribedSphereRadius float
LOOKUP_TABLE default
1.3144 1.25618 1.2595 1.19975 1.02177 1.64138 1.33029 0.9796 1.0135 
1.32681 1.07115 0.903652 1.23822 1.46236 1.25384 1.24 1.43753 1.4532 
1.2975 1.5862 1.37831 1.44936 1.37894 1.25845 1.39064 1.62094 1.77887 
1.36675 1.45597 1.55 1.37459 1.38276 1.46745 1.25864 1.15244 1.37145 
1.64115 1.57187 1.79225 1.66687 1.55 1.48963 1.31751 1.46828 1.60482 
1.71261 1.83703 1.71805 1.60787 1.77231 2.12864 1.63056 1.55 1.45093 
1.35775 1.55814 1.55964 1.83172 2.17 2.16698 1.72167 1.39415 1.41361 
1.86 
TEXTURE_COORDINATES TCoords 2 float
0 0 0.015873 0 0.031746 0 0.047619 0 0.0634921 
0 0.0793651 0 0.0952381 0 0.111111 0 0.126984 0 
0.142857 0 0.15873 0 0.174603 0 0.190476 0 0.206349 
0 0.222222 0 0.238095 0 0.253968 0 0.269841 0 
0.285714 0 0.301587 0 0.31746 0 0.333333 0 0.349206 
0 0.365079 0 0.380952 0 0.396825 0 0.412698 0 
0.428571 0 0.444444 0 0.460317 0 0.47619 0 0.492063 
0 0.507937 0 0.52381 0 0.539683 0 0.555556 0 
0.571429 0 0.587302 0 0.603175 0 0.619048 0 0.634921 
0 0.650794 0 0.666667 0 0.68254 0 0.698413 0 
0.714286 0 0.730159 0 0.746032 0 0.761905 0 0.777778 
0 0.793651 0 0.809524 0 0.825397 0 0.84127 0 
0.857143 0 0.873016 0 0.888889 0 0.904762 0 0.920635 
0 0.936508 0 0.952381 0 0.968254 0 0.984127 0 
1 0 
FIELD FieldData 4
Curvature 1 64 float
0.149556 0.090867 0.0857616 0.113804 0.155643 0.189343 0.167097 0.104445 0.0737914 
0.193212 0.350718 0.245545 0.123829 0.0949748 0.105556 0.10435 0.096177 0.107823 
0.0796499 0.0354412 0.183761 0.971566 0.410569 0.15216 0.143211 0.156675 0.143348 
0.220947 0.35576 0.381952 0.387239 0.302153 0.145627 0.0634676 0.114294 0.156504 
0.139767 0.150021 0.217917 0.2304 0.145993 0.0606917 0.0202454 0.0249011 0.03159 
0.0224678 0.0270215 0.0858733 0.159471 0.216355 0.20721 0.153616 0.104766 0.0743 
0.0587956 0.0417333 0.0233985 0.0201184 0.0126501 0.0299428 0.0796781 0.13757 0.175688 
0.170954 
Torsion 1 64 float
0.171158 0.28492 0.266832 0.180226 0.14491 0.116192 0.0467325 -0.118012 -0.609108 
-0.0680062 0.0734498 0.190487 0.310976 0.238043 0.0280521 -0.230985 -0.44322 -0.212575 
0.0188523 0.601662 0.0577538 0.00799666 -0.00510767 -0.0495119 -0.130966 -0.264849 -0.607407 
-0.416037 -0.151899 -0.0525599 -0.0185356 -0.0513622 -0.18926 -0.872054 -0.277598 -0.142121 
-0.207613 -0.20136 -0.0944463 -0.0612019 -0.0550647 -0.0158878 0.498453 0.0706024 -0.124406 
0.153113 0.275806 -0.0636585 -0.0857935 -0.0632095 -0.00622646 0.0455685 0.114568 0.183259 
0.223509 0.252053 0.508231 0.156163 -0.740948 -0.305158 -0.0598334 -0.0240813 -0.0119566 
-0.00592477 
Abscissas 1 64 double
0 1.0251423558 2.0295575815 3.0419352809 4.0548166162 5.0665898532 6.0779382001 7.0908754806 8.1050133883 
9.1188277435 10.126784766 11.131658267 12.144332062 13.158095951 14.171806187 15.1853967 16.199173982 17.212879054 
18.226797772 19.241228719 20.255349385 21.266529788 22.154613135 23.161462433 24.174480225 25.187016225 26.199643212 
27.212144168 28.218734899 29.219784257 30.220427882 31.222743084 32.233386959 33.247352118 34.261500451 35.274152664 
36.286662253 37.299589095 38.311378875 39.320507628 40.331818532 41.345624759 42.360129747 43.374720958 44.389252636 
45.403780122 46.418380958 47.432745864 48.446057374 49.457213602 50.467309932 51.478936658 52.49210736 53.50603431 
54.520257902 55.534630459 56.549151688 57.563723458 58.57830557 59.59289139 60.607179016 61.619569138 62.622842075 
63.646367583 
ParallelTransportNormals 3 64 double
0.5433418671 0 0.83951153384 0.43523901304 0.092705030684 0.89552932884 0.35112647917 0.14952270448 0.92431226135 
0.28509522208 0.1791409256 0.94160992089 0.26106382356 0.1835209055 0.94771607419 0.30337176881 0.18877700422 0.93398544558 
0.37027195947 0.22025182086 0.90243438068 0.40291374447 0.2473855265 0.88117019684 0.36615472394 0.20601410499 0.90746289548 
0.18625316759 -0.023857111577 0.98221209308 -0.12802866122 -0.4620042887 0.87758800079 -0.26384192441 -0.70609379187 0.65712936017 
-0.27984090951 -0.767154029 0.57720339669 -0.28011963413 -0.75834173969 0.58860071051 -0.29005067591 -0.7199871582 0.63046736429 
-0.29832238799 -0.70189077789 0.64680220217 -0.26070890684 -0.75591143814 0.60052374106 -0.1709796412 -0.84270239057 0.51050822053 
-0.10004000418 -0.89156322075 0.44170920409 -0.086310892633 -0.89921975189 0.4288989014 -0.19430445539 -0.84136468465 0.50433247569 
-0.90725779296 -0.3526646002 0.22915273702 -0.92063522893 -0.26464275096 -0.28704527452 -0.85364778021 -0.28478179892 -0.43610181649 
-0.78576567904 -0.31894387453 -0.52995009439 -0.76033829213 -0.33784946015 -0.55474626975 -0.84060966894 -0.24438881412 -0.48337303609 
-0.96235908019 0.028606491149 -0.27027147358 -0.94699254494 0.29455294984 0.12823291145 -0.78050450254 0.30517391383 0.54560205629 
-0.5735013855 0.066023040966 0.81653972279 -0.4573595013 -0.19974470287 0.86655890755 -0.43457508577 -0.29844595397 0.84974967337 
-0.43986762993 -0.24407092552 0.8642602915 -0.44320005166 -0.057213708782 0.89459505126 -0.44240879802 0.17954067538 0.87865784087 
-0.44995891517 0.34479429998 0.82380450676 -0.46644484569 0.42522259382 0.77563841552 -0.48123918886 0.44952038993 0.75255581995 
-0.47337881632 0.44502202757 0.7601762238 -0.44624593071 0.4413119428 0.77852960025 -0.4260977945 0.44209307614 0.7892999313 
-0.42929631828 0.44176394888 0.78774950624 -0.45988881674 0.43760936011 0.77265796066 -0.50224326399 0.43010696001 0.75017311783 
-0.52657114478 0.42479645972 0.73639038376 -0.51853273923 0.42646075004 0.74111741784 -0.48968380202 0.42916169883 0.7589664092 
-0.47015863005 0.42613351364 0.77289138379 -0.48093724117 0.43283506195 0.76246519868 -0.49571818452 0.45794428248 0.73793666102 
-0.49801491265 0.47428533125 0.72597146731 -0.49902503606 0.46423773578 0.731749505 -0.50783113077 0.42601170318 0.74874666702 
-0.52493830155 0.36623683469 0.76831657569 -0.54234673894 0.30645427676 0.78226964086 -0.55226117162 0.26938614354 0.78894784618 
-0.55640498543 0.25168087406 0.79187766089 -0.55978382929 0.2354330362 0.79448936427 -0.56570927721 0.20706808218 0.79818282556 
-0.57806733543 0.15927711166 0.80029304471 -0.60277706228 0.093915839019 0.79236331842 -0.64105729964 0.0290726803 0.76694218676 
-0.64105729964 0.0290726803 0.76694218676 
