# vtk DataFile Version 4.2
vtk output
ASCII
DATASET POLYDATA
POINTS 64 float
0 0 0 -1.02645 -0.184334 0.109739 -1.94924 -0.437179 0.287401 
-2.87812 -0.802177 0.50761 -3.74097 -1.2866 0.728942 -4.53842 -1.88084 0.927792 
-5.27932 -2.55223 1.09987 -5.98479 -3.26675 1.24526 -6.67624 -4.00235 1.34571 
-7.36189 -4.74982 1.35004 -8.01521 -5.50505 1.17584 -8.55053 -6.25432 0.753901 
-8.87261 -6.97878 0.122999 -8.95835 -7.6765 -0.60742 -8.83634 -8.35373 -1.35221 
-8.54154 -9.01421 -2.06281 -8.09754 -9.66106 -2.7063 -7.50665 -10.2993 -3.22879 
-6.72755 -10.9216 -3.36481 -6.24676 -11.1439 -2.57084 -6.24084 -11.0357 -1.55441 
-6.35216 -10.9005 -0.554031 -6.495 -10.8191 0.446564 -6.61927 -10.8692 1.45176 
-6.67095 -11.1533 2.42265 -6.60936 -11.7279 3.25368 -6.45815 -12.5096 3.8812 
-6.27223 -13.3885 4.35218 -6.08608 -14.3112 4.73053 -5.91485 -15.2559 5.05869 
-5.7585 -16.2113 5.3623 -5.60149 -17.1692 5.6574 -5.41061 -18.1201 5.9551 
-5.13564 -19.0465 6.26364 -4.72102 -19.9131 6.58835 -4.13244 -20.6643 6.9301 
-3.38385 -21.2476 7.28643 -2.52739 -21.6453 7.65568 -1.61664 -21.8748 8.03837 
-0.68763 -21.9674 8.43499 0.240034 -21.9527 8.84529 1.15677 -21.8557 9.26887 
2.05819 -21.697 9.70658 2.94234 -21.4976 10.1625 3.8086 -21.2803 10.6439 
4.65708 -21.0738 11.1604 5.48717 -20.9133 11.7211 6.29404 -20.8436 12.3318 
7.06118 -20.9199 12.9906 7.75279 -21.1968 13.6779 8.3205 -21.6972 14.3518 
8.73358 -22.3898 14.966 8.99686 -23.2146 15.4937 9.13774 -24.1188 15.931 
9.18871 -25.0677 16.2861 9.17802 -26.0414 16.5706 9.1283 -27.0293 16.796 
9.05818 -28.0259 16.9729 8.98366 -29.0283 17.1111 8.91738 -30.0346 17.2205 
8.86573 -31.0435 17.3109 8.82953 -32.0621 17.3934 8.80705 -33.0315 17.4723 
8.79371 -34.0758 17.5689 
LINES 1 65
64 0 1 2 3 4 5 6 7 8 9 10 11 12 13 14 15 16 17 18 19 20 21 22 23 24 25 26 27 28 29 30 31 32 33 34 35 36 37 38 39 40 41 42 43 44 45 46 47 48 49 50 51 52 53 54 55 56 57 58 59 60 61 62 63 

POINT_DATA 64
SCALARS MaximumInscribedSphereRadius float
LOOKUP_TABLE default
0.93 0.93 0.93 0.93 0.955286 1.0385 1.2182 1.12643 1.06771 
1.48001 1.6147 1.38972 0.80461 0.912063 1.21724 1.24 1.18106 1.03022 
1.33831 1.70918 1.48751 1.30287 1.45948 1.54924 1.55 1.55 1.63786 
1.78936 1.73752 1.58126 1.69872 1.83475 1.86 1.86 1.84375 1.71408 
1.56079 1.54447 1.45216 1.27146 1.31058 1.39755 1.48923 1.54982 1.55 
1.55 1.55 1.55 1.62521 1.86091 1.79712 1.5587 1.38068 1.33267 
1.4887 1.65464 1.83064 1.86 1.8147 1.65595 1.62907 1.7832 1.72615 
1.55 
TEXTURE_COORDINATES TCoords 2 float
0 0 0.015873 0 0.031746 0 0.047619 0 0.0634921 
0 0.0793651 0 0.0952381 0 0.111111 0 0.126984 0 
0.142857 0 0.15873 0 0.174603 0 0.190476 0 0.206349 
0 0.222222 0 0.238095 0 0.253968 0 0.269841 0 
0.285714 0 0.301587 0 0.31746 0 0.333333 0 0.349206 
0 0.365079 0 0.380952 0 0.396825 0 0.412698 0 
0.428571 0 0.444444 0 0.460317 0 0.47619 0 0.492063 
0 0.507937 0 0.52381 0 0.539683 0 0.555556 0 
0.571429 0 0.587302 0 0.603175 0 0.619048 0 0.634921 
0 0.650794 0 0.666667 0 0.68254 0 0.698413 0 
0.714286 0 0.730159 0 0.746032 0 0.761905 0 0.777778 
0 0.793651 0 0.809524 0 0.825397 0 0.84127 0 
0.857143 0 0.873016 0 0.888889 0 0.904762 0 0.920635 
0 0.936508 0 0.952381 0 0.968254 0 0.984127 0 
1 0 
FIELD FieldData 4
Curvature 1 64 float
0.0953133 0.0930898 0.0957899 0.102966 0.0988732 0.076337 0.0469331 0.0388151 0.0797128 
0.143604 0.213103 0.233277 0.20794 0.169237 0.136858 0.126608 0.166788 0.366594 
0.92312 0.541837 0.149142 0.064502 0.106101 0.195785 0.262022 0.23585 0.152301 
0.0849125 0.0450674 0.0242464 0.019071 0.0372726 0.0734427 0.119272 0.159079 0.175485 
0.164042 0.135504 0.105893 0.0814638 0.0630922 0.0488176 0.0362561 0.0270349 0.0314425 
0.0506274 0.0812533 0.121781 0.164545 0.194052 0.193374 0.166199 0.131368 0.0982366 
0.0729638 0.0544646 0.0412661 0.0322945 0.0257037 0.0190626 0.0144291 0.017156 0.0242545 
0.0317362 
Torsion 1 64 float
-0.145723 -0.213014 -0.242979 -0.179302 -0.0756037 -0.0559989 -0.260828 -0.515459 -0.0889669 
0.0810438 0.143065 0.187905 0.169263 0.12921 0.111838 0.12012 0.1157 0.0953082 
0.0845299 0.065636 0.171913 0.510481 0.223472 0.0439285 0.00157466 -0.036046 -0.0768783 
-0.135989 -0.199527 -0.0937429 0.226597 0.0850098 0.0148769 0.0166172 0.0349398 0.0547628 
0.0679913 0.0695593 0.0635536 0.0565211 0.0605031 0.109362 0.255663 0.550852 0.527291 
0.271944 0.130626 0.0693935 0.0379087 0.0211846 0.0176569 0.024539 0.0375152 0.0540284 
0.0758197 0.108082 0.156759 0.221531 0.242643 0.25697 0.3187 0.207706 0.0901862 
0.0408732 
Abscissas 1 64 double
0 1.0486296598 2.0217820086 3.0438072549 4.0577910552 5.0719944438 6.0865382583 7.1011096352 8.1156571975 
9.1299765126 10.143652645 11.156574234 12.169794585 13.18353722 14.197559749 15.211506898 16.226220717 17.240878595 
18.247226769 19.201676485 20.223877474 21.239455803 22.253474056 23.267563108 24.28048544 25.292662693 26.306432636 
27.320749565 28.335259105 29.34983857 30.364438873 31.379043616 32.393599972 33.407957996 34.421999791 35.435690285 
36.449380055 37.463319911 38.477506703 39.491873157 40.50633066 41.520840863 42.535394181 43.549973363 44.564559913 
45.579123914 46.593608109 47.607942411 48.621975081 49.635565142 50.648953201 51.662564023 52.676541523 53.6907887 
54.70518302 55.719672068 56.734216164 57.748780809 58.76341758 59.777818043 60.792098711 61.814713121 62.78750458 
63.836373728 
ParallelTransportNormals 3 64 double
0.10630542074 0 0.99433352429 0.18436280862 0.017644347303 0.98269986863 0.21963724279 0.029362925355 0.97513963113 
0.23017726471 0.034363199368 0.97254182293 0.22159645082 0.028788506629 0.97471341166 0.20977350665 0.019061659508 0.97756418155 
0.19607256771 0.0059334274043 0.98057143678 0.16793833163 -0.023272110158 0.9855227677 0.10523487496 -0.090801030094 0.99029328687 
-0.0081509321835 -0.21805328714 0.97590282625 -0.15208494986 -0.40024057693 0.90370219022 -0.25080970316 -0.56992646557 0.78248215101 
-0.28155580273 -0.67713230503 0.67986628938 -0.28009276295 -0.7326467638 0.62030376722 -0.27203470019 -0.75850859786 0.59216706162 
-0.26798833126 -0.76566928977 0.5847501971 -0.28057719585 -0.75003664697 0.59893360681 -0.39823657338 -0.64184306518 0.65532061718 
-0.84235142237 -0.34599596995 0.41319592205 -0.9465848403 -0.32001326814 0.039606165332 -0.94136524027 -0.33202767107 -0.059909181727 
-0.93549628749 -0.33702758249 -0.10610892859 -0.93204064259 -0.33743274388 -0.13205825959 -0.93066521623 -0.33481796373 -0.14750995378 
-0.93072751552 -0.32944232582 -0.15878931263 -0.9325453415 -0.31785371127 -0.17125479343 -0.9367298424 -0.29724193048 -0.1848903381 
-0.94215813872 -0.27095754383 -0.1972816542 -0.94735189026 -0.24381889749 -0.20754937064 -0.95082270101 -0.22368744786 -0.21424312571 
-0.95109360149 -0.22203331896 -0.21476071913 -0.94528814909 -0.2538884628 -0.20486816163 -0.92534271499 -0.33426212199 -0.17891253061 
-0.87405580653 -0.46760077662 -0.13181790766 -0.77133126437 -0.63325047951 -0.063576023771 -0.61922295015 -0.7850555673 0.015833327794 
-0.45163659918 -0.88748810711 0.091592805484 -0.30221070868 -0.94052646294 0.15517300045 -0.18350894242 -0.96130803282 0.20545397073 
-0.093010267979 -0.96510584897 0.24478519223 -0.025488972239 -0.96101678148 0.27531265502 0.023087027442 -0.95418544261 0.29832386808 
0.052518451333 -0.94828233368 0.31305339464 0.060830088812 -0.94630369719 0.31750435113 0.043996072592 -0.95046339585 0.30770713145 
-0.0020700775988 -0.96053677278 0.27814532699 -0.082837183791 -0.97189714765 0.22034957537 -0.20279329485 -0.97138920371 0.12360378018 
-0.35620036181 -0.93423715381 -0.017951119224 -0.51392752257 -0.83687819331 -0.18844996975 -0.63592190011 -0.68850143414 -0.34866762416 
-0.70796184547 -0.52689504628 -0.47028888523 -0.74181006543 -0.38209352599 -0.55111011986 -0.7538925507 -0.26539523335 -0.60100864563 
-0.75576579342 -0.17598545392 -0.63075128657 -0.75373129987 -0.10991902616 -0.64792510006 -0.75094754077 -0.063818852385 -0.65727083085 
-0.74890463968 -0.035585445967 -0.66172163083 -0.74800953493 -0.022815429393 -0.66329570468 -0.74791237628 -0.021155235137 -0.66346027268 
-0.74817166982 -0.027135207563 -0.66295009842 -0.7484479299 -0.036544770898 -0.66218590739 -0.74871796179 -0.051559516982 -0.66088049593 
-0.74871796179 -0.051559516982 -0.66088049593 
