# vtk DataFile Version 4.2
vtk output
ASCII
DATASET POLYDATA
POINTS 64 float
0 0 0 -0.790241 0.685644 0.0252586 -1.59717 1.22328 0.106058 
-2.51457 1.65851 0.247271 -3.47987 1.88729 0.448037 -4.46347 1.86992 0.692683 
-5.40727 1.6029 0.949076 -6.27808 1.13854 1.18274 -7.07999 0.545912 1.3692 
-7.83839 -0.117131 1.48921 -8.58304 -0.80544 1.519 -9.33327 -1.48171 1.42597 
-10.081 -2.12095 1.17932 -10.7884 -2.72174 0.770351 -11.4076 -3.29924 0.212132 
-11.8927 -3.87682 -0.465799 -12.2032 -4.4765 -1.22228 -12.3106 -5.10846 -2.00793 
-12.2066 -5.76917 -2.77004 -11.909 -6.44845 -3.46161 -11.45 -7.14004 -4.04439 
-10.8602 -7.84603 -4.47012 -10.1695 -8.56861 -4.63252 -9.50839 -9.21611 -4.24216 
-9.20652 -9.51969 -3.32346 -9.17618 -9.5925 -2.31341 -9.25221 -9.60977 -1.30169 
-9.37185 -9.65764 -0.295373 -9.50609 -9.79847 0.700216 -9.64147 -10.0819 1.66457 
-9.77361 -10.5373 2.56092 -9.90378 -11.161 3.34977 -10.0332 -11.9218 4.00784 
-10.1579 -12.7815 4.5314 -10.2635 -13.707 4.93298 -10.3254 -14.6733 5.23548 
-10.3115 -15.6607 5.46792 -10.1862 -16.648 5.66432 -9.91867 -17.6062 5.86146 
-9.49685 -18.4981 6.09632 -8.93629 -19.2871 6.39899 -8.27463 -19.9499 6.78824 
-7.55562 -20.479 7.26955 -6.81554 -20.8787 7.83644 -6.07609 -21.1594 8.47162 
-5.3438 -21.334 9.15161 -4.61369 -21.4151 9.85129 -3.87377 -21.4144 10.5454 
-3.11126 -21.345 11.211 -2.31836 -21.226 11.8326 -1.49539 -21.0839 12.4087 
-0.650119 -20.9516 12.9541 0.204745 -20.8631 13.4933 1.05163 -20.8518 14.0516 
1.86572 -20.9509 14.6485 2.61249 -21.1943 15.2901 3.24648 -21.6125 15.9618 
3.71887 -22.2184 16.6229 3.99889 -22.9911 17.2162 4.09444 -23.8797 17.6953 
4.04465 -24.8293 18.0428 3.88635 -25.8195 18.2566 3.67151 -26.7643 18.3468 
3.38762 -27.7704 18.2987 
LINES 1 65
64 0 1 2 3 4 5 6 7 8 9 10 11 12 13 14 15 16 17 18 19 20 21 22 23 24 25 26 27 28 29 30 31 32 33 34 35 36 37 38 39 40 41 42 43 44 45 46 47 48 49 50 51 52 53 54 55 56 57 58 59 60 61 62 63 

POINT_DATA 64
SCALARS MaximumInscribedSphereRadius float
LOOKUP_TABLE default
1.116 1.03845 0.963164 0.948467 0.975409 0.955232 0.991698 1.22338 1.33913 
1.27975 1.16719 1.04575 1.10133 1.25215 1.11243 1.02223 1.15313 1.23216 
1.24 1.25956 1.30237 1.40072 1.50979 1.3336 1.64651 1.76494 1.6096 
1.71485 1.8718 2.04344 2.02595 1.72434 1.71744 2.02168 2.06554 1.90297 
1.86 1.82129 1.56923 1.29676 1.24 1.27894 1.44791 1.47393 1.31802 
1.52911 2.01127 1.99964 1.65243 1.70112 1.86572 1.87185 1.90401 2.04049 
2.07405 1.64662 1.43095 1.52447 1.54996 1.56358 1.71336 1.75948 1.53568 
1.24 
TEXTURE_COORDINATES TCoords 2 float
0 0 0.015873 0 0.031746 0 0.047619 0 0.0634921 
0 0.0793651 0 0.0952381 0 0.111111 0 0.126984 0 
0.142857 0 0.15873 0 0.174603 0 0.190476 0 0.206349 
0 0.222222 0 0.238095 0 0.253968 0 0.269841 0 
0.285714 0 0.301587 0 0.31746 0 0.333333 0 0.349206 
0 0.365079 0 0.380952 0 0.396825 0 0.412698 0 
0.428571 0 0.444444 0 0.460317 0 0.47619 0 0.492063 
0 0.507937 0 0.52381 0 0.539683 0 0.555556 0 
0.571429 0 0.587302 0 0.603175 0 0.619048 0 0.634921 
0 0.650794 0 0.666667 0 0.68254 0 0.698413 0 
0.714286 0 0.730159 0 0.746032 0 0.761905 0 0.777778 
0 0.793651 0 0.809524 0 0.825397 0 0.84127 0 
0.857143 0 0.873016 0 0.888889 0 0.904762 0 0.920635 
0 0.936508 0 0.952381 0 0.968254 0 0.984127 0 
1 0 
FIELD FieldData 4
Curvature 1 64 float
0.109255 0.129829 0.156322 0.186989 0.210765 0.206751 0.172557 0.126386 0.0872466 
0.0756298 0.101405 0.128642 0.139158 0.141978 0.146155 0.156686 0.16867 0.174466 
0.168078 0.158258 0.17548 0.263973 0.49679 0.655755 0.340967 0.139551 0.0610943 
0.0766276 0.118361 0.149454 0.161415 0.154045 0.136245 0.114162 0.0943456 0.0859907 
0.0956457 0.118721 0.139864 0.150253 0.148834 0.139292 0.126602 0.110704 0.0929502 
0.0769684 0.0672921 0.0633809 0.0594609 0.0494152 0.0348569 0.0388426 0.0650492 0.0991838 
0.135786 0.171907 0.201109 0.213595 0.202314 0.172269 0.143273 0.123471 0.113807 
0.112847 
Torsion 1 64 float
0.0232993 0.028178 0.0340874 0.0410911 0.050829 0.0674877 0.102711 0.190912 0.387705 
0.479502 0.180436 -0.0507347 -0.174511 -0.220105 -0.237728 -0.192381 -0.134515 -0.100857 
-0.100092 -0.13242 -0.152582 -0.124404 -0.0751413 -0.0429411 -0.0661707 -0.23152 -0.632652 
-0.22426 -0.0356485 0.01768 0.0313576 0.0166202 -0.0263858 -0.128731 -0.266705 -0.375154 
-0.335986 -0.237369 -0.181548 -0.160303 -0.148198 -0.126098 -0.0760425 -0.000361369 0.0861493 
0.19413 0.277832 0.282771 0.262368 0.333188 0.690374 0.668011 0.245808 0.0814798 
0.00924579 -0.025422 -0.0502668 -0.0627417 -0.0734876 -0.0829368 -0.0915134 -0.0968935 -0.094958 
-0.0852263 
Abscissas 1 64 double
0 1.0465303906 2.0195183123 3.0447025002 4.0568524886 5.070564843 6.0843743173 7.098542871 8.1129522217 
9.1274519518 10.141925556 11.156240651 12.170437508 13.184630195 14.19880952 15.212954292 16.227000544 17.240976706 
18.25494777 19.268996107 20.283194153 21.296849 22.309601319 23.313922415 24.32747816 25.340600317 26.355327714 
27.369857076 28.384277965 29.398493892 30.412544924 31.426597728 32.440761767 33.455037974 34.469430103 35.483884047 
36.498333835 37.512719501 38.526966508 39.541109988 40.555224762 41.569390339 42.583620094 43.597921442 44.612319151 
45.626780213 46.641280733 47.655800984 48.670324102 49.684865054 50.699437623 51.714029044 52.728590018 53.743056657 
54.757378134 55.771524686 56.785390298 57.799032263 58.812690448 59.826680576 60.839081734 61.864429025 62.837573344 
63.884018374 
ParallelTransportNormals 3 64 double
0.031946816076 0 0.9994895702 0.076930722688 -0.034288525827 0.99644666737 0.12363522499 -0.060755861405 0.99046608041 
0.18425338843 -0.082089237229 0.97944476413 0.24189621152 -0.088347923811 0.96627163221 0.28288516776 -0.082300357523 0.95561636289 
0.29642259649 -0.076844355271 0.95196039274 0.28443725863 -0.084417767703 0.95497072542 0.25011852285 -0.11203574021 0.9617113483 
0.19121686708 -0.16499243933 0.96758131685 0.10234394878 -0.24611885156 0.96382115927 -0.01261148624 -0.34707082807 0.93775412061 
-0.13093310889 -0.44790204347 0.8844434863 -0.23096940861 -0.53675491512 0.81150926882 -0.300278528 -0.60925121827 0.73392489988 
-0.33799031675 -0.66505612052 0.6659301032 -0.35166807067 -0.70537136355 0.61545171017 -0.35173495063 -0.73051476069 0.58534665705 
-0.3491158357 -0.73925446078 0.57586541438 -0.3548407813 -0.72888163474 0.58550796961 -0.38372735967 -0.69038804948 0.6132843179 
-0.46912624211 -0.59512085551 0.65249654122 -0.70755351219 -0.35351253629 0.61187981996 -0.95448001204 -0.10964241112 0.27739222826 
-0.99783863638 -0.06051553431 0.025611049504 -0.99555149007 -0.055995823142 -0.075773995562 -0.99122103893 -0.054554077633 -0.120435479 
-0.98864537965 -0.052639639311 -0.14074580518 -0.98692786025 -0.049937159032 -0.15323080241 -0.98485407561 -0.044209947066 -0.16765419869 
-0.98182588856 -0.031751407754 -0.18710898605 -0.97824760143 -0.012667679883 -0.20705352011 -0.97520769993 0.0067176632532 -0.2211895454 
-0.97431502982 0.013638209574 -0.22477593711 -0.97601759675 -0.0055899815871 -0.2176198588 -0.97738906396 -0.061384306931 -0.2023427402 
-0.970488149 -0.15924612091 -0.18108955138 -0.94310501513 -0.29485959455 -0.15365789907 -0.8854059764 -0.44972284561 -0.11749731525 
-0.80013899471 -0.59561648585 -0.070842013864 -0.70293523039 -0.71107805096 -0.015813516949 -0.61049876116 -0.79087766216 0.042471003268 
-0.53084661084 -0.84158381532 0.099692314419 -0.46366845288 -0.87247441522 0.15427235846 -0.40464843745 -0.89073281501 0.20701375398 
-0.34888256802 -0.90048656035 0.25962455269 -0.29265740702 -0.90356207431 0.31293325165 -0.23597795904 -0.90091743756 0.36422818885 
-0.18455352566 -0.8946871138 0.40678614107 -0.14950402937 -0.8890231466 0.43276597603 -0.14302096209 -0.88795691116 0.43712415665 
-0.17182006314 -0.89169717779 0.41875292122 -0.23659976118 -0.89549572817 0.37697208629 -0.33476405215 -0.89030381066 0.30869427289 
-0.46058835189 -0.86269112946 0.20885972627 -0.60245432913 -0.7947219593 0.073930972652 -0.73681435751 -0.67035245301 -0.087932879533 
-0.83346719935 -0.49324869994 -0.24907458243 -0.87783380493 -0.2970164833 -0.37575127356 -0.88222143246 -0.12031778868 -0.45520212416 
-0.8660727461 0.030708665155 -0.49897392351 -0.84437175333 0.14273524481 -0.51639422157 -0.81578224124 0.25500599574 -0.51910622903 
-0.81578224124 0.25500599574 -0.51910622903 
