# vtk DataFile Version 4.2
vtk output
ASCII
DATASET POLYDATA
POINTS 64 float
0 0 0 -1.00483 -0.183236 0.22932 -1.91093 -0.231797 0.581467 
-2.82844 -0.180915 1.03457 -3.69575 -0.0312188 1.53626 -4.54147 0.19279 2.05001 
-5.3851 0.466096 2.54299 -6.24841 0.757991 2.98882 -7.14869 1.02959 3.36948 
-8.09295 1.23517 3.67787 -9.07347 1.32546 3.92116 -10.0653 1.25401 4.12018 
-11.0265 0.989349 4.30507 -11.9085 0.531493 4.50658 -12.6812 -0.0807626 4.74443 
-13.3479 -0.793293 5.02163 -13.9343 -1.56295 5.32652 -14.4748 -2.36521 5.63256 
-15.0014 -3.19172 5.89501 -15.5332 -4.04278 6.0424 -16.0509 -4.91179 5.97829 
-16.4736 -5.76586 5.63466 -16.7056 -6.55189 5.03897 -16.7215 -7.24776 4.30187 
-16.5545 -7.87152 3.51976 -16.2448 -8.44981 2.74609 -15.8211 -9.00563 2.01105 
-15.2967 -9.56095 1.3405 -14.6795 -10.1293 0.79025 -13.8966 -10.7609 0.561691 
-13.443 -10.963 1.41056 -13.4743 -10.7484 2.39717 -13.5904 -10.4693 3.36621 
-13.7372 -10.1964 4.33223 -13.8839 -10.0008 5.31679 -14.0203 -9.9708 6.32113 
-14.1438 -10.2005 7.30013 -14.2546 -10.7049 8.17207 -14.3481 -11.403 8.9016 
-14.4122 -12.2129 9.50894 -14.4276 -13.0864 10.0246 -14.3703 -13.9937 10.4747 
-14.2146 -14.9088 10.8838 -13.9384 -15.8014 11.2787 -13.5299 -16.6339 11.6896 
-12.9923 -17.363 12.1454 -12.3479 -17.9497 12.6639 -11.6304 -18.3722 13.2427 
-10.871 -18.6319 13.8628 -10.0886 -18.7497 14.4976 -9.28889 -18.7572 15.1218 
-8.46968 -18.6887 15.7163 -7.62827 -18.5748 16.2717 -6.76734 -18.4391 16.791 
-5.89564 -18.2966 17.2903 -5.02557 -18.1558 17.7929 -4.1701 -18.0229 18.3219 
-3.33971 -17.9071 18.8932 -2.53964 -17.8246 19.5116 -1.7696 -17.8007 20.1717 
-1.02718 -17.8717 20.8575 -0.305026 -18.0986 21.5463 0.346178 -18.4868 22.1585 
0.966549 -19.1453 22.684 
LINES 1 65
64 0 1 2 3 4 5 6 7 8 9 10 11 12 13 14 15 16 17 18 19 20 21 22 23 24 25 26 27 28 29 30 31 32 33 34 35 36 37 38 39 40 41 42 43 44 45 46 47 48 49 50 51 52 53 54 55 56 57 58 59 60 61 62 63 

POINT_DATA 64
SCALARS MaximumInscribedSphereRadius float
LOOKUP_TABLE default
0.93 1.12186 1.15615 0.982842 1.09442 1.24 1.23193 1.02281 0.654329 
0.795131 0.93 0.93 0.93 0.93 0.928708 0.847041 0.672223 0.741336 
0.894198 0.93 0.93 0.93 1.21082 1.25862 0.96177 0.9669 1.09234 
1.1952 1.33031 1.46367 1.24 1.17363 0.985168 1.07293 1.24 1.24 
1.24 1.24 1.24674 1.36707 1.5474 1.72547 1.86 1.85252 1.75474 
1.58334 1.55 1.55654 1.54248 1.28802 0.95377 0.969356 1.13297 1.4491 
1.40473 1.26236 1.46574 1.48665 1.2873 1.27508 1.47665 2.22894 2.16401 
1.55 
TEXTURE_COORDINATES TCoords 2 float
0 0 0.015873 0 0.031746 0 0.047619 0 0.0634921 
0 0.0793651 0 0.0952381 0 0.111111 0 0.126984 0 
0.142857 0 0.15873 0 0.174603 0 0.190476 0 0.206349 
0 0.222222 0 0.238095 0 0.253968 0 0.269841 0 
0.285714 0 0.301587 0 0.31746 0 0.333333 0 0.349206 
0 0.365079 0 0.380952 0 0.396825 0 0.412698 0 
0.428571 0 0.444444 0 0.460317 0 0.47619 0 0.492063 
0 0.507937 0 0.52381 0 0.539683 0 0.555556 0 
0.571429 0 0.587302 0 0.603175 0 0.619048 0 0.634921 
0 0.650794 0 0.666667 0 0.68254 0 0.698413 0 
0.714286 0 0.730159 0 0.746032 0 0.761905 0 0.777778 
0 0.793651 0 0.809524 0 0.825397 0 0.84127 0 
0.857143 0 0.873016 0 0.888889 0 0.904762 0 0.920635 
0 0.936508 0 0.952381 0 0.968254 0 0.984127 0 
1 0 
FIELD FieldData 4
Curvature 1 64 float
0.159162 0.144372 0.120664 0.0928399 0.0650278 0.0455023 0.0456974 0.0630024 0.0865821 
0.110853 0.135158 0.157179 0.168821 0.157675 0.125408 0.0853001 0.0457556 0.0459619 
0.107095 0.182037 0.241511 0.266111 0.230365 0.174712 0.127426 0.0975539 0.103353 
0.173049 0.398919 1.37775 0.579909 0.178296 0.0526959 0.0672199 0.141902 0.212544 
0.237646 0.200194 0.142823 0.102316 0.0843955 0.0864038 0.0998975 0.118729 0.13807 
0.151354 0.152172 0.138155 0.115474 0.0898015 0.0671416 0.0512855 0.0371718 0.0192908 
0.00713256 0.025134 0.0415569 0.0523895 0.063273 0.0837102 0.120856 0.16887 0.210119 
0.221294 
Torsion 1 64 float
0.0499641 0.0734126 0.108778 0.173679 0.316354 0.59405 0.615239 0.38939 0.273439 
0.234804 0.207226 0.174067 0.140665 0.107684 0.0709302 -0.0371232 -0.545477 -0.605841 
-0.0718995 0.0785259 0.143173 0.153885 0.153894 0.151463 0.169249 0.209672 0.190233 
0.101562 0.0369653 -0.0202007 -0.0202001 0.0553038 0.666728 0.189679 -0.0194243 -0.0380388 
-0.0226459 0.0265302 0.107324 0.220614 0.311816 0.308191 0.258056 0.214631 0.170841 
0.116683 0.0508172 -0.00922152 -0.0831214 -0.170814 -0.262978 -0.273749 -0.201167 -0.161891 
-0.392627 0.00878116 0.104719 0.203178 0.272604 0.243704 0.166626 0.103211 0.0609682 
0.0343465 
Abscissas 1 64 double
0 1.0468243638 2.0201581341 3.0447153835 4.0577977438 5.0723679893 6.0869814041 7.1015161606 8.1159973882 
9.1303894163 10.144668807 11.158795434 12.172766683 13.186736111 14.200894194 15.21526923 16.22980215 17.24439024 
18.258944121 19.273239835 20.286826088 21.29984026 22.313003581 23.326819483 24.341038922 25.355385583 26.369644073 
27.386005488 28.389373825 29.420919667 30.404372045 31.414550491 32.429641144 33.444150122 34.45858985 35.472603782 
36.485738006 37.499147762 38.513215949 39.527541757 40.541982177 41.556439565 42.570857908 43.585213324 44.599463702 
45.613576356 46.62763842 47.641747972 48.655977958 49.670354922 50.684836542 51.699366204 52.713924926 53.728511508 
54.743117831 55.757719381 56.772300473 57.786844033 58.801410843 59.815923958 60.829149427 61.852591399 62.827016747 
63.873245246 
ParallelTransportNormals 3 64 double
0.22249783315 0 0.9749331845 0.36142673807 0.01652705673 0.93225402622 0.4434629612 0.016537344431 0.89614012201 
0.50197118511 0.0099429272623 0.86482718939 0.52032105835 0.0059404441245 0.8539500614 0.50689636674 0.0098924366063 0.86195023817 
0.46503916963 0.023752135609 0.88497141579 0.40039242952 0.044407732601 0.91526709526 0.32248577405 0.064561798761 0.94437000147 
0.24672923472 0.076206489817 0.96608346205 0.19083492174 0.076740006661 0.97861790502 0.16897647018 0.072978065158 0.9829146222 
0.18312976149 0.078526033395 0.9799475254 0.21843775597 0.10135965099 0.97057259796 0.25444895341 0.13450372253 0.95768704634 
0.2784009939 0.16283406896 0.94656111931 0.28310454161 0.16939486511 0.94401122779 0.26166280457 0.13666698417 0.95543430551 
0.20250702281 0.042901788792 0.97834060645 0.096745864585 -0.13043538317 0.98672531563 -0.028955510864 -0.36074437231 0.93221514482 
-0.11569098071 -0.57802055693 0.8077795694 -0.13920309345 -0.71857653237 0.68137380776 -0.13119415765 -0.78851876816 0.60085459577 
-0.11966445065 -0.81759449846 0.56322256289 -0.11599850543 -0.82326366017 0.55568092695 -0.12693761042 -0.81044126844 0.57190190896 
-0.16522076792 -0.77277893829 0.61279263245 -0.31579530481 -0.64360732535 0.69716779631 -0.87461780001 -0.26902477292 0.40332291711 
-0.96231698874 -0.27045003596 0.02833357078 -0.95774842647 -0.28577737679 -0.032392013104 -0.95374079727 -0.29419121745 -0.061887148839 
-0.9506842807 -0.29906926352 -0.082200815343 -0.94539787082 -0.30328159938 -0.11934461584 -0.93644593074 -0.296401398 -0.18765721427 
-0.9260005898 -0.2636707711 -0.27018629159 -0.91858348106 -0.22002057489 -0.32832199887 -0.91567707607 -0.19221942982 -0.35296909661 
-0.91567799726 -0.19223893463 -0.35295608415 -0.91492604202 -0.2242261415 -0.33560836566 -0.90718035298 -0.2904871835 -0.30436984638 
-0.88370393634 -0.38873830894 -0.26067197791 -0.83537048683 -0.51051517784 -0.20379009529 -0.75676177674 -0.64027012709 -0.13177927617 
-0.65222384251 -0.75665315411 -0.045607714672 -0.53545776621 -0.84316999685 0.048469960003 -0.42148563445 -0.89580780554 0.14099019643 
-0.32002059232 -0.92065199291 0.22357711969 -0.23565656146 -0.92733658525 0.29071092634 -0.16965953068 -0.92485050988 0.3403926821 
-0.12197400202 -0.91961194488 0.37341158748 -0.092288679019 -0.91525910895 0.39215247445 -0.079608949832 -0.91322317638 0.39960711358 
-0.08210416015 -0.91362904183 0.39817192368 -0.098029482104 -0.91615532738 0.38865104753 -0.12636357444 -0.920334252 0.37015822516 
-0.16750684414 -0.92533664213 0.34013755439 -0.22358196084 -0.92913628776 0.2944772751 -0.29879025272 -0.92679346127 0.22754837955 
-0.40574989161 -0.90509442567 0.12716566395 -0.52307250846 -0.85213705597 0.01604957144 -0.67359579024 -0.72947852797 -0.11886878734 
-0.67359579024 -0.72947852797 -0.11886878734 
