# vtk DataFile Version 4.2
vtk output
ASCII
DATASET POLYDATA
POINTS 64 float
0 0 0 -0.810179 0.0119988 -0.623189 -1.70211 -0.0613229 -1.07674 
-2.68274 -0.265387 -1.26044 -3.61648 -0.611992 -1.07405 -4.41397 -1.04656 -0.621258 
-5.09391 -1.52681 -0.0414166 -5.70849 -2.04131 0.580706 -6.30032 -2.59229 1.19355 
-6.90227 -3.18722 1.75314 -7.53514 -3.83517 2.21029 -8.19997 -4.54217 2.50604 
-8.86545 -5.30462 2.57571 -9.46091 -6.09912 2.36895 -9.89393 -6.88259 1.89247 
-10.106 -7.61525 1.22367 -10.1009 -8.28423 0.460922 -9.91572 -8.8992 -0.324446 
-9.59129 -9.47842 -1.09174 -9.1611 -10.0425 -1.81689 -8.64795 -10.6124 -2.48188 
-8.0654 -11.2158 -3.05058 -7.42343 -11.8848 -3.46563 -6.79016 -12.6816 -3.3592 
-6.59448 -13.171 -2.52535 -6.71848 -13.3031 -1.51759 -6.93121 -13.2816 -0.527672 
-7.16413 -13.1845 0.455447 -7.3804 -13.0492 1.43738 -7.55146 -12.9077 2.42741 
-7.65015 -12.7983 3.43123 -7.65282 -12.7731 4.44546 -7.55262 -12.8953 5.44758 
-7.37845 -13.2127 6.39521 -7.18923 -13.7269 7.24905 -7.03941 -14.3951 7.99767 
-6.95278 -15.1636 8.65431 -6.92689 -15.9914 9.2404 -6.94363 -16.8525 9.77676 
-6.97393 -17.7319 10.2819 -6.97895 -18.6203 10.7719 -6.90778 -19.507 11.26 
-6.69446 -20.3668 11.7547 -6.27315 -21.1435 12.2525 -5.63011 -21.7616 12.735 
-4.82854 -22.1862 13.1896 -3.95001 -22.4457 13.6259 -3.04612 -22.5877 14.0643 
-2.14364 -22.6523 14.5234 -1.25695 -22.6691 15.0163 -0.393844 -22.6583 15.5495 
0.442555 -22.6323 16.1232 1.25296 -22.5967 16.7326 2.04189 -22.5502 17.3689 
2.817 -22.4867 18.0205 3.58726 -22.3993 18.6751 4.36105 -22.2856 19.3214 
5.14444 -22.1545 19.9528 5.94037 -22.0311 20.5695 6.74931 -21.9538 21.1779 
7.56222 -21.9672 21.782 8.36782 -22.122 22.3873 9.12193 -22.4333 22.9712 
9.81994 -22.918 23.5393 
LINES 1 65
64 0 1 2 3 4 5 6 7 8 9 10 11 12 13 14 15 16 17 18 19 20 21 22 23 24 25 26 27 28 29 30 31 32 33 34 35 36 37 38 39 40 41 42 43 44 45 46 47 48 49 50 51 52 53 54 55 56 57 58 59 60 61 62 63 

POINT_DATA 64
SCALARS MaximumInscribedSphereRadius float
LOOKUP_TABLE default
0.93 0.93 0.937345 1.06479 1.21049 1.04804 0.998273 1.16495 1.32937 
1.46156 1.4449 1.3185 1.2772 1.3046 1.3236 1.17453 1.07955 1.29308 
1.49211 1.47481 1.36531 1.22236 1.2808 1.44329 1.37217 1.26657 1.36877 
1.52891 1.40972 1.24738 1.56646 1.75597 1.20874 1.15293 1.51751 1.72252 
1.82665 1.68405 1.62726 1.76314 1.79733 1.62726 1.44602 1.37592 1.6118 
1.78211 1.64031 1.60922 1.69806 1.57697 1.31453 1.114 1.02187 1.23591 
1.49172 1.55 1.61777 1.77393 1.67032 1.36625 1.26622 1.24235 1.3962 
1.55 
TEXTURE_COORDINATES TCoords 2 float
0 0 0.015873 0 0.031746 0 0.047619 0 0.0634921 
0 0.0793651 0 0.0952381 0 0.111111 0 0.126984 0 
0.142857 0 0.15873 0 0.174603 0 0.190476 0 0.206349 
0 0.222222 0 0.238095 0 0.253968 0 0.269841 0 
0.285714 0 0.301587 0 0.31746 0 0.333333 0 0.349206 
0 0.365079 0 0.380952 0 0.396825 0 0.412698 0 
0.428571 0 0.444444 0 0.460317 0 0.47619 0 0.492063 
0 0.507937 0 0.52381 0 0.539683 0 0.555556 0 
0.571429 0 0.587302 0 0.603175 0 0.619048 0 0.634921 
0 0.650794 0 0.666667 0 0.68254 0 0.698413 0 
0.714286 0 0.730159 0 0.746032 0 0.761905 0 0.777778 
0 0.793651 0 0.809524 0 0.825397 0 0.84127 0 
0.857143 0 0.873016 0 0.888889 0 0.904762 0 0.920635 
0 0.936508 0 0.952381 0 0.968254 0 0.984127 0 
1 0 
FIELD FieldData 4
Curvature 1 64 float
0.207504 0.275241 0.361082 0.396047 0.305122 0.181454 0.0930198 0.0500774 0.0689896 
0.119215 0.173453 0.227066 0.274921 0.299944 0.287045 0.243564 0.192713 0.146635 
0.11259 0.104688 0.141622 0.254196 0.569701 0.962597 0.556594 0.237626 0.10794 
0.0467291 0.0491524 0.0882775 0.136122 0.18123 0.210006 0.211819 0.189152 0.153147 
0.114275 0.0754604 0.0411125 0.0383548 0.0859794 0.151724 0.219792 0.259844 0.242599 
0.183655 0.123587 0.0815212 0.0597947 0.0524921 0.0495164 0.0446693 0.0364786 0.0281129 
0.0254188 0.0275201 0.0243152 0.0223168 0.0467704 0.0880636 0.132545 0.16917 0.187365 
0.184596 
Torsion 1 64 float
0.00371699 0.00681533 0.01409 0.0297523 0.0587436 0.128923 0.402211 0.890621 0.468703 
0.0884348 -0.0235969 -0.0801447 -0.117935 -0.145608 -0.151545 -0.146474 -0.149206 -0.180208 
-0.249657 -0.279354 -0.203038 -0.111268 -0.0542364 0.00830392 0.0470862 0.0816077 0.197972 
0.785373 0.626513 0.271553 0.196919 0.208719 0.237338 0.245854 0.208745 0.143532 
0.0737039 -0.0749656 -0.579211 -1.02056 -0.196577 -0.0717524 -0.0529545 -0.0636231 -0.0929941 
-0.143253 -0.222627 -0.336526 -0.387429 -0.287074 -0.144505 -0.00671208 0.198466 0.471757 
0.539154 0.422029 0.663368 1.17615 0.487133 0.153047 0.0661486 0.0348554 0.019856 
0.0117236 
Abscissas 1 64 double
0 1.0222025802 2.0255073828 3.0438589592 4.0571419054 5.0719589304 6.0864431318 7.1010623136 8.1156678037 
9.1302773661 10.144843175 11.159392269 12.173819369 13.187991107 14.202077523 15.216508328 16.231072488 17.245616983 
18.260252146 19.274712066 20.289722313 21.303110023 22.31894657 23.342305027 24.328747464 25.352661705 26.365402074 
27.380394236 28.394923277 29.409532899 30.424112631 31.438659861 32.453150472 33.4676158 34.482120403 35.496664629 
36.51123174 37.525817255 38.540420513 39.555031273 40.569652336 41.584282619 42.598909501 43.613107001 44.627196815 
45.641826071 46.656441651 47.67104601 48.685651523 49.700251319 50.714849 51.729447813 52.744047679 53.758652077 
54.77325582 55.787866622 56.802453007 57.817100882 58.831549717 59.8466671 60.859570101 61.879038186 62.882305861 
63.904534065 
ParallelTransportNormals 3 64 double
-0.60969528063 0 0.79263589672 -0.45363635778 0.0056928714229 0.89116869678 -0.19282276329 0.044205547616 0.98023734448 
0.14322848405 0.14093883165 0.97960290276 0.37420837251 0.24514766418 0.89435491652 0.48010372163 0.31071958069 0.82033758822 
0.51501455924 0.33754590348 0.78792307164 0.51037596511 0.33344920301 0.79267143461 0.47436884176 0.2988857733 0.82803471937 
0.40494863347 0.22901271062 0.88519477101 0.29740568004 0.11672582579 0.94758901591 0.15272597745 -0.043086767654 0.98732887442 
-0.010405924234 -0.24451844595 0.96958880271 -0.14665786011 -0.45356796959 0.87907199309 -0.21858974403 -0.62260854213 0.75138347538 
-0.23468582948 -0.73159103108 0.64007587416 -0.22570924675 -0.79215089672 0.56705581098 -0.21339535557 -0.82100545028 0.52953986896 
-0.20873750882 -0.82806251521 0.52032789981 -0.21733538032 -0.81772733139 0.5329984465 -0.25144500143 -0.78120289109 0.57139955741 
-0.32568233131 -0.70406052793 0.63105450802 -0.60273859055 -0.38571709848 0.69851879817 -0.94162193334 0.1429041974 0.30483852286 
-0.95795250935 0.27501177336 -0.081826122573 -0.93675210501 0.28191434304 -0.20741214273 -0.9277176993 0.27951206928 -0.24741235527 
-0.92869847561 0.28001956749 -0.24312174569 -0.9366446593 0.28569724587 -0.20266688408 -0.94710934837 0.29543113521 -0.12531690462 
-0.95289981391 0.30311946939 -0.010026561348 -0.94609164257 0.29634998764 0.13071835635 -0.92789202714 0.26718958497 0.26005020986 
-0.91165200564 0.23002200228 0.34055909779 -0.90578394251 0.20955884984 0.36829409165 -0.90605020165 0.2111766696 0.36671166645 
-0.90696355924 0.22413423756 0.35662437629 -0.90702350116 0.23519572425 0.34927258644 -0.90708969704 0.23274675189 0.35073812311 
-0.9076113189 0.20663957325 0.36543368834 -0.90537659611 0.14667750238 0.39847073859 -0.88841545697 0.042555564042 0.45706345269 
-0.8322639162 -0.10223246204 0.5448718175 -0.72208810286 -0.24661122904 0.64635259218 -0.59359869045 -0.33936053412 0.72970886152 
-0.49889948731 -0.37791947457 0.77992061923 -0.45083435849 -0.38874570278 0.80350803342 -0.4395315181 -0.39003872712 0.80912411653 
-0.45309990268 -0.38942155342 0.80190481476 -0.48060835027 -0.38932718988 0.78577347427 -0.51260585578 -0.39001865086 0.76493181958 
-0.54208004646 -0.39112169736 0.743756036 -0.56335498071 -0.39221488516 0.72718542998 -0.57268676353 -0.39287121219 0.71950127276 
-0.56935065655 -0.3925456265 0.72232109273 -0.55555532071 -0.39074878047 0.73394391897 -0.53814121997 -0.38801107305 0.74823220631 
-0.52680711628 -0.38618459035 0.75718935836 -0.53043927899 -0.38663892035 0.75441667305 -0.5539616748 -0.38756372288 0.73683161141 
-0.60083819369 -0.38270491343 0.70180511129 -0.65950721601 -0.36512011878 0.65706737166 -0.72312085961 -0.33033254836 0.60661077298 
-0.72312085961 -0.33033254836 0.60661077298 
