# vtk DataFile Version 4.2
vtk output
ASCII
DATASET POLYDATA
POINTS 64 float
0 0 0 -1.01959 -0.168239 0.166089 -1.97654 -0.224509 0.367624 
-2.97121 -0.260103 0.576561 -3.96767 -0.32138 0.760725 -4.96107 -0.468299 0.902387 
-5.92415 -0.769375 1.00061 -6.79872 -1.27379 1.08783 -7.53126 -1.96173 1.21955 
-8.12568 -2.75787 1.42287 -8.64246 -3.59816 1.66005 -9.15226 -4.45921 1.82516 
-9.68752 -5.30708 1.6981 -10.1284 -5.97643 1.08624 -10.3568 -6.43141 0.210172 
-10.3952 -6.80144 -0.733051 -10.2583 -7.16284 -1.67046 -9.94182 -7.54892 -2.55278 
-9.44919 -7.96435 -3.33533 -8.82357 -8.39801 -4.00553 -8.14029 -8.85258 -4.60204 
-7.4676 -9.3521 -5.17411 -6.84666 -9.92733 -5.73311 -6.29384 -10.6149 -6.22923 
-5.83066 -11.4838 -6.46459 -5.71495 -12.265 -5.8788 -5.99668 -12.5023 -4.93223 
-6.45321 -12.5069 -4.02774 -7.02036 -12.4159 -3.19189 -7.6434 -12.3045 -2.39887 
-8.2499 -12.2354 -1.58866 -8.74552 -12.2711 -0.705279 -9.07201 -12.4473 0.237943 
-9.26275 -12.761 1.18318 -9.37403 -13.199 2.09114 -9.42933 -13.7437 2.94499 
-9.41946 -14.3725 3.74082 -9.31825 -15.0646 4.47522 -9.09765 -15.8045 5.13267 
-8.74182 -16.5753 5.68707 -8.2505 -17.3484 6.12173 -7.62308 -18.0707 6.45756 
-6.84999 -18.658 6.74825 -5.95617 -19.0294 7.04793 -5.01304 -19.199 7.37971 
-4.06668 -19.2517 7.74134 -3.12743 -19.2533 8.125 -2.19489 -19.2245 8.52363 
-1.26922 -19.1458 8.93126 -0.355647 -18.9879 9.34304 0.540235 -18.7535 9.75739 
1.42252 -18.4907 10.1839 2.30039 -18.2821 10.6474 3.15916 -18.2301 11.1831 
3.92403 -18.4252 11.8169 4.48601 -18.8686 12.5328 4.81278 -19.4743 13.2766 
4.96378 -20.1726 13.9963 5.02759 -20.9435 14.6524 5.08352 -21.787 15.2127 
5.18283 -22.6903 15.6647 5.34159 -23.6235 16.0363 5.5463 -24.5232 16.3638 
5.82306 -25.4603 16.7399 
LINES 1 65
64 0 1 2 3 4 5 6 7 8 9 10 11 12 13 14 15 16 17 18 19 20 21 22 23 24 25 26 27 28 29 30 31 32 33 34 35 36 37 38 39 40 41 42 43 44 45 46 47 48 49 50 51 52 53 54 55 56 57 58 59 60 61 62 63 

POINT_DATA 64
SCALARS MaximumInscribedSphereRadius float
LOOKUP_TABLE default
0.93 1.15002 1.10894 0.939157 0.96842 1.1024 1.23373 1.24 1.23737 
1.12392 0.935115 0.990342 1.26661 1.32235 1.26349 1.24385 1.27057 1.4161 
1.7167 2.17568 2.07116 1.98403 1.97986 1.87761 1.42292 1.47367 1.55 
1.72287 1.71608 1.29228 1.45058 1.84615 1.87124 1.24366 1.21246 1.24 
1.31177 1.49729 1.55 1.55 1.55 1.55 1.35056 1.37713 1.49908 
1.37359 1.83071 2.14596 1.9234 2.08229 2.0789 1.89798 2.53059 2.15695 
1.67783 1.90506 1.85693 1.64326 1.55082 1.55 1.56458 1.7484 1.86 
1.86 
TEXTURE_COORDINATES TCoords 2 float
0 0 0.015873 0 0.031746 0 0.047619 0 0.0634921 
0 0.0793651 0 0.0952381 0 0.111111 0 0.126984 0 
0.142857 0 0.15873 0 0.174603 0 0.190476 0 0.206349 
0 0.222222 0 0.238095 0 0.253968 0 0.269841 0 
0.285714 0 0.301587 0 0.31746 0 0.333333 0 0.349206 
0 0.365079 0 0.380952 0 0.396825 0 0.412698 0 
0.428571 0 0.444444 0 0.460317 0 0.47619 0 0.492063 
0 0.507937 0 0.52381 0 0.539683 0 0.555556 0 
0.571429 0 0.587302 0 0.603175 0 0.619048 0 0.634921 
0 0.650794 0 0.666667 0 0.68254 0 0.698413 0 
0.714286 0 0.730159 0 0.746032 0 0.761905 0 0.777778 
0 0.793651 0 0.809524 0 0.825397 0 0.84127 0 
0.857143 0 0.873016 0 0.888889 0 0.904762 0 0.920635 
0 0.936508 0 0.952381 0 0.968254 0 0.984127 0 
1 0 
FIELD FieldData 4
Curvature 1 64 float
0.157491 0.0826368 0.0280036 0.0258613 0.0698312 0.117491 0.156616 0.168107 0.136358 
0.0673908 0.0738023 0.23078 0.403732 0.301241 0.16489 0.122238 0.132909 0.145788 
0.122949 0.0733707 0.0471853 0.065488 0.114261 0.282951 0.746724 0.595426 0.237465 
0.118281 0.0565237 0.0567195 0.12841 0.162289 0.138701 0.110996 0.0944886 0.084816 
0.0876642 0.104438 0.120972 0.127206 0.12435 0.143706 0.174743 0.152493 0.0916817 
0.0427727 0.0216007 0.0364288 0.0569316 0.0559435 0.0256778 0.0476939 0.1269 0.203056 
0.233486 0.200548 0.140088 0.0929115 0.0851997 0.0936163 0.0771701 0.0513263 0.0478198 
0.0668599 
Torsion 1 64 float
0.0249893 0.0710838 0.479727 0.60037 0.143593 0.147578 0.182323 0.188593 0.123308 
-0.342655 -0.440142 -0.00977014 0.0897862 0.18871 0.28229 0.249432 0.111762 0.0261342 
0.0463199 0.286738 0.535794 -0.0235569 -0.218392 -0.149702 -0.044447 0.0963326 0.147423 
0.180304 0.420864 0.349607 0.064577 -0.0681844 -0.182086 -0.153757 0.00633061 0.150998 
0.152307 0.0539181 0.00958357 0.0744558 0.282184 0.314331 0.179982 0.107685 0.10307 
0.125019 -0.163113 -0.15725 -0.030702 0.0667767 1.48581 0.304078 -0.00808222 -0.0743517 
-0.0952104 -0.0229079 0.135375 0.428078 0.401787 0.200912 0.213962 0.433894 0.440763 
0.191204 
Abscissas 1 64 double
0 1.0466394912 2.0262005357 3.0432008367 4.0583860604 5.0725333191 6.086346397 7.0997128627 8.1132348878 
9.1273978321 10.141994103 11.156167404 12.166880308 13.175215687 14.188474942 15.202411643 16.216364546 17.230126115 
18.243856273 19.258071 20.272625113 21.287166504 22.301529876 23.313691165 24.326123712 25.3093915 26.32509881 
27.3382767 28.35247614 29.367103386 30.381528346 31.395074249 32.408643508 33.422666539 34.436878268 35.451162754 
36.465473502 37.479703386 38.493759873 39.507683709 40.521631901 41.535567245 42.5490242 43.562288381 44.576363559 
45.590835967 46.605417251 47.619999817 48.634510129 49.648945775 50.66346768 51.678073233 52.692443798 53.705927782 
54.718267017 55.730647695 56.744056029 57.758146997 58.772477309 59.786605281 60.801540948 61.818446493 62.797551 
63.844625607 
ParallelTransportNormals 3 64 double
0.16077889328 0 0.98699044954 0.20579399165 0.0050339723793 0.97858238903 0.20539584676 0.0050151455038 0.97866613023 
0.18151069692 0.0038528259817 0.98338142276 0.14122740976 -0.0003628502063 0.98997711442 0.10419530855 -0.0088429812146 0.994517541 
0.10425878478 -0.0088151561214 0.99451113559 0.15239645171 0.026898694482 0.98795332974 0.21024788332 0.091596371736 0.97334779614 
0.23472195722 0.12763774777 0.96364630863 0.1995201561 0.069297794906 0.97744029124 0.048385998147 -0.17782885114 0.98287114867 
-0.21059962447 -0.5803824315 0.78664097998 -0.33891800817 -0.79587245271 0.50171866894 -0.36069383641 -0.86317245881 0.35331750979 
-0.35737950676 -0.88777843712 0.29005057273 -0.35153626972 -0.89741094058 0.2666005529 -0.34795694652 -0.90095663822 0.25923560599 
-0.34756522157 -0.90125408261 0.25872668077 -0.35894806826 -0.89352957545 0.2697428073 -0.39227817386 -0.87007786899 0.29846664171 
-0.44901115088 -0.8229434715 0.34807043697 -0.53235297395 -0.73326756228 0.42298817151 -0.68056030104 -0.50622089946 0.52969621256 
-0.91018437384 0.15362223795 0.38466168724 -0.85642214939 0.49973217755 -0.12964895971 -0.75683172687 0.53231184846 -0.37927540548 
-0.67634257402 0.52552531981 -0.51612388126 -0.63543128318 0.51856657123 -0.57211519431 -0.66073073549 0.52228118587 -0.53912638414 
-0.75113586406 0.5250131459 -0.40019509037 -0.84221836784 0.50153122492 -0.19782479952 -0.88885009091 0.45736742472 -0.027578156211 
-0.90752120582 0.41089963968 0.086987051298 -0.91559840707 0.36325459021 0.17241130953 -0.91781978997 0.30587709559 0.25307318215 
-0.91138330445 0.22933889263 0.34173695248 -0.88840459421 0.12708906606 0.44111863061 -0.8405340308 0.0016393826423 0.54175626946 
-0.76629204705 -0.13366518553 0.62843465595 -0.67134398397 -0.26058100062 0.69382620108 -0.5582216423 -0.3663511052 0.74442962447 
-0.44305044064 -0.43259297513 0.78521947563 -0.36720812841 -0.45493526302 0.81129038999 -0.33944247297 -0.45820260067 0.82147987455 
-0.33676289761 -0.45827980162 0.82253898036 -0.3373472565 -0.45828829944 0.82229475441 -0.32543903899 -0.45759879502 0.82746164545 
-0.29966756655 -0.45428371472 0.83894317811 -0.27558419909 -0.44906296451 0.84993870551 -0.27676447867 -0.44939301303 0.8493805644 
-0.32549618501 -0.46244460332 0.8247407001 -0.44319253528 -0.48009829738 0.75702443919 -0.63249105486 -0.46339977115 0.62065748817 
-0.82826211945 -0.36920318101 0.42151022837 -0.94602423225 -0.23021764774 0.22811836108 -0.98875729186 -0.11360065538 0.097231213589 
-0.99801233472 -0.050304647014 0.037958164347 -0.9984727186 -0.044097435487 0.03328132214 -0.99512104119 -0.081814759217 0.055140353216 
-0.98746525976 -0.1363066317 0.07957928699 -0.9774888029 -0.18647882924 0.098697955675 -0.96421766867 -0.2373304632 0.11814625965 
-0.96421766867 -0.2373304632 0.11814625965 
