# vtk DataFile Version 4.2
vtk output
ASCII
DATASET POLYDATA
POINTS 64 float
0 0 0 -0.9707 0.202182 0.326823 -1.86397 0.495795 0.618027 
-2.77932 0.810895 0.922195 -3.70388 1.07489 1.24744 -4.64224 1.20996 1.607 
-5.57188 1.12465 2.0002 -6.4303 0.761172 2.39557 -7.16558 0.155513 2.74068 
-7.77239 -0.617284 2.98948 -8.25701 -1.50086 3.0972 -8.61011 -2.44652 3.01169 
-8.81117 -3.3885 2.69852 -8.85431 -4.26139 2.18574 -8.75692 -5.03743 1.54069 
-8.54293 -5.72345 0.825041 -8.23479 -6.34307 0.0833481 -7.85252 -6.92694 -0.652978 
-7.41463 -7.51066 -1.3578 -6.93915 -8.13738 -1.99808 -6.4529 -8.86486 -2.50918 
-6.03902 -9.75968 -2.72453 -5.96505 -10.6814 -2.35282 -6.33437 -11.2351 -1.59391 
-6.93864 -11.4319 -0.806395 -7.65657 -11.3611 -0.0951783 -8.41093 -11.0759 0.518793 
-9.13662 -10.6268 1.06657 -9.77883 -10.0793 1.62906 -10.2597 -9.55669 2.35013 
-10.4193 -9.36335 3.32185 -10.2337 -9.66253 4.2677 -9.87488 -10.2655 4.9973 
-9.4576 -11.0359 5.50631 -9.05083 -11.9059 5.83141 -8.69797 -12.8364 6.02706 
-8.41011 -13.7997 6.16272 -8.15926 -14.7707 6.31642 -7.8876 -15.7182 6.55525 
-7.52035 -16.5891 6.92115 -6.99916 -17.3067 7.41047 -6.3275 -17.823 7.96632 
-5.5508 -18.1537 8.52785 -4.71101 -18.3398 9.06514 -3.83591 -18.4126 9.57288 
-2.94548 -18.3833 10.0579 -2.05726 -18.2498 10.5292 -1.18619 -18.0136 10.9923 
-0.337496 -17.6962 11.4485 0.496762 -17.3368 11.9005 1.33113 -16.9815 12.3555 
2.17635 -16.6781 12.8273 3.0319 -16.4814 13.3351 3.8734 -16.4639 13.8995 
4.62875 -16.7036 14.5293 5.1875 -17.2262 15.1912 5.48593 -17.9604 15.8212 
5.55308 -18.8045 16.3782 5.44776 -19.6946 16.8523 5.2199 -20.6011 17.2458 
4.90941 -21.5132 17.5651 4.55073 -22.4281 17.8178 4.18808 -23.3227 18.0087 
3.84852 -24.299 18.1577 
LINES 1 65
64 0 1 2 3 4 5 6 7 8 9 10 11 12 13 14 15 16 17 18 19 20 21 22 23 24 25 26 27 28 29 30 31 32 33 34 35 36 37 38 39 40 41 42 43 44 45 46 47 48 49 50 51 52 53 54 55 56 57 58 59 60 61 62 63 

POINT_DATA 64
SCALARS MaximumInscribedSphereRadius float
LOOKUP_TABLE default
0.93 1.32823 1.50375 1.3158 1.24006 1.24 1.24 1.12609 0.978426 
1.13726 1.14068 0.98503 1.1284 1.14648 0.983173 1.10023 1.17316 1.02442 
1.01481 1.19748 1.4024 1.64504 1.61842 0.955571 1.14641 1.44907 1.73244 
1.51895 1.35125 1.48798 1.28576 1.24 1.26079 1.30485 1.37697 1.47994 
1.55361 1.34924 1.24 1.24 1.24185 1.48637 2.06085 2.01648 1.86268 
1.86 1.86 1.91542 2.23195 2.34753 1.98475 2.00972 2.18897 2.37853 
2.28038 1.95905 1.88652 1.64099 1.3444 1.55802 1.82314 1.86 1.86 
1.86 
TEXTURE_COORDINATES TCoords 2 float
0 0 0.015873 0 0.031746 0 0.047619 0 0.0634921 
0 0.0793651 0 0.0952381 0 0.111111 0 0.126984 0 
0.142857 0 0.15873 0 0.174603 0 0.190476 0 0.206349 
0 0.222222 0 0.238095 0 0.253968 0 0.269841 0 
0.285714 0 0.301587 0 0.31746 0 0.333333 0 0.349206 
0 0.365079 0 0.380952 0 0.396825 0 0.412698 0 
0.428571 0 0.444444 0 0.460317 0 0.47619 0 0.492063 
0 0.507937 0 0.52381 0 0.539683 0 0.555556 0 
0.571429 0 0.587302 0 0.603175 0 0.619048 0 0.634921 
0 0.650794 0 0.666667 0 0.68254 0 0.698413 0 
0.714286 0 0.730159 0 0.746032 0 0.761905 0 0.777778 
0 0.793651 0 0.809524 0 0.825397 0 0.84127 0 
0.857143 0 0.873016 0 0.888889 0 0.904762 0 0.920635 
0 0.936508 0 0.952381 0 0.968254 0 0.984127 0 
1 0 
FIELD FieldData 4
Curvature 1 64 float
0.148811 0.0730315 0.0138388 0.0419577 0.0966647 0.15428 0.195937 0.187323 0.155247 
0.144515 0.162581 0.185083 0.177413 0.146745 0.11291 0.0834187 0.0586234 0.043338 
0.0635885 0.124861 0.261329 0.498967 0.49322 0.29364 0.206434 0.160562 0.122243 
0.102802 0.186381 0.384456 0.424605 0.287595 0.197798 0.145197 0.105291 0.0653645 
0.0332184 0.065399 0.122353 0.169862 0.17733 0.145555 0.107902 0.0815419 0.0705759 
0.0725117 0.0719311 0.0570708 0.0335374 0.0195435 0.0376116 0.0763157 0.128923 0.190452 
0.234531 0.230327 0.183137 0.135271 0.0999766 0.0738773 0.0587839 0.0583107 0.0908871 
0.175079 
Torsion 1 64 float
0.0132833 0.0510281 1.20584 0.165916 0.0338418 0.0276395 0.0430847 0.0839721 0.138722 
0.145967 0.10033 0.036067 -0.0172792 -0.0538952 -0.0904131 -0.139885 -0.265847 -0.502279 
-0.324272 -0.114872 -0.067464 -0.0742498 -0.0905061 -0.058032 -0.00198485 0.0861128 0.265596 
0.513569 0.349182 0.170133 0.0692419 0.0506903 0.0841487 0.136988 0.201168 0.388578 
1.15648 0.460868 0.179468 0.121567 0.0917377 0.0736787 0.0415578 -0.0283939 -0.102121 
-0.0943496 -0.0491619 -0.0126378 -0.00495926 -0.059858 0.0403474 0.0440232 0.0533039 0.0523079 
0.0386007 0.017215 -0.00709017 -0.0267373 -0.0528023 -0.0909548 -0.153945 -0.199198 -0.147939 
-0.0941672 
Abscissas 1 64 double
0 1.0440067459 2.0283508325 3.0430793123 4.0581069388 5.0720365922 6.0850116362 7.0975854909 8.1107819324 
9.1243562073 10.137849207 11.150902504 12.163732072 13.177017751 14.190823344 15.205008297 16.219396537 17.233897266 
18.248409283 19.262725989 20.276078036 21.285222527 22.281825628 23.291219917 24.303187378 25.316234852 26.329834521 
27.343937312 28.358086399 29.370196865 30.373725989 31.382977022 32.395199116 33.408484268 34.422387148 35.436615453 
36.451145329 37.465686146 38.479901659 39.493439478 40.506347978 41.519628306 42.53349368 43.547677467 44.562018151 
45.57638691 46.590737047 47.605117592 48.619625531 49.634224272 50.648810987 51.663277657 52.67740543 53.690820931 
54.703075916 55.714679094 56.727173022 57.74065972 58.754608776 59.768845838 60.783857529 61.798486658 62.782503227 
63.826879559 
ParallelTransportNormals 3 64 double
0.31908738972 0 0.94772529655 0.31061815675 0.0022677153669 0.95053207109 0.31553248706 0.00061431813435 0.94891457583 
0.33078054376 -0.0041849174049 0.94369842552 0.35657447859 -0.0097093444781 0.934216447 0.39035711412 -0.010607339165 0.92060241571 
0.41948165452 -0.0032964037094 0.90775782852 0.42489534689 -4.655832347e-06 0.9052424781 0.40331214071 -0.022171823567 0.91479381688 
0.36175838665 -0.085235045728 0.92836730698 0.30938793834 -0.19959455449 0.92975325621 0.26389768835 -0.3545524404 0.89702317534 
0.24430785227 -0.50012114526 0.83077825765 0.24761633344 -0.60074403126 0.76012680542 0.25963457561 -0.657177633 0.70760684411 
0.2692136709 -0.68113189245 0.68086955027 0.26946118902 -0.6815633584 0.6803396623 0.2549772638 -0.6609438053 0.70579025296 
0.21782193906 -0.61170378144 0.7605077821 0.14139243846 -0.50408170965 0.85200340864 -0.0067758755923 -0.23693521644 0.97150182229 
-0.16567198208 0.35736867514 0.91915201375 -0.073617518787 0.82239788966 0.56412957023 0.089192462783 0.94802093281 0.30545214934 
0.2343992007 0.96188331842 0.14084564763 0.36813241482 0.92954797919 0.02047143223 0.48532013931 0.87140693748 -0.071514416018 
0.56887474827 0.81053574535 -0.13933171315 0.59637788226 0.78432780835 -0.17077268691 0.55929665588 0.82579238649 -0.072485758187 
0.56216756459 0.81383260265 0.14711942147 0.61256087515 0.73032296455 0.30232026345 0.67162010496 0.62581323377 0.39659076017 
0.72929504883 0.51100683451 0.4549733474 0.77726129382 0.39731705211 0.48785657855 0.80621900081 0.31172453797 0.50283072218 
0.81227668406 0.2899742481 0.5060845028 0.79528692608 0.35235348475 0.49332111954 0.74337923199 0.50008299377 0.4441895055 
0.63527561052 0.69335284688 0.34012751785 0.48303208535 0.85084799768 0.20673095892 0.3334578721 0.93833018307 0.091336274684 
0.21130468994 0.97738499003 0.0083011613438 0.11259692032 0.99228698145 -0.051850554226 0.02295076305 0.99449323015 -0.10225691989 
-0.068025362889 0.98616419537 -0.15117119361 -0.15683712707 0.96750335322 -0.19834156668 -0.22672594732 0.94500766211 -0.23570291338 
-0.26271322773 0.93053416775 -0.25512334787 -0.25888856452 0.93217227001 -0.25304460117 -0.21370351045 0.94989303655 -0.22810968577 
-0.12096272692 0.97716447709 -0.17469288309 0.031735895672 0.99643106554 -0.078217418528 0.24142482979 0.96723023258 0.078611250709 
0.45199756961 0.84506268006 0.28559983165 0.58351918097 0.65226107839 0.48379835784 0.62734957028 0.46309818173 0.62607714441 
0.62395112882 0.3085508103 0.71797032411 0.60125735656 0.18616558578 0.77706625577 0.57286491266 0.090244105376 0.81466667619 
0.54612002386 0.017228203169 0.83752976577 0.52644095722 -0.032124550364 0.8496045738 0.51951291195 -0.050541179661 0.852966543 
0.51951291195 -0.050541179661 0.852966543 
