# vtk DataFile Version 4.2
vtk output
ASCII
DATASET POLYDATA
POINTS 64 float
0 0 0 -0.827681 0.188902 0.613051 -1.70803 0.357177 0.994664 
-2.67897 0.459054 1.30015 -3.66336 0.406119 1.5341 -4.60976 0.114407 1.74762 
-5.44936 -0.401236 1.98734 -6.21152 -0.999081 2.28923 -6.97656 -1.55823 2.65145 
-7.78674 -2.03522 3.03247 -8.65763 -2.43253 3.36815 -9.59108 -2.7797 3.55733 
-10.5311 -3.12242 3.41219 -11.2426 -3.46655 2.78642 -11.5713 -3.76263 1.87472 
-11.6263 -3.99365 0.889028 -11.5017 -4.18903 -0.0984216 -11.2287 -4.42451 -1.04626 
-10.8216 -4.76196 -1.91142 -10.3146 -5.17766 -2.6855 -9.7421 -5.62787 -3.39136 
-9.12277 -6.09361 -4.04836 -8.45908 -6.5836 -4.6338 -7.72129 -7.15701 -5.00103 
-7.30116 -7.64977 -4.31311 -7.44986 -7.7528 -3.2929 -7.69742 -7.79511 -2.31244 
-8.01351 -7.78377 -1.34888 -8.35407 -7.68841 -0.397861 -8.62416 -7.45817 0.551934 
-8.68908 -7.1253 1.50706 -8.51709 -6.85395 2.46841 -8.1955 -6.797 3.4277 
-7.83251 -7.04832 4.33901 -7.52115 -7.65234 5.08849 -7.31583 -8.53715 5.53334 
-7.21047 -9.53884 5.64461 -7.15747 -10.5464 5.54027 -7.11452 -11.5453 5.36731 
-7.05389 -12.5529 5.26725 -6.96088 -13.5583 5.35656 -6.83335 -14.5249 5.63618 
-6.659 -15.4452 6.02568 -6.40182 -16.3236 6.46298 -6.00076 -17.1372 6.91612 
-5.39114 -17.8063 7.37117 -4.57978 -18.2166 7.81685 -3.67421 -18.3503 8.2527 
-2.76553 -18.306 8.70148 -1.88246 -18.1824 9.18543 -1.02491 -18.0389 9.70829 
-0.183412 -17.9042 10.2589 0.654438 -17.7854 10.8186 1.4975 -17.6753 11.3723 
2.34541 -17.5606 11.9175 3.19239 -17.4355 12.4619 4.03475 -17.3095 13.0133 
4.87146 -17.2084 13.5782 5.69834 -17.1786 14.1651 6.49234 -17.2989 14.784 
7.17353 -17.6853 15.4249 7.59387 -18.4012 16.0146 7.71786 -19.2596 16.4567 
7.61306 -20.2454 16.7955 
LINES 1 65
64 0 1 2 3 4 5 6 7 8 9 10 11 12 13 14 15 16 17 18 19 20 21 22 23 24 25 26 27 28 29 30 31 32 33 34 35 36 37 38 39 40 41 42 43 44 45 46 47 48 49 50 51 52 53 54 55 56 57 58 59 60 61 62 63 

POINT_DATA 64
SCALARS MaximumInscribedSphereRadius float
LOOKUP_TABLE default
0.93 1.32692 1.4751 1.30495 1.25638 1.2628 1.33998 1.47975 1.34095 
1.06488 1.19527 1.17692 0.759481 1.10077 1.24 1.0897 0.889119 0.919969 
0.93 0.93 0.959627 1.14301 1.43091 1.74714 1.48783 1.29018 1.43144 
1.46646 1.2533 1.01969 1.23523 1.54809 1.51649 1.3316 1.24 1.37892 
1.76955 1.86 1.81414 1.6187 1.55013 1.56956 1.75387 1.85448 1.86 
1.50989 1.24 1.24 1.24 1.24 1.24 1.24 1.27424 1.47332 
1.67939 1.8396 1.67594 1.55771 1.58669 1.73358 1.93863 2.09101 2.00865 
1.86 
TEXTURE_COORDINATES TCoords 2 float
0 0 0.015873 0 0.031746 0 0.047619 0 0.0634921 
0 0.0793651 0 0.0952381 0 0.111111 0 0.126984 0 
0.142857 0 0.15873 0 0.174603 0 0.190476 0 0.206349 
0 0.222222 0 0.238095 0 0.253968 0 0.269841 0 
0.285714 0 0.301587 0 0.31746 0 0.333333 0 0.349206 
0 0.365079 0 0.380952 0 0.396825 0 0.412698 0 
0.428571 0 0.444444 0 0.460317 0 0.47619 0 0.492063 
0 0.507937 0 0.52381 0 0.539683 0 0.555556 0 
0.571429 0 0.587302 0 0.603175 0 0.619048 0 0.634921 
0 0.650794 0 0.666667 0 0.68254 0 0.698413 0 
0.714286 0 0.730159 0 0.746032 0 0.761905 0 0.777778 
0 0.793651 0 0.809524 0 0.825397 0 0.84127 0 
0.857143 0 0.873016 0 0.888889 0 0.904762 0 0.920635 
0 0.936508 0 0.952381 0 0.968254 0 0.984127 0 
1 0 
FIELD FieldData 4
Curvature 1 64 float
0.264091 0.164341 0.117959 0.141423 0.201874 0.200465 0.120652 0.0819893 0.0818516 
0.0906714 0.146591 0.283778 0.434781 0.38259 0.228465 0.140127 0.127748 0.15555 
0.153309 0.110801 0.0656808 0.0901078 0.269082 0.99259 0.683664 0.162888 0.0680161 
0.0948102 0.147299 0.192928 0.202395 0.21206 0.247125 0.309714 0.336518 0.292279 
0.178968 0.0578733 0.0622927 0.15173 0.160265 0.106425 0.0844767 0.131008 0.209268 
0.262823 0.2325 0.146451 0.0730252 0.0409351 0.028259 0.0190041 0.0121607 0.0109967 
0.0152717 0.0145458 0.0224861 0.0612172 0.129249 0.231869 0.332802 0.331634 0.258047 
0.189975 
Torsion 1 64 float
0.117683 0.259073 0.43049 0.334691 0.19673 0.242358 0.586186 0.574765 0.423946 
0.48155 0.360903 0.182221 0.0911879 0.0172428 -0.0138899 0.198548 0.438131 0.135136 
-0.0493015 -0.0573621 0.00978499 0.0699742 0.02982 0.0226864 0.0423019 0.0208334 -0.213447 
-0.340827 -0.354207 -0.496321 -0.562958 -0.411791 -0.209239 -0.0388396 0.0410522 0.0560822 
0.0610349 0.156329 0.242522 0.0195636 -0.0650737 -0.288697 -0.421662 -0.111825 0.0607168 
0.0986295 0.143886 0.237879 0.423781 0.535045 0.469707 0.532275 0.762309 0.787631 
0.297551 0.39634 0.378805 0.0709447 0.00089284 -0.013991 -0.0116363 -0.00685443 -0.00351915 
-0.00186517 
Abscissas 1 64 double
0 1.0471728001 2.0213225072 3.0442701026 4.0574583163 5.0705586801 6.0845993698 7.0992128798 8.1136797857 
9.1281159782 10.142503274 11.156236028 12.167294691 13.175365922 14.188720464 15.202620876 16.216898109 17.230972506 
18.244964035 19.259369247 20.273605034 21.289538777 22.301135038 23.305122811 24.249872965 25.285993665 26.298104396 
27.312254479 28.326903292 29.340839948 30.354385847 31.367994617 32.38136053 33.393983864 34.405661385 35.417068669 
36.430415632 37.444796694 38.459451637 39.473797588 40.487456254 41.50166478 42.516111014 43.530514105 44.544470331 
45.55756506 46.570156859 47.584012983 48.598435891 49.612976716 50.627553156 51.642148772 52.656751111 53.671354049 
54.685957314 55.700560965 56.71516472 57.729746427 58.744192009 59.75803993 60.770019933 61.788346695 62.761801507 
63.809533351 
ParallelTransportNormals 3 64 double
0.59519895402 0 0.80357837523 0.40381129227 0.039894215264 0.91397204105 0.30487422778 0.054435823466 0.95083565686 
0.22798495832 0.056331148857 0.97203377537 0.20446348029 0.052132419266 0.9774849851 0.23602290221 0.06639648468 0.9694765064 
0.29313163144 0.1060951471 0.95016717814 0.33814258121 0.14019513111 0.9305938534 0.34868707933 0.14713106292 0.92561858831 
0.3065664485 0.12522488721 0.94357603842 0.17302387046 0.070126811689 0.98241792051 -0.13676551915 -0.043945958659 0.98962818548 
-0.57864787266 -0.22775703817 0.78313049426 -0.82446419051 -0.37893862392 0.42031454634 -0.87811180441 -0.45262650072 0.15507710919 
-0.87217287973 -0.48901659761 -0.013312968398 -0.85072502011 -0.51225988726 -0.11771468925 -0.82680875476 -0.53240672016 -0.18146726254 
-0.80116547641 -0.55353372466 -0.22745174228 -0.77544496349 -0.57416588032 -0.2627140089 -0.75216487095 -0.59205766126 -0.28933671156 
-0.72727406909 -0.6105985659 -0.31343551131 -0.67710815984 -0.64866653452 -0.34750002427 -0.48970378881 -0.82227323832 -0.28992571594 
-0.46613343023 -0.87087308804 -0.15588357757 -0.46624747979 -0.87091459328 -0.15530955796 -0.46958517907 -0.87109836709 -0.14379636454 
-0.48872772381 -0.86798862542 -0.087982714926 -0.53393377257 -0.84387991484 0.052739130076 -0.56627467203 -0.78950980442 0.23665853996 
-0.56182680436 -0.7644080473 0.31627674452 -0.58117885433 -0.77727837557 0.24097606966 -0.65093084019 -0.75746308969 0.050385603601 
-0.75102103475 -0.6304814385 -0.19611364325 -0.83465475185 -0.38947237689 -0.38943897193 -0.87519673625 -0.14338557031 -0.46202949157 
-0.88659948652 0.0012634316189 -0.46253621939 -0.8884968971 0.040944298463 -0.45705232552 -0.88600757025 -0.007278359501 -0.46361364404 
-0.87722071816 -0.1223900383 -0.46422461175 -0.86386454943 -0.24181847617 -0.44188444736 -0.84911064112 -0.33403738948 -0.40918228403 
-0.8272706835 -0.42507213884 -0.36733757363 -0.77819233896 -0.55122276642 -0.30094874208 -0.65691268616 -0.72911607677 -0.19197778349 
-0.42971503626 -0.9016895904 -0.047967386572 -0.1826472899 -0.98000823727 0.078891205927 -0.02799532659 -0.98762746182 0.15429924933 
0.03483786761 -0.98174043244 0.18700814501 0.046057582909 -0.9800190218 0.19349784488 0.035098161199 -0.98181378966 0.18657385002 
0.021048340958 -0.98393451714 0.17728461105 0.014862794853 -0.98477673882 0.17318738985 0.019734902991 -0.98412901078 0.17635368936 
0.028341408207 -0.98291094539 0.18188688248 0.028067325673 -0.98295169071 0.18170910533 0.006194735445 -0.98590890455 0.16716834984 
-0.053568729214 -0.99060942137 0.1257909597 -0.17602739761 -0.98377376411 0.034692021285 -0.38350147714 -0.91247986181 -0.14250304848 
-0.61094562997 -0.68525416794 -0.39644944514 -0.70760899854 -0.40163901462 -0.58135669526 -0.71123901209 -0.15968717253 -0.68457218364 
-0.71123901209 -0.15968717253 -0.68457218364 
