# vtk DataFile Version 4.2
vtk output
ASCII
DATASET POLYDATA
POINTS 64 float
0 0 0 -0.821064 -0.535507 0.369001 -1.66674 -0.870244 0.727126 
-2.59469 -1.0775 1.09022 -3.5472 -1.18198 1.4249 -4.51126 -1.27316 1.72708 
-5.46878 -1.45945 2.00459 -6.37631 -1.82111 2.27529 -7.19502 -2.34883 2.55745 
-7.93974 -2.97177 2.85158 -8.66197 -3.62859 3.12784 -9.41378 -4.28364 3.31301 
-10.2121 -4.90561 3.27248 -10.962 -5.44664 2.86468 -11.5029 -5.88671 2.13125 
-11.7797 -6.26862 1.23465 -11.8116 -6.63132 0.28869 -11.6381 -6.9927 -0.642616 
-11.3071 -7.36243 -1.52713 -10.8664 -7.75229 -2.35345 -10.3578 -8.18464 -3.11706 
-9.81766 -8.70559 -3.79948 -9.29505 -9.41575 -4.30775 -9.00499 -10.3346 -4.151 
-9.09108 -10.8233 -3.27651 -9.28171 -10.8758 -2.28454 -9.49633 -10.6517 -1.31935 
-9.7324 -10.2433 -0.421644 -10.0016 -9.7505 0.423321 -10.2851 -9.26576 1.2683 
-10.523 -8.86076 2.16715 -10.6515 -8.60173 3.13855 -10.6442 -8.54587 4.15025 
-10.5174 -8.72438 5.13949 -10.3006 -9.16047 6.02725 -10.0303 -9.88712 6.676 
-9.78949 -10.8496 6.8417 -9.67603 -11.7978 6.50758 -9.67908 -12.6547 5.96517 
-9.76431 -13.4971 5.40641 -9.91029 -14.3963 4.96143 -10.0772 -15.3724 4.74808 
-10.1981 -16.3772 4.79947 -10.2134 -17.361 5.04396 -10.0777 -18.2989 5.40419 
-9.74597 -19.1518 5.8394 -9.18174 -19.8317 6.33367 -8.41781 -20.2201 6.87166 
-7.58174 -20.3092 7.43739 -6.76665 -20.2319 8.03629 -5.98792 -20.1221 8.67724 
-5.22894 -20.047 9.3463 -4.4645 -20.0073 10.0122 -3.66943 -19.9554 10.6402 
-2.83451 -19.8276 11.2017 -1.97671 -19.5891 11.6875 -1.1207 -19.2589 12.1205 
-0.276052 -18.8981 12.5515 0.55718 -18.6019 13.0479 1.34708 -18.5204 13.6759 
1.95783 -18.8205 14.4214 2.26991 -19.4511 15.1532 2.34138 -20.1942 15.7835 
2.22906 -21.0466 16.3821 
LINES 1 65
64 0 1 2 3 4 5 6 7 8 9 10 11 12 13 14 15 16 17 18 19 20 21 22 23 24 25 26 27 28 29 30 31 32 33 34 35 36 37 38 39 40 41 42 43 44 45 46 47 48 49 50 51 52 53 54 55 56 57 58 59 60 61 62 63 

POINT_DATA 64
SCALARS MaximumInscribedSphereRadius float
LOOKUP_TABLE default
1.24 1.05122 1.20613 1.76312 1.86 1.86 1.764 1.26257 1.116 
1.08475 0.970731 0.785464 0.715146 0.9195 0.948644 1.10244 1.15793 0.976189 
0.93 1.09312 1.47604 1.73498 1.58284 1.42712 1.39055 1.33937 1.61071 
1.9863 1.78551 1.66694 1.78439 1.60712 1.70561 1.84641 1.86 1.84396 
1.53798 1.24 1.24 1.24 1.24 1.2072 1.03788 1.02225 1.22041 
1.42587 1.55 1.58598 1.75225 1.52662 1.31127 1.49697 1.55 1.55 
1.60374 1.92736 2.01026 1.62703 1.55334 1.7049 1.93855 1.9152 2.15078 
2.48 
TEXTURE_COORDINATES TCoords 2 float
0 0 0.015873 0 0.031746 0 0.047619 0 0.0634921 
0 0.0793651 0 0.0952381 0 0.111111 0 0.126984 0 
0.142857 0 0.15873 0 0.174603 0 0.190476 0 0.206349 
0 0.222222 0 0.238095 0 0.253968 0 0.269841 0 
0.285714 0 0.301587 0 0.31746 0 0.333333 0 0.349206 
0 0.365079 0 0.380952 0 0.396825 0 0.412698 0 
0.428571 0 0.444444 0 0.460317 0 0.47619 0 0.492063 
0 0.507937 0 0.52381 0 0.539683 0 0.555556 0 
0.571429 0 0.587302 0 0.603175 0 0.619048 0 0.634921 
0 0.650794 0 0.666667 0 0.68254 0 0.698413 0 
0.714286 0 0.730159 0 0.746032 0 0.761905 0 0.777778 
0 0.793651 0 0.809524 0 0.825397 0 0.84127 0 
0.857143 0 0.873016 0 0.888889 0 0.904762 0 0.920635 
0 0.936508 0 0.952381 0 0.968254 0 0.984127 0 
1 0 
FIELD FieldData 4
Curvature 1 64 float
0.142645 0.14032 0.120654 0.0802495 0.0389238 0.0730718 0.133443 0.141875 0.0951104 
0.0411439 0.0798644 0.182808 0.281592 0.295874 0.231709 0.182296 0.149235 0.119889 
0.091922 0.0738056 0.0987068 0.209308 0.582337 0.723465 0.339625 0.202465 0.143892 
0.0768071 0.0332756 0.0806681 0.143549 0.180403 0.189337 0.210401 0.276494 0.396781 
0.387772 0.199692 0.0790437 0.105414 0.179395 0.197398 0.161306 0.141166 0.164835 
0.218996 0.261231 0.227939 0.128446 0.0551973 0.0395934 0.029852 0.0385997 0.0789077 
0.0994263 0.0803632 0.0362557 0.0774532 0.19576 0.322066 0.33645 0.244425 0.171301 
0.127352 
Torsion 1 64 float
-0.0201394 -0.0371904 -0.0714671 -0.216712 -1.03392 -0.414376 -0.139501 -0.095211 -0.00114118 
0.666514 0.282692 -0.062827 -0.127008 -0.180338 -0.184002 -0.133994 -0.0942643 -0.0968435 
-0.160108 -0.317652 -0.261086 -0.0593244 0.0604239 0.131817 0.0748893 -0.00563803 -0.129777 
-0.394061 -0.946984 -0.198631 -0.0166888 0.0648426 0.0878719 0.0778811 0.0573612 0.0489905 
0.074569 0.207221 0.857719 0.444751 0.169186 0.179294 0.259821 0.237402 0.0793072 
-0.0323736 -0.0981502 -0.15671 -0.339704 -0.800322 -0.606511 -0.956814 -0.775621 -0.226159 
-0.121142 -0.136674 -0.718803 -0.442573 -0.0528884 -0.00940543 0.0278298 0.0428651 0.0388527 
0.0321303 
Abscissas 1 64 double
0 1.0474131912 2.0248980778 3.0426758342 4.0576647923 5.0720877859 6.0862645067 7.100012237 8.1141054828 
9.1285940107 10.143161812 11.157353362 12.170210209 13.1808352 14.192815754 15.205899828 16.219515754 17.23343465 
18.247647774 19.262037293 20.276296886 21.290622299 22.308352592 23.284583937 24.29005462 25.301532023 26.315359017 
27.329475464 28.344023239 29.358579561 30.372742679 31.38626451 32.399532714 33.41271743 34.42529227 35.436221141 
36.442061674 37.45384377 38.467993128 39.482466891 40.496302505 41.509289948 42.522649087 43.536492229 44.550294352 
45.563645858 46.576021718 47.587907919 48.601313463 49.615725647 50.630281152 51.644834109 52.65942211 53.67390911 
54.688156214 55.702416745 56.716909042 57.731509054 58.745639015 59.758013977 60.767422237 61.78254935 62.759631597 
63.807210978 
ParallelTransportNormals 3 64 double
0.40992315385 0 0.91212006224 0.39289411335 -0.0088159076905 0.91954145935 0.36754707852 -0.016605661137 0.92985665405 
0.3335933638 -0.022231711836 0.94245488943 0.30119430444 -0.025539137015 0.95322072127 0.28329645807 -0.028123615984 0.95861993463 
0.29479925168 -0.024743806003 0.95523878966 0.32970649447 -0.0067598594888 0.94405928405 0.35741991717 0.013636165664 0.93384423637 
0.35092649018 0.0079713185768 0.93636908138 0.28223578066 -0.053161882967 0.9578709612 0.10543067253 -0.19880758801 0.97435102311 
-0.18398055877 -0.41619428486 0.89046811916 -0.42710739549 -0.60098756965 0.67556880763 -0.53250498935 -0.70693359155 0.46549257078 
-0.55798345018 -0.76837208575 0.31346260887 -0.55025746848 -0.80790195674 0.21097664961 -0.5329627051 -0.83296490106 0.14872870797 
-0.52053640161 -0.84519676912 0.12117869476 -0.52429603726 -0.84194041048 0.12747552912 -0.55929911215 -0.81012399769 0.17573733672 
-0.66047092519 -0.69295846309 0.28911368943 -0.89600250245 -0.21673038451 0.38756606667 -0.96586353701 0.2547052119 0.047253390467 
-0.93472933423 0.31580461382 -0.16293715852 -0.91177975789 0.30610599777 -0.27378237931 -0.8908724996 0.2767666829 -0.36020326581 
-0.87317356487 0.2452007394 -0.42124164443 -0.87036916722 0.24024092249 -0.42981602102 -0.89120982721 0.27580943476 -0.36010304024 
-0.92069018739 0.32924477077 -0.20958878729 -0.93269556328 0.36042194437 -0.013229068468 -0.91969947476 0.34852906939 0.18077711114 
-0.8870351698 0.2901057059 0.35917584405 -0.83331850578 0.16188614744 0.52855760631 -0.7603873098 -0.079250871712 0.64461650494 
-0.71828691181 -0.30609398669 0.6247962737 -0.71421878557 -0.37253119759 0.59254707253 -0.71234514543 -0.33646106096 0.61592073211 
-0.69737818698 -0.22372722904 0.68088897136 -0.6680727686 -0.04807750433 0.74254112979 -0.64420526939 0.11619008016 0.75597581718 
-0.63881219033 0.19489952654 0.74426686077 -0.63873054788 0.19359663436 0.74467686306 -0.62653834416 0.14689292738 0.76542287082 
-0.59303010671 0.08957659762 0.80018205785 -0.55466128209 0.058717433498 0.83000188262 -0.55513406382 0.058858611974 0.82967574086 
-0.59471232725 0.059143546588 0.80176011918 -0.63909481972 0.053931117644 0.76723480497 -0.6632439917 0.051027097723 0.74666166553 
-0.657494974 0.051460153633 0.75169954886 -0.62108149089 0.053599688147 0.78191102762 -0.56335662467 0.059963559341 0.82403500228 
-0.50664059984 0.072236541107 0.8591258259 -0.47501814063 0.082729141091 0.87607856684 -0.48015570621 0.080641652773 0.87346861514 
-0.52710051973 0.062259472634 0.84751920342 -0.62430368542 0.039651376584 0.78017477318 -0.75997539095 0.060884266214 0.6470938968 
-0.85348266741 0.15500412593 0.49753498106 -0.88078673468 0.25413507399 0.39953734766 -0.8787906991 0.34635846104 0.32827233153 
-0.8787906991 0.34635846104 0.32827233153 
