# vtk DataFile Version 4.2
vtk output
ASCII
DATASET POLYDATA
POINTS 64 float
0 0 0 -0.765609 -0.0282471 0.686972 -1.58753 0.0406513 1.2542 
-2.46946 0.128777 1.74401 -3.39315 0.17748 2.16002 -4.34573 0.130026 2.50444 
-5.30059 -0.0750595 2.77519 -6.20057 -0.495354 2.97273 -6.97124 -1.1373 3.11343 
-7.5935 -1.92949 3.2281 -8.12724 -2.78692 3.32379 -8.64142 -3.66075 3.33167 
-9.11838 -4.51046 3.06551 -9.38953 -5.24656 2.43028 -9.37051 -5.8816 1.64195 
-9.1046 -6.48852 0.875466 -8.65962 -7.08204 0.184277 -8.10596 -7.65912 -0.439674 
-7.48843 -8.22982 -1.00718 -6.8219 -8.81739 -1.49629 -6.09481 -9.47341 -1.75169 
-5.65157 -10.0406 -1.127 -5.81973 -10.2355 -0.151219 -6.28985 -10.2711 0.744312 
-6.97275 -10.1522 1.48184 -7.74776 -9.84518 2.05763 -8.48649 -9.36035 2.55447 
-9.10546 -8.74558 3.07052 -9.52508 -8.06768 3.69418 -9.58695 -7.47418 4.50458 
-9.10514 -7.37543 5.36565 -8.43759 -7.87589 5.93099 -7.91633 -8.67666 6.2634 
-7.61366 -9.61781 6.48423 -7.49701 -10.6065 6.67711 -7.45426 -11.5928 6.9105 
-7.29369 -12.5324 7.25163 -6.81678 -13.284 7.72573 -6.08161 -13.7283 8.26013 
-5.2499 -13.9206 8.8061 -4.39776 -13.9201 9.35526 -3.55997 -13.7526 9.90123 
-2.75007 -13.4534 10.4335 -1.94651 -13.104 10.9451 -1.10278 -12.824 11.4328 
-0.203104 -12.7247 11.8881 0.71019 -12.8454 12.3104 1.58045 -13.1538 12.7289 
2.35582 -13.6161 13.1897 2.95908 -14.2225 13.7314 3.27128 -14.9599 14.3482 
3.21538 -15.7656 14.9562 2.8559 -16.5629 15.4666 2.3165 -17.3246 15.8625 
1.68998 -18.0592 16.1737 1.03587 -18.7884 16.438 0.40024 -19.5427 16.6751 
-0.165793 -20.3628 16.8625 -0.59074 -21.2798 16.9254 -0.811969 -22.2585 16.7921 
-0.853158 -23.2226 16.4826 -0.794207 -24.1419 16.0624 -0.707892 -25.0148 15.5804 
-0.663954 -25.8886 15.0368 
LINES 1 65
64 0 1 2 3 4 5 6 7 8 9 10 11 12 13 14 15 16 17 18 19 20 21 22 23 24 25 26 27 28 29 30 31 32 33 34 35 36 37 38 39 40 41 42 43 44 45 46 47 48 49 50 51 52 53 54 55 56 57 58 59 60 61 62 63 

POINT_DATA 64
SCALARS MaximumInscribedSphereRadius float
LOOKUP_TABLE default
0.93 1.39746 1.45724 1.27435 1.24968 1.11171 0.966041 1.18903 1.24 
1.24 1.24 1.24 1.45098 1.55 1.18674 0.718944 0.857648 1.17085 
1.54378 1.84825 1.77353 2.06292 1.70077 1.72428 1.86 1.86 1.86 
2.04627 2.32693 1.92353 1.86 1.86 1.74899 1.62041 1.84233 1.84222 
1.59992 1.57542 1.74942 1.8593 1.86 1.86 1.97628 2.1075 1.93054 
2.02255 2.23563 2.43035 2.32713 2.16764 2.07448 1.92305 1.86 1.93245 
2.31632 2.48 2.48 2.48 2.15368 1.94599 2.14388 1.96762 1.66611 
1.24 
TEXTURE_COORDINATES TCoords 2 float
0 0 0.015873 0 0.031746 0 0.047619 0 0.0634921 
0 0.0793651 0 0.0952381 0 0.111111 0 0.126984 0 
0.142857 0 0.15873 0 0.174603 0 0.190476 0 0.206349 
0 0.222222 0 0.238095 0 0.253968 0 0.269841 0 
0.285714 0 0.301587 0 0.31746 0 0.333333 0 0.349206 
0 0.365079 0 0.380952 0 0.396825 0 0.412698 0 
0.428571 0 0.444444 0 0.460317 0 0.47619 0 0.492063 
0 0.507937 0 0.52381 0 0.539683 0 0.555556 0 
0.571429 0 0.587302 0 0.603175 0 0.619048 0 0.634921 
0 0.650794 0 0.666667 0 0.68254 0 0.698413 0 
0.714286 0 0.730159 0 0.746032 0 0.761905 0 0.777778 
0 0.793651 0 0.809524 0 0.825397 0 0.84127 0 
0.857143 0 0.873016 0 0.888889 0 0.904762 0 0.920635 
0 0.936508 0 0.952381 0 0.968254 0 0.984127 0 
1 0 
FIELD FieldData 4
Curvature 1 64 float
0.141427 0.093384 0.0619904 0.0544324 0.0714927 0.102518 0.137757 0.15655 0.125063 
0.0651205 0.0685467 0.181245 0.269207 0.214637 0.157621 0.124196 0.0815285 0.0486405 
0.0696497 0.199866 0.649921 0.479712 0.211307 0.180533 0.161124 0.122704 0.105708 
0.139784 0.249113 0.468353 0.431927 0.244925 0.167839 0.114067 0.0622555 0.11131 
0.240788 0.244345 0.15982 0.111107 0.0970457 0.0808201 0.036494 0.0511889 0.113141 
0.134165 0.113266 0.106801 0.139722 0.195198 0.221043 0.188359 0.128282 0.0727433 
0.0319698 0.0299763 0.0685361 0.127519 0.171354 0.152887 0.0953774 0.0487224 0.0468695 
0.106315 
Torsion 1 64 float
-0.092431 -0.170316 -0.302088 -0.332678 -0.190855 -0.117862 -0.0952694 -0.0872403 -0.0714903 
0.233558 0.30105 -0.0559216 -0.191014 -0.275854 -0.186563 -0.031561 -0.0215532 -0.146772 
-0.119326 -0.0342061 -0.0517477 -0.120609 -0.0411988 0.105798 0.255061 0.356081 0.374396 
0.243142 0.124477 0.115053 0.159312 0.202289 0.187139 0.209233 0.611392 0.295301 
0.0562137 -0.0282683 -0.0644165 -0.0569486 -0.0238724 0.0371906 0.441242 0.480657 0.0687017 
0.0918034 0.181232 0.199583 0.0815582 -0.00908859 -0.0530255 -0.0671477 -0.0653798 -0.0742598 
-0.393152 -0.40194 0.0480167 0.0736683 0.0508894 0.0432313 0.0925125 0.373363 0.447156 
0.123468 
Abscissas 1 64 double
0 1.0290219922 2.0300477231 3.0427061608 4.0569233455 5.0709639388 6.0844354573 7.0971718836 8.1099974735 
9.1238669933 10.138371049 11.152283228 12.162404331 13.171807158 14.184271618 15.197466747 16.211377577 17.225716773 
18.240159175 19.254423457 20.266477293 21.219576987 22.228733772 23.240791315 24.252939266 25.266068382 26.27979189 
27.293387922 28.305603659 29.31199509 30.303626989 31.311440866 32.323102721 33.336079779 34.350131892 35.364596049 
36.377020672 37.385522799 38.397178135 39.410491493 40.424253802 41.438172792 42.45248258 43.467072986 44.481101051 
45.49428595 46.507678636 47.521411402 48.534920244 49.547345255 50.558188259 51.569058852 52.581732026 53.595587745 
54.609996556 55.624578294 56.639063525 57.653036061 58.665676278 59.677896935 60.691278629 61.703731151 62.704658445 
63.734602494 
ParallelTransportNormals 3 64 double
0.66784881107 0 0.7442969606 0.56814020602 0.0026360538157 0.82292755302 0.48627744566 0.010176589078 0.87374520478 
0.41129552023 0.015860042477 0.91136406232 0.33928549921 0.015907663982 0.94054893347 0.27141361503 0.0069200166834 0.9624379268 
0.21913804104 -0.010707652683 0.97563510861 0.19865029851 -0.023734034781 0.97978301399 0.20382045863 -0.018411512317 0.97883514284 
0.20419674006 -0.017874573232 0.9787666683 0.16250105284 -0.086760056764 0.98288661624 0.031386761283 -0.31476862929 0.94864934577 
-0.11470130175 -0.6244631216 0.77258619011 -0.14197414701 -0.77253886089 0.61889179183 -0.13587911789 -0.79911464555 0.58562159164 
-0.13903761694 -0.79378059567 0.5920987308 -0.14472035935 -0.78711915879 0.59958272778 -0.15587604039 -0.77618645194 0.61093146249 
-0.18924181656 -0.746089519 0.63838700214 -0.31955819747 -0.62980011607 0.70797907612 -0.84504987385 -0.077743093961 0.52900540834 
-0.96421461779 0.23699713968 -0.11883823718 -0.85541500266 0.27635804757 -0.4380541094 -0.68609797649 0.26413298104 -0.67786675312 
-0.5252526214 0.21714862749 -0.82277345442 -0.46238875263 0.18426679771 -0.86731908125 -0.49440790729 0.21019915423 -0.84343176178 
-0.58478788042 0.3227079559 -0.74423296763 -0.67743977151 0.56784394059 -0.46757738944 -0.51078004367 0.83853657793 0.18963162835 
-0.08765962505 0.69224804728 0.71631587388 0.13191594618 0.45206936527 0.88217428671 0.21007662111 0.28686212823 0.93465391063 
0.22631086944 0.21216546444 0.9506677685 0.22458138627 0.23359156516 0.94604343538 0.21067702594 0.36521879356 0.90676922288 
0.12744473552 0.58576742938 0.80039637559 -0.033916860161 0.74508601396 0.66610545591 -0.18332037023 0.80580775234 0.56308747823 
-0.31020182813 0.8202622634 0.48056700372 -0.42596161212 0.80875525619 0.40555103327 -0.51677429357 0.78303542192 0.34612116018 
-0.54449102677 0.77189463351 0.32818926936 -0.47779914895 0.79737568856 0.36864615088 -0.32116623244 0.8314493006 0.45336995011 
-0.14043356889 0.82931321589 0.54084933455 -0.0076650046535 0.79737207802 0.60343932329 0.070318086521 0.7608488002 0.64510810717 
0.11764802356 0.72415640765 0.67952662921 0.15354183326 0.67145277921 0.72496625489 0.16767617748 0.58635356689 0.79251132112 
0.14206593509 0.48745392467 0.86151374999 0.094782441406 0.40543154097 0.90919830312 0.05256168716 0.35124488559 0.93480709207 
0.02551683898 0.3203330261 0.94696126812 0.0045890564107 0.29626192441 0.95509570866 -0.03441817333 0.24515258316 0.9688733665 
-0.1072672874 0.11743465785 0.98727039366 -0.17896180553 -0.092914924691 0.97945877347 -0.20575245943 -0.29118045082 0.9342804025 
-0.20455572569 -0.41774151755 0.88523950409 -0.19879384595 -0.48874132449 0.84947803064 -0.19607161674 -0.52507698706 0.82816066 
-0.19607161674 -0.52507698706 0.82816066 
