# vtk DataFile Version 4.2
vtk output
ASCII
DATASET POLYDATA
POINTS 64 float
0 0 0 -0.755269 0.184443 0.674631 -1.59319 0.427356 1.16362 
-2.50085 0.666167 1.54368 -3.44948 0.849485 1.85228 -4.42171 0.926265 2.13034 
-5.38834 0.822905 2.41578 -6.27679 0.450751 2.72525 -7.00295 -0.189411 3.0216 
-7.59565 -0.981162 3.24533 -8.1654 -1.81392 3.34545 -8.78363 -2.61167 3.25801 
-9.41769 -3.31685 2.90522 -9.91039 -3.91246 2.2543 -10.0558 -4.43901 1.40554 
-9.78542 -4.93923 0.570098 -9.25057 -5.40443 -0.154524 -8.6281 -5.81699 -0.841216 
-8.02587 -6.18006 -1.5723 -7.4652 -6.53565 -2.3395 -6.90276 -6.96076 -3.06834 
-6.29546 -7.53908 -3.63464 -5.65934 -8.29957 -3.80165 -5.14224 -9.01443 -3.32936 
-4.84359 -9.37882 -2.43794 -4.69932 -9.40047 -1.43667 -4.66651 -9.1723 -0.450082 
-4.75874 -8.79577 0.48661 -5.0232 -8.38873 1.37629 -5.49888 -8.08781 2.21782 
-6.15277 -8.02294 2.98713 -6.87454 -8.26243 3.65418 -7.52994 -8.80528 4.201 
-7.99369 -9.59389 4.63268 -8.17737 -10.5254 4.9824 -8.05864 -11.4765 5.30818 
-7.67555 -12.3352 5.68341 -7.09489 -13.0018 6.17568 -6.40277 -13.4032 6.79555 
-5.66792 -13.5569 7.47623 -4.90676 -13.5385 8.14601 -4.10866 -13.4149 8.75961 
-3.2687 -13.2338 9.29867 -2.39616 -13.0334 9.77595 -1.50519 -12.8566 10.2279 
-0.605445 -12.7598 10.6859 0.290904 -12.8017 11.1579 1.15891 -13.0152 11.6361 
1.96455 -13.3949 12.1203 2.6627 -13.9237 12.6304 3.16085 -14.6004 13.1941 
3.26698 -15.4017 13.7955 2.90403 -16.1886 14.3142 2.29135 -16.898 14.7004 
1.61898 -17.5983 14.9945 0.999158 -18.3667 15.2262 0.492402 -19.2287 15.3937 
0.0683857 -20.1466 15.4738 -0.36278 -21.0639 15.4404 -0.847191 -21.9405 15.2817 
-1.35387 -22.7733 15.0019 -1.77396 -23.6058 14.6069 -1.8614 -24.4752 14.127 
-1.39186 -25.277 13.6983 
LINES 1 65
64 0 1 2 3 4 5 6 7 8 9 10 11 12 13 14 15 16 17 18 19 20 21 22 23 24 25 26 27 28 29 30 31 32 33 34 35 36 37 38 39 40 41 42 43 44 45 46 47 48 49 50 51 52 53 54 55 56 57 58 59 60 61 62 63 

POINT_DATA 64
SCALARS MaximumInscribedSphereRadius float
LOOKUP_TABLE default
0.9796 1.20104 1.11757 0.93 0.93 1.09015 1.24911 1.27321 1.24826 
1.24 1.24 1.24289 1.29112 1.21167 1.3725 1.62072 1.24538 1.24 
1.04548 1.04475 1.31128 1.77008 1.84727 1.65174 1.72419 1.74814 1.59027 
1.82536 1.65942 1.68575 1.87713 1.8633 1.86 1.96474 2.11703 1.95193 
1.59219 1.35754 1.57228 1.97807 2.04531 1.87804 1.86 1.86 1.86608 
1.87945 1.86939 1.96834 2.14325 2.16714 2.02965 1.8639 1.85409 1.82301 
2.15269 2.50964 2.54191 2.43156 2.40352 2.45341 2.24207 2.17 2.17 
2.17 
TEXTURE_COORDINATES TCoords 2 float
0 0 0.015873 0 0.031746 0 0.047619 0 0.0634921 
0 0.0793651 0 0.0952381 0 0.111111 0 0.126984 0 
0.142857 0 0.15873 0 0.174603 0 0.190476 0 0.206349 
0 0.222222 0 0.238095 0 0.253968 0 0.269841 0 
0.285714 0 0.301587 0 0.31746 0 0.333333 0 0.349206 
0 0.365079 0 0.380952 0 0.396825 0 0.412698 0 
0.428571 0 0.444444 0 0.460317 0 0.47619 0 0.492063 
0 0.507937 0 0.52381 0 0.539683 0 0.555556 0 
0.571429 0 0.587302 0 0.603175 0 0.619048 0 0.634921 
0 0.650794 0 0.666667 0 0.68254 0 0.698413 0 
0.714286 0 0.730159 0 0.746032 0 0.761905 0 0.777778 
0 0.793651 0 0.809524 0 0.825397 0 0.84127 0 
0.857143 0 0.873016 0 0.888889 0 0.904762 0 0.920635 
0 0.936508 0 0.952381 0 0.968254 0 0.984127 0 
1 0 
FIELD FieldData 4
Curvature 1 64 float
0.16801 0.12007 0.0811163 0.0589235 0.0665035 0.109169 0.169277 0.189461 0.132032 
0.0813012 0.115707 0.170111 0.212059 0.244167 0.251512 0.172585 0.066921 0.04905 
0.0417746 0.0470307 0.133141 0.264497 0.400432 0.356563 0.230417 0.159889 0.116998 
0.106066 0.142568 0.180131 0.192873 0.195229 0.194825 0.191256 0.178534 0.166791 
0.175872 0.187241 0.151853 0.102267 0.0724155 0.0606318 0.0430667 0.0228863 0.0470852 
0.0815562 0.103356 0.104518 0.107293 0.151486 0.253045 0.289915 0.180174 0.066601 
0.0651193 0.096235 0.0796513 0.0685765 0.0838135 0.0776042 0.0872689 0.212073 0.356058 
0.289589 
Torsion 1 64 float
0.0828438 0.139029 0.227642 0.352978 0.299746 0.126741 0.0186123 -0.0700508 -0.257413 
-0.578551 -0.0938663 0.127571 0.254377 0.284713 0.1639 -0.031801 -0.566437 -0.539785 
-0.56363 -0.603083 -0.0681211 -0.0482921 -0.0884008 -0.103011 -0.0693534 0.0428019 0.268947 
0.41676 0.26662 0.180405 0.149729 0.143696 0.154285 0.168854 0.195063 0.229663 
0.187231 0.0581745 -0.0653381 -0.195072 -0.269524 -0.186696 -0.241085 -0.942198 -0.175605 
0.00270501 -0.0164808 -0.0927119 -0.145051 -0.0887398 -0.015873 0.0320591 0.110949 0.574387 
0.462407 -0.0202733 -0.37606 -0.484534 -0.0535492 0.274668 0.519885 0.19978 0.0649381 
0.0181195 
Abscissas 1 64 double
0 1.0293582339 2.0294723912 3.0420504505 4.0563219558 5.0704405012 6.0836275064 7.095358487 8.1077501457 
9.1217642068 10.135726433 11.148775754 12.160587426 13.171129943 14.180475942 15.1910556 16.204735435 17.219243926 
18.233633452 19.248220949 20.262260384 21.274164657 22.279590686 23.280331505 24.288595001 25.300439897 26.313602229 
27.327343066 28.340830012 29.353248513 30.364994157 31.37655657 32.388115509 33.399705328 34.411542822 35.423817557 
36.436199415 37.448073413 38.460183537 39.473578492 40.487640635 41.501897519 42.516273642 43.530808654 44.545345581 
45.559618505 46.573497059 47.587226067 48.601002773 49.614504793 50.626324205 51.633867219 52.643844561 53.657575385 
54.672018649 55.686046071 56.69993957 57.714213901 58.728337211 59.742382829 60.756561734 61.769206704 62.766101456 
63.789415706 
ParallelTransportNormals 3 64 double
0.6661716097 0 0.74579848915 0.51249649623 0.041272076727 0.85769689112 0.40127915995 0.071973682093 0.91312366352 
0.32372799796 0.089611464162 0.94189700542 0.28068095561 0.095440158741 0.95504417555 0.27253048015 0.095328073303 0.95741302259 
0.28977981885 0.099751543919 0.95188092011 0.2960793997 0.10370075372 0.94951732093 0.26676369942 0.071877546085 0.96107790893 
0.20112243048 -0.019854927724 0.97936487062 0.087737529103 -0.17547234383 0.98056696994 -0.085427361709 -0.38328679819 0.91967026494 
-0.27190141844 -0.5985671392 0.7535164222 -0.36476831371 -0.76193510215 0.53516257102 -0.35426695853 -0.84839537638 0.39334489628 
-0.32230379807 -0.88674063114 0.33137790336 -0.28713648063 -0.91341430751 0.28849080459 -0.25603758908 -0.93310990032 0.25248894412 
-0.25295452501 -0.93501520435 0.24851675176 -0.29346196302 -0.90685697094 0.30247398321 -0.39456516997 -0.82011810126 0.41439670201 
-0.58991756238 -0.60970194785 0.52939664183 -0.83443589929 -0.29683078046 0.46433631964 -0.95476274755 -0.13760250842 0.2636164744 
-0.98386744645 -0.11221037973 0.13933297708 -0.99086672298 -0.12036368785 0.060792433259 -0.98786090421 -0.15097427689 -0.036573236863 
-0.95858844213 -0.21527674629 -0.1864513908 -0.87280733441 -0.29730775945 -0.38706001237 -0.72965237134 -0.34365378459 -0.59119327916 
-0.58151963748 -0.32484782111 -0.74586111599 -0.47802980873 -0.26605706029 -0.83707893453 -0.43860700191 -0.21915547273 -0.87154734619 
-0.44512461446 -0.23647100905 -0.86368138772 -0.44867372851 -0.33924238635 -0.82680498828 -0.40101680934 -0.51111218298 -0.76023013295 
-0.27288148977 -0.71389732805 -0.64489246976 -0.080534903209 -0.87530226671 -0.47682289296 0.095524122945 -0.94381646385 -0.31636312127 
0.21031732576 -0.95420618226 -0.21273735974 0.27162542867 -0.94862322365 -0.16227632621 0.29651726684 -0.94399252406 -0.14476057811 
0.29614040326 -0.94407649654 -0.14498424137 0.26915895114 -0.94984660509 -0.15920077202 0.2018209856 -0.96013385899 -0.19341991262 
0.087834033029 -0.96361680653 -0.25244372209 -0.05160735213 -0.94342888373 -0.32753415477 -0.18126245725 -0.89747700233 -0.40209321292 
-0.28673014912 -0.83376178116 -0.47183377779 -0.37890233823 -0.74086214931 -0.55457758141 -0.44697129575 -0.57411288452 -0.68601097411 
-0.41257624714 -0.36092877979 -0.83636789526 -0.32235965586 -0.22248809236 -0.92009961473 -0.25849343356 -0.15242538656 -0.95391176025 
-0.22300356751 -0.11208589313 -0.96835229201 -0.19688836205 -0.07429130634 -0.97760716788 -0.16354572553 -0.010530903552 -0.98647954654 
-0.11637037308 0.090706154367 -0.98905527137 -0.056502643673 0.20800563839 -0.97649429371 0.0057252453873 0.31533466463 -0.94896326106 
0.05562898901 0.4050084331 -0.91261907974 0.076663487503 0.47591653038 -0.87614277706 0.070759674691 0.50225413884 -0.86182007893 
0.070759674691 0.50225413884 -0.86182007893 
