# vtk DataFile Version 4.2
vtk output
ASCII
DATASET POLYDATA
POINTS 64 float
0 0 0 -0.910369 -0.501449 -0.0993952 -1.51181 -1.26499 -0.221373 
-2.02552 -2.14421 -0.280488 -2.48341 -3.04887 -0.253631 -2.91525 -3.96579 -0.207022 
-3.23499 -4.91302 -0.367563 -3.23078 -5.75887 -0.917695 -2.95135 -6.42666 -1.6269 
-2.52601 -6.99343 -2.35271 -2.01096 -7.49289 -3.06992 -1.4481 -7.94287 -3.78412 
-0.885201 -8.37959 -4.5065 -0.360113 -8.84953 -5.23633 0.114162 -9.38386 -5.95643 
0.536501 -10.0032 -6.6409 0.902259 -10.7362 -7.23397 1.18721 -11.6503 -7.54789 
1.22912 -12.4348 -6.96176 1.04941 -12.6221 -5.97222 0.761129 -12.5661 -5.00321 
0.350479 -12.3498 -4.10204 -0.177154 -11.9818 -3.31858 -0.74701 -11.4573 -2.66403 
-1.24731 -10.7949 -2.08155 -1.59813 -10.0523 -1.4866 -1.76471 -9.33467 -0.79113 
-1.73754 -8.86256 0.101181 -1.58276 -9.05839 1.06789 -1.46072 -9.80947 1.73926 
-1.38613 -10.7167 2.18622 -1.33205 -11.6659 2.5403 -1.30826 -12.635 2.83956 
-1.34863 -13.6273 3.04511 -1.44637 -14.6357 3.08761 -1.49854 -15.6449 2.99793 
-1.37195 -16.6475 2.92159 -1.00622 -17.5892 2.99542 -0.465295 -18.4067 3.25315 
0.157816 -19.0902 3.66866 0.801639 -19.6432 4.22358 1.42282 -20.0497 4.91402 
2.00543 -20.2756 5.71229 2.6327 -20.3092 6.50805 3.409 -20.2067 7.15132 
4.28817 -20.0455 7.63096 5.18815 -19.8438 8.05372 6.0435 -19.5713 8.52565 
6.79222 -19.1971 9.0979 7.43574 -18.7409 9.73585 8.0654 -18.2668 10.3747 
8.76994 -17.853 10.9756 9.55039 -17.5591 11.5529 10.3501 -17.4131 12.1592 
11.0877 -17.4455 12.8539 11.6115 -17.7315 13.6705 11.7155 -18.316 14.4856 
11.493 -19.0513 15.1471 11.1588 -19.8211 15.7171 10.8002 -20.5869 16.2776 
10.4588 -21.3306 16.8768 10.179 -22.0505 17.5457 10.0103 -22.7095 18.2427 
10.016 -23.3796 19.0486 
LINES 1 65
64 0 1 2 3 4 5 6 7 8 9 10 11 12 13 14 15 16 17 18 19 20 21 22 23 24 25 26 27 28 29 30 31 32 33 34 35 36 37 38 39 40 41 42 43 44 45 46 47 48 49 50 51 52 53 54 55 56 57 58 59 60 61 62 63 

POINT_DATA 64
SCALARS MaximumInscribedSphereRadius float
LOOKUP_TABLE default
1.55 1.11384 0.93 0.9976 1.1876 1.23923 1.05912 1.07735 1.23852 
1.24126 1.2612 1.26721 1.25326 1.28801 1.5033 1.81671 1.55484 1.23295 
1.0805 1.04915 1.23739 1.24 1.24 1.25613 1.44466 1.4398 1.26158 
1.26685 1.24978 1.24 1.32882 1.47027 1.35639 1.24032 1.29474 1.46625 
1.33851 1.24 1.24 1.24 1.25342 1.382 1.75308 1.51714 1.30869 
1.24375 1.24 1.24 1.24 1.27062 1.46331 1.67702 1.73109 1.39095 
1.39246 1.43025 1.32515 1.48999 1.33957 1.24374 1.28526 1.87395 1.94694 
1.55 
TEXTURE_COORDINATES TCoords 2 float
0 0 0.015873 0 0.031746 0 0.047619 0 0.0634921 
0 0.0793651 0 0.0952381 0 0.111111 0 0.126984 0 
0.142857 0 0.15873 0 0.174603 0 0.190476 0 0.206349 
0 0.222222 0 0.238095 0 0.253968 0 0.269841 0 
0.285714 0 0.301587 0 0.31746 0 0.333333 0 0.349206 
0 0.365079 0 0.380952 0 0.396825 0 0.412698 0 
0.428571 0 0.444444 0 0.460317 0 0.47619 0 0.492063 
0 0.507937 0 0.52381 0 0.539683 0 0.555556 0 
0.571429 0 0.587302 0 0.603175 0 0.619048 0 0.634921 
0 0.650794 0 0.666667 0 0.68254 0 0.698413 0 
0.714286 0 0.730159 0 0.746032 0 0.761905 0 0.777778 
0 0.793651 0 0.809524 0 0.825397 0 0.84127 0 
0.857143 0 0.873016 0 0.888889 0 0.904762 0 0.920635 
0 0.936508 0 0.952381 0 0.968254 0 0.984127 0 
1 0 
FIELD FieldData 4
Curvature 1 64 float
0.404164 0.286243 0.144243 0.0803831 0.07609 0.221609 0.428607 0.313309 0.155277 
0.0872453 0.0625234 0.0287135 0.0511737 0.0790714 0.0840134 0.128874 0.300018 0.828454 
0.627023 0.233351 0.159396 0.170505 0.159821 0.133506 0.134096 0.172268 0.301199 
0.554927 0.510103 0.235647 0.0789215 0.0660709 0.115784 0.148026 0.121144 0.149795 
0.230246 0.222517 0.170694 0.147454 0.165219 0.182424 0.167055 0.21454 0.183624 
0.0804801 0.0795998 0.14406 0.114365 0.0296 0.0862488 0.114105 0.117989 0.164436 
0.284668 0.405781 0.314669 0.135337 0.0437738 0.0391706 0.0703921 0.10422 0.1373 
0.159809 
Torsion 1 64 float
0.0737172 0.208987 0.456332 0.346683 -0.208129 -0.0537364 0.119354 0.137408 0.0964498 
-0.0315163 -0.160982 -0.59922 -0.352021 -0.13227 -0.154528 -0.143545 -0.104326 -0.0770141 
0.0587452 0.181865 0.141376 -0.077659 -0.365443 -0.580201 -0.540754 -0.450441 -0.307782 
-0.181452 -0.0698252 0.00603167 -0.0526021 -0.16221 0.0494167 0.269655 0.755341 0.678853 
0.189261 0.122533 0.134272 0.119995 0.0476005 -0.175652 -0.694612 -0.358881 -0.0213749 
0.773815 0.389437 0.000459508 -0.111388 -3.00835 -0.239665 -0.344446 -0.415598 -0.228614 
-0.0633175 0.0411689 0.0726964 -0.0243761 -0.482459 -0.404078 -0.24084 -0.174498 -0.103911 
-0.0574635 
Abscissas 1 64 double
0 1.0440798282 2.0236780561 3.0436858717 4.0579762766 5.0725768231 6.0851170931 7.0941401883 8.1075533796 
9.1219119757 10.136379279 11.150955244 12.165559106 13.180058085 14.194445406 15.209573184 16.220916391 17.228511219 
18.208682111 19.231712263 20.244249414 21.25792182 22.27165059 23.28566745 24.299785073 25.313930939 26.327031003 
27.336905668 28.335324388 29.350089658 30.36423317 31.378741344 32.393269669 33.407462618 34.421485605 35.435929588 
36.449420643 37.462304681 38.475867108 39.489827716 40.503837579 41.517672207 42.531431539 43.545252728 44.558636197 
45.573016541 46.587592558 47.601800057 48.615721229 49.630222056 50.644806776 51.659059008 52.673308883 53.687443206 
54.701193459 55.712663444 56.720980824 57.734756682 58.749316564 59.763749513 60.777984483 61.799775745 62.773679243 
63.821789623 
ParallelTransportNormals 3 64 double
-0.10853621248 0 0.99409249599 -0.15272560374 -0.0374630206 0.98755830818 -0.1235110512 0.0054445175116 0.99232826094 
-0.086556833764 0.073306889074 0.99354618138 -0.07943573202 0.087886044511 0.99295821043 -0.16008363613 -0.11218073564 0.98070827059 
-0.23364897423 -0.53094125841 0.81456094736 -0.19248122957 -0.75115201714 0.63144407781 -0.15296663615 -0.82037978819 0.55097932026 
-0.12354143751 -0.85374315067 0.50582620128 -0.099093098707 -0.87527769801 0.4733598094 -0.090635286373 -0.88193945284 0.46256680208 
-0.10611648488 -0.86903829672 0.48323051483 -0.13824001374 -0.83675707168 0.52983705192 -0.18066742233 -0.7821673977 0.59629979414 
-0.24007970417 -0.68018603835 0.69261005543 -0.35068063223 -0.4001145557 0.84671803837 -0.52093595055 0.49287131723 0.69692438619 
-0.46867131304 0.87961167427 0.081427899523 -0.4077683959 0.89652018857 -0.17313719069 -0.33710958234 0.86899299684 -0.3622268639 
-0.23825081502 0.80742570447 -0.53972241098 -0.12716535365 0.71709359115 -0.68527786653 -0.05406219242 0.63601530955 -0.76978036177 
-0.040189887519 0.61311466602 -0.78897096224 -0.066173907295 0.68645877896 -0.72415147503 -0.088986497408 0.88151657358 -0.46369163653 
-0.023573351331 0.97907910143 0.20210989644 0.06701747647 0.670962603 0.73845639223 0.093666504529 0.44617460059 0.89003079257 
0.10014185026 0.3527526929 0.93034248934 0.10245368759 0.29580684518 0.94973762284 0.10162488257 0.19781798991 0.97495662781 
0.090260481566 0.033194826702 0.99536483208 0.080929313402 -0.092376681589 0.99242984383 0.079939220708 -0.065642321362 0.99463601716 
0.039659052447 0.09340942962 0.99483759379 -0.051043237877 0.26941130881 0.96167153153 -0.15628668871 0.4051256443 0.90080390944 
-0.26522096999 0.51144265196 0.81736420942 -0.38431984018 0.60177988109 0.70011373017 -0.50218127134 0.66370403972 0.55435630995 
-0.56388519093 0.67693934319 0.47306090209 -0.51945961138 0.6791234302 0.51860686334 -0.43939666836 0.69187693648 0.57291960397 
-0.42753344971 0.69429625567 0.57893683485 -0.51025743299 0.6719473718 0.53677190837 -0.6490343069 0.61599720279 0.44643243008 
-0.74980897079 0.55589727461 0.35883802392 -0.76260084078 0.54654996963 0.34601024312 -0.69551244685 0.59119757951 0.40834771734 
-0.59877344422 0.63729671024 0.48510129417 -0.5279445725 0.65701232069 0.53815363868 -0.50016578577 0.65906563546 0.56166420119 
-0.50531183195 0.66036599884 0.55549680473 -0.51002322123 0.66690890524 0.5432391977 -0.51107189096 0.65514501068 0.55640860637 
-0.51550746505 0.64315199901 0.56622218223 -0.51226151172 0.65034646661 0.56092567867 -0.50294728792 0.67043212895 0.54549499177 
-0.49608008527 0.68660769482 0.53148322872 -0.49568855277 0.68781733939 0.53028310014 -0.49863145344 0.66474281465 0.55631255963 
-0.49863145344 0.66474281465 0.55631255963 
