# vtk DataFile Version 4.2
vtk output
ASCII
DATASET POLYDATA
POINTS 64 float
0 0 0 -0.00992067 1.03659 0.135459 -0.267267 1.94777 0.36857 
-0.696189 2.81833 0.694272 -1.2512 3.56497 1.09476 -1.89304 4.19618 1.56223 
-2.5983 4.70143 2.08775 -3.35202 5.06309 2.662 -4.14356 5.24567 3.26892 
-4.95697 5.18893 3.87095 -5.74858 4.83274 4.3928 -6.4601 4.2148 4.76621 
-7.10064 3.46877 5.01616 -7.73873 2.70443 5.21112 -8.43753 1.99099 5.38929 
-9.22272 1.36821 5.54591 -10.0794 0.835417 5.652 -10.9777 0.364393 5.67139 
-11.8782 -0.0877162 5.5564 -12.6929 -0.588823 5.22001 -13.1528 -1.19848 4.56683 
-13.0688 -1.81868 3.76971 -12.6737 -2.38271 3.02497 -12.1483 -2.92212 2.34513 
-11.5638 -3.46789 1.72085 -10.955 -4.0504 1.15539 -10.342 -4.70875 0.688836 
-9.74473 -5.49812 0.475578 -9.27998 -6.28168 0.8942 -9.0572 -6.69152 1.79642 
-8.96444 -6.80016 2.79891 -8.95618 -6.69861 3.80802 -9.03343 -6.42948 4.78276 
-9.2115 -6.03548 5.70022 -9.50572 -5.57607 6.55538 -9.92188 -5.13053 7.36607 
-10.4477 -4.79958 8.16754 -11.0365 -4.70885 8.98723 -11.5841 -4.96113 9.80054 
-11.978 -5.53837 10.5337 -12.1818 -6.32832 11.1353 -12.2247 -7.22827 11.6007 
-12.1496 -8.17836 11.9478 -11.9979 -9.14811 12.2042 -11.8055 -10.1238 12.4051 
-11.6004 -11.1 12.591 -11.3982 -12.07 12.8087 -11.1893 -13.0157 13.1107 
-10.9189 -13.8919 13.5435 -10.4809 -14.6082 14.1107 -9.7957 -15.0424 14.7161 
-8.93561 -15.2016 15.2286 -8.00456 -15.2161 15.6309 -7.04422 -15.1776 15.9558 
-6.06939 -15.1322 16.2334 -5.08746 -15.1021 16.487 -4.10416 -15.0926 16.7369 
-3.12472 -15.0976 17.0016 -2.15453 -15.1056 17.2984 -1.20039 -15.1124 17.6435 
-0.273607 -15.132 18.0515 0.619931 -15.2046 18.5488 1.41029 -15.3502 19.0987 
2.14474 -15.6491 19.781 
LINES 1 65
64 0 1 2 3 4 5 6 7 8 9 10 11 12 13 14 15 16 17 18 19 20 21 22 23 24 25 26 27 28 29 30 31 32 33 34 35 36 37 38 39 40 41 42 43 44 45 46 47 48 49 50 51 52 53 54 55 56 57 58 59 60 61 62 63 

POINT_DATA 64
SCALARS MaximumInscribedSphereRadius float
LOOKUP_TABLE default
0.62 0.808708 0.878423 0.740485 0.920737 1.20391 0.962553 0.842602 1.12949 
1.08333 0.93 0.93716 0.964271 0.96134 0.936143 0.957738 1.13271 1.55683 
1.57432 1.27209 1.16567 1.1979 1.23799 1.24 1.24 1.24 1.24 
1.24 1.24 1.24 1.24 1.3009 1.37176 1.30183 1.25487 1.26893 
1.38891 1.50002 1.32187 1.25667 1.27172 1.2558 1.31471 1.48608 1.54897 
1.54781 1.39919 1.26251 1.24 1.24 1.15255 1.03713 1.27164 1.51841 
1.55 1.55 1.54455 1.3539 1.01635 1.12035 1.18589 0.998947 0.806691 
0.62 
TEXTURE_COORDINATES TCoords 2 float
0 0 0.015873 0 0.031746 0 0.047619 0 0.0634921 
0 0.0793651 0 0.0952381 0 0.111111 0 0.126984 0 
0.142857 0 0.15873 0 0.174603 0 0.190476 0 0.206349 
0 0.222222 0 0.238095 0 0.253968 0 0.269841 0 
0.285714 0 0.301587 0 0.31746 0 0.333333 0 0.349206 
0 0.365079 0 0.380952 0 0.396825 0 0.412698 0 
0.428571 0 0.444444 0 0.460317 0 0.47619 0 0.492063 
0 0.507937 0 0.52381 0 0.539683 0 0.555556 0 
0.571429 0 0.587302 0 0.603175 0 0.619048 0 0.634921 
0 0.650794 0 0.666667 0 0.68254 0 0.698413 0 
0.714286 0 0.730159 0 0.746032 0 0.761905 0 0.777778 
0 0.793651 0 0.809524 0 0.825397 0 0.84127 0 
0.857143 0 0.873016 0 0.888889 0 0.904762 0 0.920635 
0 0.936508 0 0.952381 0 0.968254 0 0.984127 0 
1 0 
FIELD FieldData 4
Curvature 1 64 float
0.239942 0.212869 0.177088 0.147148 0.128122 0.121842 0.131451 0.158757 0.205191 
0.259553 0.255293 0.166564 0.0766016 0.0763935 0.107025 0.103186 0.0941978 0.118897 
0.211361 0.410353 0.473237 0.294199 0.147983 0.0730541 0.0673199 0.137165 0.291634 
0.58539 0.572664 0.310357 0.195816 0.155649 0.137361 0.119583 0.11031 0.135355 
0.206291 0.280475 0.296977 0.256703 0.196095 0.143657 0.0982414 0.0555356 0.0234429 
0.0415655 0.0888991 0.149443 0.229348 0.314523 0.295112 0.183037 0.0961041 0.044972 
0.0245192 0.0261098 0.0294156 0.0347991 0.0439827 0.057932 0.0827315 0.116598 0.149892 
0.169716 
Torsion 1 64 float
-0.0390113 -0.0539211 -0.06732 -0.0713527 -0.0533476 -0.0194319 0.00982353 0.0468241 0.0693482 
0.0737639 0.0671318 0.137409 0.571371 0.225027 -0.102749 -0.269754 -0.399282 -0.374983 
-0.231069 -0.137098 -0.0856111 -0.0756278 -0.119321 -0.31833 -0.370075 -0.058296 0.0516278 
0.133203 0.121934 0.0529911 -0.020656 -0.104539 -0.198163 -0.347177 -0.522892 -0.464106 
-0.265976 -0.153677 -0.0841256 -0.0314033 0.00336875 0.023307 0.0391883 0.0293161 -0.225598 
-0.00369851 0.156937 0.233241 0.252733 0.209194 0.148959 0.137116 0.191695 0.39423 
0.585071 0.337279 0.267176 0.172247 -0.0564931 -0.240687 -0.215044 -0.133533 -0.0762484 
-0.0429393 
Abscissas 1 64 double
0 1.0454464882 2.0205512991 3.0442315397 4.0570935262 5.0714515811 6.085769095 7.1000002257 8.1140159543 
9.1275688518 10.140408703 11.154084148 12.168639276 13.183231179 14.197650549 15.212003493 16.226435203 17.240857956 
18.255084334 19.268942729 20.273864011 21.287333231 22.30166242 23.316137109 24.330638377 25.345393494 26.358729313 
27.371315026 28.373915821 29.389596387 30.40220661 31.416453653 32.430603812 33.444844417 34.459198834 35.47355518 
36.487644187 37.500957044 38.513394285 39.526250721 40.539888941 41.553942102 42.568245777 43.582735746 44.597325297 
45.61193475 46.626506541 47.640954566 48.654965535 49.668149488 50.680327305 51.694153497 52.708471432 53.723041705 
54.737630681 55.752226834 56.766830025 57.781413383 58.796026635 59.810694359 60.82348231 61.848682271 62.822432813 
63.868539666 
ParallelTransportNormals 3 64 double
-0.99995420569 -0.0095700845745 0 -0.96438909054 -0.26010429715 -0.04795244154 -0.90661224764 -0.41110949547 -0.095095820975 
-0.8304502358 -0.53615378572 -0.15129945114 -0.75791507123 -0.61966828321 -0.20390184794 -0.68267348115 -0.68314471131 -0.25936503533 
-0.5980884442 -0.73340347313 -0.32312467952 -0.48943738612 -0.77166863805 -0.40617552624 -0.3330988398 -0.78392176093 -0.52393877091 
-0.11727884929 -0.72838190766 -0.67505960337 0.093665734352 -0.5916922106 -0.80070410148 0.21385295538 -0.47045490187 -0.85611862424 
0.24880188433 -0.42917200212 -0.86827934155 0.23424376024 -0.44526425155 -0.86421618076 0.20385337115 -0.47262843489 -0.85735999767 
0.19280958972 -0.48040116194 -0.8555928855 0.22403383298 -0.46254103087 -0.85782552798 0.31713116139 -0.41476408773 -0.85287664876 
0.51717368127 -0.30359025362 -0.80022768092 0.83032724146 -0.030230515193 -0.55645555801 0.93699846454 0.31662880543 -0.14758074745 
0.86497969211 0.49468474183 0.084244515793 0.80638769 0.56492446443 0.1749263928 0.7773328595 0.59333342873 0.20906713729 
0.77186778291 0.59850066165 0.21451592882 0.78437560904 0.58579737264 0.20395181332 0.80689795407 0.55885508082 0.19130261459 
0.79683333029 0.57377041337 0.18932553045 0.75427331049 0.64762676841 0.10794138185 0.73723068867 0.67562265242 0.0049943190774 
0.73326062734 0.67590774261 -0.074010647042 0.73505854195 0.66624819804 -0.12570711402 0.73709240259 0.66096568557 -0.14078051199 
0.72934013374 0.67497384879 -0.1116838071 0.69698672472 0.7161890908 -0.035814686818 0.62410348142 0.77626557821 0.088919045024 
0.500627594 0.82296752584 0.26850784634 0.3503015456 0.80157781012 0.4845222817 0.2338014385 0.69894396294 0.67588033262 
0.17620934147 0.56721897119 0.80449543609 0.15873114488 0.44751122764 0.88007847649 0.16042957158 0.34988711071 0.92295252441 
0.16908757762 0.27660583281 0.94599080564 0.1770119394 0.2318003508 0.9565225406 0.17935345724 0.2203011489 0.95880120003 
0.17315619085 0.24991553049 0.95265899523 0.15564444819 0.33152379107 0.93051962994 0.11945883434 0.46904971799 0.87505539765 
0.044772240156 0.6369192285 0.76962935422 -0.080105824568 0.76479888981 0.63926967316 -0.18614085472 0.80553711094 0.56254914905 
-0.22239266647 0.80905446846 0.54403342634 -0.21724654042 0.80911974049 0.54601207516 -0.19510197609 0.8100796441 0.5529070348 
-0.16952677921 0.81106697133 0.55984912177 -0.15125286303 0.81143546628 0.56453082776 -0.14864690307 0.81144142487 0.56521404107 
-0.16476843107 0.81154894175 0.56057085125 -0.19348842641 0.81177108039 0.55098996532 -0.22060174744 0.81215209263 0.54013317568 
-0.23157342682 0.81270572175 0.53468042588 -0.22524597793 0.81187774814 0.53862674599 -0.19555880565 0.80334228941 0.56249259514 
-0.19555880565 0.80334228941 0.56249259514 
