# vtk DataFile Version 4.2
vtk output
ASCII
DATASET POLYDATA
POINTS 64 float
0 0 0 -0.891701 0.545197 -0.00547144 -1.85712 0.648823 0.11586 
-2.79135 0.303128 0.296253 -3.56946 -0.332319 0.429124 -4.22132 -1.10859 0.445009 
-4.76331 -1.94991 0.284963 -5.16669 -2.79276 -0.105671 -5.3749 -3.55976 -0.73284 
-5.36767 -4.19764 -1.51995 -5.18895 -4.72474 -2.36772 -4.90196 -5.20309 -3.21505 
-4.55455 -5.69563 -4.03109 -4.18438 -6.2621 -4.78666 -3.83439 -6.97038 -5.42099 
-3.58549 -7.885 -5.76843 -3.59622 -8.84331 -5.4918 -3.85593 -9.38408 -4.67984 
-4.18216 -9.53728 -3.73296 -4.49701 -9.47882 -2.77071 -4.76484 -9.31302 -1.80641 
-4.9459 -9.12812 -0.825689 -4.96518 -9.06869 0.185526 -4.74255 -9.37264 1.12058 
-4.39217 -10.0224 1.81413 -4.05 -10.8208 2.33753 -3.74988 -11.6853 2.77534 
-3.49452 -12.5867 3.16456 -3.27611 -13.5112 3.5209 -3.07795 -14.4489 3.85378 
-2.87467 -15.3901 4.17364 -2.63355 -16.3215 4.49554 -2.32061 -17.2235 4.83815 
-1.90924 -18.0693 5.21768 -1.38834 -18.8303 5.63973 -0.762513 -19.4844 6.09686 
-0.0460376 -20.0209 6.57367 0.744397 -20.4374 7.05366 1.59311 -20.7332 7.52366 
2.4838 -20.9062 7.97697 3.39696 -20.9567 8.41564 4.3112 -20.8988 8.85137 
5.21001 -20.769 9.30366 6.08641 -20.6219 9.79316 6.93884 -20.5147 10.3326 
7.76279 -20.4965 10.9238 8.54499 -20.609 11.5593 9.26038 -20.8865 12.2219 
9.87053 -21.3526 12.8835 10.3285 -22.0082 13.5058 10.6006 -22.817 14.0523 
10.6939 -23.7169 14.5099 10.6494 -24.6572 14.8874 10.5154 -25.6137 15.1978 
10.3335 -26.5806 15.4451 10.1339 -27.5597 15.6204 9.93463 -28.5508 15.7033 
9.74031 -29.5458 15.6716 9.54389 -30.5285 15.5148 9.33302 -31.4816 15.2398 
9.09687 -32.3947 14.8646 8.82889 -33.2639 14.4084 8.54092 -34.0564 13.913 
8.19173 -34.8527 13.3287 
LINES 1 65
64 0 1 2 3 4 5 6 7 8 9 10 11 12 13 14 15 16 17 18 19 20 21 22 23 24 25 26 27 28 29 30 31 32 33 34 35 36 37 38 39 40 41 42 43 44 45 46 47 48 49 50 51 52 53 54 55 56 57 58 59 60 61 62 63 

POINT_DATA 64
SCALARS MaximumInscribedSphereRadius float
LOOKUP_TABLE default
0.62 0.950351 1.21442 1.24 1.24 1.24 1.24065 1.25577 1.3361 
1.71156 1.85925 1.83978 1.70985 1.55487 1.57223 1.72966 1.87515 1.86119 
1.87409 2.01435 2.20621 2.40412 2.36568 2.22281 2.23636 2.40837 2.37617 
2.20792 2.43501 2.6885 2.4924 2.21331 2.17811 2.17 2.17081 2.18118 
2.16925 2.04927 1.92886 1.83946 1.70559 1.59598 1.70934 1.94904 2.33643 
2.36103 2.22594 2.35095 2.41713 2.22977 2.12801 2.06067 1.94011 1.92108 
2.0961 2.3289 2.57214 2.57141 2.4292 2.05041 2.05579 2.37339 2.35633 
2.17 
TEXTURE_COORDINATES TCoords 2 float
0 0 0.015873 0 0.031746 0 0.047619 0 0.0634921 
0 0.0793651 0 0.0952381 0 0.111111 0 0.126984 0 
0.142857 0 0.15873 0 0.174603 0 0.190476 0 0.206349 
0 0.222222 0 0.238095 0 0.253968 0 0.269841 0 
0.285714 0 0.301587 0 0.31746 0 0.333333 0 0.349206 
0 0.365079 0 0.380952 0 0.396825 0 0.412698 0 
0.428571 0 0.444444 0 0.460317 0 0.47619 0 0.492063 
0 0.507937 0 0.52381 0 0.539683 0 0.555556 0 
0.571429 0 0.587302 0 0.603175 0 0.619048 0 0.634921 
0 0.650794 0 0.666667 0 0.68254 0 0.698413 0 
0.714286 0 0.730159 0 0.746032 0 0.761905 0 0.777778 
0 0.793651 0 0.809524 0 0.825397 0 0.84127 0 
0.857143 0 0.873016 0 0.888889 0 0.904762 0 0.920635 
0 0.936508 0 0.952381 0 0.968254 0 0.984127 0 
1 0 
FIELD FieldData 4
Curvature 1 64 float
0.255606 0.351287 0.353655 0.236487 0.158793 0.151587 0.192291 0.226016 0.215006 
0.159092 0.092102 0.0548247 0.0742286 0.148742 0.288181 0.517198 0.543457 0.314743 
0.160589 0.0859707 0.0839564 0.183982 0.340361 0.344843 0.199907 0.105941 0.0621101 
0.0392407 0.0261682 0.0218252 0.0339728 0.0591714 0.0847874 0.102754 0.108484 0.105817 
0.0991942 0.0945952 0.0927387 0.0891001 0.0773926 0.0547258 0.0373794 0.0495855 0.0754043 
0.101803 0.127543 0.153074 0.174566 0.178967 0.157148 0.11872 0.0809717 0.055378 
0.0540532 0.0675112 0.0821359 0.0889933 0.087112 0.07866 0.0689121 0.0604513 0.0544363 
0.0511595 
Torsion 1 64 float
-0.0183799 -0.0472711 -0.107639 -0.203051 -0.285511 -0.203217 -0.0552456 0.0253243 0.064746 
0.118327 0.259947 0.608367 0.356752 0.0916213 0.0172781 -0.0178141 -0.0297965 -0.0463201 
-0.116076 -0.384016 -0.465852 -0.223331 -0.159239 -0.133665 -0.118982 -0.112662 -0.0855447 
0.000984839 0.184013 0.367795 0.21249 0.0967737 0.0461864 0.0104797 -0.0154234 -0.0324389 
-0.0338919 -0.0144781 0.0281392 0.0802688 0.150961 0.377778 0.765287 0.397649 0.159528 
0.0746922 0.038063 0.0150055 -0.00126577 -0.017052 -0.018462 0.0148861 0.107751 0.264204 
0.240783 0.0729138 -0.0333494 -0.0823566 -0.100579 -0.0934605 -0.0820258 -0.0786 -0.0862502 
-0.0958489 
Abscissas 1 64 double
0 1.0451793056 2.023700262 3.0360370679 4.0494010505 5.0631889581 6.0766934999 7.0894646237 8.1018767107 
9.1150353545 10.129181007 11.143644535 12.158148904 13.172444693 14.185620529 15.195170044 16.192670647 17.202207532 
18.215357582 19.229493035 20.243940154 21.258230855 22.27137422 23.279478075 24.292391663 25.306499605 26.320944166 
27.335471275 28.350037356 29.364631554 30.379228387 31.39377074 32.408169946 33.422402594 34.436537458 35.450671306 
36.464851439 37.479081316 38.493337301 39.507604571 40.521922629 41.536342166 42.550882479 43.565435824 44.579896668 
45.594174747 46.608260003 47.622080969 48.635576399 49.648829903 50.662243189 51.676093551 52.690329884 53.704775789 
54.719278321 55.733750333 56.74813437 57.762437802 58.776716525 59.790911065 60.805908224 61.823441737 62.801414333 
63.84898971 
ParallelTransportNormals 3 64 double
-0.0061358492283 0 0.9999811755 0.12003169858 -0.043034719329 0.9918368839 0.20125166062 -0.033014103689 0.97898306321 
0.19650248924 -0.035734767222 0.97985192664 0.13678681319 -0.094685731079 0.98606489648 0.047272118526 -0.21597592785 0.97525368259 
-0.054950811356 -0.39809732834 0.91569586954 -0.13367649846 -0.60533014813 0.78466936064 -0.1569546919 -0.76798378998 0.62093970965 
-0.14327316299 -0.85373987361 0.50060066818 -0.13035242829 -0.88163619568 0.45357013008 -0.13616129529 -0.87274615074 0.46880087248 
-0.16753661586 -0.82644195174 0.53751761157 -0.2332223579 -0.71016306814 0.66428589359 -0.34258114042 -0.41366311752 0.84351703446 
-0.4270658389 0.25518292114 0.86746553015 -0.32375402016 0.83198057963 0.4505459461 -0.20293918222 0.97524102959 0.087867073045 
-0.13816281 0.98482437926 -0.10503323262 -0.11003521028 0.97399958658 -0.19803297162 -0.10876714244 0.97300884596 -0.20352762564 
-0.12313930449 0.99053966627 -0.060563035307 -0.082645722239 0.94181079299 0.32582528264 0.039240299445 0.73900793099 0.67255295467 
0.11584824853 0.5788288297 0.80717802821 0.15099087743 0.48784789362 0.85977100883 0.16897784333 0.43066600626 0.8865513406 
0.17941613461 0.39043699775 0.90297774138 0.18548579439 0.36330395563 0.91301985515 0.18786101371 0.35218712242 0.91688192824 
0.18518037326 0.36348259088 0.91301075322 0.17361876792 0.40174120223 0.89914433205 0.14787801995 0.46385667436 0.87348101116 
0.10563871285 0.53665399418 0.83716363566 0.05080896827 0.60431156002 0.79512639698 -0.0090889204268 0.65744183821 0.75345047674 
-0.06843017046 0.69497298502 0.71577221367 -0.12664494633 0.7202720375 0.68203317336 -0.18761287558 0.73670230915 0.64967000593 
-0.25487621073 0.74503565081 0.6164089521 -0.32496506063 0.74475347963 0.58287216776 -0.38516988867 0.73851869577 0.55338439881 
-0.42135794371 0.73287311127 0.53418581603 -0.4276649336 0.73194572294 0.53043205338 -0.40689034102 0.73349899873 0.54444418377 
-0.3638996425 0.73097563257 0.57727954647 -0.30463832452 0.71554073469 0.62864691857 -0.23711317596 0.67765775883 0.69610150386 
-0.17394405354 0.61132143408 0.77202951399 -0.13068702522 0.52455577748 0.84128600235 -0.11282211786 0.4410377202 0.89036896795 
-0.1110652266 0.3747954786 0.92043080384 -0.11610746727 0.32122001264 0.93985996804 -0.1248685522 0.26786536273 0.95533030524 
-0.13784116904 0.20169385928 0.96970067508 -0.15571984679 0.11338759333 0.98127192103 -0.1775270436 0.0033467974465 0.9841102315 
-0.20093248871 -0.11511343968 0.9728180873 -0.22386910354 -0.2241254896 0.94849901918 -0.24528627576 -0.31354055253 0.91734778838 
-0.26488448241 -0.38283407305 0.88502784334 -0.28168134812 -0.43295668541 0.85627339482 -0.29882635298 -0.47584768266 0.82720722535 
-0.29882635298 -0.47584768266 0.82720722535 
