# vtk DataFile Version 4.2
vtk output
ASCII
DATASET POLYDATA
POINTS 64 float
0 0 0 -0.805072 0.507433 0.415296 -1.63352 0.847707 0.816521 
-2.54441 1.094 1.22092 -3.47447 1.24804 1.58674 -4.42926 1.35746 1.91445 
-5.39862 1.43658 2.2028 -6.37853 1.47731 2.46266 -7.36092 1.44425 2.71381 
-8.32126 1.26891 2.98936 -9.18022 0.859531 3.337 -9.83782 0.223704 3.77511 
-10.3236 -0.510733 4.27904 -10.7464 -1.2541 4.82498 -11.2027 -1.96841 5.38263 
-11.768 -2.64059 5.88969 -12.501 -3.26549 6.2055 -13.3296 -3.83761 6.10432 
-13.999 -4.39906 5.58979 -14.3798 -5.04882 4.91164 -14.4699 -5.8296 4.27184 
-14.3214 -6.69812 3.76994 -14.0097 -7.58282 3.38341 -13.587 -8.4301 3.0191 
-13.0852 -9.18875 2.57028 -12.5473 -9.81059 1.97722 -12.0165 -10.3098 1.2666 
-11.5214 -10.7355 0.51355 -11.0034 -11.3738 -0.210581 -10.9035 -12.0073 0.231114 
-11.1641 -12.0566 1.25329 -11.4632 -11.7988 2.18312 -11.7755 -11.3607 3.04295 
-12.0843 -10.818 3.84271 -12.3771 -10.2737 4.64799 -12.6214 -9.90708 5.56049 
-12.7609 -9.89895 6.56255 -12.7928 -10.2168 7.52552 -12.7585 -10.7344 8.3972 
-12.6891 -11.3846 9.17268 -12.6045 -12.1383 9.84645 -12.5197 -12.9763 10.4118 
-12.4401 -13.8739 10.8778 -12.3574 -14.8007 11.2824 -12.253 -15.7316 11.6722 
-12.1032 -16.6492 12.0783 -11.8793 -17.5395 12.5102 -11.5483 -18.3861 12.9605 
-11.0839 -19.1666 13.4123 -10.4823 -19.8555 13.8508 -9.76416 -20.4329 14.2751 
-8.96068 -20.8831 14.7003 -8.10462 -21.1892 15.1502 -7.23049 -21.3416 15.6417 
-6.36534 -21.361 16.1712 -5.51295 -21.2989 16.7179 -4.65762 -21.2081 17.2561 
-3.78266 -21.1214 17.7624 -2.8829 -21.0485 18.2253 -1.9661 -20.9889 18.6568 
-1.05101 -20.9477 19.0891 -0.171084 -20.9714 19.6072 0.559309 -21.1197 20.256 
0.917575 -21.5323 21.136 
LINES 1 65
64 0 1 2 3 4 5 6 7 8 9 10 11 12 13 14 15 16 17 18 19 20 21 22 23 24 25 26 27 28 29 30 31 32 33 34 35 36 37 38 39 40 41 42 43 44 45 46 47 48 49 50 51 52 53 54 55 56 57 58 59 60 61 62 63 

POINT_DATA 64
SCALARS MaximumInscribedSphereRadius float
LOOKUP_TABLE default
1.55 1.23305 0.995856 1.11099 1.22148 1.24 1.18682 1.04977 1.00937 
1.33749 1.50641 1.40578 1.28273 1.17608 1.29188 1.51832 1.46564 1.42052 
1.49476 1.4163 1.26417 1.17691 1.15688 1.26368 1.40757 1.64534 1.80265 
1.67444 1.56026 1.39121 1.18546 1.0178 0.93 0.938976 1.02923 1.26499 
1.61287 1.831 1.86 1.86 1.84626 1.67839 1.39109 1.34978 1.50214 
1.55 1.55 1.55 1.55 1.55 1.55 1.55 1.47731 1.27818 
1.22236 1.42529 1.55 1.55076 1.55811 1.57101 1.47962 1.29487 1.48767 
1.81 
TEXTURE_COORDINATES TCoords 2 float
0 0 0.015873 0 0.031746 0 0.047619 0 0.0634921 
0 0.0793651 0 0.0952381 0 0.111111 0 0.126984 0 
0.142857 0 0.15873 0 0.174603 0 0.190476 0 0.206349 
0 0.222222 0 0.238095 0 0.253968 0 0.269841 0 
0.285714 0 0.301587 0 0.31746 0 0.333333 0 0.349206 
0 0.365079 0 0.380952 0 0.396825 0 0.412698 0 
0.428571 0 0.444444 0 0.460317 0 0.47619 0 0.492063 
0 0.507937 0 0.52381 0 0.539683 0 0.555556 0 
0.571429 0 0.587302 0 0.603175 0 0.619048 0 0.634921 
0 0.650794 0 0.666667 0 0.68254 0 0.698413 0 
0.714286 0 0.730159 0 0.746032 0 0.761905 0 0.777778 
0 0.793651 0 0.809524 0 0.825397 0 0.84127 0 
0.857143 0 0.873016 0 0.888889 0 0.904762 0 0.920635 
0 0.936508 0 0.952381 0 0.968254 0 0.984127 0 
1 0 
FIELD FieldData 4
Curvature 1 64 float
0.150562 0.139692 0.114659 0.0860542 0.0649672 0.050791 0.0444862 0.0713098 0.140491 
0.243644 0.284599 0.200909 0.0966685 0.0599764 0.125695 0.252094 0.410005 0.407478 
0.315172 0.288249 0.257433 0.1798 0.110338 0.132306 0.184469 0.153731 0.10684 
0.284993 1.838 1.19366 0.302456 0.177591 0.112698 0.097809 0.216596 0.340126 
0.31269 0.214251 0.149787 0.126246 0.121018 0.102317 0.0603257 0.0312678 0.0444281 
0.0726176 0.10234 0.131031 0.145359 0.141797 0.134487 0.136927 0.140691 0.121055 
0.0741518 0.0277355 0.0361197 0.0476219 0.0352767 0.0322904 0.0998107 0.246698 0.443896 
0.452624 
Torsion 1 64 float
0.0465322 0.082112 0.143355 0.21848 0.204828 -0.0145025 -0.442683 -0.331735 -0.156558 
-0.116031 -0.122782 -0.183871 -0.559404 -0.749176 -0.382253 -0.251594 -0.309831 -0.469175 
-0.527103 -0.326043 -0.0861506 0.218945 0.8232 0.528556 0.178704 0.142024 0.23711 
0.123745 0.102257 0.064499 0.0224302 0.0190224 0.0788955 0.208922 0.0577634 0.00808166 
0.0180335 0.0434725 0.0762067 0.088629 0.0655058 -0.0147881 -0.374353 -0.835563 -0.335319 
0.0879767 0.116851 0.0609238 -0.0147184 -0.108735 -0.194054 -0.201721 -0.134343 -0.0477251 
0.119535 1.16065 0.355107 0.0171752 0.426336 0.750614 0.14821 -0.00555283 -0.0113246 
-0.00457889 
Abscissas 1 64 double
0 1.0383157862 2.019693214 3.046292787 4.0575167153 5.0728907456 6.0873137924 7.1019225954 8.1164408617 
9.1307990001 10.143845738 11.158069247 12.172622494 13.18723388 14.201816947 15.215979879 16.229646281 17.241682295 
18.255555593 19.269016228 20.282470446 21.296524215 22.311033665 23.325581729 24.339885053 25.353662486 26.371467506 
27.368169254 28.463641429 29.242327967 30.298341204 31.308565123 32.322816858 33.337486974 34.352600603 35.365871511 
36.377624995 37.392211706 38.40652899 39.420951364 40.435381862 41.449807756 42.464343565 43.478956674 44.493557001 
45.508120679 46.522640522 47.537087122 48.55145899 49.565822503 50.580222052 51.594648151 52.609032646 53.623378324 
54.637866912 55.652461543 56.667061136 57.681654966 58.696148866 59.711141249 60.724081198 61.74547456 62.733627021 
63.76940532 
ParallelTransportNormals 3 64 double
0.45844644576 0 0.88872203549 0.43916375243 0.009946988492 0.89835196664 0.41015069634 0.019776975676 0.91180331076 
0.36996834154 0.028499137889 0.92860714266 0.32796972776 0.034371936851 0.94406272442 0.28777756 0.038310007419 0.95693072858 
0.25768519153 0.040160191997 0.96539396157 0.24620844761 0.040205001114 0.96838265072 0.26836650327 0.042582074495 0.96237528379 
0.34641303891 0.067673357614 0.9356379231 0.45157224471 0.14013367296 0.88116120064 0.51992991002 0.22205321774 0.82484256507 
0.54883604316 0.26906723428 0.79144287296 0.54830020157 0.26817871857 0.79211556219 0.50414345354 0.2082501702 0.83813557666 
0.35326904299 0.05752489081 0.93375150345 0.0180441403 -0.19940693892 0.9797506222 -0.29160323707 -0.43370911077 0.85256317031 
-0.3891046544 -0.54617334475 0.74181685436 -0.39218523949 -0.55553051729 0.73319614176 -0.39381469989 -0.50947599122 0.76507790226 
-0.401102326 -0.48171063864 0.77914811473 -0.38489423724 -0.51993529067 0.76257702539 -0.32123862538 -0.63050129792 0.70659313532 
-0.21919921319 -0.76598186093 0.60433723504 -0.13415022217 -0.85521778744 0.50060588684 -0.093565436782 -0.89179417574 0.44266088279 
-0.18289836184 -0.79875877556 0.57317764062 -0.67611558606 0.34669843669 0.65012914739 -0.61672395572 0.77803380334 -0.11964515574 
-0.54133592542 0.74907967701 -0.38188355992 -0.49060531135 0.69136619227 -0.53039533997 -0.45955376826 0.64233577052 -0.61336375177 
-0.46240399946 0.64748519218 -0.60576023904 -0.51588366661 0.73818898807 -0.43467351015 -0.58534810092 0.80599054765 -0.088016122694 
-0.61304781764 0.75605130161 0.22925706669 -0.61280247927 0.66869194578 0.42109880438 -0.60514965321 0.58251508163 0.54265097152 
-0.59578481865 0.49712528575 0.63079862091 -0.58664801454 0.41124824971 0.69765248093 -0.57937685283 0.33451272392 0.74325211062 
-0.57485828541 0.28374460355 0.76748091289 -0.57258133085 0.26113765652 0.77714718291 -0.57137395426 0.2523565302 0.78092764457 
-0.56859797808 0.23892723729 0.787153171 -0.55883230242 0.2083611169 0.80267808163 -0.53572500115 0.16108916402 0.82888419238 
-0.4993272561 0.11091760412 0.85928433968 -0.46185134245 0.074959180941 0.88378416973 -0.44027318804 0.060386665907 0.89583088274 
-0.44649047057 0.063220009293 0.89255223383 -0.47929060499 0.071911628273 0.87470522674 -0.51925642722 0.075859728151 0.85124500847 
-0.54227838268 0.075287051323 0.83681898615 -0.53674593255 0.075782349599 0.84033376666 -0.50512252656 0.079025283934 0.85942203699 
-0.4612387831 0.082973391959 0.88338791094 -0.42878205411 0.085340540905 0.89936807935 -0.42879875043 0.085339622394 0.89936020619 
-0.503858913 0.084593907563 0.85963368163 -0.64930184323 0.10034415784 0.75388206397 -0.86702209318 0.21039702625 0.45166999157 
-0.86702209318 0.21039702625 0.45166999157 
