# vtk DataFile Version 4.2
vtk output
ASCII
DATASET POLYDATA
POINTS 64 float
0 0 0 -0.984268 0.0657063 0.330942 -1.92142 0.125279 0.605949 
-2.91356 0.165807 0.870805 -3.89627 0.168384 1.1086 -4.88652 0.124099 1.32853 
-5.87599 0.0258706 1.52946 -6.86065 -0.135264 1.71342 -7.83068 -0.375976 1.88768 
-8.76791 -0.720734 2.06622 -9.64347 -1.19089 2.26916 -10.433 -1.78121 2.5083 
-11.1423 -2.45864 2.76788 -11.8091 -3.18901 2.99319 -12.4852 -3.94196 3.0598 
-13.1659 -4.626 2.75554 -13.7415 -5.1335 2.09166 -14.2015 -5.53626 1.28267 
-14.579 -5.91615 0.42089 -14.878 -6.31438 -0.463005 -15.0736 -6.75179 -1.35716 
-15.1131 -7.23387 -2.24863 -14.9384 -7.74969 -3.10397 -14.5361 -8.27568 -3.87192 
-13.9556 -8.79697 -4.52003 -13.2642 -9.32214 -5.04481 -12.5113 -9.87894 -5.43461 
-11.74 -10.5076 -5.62499 -11.0845 -11.2325 -5.36685 -10.8597 -11.7654 -4.53735 
-10.928 -11.9826 -3.55027 -11.0818 -12.0224 -2.54829 -11.2574 -11.9606 -1.55097 
-11.4364 -11.8566 -0.557671 -11.6271 -11.7833 0.436012 -11.8574 -11.8612 1.42057 
-12.137 -12.2362 2.3191 -12.3967 -12.8986 3.04173 -12.5575 -13.7191 3.61579 
-12.578 -14.6115 4.09745 -12.4353 -15.5221 4.52102 -12.1228 -16.4071 4.9054 
-11.6506 -17.2307 5.26263 -11.0407 -17.9665 5.60273 -10.3192 -18.5976 5.93448 
-9.5122 -19.1159 6.26486 -8.64414 -19.5212 6.59852 -7.73704 -19.8225 6.93864 
-6.80912 -20.0383 7.28748 -5.87299 -20.1937 7.64652 -4.93552 -20.3125 8.01587 
-3.99929 -20.4114 8.39418 -3.06454 -20.4951 8.77973 -2.13113 -20.5563 9.1727 
-1.20112 -20.5813 9.57746 -0.280668 -20.5591 10.0036 0.619742 -20.4886 10.4658 
1.48674 -20.3825 10.9819 2.3047 -20.2681 11.5711 3.0518 -20.1925 12.2534 
3.69004 -20.2298 13.0391 4.14565 -20.5201 13.9064 4.35418 -21.075 14.6867 
4.34187 -21.895 15.3262 
LINES 1 65
64 0 1 2 3 4 5 6 7 8 9 10 11 12 13 14 15 16 17 18 19 20 21 22 23 24 25 26 27 28 29 30 31 32 33 34 35 36 37 38 39 40 41 42 43 44 45 46 47 48 49 50 51 52 53 54 55 56 57 58 59 60 61 62 63 

POINT_DATA 64
SCALARS MaximumInscribedSphereRadius float
LOOKUP_TABLE default
0.93 1.11199 1.24 1.24 1.24 1.24 1.24 1.24 1.26035 
1.2933 1.35578 1.36162 1.3638 1.54815 1.34484 0.962851 1.28582 1.58707 
1.80628 1.91295 1.83782 1.60876 1.56447 1.53936 1.36571 1.28561 1.35143 
1.32535 1.2478 1.33449 1.73449 1.8377 1.64457 1.81563 2.10488 1.94694 
1.72185 1.57704 1.63476 1.63772 1.59448 1.62203 1.67294 1.77907 1.86178 
1.87706 1.8273 1.70933 1.66942 1.66827 1.76359 1.92285 2.24735 2.31476 
2.01925 1.87838 1.881 1.87487 1.86543 1.87386 2.06719 2.50135 2.4113 
2.17 
TEXTURE_COORDINATES TCoords 2 float
0 0 0.015873 0 0.031746 0 0.047619 0 0.0634921 
0 0.0793651 0 0.0952381 0 0.111111 0 0.126984 0 
0.142857 0 0.15873 0 0.174603 0 0.190476 0 0.206349 
0 0.222222 0 0.238095 0 0.253968 0 0.269841 0 
0.285714 0 0.301587 0 0.31746 0 0.333333 0 0.349206 
0 0.365079 0 0.380952 0 0.396825 0 0.412698 0 
0.428571 0 0.444444 0 0.460317 0 0.47619 0 0.492063 
0 0.507937 0 0.52381 0 0.539683 0 0.555556 0 
0.571429 0 0.587302 0 0.603175 0 0.619048 0 0.634921 
0 0.650794 0 0.666667 0 0.68254 0 0.698413 0 
0.714286 0 0.730159 0 0.746032 0 0.761905 0 0.777778 
0 0.793651 0 0.809524 0 0.825397 0 0.84127 0 
0.857143 0 0.873016 0 0.888889 0 0.904762 0 0.920635 
0 0.936508 0 0.952381 0 0.968254 0 0.984127 0 
1 0 
FIELD FieldData 4
Curvature 1 64 float
0.0535793 0.0391252 0.0349871 0.0385376 0.0438271 0.0488624 0.0564516 0.0715137 0.0964088 
0.123309 0.130316 0.104222 0.0870124 0.167475 0.346451 0.387899 0.223469 0.114183 
0.077933 0.0970781 0.143274 0.191843 0.212096 0.190272 0.147031 0.136119 0.216134 
0.449759 0.73167 0.429135 0.20452 0.0985272 0.0481893 0.0733587 0.165413 0.286624 
0.302731 0.221936 0.168303 0.15293 0.151739 0.148406 0.140553 0.131007 0.12103 
0.109877 0.0951754 0.075439 0.0527429 0.0319404 0.0184279 0.0144515 0.0205807 0.0330319 
0.0456706 0.0548858 0.0625914 0.0783365 0.112834 0.174948 0.269465 0.354133 0.342486 
0.265683 
Torsion 1 64 float
0.212289 0.331358 0.334946 0.191675 0.0795145 0.0518058 0.100285 0.148077 0.137427 
0.120482 0.0432191 -0.191888 -0.575621 -0.287202 -0.0397016 0.0689997 0.147376 0.271484 
0.257197 0.0463066 -0.0421008 -0.0185851 0.0269658 0.085533 0.201816 0.256612 0.14523 
0.0232646 -0.10477 -0.145521 -0.141149 -0.131941 0.0154411 0.0469484 0.00881988 0.054481 
0.190385 0.284511 0.291338 0.219094 0.1455 0.11009 0.0984187 0.0904167 0.0778833 
0.0681788 0.065503 0.0761764 0.1039 0.146599 0.128379 -0.0758223 -0.0770629 0.062207 
0.159533 0.257022 0.334894 0.344918 0.276917 0.226743 0.18522 0.125719 0.0656632 
0.030565 
Abscissas 1 64 double
0 1.0404921847 2.0189767198 3.0466632827 4.0577301026 5.0730792018 6.0875137818 7.1020861591 8.1166156991 
9.1310777883 10.145396686 11.159762894 12.174359648 13.188712407 14.202864919 15.214661757 16.229378016 17.243404526 
18.258059989 19.272565283 20.287008795 21.301254668 22.315251763 23.329283049 24.3435671 25.358030835 26.37236177 
27.385494636 28.396336807 29.407538469 30.42053996 31.435039946 32.449591354 33.46422251 34.478692897 35.49281669 
36.505837101 37.519986948 38.534134942 39.548480414 40.562776085 41.577077791 42.591404987 43.605762995 44.620158426 
45.634582258 46.649045628 47.663553395 48.678109389 49.692695005 50.707292922 51.721895572 52.736499388 53.751097326 
54.765682857 55.780252329 56.794812474 57.809362104 58.823873083 59.838459244 60.85141742 61.873207801 62.853171895 
63.893067647 
ParallelTransportNormals 3 64 double
0.31869914878 0 0.94785592395 0.28171641893 0.00240951577 0.95949468656 0.25805889604 0.0036435619605 0.9661223166 
0.23520358863 0.0041388627078 0.97193731367 0.21665161066 0.0037476060579 0.97624179128 0.19876926898 0.0024600987865 0.98004322641 
0.18357693489 0.00046415288153 0.98300523576 0.17701928712 -0.00088397921877 0.98420698563 0.18641920863 0.0020015244941 0.98246825524 
0.2175995671 0.016018430162 0.97590667499 0.26002105915 0.043036761662 0.96464339833 0.28692033094 0.065789222743 0.95569268171 
0.27080608656 0.049304351006 0.96137045121 0.16820266344 -0.064020804743 0.98367128685 -0.085470228313 -0.33268251993 0.93915769762 
-0.34399959153 -0.57791512781 0.74005296167 -0.4497225805 -0.67084233047 0.58967802082 -0.48379240904 -0.70267997391 0.52171425054 
-0.49586971967 -0.7165714552 0.49054925411 -0.50266551946 -0.72805456614 0.46611578418 -0.50780326797 -0.74814734646 0.42709646337 
-0.50327203984 -0.78159324965 0.36855019471 -0.48209475805 -0.81982969541 0.30897235277 -0.45661870095 -0.8469779337 0.27226410297 
-0.44806335565 -0.85401727095 0.26437422386 -0.4728442484 -0.8354525873 0.28006658337 -0.55326462152 -0.77290481227 0.31067090264 
-0.75818745523 -0.57847374473 0.30086526783 -0.95084420894 -0.3032204255 0.062870214562 -0.96638479897 -0.22883840565 -0.11718960883 
-0.96199261523 -0.2237507491 -0.15654331833 -0.96215083353 -0.22374016524 -0.15558313534 -0.9631208171 -0.22328662502 -0.15013785249 
-0.95985972432 -0.2248498943 -0.16766584229 -0.9447329852 -0.22468491541 -0.23873892741 -0.91065363596 -0.19441378418 -0.36457267566 
-0.88318123656 -0.14157497212 -0.44715481733 -0.88288510029 -0.14053041494 -0.44806818919 -0.88930617441 -0.20120710491 -0.41067046288 
-0.88227561867 -0.30500178141 -0.3585577304 -0.85026199152 -0.43129110694 -0.30173254192 -0.79106168396 -0.56018770399 -0.24578679474 
-0.7096157269 -0.67755496316 -0.19329974658 -0.61298697405 -0.77675956459 -0.14453908978 -0.50866323907 -0.85521446819 -0.099347484238 
-0.40400975151 -0.91292303355 -0.057858927525 -0.30784270055 -0.95119751585 -0.0213578452 -0.22944758988 -0.97328751643 0.0080755092585 
-0.17445956327 -0.98423845396 0.028957322682 -0.14180011746 -0.98901853604 0.041654076065 -0.12433829204 -0.9910478819 0.048621856302 
-0.11112253595 -0.99233759189 0.054017457608 -0.091318510694 -0.99387289362 0.062270385698 -0.059774574217 -0.9953317372 0.075774225198 
-0.019485794746 -0.99539414466 0.093865864835 0.019751381573 -0.99339757911 0.11300943655 0.04557034611 -0.99081676362 0.12730076385 
0.046461122957 -0.99070014434 0.12788505801 0.010545491001 -0.99506055839 0.09870804304 -0.072100533773 -0.99733538086 0.011119852346 
-0.21590728313 -0.95443689627 -0.20599576727 -0.32860607271 -0.80894751612 -0.48746483477 -0.36414687919 -0.5693583205 -0.73704013001 
-0.36414687919 -0.5693583205 -0.73704013001 
