# vtk DataFile Version 4.2
vtk output
ASCII
DATASET POLYDATA
POINTS 64 float
0 0 0 -0.967206 0.172528 -0.365228 -1.91803 0.163664 -0.582439 
-2.9003 -0.0911369 -0.645494 -3.7649 -0.609637 -0.544317 -4.49758 -1.28633 -0.360661 
-5.15717 -2.02948 -0.155633 -5.79684 -2.79191 0.0417357 -6.44331 -3.55646 0.205577 
-7.09104 -4.33265 0.288504 -7.67416 -5.15542 0.18271 -7.96569 -6.00365 -0.274071 
-7.82844 -6.72367 -0.971477 -7.44853 -7.3282 -1.69134 -6.95633 -7.90171 -2.36811 
-6.40866 -8.50795 -2.96941 -5.84878 -9.21216 -3.4358 -5.3728 -10.0864 -3.60982 
-5.26489 -10.9968 -3.21397 -5.6234 -11.512 -2.4223 -6.18043 -11.6077 -1.58289 
-6.76984 -11.3781 -0.791784 -7.28241 -10.8858 -0.0695832 -7.61316 -10.2056 0.6046 
-7.64427 -9.46126 1.29026 -7.27731 -8.91529 2.05485 -6.65105 -8.91333 2.84274 
-6.08297 -9.42465 3.50422 -5.69406 -10.2344 3.97059 -5.49144 -11.2015 4.1916 
-5.44179 -12.2112 4.13182 -5.48263 -13.1783 3.83015 -5.54533 -14.0963 3.40268 
-5.58283 -15.0158 2.97555 -5.56986 -15.9851 2.67912 -5.50103 -16.9948 2.64065 
-5.38032 -17.9643 2.90766 -5.20211 -18.8159 3.4271 -4.94367 -19.5072 4.12178 
-4.57093 -19.9959 4.92729 -4.05579 -20.227 5.76799 -3.40976 -20.1853 6.54703 
-2.67918 -19.9378 7.20494 -1.90119 -19.5838 7.75123 -1.09007 -19.2005 8.22491 
-0.249714 -18.8329 8.65851 0.614221 -18.4943 9.06883 1.48979 -18.1655 9.46217 
2.36083 -17.8147 9.84631 3.21369 -17.4323 10.241 4.0471 -17.0509 10.676 
4.86903 -16.7382 11.1814 5.67787 -16.5838 11.7725 6.44082 -16.6725 12.4331 
7.09885 -17.0309 13.1148 7.6038 -17.6115 13.7744 7.93571 -18.3368 14.4001 
8.09285 -19.136 15.0042 8.08737 -19.9503 15.6087 7.95473 -20.7301 16.2435 
7.76205 -21.4346 16.9476 7.6155 -22.0208 17.7665 7.63321 -22.4251 18.6564 
7.94617 -22.6247 19.6346 
LINES 1 65
64 0 1 2 3 4 5 6 7 8 9 10 11 12 13 14 15 16 17 18 19 20 21 22 23 24 25 26 27 28 29 30 31 32 33 34 35 36 37 38 39 40 41 42 43 44 45 46 47 48 49 50 51 52 53 54 55 56 57 58 59 60 61 62 63 

POINT_DATA 64
SCALARS MaximumInscribedSphereRadius float
LOOKUP_TABLE default
0.62 0.959212 1.13204 0.955603 1.14131 1.10588 1.10402 1.44485 1.55 
1.39087 1.00939 0.913053 0.716874 0.781084 0.965518 0.984137 1.0814 1.23319 
1.24 1.29523 1.49324 1.55 1.55 1.54311 1.34318 1.07275 1.20007 
1.46141 1.26373 1.25427 1.41242 1.35003 1.01441 1.14676 1.10502 0.879394 
0.711367 0.995993 1.24 1.29344 1.51456 1.581 1.581 1.5879 1.78521 
1.76053 1.57279 1.79743 1.87296 1.86 1.84301 1.70571 1.68738 1.83207 
1.45746 1.24 1.34517 1.70752 1.72693 1.63446 1.8077 1.68126 1.56369 
1.581 
TEXTURE_COORDINATES TCoords 2 float
0 0 0.015873 0 0.031746 0 0.047619 0 0.0634921 
0 0.0793651 0 0.0952381 0 0.111111 0 0.126984 0 
0.142857 0 0.15873 0 0.174603 0 0.190476 0 0.206349 
0 0.222222 0 0.238095 0 0.253968 0 0.269841 0 
0.285714 0 0.301587 0 0.31746 0 0.333333 0 0.349206 
0 0.365079 0 0.380952 0 0.396825 0 0.412698 0 
0.428571 0 0.444444 0 0.460317 0 0.47619 0 0.492063 
0 0.507937 0 0.52381 0 0.539683 0 0.555556 0 
0.571429 0 0.587302 0 0.603175 0 0.619048 0 0.634921 
0 0.650794 0 0.666667 0 0.68254 0 0.698413 0 
0.714286 0 0.730159 0 0.746032 0 0.761905 0 0.777778 
0 0.793651 0 0.809524 0 0.825397 0 0.84127 0 
0.857143 0 0.873016 0 0.888889 0 0.904762 0 0.920635 
0 0.936508 0 0.952381 0 0.968254 0 0.984127 0 
1 0 
FIELD FieldData 4
Curvature 1 64 float
0.162764 0.211275 0.258023 0.251293 0.16917 0.0905934 0.040286 0.0293169 0.0696537 
0.173 0.35468 0.399793 0.231608 0.113772 0.0739597 0.138632 0.290383 0.539533 
0.567032 0.356737 0.243617 0.20788 0.198477 0.235244 0.349459 0.463154 0.399041 
0.294512 0.252713 0.236982 0.193706 0.103265 0.0327431 0.111034 0.199485 0.230777 
0.208635 0.180979 0.189079 0.219264 0.230519 0.188741 0.121862 0.0624499 0.0397783 
0.0355114 0.0202083 0.0198352 0.0320383 0.0360534 0.0732501 0.133376 0.189554 0.212565 
0.19969 0.167721 0.139996 0.120177 0.101686 0.0942301 0.126739 0.20578 0.265146 
0.252294 
Torsion 1 64 float
0.014777 0.0287264 0.0550848 0.0803477 0.0864272 0.0894094 0.229322 0.128044 -0.186218 
-0.137526 -0.115569 -0.11094 -0.140941 -0.324798 -0.518538 -0.191306 -0.0773875 -0.0524045 
-0.00952953 0.0636726 0.130609 0.217114 0.339634 0.389859 0.344302 0.268327 0.12284 
-0.00239068 -0.101359 -0.127502 -0.120084 -0.208653 -2.28195 -0.220041 -0.0590628 0.0168328 
0.0947731 0.154687 0.145194 0.107592 0.0913233 0.101075 0.163207 0.382918 0.478586 
0.0728062 -0.632589 -0.973608 -0.494159 -0.829731 -0.362264 -0.129758 -0.0508879 0.00290972 
0.0608352 0.127072 0.179813 0.231046 0.358172 0.532094 0.425415 0.220719 0.10387 
0.0435608 
Abscissas 1 64 double
0 1.0481628677 2.0235198411 3.0402540235 4.0534765751 5.0676139 6.0821913397 7.0967946076 8.1113373954 
9.1256867031 10.139676781 11.146222747 12.157977578 13.171872805 14.186366054 15.200771952 16.214138417 17.224627036 
18.223260813 19.233547093 20.245491322 21.258393783 22.27163415 23.284850137 24.297320008 25.305958374 26.312429256 
27.323224852 28.335391524 29.347890067 30.360597426 31.374479452 32.389038647 33.403561057 34.417282931 35.430039824 
36.442871583 37.456229483 38.469744546 39.482948426 40.495649746 41.508567343 42.522406464 43.536791524 44.551326533 
45.565888041 46.5804679 47.595071035 48.609649458 49.624225814 50.63876875 51.653019082 52.666694918 53.679754653 
54.692788992 55.706221047 56.720022671 57.734061152 58.748251028 59.762455399 60.776959539 61.794664889 62.772262279 
63.818492579 
ParallelTransportNormals 3 64 double
-0.35326388631 0 0.93552371783 -0.22260115577 -0.010708078171 0.97485078987 -0.066681246854 0.010153709758 0.99772266362 
0.074777332884 0.069425190411 0.99478062578 0.13841403335 0.1170377776 0.98343465161 0.15425431566 0.13319141049 0.97901259148 
0.14984000937 0.12807609201 0.98037976634 0.12849245356 0.10273111441 0.98637518598 0.077364212926 0.04186352827 0.99612359854 
-0.034453266969 -0.1033978895 0.99404318258 -0.19575454955 -0.41195648178 0.88992809454 -0.22426178043 -0.69973472958 0.67829047027 
-0.18570717253 -0.79853770756 0.57258219993 -0.17680191772 -0.81056742267 0.55832028012 -0.20660540879 -0.77675496789 0.59495035501 
-0.29009572793 -0.6779661969 0.67543045867 -0.46602257307 -0.4098160476 0.78413887068 -0.67331813414 0.2262357399 0.70388925282 
-0.57740070481 0.77874322703 0.24529046547 -0.3633563398 0.92165587776 -0.13609780792 -0.18068829097 0.90034020107 -0.39590309907 
-0.043875740994 0.8107234227 -0.58378288022 0.028171958867 0.71055150318 -0.70308100676 0.036462680901 0.67790334399 -0.73424623193 
0.067382454655 0.79639060778 -0.60101714172 0.29862799721 0.9237890738 -0.23965614204 0.58899522315 0.80023324179 0.11274478185 
0.76717634175 0.55433084076 0.32273484417 0.85911932648 0.27817166137 0.42957480104 0.89242686688 0.017181498737 0.45086481718 
0.89325572493 -0.16781129481 0.41705344886 0.88920088202 -0.24164359344 0.38849731681 0.89031560027 -0.22120240291 0.39800455884 
0.89160980448 -0.12146557841 0.43620874568 0.88482459781 0.042636967707 0.46396930942 0.86690344035 0.2297704905 0.44236178271 
0.83889921201 0.40039915733 0.36868499686 0.7965582254 0.55001563753 0.2509537647 0.72461366175 0.6845009581 0.079959236844 
0.59977993498 0.78569454867 -0.15148632209 0.42467541437 0.81426972874 -0.39574689044 0.25354804261 0.7783261293 -0.57438821936 
0.13624743601 0.73155894451 -0.66802555856 0.078588784606 0.70480580072 -0.70503374828 0.062995263967 0.69771487662 -0.71360041176 
0.064785255776 0.69845654826 -0.71271405264 0.059703136348 0.69650688683 -0.71506201976 0.041314087722 0.68935184568 -0.72324766091 
0.030048178093 0.68455983303 -0.72833710738 0.05528808117 0.69599202819 -0.71591781984 0.13489774954 0.72936868066 -0.67068914174 
0.27459797997 0.76938271198 -0.57675488025 0.46113539422 0.77717165666 -0.42820364814 0.64985777068 0.71778830594 -0.24992964158 
0.79598719401 0.59981573297 -0.081397011284 0.88745691526 0.45708792877 0.059083406641 0.93308924279 0.31484679067 0.17382739538 
0.9446965754 0.19137282695 0.26631714466 0.93758057805 0.10924666043 0.33016333359 0.93359663013 0.091069405333 0.34655980094 
0.94905794911 0.14989429569 0.27716549091 0.96233069881 0.25424011056 0.096341020908 0.90833375038 0.35710411558 -0.21773021964 
0.90833375038 0.35710411558 -0.21773021964 
