# vtk DataFile Version 4.2
vtk output
ASCII
DATASET POLYDATA
POINTS 64 float
0 0 0 -0.419799 -0.206257 0.936081 -1.01152 -0.323117 1.70097 
-1.76095 -0.408881 2.39315 -2.60202 -0.480617 2.95335 -3.50594 -0.57529 3.4039 
-4.44752 -0.726539 3.7497 -5.40247 -0.968855 3.99075 -6.34025 -1.33174 4.12258 
-7.22346 -1.82966 4.14236 -8.01823 -2.45401 4.05882 -8.70894 -3.17823 3.89385 
-9.29898 -3.97342 3.67351 -9.80549 -4.81389 3.41607 -10.2585 -5.67122 3.11765 
-10.6983 -6.50234 2.73657 -11.146 -7.22818 2.18894 -11.5486 -7.78811 1.44605 
-11.8341 -8.2273 0.577706 -11.9682 -8.61731 -0.348866 -11.9392 -8.99943 -1.28789 
-11.753 -9.39543 -2.2029 -11.4294 -9.81988 -3.06545 -10.9954 -10.2875 -3.85403 
-10.4772 -10.8163 -4.54716 -9.89849 -11.4377 -5.1019 -9.29762 -12.2062 -5.39001 
-8.98291 -12.971 -4.92431 -9.24353 -13.1232 -3.9396 -9.65147 -12.9487 -3.02981 
-10.0896 -12.6551 -2.16313 -10.5273 -12.3133 -1.31394 -10.948 -11.9799 -0.453005 
-11.3335 -11.7237 0.449506 -11.6501 -11.648 1.40947 -11.8372 -11.8727 2.3785 
-11.8541 -12.4088 3.2377 -11.7273 -13.1376 3.93112 -11.5034 -13.9552 4.48813 
-11.2157 -14.8096 4.95324 -10.8844 -15.6781 5.35982 -10.5211 -16.5506 5.72875 
-10.1318 -17.4223 6.07229 -9.71633 -18.2893 6.39648 -9.26586 -19.1457 6.70145 
-8.76106 -19.9794 6.98329 -8.17442 -20.7671 7.23709 -7.48011 -21.4722 7.45951 
-6.67109 -22.0527 7.65162 -5.76831 -22.4823 7.82185 -4.80776 -22.7637 7.98601 
-3.82039 -22.9157 8.16212 -2.82781 -22.9591 8.36705 -1.84518 -22.9149 8.61538 
-0.882937 -22.8079 8.91851 0.0526325 -22.6688 9.2854 0.957861 -22.5337 9.72307 
1.82846 -22.4413 10.2355 2.65561 -22.4266 10.8226 3.42466 -22.5101 11.4787 
4.11957 -22.6887 12.1936 4.73656 -22.9494 12.9698 5.24679 -23.2472 13.7422 
5.70401 -23.609 14.6122 
LINES 1 65
64 0 1 2 3 4 5 6 7 8 9 10 11 12 13 14 15 16 17 18 19 20 21 22 23 24 25 26 27 28 29 30 31 32 33 34 35 36 37 38 39 40 41 42 43 44 45 46 47 48 49 50 51 52 53 54 55 56 57 58 59 60 61 62 63 

POINT_DATA 64
SCALARS MaximumInscribedSphereRadius float
LOOKUP_TABLE default
0.93 0.96059 0.979459 0.987584 1.39838 1.79273 1.44224 1.15891 0.964449 
1.08746 1.22888 1.24 1.11594 0.95058 1.20266 1.68039 1.47778 1.26511 
1.77451 1.62543 1.55 1.55 1.55 1.49012 1.31311 1.38681 1.64315 
1.83147 1.60511 1.25434 1.24 1.24 1.24 1.24 1.24802 1.26634 
1.25113 1.35948 1.54507 1.72268 1.84141 1.86 1.79093 1.61397 1.43163 
1.29785 1.43134 1.55 1.55 1.55 1.52461 1.43369 1.34335 1.27469 
1.38897 1.64253 2.2984 2.39001 1.96879 2.10738 2.45366 2.89611 2.68907 
2.17 
TEXTURE_COORDINATES TCoords 2 float
0 0 0.015873 0 0.031746 0 0.047619 0 0.0634921 
0 0.0793651 0 0.0952381 0 0.111111 0 0.126984 0 
0.142857 0 0.15873 0 0.174603 0 0.190476 0 0.206349 
0 0.222222 0 0.238095 0 0.253968 0 0.269841 0 
0.285714 0 0.301587 0 0.31746 0 0.333333 0 0.349206 
0 0.365079 0 0.380952 0 0.396825 0 0.412698 0 
0.428571 0 0.444444 0 0.460317 0 0.47619 0 0.492063 
0 0.507937 0 0.52381 0 0.539683 0 0.555556 0 
0.571429 0 0.587302 0 0.603175 0 0.619048 0 0.634921 
0 0.650794 0 0.666667 0 0.68254 0 0.698413 0 
0.714286 0 0.730159 0 0.746032 0 0.761905 0 0.777778 
0 0.793651 0 0.809524 0 0.825397 0 0.84127 0 
0.857143 0 0.873016 0 0.888889 0 0.904762 0 0.920635 
0 0.936508 0 0.952381 0 0.968254 0 0.984127 0 
1 0 
FIELD FieldData 4
Curvature 1 64 float
0.201539 0.183445 0.152717 0.12268 0.102327 0.0988641 0.110621 0.129988 0.146226 
0.147682 0.131003 0.107965 0.0885515 0.0839331 0.114729 0.176592 0.215456 0.19182 
0.159496 0.144989 0.134925 0.122623 0.111301 0.116637 0.160185 0.282798 0.708073 
0.92061 0.351688 0.142406 0.0529122 0.0299822 0.0922263 0.177965 0.269 0.298401 
0.243415 0.165912 0.103795 0.0634728 0.0398863 0.0299769 0.0313266 0.0408197 0.0571834 
0.081837 0.111945 0.136607 0.143028 0.128681 0.106871 0.0894109 0.0780083 0.0690877 
0.0630116 0.0646062 0.0762585 0.0927555 0.105863 0.108346 0.102016 0.0935895 0.085349 
0.0780638 
Torsion 1 64 float
-0.0510494 -0.0768702 -0.113259 -0.168467 -0.232777 -0.241838 -0.181115 -0.109931 -0.0654308 
-0.0493223 -0.0515344 -0.0511079 0.0276927 0.219509 0.199961 0.0010006 -0.202233 -0.287795 
-0.240689 -0.163248 -0.128086 -0.135931 -0.17495 -0.181145 -0.126759 -0.0640696 -0.018728 
0.0338128 0.0405678 0.0548011 0.630251 1.70691 0.11529 0.0360414 0.00995422 -0.0131193 
-0.0314921 -0.0429182 -0.0531326 -0.0681378 -0.0926016 -0.112721 -0.0938923 -0.0744409 -0.073781 
-0.0749971 -0.0715765 -0.0691377 -0.0786662 -0.103023 -0.134603 -0.166175 -0.194967 -0.246948 
-0.327077 -0.350194 -0.250417 -0.133514 -0.0222303 0.0553223 0.0776271 0.0789762 0.0732438 
0.0655542 
Abscissas 1 64 double
0 1.0464321027 2.0205175759 3.0442935132 4.0573962235 5.0718039681 6.086208615 7.1004844551 8.1146374276 
9.1287183294 10.142847614 11.157139672 12.171549138 13.186058492 14.200605794 15.215173866 16.228682896 17.242320372 
18.256450888 19.270665711 20.284881136 21.299142545 22.313452499 23.327793246 24.342018364 25.356295326 26.373438209 
27.322572394 28.352508501 29.364742497 30.379279997 31.393925193 32.408486337 33.4228025 34.436424579 35.448621245 
36.461445032 37.475412588 38.489731831 39.504213519 40.518771371 41.533353475 42.547945991 43.562536595 44.577108589 
45.591630342 46.606030411 47.620277977 48.634378522 49.648556676 50.662871768 51.677268788 52.691714756 53.706197129 
54.720713417 55.735240607 56.749754752 57.764197238 58.778607298 59.792960458 60.805798872 61.831032374 62.803488215 
63.850777277 
ParallelTransportNormals 3 64 double
0 -0.97657460698 -0.21517908123 -0.026528363105 -0.98491409188 -0.17099847243 -0.035760718145 -0.98631837222 -0.16092619319 
-0.027473464634 -0.98549836169 -0.16744607445 0.0088930306816 -0.98203053494 -0.18851244643 0.076376147102 -0.97303800746 -0.21763207526 
0.178601318 -0.95182404661 -0.24926402367 0.31293980736 -0.90886867153 -0.2757288793 0.46531306624 -0.83683978057 -0.28841451426 
0.61073497286 -0.73957848583 -0.28288947706 0.72735551522 -0.63370731856 -0.26337993258 0.81035749761 -0.53523992624 -0.23840920164 
0.86418030998 -0.45495632134 -0.21495845535 0.89343453122 -0.40319475936 -0.19801193005 0.90111891868 -0.38866177777 -0.19216325584 
0.8940978698 -0.40097905661 -0.19951139159 0.89948392506 -0.39283440837 -0.19133686564 0.9271560565 -0.35265730767 -0.12654829215 
0.95395940454 -0.29969907118 -0.011913069594 0.96184495747 -0.24174068456 0.12812384328 0.94525398878 -0.18176573599 0.27102788401 
0.90809282458 -0.12195187074 0.40061847582 0.85805227781 -0.0630311214 0.50967967027 0.80006858539 -0.0023543344758 0.59990392212 
0.72932135489 0.071835142696 0.68038964834 0.62010353314 0.20050302999 0.7584656506 0.38964511994 0.59062072751 0.70664265137 
0.36407872704 0.90105471003 0.23568430167 0.43881205268 0.89824786637 0.024387557918 0.47704134629 0.87710244904 -0.055882446464 
0.49557173089 0.86366118784 -0.092184663357 0.49562731342 0.86361746429 -0.092295403864 0.47477754387 0.87886649928 -0.046690044835 
0.43041369949 0.89983463575 0.071004757537 0.37646439556 0.88384342993 0.27766049456 0.35159325481 0.7911499065 0.50046379351 
0.36169133571 0.67487652294 0.64321151767 0.38103927047 0.58955832154 0.71220085641 0.39671836124 0.53831642294 0.74352536651 
0.40688720388 0.51001378799 0.75784479901 0.41283497064 0.49510482848 0.76448577216 0.4158464049 0.48812474844 0.76733695173 
0.41648733177 0.48674009046 0.76786873019 0.41440540406 0.49088330931 0.76635614288 0.40699850568 0.50398760335 0.76180621686 
0.3883293017 0.53172097553 0.75264411087 0.34947941839 0.57699509513 0.73820105413 0.2835086677 0.63341000477 0.72001013965 
0.1942711504 0.68606724876 0.70112085285 0.095318152223 0.72382990414 0.68336280242 -0.0039779940677 0.74592568572 0.66601730229 
-0.10064196 0.7554639561 0.64741440123 -0.19226360654 0.75542731237 0.62638987965 -0.27336754489 0.74912379564 0.60339350693 
-0.33787253999 0.74075818632 0.58061988953 -0.38115467974 0.73431022914 0.56170241009 -0.40178247917 0.73166797554 0.55066579066 
-0.40319221394 0.73157904882 0.54975279349 -0.39505867396 0.73122863536 0.55608751735 -0.38963006474 0.73025658266 0.5611717528 
-0.39260904007 0.73125277166 0.55778806512 -0.40002511309 0.73494335749 0.54757480784 -0.41273225532 0.74355776639 0.52609308441 
-0.41273225532 0.74355776639 0.52609308441 
