# vtk DataFile Version 4.2
vtk output
ASCII
DATASET POLYDATA
POINTS 64 float
0 0 0 -0.819152 -0.174296 0.305324 -1.97823 -0.33375 0.537669 
-2.92922 -0.360552 0.467121 -3.94171 -0.382324 0.320259 -4.93787 -0.412335 0.108657 
-5.91983 -0.48601 -0.122993 -6.9039 -0.650139 -0.317003 -7.87049 -0.946739 -0.419633 
-8.77722 -1.40169 -0.375036 -9.58367 -1.98738 -0.176831 -10.2828 -2.6525 0.140307 
-10.9091 -3.35353 0.522324 -11.5061 -4.0702 0.921668 -12.1138 -4.79434 1.29085 
-12.7659 -5.52078 1.56911 -13.4808 -6.23753 1.674 -14.2241 -6.91235 1.52375 
-14.9277 -7.51895 1.10801 -15.528 -8.05522 0.487925 -16.0093 -8.54932 -0.257555 
-16.3735 -9.02876 -1.0749 -16.6256 -9.51472 -1.92972 -16.7687 -10.0221 -2.79715 
-16.8049 -10.5606 -3.65687 -16.7366 -11.1353 -4.49075 -16.5675 -11.7473 -5.28279 
-16.3037 -12.3938 -6.01979 -15.9551 -13.0682 -6.69228 -15.5319 -13.7659 -7.29816 
-15.0494 -14.4824 -7.83238 -14.5296 -15.2177 -8.27484 -13.9513 -16.0273 -8.61212 
-13.4789 -16.8996 -8.58156 -13.397 -17.6701 -7.90289 -13.6711 -18.0724 -7.00426 
-14.1018 -18.2242 -6.09146 -14.552 -18.2802 -5.18577 -15.0084 -18.2289 -4.28085 
-15.4382 -18.0774 -3.37314 -15.8071 -17.8284 -2.46111 -16.0842 -17.4865 -1.54617 
-16.2434 -17.0718 -0.633214 -16.2759 -16.6186 0.274504 -16.1892 -16.1659 1.17901 
-16.0008 -15.7538 2.08723 -15.7306 -15.4214 3.00768 -15.397 -15.2118 3.94386 
-15.0203 -15.1738 4.88641 -14.6268 -15.3521 5.807 -14.2511 -15.7607 6.65766 
-13.9186 -16.3628 7.40597 -13.6383 -17.097 8.04924 -13.4033 -17.907 8.61365 
-13.2042 -18.7571 9.13083 -13.0331 -19.6234 9.63031 -12.886 -20.4888 10.1391 
-12.7637 -21.3386 10.6818 -12.6692 -22.155 11.2718 -12.6157 -22.9221 11.9411 
-12.6144 -23.6142 12.6964 -12.6574 -24.1814 13.454 -12.8383 -24.6818 14.53 
-13.0174 -24.964 15.3527 
LINES 1 65
64 0 1 2 3 4 5 6 7 8 9 10 11 12 13 14 15 16 17 18 19 20 21 22 23 24 25 26 27 28 29 30 31 32 33 34 35 36 37 38 39 40 41 42 43 44 45 46 47 48 49 50 51 52 53 54 55 56 57 58 59 60 61 62 63 

POINT_DATA 64
SCALARS MaximumInscribedSphereRadius float
LOOKUP_TABLE default
1.24 1.24 1.24 1.24 1.24 1.25909 1.28585 1.31026 1.29129 
1.52026 1.79776 2.014 1.49986 1.11519 0.848094 0.707976 0.948696 1.02344 
0.945587 0.921162 0.96547 1.06573 1.20616 1.20697 1.09072 1.03559 1.21225 
1.45438 1.58715 1.63393 1.663 1.66946 1.73463 1.86292 1.90636 2.06049 
2.03017 1.74031 1.66963 1.74544 1.88799 2.03276 2.0294 1.8543 1.6331 
1.70771 1.76235 1.71643 1.59148 1.83442 2.01337 2.12278 2.14981 2.01151 
1.91349 1.86 1.86 2.0525 2.29215 2.53669 2.68968 2.76818 2.79821 
2.79 
TEXTURE_COORDINATES TCoords 2 float
0 0 0.015873 0 0.031746 0 0.047619 0 0.0634921 
0 0.0793651 0 0.0952381 0 0.111111 0 0.126984 0 
0.142857 0 0.15873 0 0.174603 0 0.190476 0 0.206349 
0 0.222222 0 0.238095 0 0.253968 0 0.269841 0 
0.285714 0 0.301587 0 0.31746 0 0.333333 0 0.349206 
0 0.365079 0 0.380952 0 0.396825 0 0.412698 0 
0.428571 0 0.444444 0 0.460317 0 0.47619 0 0.492063 
0 0.507937 0 0.52381 0 0.539683 0 0.555556 0 
0.571429 0 0.587302 0 0.603175 0 0.619048 0 0.634921 
0 0.650794 0 0.666667 0 0.68254 0 0.698413 0 
0.714286 0 0.730159 0 0.746032 0 0.761905 0 0.777778 
0 0.793651 0 0.809524 0 0.825397 0 0.84127 0 
0.857143 0 0.873016 0 0.888889 0 0.904762 0 0.920635 
0 0.936508 0 0.952381 0 0.968254 0 0.984127 0 
1 0 
FIELD FieldData 4
Curvature 1 64 float
0.378752 0.330854 0.252709 0.162486 0.0874123 0.0962685 0.149124 0.231101 0.299187 
0.292776 0.239512 0.14938 0.056149 0.0712003 0.152574 0.261283 0.341456 0.362139 
0.327329 0.253388 0.200435 0.166037 0.150105 0.149046 0.150718 0.152494 0.152034 
0.145719 0.139027 0.141111 0.176874 0.309169 0.640108 1.08843 0.778274 0.456321 
0.233828 0.149237 0.141986 0.155144 0.174001 0.18545 0.17519 0.160384 0.148203 
0.156075 0.191534 0.238785 0.290754 0.316275 0.29495 0.243913 0.17171 0.108615 
0.0616986 0.038858 0.0611041 0.094121 0.129136 0.164031 0.196006 0.218305 0.229474 
0.227476 
Torsion 1 64 float
-0.0331327 -0.0649196 -0.138777 -0.364137 -0.945078 -0.749225 -0.439867 -0.151901 -0.090603 
-0.0545726 -0.0195397 0.107923 2.48616 1.73748 0.0400465 -0.0651809 -0.13144 -0.182373 
-0.223495 -0.263998 -0.28876 -0.286838 -0.253888 -0.195245 -0.14435 -0.101062 -0.0665921 
-0.0486753 -0.0689952 -0.118037 -0.173508 -0.162909 -0.144836 -0.122548 -0.0110769 0.0804364 
0.184998 0.306419 0.332905 0.303747 0.267347 0.268945 0.33393 0.427435 0.505255 
0.448199 0.309047 0.18681 0.108501 0.0707477 0.0523944 0.0538485 0.0779295 0.227 
0.850398 1.34701 0.423109 0.133568 0.0162168 -0.024474 -0.0326844 -0.0307752 -0.0248188 
-0.0179709 
Abscissas 1 64 double
0 0.89140955617 2.0842560852 3.0382335726 4.0615465303 5.080380747 6.091972589 7.1083305682 8.1245985844 
9.1400451026 10.156247166 11.171976786 12.186686195 13.201319029 14.21620553 15.231304346 16.249032278 17.264154575 
18.281926892 19.298020785 20.313683381 21.328842024 22.343939691 23.358990859 24.374073146 25.389108801 26.404215022 
27.419467218 28.4336651 29.450048515 30.465712663 31.469027299 32.519566293 33.512004546 34.542048118 35.56403713 
36.584708242 37.597672375 38.612493952 39.628151042 40.642977196 41.658296704 42.673549401 43.688664155 44.703827181 
45.718834746 46.734060438 47.749765111 48.765519318 49.782420511 50.798145675 51.814546426 52.830094642 53.844950883 
54.85974341 55.874289244 56.888879912 57.904559223 58.916232754 59.935703757 60.960137517 61.907484678 63.107861911 
63.995836284 
ParallelTransportNormals 3 64 double
0.34925906699 0 0.93702620248 0.19991806585 -0.026003736799 0.97946749442 -0.072538057332 -0.048393318029 0.9961909039 
-0.14231259248 -0.050127632142 0.98855164079 -0.20600912742 -0.051770333397 0.97717965185 -0.22553104947 -0.052795172662 0.97280440761 
-0.18549785405 -0.047957204015 0.98147371474 -0.097310423231 -0.027127893344 0.99488429424 0.035924587095 0.026329268618 0.9990076044 
0.16498533346 0.10471949548 0.98072099346 0.25763739287 0.18169789309 0.94900413563 0.30523707647 0.23076331871 0.92389318532 
0.31792472201 0.24546738476 0.91578907733 0.29869868271 0.22247313512 0.92805430935 0.2385252905 0.15319046252 0.95897777242 
0.11879168717 0.026775684481 0.99255810801 -0.064758343301 -0.1483791451 0.98680797842 -0.26049088667 -0.32172899973 0.9102938804 
-0.41119529305 -0.45382259705 0.7905463183 -0.49949554416 -0.5379385151 0.6790628508 -0.54696497827 -0.59259685852 0.59131909813 
-0.5708544319 -0.63002112337 0.5264965353 -0.58150104984 -0.65678405006 0.4800950329 -0.58481960715 -0.6761407974 0.44812905417 
-0.5844286042 -0.68971177306 0.42748201915 -0.58265820183 -0.69856207086 0.41535581493 -0.58092293799 -0.70360609102 0.40922733144 
-0.5799919784 -0.70561412842 0.40708476607 -0.58006190543 -0.70548979309 0.40720061114 -0.58362368199 -0.69992841954 0.41168386578 
-0.59808121579 -0.67898928661 0.42576097518 -0.628821743 -0.63573833394 0.44768290819 -0.7742101073 -0.40209125872 0.48879579521 
-0.9559264887 0.13017409523 0.26317152798 -0.9114699861 0.39920228802 -0.099297521028 -0.82814447404 0.46468826861 -0.31343507004 
-0.80115732155 0.4710441857 -0.36913997514 -0.77649674818 0.4711735997 -0.41838766594 -0.76559297536 0.46867860217 -0.44069009968 
-0.76668955122 0.46922852615 -0.43819142197 -0.77549013312 0.47727786666 -0.41330484079 -0.78740004238 0.49793105236 -0.36340864102 
-0.79473715632 0.53115000743 -0.29372184456 -0.79225417707 0.57267817392 -0.21064906369 -0.7782440768 0.61670686213 -0.11835878983 
-0.75273272447 0.65811575687 -0.016646203164 -0.71486365538 0.69210596218 0.099796249119 -0.66322175699 0.71011096615 0.23638806401 
-0.599158056 0.69845036862 0.39137795863 -0.53207466512 0.64724482852 0.54586690933 -0.4771827576 0.56891535211 0.66979992384 
-0.44110265888 0.49024009479 0.75172674144 -0.42191557463 0.43273812066 0.79669628266 -0.41350229875 0.40056413221 0.8176577676 
-0.41181622952 0.39274788753 0.82228735241 -0.41459597094 0.40787838365 0.81347735373 -0.42036186954 0.4445909599 0.79097078139 
-0.42712763631 0.4966036445 0.75561021868 -0.43444131569 0.57478019876 0.69346122194 -0.4377470119 0.66252929524 0.60780958081 
-0.43533029823 0.73234549866 0.52360061309 -0.41250961478 0.85054644648 0.32620018408 -0.39215796296 0.89297230352 0.22093573098 
-0.39215796296 0.89297230352 0.22093573098 
