# vtk DataFile Version 4.2
vtk output
ASCII
DATASET POLYDATA
POINTS 64 float
0 0 0 -0.895053 -0.424327 0.336805 -1.73577 -0.689578 0.749802 
-2.60576 -0.896214 1.25199 -3.43807 -1.05295 1.80728 -4.24532 -1.20345 2.40336 
-5.03125 -1.37851 3.02071 -5.80602 -1.60595 3.63494 -6.58397 -1.90867 4.21138 
-7.38213 -2.30039 4.69949 -8.2142 -2.7818 5.02196 -9.0684 -3.32421 5.0713 
-9.8763 -3.85381 4.76819 -10.5412 -4.30188 4.14896 -11.0038 -4.66581 3.32374 
-11.2418 -4.98918 2.39281 -11.2539 -5.32595 1.43655 -11.0724 -5.71727 0.518743 
-10.7625 -6.17968 -0.329206 -10.3915 -6.71268 -1.10859 -10.0123 -7.31243 -1.8337 
-9.66664 -7.97953 -2.51527 -9.39718 -8.72229 -3.15161 -9.27242 -9.55942 -3.71054 
-9.46168 -10.495 -4.03812 -10.0889 -11.2249 -3.78874 -10.7985 -11.5105 -3.11665 
-11.4158 -11.5768 -2.31528 -11.9342 -11.5451 -1.44399 -12.3414 -11.4751 -0.517554 
-12.6108 -11.4173 0.458534 -12.7001 -11.4352 1.46829 -12.5712 -11.6126 2.45754 
-12.2488 -12.0158 3.32919 -11.8347 -12.636 4.01569 -11.4267 -13.4084 4.53095 
-11.0698 -14.2707 4.92858 -10.7723 -15.1827 5.2586 -10.5271 -16.1204 5.55855 
-10.3188 -17.068 5.85525 -10.1258 -18.0146 6.16551 -9.9201 -18.952 6.49454 
-9.66856 -19.8732 6.83732 -9.33708 -20.7668 7.18461 -8.89601 -21.6133 7.52793 
-8.33032 -22.3841 7.86637 -7.64688 -23.0498 8.21066 -6.8699 -23.5897 8.57615 
-6.03108 -23.9974 8.97489 -5.16014 -24.2791 9.41201 -4.2802 -24.4505 9.88682 
-3.40621 -24.5324 10.3954 -2.54619 -24.5471 10.9334 -1.70414 -24.516 11.4985 
-0.882362 -24.4585 12.0908 -0.082695 -24.3917 12.7116 0.69379 -24.3324 13.362 
1.44777 -24.3027 14.0402 2.18277 -24.3441 14.7382 2.89869 -24.5369 15.4301 
3.56215 -24.9903 16.0443 4.09882 -25.745 16.4779 4.46615 -26.6162 16.7096 
4.73018 -27.6245 16.8025 
LINES 1 65
64 0 1 2 3 4 5 6 7 8 9 10 11 12 13 14 15 16 17 18 19 20 21 22 23 24 25 26 27 28 29 30 31 32 33 34 35 36 37 38 39 40 41 42 43 44 45 46 47 48 49 50 51 52 53 54 55 56 57 58 59 60 61 62 63 

POINT_DATA 64
SCALARS MaximumInscribedSphereRadius float
LOOKUP_TABLE default
0.93 0.93 0.93 0.950398 1.09815 1.19455 1.02463 1.0411 1.21022 
1.24 1.29558 1.36065 1.35591 1.4967 1.24411 1.2267 1.60249 1.66677 
1.61736 1.50076 1.35038 1.54722 1.83542 1.82413 1.37197 1.047 1.18049 
1.26208 1.23022 1.16013 1.06186 0.944706 1.13787 1.24 1.24 1.24 
1.70774 2.16533 2.18775 2.18659 2.17176 2.0003 1.74496 1.3887 1.55516 
1.83456 1.63144 1.55 1.50081 1.35116 1.37296 1.54504 1.73098 2.07557 
2.63252 2.49438 2.20591 2.17633 2.34603 2.46055 2.36036 2.12649 1.96874 
1.86 
TEXTURE_COORDINATES TCoords 2 float
0 0 0.015873 0 0.031746 0 0.047619 0 0.0634921 
0 0.0793651 0 0.0952381 0 0.111111 0 0.126984 0 
0.142857 0 0.15873 0 0.174603 0 0.190476 0 0.206349 
0 0.222222 0 0.238095 0 0.253968 0 0.269841 0 
0.285714 0 0.301587 0 0.31746 0 0.333333 0 0.349206 
0 0.365079 0 0.380952 0 0.396825 0 0.412698 0 
0.428571 0 0.444444 0 0.460317 0 0.47619 0 0.492063 
0 0.507937 0 0.52381 0 0.539683 0 0.555556 0 
0.571429 0 0.587302 0 0.603175 0 0.619048 0 0.634921 
0 0.650794 0 0.666667 0 0.68254 0 0.698413 0 
0.714286 0 0.730159 0 0.746032 0 0.761905 0 0.777778 
0 0.793651 0 0.809524 0 0.825397 0 0.84127 0 
0.857143 0 0.873016 0 0.888889 0 0.904762 0 0.920635 
0 0.936508 0 0.952381 0 0.968254 0 0.984127 0 
1 0 
FIELD FieldData 4
Curvature 1 64 float
0.158779 0.127607 0.094274 0.0652421 0.0425552 0.0328608 0.0457235 0.0737469 0.112251 
0.165728 0.236014 0.290894 0.28883 0.243148 0.203353 0.185703 0.170243 0.142663 
0.107506 0.0786211 0.0726431 0.103092 0.179219 0.357839 0.648414 0.545301 0.263067 
0.139747 0.107206 0.123982 0.171729 0.230021 0.264226 0.247008 0.194554 0.136055 
0.0889477 0.0553882 0.0322722 0.021993 0.026625 0.0449626 0.0705811 0.0972062 0.118196 
0.128611 0.128452 0.121623 0.110256 0.0951835 0.0776753 0.0603479 0.0458967 0.0371042 
0.035689 0.0406911 0.0515732 0.076814 0.13274 0.22787 0.307973 0.295758 0.232482 
0.176319 
Torsion 1 64 float
0.0616127 0.0985466 0.159122 0.262523 0.476927 0.731281 0.483017 0.275686 0.195751 
0.144978 0.108804 0.0527534 -0.0384721 -0.149438 -0.239643 -0.25932 -0.227076 -0.206665 
-0.234173 -0.32961 -0.318711 -0.141714 -0.0284196 0.0255196 0.0680537 0.0897891 0.124007 
0.21332 0.298451 0.255242 0.191417 0.179849 0.201482 0.208612 0.188201 0.174239 
0.190418 0.269452 0.482621 0.677488 0.513422 0.253152 0.096519 0.00555882 -0.0780341 
-0.129743 -0.134083 -0.117496 -0.0968133 -0.0801916 -0.0779031 -0.107015 -0.179953 -0.258841 
-0.251317 -0.21514 -0.226504 -0.225908 -0.143849 -0.0659961 -0.0230328 -0.00768543 -0.00316853 
-0.00159933 
Abscissas 1 64 double
0 1.046236646 2.0197504269 3.0453078731 4.0580575534 5.0727564186 6.0873766002 7.1019087938 8.1163684387 
9.1306475338 10.14458775 11.157654112 12.170097642 13.183182625 14.196800252 15.210630044 16.224526041 17.238650827 
18.253014411 19.267492011 20.282029878 21.296430768 22.31094299 23.325210405 24.33437467 25.328521561 26.346777804 
27.360496478 28.374828535 29.389231411 30.403465696 31.417317196 32.430575382 33.443616228 34.457235816 35.47141002 
36.485820377 37.500332026 38.514903115 39.529498169 40.544099371 41.558690703 42.573241364 43.587713963 44.602060011 
45.616331164 46.630582491 47.644856049 48.659181173 49.673571278 50.688022613 51.702528531 52.717077131 53.731653728 
54.746239316 55.760826325 56.775409987 57.789971652 58.80443817 59.818563055 60.830064301 61.852545725 62.826018479 
63.872411894 
ParallelTransportNormals 3 64 double
0.35218648581 0 0.93592984738 0.43261275844 0.031721730559 0.9010216052 0.49080628359 0.047833146754 0.86995470115 
0.54620699803 0.059650305351 0.83552364202 0.58458971469 0.066842941318 0.80857089155 0.60627678228 0.071274594492 0.79205327816 
0.60671129566 0.07138665365 0.7917103949 0.57857565701 0.061779980177 0.81328558524 0.51012178537 0.031618813764 0.85952080528 
0.38014107932 -0.037998652881 0.92414764091 0.16370244433 -0.16941214937 0.97185443013 -0.11820994397 -0.35123882782 0.92879367729 
-0.36942181317 -0.51799593256 0.77149707569 -0.52502833466 -0.63005770125 0.57216478474 -0.59562835605 -0.69931420032 0.39520439104 
-0.61228687599 -0.74327513565 0.26953080385 -0.60665745636 -0.76747505137 0.20724086508 -0.60451864569 -0.77119020854 0.19955668183 
-0.61489207871 -0.75602663486 0.22434673815 -0.63591378213 -0.72428487931 0.2665053007 -0.66475508432 -0.6738758519 0.32247792809 
-0.69959286715 -0.59402191699 0.39712439155 -0.73592951767 -0.44839316627 0.50729805191 -0.722859917 -0.093490869205 0.6846407801 
-0.39096746003 0.58013714556 0.71455254358 0.035218804978 0.90582550538 0.42218454445 0.20341060177 0.95038772383 0.23534506897 
0.27546714644 0.95258586498 0.1292208229 0.30897643718 0.94890446895 0.06413945802 0.32029262874 0.94676714973 0.032320212931 
0.31802405355 0.94701968139 0.044882339771 0.31964988399 0.93902412396 0.12671876845 0.3568729277 0.89113650616 0.28020963735 
0.43477681676 0.7828820486 0.44504473662 0.51495059123 0.64706958633 0.56225157984 0.57125242094 0.5267564929 0.62944282406 
0.60401873685 0.43791499158 0.6658767346 0.62059050561 0.38142167274 0.68511672868 0.62695971382 0.35494173763 0.69349684941 
0.62691871699 0.35513524187 0.69343484356 0.62222457293 0.37731347748 0.68590897395 0.61243173425 0.41711548728 0.67152218217 
0.59442876866 0.47315603931 0.65021365831 0.56244063548 0.54520710069 0.62161865233 0.50918402137 0.63075972905 0.58555426443 
0.42993253825 0.72189772807 0.54223766262 0.32817867447 0.80589215393 0.49278453086 0.21511590298 0.872199924 0.43930904937 
0.10359085166 0.91717390852 0.38478689814 0.003997238281 0.94294843002 0.33291482456 -0.077645589666 0.95473654497 0.28713984764 
-0.13976576217 0.9581975087 0.2496458813 -0.1837615309 0.9577747119 0.22113186337 -0.21209164644 0.95626614462 0.20142540594 
-0.22731555993 0.95509904094 0.19003541304 -0.23019442414 0.95486865033 0.18771357894 -0.21688534534 0.95564300352 0.19926664749 
-0.1734751122 0.95530064244 0.23938894712 -0.072275621453 0.93896488599 0.33633491852 0.11099687788 0.85305565611 0.50987816258 
0.3279802513 0.63504643765 0.69938900248 0.45603923996 0.40325508636 0.79335587661 0.52065535008 0.21253355475 0.82689025544 
0.52065535008 0.21253355475 0.82689025544 
