# vtk DataFile Version 4.2
vtk output
ASCII
DATASET POLYDATA
POINTS 64 float
0 0 0 -0.885337 0.553059 0.0236862 -1.80455 0.788084 0.25876 
-2.77201 0.842683 0.585578 -3.71737 0.740922 0.93571 -4.65262 0.533985 1.27004 
-5.57396 0.243238 1.57969 -6.47357 -0.116159 1.88109 -7.34054 -0.528761 2.20881 
-8.16476 -0.976404 2.59544 -8.94683 -1.44603 3.03949 -9.71124 -1.94927 3.4773 
-10.4952 -2.53382 3.74729 -11.2307 -3.21048 3.60444 -11.7602 -3.89144 3.07353 
-12.0625 -4.55513 2.36934 -12.1655 -5.22067 1.61106 -12.0956 -5.90051 0.86166 
-11.8808 -6.60356 0.162804 -11.5482 -7.34093 -0.44953 -11.1232 -8.12835 -0.923314 
-10.6318 -8.98943 -1.15396 -10.2362 -9.78951 -0.705168 -10.269 -9.93827 0.289953 
-10.487 -9.72292 1.25302 -10.7568 -9.37837 2.16951 -11.0341 -8.99217 3.0656 
-11.2921 -8.62278 3.97464 -11.5009 -8.33584 4.9249 -11.6227 -8.21979 5.92468 
-11.6233 -8.36741 6.92685 -11.509 -8.79596 7.83792 -11.3254 -9.42911 8.60838 
-11.1146 -10.1806 9.25628 -10.897 -10.995 9.82072 -10.6776 -11.8413 10.3356 
-10.4523 -12.7012 10.8247 -10.2114 -13.5639 11.3013 -9.94034 -14.4218 11.7702 
-9.6199 -15.2675 12.2301 -9.22606 -16.0882 12.6778 -8.73277 -16.8606 13.1126 
-8.12056 -17.5479 13.5386 -7.38813 -18.1049 13.9649 -6.56009 -18.4934 14.4028 
-5.67844 -18.6993 14.8598 -4.78303 -18.7366 15.3347 -3.89905 -18.6362 15.8221 
-3.03596 -18.4353 16.316 -2.19084 -18.1731 16.8124 -1.35424 -17.8892 17.3113 
-0.51621 -17.6222 17.8171 0.327741 -17.4096 18.3385 1.1716 -17.2874 18.8881 
1.99487 -17.2881 19.4805 2.76128 -17.4341 20.1284 3.42197 -17.7329 20.8373 
3.92312 -18.1718 21.6016 4.22762 -18.7091 22.4058 4.3334 -19.2827 23.2355 
4.26817 -19.8287 24.086 4.08314 -20.2832 24.9844 3.8556 -20.5855 25.885 
3.70434 -20.5936 26.9184 
LINES 1 65
64 0 1 2 3 4 5 6 7 8 9 10 11 12 13 14 15 16 17 18 19 20 21 22 23 24 25 26 27 28 29 30 31 32 33 34 35 36 37 38 39 40 41 42 43 44 45 46 47 48 49 50 51 52 53 54 55 56 57 58 59 60 61 62 63 

POINT_DATA 64
SCALARS MaximumInscribedSphereRadius float
LOOKUP_TABLE default
1.2772 1.05729 1.04759 1.20764 1.24 1.15794 1.04875 1.16316 1.30434 
1.38737 1.38513 1.34936 1.22847 1.28719 1.40755 0.865385 0.910001 1.31137 
1.81907 2.04294 1.69082 1.55 1.76431 1.67893 1.65755 1.78726 1.68075 
1.49111 1.35155 1.58012 1.83402 1.86 1.85312 1.75601 1.65068 1.90314 
2.19115 2.1569 1.94209 1.65135 1.74336 1.94978 2.12542 2.12601 1.94165 
1.64059 1.89708 2.02242 1.68616 1.55363 1.58296 1.92832 2.07536 1.90394 
2.32963 2.63195 2.06624 1.86 1.86 1.82862 1.46962 1.35811 1.52586 
1.55 
TEXTURE_COORDINATES TCoords 2 float
0 0 0.015873 0 0.031746 0 0.047619 0 0.0634921 
0 0.0793651 0 0.0952381 0 0.111111 0 0.126984 0 
0.142857 0 0.15873 0 0.174603 0 0.190476 0 0.206349 
0 0.222222 0 0.238095 0 0.253968 0 0.269841 0 
0.285714 0 0.301587 0 0.31746 0 0.333333 0 0.349206 
0 0.365079 0 0.380952 0 0.396825 0 0.412698 0 
0.428571 0 0.444444 0 0.460317 0 0.47619 0 0.492063 
0 0.507937 0 0.52381 0 0.539683 0 0.555556 0 
0.571429 0 0.587302 0 0.603175 0 0.619048 0 0.634921 
0 0.650794 0 0.666667 0 0.68254 0 0.698413 0 
0.714286 0 0.730159 0 0.746032 0 0.761905 0 0.777778 
0 0.793651 0 0.809524 0 0.825397 0 0.84127 0 
0.857143 0 0.873016 0 0.888889 0 0.904762 0 0.920635 
0 0.936508 0 0.952381 0 0.968254 0 0.984127 0 
1 0 
FIELD FieldData 4
Curvature 1 64 float
0.332302 0.285908 0.193908 0.12336 0.0867284 0.0716711 0.0623979 0.0617193 0.0717858 
0.0715566 0.073154 0.18008 0.355804 0.380547 0.261002 0.187314 0.1494 0.126827 
0.120312 0.154016 0.268619 0.609595 0.902592 0.379275 0.157737 0.0505926 0.035329 
0.0969951 0.171735 0.23775 0.257289 0.215063 0.148206 0.0907459 0.0494613 0.0240534 
0.0177856 0.0276093 0.0431898 0.0642171 0.0901715 0.118415 0.142718 0.155963 0.154293 
0.13795 0.112434 0.0836212 0.0518834 0.0188867 0.0151787 0.0467354 0.0775854 0.107421 
0.135178 0.158424 0.176925 0.179881 0.164052 0.141866 0.128439 0.155489 0.250223 
0.396679 
Torsion 1 64 float
0.0426721 0.0827207 0.143352 0.207038 0.178066 -0.0204632 -0.284883 -0.399553 -0.234848 
0.0423822 0.416585 0.137694 -0.0233201 -0.131854 -0.184353 -0.179028 -0.171635 -0.192094 
-0.220505 -0.185904 -0.117232 -0.055466 0.0176034 0.0259525 0.0401907 0.469444 0.360145 
0.0572263 0.0396313 0.045233 0.052973 0.0574459 0.0548281 0.0334936 -0.0459367 -0.361508 
-0.539539 -0.148818 -0.041212 -0.0533735 -0.085896 -0.110437 -0.12105 -0.121182 -0.0983667 
-0.0588893 -0.0378248 -0.0186845 -0.0211135 -0.305479 -0.546252 0.0288302 0.0793954 0.0989526 
0.105507 0.104414 0.107936 0.134686 0.185622 0.284184 0.413492 0.410163 0.274918 
0.149023 
Abscissas 1 64 double
0 1.0441536604 2.0216231758 3.0442516682 4.0574905376 5.0720346462 6.0865686536 7.101112997 8.1156473921 
9.130147529 10.144719433 11.159238518 12.1737135 13.183302193 14.196215214 15.209980814 16.224150811 17.238380426 
18.252698802 19.267217251 20.279707134 21.297616623 22.296635599 23.303350659 24.31399048 25.329587227 26.343988156 
27.358568035 28.372945414 29.386765213 30.39974943 31.413057468 32.427053904 33.441411723 34.455941259 35.470528995 
36.485130735 37.499728922 38.514316685 39.528866311 40.543350995 41.557735154 42.571983295 43.586083961 44.600153394 
45.61429526 46.628565812 47.642965182 48.657481531 49.672067855 50.686676869 51.701268756 52.715801615 53.730228042 
54.744523358 55.758690584 56.772710762 57.786557743 58.800541126 59.814735399 60.827536222 61.851202912 62.828081086 
63.872536887 
ParallelTransportNormals 3 64 double
0.026744278024 0 0.99964230782 0.2261777377 -0.085884176734 0.97029250185 0.31341280624 -0.099471860957 0.94439280057 
0.3549259326 -0.098432612416 0.92969812476 0.35423534177 -0.098545945903 0.92994947131 0.34541861929 -0.10090938561 0.93300764913 
0.35138166508 -0.098780362026 0.93100664097 0.38680090833 -0.083302058993 0.91839306633 0.44733084036 -0.052512793873 0.89282558529 
0.50302281356 -0.020710016966 0.86402496737 0.50616768189 -0.018731634279 0.86223164155 0.3900421647 -0.10031555792 0.91531628336 
0.11795433601 -0.32621824031 0.93790641021 -0.10133773838 -0.561489233 0.82125544382 -0.17365042996 -0.67837232683 0.7139023143 
-0.18798347262 -0.72538232639 0.66218025838 -0.18824657126 -0.73606712726 0.65020643843 -0.19139835674 -0.72075778033 0.66623936474 
-0.20740496541 -0.67863630243 0.70458210972 -0.24920621015 -0.59450614654 0.76449899055 -0.34529754176 -0.42164242055 0.83844336532 
-0.63257062258 0.11671098535 0.76565850962 -0.81085255814 0.58213820727 0.060276335318 -0.76470799759 0.56999929148 -0.30053699627 
-0.73439914477 0.53521603186 -0.41737476613 -0.72474108226 0.52231421509 -0.44937537138 -0.73217147244 0.53280220273 -0.42431915783 
-0.75432643747 0.56394624556 -0.33608965745 -0.78334065179 0.59931495919 -0.16492120225 -0.79874463014 0.59532695367 0.087136869675 
-0.78359230797 0.51850770686 0.34224677182 -0.75287955205 0.40907133135 0.51558997854 -0.72737578758 0.31954366477 0.60730248637 
-0.71157828516 0.26179459211 0.65201222046 -0.70267270401 0.2279471977 0.67401123589 -0.69732180578 0.20741970874 0.68608990928 
-0.69281818646 0.1907806236 0.69541765449 -0.68650554853 0.1695637173 0.70707727839 -0.67552134758 0.13792596063 0.72432543676 
-0.65642832818 0.093382275898 0.7485864015 -0.6259654017 0.038676541784 0.7788911612 -0.58382859957 -0.016961738718 0.81169973866 
-0.5363146435 -0.060928809197 0.84181606268 -0.49667395681 -0.084945801559 0.86377033488 -0.47510176231 -0.092445616639 0.87506121124 
-0.46958824628 -0.093200114985 0.87795251439 -0.47254642268 -0.093304920525 0.8763527088 -0.47785054338 -0.094219596246 0.8733736462 
-0.48201249108 -0.095347943354 0.87096080747 -0.48549298322 -0.096478032696 0.8689007725 -0.49104881518 -0.09830574598 0.86556746786 
-0.50408563166 -0.10202358368 0.85760647405 -0.5316176905 -0.10748417115 0.84013676511 -0.58055543662 -0.11105095948 0.80661209352 
-0.65360974412 -0.10430994131 0.74960905714 -0.74513386885 -0.075777351785 0.66259588774 -0.84020133126 -0.01541673415 0.54205539132 
-0.91491013798 0.075102070774 0.39660952888 -0.95303827185 0.17833248742 0.24477658451 -0.95647024284 0.27336733865 0.10215171424 
-0.93906239 0.34317653635 -0.019791224762 -0.91944793735 0.37890127966 -0.10511570186 -0.91436263048 0.38317112061 -0.13084675128 
-0.91436263048 0.38317112061 -0.13084675128 
