# vtk DataFile Version 4.2
vtk output
ASCII
DATASET POLYDATA
POINTS 64 float
0 0 0 -0.600297 0.709924 0.47555 -1.27129 1.19492 1.00504 
-2.05746 1.55634 1.5355 -2.94792 1.74786 1.98068 -3.91353 1.7145 2.28379 
-4.86532 1.42327 2.47241 -5.71705 0.90901 2.66511 -6.43609 0.251429 2.94507 
-7.04136 -0.486078 3.28946 -7.56847 -1.29321 3.60487 -8.0319 -2.18424 3.73468 
-8.40489 -3.10089 3.52516 -8.68631 -3.9575 3.0613 -8.90737 -4.77708 2.5057 
-9.05256 -5.60244 1.93416 -9.04512 -6.42725 1.34496 -8.81057 -7.17452 0.702452 
-8.39458 -7.80142 0.0226657 -7.89394 -8.38656 -0.631373 -7.36213 -9.1042 -1.13202 
-7.24217 -9.86637 -0.582775 -7.60212 -9.91981 0.37077 -8.07824 -9.64107 1.21831 
-8.60497 -9.1127 1.90286 -9.11177 -8.40325 2.42011 -9.51433 -7.58326 2.85926 
-9.66962 -6.74536 3.40256 -9.31834 -6.37524 4.24328 -8.81629 -6.81575 5.00189 
-8.48913 -7.61273 5.5329 -8.3175 -8.55153 5.87404 -8.22626 -9.54651 6.04697 
-8.13545 -10.5564 6.06225 -7.98167 -11.5514 5.94062 -7.7404 -12.5159 5.73934 
-7.41733 -13.4576 5.54444 -7.01664 -14.3842 5.44974 -6.5302 -15.2684 5.54134 
-5.9536 -16.04 5.8547 -5.30205 -16.6424 6.34421 -4.60292 -17.0758 6.93715 
-3.88367 -17.3667 7.59031 -3.17203 -17.5301 8.29419 -2.4789 -17.5546 9.03406 
-1.76546 -17.433 9.74434 -0.979895 -17.2107 10.3457 -0.128402 -16.9645 10.8391 
0.750831 -16.7437 11.2948 1.62452 -16.5701 11.7802 2.47433 -16.4572 12.3226 
3.3026 -16.4186 12.907 4.12868 -16.4704 13.4934 4.9636 -16.6333 14.0457 
5.786 -16.9338 14.5573 6.53738 -17.4024 15.0506 7.12388 -18.0585 15.5519 
7.44522 -18.8721 16.0613 7.46284 -19.7575 16.5527 7.22879 -20.6337 17.0053 
6.84706 -21.4748 17.4256 6.44747 -22.3082 17.8457 6.22794 -23.1588 18.2991 
6.53102 -24.0101 18.8076 
LINES 1 65
64 0 1 2 3 4 5 6 7 8 9 10 11 12 13 14 15 16 17 18 19 20 21 22 23 24 25 26 27 28 29 30 31 32 33 34 35 36 37 38 39 40 41 42 43 44 45 46 47 48 49 50 51 52 53 54 55 56 57 58 59 60 61 62 63 

POINT_DATA 64
SCALARS MaximumInscribedSphereRadius float
LOOKUP_TABLE default
1.116 1.116 1.15742 1.22502 1.24 1.19788 1.15021 1.23703 1.42537 
1.66804 1.79473 1.74132 1.56041 1.55 1.40593 1.31696 1.47824 1.3943 
1.18589 1.01485 1.16307 1.5751 2.03483 2.18471 2.23284 2.55754 2.56195 
1.89741 2.07117 1.9253 1.87158 1.96206 2.2991 2.47843 2.46382 2.30411 
2.10879 1.90906 1.70344 1.6658 2.07348 2.17 2.17519 2.17716 2.01527 
1.87673 1.82309 1.66005 1.57005 1.55228 1.55 1.62847 1.80756 1.86 
1.80353 1.50441 1.45718 1.58454 1.78143 1.86 1.92011 2.25405 2.48624 
2.4986 
TEXTURE_COORDINATES TCoords 2 float
0 0 0.015873 0 0.031746 0 0.047619 0 0.0634921 
0 0.0793651 0 0.0952381 0 0.111111 0 0.126984 0 
0.142857 0 0.15873 0 0.174603 0 0.190476 0 0.206349 
0 0.222222 0 0.238095 0 0.253968 0 0.269841 0 
0.285714 0 0.301587 0 0.31746 0 0.333333 0 0.349206 
0 0.365079 0 0.380952 0 0.396825 0 0.412698 0 
0.428571 0 0.444444 0 0.460317 0 0.47619 0 0.492063 
0 0.507937 0 0.52381 0 0.539683 0 0.555556 0 
0.571429 0 0.587302 0 0.603175 0 0.619048 0 0.634921 
0 0.650794 0 0.666667 0 0.68254 0 0.698413 0 
0.714286 0 0.730159 0 0.746032 0 0.761905 0 0.777778 
0 0.793651 0 0.809524 0 0.825397 0 0.84127 0 
0.857143 0 0.873016 0 0.888889 0 0.904762 0 0.920635 
0 0.936508 0 0.952381 0 0.968254 0 0.984127 0 
1 0 
FIELD FieldData 4
Curvature 1 64 float
0.255142 0.154788 0.121678 0.150936 0.194516 0.198537 0.173726 0.154238 0.107783 
0.0747995 0.160246 0.259433 0.198624 0.0868666 0.0518673 0.109322 0.176168 0.155586 
0.066544 0.207846 1.00766 0.71613 0.282026 0.212348 0.172319 0.127073 0.230327 
0.587716 0.621371 0.325671 0.202455 0.133722 0.110127 0.10672 0.0861583 0.0619657 
0.0877135 0.145668 0.185318 0.176637 0.139628 0.106417 0.0986699 0.107916 0.109136 
0.122724 0.103893 0.0526095 0.0423405 0.0602339 0.0613767 0.0627464 0.0799403 0.098765 
0.125356 0.172924 0.214633 0.216488 0.17743 0.108289 0.0436683 0.148344 0.357173 
0.381199 
Torsion 1 64 float
-0.128428 -0.214894 -0.256728 -0.105368 0.0631051 0.26591 0.384698 0.196124 -0.17824 
-0.728135 -0.247763 -0.0674749 0.00919325 0.299251 0.48967 -0.177768 -0.182279 0.0115381 
0.804591 0.229915 -0.00195115 0.0048952 0.012962 -0.0321921 -0.176659 -0.55099 -0.384402 
-0.214955 -0.203755 -0.0894617 0.060799 0.243831 0.332918 0.270048 0.34397 0.673319 
0.290979 0.0154064 -0.0792002 -0.098218 -0.0567232 0.0323302 0.0838412 -0.144059 -0.466472 
-0.371228 -0.23835 -0.489779 -0.493519 0.0161492 0.282959 0.364127 0.0693562 -0.173541 
-0.235224 -0.146732 -0.0742286 -0.0414968 -0.0265897 -0.0359231 -0.209747 -0.0293191 -0.00790744 
-0.0020831 
Abscissas 1 64 double
0 1.044268317 2.0270261563 3.041952965 4.0557481729 5.0683630692 6.0814270871 7.0948558329 8.108667396 
9.1230052926 10.137295475 11.149987391 12.161551489 13.175534382 14.190067857 15.204437326 16.218108018 17.231140035 
18.245126463 19.255468037 20.279418135 21.22650572 22.247128043 23.258420255 24.270953312 25.284715358 26.298268272 
27.308903287 28.292362213 29.303104163 30.315118272 31.328624867 32.342632006 33.356714671 34.370853049 35.385248059 
36.39967289 37.413710893 38.426964893 39.439923802 40.453372865 41.46732681 42.481520922 43.495712472 44.509832938 
45.523865632 46.537874227 47.552324511 48.56690625 49.581380004 50.595799871 51.61025083 52.624635011 53.638876321 
54.652935989 55.666603814 56.679404827 57.691693444 58.704420764 59.718035367 60.732852798 61.748037795 62.736622802 
63.773507758 
ParallelTransportNormals 3 64 double
-0.7636025694 -0.64568654624 0 -0.63441523606 -0.7662165223 -0.10212516442 -0.51320050304 -0.83688099341 -0.19040863045 
-0.33842726859 -0.89450748852 -0.29210158652 -0.091332502433 -0.91554602806 -0.3917063243 0.17516656662 -0.87044034503 -0.46005464857 
0.36212144614 -0.78694704348 -0.49958223448 0.45273163811 -0.71935142683 -0.52684683597 0.50132837845 -0.66815959365 -0.54975686841 
0.55742627197 -0.5916385183 -0.58244297145 0.6517105107 -0.42998412648 -0.62480961998 0.77047547396 -0.17328877345 -0.61346437959 
0.84067724578 0.01691337983 -0.54127230301 0.86542687289 0.099471388218 -0.49106188062 0.87842068705 0.15783104019 -0.45107256548 
0.88799528592 0.27257596345 -0.37036025209 0.8589715285 0.46106831003 -0.22267448599 0.78862289292 0.60969436591 -0.079666259742 
0.74811375132 0.66324657302 -0.02073158106 0.78202649464 0.62047461766 -0.058701026547 0.99044528119 0.13474793187 -0.029345183833 
0.93409473589 -0.078953056612 0.34818592623 0.86184959465 -0.059364975295 0.50367755152 0.79150526955 -0.002759447194 0.61115611241 
0.7470793161 0.050441887099 0.66281830956 0.76120507005 0.026683764755 0.64796204984 0.83227671754 -0.1846764742 0.52269500219 
0.75229152191 -0.65837495966 -0.024492418339 0.42093506041 -0.6352905713 -0.64747167114 0.29274915821 -0.44404925618 -0.84682831108 
0.24856665264 -0.29034090575 -0.92407617524 0.22898129834 -0.14627163249 -0.96237839468 0.21528352497 0.0045809889487 -0.97654084319 
0.19766625737 0.14898785078 -0.9688811439 0.17858904836 0.24361792259 -0.95328708142 0.17472037879 0.25668506163 -0.95057118007 
0.20221630603 0.18570872838 -0.96157206375 0.26940199624 0.048575537239 -0.9618019451 0.36610944309 -0.10205035594 -0.92495924264 
0.45894156532 -0.20591696615 -0.86427474953 0.52689266799 -0.25802661693 -0.80981873365 0.57885310676 -0.28455840787 -0.76416987202 
0.63436520573 -0.3021858593 -0.71152265755 0.68883207521 -0.30947089915 -0.65554415163 0.69694311577 -0.308910893 -0.64718185509 
0.63119278059 -0.32399383697 -0.70471530943 0.54335052478 -0.34913317904 -0.76346331315 0.49892278819 -0.36112012112 -0.78782505009 
0.50681971551 -0.35934313496 -0.78358553287 0.53603537749 -0.35448608629 -0.76616296485 0.55032860172 -0.35319594441 -0.7565653012 
0.52676628453 -0.35300813284 -0.77324157909 0.46985980413 -0.34565037173 -0.81225463064 0.40935593525 -0.32873399943 -0.85109439893 
0.37710856922 -0.31297559228 -0.87168538226 0.38401198564 -0.31877988395 -0.86655304539 0.41061220083 -0.36184816911 -0.83693698869 
0.42477237222 -0.43281031781 -0.7951375105 0.41620296331 -0.50259502193 -0.75774226309 0.3997710678 -0.54842930688 -0.73444427202 
0.39552143937 -0.55753691858 -0.72987353386 0.41325579966 -0.50910742931 -0.75500282746 0.40691631791 -0.35733248736 -0.84067389854 
0.40691631791 -0.35733248736 -0.84067389854 
