# vtk DataFile Version 4.2
vtk output
ASCII
DATASET POLYDATA
POINTS 64 float
0 0 0 -0.979908 -0.298802 0.0942659 -1.93328 -0.578876 0.109607 
-2.91708 -0.859721 0.086611 -3.89266 -1.13277 0.0774272 -4.83939 -1.43848 0.264235 
-5.56482 -1.8917 0.803796 -6.08412 -2.54677 1.38062 -6.63936 -3.30411 1.76428 
-7.24749 -4.08434 1.98942 -7.87405 -4.87535 2.09504 -8.46895 -5.69716 2.09887 
-8.95892 -6.57968 1.99688 -9.24429 -7.52919 1.78344 -9.26196 -8.49895 1.48748 
-9.04441 -9.43759 1.17019 -8.65834 -10.3327 0.889168 -8.14966 -11.1916 0.706676 
-7.55613 -12.012 0.769416 -7.05874 -12.6334 1.37695 -6.90709 -12.887 2.35723 
-6.89486 -13.0827 3.34938 -6.87239 -13.4092 4.31055 -6.7726 -13.9522 5.16042 
-6.59808 -14.6957 5.82775 -6.41088 -15.5618 6.32215 -6.27327 -16.4905 6.70668 
-6.21938 -17.4478 7.03835 -6.25184 -18.41 7.35849 -6.34241 -19.3631 7.69437 
-6.44105 -20.3043 8.0601 -6.49051 -21.2363 8.458 -6.44194 -22.1579 8.87953 
-6.26736 -23.0596 9.31038 -5.95909 -23.9267 9.73745 -5.52039 -24.7413 10.1535 
-4.95568 -25.4812 10.5571 -4.27073 -26.1183 10.9497 -3.47881 -26.6225 11.334 
-2.60619 -26.9752 11.7125 -1.68633 -27.179 12.0887 -0.748037 -27.2555 12.467 
0.190652 -27.232 12.8513 1.1211 -27.133 13.2435 2.04032 -26.9766 13.6435 
2.94809 -26.7762 14.0499 3.84526 -26.5436 14.4628 4.73248 -26.2935 14.8867 
5.60903 -26.0442 15.3327 6.47158 -25.8173 15.8163 7.31426 -25.6351 16.3512 
8.13 -25.5233 16.944 8.91009 -25.5168 17.5926 9.63585 -25.6658 18.2856 
10.2637 -26.0247 18.9966 10.7283 -26.6083 19.6833 10.9846 -27.3614 20.3126 
11.0366 -28.197 20.8857 10.916 -29.0431 21.4318 10.6658 -29.8466 21.9996 
10.3525 -30.5539 22.6527 10.1362 -31.1214 23.4744 10.1903 -31.5449 24.3718 
10.5439 -31.9384 25.2541 
LINES 1 65
64 0 1 2 3 4 5 6 7 8 9 10 11 12 13 14 15 16 17 18 19 20 21 22 23 24 25 26 27 28 29 30 31 32 33 34 35 36 37 38 39 40 41 42 43 44 45 46 47 48 49 50 51 52 53 54 55 56 57 58 59 60 61 62 63 

POINT_DATA 64
SCALARS MaximumInscribedSphereRadius float
LOOKUP_TABLE default
0.93 1.03547 1.14506 1.1606 0.877962 1.00001 1.66239 1.64337 1.65331 
1.79956 1.72071 1.48938 1.3795 1.44896 1.49517 1.17244 0.819356 0.865287 
1.17106 1.57292 1.68908 1.20605 1.08738 1.4166 1.64884 1.78914 1.8129 
1.70179 1.57293 1.55 1.55 1.63148 1.76376 1.83497 1.7522 1.69715 
1.74891 1.83805 1.95279 2.08942 2.22472 2.35819 2.42218 2.33818 2.2061 
2.36901 2.63389 2.7291 2.59421 2.43051 2.13311 1.8622 1.7021 1.65192 
1.88203 2.26854 2.19479 1.76684 1.88292 2.44354 2.57351 2.26411 2.1841 
2.17 
TEXTURE_COORDINATES TCoords 2 float
0 0 0.015873 0 0.031746 0 0.047619 0 0.0634921 
0 0.0793651 0 0.0952381 0 0.111111 0 0.126984 0 
0.142857 0 0.15873 0 0.174603 0 0.190476 0 0.206349 
0 0.222222 0 0.238095 0 0.253968 0 0.269841 0 
0.285714 0 0.301587 0 0.31746 0 0.333333 0 0.349206 
0 0.365079 0 0.380952 0 0.396825 0 0.412698 0 
0.428571 0 0.444444 0 0.460317 0 0.47619 0 0.492063 
0 0.507937 0 0.52381 0 0.539683 0 0.555556 0 
0.571429 0 0.587302 0 0.603175 0 0.619048 0 0.634921 
0 0.650794 0 0.666667 0 0.68254 0 0.698413 0 
0.714286 0 0.730159 0 0.746032 0 0.761905 0 0.777778 
0 0.793651 0 0.809524 0 0.825397 0 0.84127 0 
0.857143 0 0.873016 0 0.888889 0 0.904762 0 0.920635 
0 0.936508 0 0.952381 0 0.968254 0 0.984127 0 
1 0 
FIELD FieldData 4
Curvature 1 64 float
0.107944 0.103864 0.116039 0.173599 0.330761 0.49096 0.385593 0.288712 0.209937 
0.134756 0.109772 0.15273 0.227002 0.263068 0.224071 0.163129 0.15657 0.288378 
0.60254 0.639215 0.222178 0.140856 0.233706 0.262002 0.205607 0.135676 0.0998239 
0.0820046 0.0576119 0.0350986 0.0573054 0.0951966 0.119305 0.128027 0.130399 0.135773 
0.146885 0.157715 0.15842 0.144241 0.119659 0.0931073 0.0707365 0.0546795 0.0434595 
0.0336366 0.0235963 0.0234291 0.0424298 0.0656611 0.0879999 0.11595 0.159583 0.215441 
0.256952 0.25376 0.211605 0.164208 0.144732 0.177181 0.254861 0.325418 0.330755 
0.27545 
Torsion 1 64 float
0.00700404 0.0117443 0.0154835 0.0170303 0.0632673 0.439235 0.815151 0.325396 0.0312177 
-0.230457 -0.430554 -0.298648 -0.147165 -0.113585 -0.162495 -0.295524 -0.401542 -0.24266 
-0.154808 -0.205404 -0.546472 -0.698632 -0.0749972 0.0832581 0.256295 0.441038 0.470639 
0.394626 0.546585 1.39446 0.565414 0.180114 0.077599 0.0179598 -0.0313435 -0.0689642 
-0.0834112 -0.0827462 -0.0806802 -0.0823302 -0.0856088 -0.084391 -0.0676871 -0.0344216 -0.025062 
-0.12358 -0.532089 -0.725793 -0.228533 -0.118396 -0.136261 -0.150868 -0.10077 -0.0259695 
0.0494238 0.114538 0.191935 0.31653 0.458018 0.490636 0.507542 0.499275 0.266504 
0.101311 
Abscissas 1 64 double
0 1.0287803622 2.0225568611 3.045917267 4.0590297656 5.071279237 6.0826092591 7.0982424764 8.1126641703 
9.1271901828 10.141794528 11.156335575 12.17089226 13.185072416 14.199143024 15.213562779 16.228052164 17.242834787 
18.257407376 19.258674516 20.282540034 21.293870018 22.309238266 23.322657919 24.336881247 25.351563732 26.366119502 
27.380679861 28.395249225 29.409844814 30.424447468 31.439024132 32.453561698 33.468079149 34.482598859 35.497110822 
36.511617426 37.526084255 38.540511985 39.554959648 40.569468772 41.584024271 42.598603551 43.613193288 44.627788704 
45.642387537 46.656989069 47.671592315 48.686193795 49.700783775 50.715360521 51.729925558 52.744471973 53.758962231 
54.773121624 55.787076402 56.801345735 57.815875829 58.830204322 59.845349469 60.857769613 61.879541162 62.873259187 
63.902087733 
ParallelTransportNormals 3 64 double
0.095756606658 0 0.99540477811 0.02252358323 -0.021920874577 0.99950595969 -0.0140765283 -0.032520883947 0.99937192449 
-0.0013173042963 -0.02891420576 0.99958102894 0.1850540023 0.027199593234 0.98235187095 0.51403828493 0.176536508 0.83940425479 
0.57678255495 0.23236144896 0.78315390655 0.47340460487 0.096474734353 0.87554594724 0.37890506892 -0.028420306831 0.9249990459 
0.30835123006 -0.11820554876 0.94389987137 0.25914675666 -0.1831756886 0.94830882397 0.22625114573 -0.23485474275 0.94533257051 
0.20968047964 -0.27401137284 0.93859036007 0.20731221428 -0.2890108638 0.93460920518 0.20535856495 -0.27035389306 0.94060439735 
0.18853077657 -0.21923282252 0.95728423982 0.14064772658 -0.1253658813 0.98209043006 0.0056546539854 0.080311466809 0.99675377761 
-0.32406830808 0.51593613761 0.79296256759 -0.53211450025 0.79606585061 0.28832849342 -0.54197504773 0.82322333093 0.16901596091 
-0.53996845541 0.79302576134 0.28203582929 -0.52517117476 0.68783199449 0.50108121553 -0.48862926267 0.5164519538 0.70322032328 
-0.45468334226 0.3653960275 0.81224922367 -0.44048513053 0.28693907198 0.85066962962 -0.43896662598 0.27198409431 0.85634861693 
-0.43924499997 0.29692099231 0.84788074298 -0.43675797751 0.33563843275 0.83461926142 -0.4337790162 0.36546378703 0.82357269593 
-0.43316357177 0.37324842214 0.82039925369 -0.43317189839 0.35594043662 0.82805103226 -0.42883758951 0.32052497451 0.84460763822 
-0.41719386309 0.27787018591 0.86529615761 -0.39920082795 0.23736114784 0.88560622427 -0.37778422156 0.20418106231 0.90309975957 
-0.35688030663 0.18114782781 0.91641797845 -0.34109598311 0.16895009352 0.92472125325 -0.33525018689 0.16594074395 0.92740011952 
-0.34110130793 0.16775735782 0.92493641221 -0.35650081521 0.17008051114 0.91868372604 -0.3769712464 0.17065778846 0.91036728776 
-0.39808876748 0.16927366525 0.90159401033 -0.41713587835 0.16664419067 0.89343571269 -0.43298041632 0.16355001348 0.8864419621 
-0.44659254377 0.16028458009 0.88026357032 -0.46133233308 0.15629714701 0.87335197961 -0.48200427366 0.15044379916 0.86315615243 
-0.51228349973 0.14215303837 0.84696996971 -0.55144175366 0.13275865148 0.82358189197 -0.59441765826 0.12513967379 0.79435993705 
-0.63514963021 0.1221206134 0.76267391658 -0.67153392522 0.12556550885 0.73025713983 -0.70653985934 0.13869890059 0.69394815523 
-0.74301393462 0.17016766899 0.647281436 -0.77467298244 0.22887111473 0.58949112217 -0.7908034341 0.31197457411 0.52659452496 
-0.78680693108 0.40994287179 0.46139104355 -0.76339104188 0.51411398713 0.39105105218 -0.72725485119 0.61096256897 0.31277007648 
-0.70979931105 0.65297284433 0.26421847514 -0.71610626965 0.61359940946 0.33269742302 -0.67632275118 0.53278662614 0.50865110561 
-0.67632275118 0.53278662614 0.50865110561 
