# vtk DataFile Version 4.2
vtk output
ASCII
DATASET POLYDATA
POINTS 64 float
0 0 0 -0.980323 0.1544 0.270087 -1.90308 0.304103 0.608349 
-2.83948 0.428757 1.00222 -3.75486 0.4954 1.42751 -4.66473 0.473447 1.87795 
-5.55282 0.320792 2.34346 -6.3929 -0.00365278 2.81042 -7.14846 -0.513394 3.25543 
-7.80608 -1.17674 3.6513 -8.39254 -1.9398 3.9725 -8.95811 -2.75475 4.18577 
-9.54612 -3.57941 4.24212 -10.156 -4.3792 4.11076 -10.748 -5.14708 3.81233 
-11.2715 -5.91204 3.3998 -11.6636 -6.71445 2.9187 -11.8438 -7.56344 2.39383 
-11.7519 -8.40819 1.84014 -11.4152 -9.17758 1.27121 -10.919 -9.85109 0.697052 
-10.3354 -10.4515 0.125429 -9.70326 -11.0115 -0.443427 -9.06403 -11.5664 -0.973736 
-8.38012 -12.1871 -1.52768 -8.08485 -12.9923 -1.35741 -8.41182 -13.2396 -0.432979 
-8.78023 -13.0984 0.508949 -9.06045 -12.8847 1.45869 -9.24848 -12.6171 2.41936 
-9.33204 -12.3462 3.39349 -9.31129 -12.1293 4.38433 -9.20665 -12.0561 5.39075 
-9.07803 -12.2469 6.37791 -9.0098 -12.7426 7.26018 -9.02364 -13.4346 8.00212 
-9.07809 -14.2165 8.64622 -9.12676 -15.0421 9.23406 -9.13025 -15.8928 9.78683 
-9.05558 -16.7599 10.3084 -8.87833 -17.6337 10.7924 -8.58904 -18.5015 11.2311 
-8.19733 -19.3499 11.6261 -7.72051 -20.1681 11.9903 -7.16947 -20.9447 12.3405 
-6.54592 -21.6647 12.6898 -5.84619 -22.3086 13.0436 -5.06828 -22.8548 13.3982 
-4.21806 -23.2876 13.7433 -3.31023 -23.6026 14.0687 -2.36381 -23.8082 14.3709 
-1.39681 -23.9205 14.6566 -0.42417 -23.9585 14.9428 0.541676 -23.9407 15.253 
1.48922 -23.8839 15.6112 2.40721 -23.8038 16.0358 3.28499 -23.7145 16.5366 
4.11392 -23.6285 17.1154 4.88927 -23.5566 17.7654 5.61436 -23.5119 18.4749 
6.2953 -23.5092 19.223 6.95752 -23.576 20.0003 7.59047 -23.7241 20.7526 
8.24955 -24.0015 21.4918 
LINES 1 65
64 0 1 2 3 4 5 6 7 8 9 10 11 12 13 14 15 16 17 18 19 20 21 22 23 24 25 26 27 28 29 30 31 32 33 34 35 36 37 38 39 40 41 42 43 44 45 46 47 48 49 50 51 52 53 54 55 56 57 58 59 60 61 62 63 

POINT_DATA 64
SCALARS MaximumInscribedSphereRadius float
LOOKUP_TABLE default
0.98 0.953392 0.9184 0.805892 0.704121 0.655315 0.735954 1.11687 1.41654 
1.36409 1.26124 1.24 1.41607 1.75521 1.75734 1.60262 1.41875 1.25324 
1.47974 1.65509 1.6089 1.56483 1.55 1.56592 1.68952 1.83871 1.74423 
1.58344 1.43528 1.29238 1.33412 1.4845 1.55 1.57363 1.72259 1.85168 
1.86 1.86 1.86 1.91083 2.04101 2.09733 1.99215 1.8008 1.51758 
1.30512 1.54679 1.7909 1.54021 1.35714 1.57603 1.6562 1.20399 0.821018 
0.92441 1.12908 1.08894 0.996717 1.08136 1.22384 1.31309 1.38876 1.46902 
1.55 
TEXTURE_COORDINATES TCoords 2 float
0 0 0.015873 0 0.031746 0 0.047619 0 0.0634921 
0 0.0793651 0 0.0952381 0 0.111111 0 0.126984 0 
0.142857 0 0.15873 0 0.174603 0 0.190476 0 0.206349 
0 0.222222 0 0.238095 0 0.253968 0 0.269841 0 
0.285714 0 0.301587 0 0.31746 0 0.333333 0 0.349206 
0 0.365079 0 0.380952 0 0.396825 0 0.412698 0 
0.428571 0 0.444444 0 0.460317 0 0.47619 0 0.492063 
0 0.507937 0 0.52381 0 0.539683 0 0.555556 0 
0.571429 0 0.587302 0 0.603175 0 0.619048 0 0.634921 
0 0.650794 0 0.666667 0 0.68254 0 0.698413 0 
0.714286 0 0.730159 0 0.746032 0 0.761905 0 0.777778 
0 0.793651 0 0.809524 0 0.825397 0 0.84127 0 
0.857143 0 0.873016 0 0.888889 0 0.904762 0 0.920635 
0 0.936508 0 0.952381 0 0.968254 0 0.984127 0 
1 0 
FIELD FieldData 4
Curvature 1 64 float
0.159291 0.0940967 0.0626523 0.0627254 0.0885443 0.12781 0.168345 0.190041 0.174993 
0.135552 0.120893 0.154143 0.178221 0.160381 0.127081 0.142297 0.20698 0.261058 
0.252498 0.191303 0.117838 0.0641315 0.0757315 0.216765 0.940055 1.13336 0.418159 
0.165078 0.105681 0.101545 0.126096 0.180102 0.263451 0.31306 0.251345 0.150113 
0.0809823 0.0623285 0.0800565 0.101995 0.112215 0.104831 0.0890865 0.080401 0.085598 
0.10065 0.117039 0.126336 0.123781 0.110589 0.0906608 0.0701802 0.0585332 0.061323 
0.071611 0.0807885 0.0854468 0.0839123 0.0766257 0.0685111 0.0694492 0.0861536 0.114991 
0.147449 
Torsion 1 64 float
-0.13159 -0.234396 -0.393745 -0.356471 -0.162672 -0.059701 -0.027838 -0.0436948 -0.135578 
-0.375431 -0.504995 -0.256715 0.0330934 0.254568 0.566926 0.378342 0.0332194 -0.0994156 
-0.112956 -0.0668629 0.00270937 0.167929 0.273029 0.0538727 -0.0356818 -0.145189 -0.17422 
-0.237184 -0.341347 -0.386699 -0.386074 -0.352477 -0.282499 -0.179696 -0.045178 0.133702 
0.428043 0.48597 0.176352 0.045202 0.0256109 0.074942 0.168572 0.209724 0.136557 
0.0367164 -0.0218853 -0.040284 -0.0272972 0.0172538 0.117106 0.303373 0.460928 0.399086 
0.24291 0.15213 0.111863 0.123018 0.214088 0.368895 0.438285 0.325503 0.194029 
0.114074 
Abscissas 1 64 double
0 1.0285030572 2.022647239 3.0461267336 4.0576785313 5.0731746833 6.0874337841 7.1018461245 8.1161151874 
9.1306160616 10.145191291 11.159828501 12.17422485 13.188571973 14.203062099 15.217612603 16.232069032 17.246339433 
18.260545225 19.274937381 20.28960857 21.303395616 22.321648116 23.320559884 24.397490792 25.271889936 26.283129175 
27.304344743 28.317354658 29.332183725 30.346705853 31.361241193 32.375726687 33.389336427 34.403625934 35.418275712 
36.432799501 37.447417923 38.461998585 39.476564394 40.491090187 41.5055965 42.520155342 43.534734758 44.549309102 
45.563872146 46.578414356 47.592937748 48.607455094 49.621983766 50.636535272 51.651109372 52.665700694 53.680294415 
54.694874161 55.709452272 56.723996627 57.738626009 58.752939219 59.768410433 60.780052523 61.803346022 62.7975745 
63.826083035 
ParallelTransportNormals 3 64 double
0.26561159726 0 0.96408012084 0.34239753868 -0.012273071481 0.9394750115 0.385548669 -0.018650055021 0.9224989969 
0.41991473643 -0.022194147255 0.90729214367 0.44399234493 -0.02278593653 0.89574081002 0.46692829953 -0.020557500946 0.88405619293 
0.48997638697 -0.014194739852 0.87162012917 0.50948942063 -0.0039932633777 0.86046765431 0.5151881272 0.00073712155013 0.85707680533 
0.49854454324 -0.0183456773 0.86666993402 0.45240042746 -0.081552528503 0.8880782839 0.36853023893 -0.20075731787 0.90767943808 
0.26080119623 -0.34684556771 0.90093334282 0.16850391438 -0.46723001007 0.86793003666 0.1201637042 -0.53365916196 0.83711921675 
0.1104752694 -0.55024436462 0.82766318877 0.11408863755 -0.53981863414 0.83401416356 0.11429456397 -0.53586770463 0.83653006867 
0.11961892141 -0.55592188916 0.82258262004 0.13533217873 -0.58314255031 0.80101808183 0.15049489285 -0.6010299451 0.78492948239 
0.15919946862 -0.60933975685 0.7767628917 0.14152459624 -0.59384153655 0.79203725804 0.12576906823 -0.57985452351 0.80495395709 
-0.30779084957 0.087470914656 0.94742473686 -0.31826165628 0.93786567145 0.13826604956 -0.1861412729 0.95838953516 -0.21642764479 
-0.16992193714 0.94950477201 -0.26375599178 -0.16246069578 0.94183748463 -0.29419156151 -0.16482998305 0.94653540387 -0.2773117486 
-0.16705998509 0.96385316792 -0.20755248027 -0.15749964681 0.98597060589 -0.0552795222 -0.12714558734 0.97065290989 0.20412478571 
-0.096702892777 0.86452059538 0.49320653958 -0.09050121389 0.72913207721 0.67836269375 -0.094776468866 0.63685898052 0.76513270737 
-0.098355447367 0.5810704507 0.80788819604 -0.099558484046 0.54240692668 0.83419592072 -0.098081438889 0.50676193691 0.85648839493 
-0.092479689075 0.46805167541 0.87884875619 -0.081709668377 0.42784678315 0.90015035424 -0.068614283613 0.39484392072 0.91618249184 
-0.059271434336 0.37691614457 0.92434902339 -0.058435845268 0.37561972392 0.9249297676 -0.0676978854 0.38742135723 0.91941377425 
-0.086050220957 0.40633707666 0.90966232175 -0.11025807742 0.42583427784 0.89805808508 -0.13560692802 0.44107676616 0.88716517483 
-0.15845033405 0.45079271843 0.87845285397 -0.17908817481 0.45658705628 0.87146754712 -0.20197010191 0.46038915956 0.86443617445 
-0.23353909368 0.46283638901 0.85512687288 -0.27873870539 0.46330647565 0.84122044895 -0.33783214806 0.46100126407 0.82057740297 
-0.40606518758 0.45599363798 0.7919475144 -0.47675963651 0.4493245704 0.75551815294 -0.54379810179 0.44243890937 0.71311390112 
-0.60135723804 0.43677388477 0.6690276869 -0.64379929021 0.43347454248 0.63057298939 -0.66749665888 0.43267683031 0.60600245123 
-0.66756104786 0.43267988561 0.60592933909 -0.64764398979 0.42935592784 0.62945273827 -0.59737694038 0.41288082208 0.68751015837 
-0.59737694038 0.41288082208 0.68751015837 
