# vtk DataFile Version 4.2
vtk output
ASCII
DATASET POLYDATA
POINTS 64 float
0 0 0 -0.97211 0.286541 0.264641 -1.88404 0.475224 0.563668 
-2.84687 0.59077 0.871846 -3.8245 0.603142 1.14408 -4.81178 0.487702 1.34388 
-5.78098 0.205566 1.43547 -6.66095 -0.295169 1.40919 -7.36 -1.02411 1.33278 
-7.86914 -1.90051 1.31181 -8.27497 -2.8279 1.37833 -8.67619 -3.75614 1.46043 
-9.12315 -4.66168 1.37736 -9.51178 -5.45546 0.891637 -9.64567 -6.05413 0.0865095 
-9.53677 -6.55731 -0.786849 -9.26306 -7.06506 -1.62095 -8.87711 -7.62821 -2.37094 
-8.41411 -8.27454 -3.00042 -7.89654 -9.01547 -3.45393 -7.32873 -9.84444 -3.57841 
-6.87402 -10.2945 -2.85113 -6.76629 -9.97696 -1.88539 -6.74512 -9.45206 -1.01906 
-6.74217 -8.89083 -0.174042 -6.74811 -8.41561 0.721822 -6.77062 -8.09432 1.6834 
-6.8064 -7.93734 2.6844 -6.84373 -8.04408 3.69019 -6.85519 -8.56769 4.55209 
-6.81422 -9.40952 5.11325 -6.72578 -10.3594 5.45733 -6.60016 -11.3347 5.70688 
-6.44068 -12.3086 5.94253 -6.24343 -13.2639 6.22089 -6.0016 -14.1859 6.56811 
-5.71333 -15.0713 6.97089 -5.37981 -15.9301 7.39588 -4.99397 -16.7682 7.81764 
-4.5349 -17.5728 8.23099 -3.97025 -18.3067 8.64453 -3.27087 -18.903 9.07186 
-2.44977 -19.298 9.51556 -1.56359 -19.4988 9.96576 -0.658377 -19.5707 10.418 
0.246579 -19.5754 10.8766 1.14316 -19.547 11.3507 2.02458 -19.4909 11.8499 
2.88375 -19.3914 12.3802 3.7167 -19.2348 12.9378 4.52687 -19.0309 13.5135 
5.32377 -18.8165 14.1038 6.11412 -18.6382 14.7143 6.89566 -18.5341 15.3526 
7.65766 -18.5331 16.0221 8.38053 -18.6626 16.7214 9.02869 -18.9576 17.4429 
9.53743 -19.4584 18.1615 9.8346 -20.1629 18.8257 9.92443 -20.9927 19.4008 
9.89217 -21.8659 19.9168 9.86598 -22.7207 20.4648 10.0301 -23.4096 21.151 
10.5961 -23.6179 21.9951 
LINES 1 65
64 0 1 2 3 4 5 6 7 8 9 10 11 12 13 14 15 16 17 18 19 20 21 22 23 24 25 26 27 28 29 30 31 32 33 34 35 36 37 38 39 40 41 42 43 44 45 46 47 48 49 50 51 52 53 54 55 56 57 58 59 60 61 62 63 

POINT_DATA 64
SCALARS MaximumInscribedSphereRadius float
LOOKUP_TABLE default
0.93 1.18037 1.26147 1.21265 1.01123 1.06047 1.22949 1.25597 1.487 
1.73144 1.72582 1.33228 1.24 1.46139 1.71542 1.69892 1.38698 1.53601 
1.86225 1.87639 1.74474 1.88444 2.35746 2.28921 1.90556 1.7671 2.17 
2.17 2.1987 2.39909 2.25224 2.17 2.17 2.16066 2.01654 1.93713 
2.09306 1.97844 1.86 1.92201 2.21371 2.12302 1.85489 1.85218 1.86 
1.8658 1.91641 2.2156 2.48 2.48 2.48 2.35041 2.19198 2.17021 
2.18275 2.23493 2.34581 2.44061 2.48 2.42643 2.2248 2.33646 2.5754 
2.79 
TEXTURE_COORDINATES TCoords 2 float
0 0 0.015873 0 0.031746 0 0.047619 0 0.0634921 
0 0.0793651 0 0.0952381 0 0.111111 0 0.126984 0 
0.142857 0 0.15873 0 0.174603 0 0.190476 0 0.206349 
0 0.222222 0 0.238095 0 0.253968 0 0.269841 0 
0.285714 0 0.301587 0 0.31746 0 0.333333 0 0.349206 
0 0.365079 0 0.380952 0 0.396825 0 0.412698 0 
0.428571 0 0.444444 0 0.460317 0 0.47619 0 0.492063 
0 0.507937 0 0.52381 0 0.539683 0 0.555556 0 
0.571429 0 0.587302 0 0.603175 0 0.619048 0 0.634921 
0 0.650794 0 0.666667 0 0.68254 0 0.698413 0 
0.714286 0 0.730159 0 0.746032 0 0.761905 0 0.777778 
0 0.793651 0 0.809524 0 0.825397 0 0.84127 0 
0.857143 0 0.873016 0 0.888889 0 0.904762 0 0.920635 
0 0.936508 0 0.952381 0 0.968254 0 0.984127 0 
1 0 
FIELD FieldData 4
Curvature 1 64 float
0.164374 0.0907515 0.0672235 0.0774302 0.106622 0.147665 0.194765 0.215194 0.182085 
0.110209 0.0209804 0.146517 0.322296 0.350556 0.225127 0.13962 0.112367 0.117641 
0.157038 0.299394 0.7967 0.707036 0.199737 0.0542772 0.104435 0.125899 0.121699 
0.184551 0.320468 0.329169 0.19324 0.0842923 0.031122 0.0498797 0.0665158 0.0583061 
0.0434272 0.0414086 0.0565233 0.0912772 0.139304 0.168687 0.147866 0.0959814 0.0494824 
0.0262775 0.0328695 0.0466155 0.0523527 0.039941 0.0175572 0.0316989 0.0574753 0.0775451 
0.0983638 0.12965 0.177539 0.213613 0.188475 0.105432 0.0496942 0.229253 0.469036 
0.393624 
Torsion 1 64 float
-0.1301 -0.213463 -0.253334 -0.162128 -0.063963 0.0233333 0.141769 0.258494 0.295276 
0.306929 2.17862 0.203003 0.222406 0.26134 0.280609 0.292224 0.257241 0.157887 
0.0401925 -0.0369357 -0.109619 -0.112628 -0.0720895 0.0942252 0.0103435 -0.0228407 0.0354145 
0.0393347 0.0394387 0.0475036 0.0646224 0.226055 0.992415 0.220761 -0.0134667 -0.152929 
-0.32424 -0.147728 0.0951997 0.118654 0.0881888 0.0561096 0.0397374 0.0534479 0.17627 
0.357009 0.0392349 -0.0974876 -0.0822845 0.0545668 1.24056 0.297345 0.0256738 -0.00679018 
-0.0145363 -0.0191438 -0.0200676 -0.0179798 -0.0166059 -0.15137 -0.669825 -0.0584909 -0.0143104 
-0.00329256 
Abscissas 1 64 double
0 1.0474436893 2.0255243596 3.0430540998 4.0579536007 5.0718373186 6.085416494 7.0982228987 8.1110710419 
9.1248471898 10.139330005 11.15389424 12.167147085 13.175633966 14.187840631 15.201646051 16.215777032 17.229964077 
18.244043574 19.255247408 20.267713869 21.236332882 22.258629817 23.271782884 24.286201715 25.300323287 26.314404814 
27.328275463 28.340402509 29.348954093 30.361502715 31.375622783 32.390166081 33.40474455 34.419219531 35.433651666 
36.448162451 37.462718863 38.477241046 39.491660015 40.505760816 41.519316582 42.532772523 43.546835202 44.561263165 
45.575831467 46.590415267 47.604975241 48.619488817 49.633998827 50.648573359 51.663174184 52.677703479 53.692121371 
54.706430654 55.720536881 56.734272178 57.747233991 58.759960516 59.773569939 60.788387958 61.80408373 62.790197851 
63.827618934 
ParallelTransportNormals 3 64 double
0.26267455119 0 0.96488449058 0.30937119023 -0.011708316403 0.95086927702 0.30364942815 -0.010774901778 0.9527229011 
0.26815135145 -0.0084372683602 0.96333984928 0.19968535507 -0.012030818562 0.97978621055 0.10316555632 -0.031645851522 0.99416065506 
0.010537807021 -0.070865851688 0.99743019088 -0.014567311754 -0.090416454373 0.99579749859 0.024694815044 -0.038253910009 0.99896286441 
0.06577419346 0.042727677053 0.9969193052 0.07196741136 0.056967581378 0.99577878385 0.0027425990638 -0.092691215004 0.9956911252 
-0.17338897724 -0.45088836919 0.87557749006 -0.28424995316 -0.74613094927 0.60207189826 -0.2865137767 -0.84517114982 0.45121567268 
-0.28170868601 -0.85786803189 0.42977046908 -0.29849650988 -0.83061446857 0.47008450112 -0.3411873357 -0.76979335851 0.53945285907 
-0.41335044682 -0.66769869657 0.61912830554 -0.5452173906 -0.47696624135 0.68937740143 -0.86615179513 -0.077185608391 0.49378482121 
-0.99120379614 -0.043679285685 0.1249285977 -0.99527113169 -0.070371575634 0.066956820185 -0.99543723331 -0.077848958295 0.055174760833 
-0.9954104638 -0.087114520185 0.039611474764 -0.99495772002 -0.099790226092 0.010052171476 -0.99410159707 -0.10681519604 -0.018775744969 
-0.99302693439 -0.10755040491 -0.048274402913 -0.99237157796 -0.099066482223 -0.073379038886 -0.99239515628 -0.097972156589 -0.074520536266 
-0.99109490818 -0.11597839974 -0.065420897128 -0.98820540266 -0.14196655852 -0.057407128617 -0.98365141453 -0.17310137564 -0.049656907267 
-0.97628552403 -0.21293704539 -0.039043440899 -0.96488636242 -0.26167606504 -0.022802293641 -0.95053268667 -0.31061453654 -0.0024942473349 
-0.93501101964 -0.35415290805 0.01816895367 -0.91533378959 -0.40056938029 0.041330681099 -0.88210975794 -0.46516802876 0.074169265605 
-0.81914150664 -0.55979880681 0.12502994841 -0.7038947249 -0.68106654292 0.20169427452 -0.53923338642 -0.78841508706 0.29602196788 
-0.38296412501 -0.84295543383 0.37784205103 -0.28225849081 -0.85828652763 0.42857249195 -0.23404148139 -0.86032827513 0.45283533873 
-0.21686212739 -0.86010266934 0.46172959175 -0.2091598817 -0.85973631446 0.46594593408 -0.19380535618 -0.85836352188 0.47502794467 
-0.1683122038 -0.85450563868 0.49141745545 -0.14617236426 -0.84964795737 0.5066872689 -0.14654783188 -0.84974567883 0.5064148638 
-0.17886185971 -0.85773918695 0.48196672325 -0.23890873603 -0.86852837586 0.43425922694 -0.3199990202 -0.87405298092 0.3655571277 
-0.41978147914 -0.86541340849 0.27357474696 -0.54119153298 -0.82781680809 0.14775336504 -0.68161859567 -0.73120706516 -0.027061372704 
-0.79991208691 -0.55428030997 -0.23003041361 -0.84891690453 -0.36005128197 -0.38691493064 -0.8529163245 -0.24188900789 -0.46262668671 
-0.85360806696 -0.26233696798 -0.45003620216 -0.83407249287 -0.47619431836 -0.27849963697 -0.60188771867 -0.76944304515 0.21374885822 
-0.60188771867 -0.76944304515 0.21374885822 
