# vtk DataFile Version 4.2
vtk output
ASCII
DATASET POLYDATA
POINTS 64 float
0 0 0 -0.982182 0.359632 0.00483245 -1.95843 0.437442 -0.014829 
-2.96679 0.313134 -0.0422093 -3.93763 0.0192569 -0.0656175 -4.86279 -0.396232 -0.0805705 
-5.74407 -0.898445 -0.0972039 -6.57805 -1.47005 -0.174741 -7.29246 -2.1091 -0.494656 
-7.69533 -2.75319 -1.16191 -7.82966 -3.3704 -1.95537 -7.83523 -4.00362 -2.74786 
-7.77611 -4.68286 -3.49903 -7.68671 -5.43004 -4.17925 -7.60057 -6.27224 -4.73558 
-7.58781 -7.24666 -5.00369 -7.78835 -8.12662 -4.58361 -8.09747 -8.54496 -3.71263 
-8.38391 -8.71412 -2.75491 -8.614 -8.78034 -1.76919 -8.76002 -8.82082 -0.766156 
-8.78458 -8.90388 0.244257 -8.64692 -9.11018 1.22679 -8.35191 -9.50852 2.11023 
-7.99135 -10.0997 2.85044 -7.66822 -10.8382 3.46555 -7.43658 -11.6721 3.99433 
-7.29726 -12.5567 4.47087 -7.21926 -13.4631 4.92004 -7.15834 -14.3761 5.35833 
-7.06389 -15.2868 5.79538 -6.87971 -16.1821 6.23501 -6.55247 -17.0355 6.67418 
-6.0551 -17.8083 7.10219 -5.40252 -18.4706 7.50659 -4.63282 -19.015 7.88029 
-3.78196 -19.4486 8.22205 -2.87541 -19.7793 8.53461 -1.9312 -20.0103 8.82458 
-0.964956 -20.1404 9.10464 0.00609741 -20.1702 9.3965 0.962632 -20.1117 9.72915 
1.88684 -19.9954 10.1309 2.76592 -19.8674 10.6205 3.59305 -19.7796 11.201 
4.36709 -19.7821 11.8564 5.08838 -19.9189 12.5559 5.74836 -20.2296 13.26 
6.31903 -20.7394 13.9244 6.75655 -21.4374 14.5146 7.02835 -22.2719 15.0219 
7.13683 -23.1802 15.4594 7.1125 -24.1195 15.8414 6.99418 -25.0707 16.1734 
6.82051 -26.0314 16.4495 6.63016 -27.0072 16.6509 6.46465 -28.0035 16.7446 
6.3677 -29.011 16.6858 6.36906 -29.9936 16.4375 6.45393 -30.9075 16.007 
6.56306 -31.7469 15.4471 6.62925 -32.5423 14.8162 6.60274 -33.2966 14.1929 
6.4004 -34.1191 13.5778 
LINES 1 65
64 0 1 2 3 4 5 6 7 8 9 10 11 12 13 14 15 16 17 18 19 20 21 22 23 24 25 26 27 28 29 30 31 32 33 34 35 36 37 38 39 40 41 42 43 44 45 46 47 48 49 50 51 52 53 54 55 56 57 58 59 60 61 62 63 

POINT_DATA 64
SCALARS MaximumInscribedSphereRadius float
LOOKUP_TABLE default
1.24 1.24 1.26805 1.35368 1.51077 1.73228 1.47119 1.38621 1.55 
1.55 1.55 1.55 1.59292 2.03752 2.42882 2.48 2.30785 2.67078 
2.99759 2.63654 2.37712 2.27085 2.57243 2.55917 2.38727 2.90261 2.84579 
2.49336 2.2867 2.17254 2.17 2.2977 2.41121 2.10261 2.00875 2.38918 
2.23676 1.93429 1.98179 2.0131 1.83908 2.00891 2.41509 2.48797 2.417 
2.22457 2.17 2.28446 2.6514 2.73307 2.59371 2.34365 2.04648 1.71325 
2.03157 2.71357 2.96681 3.16505 3.35216 2.80928 2.12888 1.71325 1.55 
1.55 
TEXTURE_COORDINATES TCoords 2 float
0 0 0.015873 0 0.031746 0 0.047619 0 0.0634921 
0 0.0793651 0 0.0952381 0 0.111111 0 0.126984 0 
0.142857 0 0.15873 0 0.174603 0 0.190476 0 0.206349 
0 0.222222 0 0.238095 0 0.253968 0 0.269841 0 
0.285714 0 0.301587 0 0.31746 0 0.333333 0 0.349206 
0 0.365079 0 0.380952 0 0.396825 0 0.412698 0 
0.428571 0 0.444444 0 0.460317 0 0.47619 0 0.492063 
0 0.507937 0 0.52381 0 0.539683 0 0.555556 0 
0.571429 0 0.587302 0 0.603175 0 0.619048 0 0.634921 
0 0.650794 0 0.666667 0 0.68254 0 0.698413 0 
0.714286 0 0.730159 0 0.746032 0 0.761905 0 0.777778 
0 0.793651 0 0.809524 0 0.825397 0 0.84127 0 
0.857143 0 0.873016 0 0.888889 0 0.904762 0 0.920635 
0 0.936508 0 0.952381 0 0.968254 0 0.984127 0 
1 0 
FIELD FieldData 4
Curvature 1 64 float
0.194194 0.18395 0.155252 0.120801 0.0927709 0.0821995 0.122169 0.238897 0.361895 
0.261763 0.143709 0.0862513 0.0741366 0.123982 0.271922 0.591258 0.505618 0.220613 
0.0964144 0.0677051 0.101839 0.158988 0.196909 0.178778 0.144663 0.120189 0.0915669 
0.0562885 0.0203241 0.0245849 0.0661092 0.106774 0.133583 0.136524 0.120221 0.100054 
0.0848094 0.0764451 0.0735121 0.0726298 0.0710556 0.0691233 0.0716184 0.0799677 0.0915039 
0.106601 0.130207 0.156554 0.172205 0.164037 0.138893 0.106977 0.0771857 0.0552889 
0.0574105 0.0839865 0.123594 0.154921 0.153023 0.10865 0.0692824 0.0760903 0.117415 
0.157546 
Torsion 1 64 float
-0.0176542 -0.028501 -0.0402888 -0.0388711 -0.0117733 0.105173 0.186577 0.0856424 -0.0823402 
-0.133353 -0.158206 -0.231838 -0.249462 -0.130253 -0.0682514 -0.0313636 0.0325757 0.104097 
0.308092 0.489303 0.242955 0.15327 0.176057 0.263692 0.285275 0.201348 0.108318 
0.0347538 -0.357547 -0.664052 -0.0216314 -0.0117405 -0.013154 -0.0110291 -0.00802466 -0.0112547 
-0.0339204 -0.0758249 -0.137038 -0.210171 -0.284154 -0.349817 -0.357876 -0.30934 -0.258413 
-0.197684 -0.112394 -0.0200749 0.0570491 0.0974065 0.0766988 0.0117188 -0.10099 -0.317386 
-0.364573 -0.185365 -0.063474 0.00986404 0.0975573 0.273369 0.620849 0.488664 0.189878 
0.0768301 
Abscissas 1 64 double
0 1.0459635302 2.0255028759 3.0418689361 4.0564852821 5.0707640106 6.0852349624 7.0992672493 8.1097725965 
9.1209008832 10.135087879 11.149508213 12.163958464 13.178337705 14.191364243 15.202075769 16.197573425 17.212056868 
18.225909068 19.240289995 20.254702919 21.268822886 22.2821699 23.295174733 24.30877293 25.322764078 26.336967246 
27.351397724 28.365967602 29.380574185 30.395102627 31.409429737 32.423417054 33.437218701 34.451139306 35.465278801 
36.479548228 37.493903047 38.508284525 39.522677352 40.537080332 41.551493087 42.565910855 43.580288744 44.594603128 
45.608818506 46.622881498 47.636654893 48.650101357 49.663491702 50.677183501 51.691211053 52.705499388 53.719950535 
54.734450255 55.748892383 56.763128373 57.776971106 58.790502414 59.804246228 60.819178456 61.83656336 62.815393816 
63.86217135 
ParallelTransportNormals 3 64 double
0.0049200572635 0 0.99998789645 -0.019706447155 0.0053849936504 0.99979130712 -0.027784740963 0.0052108532097 0.99960034773 
-0.025806707653 0.0056289435583 0.99965110355 -0.01971133272 0.0079095370625 0.99977442585 -0.022553403729 0.0064657293599 0.99972473128 
-0.074725656099 -0.02619658237 0.99685997783 -0.26662871548 -0.17627689999 0.94754186325 -0.50410375598 -0.44898048755 0.73776413914 
-0.56845785823 -0.59996782555 0.56293362994 -0.57276156908 -0.63843099153 0.51414983617 -0.57311530176 -0.62976085359 0.5243473259 
-0.57764710411 -0.58623688021 0.56802301309 -0.58864972751 -0.48661487496 0.64552107771 -0.603210036 -0.21892661911 0.76694770872 
-0.53381075771 0.46028539127 0.70935423699 -0.36911033785 0.8820985519 0.2926767897 -0.29933958015 0.9509172511 0.078435944075 
-0.27837171903 0.96047331094 -0.00045279240959 -0.27812933406 0.96054206844 -0.0017344430198 -0.28434905878 0.95603697466 0.071686232015 
-0.27511453407 0.93241918209 0.23432127947 -0.22243103781 0.85879746792 0.46150985094 -0.14263198955 0.73835570408 0.65915625598 
-0.080218673116 0.6169748086 0.78288380366 -0.047906176244 0.52539236125 0.84951036781 -0.035854947461 0.46956694872 0.88216852325 
-0.032456275108 0.44155804748 0.89664545999 -0.031636638839 0.43082299572 0.90188173806 -0.031548687757 0.42979069806 0.9023772139 
-0.032375350974 0.43514874332 0.89977630989 -0.035680816771 0.44645060857 0.89409660184 -0.043736933514 0.46233732277 0.88562479675 
-0.056945589828 0.47882160205 0.87606339565 -0.072877182013 0.49233871108 0.86734739863 -0.089463941168 0.50234854778 0.86002449952 
-0.10794373097 0.51038549119 0.85314406833 -0.1328162031 0.51793461266 0.84504650358 -0.17091003619 0.52513521285 0.8336802551 
-0.22915755452 0.52994292168 0.81648473039 -0.30745576278 0.52877614893 0.79111739853 -0.39458045872 0.52068032314 0.75709858189 
-0.47409519156 0.5099082827 0.71779334949 -0.53174216089 0.50261649769 0.68163548219 -0.55819932646 0.50120728494 0.66121461679 
-0.55188112781 0.50061867942 0.66693939649 -0.51786617034 0.48959925512 0.70150352744 -0.46996077991 0.45765933051 0.75477467005 
-0.43029848395 0.41014142338 0.80413134968 -0.41237501587 0.37141924405 0.83186212285 -0.40899562254 0.3559334807 0.84025825676 
-0.40885643299 0.35287802777 0.84161363744 -0.40940671446 0.34558487176 0.84436795212 -0.41334936077 0.31976941815 0.85257833961 
-0.42427569437 0.26164384722 0.8669098179 -0.4432210393 0.15665192455 0.8826184254 -0.46464737848 -0.0069299662235 0.88546868338 
-0.47470202743 -0.21630101851 0.85315406261 -0.4658010792 -0.41208382603 0.78308126969 -0.45221399973 -0.53489024757 0.71371907744 
-0.44756277841 -0.57825034629 0.68213935262 -0.44800756594 -0.56006380034 0.69686279885 -0.43500146507 -0.46821942737 0.76911916712 
-0.43500146507 -0.46821942737 0.76911916712 
