# vtk DataFile Version 4.2
vtk output
ASCII
DATASET POLYDATA
POINTS 64 float
0 0 0 -1.01193 0.25665 0.0830482 -1.97175 0.378641 0.18139 
-2.99101 0.357558 0.284926 -3.97336 0.122387 0.352018 -4.87594 -0.338799 0.341191 
-5.66868 -0.964413 0.246788 -6.3912 -1.66244 0.105029 -7.10333 -2.36771 -0.0527476 
-7.8388 -3.04449 -0.227083 -8.59838 -3.67802 -0.452702 -9.35282 -4.26376 -0.793878 
-10.0199 -4.80061 -1.33605 -10.4418 -5.28145 -2.12036 -10.5085 -5.7035 -3.03865 
-10.2793 -6.09871 -3.94368 -9.85608 -6.51386 -4.76644 -9.30608 -6.99416 -5.47012 
-8.67542 -7.58988 -5.99481 -8.03464 -8.36591 -6.12732 -7.71785 -9.06664 -5.51149 
-7.79349 -9.39289 -4.55232 -8.00956 -9.53103 -3.57078 -8.27463 -9.60491 -2.5943 
-8.5497 -9.68584 -1.62105 -8.80735 -9.82927 -0.650373 -9.02037 -10.0785 0.309508 
-9.16305 -10.4539 1.24088 -9.22069 -10.9486 2.12444 -9.19335 -11.5421 2.94662 
-9.08921 -12.2145 3.69888 -8.91562 -12.9508 4.37472 -8.67619 -13.7373 4.96896 
-8.3692 -14.5581 5.48005 -7.98706 -15.3928 5.91166 -7.51732 -16.2157 6.27381 
-6.94601 -16.9953 6.58181 -6.26538 -17.6963 6.85393 -5.48137 -18.2874 7.1082 
-4.61407 -18.7502 7.35799 -3.68998 -19.084 7.61006 -2.73296 -19.302 7.86631 
-1.76004 -19.4218 8.12761 -0.78268 -19.4573 8.39733 0.189793 -19.4156 8.68335 
1.14718 -19.2996 8.99824 2.07772 -19.1143 9.35737 2.97165 -18.8762 9.77381 
3.82621 -18.6164 10.2549 4.64678 -18.3768 10.8013 5.44218 -18.2069 11.4075 
6.21568 -18.1615 12.062 6.95267 -18.3025 12.7439 7.60388 -18.6893 13.4171 
8.08048 -19.3369 14.033 8.30942 -20.176 14.5527 8.30822 -21.0962 14.9784 
8.16923 -22.0295 15.3511 7.99377 -22.9581 15.7205 7.87502 -23.8773 16.1327 
7.91141 -24.76 16.6284 8.20015 -25.5326 17.2311 8.6907 -26.0927 17.8584 
9.38994 -26.471 18.5393 
LINES 1 65
64 0 1 2 3 4 5 6 7 8 9 10 11 12 13 14 15 16 17 18 19 20 21 22 23 24 25 26 27 28 29 30 31 32 33 34 35 36 37 38 39 40 41 42 43 44 45 46 47 48 49 50 51 52 53 54 55 56 57 58 59 60 61 62 63 

POINT_DATA 64
SCALARS MaximumInscribedSphereRadius float
LOOKUP_TABLE default
1.23 1.04139 0.911999 1.05349 1.12366 0.941822 1.36864 1.95309 2.51999 
2.13922 1.75479 1.70048 1.92013 2.13794 1.86543 1.87482 2.02857 2.04818 
1.94442 1.95175 2.32576 2.1481 2.52058 2.91861 3.18051 2.97612 2.57105 
2.71762 2.85816 2.87 2.48961 2.17341 2.30675 2.54973 2.79325 2.89111 
2.87455 2.87 2.88474 2.94297 2.82694 2.52568 2.43084 2.36887 2.19369 
2.15216 2.35144 2.84436 3.47114 3.69 3.62366 3.16659 2.76681 2.65551 
3.2285 3.57392 3.31566 3.07006 3.01962 3.43507 3.55661 3.34066 3.28 
3.28 
TEXTURE_COORDINATES TCoords 2 float
0 0 0.015873 0 0.031746 0 0.047619 0 0.0634921 
0 0.0793651 0 0.0952381 0 0.111111 0 0.126984 0 
0.142857 0 0.15873 0 0.174603 0 0.190476 0 0.206349 
0 0.222222 0 0.238095 0 0.253968 0 0.269841 0 
0.285714 0 0.301587 0 0.31746 0 0.333333 0 0.349206 
0 0.365079 0 0.380952 0 0.396825 0 0.412698 0 
0.428571 0 0.444444 0 0.460317 0 0.47619 0 0.492063 
0 0.507937 0 0.52381 0 0.539683 0 0.555556 0 
0.571429 0 0.587302 0 0.603175 0 0.619048 0 0.634921 
0 0.650794 0 0.666667 0 0.68254 0 0.698413 0 
0.714286 0 0.730159 0 0.746032 0 0.761905 0 0.777778 
0 0.793651 0 0.809524 0 0.825397 0 0.84127 0 
0.857143 0 0.873016 0 0.888889 0 0.904762 0 0.920635 
0 0.936508 0 0.952381 0 0.968254 0 0.984127 0 
1 0 
FIELD FieldData 4
Curvature 1 64 float
0.115002 0.137089 0.165649 0.197495 0.213355 0.175021 0.100848 0.0486372 0.0426761 
0.0577991 0.104757 0.187841 0.287169 0.318462 0.248812 0.176078 0.149332 0.196599 
0.383566 0.711975 0.548523 0.219713 0.084108 0.0286302 0.0547509 0.0956586 0.118163 
0.123188 0.116119 0.10557 0.0977313 0.0930061 0.0896887 0.0877416 0.0898709 0.0987496 
0.111619 0.121477 0.122675 0.112777 0.0964402 0.0794636 0.0669274 0.062883 0.0651019 
0.0692245 0.069564 0.063766 0.0625609 0.0774695 0.110172 0.156623 0.211475 0.256403 
0.265132 0.216723 0.125979 0.0384838 0.0611357 0.147467 0.229736 0.265708 0.241933 
0.194902 
Torsion 1 64 float
-0.0355305 -0.0519332 -0.0746305 -0.0946848 -0.0882436 -0.0547004 -0.0507672 -0.170527 0.116078 
0.441262 0.312379 0.224845 0.179427 0.170612 0.196672 0.263362 0.294724 0.173563 
0.052714 -0.00886708 -0.0199688 0.00120096 0.148828 0.524203 0.222083 0.0601349 0.058186 
0.042926 0.0128709 -0.00680554 5.17498e-05 0.0339307 0.0944208 0.168216 0.225575 0.221676 
0.178848 0.129657 0.0843236 0.0518308 0.0341917 0.0426817 0.0794699 0.132411 0.16183 
0.183364 0.239596 0.366281 0.462321 0.357302 0.176879 0.0711354 -0.00892986 -0.0732571 
-0.0917342 -0.0830561 -0.110059 -3.06911 -1.11595 -0.0235442 0.00800848 0.015942 0.0110822 
0.00610906 
Abscissas 1 64 double
0 1.0472712151 2.0197889104 3.0445147693 4.0568499361 5.0704827122 6.0847537359 7.0993398015 8.1139416538 
9.128503812 10.143016455 11.157251993 12.170734224 13.182832216 14.195660404 15.209454604 16.22356177 17.237642952 
18.251496951 19.266575613 20.251784738 21.267739533 22.282229574 23.296742754 24.311353037 25.325828696 26.340168452 
27.354419806 28.368697325 29.38304148 30.397425669 31.411830229 32.426248267 33.44067971 34.455112466 35.469529148 
36.483891579 37.498177824 38.512433067 39.526711843 40.541069086 41.555510033 42.570002725 43.584517512 44.599034825 
45.613540821 46.628032072 47.642535225 48.65706163 49.671573422 50.685994652 51.700247907 52.714175134 53.727528568 
54.740393202 55.753567432 56.767551223 57.782065203 58.796696174 59.811103182 60.824022068 61.84561386 62.819184872 
63.865934008 
ParallelTransportNormals 3 64 double
0.081793765926 0 0.99664927625 0.1014556087 -0.0037296801617 0.99483307592 0.10113478966 -0.0037127027641 0.9948658051 
0.069976248274 -0.0077224439966 0.99751876601 0.004343686809 -0.031963680776 0.99947959234 -0.060510138026 -0.073536050309 0.99545515846 
-0.094521633199 -0.1032459282 0.99015450267 -0.10573915883 -0.11421833193 0.98781243308 -0.11779785985 -0.1257309554 0.98504588272 
-0.15642030008 -0.15958062222 0.97471365782 -0.24584219512 -0.23159369303 0.94123640837 -0.40129434169 -0.35435664215 0.84462667581 
-0.57796264589 -0.51948032352 0.62936426132 -0.65709677189 -0.66569443963 0.35365908077 -0.64033956926 -0.75006581262 0.1654282708 
-0.60963607606 -0.78820687833 0.084105717513 -0.60204624102 -0.79519005081 0.072201847435 -0.63469244733 -0.76543729442 0.10616612272 
-0.74671010628 -0.64459202995 0.16408879337 -0.9303538938 -0.36015524534 0.068773770733 -0.96475513904 -0.2164197692 -0.14969971675 
-0.95162761786 -0.19553511453 -0.23700399979 -0.94337257095 -0.19189728599 -0.27059864006 -0.94031261445 -0.19102028934 -0.28164416587 
-0.94127610297 -0.19142607114 -0.27812831079 -0.94557593776 -0.19501366261 -0.26049149184 -0.95157153651 -0.20554249295 -0.22861297972 
-0.95602342742 -0.22487945589 -0.18827755188 -0.95672616849 -0.25011751135 -0.14871539609 -0.95394860955 -0.27686221788 -0.11545285897 
-0.94856178895 -0.3041874406 -0.087752683892 -0.94050533497 -0.33389140634 -0.062978120512 -0.92802251814 -0.37060877145 -0.037727236158 
-0.9073473544 -0.42027559916 -0.0094445334742 -0.87256320769 -0.48796106256 0.022966279831 -0.81617833141 -0.57475294965 0.059261945646 
-0.73275527974 -0.67341049936 0.097918330103 -0.62427185272 -0.76911703745 0.1369074016 -0.50214236808 -0.84706079 0.17418685433 
-0.38197980991 -0.90049412237 0.20785033171 -0.27562519013 -0.9316952633 0.23658971007 -0.18657767448 -0.94728262304 0.26046958262 
-0.11206977513 -0.95321351805 0.28075675328 -0.047184925842 -0.95300730366 0.29925016614 0.010611586906 -0.94828373846 0.31724650603 
0.058266305453 -0.94067807472 0.33426007448 0.087293803078 -0.93394249566 0.34659949041 0.088383106927 -0.93363230401 0.34715867744 
0.056989845059 -0.94299089348 0.32790293132 -0.0089622987159 -0.95970594164 0.28086328131 -0.1111012399 -0.97372483785 0.19878746097 
-0.25262695962 -0.96476257771 0.073571651616 -0.43001631614 -0.89731105287 -0.099593384534 -0.60740390702 -0.73460209672 -0.30235782318 
-0.72042987298 -0.49645536987 -0.48426528251 -0.74878456133 -0.27749820072 -0.60192726247 -0.73928559924 -0.15187418916 -0.65604194486 
-0.73494209444 -0.12615618124 -0.66629177974 -0.7451628705 -0.19035192571 -0.6391388275 -0.7522639502 -0.34592129858 -0.56074718405 
-0.706404283 -0.58023604683 -0.40536294714 -0.59260402126 -0.77291405455 -0.22676935037 -0.43502759229 -0.89887539431 -0.052668960911 
-0.43502759229 -0.89887539431 -0.052668960911 
