# vtk DataFile Version 4.2
vtk output
ASCII
DATASET POLYDATA
POINTS 64 float
0 0 0 -0.703398 0.118174 0.592277 -1.63138 0.181402 1.26613 
-2.47567 0.0912373 1.70678 -3.4197 -0.127293 2.06001 -4.35 -0.493851 2.22743 
-5.24206 -0.977926 2.22677 -6.07579 -1.54099 2.08864 -6.85037 -2.15107 1.84831 
-7.57777 -2.78639 1.53679 -8.26902 -3.43384 1.17272 -8.93219 -4.08414 0.764214 
-9.5703 -4.72846 0.308969 -10.1805 -5.3548 -0.206203 -10.7521 -5.94222 -0.804601 
-11.269 -6.4622 -1.50673 -11.7214 -6.89559 -2.305 -12.1196 -7.25849 -3.16517 
-12.4813 -7.5884 -4.0539 -12.8179 -7.92494 -4.94994 -13.1277 -8.298 -5.84127 
-13.3979 -8.72701 -6.72032 -13.607 -9.22286 -7.58078 -13.7272 -9.78755 -8.41556 
-13.7281 -10.4132 -9.21491 -13.5826 -11.0821 -9.96487 -13.2761 -11.7681 -10.6477 
-12.8164 -12.4464 -11.247 -12.229 -13.1021 -11.7527 -11.547 -13.7341 -12.1597 
-10.8009 -14.3507 -12.4651 -10.0167 -14.9639 -12.6631 -9.21702 -15.5839 -12.7425 
-8.42505 -16.2164 -12.6855 -7.66922 -16.8578 -12.4657 -6.98985 -17.49 -12.0515 
-6.44746 -18.0725 -11.4193 -6.10218 -18.5579 -10.5968 -5.97568 -18.9257 -9.65747 
-6.04227 -19.1947 -8.68052 -6.25853 -19.4035 -7.71107 -6.58502 -19.5924 -6.7689 
-6.98896 -19.7984 -5.86103 -7.4416 -20.0551 -4.98984 -7.91471 -20.3922 -4.1577 
-8.37817 -20.8314 -3.3687 -8.80164 -21.3805 -2.62761 -9.16185 -22.0306 -1.93642 
-9.44694 -22.7611 -1.29199 -9.65622 -23.5479 -0.686228 -9.79591 -24.3706 -0.108822 
-9.87458 -25.2139 0.449932 -9.89841 -26.0677 0.997729 -9.86939 -26.9246 1.54036 
-9.78562 -27.778 2.08279 -9.64189 -28.62 2.63057 -9.43132 -29.4393 3.1909 
-9.14588 -30.218 3.77639 -8.78211 -30.9305 4.40036 -8.34145 -31.5397 5.07967 
-7.82328 -31.9944 5.84562 -7.30641 -32.2742 6.60392 -6.6825 -32.3149 7.56487 
-6.19362 -32.2171 8.34761 
LINES 1 65
64 0 1 2 3 4 5 6 7 8 9 10 11 12 13 14 15 16 17 18 19 20 21 22 23 24 25 26 27 28 29 30 31 32 33 34 35 36 37 38 39 40 41 42 43 44 45 46 47 48 49 50 51 52 53 54 55 56 57 58 59 60 61 62 63 

POINT_DATA 64
SCALARS MaximumInscribedSphereRadius float
LOOKUP_TABLE default
1.24 1.14245 1.03416 1.04922 1.23125 1.51578 1.49962 1.43519 1.4246 
1.49964 1.57112 1.47518 1.36402 1.25923 1.18708 1.25192 1.45566 1.66368 
1.83442 1.93887 1.89583 1.76853 1.55588 1.34129 1.24 1.24 1.24972 
1.26373 1.3443 1.59651 1.87163 2.0304 2.14101 2.16777 1.95437 1.66548 
1.67706 1.76661 1.77097 1.63024 1.56805 1.55 1.588 1.68394 1.81521 
1.85088 1.86 1.86 1.85695 1.83243 1.61221 1.39258 1.30772 1.43969 
1.531 1.39035 1.24764 1.2329 1.42298 1.45069 1.3415 1.32494 1.44038 
1.581 
TEXTURE_COORDINATES TCoords 2 float
0 0 0.015873 0 0.031746 0 0.047619 0 0.0634921 
0 0.0793651 0 0.0952381 0 0.111111 0 0.126984 0 
0.142857 0 0.15873 0 0.174603 0 0.190476 0 0.206349 
0 0.222222 0 0.238095 0 0.253968 0 0.269841 0 
0.285714 0 0.301587 0 0.31746 0 0.333333 0 0.349206 
0 0.365079 0 0.380952 0 0.396825 0 0.412698 0 
0.428571 0 0.444444 0 0.460317 0 0.47619 0 0.492063 
0 0.507937 0 0.52381 0 0.539683 0 0.555556 0 
0.571429 0 0.587302 0 0.603175 0 0.619048 0 0.634921 
0 0.650794 0 0.666667 0 0.68254 0 0.698413 0 
0.714286 0 0.730159 0 0.746032 0 0.761905 0 0.777778 
0 0.793651 0 0.809524 0 0.825397 0 0.84127 0 
0.857143 0 0.873016 0 0.888889 0 0.904762 0 0.920635 
0 0.936508 0 0.952381 0 0.968254 0 0.984127 0 
1 0 
FIELD FieldData 4
Curvature 1 64 float
0.179839 0.211723 0.245379 0.271931 0.281462 0.260672 0.211811 0.160712 0.114999 
0.081316 0.0684175 0.0836512 0.113141 0.14938 0.181311 0.180591 0.141927 0.101346 
0.074785 0.0719901 0.0900299 0.114865 0.142708 0.171287 0.198245 0.215848 0.214877 
0.199599 0.175872 0.151845 0.142552 0.15022 0.173908 0.212919 0.266887 0.328259 
0.354415 0.33507 0.276037 0.205165 0.148604 0.113108 0.102471 0.11516 0.139507 
0.155586 0.158162 0.148275 0.129074 0.10629 0.0858877 0.0722052 0.0665257 0.0689436 
0.07974 0.0962413 0.118035 0.145853 0.180595 0.22106 0.250945 0.261581 0.251446 
0.225095 
Torsion 1 64 float
-0.00189937 -0.00268501 -0.00386083 -0.00552897 -0.00781852 -0.010939 -0.016814 -0.0302126 -0.0613394 
-0.112557 -0.172 -0.135021 -0.094546 -0.0675899 -0.0558054 -0.0342135 0.0544957 0.224529 
0.314472 0.171724 -0.0567089 -0.147241 -0.171983 -0.159137 -0.125748 -0.0779889 -0.0116389 
0.0647153 0.148116 0.237175 0.258493 0.20929 0.130658 0.0540927 0.00602936 0.00512709 
0.039349 0.0866849 0.140629 0.2207 0.383395 0.564792 0.609891 0.461376 0.300265 
0.220492 0.172925 0.15264 0.154761 0.154562 0.169262 0.179715 0.179608 0.168125 
0.163709 0.176741 0.193821 0.203098 0.192161 0.145148 0.104974 0.0731024 0.0496694 
0.0334903 
Abscissas 1 64 double
0 0.92710584408 2.0756839066 3.0323046319 4.0636749959 5.0775032219 6.0924371433 7.1079336342 8.1227873134 
9.1375752561 10.152249319 11.166922005 12.181601282 13.196505614 14.211324267 15.22651938 16.241255112 17.256208999 
18.270879565 19.285491829 20.300178555 21.31496702 22.329856747 23.344835147 24.359942084 25.375295149 26.390570191 
27.405778326 28.42099925 29.43602568 30.450940695 31.465887524 32.480944221 33.496065143 34.511439557 35.527672864 
36.544144628 37.55970666 38.576383235 39.591861031 40.606856504 41.621730593 42.63653399 43.651300809 44.666146264 
45.681145862 46.69607451 47.711035108 48.7259848 49.740791684 50.755517264 51.770232471 52.784915103 53.799586264 
54.814265481 55.829021665 56.843656841 57.858879499 58.873423235 59.886730475 60.917210401 61.876611879 63.023058895 
63.951104329 
ParallelTransportNormals 3 64 double
0.64409900134 0 0.7649421393 0.58785470228 0.0065524649767 0.8089399942 0.4623781925 0.0036425972542 0.88667532873 
0.35343276696 -0.014908119857 0.93534112879 0.20065100292 -0.06270680423 0.97765384044 0.067113609148 -0.12503361714 0.98987997154 
-0.035947197333 -0.18756444576 0.98159430402 -0.10932454639 -0.24108881143 0.96432584149 -0.15879458943 -0.28210835329 0.94614964745 
-0.1946930604 -0.31456841339 0.92905399495 -0.22486577871 -0.34347862425 0.91184308751 -0.25668389366 -0.37513400205 0.89072322258 
-0.29750844462 -0.41668990258 0.85898675803 -0.35455528241 -0.47528067027 0.8052321629 -0.42615124604 -0.54811558046 0.71969745446 
-0.49435363004 -0.61519522647 0.61412484219 -0.53913618725 -0.65712270528 0.52680349449 -0.55994664211 -0.67609511313 0.47891038409 
-0.56439420532 -0.68033946484 0.46754400176 -0.5606587629 -0.67623850816 0.4778736566 -0.55459061045 -0.66784639992 0.49639746264 
-0.54992437213 -0.65884322422 0.51333107332 -0.54837899651 -0.65386722617 0.52128507242 -0.5487977571 -0.65798352285 0.51563427491 
-0.54692622704 -0.6747324178 0.49558840438 -0.53739731526 -0.70329105477 0.46538781444 -0.51905445445 -0.73595081071 0.43469400448 
-0.49758185647 -0.76330956185 0.41203253379 -0.4822902026 -0.77882251718 0.40103821165 -0.48085446513 -0.78007777549 0.40032192988 
-0.49722497453 -0.76692193348 0.40570688021 -0.53246013847 -0.73948810997 0.41187805981 -0.58638703541 -0.69705165199 0.41263693383 
-0.65786591137 -0.63822264673 0.39985534367 -0.74368493968 -0.56206938688 0.36195402309 -0.83561659133 -0.47067386218 0.28321551468 
-0.91153881996 -0.37932599292 0.15877270169 -0.95186631326 -0.30640326848 0.0082194123489 -0.95637643932 -0.25838088499 -0.13632103502 
-0.93860955889 -0.22837518443 -0.25856695672 -0.91059801735 -0.20784760771 -0.35722629069 -0.87992803166 -0.19126705255 -0.43490639648 
-0.85139177743 -0.17585231561 -0.49417406287 -0.82848828789 -0.16116129381 -0.53631538689 -0.81407896251 -0.14921805618 -0.56125699506 
-0.8094390725 -0.14404763464 -0.56926151009 -0.81259271265 -0.14887352468 -0.56349778792 -0.8197355622 -0.16415520727 -0.54871365574 
-0.8273567744 -0.18754574676 -0.52944061114 -0.83344121471 -0.21560776284 -0.50881139357 -0.83735784266 -0.24549030661 -0.48843254673 
-0.8392516254 -0.27684609995 -0.46798819024 -0.83914797275 -0.31099083905 -0.44622346179 -0.83657524537 -0.35000327508 -0.4214730908 
-0.83033951232 -0.39647684301 -0.39158959031 -0.8183749501 -0.45257792566 -0.35416897417 -0.79702591989 -0.52136054579 -0.30484892047 
-0.76265999356 -0.60029292532 -0.24082802583 -0.70995675712 -0.68687565657 -0.15544528113 -0.62978782839 -0.77599690083 -0.034584694876 
-0.55622158597 -0.82775622942 0.073737181664 -0.43973925143 -0.86294520945 0.24890752548 -0.37909933321 -0.85898982976 0.34412231536 
-0.37909933321 -0.85898982976 0.34412231536 
