# vtk DataFile Version 4.2
vtk output
ASCII
DATASET POLYDATA
POINTS 64 float
0 0 0 -1.01409 0.219974 0.128202 -1.94297 0.374187 0.376496 
-2.90772 0.465001 0.714193 -3.84221 0.451146 1.10306 -4.76311 0.313355 1.50598 
-5.66606 0.0392874 1.87808 -6.55022 -0.367172 2.16396 -7.41084 -0.886979 2.29577 
-8.2253 -1.48312 2.20221 -8.93861 -2.11202 1.85163 -9.49007 -2.75046 1.28942 
-9.84878 -3.40844 0.606333 -10.0147 -4.10703 -0.109846 -10.0127 -4.85087 -0.799374 
-9.8806 -5.63265 -1.43212 -9.65729 -6.44432 -1.99822 -9.37389 -7.2836 -2.49257 
-9.05331 -8.1555 -2.90074 -8.71581 -9.07108 -3.17543 -8.39443 -10.0306 -3.16352 
-8.19431 -10.811 -2.56758 -8.14503 -11.1627 -1.61352 -8.13322 -11.3157 -0.61173 
-8.11049 -11.4297 0.396334 -8.05718 -11.5991 1.39516 -7.9692 -11.9066 2.35761 
-7.86322 -12.4128 3.22942 -7.77301 -13.1105 3.95955 -7.72211 -13.9353 4.54764 
-7.71175 -14.8287 5.02829 -7.73022 -15.756 5.43933 -7.7605 -16.6986 5.81367 
-7.78449 -17.6447 6.17916 -7.78548 -18.5859 6.55802 -7.74917 -19.5151 6.96394 
-7.66258 -20.4266 7.40078 -7.51087 -21.3156 7.86546 -7.27577 -22.175 8.35068 
-6.93559 -22.9918 8.84673 -6.47013 -23.745 9.34162 -5.86922 -24.4054 9.82255 
-5.14064 -24.9442 10.278 -4.30914 -25.3421 10.7011 -3.40722 -25.5941 11.0906 
-2.46578 -25.7073 11.4509 -1.50926 -25.6954 11.7885 -0.554757 -25.575 12.1104 
0.387307 -25.3656 12.4233 1.31276 -25.0901 12.7347 2.22332 -24.7764 13.0539 
3.12514 -24.4594 13.394 4.02494 -24.1827 13.7723 4.92179 -23.9976 14.2085 
5.79723 -23.9537 14.7186 6.6131 -24.0851 15.3062 7.3263 -24.3937 15.9576 
7.90959 -24.8553 16.6469 8.35292 -25.4436 17.344 8.65273 -26.1413 18.0164 
8.80564 -26.9344 18.627 8.79802 -27.8251 19.1327 8.65109 -28.7236 19.4812 
8.32905 -29.7044 19.6439 
LINES 1 65
64 0 1 2 3 4 5 6 7 8 9 10 11 12 13 14 15 16 17 18 19 20 21 22 23 24 25 26 27 28 29 30 31 32 33 34 35 36 37 38 39 40 41 42 43 44 45 46 47 48 49 50 51 52 53 54 55 56 57 58 59 60 61 62 63 

POINT_DATA 64
SCALARS MaximumInscribedSphereRadius float
LOOKUP_TABLE default
1.24 1.58512 1.75913 1.51511 1.35363 1.46955 1.50273 1.37519 1.10939 
1.06995 1.45724 1.14738 0.936973 1.07596 1.19249 1.28413 1.23855 1.17307 
1.38778 1.80538 1.81956 1.25659 0.831426 1.15664 1.52115 1.81036 1.6605 
1.81332 2.3556 2.06596 1.6229 1.55 1.59111 1.72735 1.89025 2.05411 
2.05327 1.74211 1.48667 1.32183 1.438 1.71518 1.61194 1.3257 1.68574 
2.00535 1.95541 1.87441 1.86 1.89232 2.05293 2.21652 2.38512 2.31502 
2.0061 1.97081 2.07117 2.13596 2.1008 1.94568 1.96909 2.18398 2.60772 
3.1 
TEXTURE_COORDINATES TCoords 2 float
0 0 0.015873 0 0.031746 0 0.047619 0 0.0634921 
0 0.0793651 0 0.0952381 0 0.111111 0 0.126984 0 
0.142857 0 0.15873 0 0.174603 0 0.190476 0 0.206349 
0 0.222222 0 0.238095 0 0.253968 0 0.269841 0 
0.285714 0 0.301587 0 0.31746 0 0.333333 0 0.349206 
0 0.365079 0 0.380952 0 0.396825 0 0.412698 0 
0.428571 0 0.444444 0 0.460317 0 0.47619 0 0.492063 
0 0.507937 0 0.52381 0 0.539683 0 0.555556 0 
0.571429 0 0.587302 0 0.603175 0 0.619048 0 0.634921 
0 0.650794 0 0.666667 0 0.68254 0 0.698413 0 
0.714286 0 0.730159 0 0.746032 0 0.761905 0 0.777778 
0 0.793651 0 0.809524 0 0.825397 0 0.84127 0 
0.857143 0 0.873016 0 0.888889 0 0.904762 0 0.920635 
0 0.936508 0 0.952381 0 0.968254 0 0.984127 0 
1 0 
FIELD FieldData 4
Curvature 1 64 float
0.133696 0.10958 0.0958149 0.0955422 0.105712 0.118987 0.135818 0.165287 0.204307 
0.23022 0.221007 0.194504 0.175739 0.158825 0.134735 0.103871 0.0816846 0.0898165 
0.148675 0.290091 0.565964 0.510693 0.219211 0.0673178 0.0540326 0.122938 0.180353 
0.196327 0.164028 0.115898 0.0725627 0.0361142 0.0139598 0.0230441 0.0395958 0.0504158 
0.0607221 0.0743765 0.0930719 0.115134 0.134492 0.145309 0.145064 0.135712 0.121074 
0.105031 0.0896319 0.0738433 0.0558797 0.0354108 0.0273941 0.052727 0.0946236 0.135607 
0.165623 0.175363 0.167089 0.154589 0.147984 0.152739 0.167878 0.187693 0.202064 
0.201933 
Torsion 1 64 float
0.146877 0.219426 0.281604 0.284561 0.248217 0.236804 0.244903 0.214393 0.124048 
-0.0297084 -0.151021 -0.259082 -0.227056 -0.147738 -0.106433 -0.123276 -0.185964 -0.179782 
-0.0909368 -0.0267003 0.0258655 0.0645715 0.0929646 0.459121 0.380561 0.133186 0.110026 
0.106186 0.0862374 0.0562839 -0.0018434 -0.225897 -1.24504 -0.453906 0.0027839 0.0890798 
0.111548 0.0986372 0.0602102 0.0203999 -0.0102046 -0.0298974 -0.042849 -0.0527492 -0.0608643 
-0.0643401 -0.0644152 -0.0718572 -0.114285 -0.360746 -0.757734 -0.283977 -0.0573285 0.00588642 
0.0290566 0.0348515 0.00673696 -0.0379631 -0.0752023 -0.0874573 -0.0779278 -0.0592708 -0.0418556 
-0.0281457 
Abscissas 1 64 double
0 1.0455595649 2.0193437377 3.0455130388 4.0577864522 5.0723680584 6.0867136419 7.100944461 8.1149712394 
9.1286203033 10.142145307 11.155941802 12.169956162 13.184093963 14.198366156 15.212753433 16.227229534 17.241667756 
18.256344113 19.270074574 20.282067892 21.284158785 22.302161666 23.315640241 24.330386022 25.344875906 26.359063054 
27.372749824 28.386675683 29.400970472 30.415430477 31.429988937 32.444590077 33.45919412 34.473780323 35.488347494 
36.50289522 37.517417456 38.531889465 39.546287612 40.56059222 41.574801856 42.588973278 43.603193272 44.617480976 
45.631839473 46.64626158 47.660740665 48.6752672 49.689833205 50.704429482 51.719027913 52.733556932 53.747914729 
54.76207881 55.776069752 56.790086111 57.804203257 58.818390651 59.832708707 60.845194302 61.869486364 62.844423013 
63.889462731 
ParallelTransportNormals 3 64 double
0.12542266075 0 0.99210339994 0.25432776752 -0.024708633507 0.96680239455 0.3273170926 -0.03422181275 0.94429465127 
0.38439500507 -0.036513455469 0.92244633863 0.40496385222 -0.034833897145 0.9136689105 0.39059202102 -0.038079445284 0.91977596673 
0.33210972208 -0.060349685331 0.94130815782 0.22049319035 -0.1196053931 0.96802753212 0.056089850443 -0.22913320927 0.97177770148 
-0.12321639507 -0.37291141619 0.91964927862 -0.25534766938 -0.50530847011 0.82429419371 -0.31766175721 -0.59406412704 0.73903912005 
-0.33352021868 -0.63506982165 0.6967428402 -0.33421964432 -0.6412255523 0.69074381679 -0.33553577639 -0.62625108689 0.70372247295 
-0.34159980549 -0.59905987503 0.72418011504 -0.3534372288 -0.56049214554 0.748953056 -0.37392923754 -0.50243550039 0.77957391777 
-0.41241868622 -0.39788955361 0.81950883484 -0.49740804941 -0.15600676457 0.85337396362 -0.6488755938 0.34966883233 0.67579003505 
-0.71389346114 0.64427094813 0.27435573903 -0.71891892553 0.68580968129 0.11322835147 -0.71924810632 0.68835558231 0.094067815211 
-0.71699210613 0.67994736408 0.1536030658 -0.70841188434 0.65098848336 0.27270239576 -0.69247860335 0.58414577616 0.42337583315 
-0.67690517928 0.48858089573 0.55053436458 -0.6690346486 0.40366110148 0.62405957578 -0.66701458168 0.34700569614 0.65930159613 
-0.6671664423 0.31290948168 0.67600043976 -0.66767985562 0.29321337084 0.68427299345 -0.66797822901 0.28282845388 0.6883408685 
-0.66803593889 0.27846803843 0.69006053062 -0.66798673537 0.27586249207 0.69115382284 -0.66754523132 0.26924954257 0.69418156701 
-0.66545131986 0.25342791082 0.70210315119 -0.65913283156 0.22486972039 0.71761934144 -0.64457171202 0.18244447445 0.74245627603 
-0.61703434275 0.12878136238 0.77632723807 -0.57400220896 0.071736049867 0.81570546354 -0.5184321476 0.021611096224 0.85484564037 
-0.45878408416 -0.014199863366 0.88843431271 -0.4044310659 -0.034580113533 0.91391450841 -0.3615767042 -0.043071822862 0.93134693056 
-0.33200481371 -0.044649230083 0.94222038289 -0.31433311708 -0.043426010097 0.94831897226 -0.30653266459 -0.042069808334 0.95092999572 
-0.30727668738 -0.042263010005 0.95068126908 -0.31657543379 -0.045247260545 0.94748756199 -0.33626678799 -0.052099676649 0.9403245562 
-0.3701622162 -0.06326886945 0.92681011208 -0.42320443197 -0.07690357512 0.90276455895 -0.4983217014 -0.086611913628 0.86265512132 
-0.59109978314 -0.081808583129 0.80243903326 -0.68612905506 -0.054458226448 0.72543864066 -0.76573894456 -0.0071686323965 0.6431115607 
-0.82264158468 0.051020164195 0.56626651499 -0.85851184742 0.11309595967 0.50016668397 -0.87729535096 0.17497172539 0.44692030889 
-0.88274196622 0.23766903098 0.40531475767 -0.87803607172 0.29097072501 0.37998512333 -0.86482691611 0.34451893549 0.36521378433 
-0.86482691611 0.34451893549 0.36521378433 
