# vtk DataFile Version 4.2
vtk output
ASCII
DATASET POLYDATA
POINTS 64 float
0 0 0 -0.96359 0.0079379 0.411225 -1.89415 0.0516038 0.690588 
-2.89241 0.0812727 0.919818 -3.89008 0.0480033 1.09364 -4.88169 -0.106071 1.24073 
-5.83014 -0.435968 1.38135 -6.68856 -0.9571 1.52104 -7.44004 -1.62835 1.63672 
-8.10925 -2.38958 1.67656 -8.73133 -3.18298 1.56723 -9.31692 -3.94327 1.24111 
-9.8395 -4.62802 0.706204 -10.271 -5.25115 0.0321979 -10.5963 -5.85074 -0.718545 
-10.8019 -6.45721 -1.50523 -10.8716 -7.08552 -2.29841 -10.7889 -7.73868 -3.06987 
-10.5383 -8.4125 -3.78501 -10.1055 -9.09814 -4.3938 -9.47492 -9.779 -4.80012 
-8.66899 -10.377 -4.7521 -8.01791 -10.652 -4.04165 -7.74829 -10.6156 -3.06343 
-7.70908 -10.4524 -2.0634 -7.79913 -10.2463 -1.07423 -7.96246 -10.0508 -0.0921542 
-8.15253 -9.92635 0.896482 -8.3084 -9.97047 1.89724 -8.34858 -10.3068 2.85072 
-8.25474 -10.9305 3.64388 -8.10345 -11.7108 4.27407 -7.95948 -12.5649 4.80219 
-7.8536 -13.4588 5.27031 -7.79549 -14.3764 5.69904 -7.77855 -15.3108 6.09409 
-7.78161 -16.2599 6.45246 -7.77281 -17.2237 6.76937 -7.71376 -18.1978 7.04666 
-7.56573 -19.17 7.29568 -7.29295 -20.1172 7.5348 -6.86591 -21.0023 7.78503 
-6.26979 -21.7729 8.06562 -5.51962 -22.3731 8.38904 -4.66544 -22.7749 8.75906 
-3.76707 -22.9939 9.17557 -2.86789 -23.0679 9.63913 -1.9916 -23.0314 10.1489 
-1.14648 -22.9051 10.6957 -0.327397 -22.6966 11.2568 0.480894 -22.415 11.8014 
1.29629 -22.0857 12.3075 2.13286 -21.7516 12.7742 2.99657 -21.4674 13.2242 
3.88087 -21.2984 13.6913 4.75604 -21.3204 14.2024 5.55279 -21.6076 14.7582 
6.17553 -22.1768 15.3185 6.57485 -22.9536 15.8326 6.77727 -23.8385 16.2847 
6.83725 -24.7647 16.6917 6.80498 -25.7007 17.1017 6.71965 -26.5849 17.5155 
6.71059 -27.3109 18.2641 
LINES 1 65
64 0 1 2 3 4 5 6 7 8 9 10 11 12 13 14 15 16 17 18 19 20 21 22 23 24 25 26 27 28 29 30 31 32 33 34 35 36 37 38 39 40 41 42 43 44 45 46 47 48 49 50 51 52 53 54 55 56 57 58 59 60 61 62 63 

POINT_DATA 64
SCALARS MaximumInscribedSphereRadius float
LOOKUP_TABLE default
0.93 0.93 0.981444 1.14768 1.22029 1.05509 0.9796 0.974246 0.947477 
0.93 0.947725 1.04042 1.2824 1.67064 1.83131 1.8562 1.86 1.79401 
1.48673 1.26362 1.26402 1.73973 1.78971 1.66404 1.82356 1.73376 1.62147 
1.74303 1.76971 1.5895 1.55 1.65791 1.8215 1.86 1.82389 1.6823 
1.66375 2.17549 2.3069 1.999 1.96401 2.09538 2.01648 1.90792 2.08827 
2.27621 2.44865 2.21847 1.91231 2.05978 2.24736 2.43101 2.48 2.4164 
2.13808 1.81982 1.65374 1.78325 2.12614 2.32829 2.4663 2.48 2.48 
2.48 
TEXTURE_COORDINATES TCoords 2 float
0 0 0.015873 0 0.031746 0 0.047619 0 0.0634921 
0 0.0793651 0 0.0952381 0 0.111111 0 0.126984 0 
0.142857 0 0.15873 0 0.174603 0 0.190476 0 0.206349 
0 0.222222 0 0.238095 0 0.253968 0 0.269841 0 
0.285714 0 0.301587 0 0.31746 0 0.333333 0 0.349206 
0 0.365079 0 0.380952 0 0.396825 0 0.412698 0 
0.428571 0 0.444444 0 0.460317 0 0.47619 0 0.492063 
0 0.507937 0 0.52381 0 0.539683 0 0.555556 0 
0.571429 0 0.587302 0 0.603175 0 0.619048 0 0.634921 
0 0.650794 0 0.666667 0 0.68254 0 0.698413 0 
0.714286 0 0.730159 0 0.746032 0 0.761905 0 0.777778 
0 0.793651 0 0.809524 0 0.825397 0 0.84127 0 
0.857143 0 0.873016 0 0.888889 0 0.904762 0 0.920635 
0 0.936508 0 0.952381 0 0.968254 0 0.984127 0 
1 0 
FIELD FieldData 4
Curvature 1 64 float
0.122159 0.0861866 0.0639225 0.069725 0.103179 0.145965 0.166354 0.145982 0.111789 
0.128614 0.175748 0.183727 0.146818 0.114501 0.104388 0.109435 0.121879 0.140773 
0.172297 0.240065 0.410017 0.625588 0.467299 0.235669 0.118199 0.0638846 0.0791649 
0.158256 0.262402 0.286392 0.199804 0.114678 0.071049 0.0536117 0.0437344 0.0351625 
0.0365049 0.0516166 0.073626 0.100375 0.131698 0.162956 0.183901 0.180879 0.152389 
0.119666 0.0957221 0.0812851 0.0699134 0.0607706 0.0535954 0.0452235 0.0510039 0.0937901 
0.156678 0.223699 0.262295 0.246123 0.189493 0.123733 0.07986 0.114053 0.327563 
1.14303 
Torsion 1 64 float
0.12131 0.260069 0.472982 0.434421 0.21994 0.101168 -0.0061432 -0.182892 -0.490423 
-0.411697 -0.130652 0.0756778 0.198904 0.271383 0.215369 0.118932 0.0710731 0.0624521 
0.0747719 0.0920283 0.096568 0.0821899 0.0579566 0.0610115 0.160202 0.526029 0.486643 
0.161233 0.0451788 -0.0429276 -0.13208 -0.219693 -0.25357 -0.127525 0.132432 0.473107 
0.584138 0.400738 0.258666 0.176386 0.120581 0.0891812 0.0779744 0.0864241 0.113729 
0.136031 0.0993095 -0.040082 -0.250219 -0.373129 -0.417017 -0.568901 -0.648117 -0.254916 
-0.0855001 -0.0296876 -0.0103644 -0.0109187 -0.033316 -0.0980014 -0.333037 -0.35275 -0.143938 
-0.08503 
Abscissas 1 64 double
0 1.0476993743 2.0202668466 3.044940465 4.0581893014 5.0724141591 6.0863984157 7.1002892789 8.1145286211 
9.1288795731 10.142983513 11.156551611 12.170505204 13.184777989 14.199157105 15.213511477 16.2277944 17.241998081 
18.256022819 19.269962035 20.283016926 21.287752251 22.28986049 23.305208654 24.319228056 25.333641332 26.348216529 
27.362622773 28.376403957 29.388253618 30.401650779 31.415989861 32.430466361 33.444991829 34.459540441 35.474109869 
36.488690829 37.503255653 38.517770451 39.532189692 40.546482963 41.560578541 42.57441851 43.588134603 44.602031858 
45.616189881 46.630532616 47.644964436 48.659436558 49.673940892 50.688466995 51.703029851 52.71761079 53.732134784 
54.746380366 55.760110576 56.773132541 57.785922296 58.79945704 59.813515216 60.826994239 61.849337958 62.829321299 
63.872159747 
ParallelTransportNormals 3 64 double
0.39251403136 0 0.91974601667 0.28765745058 0.0029321473554 0.95772887272 0.22395270603 0.0053685263396 0.97458522685 
0.17146711595 0.0052645680279 0.98517577745 0.14629293313 0.0028944900754 0.98923707959 0.14572413748 0.0027525903244 0.98932143361 
0.15609192689 0.007635846371 0.98771301713 0.14964335301 0.0028598500245 0.98873590415 0.105976103 -0.041169369781 0.99351605351 
0.016355796626 -0.14906762423 0.98869172714 -0.11370385599 -0.3163923678 0.94178941528 -0.23805464417 -0.47854408878 0.84517781649 
-0.316918462 -0.58665361874 0.745251783 -0.35556796028 -0.64909550561 0.67249271387 -0.37170099619 -0.68574780554 0.62577017877 
-0.37701909947 -0.70960465308 0.59524602894 -0.37684876644 -0.72645725735 0.57466934882 -0.37425265387 -0.73679412387 0.56308913157 
-0.37438159235 -0.73653764261 0.56333890717 -0.39366513785 -0.71175981991 0.58174368755 -0.49647795757 -0.62029661584 0.60724109382 
-0.73146918289 -0.47954684172 0.48475525895 -0.85821284341 -0.44651868688 0.25316353937 -0.88058752072 -0.46099472301 0.10977014034 
-0.87828338005 -0.47774004174 0.019564172233 -0.86974609747 -0.4912699531 -0.046856793687 -0.85979953387 -0.50027483649 -0.10232228265 
-0.85070078607 -0.50238668209 -0.15464732213 -0.84524295541 -0.49178265238 -0.20907933697 -0.84690141209 -0.46206126423 -0.26316798113 
-0.8549401466 -0.41601611219 -0.30985148076 -0.86482045507 -0.36132464343 -0.34861165004 -0.87311159354 -0.30331965883 -0.38167175662 
-0.87821374864 -0.24695734415 -0.40957622228 -0.88018607862 -0.19828453489 -0.43122582277 -0.88043135883 -0.16500194428 -0.44453906551 
-0.88046036384 -0.1553352436 -0.4479514592 -0.87963866949 -0.17880093753 -0.44075620911 -0.87297017292 -0.24147434257 -0.42380799788 
-0.85023271676 -0.34518335535 -0.39743273461 -0.7964492488 -0.48599807033 -0.35982561015 -0.69525058952 -0.64975262808 -0.30732416121 
-0.54193768707 -0.80585473026 -0.23854076601 -0.36219746765 -0.91811734235 -0.16085254151 -0.19768861565 -0.97639453932 -0.087022496075 
-0.069521375917 -0.99728512573 -0.024272542005 0.025404425339 -0.99929156925 0.027766432925 0.10052537736 -0.9921881846 0.073873234955 
0.1678158347 -0.97864973382 0.11866989561 0.2274145229 -0.96070226073 0.15916595428 0.26717532088 -0.94574381714 0.18489451118 
0.27214095818 -0.94374969248 0.18781857423 0.22969901429 -0.95918451198 0.164934638 0.12910678893 -0.9852670665 0.1121616901 
-0.03680317493 -0.99912391533 0.019923055398 -0.25987095692 -0.95785073092 -0.12242982896 -0.48362635142 -0.82285063427 -0.2983661943 
-0.63276640767 -0.62646391197 -0.45513694678 -0.69815912205 -0.445900835 -0.56013059696 -0.71654244794 -0.31899660462 -0.62032901476 
-0.71745407678 -0.25860615612 -0.64682494056 -0.71610612713 -0.23795145456 -0.65617918281 -0.73093381883 -0.4854573916 -0.47965286763 
-0.73093381883 -0.4854573916 -0.47965286763 
