# vtk DataFile Version 4.2
vtk output
ASCII
DATASET POLYDATA
POINTS 64 float
0 0 0 -0.908598 0.35039 0.374358 -1.8152 0.527896 0.688743 
-2.79224 0.535578 1.00203 -3.73091 0.318259 1.30993 -4.59515 -0.0990312 1.63874 
-5.36493 -0.657178 1.99213 -6.06445 -1.29273 2.36096 -6.73165 -1.96488 2.72494 
-7.40134 -2.65466 3.04911 -8.09681 -3.35759 3.27524 -8.81415 -4.07343 3.30707 
-9.48253 -4.77995 3.02423 -9.96585 -5.4207 2.40648 -10.1927 -5.96647 1.5829 
-10.1917 -6.44471 0.688584 -10.0116 -6.89857 -0.200479 -9.68914 -7.36718 -1.04035 
-9.251 -7.88639 -1.79354 -8.72051 -8.49262 -2.40974 -8.1323 -9.21688 -2.80334 
-7.57148 -10.0654 -2.75949 -7.35162 -10.6778 -2.00998 -7.52177 -10.7266 -1.01342 
-7.81752 -10.4502 -0.0840015 -8.11291 -10.0213 0.786805 -8.32661 -9.54114 1.65437 
-8.34832 -9.15298 2.59133 -8.09657 -9.09581 3.56842 -7.69422 -9.40436 4.44598 
-7.2806 -9.93017 5.20815 -6.90791 -10.5852 5.88721 -6.60011 -11.331 6.5021 
-6.37126 -12.145 7.06254 -6.22274 -13.0061 7.57799 -6.14035 -13.8927 8.06439 
-6.09688 -14.787 8.5415 -6.06272 -15.6789 9.02403 -6.01291 -16.5641 9.51729 
-5.92507 -17.4409 10.0202 -5.77536 -18.3061 10.5285 -5.53271 -19.15 11.0365 
-5.16272 -19.9507 11.5373 -4.64371 -20.6747 12.0221 -3.98533 -21.2915 12.4857 
-3.22306 -21.7892 12.9331 -2.39533 -22.171 13.3783 -1.53202 -22.4418 13.8371 
-0.655399 -22.6014 14.322 0.216196 -22.6466 14.8391 1.06831 -22.579 15.3854 
1.89575 -22.4139 15.9487 2.70671 -22.1822 16.5127 3.51741 -21.9211 17.064 
4.34164 -21.6663 17.598 5.18377 -21.4519 18.1216 6.03857 -21.3155 18.6507 
6.88864 -21.307 19.204 7.68921 -21.4944 19.7973 8.34181 -21.9427 20.4295 
8.7162 -22.6359 21.0628 8.74429 -23.4699 21.6567 8.51442 -24.2726 22.1627 
8.04448 -25.0725 22.6397 
LINES 1 65
64 0 1 2 3 4 5 6 7 8 9 10 11 12 13 14 15 16 17 18 19 20 21 22 23 24 25 26 27 28 29 30 31 32 33 34 35 36 37 38 39 40 41 42 43 44 45 46 47 48 49 50 51 52 53 54 55 56 57 58 59 60 61 62 63 

POINT_DATA 64
SCALARS MaximumInscribedSphereRadius float
LOOKUP_TABLE default
1.581 1.25057 1.0182 1.13571 1.15058 1.00426 1.12753 1.29499 1.46077 
1.42187 1.0627 1.14631 1.55535 1.3395 1.15125 1.03255 1.09553 1.23001 
1.55084 1.79269 1.66206 1.69724 1.84759 1.90444 2.06413 1.91961 1.67613 
1.7903 1.85861 1.70743 1.37273 1.30506 1.35585 1.30612 1.28581 1.47475 
1.65494 1.77632 1.60592 1.29948 1.41162 1.63376 1.98149 2.05517 1.85598 
1.78376 1.77138 2.00302 2.16313 2.17 2.17 2.17 2.17 2.17 
2.17 1.91909 1.39746 1.75022 2.35397 1.82543 1.55 1.55 1.55 
1.55 
TEXTURE_COORDINATES TCoords 2 float
0 0 0.015873 0 0.031746 0 0.047619 0 0.0634921 
0 0.0793651 0 0.0952381 0 0.111111 0 0.126984 0 
0.142857 0 0.15873 0 0.174603 0 0.190476 0 0.206349 
0 0.222222 0 0.238095 0 0.253968 0 0.269841 0 
0.285714 0 0.301587 0 0.31746 0 0.333333 0 0.349206 
0 0.365079 0 0.380952 0 0.396825 0 0.412698 0 
0.428571 0 0.444444 0 0.460317 0 0.47619 0 0.492063 
0 0.507937 0 0.52381 0 0.539683 0 0.555556 0 
0.571429 0 0.587302 0 0.603175 0 0.619048 0 0.634921 
0 0.650794 0 0.666667 0 0.68254 0 0.698413 0 
0.714286 0 0.730159 0 0.746032 0 0.761905 0 0.777778 
0 0.793651 0 0.809524 0 0.825397 0 0.84127 0 
0.857143 0 0.873016 0 0.888889 0 0.904762 0 0.920635 
0 0.936508 0 0.952381 0 0.968254 0 0.984127 0 
1 0 
FIELD FieldData 4
Curvature 1 64 float
0.137728 0.156374 0.175183 0.188232 0.182503 0.149318 0.09832 0.049783 0.0409144 
0.0950447 0.178817 0.279132 0.333228 0.297453 0.223139 0.162779 0.130101 0.127614 
0.162021 0.242004 0.420232 0.737958 0.642999 0.317378 0.147911 0.106995 0.221742 
0.381096 0.362132 0.228772 0.146027 0.110706 0.0987378 0.0872984 0.0653337 0.0346196 
0.0132666 0.017744 0.0335317 0.0527515 0.0798297 0.113246 0.140672 0.148401 0.134274 
0.112115 0.0975476 0.0965348 0.100777 0.100079 0.0858139 0.0576816 0.0299239 0.0263487 
0.0405961 0.0673133 0.112383 0.177672 0.257248 0.314941 0.314688 0.269505 0.21768 
0.175986 
Torsion 1 64 float
0.0712581 0.1004 0.13198 0.145689 0.124781 0.0777743 -0.012414 -0.465822 -0.845427 
-0.0561121 0.0706393 0.108957 0.133891 0.147249 0.179909 0.233072 0.284825 0.275367 
0.194916 0.109273 0.0417159 -0.0288074 -0.0798968 -0.127522 -0.433246 -0.796524 -0.386822 
-0.214477 -0.164477 -0.154741 -0.164929 -0.158372 -0.121958 -0.102079 -0.132181 -0.375274 
-1.08531 -0.735247 -0.205104 -0.0881169 -0.0143335 0.0195581 0.0424184 0.0711453 0.113834 
0.162611 0.179582 0.128424 0.0660946 0.00815935 -0.0637516 -0.205756 -0.64321 -0.743995 
-0.427433 -0.245136 -0.123907 -0.0822073 -0.0871592 -0.101561 -0.0993611 -0.0800264 -0.0555167 
-0.0368716 
Abscissas 1 64 double
0 1.0432965334 2.0191378137 3.045206064 4.0567111622 5.0711838359 6.0855622332 7.1001046253 8.1147067072 
9.129281346 10.143650524 11.157562461 12.170425852 13.1832247 14.196950187 15.211105726 16.225447562 17.239815111 
18.254132815 19.268351093 20.280998822 21.299087074 22.291619105 23.303782647 24.317516799 25.332181448 26.346505825 
27.360922726 28.371536416 29.385048421 30.399182833 31.413605039 32.428035821 33.442497824 34.457007864 35.471574353 
36.486174586 37.500778909 38.515375733 39.529950355 40.544489189 41.558959499 42.573296883 43.587499875 44.60175829 
45.616136873 46.630578633 47.6450386 48.659491596 49.67392837 50.688378816 51.70289981 52.717482179 53.732083017 
54.746678165 55.761248113 56.775736701 57.790039199 58.803965693 59.817189948 60.828018505 61.852197675 62.828562107 
63.871702203 
ParallelTransportNormals 3 64 double
0.38094904351 0 0.92459603409 0.3301516765 0.014611806382 0.94381479413 0.30541471369 0.017102092523 0.95206584388 
0.30799565823 0.01738673307 0.95122887678 0.34288975739 0.029662712551 0.93890720402 0.38390874177 0.054149513204 0.9217819201 
0.41040518077 0.075675873446 0.9087578059 0.41444225261 0.07953860775 0.90659319936 0.38941596155 0.054043703068 0.91947511497 
0.32232027163 -0.014405793548 0.94652105925 0.19002201795 -0.14726191326 0.97067273661 -0.015888024464 -0.35862046184 0.93334823888 
-0.21350827815 -0.5897991585 0.77881394941 -0.30999143831 -0.75096817746 0.58305411809 -0.32812671905 -0.8331648425 0.44516199463 
-0.32131514752 -0.86821151857 0.37810757066 -0.31780054653 -0.87466234921 0.36601719563 -0.33237619414 -0.8557316654 0.39654682246 
-0.37895461168 -0.80161317737 0.46239562732 -0.47629056198 -0.68584620253 0.5502383911 -0.67469246182 -0.41434399014 0.6108266037 
-0.93732852182 0.078873331399 0.33940276926 -0.95233986405 0.26583508135 -0.1496011125 -0.90177947346 0.24115468361 -0.35866167879 
-0.8851580162 0.22132533324 -0.40928032353 -0.89994676692 0.24773367359 -0.35878105257 -0.9254777856 0.34189915399 -0.1630823009 
-0.88148741245 0.42675320432 0.20214263356 -0.77884415499 0.38737679609 0.49329605724 -0.7184869736 0.32566433432 0.61458865115 
-0.69398266753 0.28886651571 0.65950298958 -0.68617390531 0.27279162953 0.67435161343 -0.68586789608 0.27190217309 0.67502180513 
-0.6880635922 0.28164876163 0.66876189198 -0.69018657468 0.29771675889 0.65955077409 -0.69131193523 0.31363958775 0.65093626201 
-0.69171794551 0.32298214142 0.64591703817 -0.69164577055 0.32145467232 0.64675576667 -0.69048576716 0.30660628563 0.65515035752 
-0.68636789436 0.27640926158 0.67267899752 -0.67528119274 0.22811753163 0.70139696499 -0.65099087603 0.16291213913 0.74139767618 
-0.60904198265 0.090965727564 0.78790424531 -0.55607014636 0.0306424695 0.8305703049 -0.50918538704 -0.0061377908125 0.8606349802 
-0.48124865627 -0.021591270638 0.8763181773 -0.47500645235 -0.024000376171 0.879654962 -0.48689477283 -0.021059498019 0.87320672108 
-0.51083345034 -0.018254991198 0.8594858587 -0.53857434014 -0.018616060579 0.84237231817 -0.55970878187 -0.021544153823 0.82840927622 
-0.56630229089 -0.02314085982 0.82387269401 -0.55770869818 -0.020528974759 0.82978284459 -0.54037828926 -0.015060152098 0.84128740411 
-0.52598378623 -0.011007369696 0.85042336189 -0.52499802096 -0.01080357996 0.85103487628 -0.54537799459 -0.012535045697 0.83809648349 
-0.59645947839 -0.0069963177662 0.8026126975 -0.68426566129 0.031420846827 0.72855558139 -0.77950628726 0.13734228839 0.61115222649 
-0.82504518557 0.30906554849 0.4730527756 -0.80541536917 0.46349736824 0.36942695183 -0.74410625275 0.60551685436 0.28223257023 
-0.74410625275 0.60551685436 0.28223257023 
