# vtk DataFile Version 4.2
vtk output
ASCII
DATASET POLYDATA
POINTS 64 float
0 0 0 -0.922027 0.367978 0.19671 -1.81499 0.260744 0.643617 
-2.58481 -0.13247 1.17134 -3.27265 -0.662479 1.69528 -3.93447 -1.27333 2.16105 
-4.62607 -1.97542 2.36196 -5.14008 -2.61687 1.79504 -5.44296 -3.14589 0.984156 
-5.6824 -3.71719 0.180912 -5.83825 -4.37178 -0.577485 -5.80963 -5.09984 -1.2808 
-5.5194 -5.83839 -1.9095 -5.01977 -6.53367 -2.45217 -4.41483 -7.21221 -2.90224 
-3.80905 -7.99073 -3.13072 -3.66729 -8.78701 -2.59668 -3.99854 -9.19527 -1.73231 
-4.48864 -9.37405 -0.863997 -5.08654 -9.30913 -0.0504694 -5.72947 -8.90609 0.615293 
-6.28512 -8.20241 1.08457 -6.70157 -7.366 1.47847 -6.98535 -6.50265 1.92771 
-7.10657 -5.69921 2.53078 -6.96854 -5.17242 3.37364 -6.56929 -5.20119 4.29601 
-6.07889 -5.58926 5.09269 -5.53976 -6.11876 5.76899 -4.91164 -6.74386 6.26185 
-4.33711 -7.49589 6.04279 -4.25885 -8.17552 5.29583 -4.37429 -8.90373 4.59994 
-4.54655 -9.73018 4.03914 -4.7235 -10.6704 3.71159 -4.85429 -11.6409 3.91176 
-4.86745 -12.3922 4.58944 -4.75264 -13.0316 5.36816 -4.4853 -13.6693 6.10916 
-4.02735 -14.3058 6.75054 -3.37398 -14.8596 7.29134 -2.57356 -15.2366 7.78458 
-1.70104 -15.3958 8.27443 -0.813698 -15.3633 8.76375 0.0705397 -15.2 9.23308 
0.958083 -14.968 9.66627 1.85585 -14.7111 10.063 2.76098 -14.4449 10.4361 
3.67023 -14.172 10.7942 4.58768 -13.91 11.1392 5.52378 -13.7135 11.4765 
6.47537 -13.6983 11.8223 7.34586 -14.0452 12.1932 7.91269 -14.7833 12.5802 
8.12353 -15.6881 12.9802 8.04317 -16.6086 13.3942 7.6894 -17.4759 13.7773 
7.0537 -18.2273 14.0038 6.21618 -18.7837 13.9155 5.35301 -19.1707 13.5526 
4.52972 -19.5238 13.0765 3.74762 -19.9808 12.6236 3.0446 -20.6427 12.3441 
2.48813 -21.4956 12.3509 
LINES 1 65
64 0 1 2 3 4 5 6 7 8 9 10 11 12 13 14 15 16 17 18 19 20 21 22 23 24 25 26 27 28 29 30 31 32 33 34 35 36 37 38 39 40 41 42 43 44 45 46 47 48 49 50 51 52 53 54 55 56 57 58 59 60 61 62 63 

POINT_DATA 64
SCALARS MaximumInscribedSphereRadius float
LOOKUP_TABLE default
1.116 1.2435 1.25464 1.54189 1.94406 1.3907 1.14485 1.73753 1.80572 
1.92198 1.85506 2.05998 2.04112 1.79767 1.63345 1.90368 2.08482 2.47075 
2.46652 2.26067 1.99697 1.98537 2.11648 1.88571 1.93326 2.1049 2.17 
2.4343 2.67707 2.25723 2.51212 2.73655 2.42584 2.3934 2.21271 1.97366 
2.1881 2.44673 2.69306 2.17303 1.55342 1.55 1.57293 1.77316 2.01732 
2.194 2.28784 2.41601 2.07301 2.16184 2.4944 2.45383 2.20328 2.18502 
1.97672 2.10306 2.28959 1.91733 2.222 2.20644 2.83549 2.94534 2.80527 
3.2364 
TEXTURE_COORDINATES TCoords 2 float
0 0 0.015873 0 0.031746 0 0.047619 0 0.0634921 
0 0.0793651 0 0.0952381 0 0.111111 0 0.126984 0 
0.142857 0 0.15873 0 0.174603 0 0.190476 0 0.206349 
0 0.222222 0 0.238095 0 0.253968 0 0.269841 0 
0.285714 0 0.301587 0 0.31746 0 0.333333 0 0.349206 
0 0.365079 0 0.380952 0 0.396825 0 0.412698 0 
0.428571 0 0.444444 0 0.460317 0 0.47619 0 0.492063 
0 0.507937 0 0.52381 0 0.539683 0 0.555556 0 
0.571429 0 0.587302 0 0.603175 0 0.619048 0 0.634921 
0 0.650794 0 0.666667 0 0.68254 0 0.698413 0 
0.714286 0 0.730159 0 0.746032 0 0.761905 0 0.777778 
0 0.793651 0 0.809524 0 0.825397 0 0.84127 0 
0.857143 0 0.873016 0 0.888889 0 0.904762 0 0.920635 
0 0.936508 0 0.952381 0 0.968254 0 0.984127 0 
1 0 
FIELD FieldData 4
Curvature 1 64 float
0.293884 0.304858 0.179293 0.0862544 0.0754883 0.214477 0.583549 0.238819 0.0811365 
0.0687157 0.113194 0.151152 0.130353 0.0734373 0.161112 0.606272 0.421022 0.158464 
0.143658 0.209051 0.210578 0.119721 0.0808688 0.130952 0.256094 0.371694 0.221384 
0.100376 0.146576 0.471292 0.494079 0.157279 0.0960316 0.151065 0.322964 0.320667 
0.130116 0.0874493 0.118096 0.12872 0.128341 0.124904 0.104141 0.0710709 0.0416959 
0.0251518 0.014259 0.0146392 0.0163147 0.0357863 0.101121 0.209229 0.281647 0.218395 
0.156497 0.150671 0.189534 0.241136 0.182017 0.0717544 0.0643451 0.15526 0.216553 
0.198023 
Torsion 1 64 float
0.00922031 0.0230415 0.04816 0.159617 0.248488 0.0538741 -0.0338003 -0.101244 -0.146287 
0.157387 0.185252 0.089183 -0.00909411 -0.357887 -0.192813 -0.0385541 -0.0147025 0.00427436 
0.0453114 0.068096 0.134435 0.348507 0.405117 0.144264 0.0649694 0.0325352 -0.0307971 
-0.192184 -0.0604085 0.12653 0.292489 0.269505 0.233326 0.0438074 0.00416731 0.0982429 
0.334194 0.246226 -0.0566651 -0.235572 -0.244918 -0.130675 -0.00577114 0.113366 0.269841 
0.239363 -0.0814391 0.0315487 0.278303 0.207224 0.0718705 0.0604956 0.0883653 0.108503 
0.0416199 -0.0884859 -0.164843 -0.139103 -0.123233 -0.56517 -0.679985 -0.101225 -0.0397764 
-0.016396 
Abscissas 1 64 double
0 1.0120453862 2.0163389861 3.0291240168 4.0432977462 5.0572421152 6.0630286019 7.061559894 8.0760195165 
9.0903724967 10.104247987 11.116943108 12.129344146 13.143013022 14.157375589 15.169935545 16.139131919 17.150828753 
18.163811626 19.1755064 20.184980633 21.196977353 22.210964145 23.224731569 24.236614047 25.240096733 26.245580585 
27.258388244 28.27249842 29.286495319 30.257902696 31.270804033 32.284646762 33.298149082 34.309387739 35.308900563 
36.320805079 37.334873925 38.348437489 39.361428742 40.374384457 41.387334867 42.40055232 43.414384754 44.428687038 
45.443193964 46.457764857 47.472358841 48.48695778 49.501532049 50.515780367 51.528349554 52.536175007 53.544008835 
54.555568992 55.568040683 56.580019195 57.589973611 58.599339109 59.612552403 60.62698043 61.639746219 62.644951413 
63.663397961 
ParallelTransportNormals 3 64 double
0.20864912926 0 0.97799056277 0.45060015278 -0.034517643858 0.89205831344 0.56543055159 -5.1069210066e-05 0.82479590731 
0.59629084032 0.019491849432 0.8025318072 0.57473986425 0.0012748048579 0.81833517785 0.41575194324 -0.15298831012 0.89651820877 
-0.02900600676 -0.64881157346 0.76039607686 -0.13820289795 -0.80507111193 0.57685393623 -0.13037258625 -0.78918383569 0.6001598639 
-0.11459768118 -0.74025869531 0.66248353601 -0.11023262964 -0.69277945155 0.71267481987 -0.11523836941 -0.66975711082 0.73358403112 
-0.11913420735 -0.66268366817 0.73936283148 -0.14331320351 -0.63260980982 0.76109536474 -0.28204978262 -0.46563533969 0.83882754518 
-0.65715134098 0.33564543972 0.67490314405 -0.58938146534 0.79396863145 0.14914188074 -0.476555192 0.87463818978 -0.088899864742 
-0.3308270856 0.88986761237 -0.31414816868 -0.10283063318 0.80381819478 -0.58591993533 0.10802147273 0.60920882982 -0.78561820441 
0.18219603004 0.49172191659 -0.85147763528 0.17887629561 0.49978046698 -0.84748023912 0.15261390519 0.60790177316 -0.7792075655 
0.155550894 0.82602622741 -0.5417421813 0.29107026644 0.95184229946 -0.096303359028 0.42820903379 0.88776402895 0.16885512218 
0.49139242585 0.83145464282 0.25926176104 0.53926570411 0.78409986106 0.30721313165 0.78881536862 0.49750932677 0.36090827645 
0.99699388597 0.047612283566 0.06112496859 0.9934868116 -0.085509954348 -0.075312700691 0.9852696254 -0.12991285114 -0.1112043901 
0.98253455803 -0.14375014286 -0.11815980157 0.98045532385 -0.15667247206 -0.11900039677 0.98230581794 -0.13463082757 -0.13019147555 
0.97744367398 -0.068013309574 -0.19994512726 0.94815931566 0.029842878024 -0.31639107881 0.87229674737 0.16311118389 -0.46096976713 
0.74587961395 0.29850910934 -0.59544597836 0.60888562213 0.38622248851 -0.69288562443 0.50127205895 0.42071591812 -0.7561246188 
0.42480425138 0.42622362539 -0.79867062621 0.36393200773 0.41949722221 -0.8316102298 0.31212499372 0.40793852195 -0.85800008776 
0.27342842809 0.39734208894 -0.8759886752 0.25027338384 0.39062337877 -0.8858761817 0.23537694362 0.38619693266 -0.89187982577 
0.22692525312 0.38372209526 -0.89513255058 0.23972332404 0.38688787301 -0.8904215303 0.30819350242 0.39456004616 -0.86564376914 
0.48390742555 0.36248321031 -0.79651712207 0.71090591375 0.19113293978 -0.67681680027 0.82726425044 -0.054430086371 -0.55917012227 
0.84339735054 -0.27990067313 -0.45862459843 0.79341820203 -0.48568467408 -0.36687593822 0.68236841293 -0.66728672083 -0.2984992148 
0.55096355035 -0.78392730882 -0.28617676473 0.49279543474 -0.8162080216 -0.30159098954 0.51422722901 -0.80680232727 -0.29093016628 
0.59132501931 -0.76789557362 -0.24631506157 0.71178275897 -0.67706304833 -0.18695168524 0.82585325733 -0.54008043232 -0.16210960486 
0.82585325733 -0.54008043232 -0.16210960486 
