# vtk DataFile Version 4.2
vtk output
ASCII
DATASET POLYDATA
POINTS 64 float
0 0 0 -1.01696 0.115449 0.129632 -1.99161 -0.00575101 0.256125 
-2.96362 -0.305817 0.371247 -3.87492 -0.737155 0.455639 -4.75384 -1.24339 0.501786 
-5.61115 -1.78563 0.499042 -6.46282 -2.33302 0.431959 -7.31322 -2.86311 0.273502 
-8.14734 -3.36163 -0.0178818 -8.91848 -3.82386 -0.487479 -9.55002 -4.26423 -1.14764 
-9.97843 -4.70871 -1.95234 -10.1922 -5.17805 -2.82581 -10.2163 -5.68153 -3.70614 
-10.0834 -6.22091 -4.55499 -9.81912 -6.79599 -5.34786 -9.43919 -7.40804 -6.06218 
-8.94969 -8.06056 -6.66531 -8.35124 -8.7578 -7.09476 -7.65597 -9.48971 -7.20695 
-6.99949 -10.1448 -6.81161 -6.56691 -10.5958 -6.01304 -6.35733 -10.8814 -5.06213 
-6.29913 -11.0846 -4.06991 -6.34793 -11.2584 -3.07153 -6.47691 -11.4405 -2.08181 
-6.66694 -11.6644 -1.11067 -6.89885 -11.9648 -0.169763 -7.14772 -12.3773 0.72303 
-7.37917 -12.9295 1.54189 -7.55313 -13.623 2.26143 -7.63747 -14.4287 2.87198 
-7.61773 -15.302 3.38788 -7.49358 -16.202 3.8393 -7.26711 -17.0986 4.2566 
-6.93709 -17.9677 4.66285 -6.49967 -18.7853 5.07453 -5.95181 -19.5244 5.50195 
-5.29743 -20.1578 5.94895 -4.55125 -20.6646 6.41311 -3.73684 -21.0378 6.88916 
-2.87937 -21.2841 7.37224 -1.99975 -21.4183 7.85962 -1.11268 -21.4579 8.35042 
-0.227282 -21.4191 8.84432 0.651653 -21.317 9.34073 1.52265 -21.1662 9.83877 
2.38707 -20.9832 10.3375 3.24813 -20.7867 10.8369 4.1098 -20.5983 11.3383 
4.97498 -20.4438 11.8453 5.84293 -20.3526 12.3627 6.70621 -20.357 12.8956 
7.54743 -20.4895 13.4469 8.33743 -20.7767 14.0148 9.03878 -21.2291 14.5912 
9.61772 -21.8325 15.1655 10.0579 -22.5506 15.7306 10.3603 -23.342 16.2901 
10.5359 -24.1654 16.8508 10.5867 -24.9969 17.4465 10.5254 -25.7669 18.0661 
10.3145 -26.4455 18.8142 
LINES 1 65
64 0 1 2 3 4 5 6 7 8 9 10 11 12 13 14 15 16 17 18 19 20 21 22 23 24 25 26 27 28 29 30 31 32 33 34 35 36 37 38 39 40 41 42 43 44 45 46 47 48 49 50 51 52 53 54 55 56 57 58 59 60 61 62 63 

POINT_DATA 64
SCALARS MaximumInscribedSphereRadius float
LOOKUP_TABLE default
0.62 0.959827 1.20597 1.07057 1.06547 1.25412 1.51527 1.65796 1.44835 
1.39501 1.49031 1.37683 1.41186 1.54644 1.55 1.52257 1.36635 1.34314 
1.63609 1.78971 1.69584 1.60988 1.5708 1.57362 1.72254 1.86 1.86 
1.86 1.85549 1.79301 1.68494 1.83273 2.05196 1.98857 1.94144 2.06754 
2.0898 1.94263 1.94463 2.08632 1.94303 1.69743 1.82831 2.0197 1.85505 
1.61491 1.55 1.64622 1.9348 2.18273 2.23466 2.2419 2.19745 2.17637 
2.18752 2.18514 2.17374 2.17 2.22676 2.37178 2.38993 2.24363 2.18293 
2.1948 
TEXTURE_COORDINATES TCoords 2 float
0 0 0.015873 0 0.031746 0 0.047619 0 0.0634921 
0 0.0793651 0 0.0952381 0 0.111111 0 0.126984 0 
0.142857 0 0.15873 0 0.174603 0 0.190476 0 0.206349 
0 0.222222 0 0.238095 0 0.253968 0 0.269841 0 
0.285714 0 0.301587 0 0.31746 0 0.333333 0 0.349206 
0 0.365079 0 0.380952 0 0.396825 0 0.412698 0 
0.428571 0 0.444444 0 0.460317 0 0.47619 0 0.492063 
0 0.507937 0 0.52381 0 0.539683 0 0.555556 0 
0.571429 0 0.587302 0 0.603175 0 0.619048 0 0.634921 
0 0.650794 0 0.666667 0 0.68254 0 0.698413 0 
0.714286 0 0.730159 0 0.746032 0 0.761905 0 0.777778 
0 0.793651 0 0.809524 0 0.825397 0 0.84127 0 
0.857143 0 0.873016 0 0.888889 0 0.904762 0 0.920635 
0 0.936508 0 0.952381 0 0.968254 0 0.984127 0 
1 0 
FIELD FieldData 4
Curvature 1 64 float
0.225965 0.214129 0.175722 0.127964 0.0859548 0.0622085 0.0677248 0.096604 0.136488 
0.181372 0.219251 0.236275 0.223404 0.192951 0.160751 0.137891 0.133231 0.154196 
0.214049 0.334631 0.486863 0.471057 0.313115 0.185853 0.112566 0.0753887 0.0710278 
0.0903744 0.120571 0.150137 0.167373 0.16578 0.147007 0.120545 0.10217 0.0992155 
0.109193 0.125328 0.139415 0.144207 0.137844 0.123161 0.104956 0.08732 0.0719205 
0.058326 0.0449544 0.0300815 0.0129157 0.0102713 0.0321848 0.0600102 0.0904904 0.121902 
0.15068 0.171442 0.177445 0.165706 0.143176 0.122037 0.11515 0.136468 0.200383 
0.324792 
Torsion 1 64 float
-0.027246 -0.0464381 -0.0789531 -0.143072 -0.290129 -0.458976 -0.3495 -0.0792858 0.0658563 
0.166333 0.224601 0.208571 0.166083 0.127886 0.109242 0.106347 0.105097 0.0952859 
0.0809999 0.0730071 0.0754418 0.0846782 0.099659 0.139857 0.236721 0.407794 0.446261 
0.312467 0.214763 0.170437 0.157346 0.16362 0.195721 0.250247 0.272437 0.228903 
0.155038 0.0945514 0.0582785 0.0429029 0.0399401 0.0434072 0.0484661 0.0498796 0.0428247 
0.0280372 0.0126956 0.0106535 0.173516 0.215962 -0.0129916 -0.0390662 -0.0413645 -0.0427894 
-0.0456881 -0.050675 -0.0638979 -0.0910325 -0.138411 -0.211462 -0.279973 -0.268678 -0.197674 
-0.136892 
Abscissas 1 64 double
0 1.0316694535 2.0219426238 3.0457008043 4.0574588257 5.0727933042 6.0871957769 7.1018267671 8.1163625517 
9.1308478729 10.145167326 11.159348401 12.173571751 13.187919828 14.202342884 15.216814335 16.231307644 17.245806797 
18.260278119 19.274540604 20.290254264 21.298443053 22.312435049 23.327185618 24.34167452 25.356242954 26.370817653 
27.385388697 28.399942489 29.414439665 30.428824299 31.443188763 32.457589009 33.472098006 34.486645848 35.501193431 
36.515727008 37.530238892 38.544721322 39.559179221 40.57363705 41.588119701 42.602635539 43.617181303 44.63174597 
45.646323976 46.660912155 47.675508346 48.690111833 49.704717756 50.719321333 51.733914119 52.74848786 53.76302552 
54.777507702 55.791919745 56.806251565 57.820654153 58.834899019 59.850206678 60.861758944 61.885896539 62.876126823 
63.907863928 
ParallelTransportNormals 3 64 double
0.12644701508 0 0.99197336274 0.12870158629 1.2000276088e-05 0.99168336758 0.11829283194 -0.0022245531763 0.99297626219 
0.09711358377 -0.010460018782 0.99521833778 0.067364067601 -0.026037635302 0.9973886524 0.028223283555 -0.049674548819 0.99836660875 
-0.024807617152 -0.083486749615 0.99620005258 -0.10144857814 -0.13200376424 0.98604421413 -0.21399224791 -0.20072547492 0.95598985431 
-0.36443946607 -0.29076788781 0.88466824911 -0.52054093913 -0.39121759203 0.75893736657 -0.63239862421 -0.484597237 0.60434882145 
-0.68463174977 -0.55892688095 0.467846245 -0.69791883965 -0.61326085589 0.36989243829 -0.69387684729 -0.6520124183 0.30563822923 
-0.68403477862 -0.67962770171 0.2649577489 -0.6735979833 -0.6988609959 0.24053911387 -0.66561249116 -0.71047575289 0.22843864858 
-0.66504231958 -0.71118312675 0.22789750635 -0.68604150013 -0.68798499839 0.23669326583 -0.75256147529 -0.61973504303 0.22266500028 
-0.82721134084 -0.54392372655 0.1409552315 -0.86430627426 -0.50137980047 0.039911902575 -0.87625708706 -0.47956420644 -0.046815481107 
-0.87662088387 -0.46498362845 -0.12379842983 -0.87011462401 -0.4519571655 -0.19655854508 -0.85837586043 -0.43701685314 -0.26871388557 
-0.84245558378 -0.41723458772 -0.34085757754 -0.82429477565 -0.39030407952 -0.41012296735 -0.80774905228 -0.35707291088 -0.46908464572 
-0.79769488518 -0.32618118972 -0.50723633706 -0.79511703347 -0.31121894871 -0.52051096919 -0.79550942704 -0.32141618369 -0.51366953224 
-0.79260757183 -0.35718098732 -0.49416088411 -0.78142614857 -0.41447672391 -0.46645709306 -0.7577951646 -0.48945541097 -0.43148567669 
-0.71704097658 -0.5790242339 -0.38805047927 -0.65418345693 -0.678337008 -0.33451892064 -0.56724816837 -0.77758094914 -0.27128837613 
-0.46108689945 -0.8640049579 -0.20222340094 -0.34724327711 -0.92820443522 -0.1336361962 -0.23813252987 -0.96863102947 -0.071041023084 
-0.14160073103 -0.98977594585 -0.017111691579 -0.060058479603 -0.99780103894 0.028036863614 0.0072281994093 -0.99783175914 0.065418144164 
0.061384638411 -0.99350455624 0.095815567087 0.1026881068 -0.98753514944 0.11928738967 0.13005280467 -0.98227287721 0.13500467654 
0.14149458876 -0.97975617665 0.14162314663 0.13447144161 -0.98132530818 0.13754297843 0.10556724017 -0.98706416839 0.1206643497 
0.051616984407 -0.9947131093 0.088777908946 -0.029477391197 -0.99878158697 0.039578086706 -0.13708491263 -0.99013842857 -0.028872460976 
-0.2644804889 -0.95735549514 -0.11627780067 -0.39646983409 -0.89189797182 -0.21755385199 -0.51178937588 -0.79680554803 -0.32120484642 
-0.59437446867 -0.68971588112 -0.41353475588 -0.64320255808 -0.59047229436 -0.48747609057 -0.66659096837 -0.51142269598 -0.54231292343 
-0.67407384417 -0.45689883799 -0.58040322574 -0.67386466431 -0.42996097553 -0.60086601977 -0.67589888996 -0.44092456261 -0.59054739068 
-0.67589888996 -0.44092456261 -0.59054739068 
