# vtk DataFile Version 4.2
vtk output
ASCII
DATASET POLYDATA
POINTS 64 float
0 0 0 -1.02213 -0.108518 -0.147252 -1.95934 -0.39342 -0.208741 
-2.87273 -0.859603 -0.193537 -3.66831 -1.47696 -0.0987882 -4.362 -2.20409 0.0440132 
-4.96364 -3.00787 0.188999 -5.49292 -3.87021 0.261526 -5.94843 -4.76897 0.147579 
-6.2931 -5.63535 -0.24979 -6.50235 -6.40127 -0.880928 -6.59513 -7.07936 -1.62964 
-6.59105 -7.70888 -2.42524 -6.49611 -8.31847 -3.23065 -6.30693 -8.92584 -4.02089 
-6.01548 -9.5423 -4.77216 -5.61146 -10.1749 -5.45446 -5.0852 -10.8283 -6.02191 
-4.41948 -11.5108 -6.39895 -3.6899 -12.1341 -6.18939 -3.50064 -12.2473 -5.23508 
-3.82184 -11.9926 -4.28952 -4.25472 -11.7073 -3.42115 -4.74278 -11.4469 -2.57016 
-5.24577 -11.2654 -1.70801 -5.73163 -11.2208 -0.818679 -6.1583 -11.3807 0.0871671 
-6.47962 -11.7859 0.959034 -6.6766 -12.4049 1.73787 -6.7649 -13.1644 2.40445 
-6.7676 -14.0023 2.97641 -6.69707 -14.8782 3.48337 -6.55361 -15.7653 3.95435 
-6.32969 -16.6405 4.41613 -6.01532 -17.478 4.89458 -5.60654 -18.2471 5.41465 
-5.11532 -18.918 5.99568 -4.56987 -19.4758 6.6441 -3.99997 -19.9263 7.35226 
-3.42452 -20.2868 8.10604 -2.8486 -20.5736 8.8905 -2.26546 -20.7962 9.69036 
-1.66144 -20.9563 10.4896 -1.02101 -21.0506 11.2708 -0.332104 -21.0739 12.0152 
0.409812 -21.0228 12.7052 1.19928 -20.8969 13.3298 2.0229 -20.7 13.8885 
2.86518 -20.441 14.3913 3.71489 -20.1352 14.8537 4.56786 -19.8039 15.2921 
5.42582 -19.4734 15.7211 6.2936 -19.1745 16.1536 7.17481 -18.9427 16.5997 
8.06638 -18.8187 17.0675 8.9517 -18.8464 17.5618 9.79447 -19.0636 18.0825 
10.5432 -19.4806 18.6248 11.1537 -20.0649 19.1854 11.6074 -20.7546 19.7756 
11.9027 -21.4809 20.4159 12.0232 -22.1711 21.1619 11.9684 -22.7129 21.9814 
11.6998 -22.9862 22.9456 
LINES 1 65
64 0 1 2 3 4 5 6 7 8 9 10 11 12 13 14 15 16 17 18 19 20 21 22 23 24 25 26 27 28 29 30 31 32 33 34 35 36 37 38 39 40 41 42 43 44 45 46 47 48 49 50 51 52 53 54 55 56 57 58 59 60 61 62 63 

POINT_DATA 64
SCALARS MaximumInscribedSphereRadius float
LOOKUP_TABLE default
1.24 1.07815 0.938632 0.938696 1.04465 1.20102 1.24 1.24 1.15469 
0.961605 1.15726 1.24 1.15914 0.893452 0.707257 0.812969 0.876436 0.729106 
0.961565 1.6656 1.77285 1.81318 2.07768 1.7999 1.60321 1.77644 1.87011 
1.94589 2.14321 2.22788 2.20195 2.18359 2.15447 1.98572 1.92375 2.08283 
2.03595 1.84168 1.64927 1.64258 1.83217 2.05982 2.22507 2.21198 2.18631 
2.19702 2.34841 2.53654 2.69619 2.56463 2.29626 2.33035 2.3411 2.05603 
1.99946 2.22207 1.70504 1.38554 1.83016 2.20217 2.26122 1.82757 1.8253 
2.17 
TEXTURE_COORDINATES TCoords 2 float
0 0 0.015873 0 0.031746 0 0.047619 0 0.0634921 
0 0.0793651 0 0.0952381 0 0.111111 0 0.126984 0 
0.142857 0 0.15873 0 0.174603 0 0.190476 0 0.206349 
0 0.222222 0 0.238095 0 0.253968 0 0.269841 0 
0.285714 0 0.301587 0 0.31746 0 0.333333 0 0.349206 
0 0.365079 0 0.380952 0 0.396825 0 0.412698 0 
0.428571 0 0.444444 0 0.460317 0 0.47619 0 0.492063 
0 0.507937 0 0.52381 0 0.539683 0 0.555556 0 
0.571429 0 0.587302 0 0.603175 0 0.619048 0 0.634921 
0 0.650794 0 0.666667 0 0.68254 0 0.698413 0 
0.714286 0 0.730159 0 0.746032 0 0.761905 0 0.777778 
0 0.793651 0 0.809524 0 0.825397 0 0.84127 0 
0.857143 0 0.873016 0 0.888889 0 0.904762 0 0.920635 
0 0.936508 0 0.952381 0 0.968254 0 0.984127 0 
1 0 
FIELD FieldData 4
Curvature 1 64 float
0.176814 0.193962 0.195912 0.176905 0.142485 0.111458 0.119725 0.189807 0.278521 
0.272284 0.197995 0.134308 0.0986746 0.0879667 0.0963217 0.119552 0.161133 0.258162 
0.571372 1.00573 0.618017 0.211507 0.0808077 0.0707612 0.128267 0.192397 0.236063 
0.231041 0.187893 0.135839 0.0934819 0.0708974 0.0734512 0.0909328 0.111461 0.125098 
0.124277 0.109352 0.0886796 0.069448 0.0578186 0.0577035 0.0680036 0.0817417 0.0925009 
0.0961399 0.0905987 0.0765843 0.0564453 0.0329356 0.0162726 0.0297399 0.0626202 0.099093 
0.137619 0.173553 0.194733 0.191217 0.168436 0.15335 0.173387 0.234704 0.310182 
0.33337 
Torsion 1 64 float
0.00114843 0.00167773 -0.00181322 -0.0277542 -0.127337 -0.369296 -0.449809 -0.208426 -0.0458976 
0.0555706 0.118843 0.1778 0.215411 0.198118 0.14558 0.10504 0.087514 0.0811261 
0.0821029 0.0820922 0.0758173 0.149251 0.543359 0.451708 0.120146 0.0357878 0.00321353 
-0.00645979 0.0123763 0.0790976 0.211553 0.366191 0.348736 0.248008 0.192454 0.172273 
0.149354 0.106872 0.0533129 -0.0710799 -0.233945 -0.280376 -0.200132 -0.113013 -0.0494517 
0.00609012 0.0574954 0.0758345 0.0366843 -0.211792 -0.751651 -0.449531 -0.0604908 -0.0328526 
-0.0388032 -0.0569026 -0.0857539 -0.141628 -0.244212 -0.33598 -0.310516 -0.209671 -0.122577 
-0.0635213 
Abscissas 1 64 double
0 1.0383707616 2.0198548348 3.0454459868 4.0569036832 5.0719521832 6.0863750651 7.1007880664 8.1148100832 
9.128376011 10.142645574 11.157038 12.171576816 13.186123311 14.200603203 15.215174802 16.229562238 17.242387758 
18.267633749 19.249826789 20.229295015 21.259900158 22.271246921 23.286234561 24.300756073 25.315127276 26.32912462 
27.342828307 28.35695509 29.371324475 30.385826862 31.400369965 32.414924534 33.429468195 34.443971375 35.458406996 
36.47280154 37.487233707 38.501735595 39.516276233 40.530838471 41.545410772 42.559978015 43.574522134 44.589035204 
45.603529027 46.618029499 47.632555524 48.647111471 49.661695291 50.67629936 51.690907517 52.705496191 53.720033033 
54.734485099 55.748815947 56.763011338 57.777142391 58.79130887 59.80607873 60.818339029 61.841796828 62.825730263 
63.86325426 
ParallelTransportNormals 3 64 double
-0.14259131561 0 0.98978165103 -0.069937297758 0.014790585711 0.99744173412 -0.0044139669135 0.041235394468 0.99913970952 
0.056507465028 0.079917382678 0.99519853212 0.089147816402 0.10937676371 0.9899946416 0.090401163193 0.11085810515 0.9897161766 
0.050888026992 0.052645832113 0.9973158101 -0.038171231321 -0.10662160651 0.9935667014 -0.15342938607 -0.36087954878 0.91990509008 
-0.2282207642 -0.58126516925 0.78105447045 -0.25330660922 -0.70120036792 0.666448652 -0.2571917438 -0.75846529213 0.59881784171 
-0.25505379685 -0.78521969407 0.56424958375 -0.25267094746 -0.79542599987 0.55086738063 -0.25333946184 -0.79372373854 0.55301152244 
-0.26095664638 -0.78004349415 0.5687123842 -0.28358959027 -0.74875978003 0.59911245697 -0.33926511211 -0.68632839879 0.64331369697 
-0.58379204164 -0.45793580895 0.67043392441 -0.9736120175 -0.14549165941 0.17581756575 -0.94547944603 -0.17673119524 -0.27355932039 
-0.90091253465 -0.20861747543 -0.38057240291 -0.87334685542 -0.2249542821 -0.43204263806 -0.86082354848 -0.23053798945 -0.45369048238 
-0.85866903383 -0.23103063687 -0.45750665041 -0.86365213845 -0.23166049488 -0.44770347203 -0.87067364065 -0.23696614752 -0.43101561039 
-0.87516718911 -0.24584434843 -0.41670486853 -0.87709734809 -0.2551699252 -0.40692573185 -0.87783388378 -0.26809745691 -0.39690228782 
-0.87689945213 -0.2917093863 -0.38203793633 -0.87200985109 -0.33199453907 -0.35969215397 -0.85935302811 -0.39270676394 -0.32755727839 
-0.83367142046 -0.47441846603 -0.28269963175 -0.79031760437 -0.57073774407 -0.22283741095 -0.73108013186 -0.66551666527 -0.15036425452 
-0.66777183303 -0.74054929506 -0.075282936976 -0.61323686801 -0.78984833621 -0.0089526252115 -0.57146424253 -0.81942677495 0.044366428906 
-0.5382640561 -0.83809317784 0.088722213543 -0.50647476967 -0.8520640077 0.13217501453 -0.46963717818 -0.86393919112 0.18179657565 
-0.42286211306 -0.87350397666 0.24120206487 -0.36370608151 -0.8787383383 0.30909030892 -0.29296304862 -0.87736241943 0.38001031186 
-0.21510107232 -0.86836379377 0.44685103821 -0.13771820776 -0.85288032888 0.50361576609 -0.069846866507 -0.83430417437 0.5468619203 
-0.019165945157 -0.81738481679 0.57577315657 0.0095864867995 -0.80662647815 0.59098377645 0.013593222705 -0.80507664205 0.59301502908 
-0.0095539136848 -0.81351908669 0.58145973061 -0.062695867222 -0.82964214015 0.55476404671 -0.14969550457 -0.84710161313 0.50991186782 
-0.27389438653 -0.85383165332 0.44266620925 -0.43085786463 -0.83158220221 0.35047473725 -0.59858481701 -0.76474853283 0.23844474911 
-0.74235656943 -0.65884302834 0.1217891121 -0.84119762325 -0.54052229714 0.014906539833 -0.89766782913 -0.43373362798 -0.077894855468 
-0.92457711435 -0.34227365572 -0.16734964663 -0.92774070943 -0.27977707181 -0.24702624587 -0.9140295282 -0.24429491544 -0.32383640294 
-0.9140295282 -0.24429491544 -0.32383640294 
