# vtk DataFile Version 4.2
vtk output
ASCII
DATASET POLYDATA
POINTS 64 float
0 0 0 -0.922912 0.29402 0.388226 -1.77788 0.511702 0.826924 
-2.65863 0.651859 1.30956 -3.54979 0.664671 1.7944 -4.44485 0.49053 2.23669 
-5.30523 0.0784912 2.57653 -6.07568 -0.549507 2.77262 -6.75017 -1.30387 2.83861 
-7.37733 -2.10075 2.81029 -8.02089 -2.87771 2.70503 -8.72962 -3.57644 2.51109 
-9.5091 -4.14247 2.19589 -10.3091 -4.55819 1.7327 -11.0567 -4.86106 1.11858 
-11.6874 -5.11836 0.367711 -12.1431 -5.39623 -0.493737 -12.3718 -5.74108 -1.41843 
-12.3503 -6.16617 -2.33772 -12.102 -6.65553 -3.18971 -11.6726 -7.18646 -3.93897 
-11.1006 -7.74368 -4.56352 -10.4105 -8.31831 -5.03371 -9.6199 -8.90039 -5.28224 
-8.78323 -9.44559 -5.1391 -8.16155 -9.79519 -4.43453 -7.9426 -9.90942 -3.45358 
-8.00414 -9.9303 -2.44219 -8.25724 -9.9572 -1.46077 -8.65951 -10.063 -0.536212 
-9.17152 -10.3076 0.30371 -9.73276 -10.7189 1.04092 -10.2736 -11.2807 1.68914 
-10.7414 -11.9546 2.28547 -11.1018 -12.7062 2.86319 -11.325 -13.5095 3.4404 
-11.3774 -14.3397 4.01987 -11.2216 -15.1638 4.58881 -10.8316 -15.9331 5.12021 
-10.2171 -16.5924 5.58291 -9.42743 -17.1037 5.95971 -8.52492 -17.4586 6.25512 
-7.56031 -17.6678 6.48774 -6.56761 -17.7453 6.68065 -5.56961 -17.7034 6.85693 
-4.58303 -17.555 7.04009 -3.62054 -17.318 7.25573 -2.69093 -17.0198 7.5313 
-1.79853 -16.6968 7.8894 -0.940335 -16.3885 8.3338 -0.102485 -16.1307 8.84434 
0.734387 -15.9566 9.39051 1.58407 -15.9049 9.94173 2.44152 -16.0234 10.4692 
3.26883 -16.3618 10.9462 3.99043 -16.9443 11.353 4.51541 -17.7435 11.6856 
4.78055 -18.6827 11.9559 4.78434 -19.6693 12.1865 4.5809 -20.6385 12.4041 
4.24757 -21.5679 12.6385 3.87049 -22.4641 12.9268 3.56507 -23.324 13.3127 
3.59509 -24.1565 13.9283 
LINES 1 65
64 0 1 2 3 4 5 6 7 8 9 10 11 12 13 14 15 16 17 18 19 20 21 22 23 24 25 26 27 28 29 30 31 32 33 34 35 36 37 38 39 40 41 42 43 44 45 46 47 48 49 50 51 52 53 54 55 56 57 58 59 60 61 62 63 

POINT_DATA 64
SCALARS MaximumInscribedSphereRadius float
LOOKUP_TABLE default
0.93 1.13591 1.14173 0.969555 0.93 0.93 0.984406 1.21718 1.44685 
1.55 1.52863 1.43947 1.5556 1.62608 1.57139 1.62664 1.50597 1.43979 
1.54101 1.5502 1.56195 1.54116 1.33637 1.48161 1.73995 1.83075 1.94148 
1.84269 1.63338 1.69732 1.84855 1.86 1.86 1.86 1.89823 2.04089 
2.2548 2.2949 1.92444 1.86 1.86 1.88864 2.09896 1.89355 1.62564 
1.71552 1.8119 1.94702 2.18217 2.40293 2.16728 1.93668 2.13214 2.1904 
2.32083 2.40292 2.1293 2.01599 2.05447 2.15091 1.94247 2.38608 2.90776 
2.48 
TEXTURE_COORDINATES TCoords 2 float
0 0 0.015873 0 0.031746 0 0.047619 0 0.0634921 
0 0.0793651 0 0.0952381 0 0.111111 0 0.126984 0 
0.142857 0 0.15873 0 0.174603 0 0.190476 0 0.206349 
0 0.222222 0 0.238095 0 0.253968 0 0.269841 0 
0.285714 0 0.301587 0 0.31746 0 0.333333 0 0.349206 
0 0.365079 0 0.380952 0 0.396825 0 0.412698 0 
0.428571 0 0.444444 0 0.460317 0 0.47619 0 0.492063 
0 0.507937 0 0.52381 0 0.539683 0 0.555556 0 
0.571429 0 0.587302 0 0.603175 0 0.619048 0 0.634921 
0 0.650794 0 0.666667 0 0.68254 0 0.698413 0 
0.714286 0 0.730159 0 0.746032 0 0.761905 0 0.777778 
0 0.793651 0 0.809524 0 0.825397 0 0.84127 0 
0.857143 0 0.873016 0 0.888889 0 0.904762 0 0.920635 
0 0.936508 0 0.952381 0 0.968254 0 0.984127 0 
1 0 
FIELD FieldData 4
Curvature 1 64 float
0.0959221 0.0637495 0.0607164 0.0890461 0.133122 0.176618 0.185236 0.138121 0.0764623 
0.0557608 0.0908011 0.128773 0.141555 0.130494 0.122588 0.137309 0.162081 0.174431 
0.164055 0.141281 0.125105 0.129239 0.169758 0.28204 0.451373 0.376363 0.206431 
0.130676 0.117702 0.130335 0.134551 0.118382 0.097263 0.0889986 0.0959909 0.113536 
0.137558 0.160709 0.171174 0.162182 0.138602 0.112483 0.0919889 0.0793812 0.0723788 
0.0670029 0.0637798 0.0636153 0.0628581 0.0577368 0.0612257 0.0802395 0.112832 0.15004 
0.181518 0.199993 0.199824 0.179754 0.139314 0.0911095 0.0596649 0.105049 0.259693 
0.409399 
Torsion 1 64 float
-0.166197 -0.293142 -0.294287 -0.1561 -0.0742622 -0.0411967 -0.0355298 -0.0865465 -0.337289 
-0.592353 -0.10868 0.0814786 0.18316 0.275103 0.308987 0.222724 0.119206 0.0627781 
0.0334538 0.0318263 0.0396356 0.0478657 0.0441326 0.0367215 0.0449929 0.0898186 0.1601 
0.256868 0.264628 0.2047 0.190145 0.231779 0.268125 0.216251 0.123073 0.054014 
0.0217939 0.0136076 0.0175686 0.0277206 0.044929 0.0714479 0.103134 0.13136 0.160966 
0.213095 0.274244 0.285221 0.275638 0.349634 0.314731 0.152692 0.0246765 -0.0418134 
-0.0834053 -0.102337 -0.0982722 -0.0900465 -0.106808 -0.217369 -0.627822 -0.324055 -0.115669 
-0.0441823 
Abscissas 1 64 double
0 1.0435198193 2.0288193874 3.0428662126 4.0574694824 5.0709093308 6.0835942052 7.0967229086 8.1107988053 
9.1252649351 10.139629705 11.153596503 12.167165472 13.180765132 14.194579203 15.208351899 16.221769392 17.23481494 
18.247857352 19.261274286 20.274994559 21.288809397 22.302433719 23.315197799 24.32403054 25.326584578 26.33814725 
27.351619226 28.365504273 29.379325581 30.392952591 31.406680594 32.420720089 33.434920328 34.449098706 35.463143208 
36.476936889 37.490357204 38.503451898 39.516522422 40.529932663 41.54373405 42.557801279 43.572035415 44.586346866 
45.600715949 46.615121997 47.629531666 48.643923435 49.658338981 50.672783118 51.687147372 52.701287127 53.714974605 
54.728116566 55.740724536 56.753145337 57.765797004 58.779032205 59.79297836 60.807745247 61.821897799 62.812667136 
63.848443189 
ParallelTransportNormals 3 64 double
0.38774476817 0 0.92176677894 0.45268535452 -0.018631306374 0.89147565543 0.47751471998 -0.023767216246 0.87830223251 
0.47750595239 -0.023766459165 0.8783070197 0.44700011792 -0.026523525081 0.8941405914 0.38627544183 -0.046804087706 0.92119523469 
0.31538352042 -0.092011527413 0.94449304596 0.25786954586 -0.14703052443 0.95492686746 0.21243283141 -0.20117915943 0.95624224857 
0.16230170176 -0.26326872403 0.95097199567 0.08601466153 -0.34651533679 0.93409239338 -0.034816432753 -0.44920037109 0.89275239716 
-0.18941033139 -0.5452902415 0.8165673756 -0.33739931824 -0.61400537037 0.71355385586 -0.44898138694 -0.65935547705 0.60304731909 
-0.51934147899 -0.6940164079 0.49862375973 -0.55418506401 -0.72572196357 0.40768437108 -0.56221304502 -0.75555883683 0.3362251271 
-0.55470563387 -0.78100765228 0.28692979427 -0.54187145818 -0.80033142797 0.25660266604 -0.52993522865 -0.81330148444 0.24022770209 
-0.52293908905 -0.81957554583 0.23415941966 -0.52690234881 -0.81647951343 0.23608286461 -0.55851292971 -0.79458449206 0.23811508208 
-0.63738932461 -0.74619922896 0.19214983626 -0.697203236 -0.71319161874 0.072562818786 -0.70750330793 -0.70435988601 -0.057586632566 
-0.68564748584 -0.70104086865 -0.19603373596 -0.63142465386 -0.69005791975 -0.35372725919 -0.54386740121 -0.65649940261 -0.52270142937 
-0.44369639956 -0.59528378796 -0.66990351306 -0.3680141263 -0.52846440813 -0.76504311786 -0.33249809 -0.48495553629 -0.80886534601 
-0.32560941381 -0.47309792014 -0.81863109372 -0.33125852832 -0.48814933738 -0.80745155386 -0.33737175849 -0.52438272102 -0.78179476748 
-0.33404995175 -0.57748890148 -0.74492764642 -0.31197521665 -0.64192825703 -0.70042813837 -0.26590246133 -0.70745469737 -0.65483107152 
-0.19999240117 -0.76240116015 -0.61542465865 -0.12370631212 -0.80145625071 -0.58511932676 -0.043395404073 -0.82572136164 -0.56240650053 
0.040320448125 -0.83798198995 -0.54420625317 0.12843067601 -0.83956145752 -0.52786562732 0.21996651938 -0.83078315568 -0.51128668924 
0.31051979144 -0.81287545118 -0.49275852097 0.39298657748 -0.78955134882 -0.47134935823 0.45789485013 -0.76741978031 -0.44877520766 
0.4946099976 -0.7541783083 -0.4319444751 0.49504704561 -0.75403243673 -0.43169839819 0.45648237362 -0.7639757009 -0.45603176535 
0.37671633719 -0.77465413282 -0.50793284577 0.25381740813 -0.76984340952 -0.58559187849 0.09496892178 -0.72675395333 -0.68030110629 
-0.070499978218 -0.62837406253 -0.77471013329 -0.19956498853 -0.48531949247 -0.85125719121 -0.26762774551 -0.33557606842 -0.90319659661 
-0.28388071349 -0.21921715527 -0.93346428927 -0.27729313402 -0.15465958666 -0.94825573032 -0.27365845631 -0.14180225295 -0.95131654582 
-0.2888810565 -0.18091960342 -0.9401147974 -0.3298708651 -0.28649205876 -0.89950403703 -0.37552422114 -0.55974631785 -0.73869182952 
-0.37552422114 -0.55974631785 -0.73869182952 
