# vtk DataFile Version 4.2
vtk output
ASCII
DATASET POLYDATA
POINTS 64 float
0 0 0 -0.952496 0.081613 0.413259 -1.91324 0.132956 0.590018 
-2.93737 0.114586 0.652663 -3.93894 -0.0274396 0.649935 -4.90723 -0.330442 0.66808 
-5.80014 -0.802585 0.758164 -6.59059 -1.41335 0.93401 -7.27632 -2.12192 1.17224 
-7.86518 -2.90742 1.42766 -8.34879 -3.77823 1.62118 -8.66188 -4.74155 1.59926 
-8.73109 -5.68901 1.25061 -8.62942 -6.5283 0.689961 -8.46579 -7.30434 0.0573188 
-8.29943 -8.07998 -0.576076 -8.17589 -8.90415 -1.15 -8.16701 -9.83861 -1.56245 
-8.49636 -10.7668 -1.39469 -9.04194 -11.1902 -0.658552 -9.56295 -11.2907 0.204644 
-10.0184 -11.2512 1.11102 -10.3665 -11.1551 2.05833 -10.5104 -11.0826 3.06088 
-10.2491 -11.1925 4.03043 -9.61376 -11.5684 4.72204 -8.87697 -12.099 5.17387 
-8.15333 -12.7184 5.52327 -7.4822 -13.4108 5.83844 -6.8906 -14.1723 6.15358 
-6.40277 -14.9974 6.4856 -6.03042 -15.8722 6.83953 -5.75929 -16.7753 7.214 
-5.544 -17.6845 7.60939 -5.31354 -18.577 8.03338 -4.97742 -19.4137 8.49804 
-4.45651 -20.1228 9.00142 -3.74479 -20.6311 9.51402 -2.90574 -20.9231 10.003 
-2.00701 -21.0357 10.4596 -1.0896 -21.0114 10.8919 -0.175374 -20.8796 11.3115 
0.722711 -20.661 11.7297 1.59678 -20.3741 12.1576 2.44281 -20.0399 12.6069 
3.25917 -19.6802 13.0902 4.04498 -19.3146 13.6176 4.80172 -18.9575 14.1913 
5.53792 -18.6214 14.8033 6.26833 -18.321 15.4401 7.00789 -18.0736 16.0891 
7.76481 -17.8988 16.7417 8.53629 -17.8173 17.3954 9.30456 -17.8544 18.0569 
10.023 -18.0493 18.7452 10.5625 -18.4758 19.4918 10.6413 -19.1436 20.2433 
10.2483 -19.8427 20.8626 9.64904 -20.4749 21.3821 8.98906 -21.0612 21.8828 
8.34071 -21.6221 22.4225 7.78602 -22.1686 23.0844 7.44767 -22.6533 23.8702 
7.53321 -23.0136 24.8412 
LINES 1 65
64 0 1 2 3 4 5 6 7 8 9 10 11 12 13 14 15 16 17 18 19 20 21 22 23 24 25 26 27 28 29 30 31 32 33 34 35 36 37 38 39 40 41 42 43 44 45 46 47 48 49 50 51 52 53 54 55 56 57 58 59 60 61 62 63 

POINT_DATA 64
SCALARS MaximumInscribedSphereRadius float
LOOKUP_TABLE default
0.62 0.77841 0.90816 0.93 0.993471 1.14913 1.40515 1.70831 1.66146 
1.36439 1.24 1.24 1.24 1.46344 1.78734 2.10149 2.32899 2.11537 
2.01551 2.17 2.16025 2.01976 1.69929 1.8054 2.07447 1.93085 2.05836 
2.35518 2.57413 2.72977 2.55486 2.11151 1.86 1.87732 2.07809 2.44449 
2.0981 1.4926 1.82867 2.22169 2.53565 2.60618 2.23807 1.91639 1.92303 
2.10813 2.56348 2.90055 3.08737 2.85037 2.36491 2.08535 1.94999 1.86153 
1.80757 1.6699 1.91786 2.6344 2.65595 2.50227 2.35031 2.20779 2.17 
2.17 
TEXTURE_COORDINATES TCoords 2 float
0 0 0.015873 0 0.031746 0 0.047619 0 0.0634921 
0 0.0793651 0 0.0952381 0 0.111111 0 0.126984 0 
0.142857 0 0.15873 0 0.174603 0 0.190476 0 0.206349 
0 0.222222 0 0.238095 0 0.253968 0 0.269841 0 
0.285714 0 0.301587 0 0.31746 0 0.333333 0 0.349206 
0 0.365079 0 0.380952 0 0.396825 0 0.412698 0 
0.428571 0 0.444444 0 0.460317 0 0.47619 0 0.492063 
0 0.507937 0 0.52381 0 0.539683 0 0.555556 0 
0.571429 0 0.587302 0 0.603175 0 0.619048 0 0.634921 
0 0.650794 0 0.666667 0 0.68254 0 0.698413 0 
0.714286 0 0.730159 0 0.746032 0 0.761905 0 0.777778 
0 0.793651 0 0.809524 0 0.825397 0 0.84127 0 
0.857143 0 0.873016 0 0.888889 0 0.904762 0 0.920635 
0 0.936508 0 0.952381 0 0.968254 0 0.984127 0 
1 0 
FIELD FieldData 4
Curvature 1 64 float
0.226816 0.189489 0.140003 0.121302 0.144039 0.170796 0.168388 0.135162 0.110969 
0.151686 0.274069 0.360571 0.278568 0.139918 0.0490187 0.0910982 0.25645 0.629397 
0.741489 0.326376 0.152184 0.120188 0.2147 0.406182 0.491291 0.2932 0.146082 
0.0912519 0.0908016 0.105989 0.110739 0.0936399 0.0566527 0.0489377 0.117199 0.197869 
0.237339 0.220483 0.169912 0.122907 0.0928211 0.0760132 0.0651593 0.0554158 0.0481612 
0.0472886 0.0480888 0.0463093 0.0460554 0.0527574 0.0649588 0.0805541 0.107052 0.164158 
0.286295 0.46679 0.448288 0.241955 0.101058 0.0562697 0.126737 0.255922 0.396347 
0.398786 
Torsion 1 64 float
0.0885698 0.200152 0.429926 0.545944 0.339805 0.153829 0.0404679 -0.0876321 -0.311122 
-0.342153 -0.156949 -0.0677728 -0.0314317 -0.00234318 0.0342492 0.0175602 0.00935647 0.0180483 
-0.00636774 -0.0781257 -0.289517 -0.48179 -0.272539 -0.168265 -0.144654 -0.168481 -0.28684 
-0.37392 -0.239476 -0.100207 -0.0496183 -0.0714259 -0.369744 -0.86459 -0.156703 -0.0340434 
-0.00436483 0.0143362 0.046331 0.0844268 0.119172 0.145866 0.185491 0.269913 0.348508 
0.270348 0.203057 0.277219 0.333847 0.219753 0.0479005 -0.0801012 -0.158448 -0.18081 
-0.161225 -0.133152 -0.0939145 -0.0903562 -0.387157 -0.825821 -0.185212 -0.0443931 -0.0177673 
-0.00743771 
Abscissas 1 64 double
0 1.0414852643 2.0197027931 3.0459073954 4.0575057703 5.0722611507 6.0863224609 7.100599169 8.1150292837 
9.1294201879 10.144133524 11.157294255 12.169237005 13.183666528 14.19818785 15.213312172 16.225196759 17.246673227 
18.245770709 19.255134282 20.268373885 21.283520774 22.297321708 23.312744578 24.322895408 25.334490289 26.348640108 
27.363249712 28.377725615 29.392201623 30.406622234 31.421065188 32.435589047 33.450195576 34.464799308 35.479168671 
36.492856956 37.506576322 38.520665269 39.534993236 40.549444253 41.563954094 42.578492729 43.593055191 44.607631953 
45.622209511 46.636777529 47.651351923 48.665940201 49.680524912 50.695085849 51.709617761 52.724111061 53.738615362 
54.752449303 55.767527312 56.77593085 57.789205409 58.803464279 59.818402625 60.831421453 61.853386518 62.836673455 
63.875930126 
ParallelTransportNormals 3 64 double
0.39802132978 0 0.91737616115 0.18169559834 0.014923861347 0.98324157149 0.06074257246 0.017036489014 0.99800806506 
-0.0044040855488 0.011849224235 0.99992009677 0.013745032703 0.015947015503 0.99977835882 0.077922027563 0.042677576464 0.99604557229 
0.15016286229 0.089149228241 0.98463370341 0.19954169946 0.13328119126 0.97078279457 0.21555661773 0.15205396997 0.96458018576 
0.18937910631 0.11162659816 0.97553834198 0.11488507909 -0.059903729576 0.99157095651 0.057173665246 -0.34845669994 0.93557955315 
0.060799445279 -0.5493415385 0.8333830461 0.072561904768 -0.62095857242 0.78047755977 0.07266444159 -0.62144072192 0.7800841673 
0.062267115842 -0.56404644716 0.82339201583 0.05007913417 -0.40289273804 0.9138760977 0.14230421884 0.12692733359 0.98165114032 
0.44385349048 0.59423791342 0.67072750148 0.59832432477 0.67019258217 0.43914679231 0.67083894103 0.67473477291 0.30774681383 
0.71903369154 0.66660036437 0.19655661945 0.75330580987 0.65485532773 0.060785331822 0.74212247185 0.65843090292 -0.12539131891 
0.67740833734 0.69349247783 -0.24532861167 0.66352844829 0.70266118309 -0.25689931895 0.69549085564 0.67749365487 -0.23936335838 
0.7483071371 0.6278181603 -0.21419800694 0.81159552852 0.55494819156 -0.18260668874 0.87613326351 0.46008628291 -0.14391357421 
0.92949264339 0.35463938926 -0.10136236709 0.96278627615 0.26265572759 -0.063675389462 0.97619908731 0.2126819218 -0.04244693255 
0.97248239821 0.22770499384 -0.049279011232 0.94112625953 0.32339960615 -0.098458409272 0.85188331318 0.48434719373 -0.19925515465 
0.69420852331 0.64007075291 -0.32921718886 0.51452818266 0.73280222233 -0.44526582194 0.3640209804 0.76784891925 -0.52715914393 
0.25340482654 0.77322630015 -0.5812977573 0.17340244846 0.76640797699 -0.61850659145 0.11643259891 0.75539335705 -0.64484442003 
0.079772930655 0.7449375833 -0.66234754965 0.063956453836 0.7392265138 -0.67041310645 0.06874199104 0.74122415027 -0.66772846107 
0.089868057661 0.75078786207 -0.65440149632 0.11937561861 0.76461303906 -0.6333374789 0.15038908155 0.77901173175 -0.60870669944 
0.18158161054 0.79254902204 -0.58214617269 0.2155128129 0.8051940274 -0.55246430267 0.25673672903 0.81682312053 -0.51661033839 
0.31110615208 0.82594087631 -0.47014320263 0.38813183137 0.82816405903 -0.40434882566 0.50525755996 0.809879775 -0.29800930884 
0.68962040688 0.71883808688 -0.087723994855 0.84872366692 0.43638419 0.29872558633 0.77504805098 0.11470277997 0.62140469176 
0.67029827961 -0.025853157844 0.74164130857 0.6360733078 -0.058974744175 0.76937164404 0.65895159958 -0.038913442085 0.75117809702 
0.74795226518 0.042988047737 0.66235899387 0.86097138854 0.17394869659 0.47798547997 0.92432017257 0.377106424 0.058506098414 
0.92432017257 0.377106424 0.058506098414 
