# vtk DataFile Version 4.2
vtk output
ASCII
DATASET POLYDATA
POINTS 64 float
0 0 0 -0.782413 0.369057 0.562604 -1.50927 0.764944 1.12205 
-2.2632 1.13915 1.68495 -3.06456 1.43703 2.23047 -3.93336 1.58735 2.73004 
-4.85973 1.49303 3.12565 -5.76461 1.10431 3.35716 -6.57617 0.504174 3.44852 
-7.30932 -0.196716 3.45761 -7.9979 -0.931199 3.34139 -8.53055 -1.65151 2.8819 
-8.69711 -2.3077 2.13154 -8.54496 -2.90979 1.33172 -8.16353 -3.46282 0.572919 
-7.62146 -3.97423 -0.114649 -6.97463 -4.46534 -0.722217 -6.26751 -4.97247 -1.24328 
-5.53148 -5.54744 -1.63654 -4.81862 -6.25461 -1.719 -4.4739 -6.92613 -1.08868 
-4.69823 -7.22806 -0.151975 -5.21737 -7.29668 0.714406 -5.89254 -7.18463 1.46125 
-6.62071 -6.87483 2.09395 -7.30023 -6.36566 2.64712 -7.86114 -5.70832 3.17724 
-8.27632 -4.98436 3.75286 -8.51688 -4.31192 4.46984 -8.4827 -3.9689 5.41102 
-8.15496 -4.16906 6.34267 -7.6875 -4.63021 7.11459 -7.13178 -5.16818 7.77037 
-6.47778 -5.74479 8.2857 -5.73465 -6.40371 8.35346 -5.29594 -7.00422 7.67486 
-5.13657 -7.53919 6.82841 -5.09052 -8.12589 6.00246 -5.10869 -8.82868 5.27248 
-5.17163 -9.69434 4.75298 -5.25437 -10.6919 4.64044 -5.29772 -11.6265 5.01838 
-5.23858 -12.3732 5.69941 -5.04003 -12.974 6.49129 -4.67515 -13.5025 7.27552 
-4.13276 -14.0051 7.96849 -3.43711 -14.469 8.54168 -2.62737 -14.8302 9.03317 
-1.74554 -15.0229 9.49423 -0.844276 -15.0306 9.95842 0.0372334 -14.8963 10.4418 
0.889083 -14.6821 10.9494 1.72172 -14.44 11.4762 2.55372 -14.2123 12.0103 
3.40332 -14.0492 12.5399 4.27492 -14.029 13.0569 5.1269 -14.2564 13.5537 
5.84719 -14.7906 14.021 6.33518 -15.5573 14.4667 6.59327 -16.4244 14.9234 
6.6715 -17.3055 15.4188 6.60305 -18.1584 15.9598 6.39018 -18.9473 16.5347 
5.96182 -19.6548 17.1486 
LINES 1 65
64 0 1 2 3 4 5 6 7 8 9 10 11 12 13 14 15 16 17 18 19 20 21 22 23 24 25 26 27 28 29 30 31 32 33 34 35 36 37 38 39 40 41 42 43 44 45 46 47 48 49 50 51 52 53 54 55 56 57 58 59 60 61 62 63 

POINT_DATA 64
SCALARS MaximumInscribedSphereRadius float
LOOKUP_TABLE default
1.24 1.26862 1.67664 1.42256 1.12123 1.45173 1.26708 1.31227 1.5188 
1.55716 1.53645 1.431 1.86 1.7876 1.58253 1.55 1.55 1.72372 
2.14021 2.29711 1.75883 1.75539 1.51483 1.61892 2.18972 2.25505 2.24183 
2.47539 2.39932 1.99924 1.69648 1.88443 2.38779 2.32497 2.72279 2.2919 
2.42865 2.27331 2.19201 2.3279 2.48 2.27995 1.8915 1.8219 1.60832 
1.76673 1.86 1.62233 1.38323 1.7488 2.47269 1.80857 1.72908 1.73988 
1.63716 1.79825 1.65545 2.13695 2.06574 2.57921 2.87533 2.6534 3.00624 
2.79 
TEXTURE_COORDINATES TCoords 2 float
0 0 0.015873 0 0.031746 0 0.047619 0 0.0634921 
0 0.0793651 0 0.0952381 0 0.111111 0 0.126984 0 
0.142857 0 0.15873 0 0.174603 0 0.190476 0 0.206349 
0 0.222222 0 0.238095 0 0.253968 0 0.269841 0 
0.285714 0 0.301587 0 0.31746 0 0.333333 0 0.349206 
0 0.365079 0 0.380952 0 0.396825 0 0.412698 0 
0.428571 0 0.444444 0 0.460317 0 0.47619 0 0.492063 
0 0.507937 0 0.52381 0 0.539683 0 0.555556 0 
0.571429 0 0.587302 0 0.603175 0 0.619048 0 0.634921 
0 0.650794 0 0.666667 0 0.68254 0 0.698413 0 
0.714286 0 0.730159 0 0.746032 0 0.761905 0 0.777778 
0 0.793651 0 0.809524 0 0.825397 0 0.84127 0 
0.857143 0 0.873016 0 0.888889 0 0.904762 0 0.920635 
0 0.936508 0 0.952381 0 0.968254 0 0.984127 0 
1 0 
FIELD FieldData 4
Curvature 1 64 float
0.210293 0.0803709 0.0353606 0.0531956 0.104297 0.168221 0.207699 0.159245 0.0903058 
0.10427 0.248438 0.303471 0.214349 0.15219 0.112602 0.080296 0.0619336 0.101636 
0.233706 0.548409 0.471003 0.236695 0.158512 0.139589 0.13215 0.114596 0.099596 
0.148903 0.304148 0.396551 0.218545 0.0980079 0.115497 0.317421 0.582053 0.235381 
0.0972539 0.0959044 0.162704 0.260802 0.301017 0.22084 0.136155 0.107576 0.120016 
0.116818 0.10269 0.110363 0.110799 0.0855493 0.0522656 0.0233676 0.0123336 0.0385594 
0.0856173 0.148801 0.200608 0.198295 0.149862 0.107882 0.0906754 0.101213 0.139004 
0.210216 
Torsion 1 64 float
-0.00401168 -0.0106821 -0.0261424 -0.00255422 -0.00232842 -0.00152814 0.016295 0.0430665 -0.0843902 
-0.20991 0.110075 0.201794 0.102638 0.0482813 0.0670899 0.154133 0.309417 0.132632 
0.00122262 -0.00399029 0.0839557 0.0366034 -0.115803 -0.22934 -0.251507 -0.275697 -0.38415 
-0.283028 -0.105899 0.00672971 0.100711 0.184314 -0.00632572 -0.0974103 -0.142317 -0.173318 
-0.340608 -0.223158 -0.0704213 -0.043547 -0.0731835 -0.157567 -0.312192 -0.359736 -0.164571 
0.123789 0.316574 0.233117 0.138117 0.127483 0.153367 0.30731 0.960724 0.0381361 
-0.0544923 -0.081434 -0.1039 -0.136594 -0.175986 -0.152786 -0.0768995 0.012786 0.041561 
0.0357795 
Abscissas 1 64 double
0 1.0319385717 2.0309497573 3.0435230344 4.0576681932 5.07107391 6.0827835144 7.0944758145 8.1079526896 
9.1222650025 10.135735654 11.142560811 12.153181547 13.165794817 14.179253679 15.193222989 16.207481225 17.221735341 
18.235139396 19.242635822 20.226034415 21.235440127 22.247781259 23.260788012 24.27396068 25.287373806 26.301151395 
27.31496878 28.326948677 29.329273664 30.336972365 31.350400449 32.364438861 33.377243517 34.372733025 35.379494454 
36.393440659 37.407603472 38.421065672 39.432605629 40.439945679 41.448968374 42.461299776 43.474952861 44.488599655 
45.50201632 46.515730409 47.52949718 48.543078 49.556888224 50.571138693 51.585641333 52.60023916 53.614810742 
54.629147277 55.642784008 56.654871303 57.666078774 58.678295703 59.691743442 60.70559141 61.71788717 62.717018711 
63.747078914 
ParallelTransportNormals 3 64 double
0.58380299879 0 0.81189534954 0.60603164818 -0.011279312149 0.79536055882 0.59627400294 -0.0062031738254 0.80275702055 
0.56461531569 0.0074789278103 0.82532030808 0.50149487669 0.02441544373 0.86481603521 0.39019201352 0.027874798704 0.92031146259 
0.25137578837 -0.0087423413491 0.96785008369 0.15742256437 -0.062856463957 0.98552889413 0.1102931849 -0.10254893622 0.98859452206 
0.0300087325 -0.18360556826 0.982541842 -0.17842470785 -0.43199852164 0.88404858516 -0.30558639451 -0.68211023383 0.66433619831 
-0.30681942489 -0.78752830879 0.53447264043 -0.28388221396 -0.83719360068 0.46745883624 -0.26253560487 -0.86179939705 0.43402402631 
-0.25657367525 -0.86682681022 0.42752921568 -0.2799306831 -0.84960603009 0.44699933589 -0.35525054984 -0.79312895705 0.49471557923 
-0.550608558 -0.62019541532 0.55873774052 -0.92247050895 -0.13352993455 0.36224013679 -0.96578782062 0.19800840327 -0.16747106551 
-0.83675504082 0.26241621305 -0.48060246856 -0.69729811436 0.25735210442 -0.66898821668 -0.58352198205 0.22315133265 -0.78083646124 
-0.52927532306 0.19159264796 -0.82653486898 -0.53862324208 0.20038315167 -0.81837130669 -0.58756779256 0.26964624646 -0.76292528528 
-0.6602459396 0.42444675253 -0.61961298687 -0.70984520185 0.66967870319 -0.2182893124 -0.59761471705 0.71452596495 0.3637434472 
-0.46667867769 0.60570268762 0.64446510068 -0.38523666203 0.52617530816 0.75811098087 -0.28745988597 0.43609055679 0.85275543987 
0.039874423841 0.14661282842 0.98838995789 0.55980765565 -0.40679489118 0.72189563317 0.65122895016 -0.58011034434 0.48925744028 
0.65461438321 -0.59859432764 0.46169778016 0.65363539022 -0.55326736814 0.51638744757 0.66047382188 -0.42109223646 0.62165557909 
0.68264294136 -0.13757506966 0.71768496906 0.70707207939 0.23667780185 0.66635778127 0.70455309352 0.5078744572 0.49564954769 
0.67567677751 0.65893725847 0.33054890973 0.63213942497 0.74620324541 0.20875934455 0.58196950239 0.80322050388 0.12707604195 
0.51802189261 0.85314105342 0.061673833565 0.41353283573 0.91040711329 -0.012226276473 0.2611519081 0.96030680186 -0.098033296332 
0.10150861672 0.97825412025 -0.18087254335 -0.014712398605 0.97000411111 -0.24264288522 -0.075603078868 0.95775993567 -0.27745284299 
-0.094203842124 0.95272074238 -0.28887509961 -0.081488964265 0.95630898162 -0.28077158042 -0.03079573529 0.96808954439 -0.24870516024 
0.083603714227 0.98026515553 -0.17913861621 0.28903452764 0.95554137261 -0.058307178397 0.54934332408 0.82943245432 0.1013099996 
0.74492599897 0.6189039468 0.24908464564 0.83006380755 0.4325061614 0.35204047459 0.85345457943 0.31093368401 0.41825294379 
0.85391617675 0.2281588459 0.46772930646 0.84078227706 0.15178385092 0.51966029787 0.79485264426 0.043953394749 0.60520853679 
0.79485264426 0.043953394749 0.60520853679 
