# vtk DataFile Version 4.2
vtk output
ASCII
DATASET POLYDATA
POINTS 64 float
0 0 0 -0.340626 0.490764 0.779096 -0.652198 1.07907 1.612 
-0.885741 1.66254 2.37447 -1.1016 2.27207 3.16992 -1.29658 2.86444 3.96565 
-1.49613 3.43424 4.78251 -1.71811 3.97102 5.61401 -1.98547 4.47569 6.45277 
-2.32058 4.95302 7.28305 -2.74445 5.4075 8.08518 -3.27356 5.83805 8.83645 
-3.91649 6.23403 9.51446 -4.67086 6.57439 10.1018 -5.52121 6.83212 10.592 
-6.44177 6.98122 10.9922 -7.40204 7.00289 11.3198 -8.37133 6.88628 11.5967 
-9.32104 6.62892 11.8449 -10.2268 6.23872 12.0839 -11.0718 5.73194 12.3266 
-11.8484 5.12866 12.5768 -12.5577 4.44845 12.8292 -13.2071 3.70711 13.0704 
-13.8087 2.91629 13.2765 -14.3778 2.08693 13.4063 -14.9337 1.23502 13.379 
-15.4732 0.44112 13.0581 -15.9541 -0.186421 12.4202 -16.3544 -0.651342 11.6106 
-16.7028 -1.06102 10.7505 -17.0163 -1.48536 9.88383 -17.297 -1.96707 9.03605 
-17.5378 -2.52725 8.225 -17.7271 -3.16716 7.4606 -17.8529 -3.87316 6.74274 
-17.906 -4.62495 6.06334 -17.8803 -5.40151 5.41076 -17.7735 -6.18433 4.77411 
-17.5872 -6.95972 4.14673 -17.3264 -7.72083 3.52853 -16.9982 -8.46908 2.92686 
-16.6107 -9.21541 2.35917 -16.1714 -9.98253 1.86137 -15.6925 -10.8057 1.50912 
-15.227 -11.7141 1.50975 -14.9348 -12.5359 2.01094 -14.8448 -13.1589 2.81566 
-14.8715 -13.6398 3.70721 -14.9519 -14.0598 4.62781 -15.0505 -14.4648 5.55275 
-15.1384 -14.8928 6.4685 -15.1897 -15.3734 7.36066 -15.1803 -15.925 8.21228 
-15.093 -16.5473 9.00904 -14.9233 -17.2206 9.74894 -14.6779 -17.9172 10.4448 
-14.3705 -18.6113 11.1176 -14.0205 -19.2864 11.7906 -13.6515 -19.9306 12.4783 
-13.3065 -20.5661 13.2011 -13.0239 -21.1809 13.9302 -12.9363 -21.9043 14.6978 
-13.1089 -22.6404 15.3298 
LINES 1 65
64 0 1 2 3 4 5 6 7 8 9 10 11 12 13 14 15 16 17 18 19 20 21 22 23 24 25 26 27 28 29 30 31 32 33 34 35 36 37 38 39 40 41 42 43 44 45 46 47 48 49 50 51 52 53 54 55 56 57 58 59 60 61 62 63 

POINT_DATA 64
SCALARS MaximumInscribedSphereRadius float
LOOKUP_TABLE default
0.62 1.08294 1.39278 1.09049 0.826394 0.941442 1.13892 1.10775 0.966915 
0.93 0.933793 1.02502 1.0863 1.01803 0.996234 1.09333 1.15749 1.0852 
0.972539 0.951882 0.983256 1.09936 1.25136 1.47127 1.73177 1.66777 1.47169 
1.46389 1.57304 1.53231 1.425 1.29109 1.41442 1.5304 1.55 1.55 
1.55 1.57194 1.65389 1.77326 1.81518 1.72424 1.59561 1.37394 1.36877 
1.55416 1.77995 1.98085 2.08185 2.03433 1.94556 2.01887 2.1616 2.31675 
2.4897 2.78017 2.98525 2.94864 2.83702 2.79981 2.7566 2.55545 2.17432 
1.55 
TEXTURE_COORDINATES TCoords 2 float
0 0 0.015873 0 0.031746 0 0.047619 0 0.0634921 
0 0.0793651 0 0.0952381 0 0.111111 0 0.126984 0 
0.142857 0 0.15873 0 0.174603 0 0.190476 0 0.206349 
0 0.222222 0 0.238095 0 0.253968 0 0.269841 0 
0.285714 0 0.301587 0 0.31746 0 0.333333 0 0.349206 
0 0.365079 0 0.380952 0 0.396825 0 0.412698 0 
0.428571 0 0.444444 0 0.460317 0 0.47619 0 0.492063 
0 0.507937 0 0.52381 0 0.539683 0 0.555556 0 
0.571429 0 0.587302 0 0.603175 0 0.619048 0 0.634921 
0 0.650794 0 0.666667 0 0.68254 0 0.698413 0 
0.714286 0 0.730159 0 0.746032 0 0.761905 0 0.777778 
0 0.793651 0 0.809524 0 0.825397 0 0.84127 0 
0.857143 0 0.873016 0 0.888889 0 0.904762 0 0.920635 
0 0.936508 0 0.952381 0 0.968254 0 0.984127 0 
1 0 
FIELD FieldData 4
Curvature 1 64 float
0.124136 0.093507 0.062959 0.0377042 0.028078 0.0342498 0.047376 0.0619999 0.0805719 
0.104291 0.12976 0.152002 0.167439 0.173491 0.171907 0.16635 0.161829 0.15874 
0.153418 0.14377 0.129277 0.110981 0.0962816 0.0992115 0.137452 0.226607 0.352688 
0.395428 0.293038 0.154676 0.0875966 0.0872728 0.108469 0.117322 0.11361 0.104854 
0.0969862 0.0918148 0.087865 0.0832717 0.0800451 0.0886305 0.130306 0.234778 0.437055 
0.596972 0.475093 0.270707 0.132673 0.0545121 0.0332824 0.0747274 0.112472 0.130384 
0.122344 0.0988132 0.0733394 0.0577029 0.0576561 0.0768186 0.124109 0.213707 0.343047 
0.43236 
Torsion 1 64 float
-0.0664244 -0.124236 -0.277228 -0.743408 -0.970483 -0.751024 -0.489289 -0.414068 -0.302673 
-0.170712 -0.0570683 0.0356769 0.10752 0.169981 0.210966 0.229978 0.227517 0.205667 
0.167232 0.110735 0.0321973 -0.0715945 -0.224942 -0.345629 -0.300183 -0.202393 -0.116031 
-0.0242049 0.0881307 0.230575 0.390898 0.192102 -0.001917 -0.105772 -0.1844 -0.242473 
-0.260479 -0.2197 -0.123749 0.0146505 0.184509 0.324004 0.267975 0.164366 0.105928 
0.0694425 0.0464981 0.0390552 0.0652725 0.319509 0.592779 0.0909415 0.073263 0.107844 
0.173193 0.292103 0.471934 0.572946 0.530271 0.426355 0.333726 0.218999 0.137107 
0.0707938 
Abscissas 1 64 double
0 0.98176723824 2.0480266883 3.0361265855 4.0612355412 5.0722350032 6.0879839532 7.1022857857 8.1170197823 
9.1316662838 10.146373354 11.16113632 12.175954862 13.190779158 14.205600047 15.220399312 16.235233589 17.250016976 
18.264801346 19.279579632 20.294334764 21.309055597 22.323743392 23.338371502 24.35317832 25.367338154 26.384953662 
27.396992991 28.412888746 29.428702125 30.443033599 31.457696938 32.472369925 33.487074466 34.501766842 35.516455746 
36.531139413 37.54581479 38.560477425 39.575143036 40.589787102 41.604462119 42.619108781 43.633619155 44.648976364 
45.66971607 46.675719396 47.697383616 48.710713504 49.725780404 50.740289619 51.754940234 52.769594611 53.784327769 
54.79905819 55.813720332 56.828456207 57.842841901 58.858322092 59.870276903 60.892668808 61.8874072 62.94579436 
63.931170961 
ParallelTransportNormals 3 64 double
0 -0.84612394288 0.53298618489 -0.016165951333 -0.81952572363 0.57281432448 -0.026244748069 -0.79774514204 0.60242335741 
-0.026546181747 -0.7969458491 0.60346716053 -0.023896229436 -0.80470026789 0.59320017622 -0.017989449594 -0.82210131182 0.56905695041 
-0.010640164837 -0.84139296615 0.54031903854 -0.0031690428232 -0.85729401854 0.51481736854 0.0024843073206 -0.86650870699 0.49915577621 
0.0045241043135 -0.86901299602 0.49476857744 0.0022732987761 -0.86692265345 0.49843750365 -0.0016121697492 -0.86418257658 0.50317578961 
0.00016852033656 -0.86512093952 0.50156328773 0.018019096571 -0.87177399328 0.48957677314 0.060720939502 -0.88158382231 0.46810568438 
0.1304457573 -0.88791447802 0.4411255877 0.22390448536 -0.88331586023 0.4118493323 0.33339383493 -0.86197879842 0.38189147924 
0.44712908355 -0.82228510237 0.35202669368 0.5532728735 -0.76790323878 0.32282153479 0.64364445634 -0.70603853521 0.29534962438 
0.71470436553 -0.6446603928 0.27131282286 0.76706919169 -0.58987624864 0.25229123338 0.8017635341 -0.54738481845 0.23988558922 
0.81820409564 -0.52463121831 0.23516832833 0.81035904602 -0.5363549082 0.23588477904 0.76293131949 -0.60761459341 0.22077207163 
0.69821679807 -0.69777583277 0.1600068439 0.66153652023 -0.74324870917 0.099753640142 0.65724436987 -0.74826284574 0.090180662917 
0.66795891401 -0.73476230587 0.11813231168 0.68710969102 -0.70556115256 0.17338896303 0.70973273025 -0.66036953976 0.24533960661 
0.73083007778 -0.60150101442 0.32262040708 0.74633969329 -0.53524044505 0.39559414582 0.75452344312 -0.46855841683 0.45950776249 
0.75563677172 -0.40657576804 0.51352625451 0.7509960009 -0.35193452117 0.55870126136 0.74211466754 -0.30471954822 0.59700235942 
0.72984443041 -0.2625564443 0.63118239912 0.71375056851 -0.22131334752 0.66451525804 0.69127925735 -0.17438954828 0.70122840345 
0.65571633579 -0.10929708765 0.74705437126 0.59258191086 5.1080025191e-05 0.80551019628 0.46288354212 0.23780589393 0.85392457703 
0.31614590551 0.57332706395 0.75587554807 0.26209199344 0.77706393253 0.57225818626 0.25811033949 0.84704376495 0.46464600818 
0.2607807773 0.86951579151 0.41944686733 0.2616617192 0.87357756396 0.41036006683 0.25974948976 0.86503573416 0.42923581072 
0.25662865999 0.84467195047 0.4697563485 0.25533278151 0.81275736486 0.52367035104 0.25845376875 0.77486425221 0.57687697134 
0.26483588086 0.7426938543 0.61503479169 0.26977468504 0.72639486989 0.6321171666 0.26868737824 0.72913022644 0.62942529793 
0.26057096663 0.74603549781 0.61280813258 0.2476021014 0.76983247535 0.58826113187 0.24027001497 0.78297199925 0.57378146388 
0.23874354793 0.78601651508 0.57024517214 0.25802112603 0.71762282801 0.64687137457 0.25018419193 0.59630136517 0.76277949108 
0.25018419193 0.59630136517 0.76277949108 
