# vtk DataFile Version 4.2
vtk output
ASCII
DATASET POLYDATA
POINTS 64 float
0 0 0 -0.987095 0.00201445 0.346064 -1.91843 0.00116659 0.655447 
-2.88337 -0.00794853 0.973231 -3.82612 0.0175202 1.34748 -4.77585 0.0357308 1.70315 
-5.74132 0.0458268 2.01385 -6.71978 0.00772106 2.27618 -7.68676 -0.282257 2.35799 
-8.54079 -0.81359 2.24746 -9.20992 -1.52501 1.97831 -9.71053 -2.32935 1.61667 
-10.1009 -3.1727 1.20995 -10.4229 -4.03172 0.776757 -10.6851 -4.89521 0.313256 
-10.8635 -5.75146 -0.200369 -10.9083 -6.57671 -0.787571 -10.7713 -7.33231 -1.44901 
-10.4463 -7.99052 -2.14816 -9.96846 -8.56262 -2.83582 -9.37695 -9.09114 -3.46775 
-8.69984 -9.64286 -3.98085 -7.98493 -10.3369 -4.16875 -7.67689 -11.0347 -3.54768 
-7.91033 -11.3473 -2.61525 -8.39762 -11.3804 -1.7291 -9.05191 -11.1708 -0.985686 
-9.78649 -10.7652 -0.417022 -10.5214 -10.2382 0.0424035 -11.2106 -9.64308 0.489445 
-11.8097 -9.01831 1.01764 -12.2354 -8.42592 1.71958 -12.3499 -8.00208 2.62823 
-12.1017 -7.87924 3.59997 -11.6158 -8.02338 4.47672 -11.0026 -8.35848 5.21057 
-10.316 -8.85623 5.76462 -9.60546 -9.5215 6.04005 -8.99886 -10.3097 5.87588 
-8.62719 -11.0706 5.32209 -8.43511 -11.7697 4.61292 -8.33273 -12.4673 3.88348 
-8.25957 -13.2305 3.21968 -8.16285 -14.112 2.73014 -7.99407 -15.0936 2.55541 
-7.73316 -16.0499 2.75736 -7.38508 -16.8671 3.24381 -6.94177 -17.4959 3.90305 
-6.39298 -17.907 4.649 -5.7467 -18.1016 5.40512 -5.02568 -18.1179 6.11786 
-4.25927 -18.0142 6.77421 -3.47277 -17.8415 7.39139 -2.68114 -17.6319 7.99033 
-1.88813 -17.4033 8.5805 -1.08708 -17.1694 9.15758 -0.26681 -16.947 9.71172 
0.580696 -16.7583 10.2365 1.45437 -16.6256 10.7347 2.34418 -16.5694 11.2186 
3.23295 -16.6129 11.7065 4.09176 -16.7862 12.2191 4.85256 -17.1059 12.753 
5.49217 -17.6553 13.3688 
LINES 1 65
64 0 1 2 3 4 5 6 7 8 9 10 11 12 13 14 15 16 17 18 19 20 21 22 23 24 25 26 27 28 29 30 31 32 33 34 35 36 37 38 39 40 41 42 43 44 45 46 47 48 49 50 51 52 53 54 55 56 57 58 59 60 61 62 63 

POINT_DATA 64
SCALARS MaximumInscribedSphereRadius float
LOOKUP_TABLE default
0.62 0.812897 0.924967 0.927588 0.903015 0.8742 0.8742 0.956717 1.1325 
0.831047 0.748511 0.866214 0.702596 0.755178 0.946863 1.13835 1.24 1.21909 
1.07254 0.985809 1.16453 1.24 1.24 1.52335 1.6607 1.27054 1.49438 
1.581 1.57722 1.56067 1.55 1.55 1.55 1.55 1.45967 1.18981 
1.02772 1.00865 1.25198 1.64499 1.85117 1.84498 1.70519 1.44962 1.05111 
1.09941 1.17459 0.977857 1.08446 1.22709 1.25025 1.37569 1.59988 2.04716 
2.02762 1.66046 1.56196 1.39811 1.01154 1.23195 1.46092 1.33076 1.35548 
1.55 
TEXTURE_COORDINATES TCoords 2 float
0 0 0.015873 0 0.031746 0 0.047619 0 0.0634921 
0 0.0793651 0 0.0952381 0 0.111111 0 0.126984 0 
0.142857 0 0.15873 0 0.174603 0 0.190476 0 0.206349 
0 0.222222 0 0.238095 0 0.253968 0 0.269841 0 
0.285714 0 0.301587 0 0.31746 0 0.333333 0 0.349206 
0 0.365079 0 0.380952 0 0.396825 0 0.412698 0 
0.428571 0 0.444444 0 0.460317 0 0.47619 0 0.492063 
0 0.507937 0 0.52381 0 0.539683 0 0.555556 0 
0.571429 0 0.587302 0 0.603175 0 0.619048 0 0.634921 
0 0.650794 0 0.666667 0 0.68254 0 0.698413 0 
0.714286 0 0.730159 0 0.746032 0 0.761905 0 0.777778 
0 0.793651 0 0.809524 0 0.825397 0 0.84127 0 
0.857143 0 0.873016 0 0.888889 0 0.904762 0 0.920635 
0 0.936508 0 0.952381 0 0.968254 0 0.984127 0 
1 0 
FIELD FieldData 4
Curvature 1 64 float
0.0665992 0.0372647 0.0430906 0.0670043 0.115661 0.0875238 0.0966052 0.308422 0.234343 
0.209792 0.150548 0.0961424 0.0618902 0.0486835 0.0654438 0.106106 0.143645 0.147611 
0.120905 0.0940824 0.122276 0.296878 0.73726 0.535601 0.273796 0.225204 0.192203 
0.116099 0.0625415 0.0906046 0.179672 0.289205 0.335316 0.261436 0.185352 0.171937 
0.224989 0.328658 0.327616 0.181383 0.070579 0.0693899 0.151424 0.235903 0.26875 
0.224809 0.18582 0.17578 0.162058 0.135612 0.095566 0.0552948 0.0274924 0.0145389 
0.011102 0.0220983 0.0365004 0.0468483 0.0543871 0.0672267 0.0920555 0.129162 0.170317 
0.195683 
Torsion 1 64 float
-0.0141058 0.516937 -0.056938 -0.193137 -0.00645851 0.0943862 -0.183126 -0.00370965 -0.0228078 
-0.0267638 -0.0164741 -0.00292803 0.0462545 0.101431 0.0566764 0.00459686 -0.0256461 -0.0683304 
-0.149983 -0.328511 -0.304129 -0.121061 -0.049577 -0.0124097 -0.0147797 0.00252167 0.070029 
0.232491 0.700947 0.354017 0.112653 0.0589006 0.0342617 0.0226881 0.0207858 0.0195816 
0.0154483 0.0184237 0.041737 0.138735 0.668846 0.638948 0.138094 0.0645442 0.0666345 
0.115568 0.155278 0.133019 0.114994 0.0991128 0.0392055 -0.0485523 -0.133839 0.195451 
0.748231 0.312391 0.195068 0.192929 0.212599 0.186291 0.12817 0.0789659 0.0476076 
0.0276026 
Abscissas 1 64 double
0 1.0460023568 2.0273764369 3.0433458573 4.0579797622 5.0722889936 6.0865669874 7.1003026669 8.1131313011 
9.1250118211 10.138076656 11.152149748 12.166583365 13.181102838 14.195593357 15.209884055 16.22372056 17.237232964 
18.250982888 19.265112446 20.279292101 21.292281161 22.306229222 23.289890172 24.300655151 25.312490137 26.324771359 
27.338394512 28.352741214 29.367186526 30.381187007 31.393546661 32.402699223 33.41310493 34.425829897 35.439138064 
36.452171134 37.46373658 38.471787525 39.483634456 40.497759382 41.512293768 42.52645486 43.539377067 44.550585059 
45.562163735 46.574940679 47.588066707 48.60129234 49.614844093 50.628813405 51.643171578 52.65771365 53.672301823 
54.686902648 55.701498253 56.716063385 57.73059038 58.745071499 59.759471465 60.774326258 61.789358267 62.772216976 
63.816332999 
ParallelTransportNormals 3 64 double
0.33084456627 0 0.9436852616 0.3152550586 8.7466139128e-06 0.94900697993 0.3128019871 -3.9604029701e-06 0.94981835992 
0.36895523778 -0.00048600339966 0.92944703793 0.35070584738 -6.4810527507e-05 0.93648566696 0.30634799522 0.00059079627235 0.95191940666 
0.2589598462 -9.2323407131e-05 0.96588808334 0.092656104758 -0.028147953095 0.99530022555 -0.066355907281 -0.099877632754 0.99278464535 
-0.18162070975 -0.19390756256 0.96406108467 -0.24017539567 -0.26977529994 0.93248971408 -0.26537641434 -0.31637668613 0.91075855812 
-0.27830893167 -0.34728128413 0.89551094256 -0.2903060128 -0.38265764902 0.87709494502 -0.30555555643 -0.44218462343 0.84327253052 
-0.31828282544 -0.53806282507 0.78050268372 -0.31132721037 -0.65728042938 0.68633651021 -0.27758342093 -0.76053458529 0.58697068837 
-0.23779190954 -0.82151784084 0.51823107291 -0.22006798241 -0.83976080203 0.49635861883 -0.25709727773 -0.80823088401 0.5297771493 
-0.45113880379 -0.63458425718 0.62751621513 -0.90286338656 -0.016185361544 0.42962278719 -0.9318497737 0.34301974656 -0.11829392514 
-0.80850816739 0.40221657455 -0.42957696681 -0.64032558364 0.37620939622 -0.66966382397 -0.47351692279 0.30233430759 -0.82727002259 
-0.38202121461 0.24426889332 -0.89128699045 -0.37492182668 0.23867494704 -0.8958057231 -0.43744534414 0.29787636879 -0.84847583336 
-0.55553770375 0.43815793157 -0.70667919646 -0.66391101384 0.64217952481 -0.38318092804 -0.63218958676 0.77218133944 0.063814617547 
-0.49784849086 0.76833707489 0.40224994655 -0.3520243051 0.70475840576 0.6159500614 -0.19040487333 0.60120176281 0.77608145488 
0.03476187325 0.41375260462 0.90972544998 0.3453688856 0.070888783441 0.93578582659 0.56928956785 -0.28355204303 0.77169140647 
0.63606339684 -0.45642527052 0.62217306888 0.64614247457 -0.50422897626 0.57293371523 0.64171174405 -0.46735291531 0.60810138143 
0.62695990387 -0.32453573931 0.70823571842 0.58683497304 -0.043028160204 0.80856248481 0.50887728749 0.30856533855 0.80363632205 
0.41252339449 0.58920950994 0.6947349152 0.30633336847 0.78324566716 0.5410047063 0.18371651217 0.91176503759 0.36733194713 
0.054532503887 0.97724972642 0.20496140671 -0.059314822267 0.99481144127 0.082655599811 -0.1406293274 0.99003152329 0.0078086593096 
-0.18984390969 0.98127451324 -0.032551798945 -0.21743501373 0.97459022425 -0.053813656324 -0.23175602251 0.97062924484 -0.064560166468 
-0.23493476819 0.96970700525 -0.066887806518 -0.22376908694 0.9728488563 -0.059097364883 -0.19375867443 0.98024628981 -0.039683590997 
-0.14437422391 0.9894692265 -0.010331180355 -0.077531770652 0.9966270889 0.0268936834 0.0082319012458 0.99724245109 0.07375452225 
0.11730642344 0.98371164773 0.13620057686 0.24393264639 0.94494480739 0.21811963463 0.39852777272 0.85002409082 0.34443382441 
0.39852777272 0.85002409082 0.34443382441 
