# vtk DataFile Version 4.2
vtk output
ASCII
DATASET POLYDATA
POINTS 64 float
0 0 0 -0.897668 0.503574 -0.1831 -1.82002 0.796375 -0.294578 
-2.83842 0.897711 -0.34021 -3.84142 0.766712 -0.301888 -4.8035 0.462678 -0.196675 
-5.71734 0.0485423 -0.0464054 -6.59934 -0.423935 0.121515 -7.47114 -0.921468 0.26932 
-8.34773 -1.42722 0.338638 -9.21827 -1.93662 0.235124 -10.0063 -2.4488 -0.142907 
-10.6057 -2.9659 -0.775788 -11.0009 -3.50045 -1.54173 -11.2405 -4.06794 -2.34767 
-11.3691 -4.68 -3.14641 -11.4125 -5.34707 -3.90942 -11.3815 -6.08448 -4.60573 
-11.2701 -6.91619 -5.17232 -11.0418 -7.87141 -5.42232 -10.6889 -8.69078 -4.96477 
-10.3717 -8.99164 -4.0503 -10.139 -8.94059 -3.06614 -9.98691 -8.68622 -2.09589 
-9.91642 -8.31383 -1.15495 -9.92936 -7.88242 -0.236845 -10.0283 -7.44243 0.67193 
-10.2142 -7.04741 1.58763 -10.4837 -6.76804 2.52457 -10.8158 -6.70329 3.48008 
-11.1505 -6.95291 4.40281 -11.4066 -7.51727 5.20438 -11.5488 -8.28737 5.84845 
-11.5909 -9.16393 6.35705 -11.5563 -10.0943 6.75996 -11.4641 -11.0533 7.0776 
-11.3279 -12.0284 7.3224 -11.16 -13.0121 7.50553 -10.9731 -13.9996 7.64454 
-10.7784 -14.9877 7.76737 -10.5846 -15.9728 7.91378 -10.3947 -16.9441 8.13672 
-10.2014 -17.8711 8.49987 -9.97129 -18.6919 9.04852 -9.63609 -19.3278 9.76293 
-9.12508 -19.7289 10.5406 -8.42628 -19.9074 11.2526 -7.59472 -19.9176 11.8329 
-6.69551 -19.8132 12.2906 -5.77011 -19.6316 12.6646 -4.83922 -19.3987 12.9941 
-3.91268 -19.1355 13.3129 -2.99622 -18.8613 13.651 -2.09587 -18.5951 14.0355 
-1.22108 -18.3535 14.4889 -0.38558 -18.1484 15.0265 0.394113 -17.9864 15.6549 
1.09974 -17.8746 16.375 1.71289 -17.8283 17.1817 2.22461 -17.8815 18.0559 
2.65268 -18.0897 18.9496 3.05112 -18.5251 19.7861 3.43531 -19.1344 20.4427 
3.87822 -19.9517 20.9203 
LINES 1 65
64 0 1 2 3 4 5 6 7 8 9 10 11 12 13 14 15 16 17 18 19 20 21 22 23 24 25 26 27 28 29 30 31 32 33 34 35 36 37 38 39 40 41 42 43 44 45 46 47 48 49 50 51 52 53 54 55 56 57 58 59 60 61 62 63 

POINT_DATA 64
SCALARS MaximumInscribedSphereRadius float
LOOKUP_TABLE default
0.62 0.767646 1.00831 1.48786 1.7256 1.462 1.2555 1.16391 1.19358 
1.33671 1.83881 2.01122 1.6852 1.71387 1.84837 1.86 1.82452 1.66724 
1.47924 1.26729 1.52542 1.84104 2.1401 2.42477 1.96872 1.44114 1.54996 
1.72534 1.49627 1.3893 1.84623 2.21407 2.4372 2.48 2.41161 2.10913 
2.02128 2.39243 2.64895 2.24645 1.86309 1.86 2.07076 2.45773 2.59676 
2.38173 1.98559 1.64692 1.42733 1.2968 1.53532 1.86243 2.18106 2.4963 
2.73596 2.81128 2.43083 2.24739 2.33711 2.72715 2.94218 2.58518 2.20456 
1.86 
TEXTURE_COORDINATES TCoords 2 float
0 0 0.015873 0 0.031746 0 0.047619 0 0.0634921 
0 0.0793651 0 0.0952381 0 0.111111 0 0.126984 0 
0.142857 0 0.15873 0 0.174603 0 0.190476 0 0.206349 
0 0.222222 0 0.238095 0 0.253968 0 0.269841 0 
0.285714 0 0.301587 0 0.31746 0 0.333333 0 0.349206 
0 0.365079 0 0.380952 0 0.396825 0 0.412698 0 
0.428571 0 0.444444 0 0.460317 0 0.47619 0 0.492063 
0 0.507937 0 0.52381 0 0.539683 0 0.555556 0 
0.571429 0 0.587302 0 0.603175 0 0.619048 0 0.634921 
0 0.650794 0 0.666667 0 0.68254 0 0.698413 0 
0.714286 0 0.730159 0 0.746032 0 0.761905 0 0.777778 
0 0.793651 0 0.809524 0 0.825397 0 0.84127 0 
0.857143 0 0.873016 0 0.888889 0 0.904762 0 0.920635 
0 0.936508 0 0.952381 0 0.968254 0 0.984127 0 
1 0 
FIELD FieldData 4
Curvature 1 64 float
0.162395 0.190432 0.20681 0.19615 0.158194 0.109062 0.0589557 0.0374996 0.0801508 
0.158959 0.246255 0.265839 0.217803 0.154689 0.107539 0.0878273 0.108159 0.179163 
0.347102 0.670209 0.604543 0.337595 0.202798 0.130863 0.088109 0.0724818 0.087196 
0.129854 0.194611 0.265904 0.288434 0.242166 0.176273 0.123781 0.0898027 0.0707852 
0.0576119 0.0428317 0.0293005 0.0414579 0.0837619 0.140307 0.193222 0.229822 0.249435 
0.250572 0.220034 0.165761 0.109725 0.0643123 0.0311583 0.0234004 0.043204 0.0668753 
0.0850354 0.0975485 0.10904 0.121738 0.134066 0.150101 0.188032 0.231852 0.241429 
0.213536 
Torsion 1 64 float
-0.00225119 -0.00361648 -0.00653725 -0.0128142 -0.0201844 -0.00436841 0.293369 0.694632 0.178248 
-0.0454614 -0.1232 -0.177203 -0.180655 -0.187369 -0.217173 -0.23493 -0.160846 -0.0807824 
-0.0331929 0.0107286 0.0167814 -0.0240212 -0.0852255 -0.170921 -0.316273 -0.463211 -0.394373 
-0.256403 -0.177623 -0.135177 -0.101306 -0.0678454 -0.0372991 -0.0103811 0.0119718 0.032909 
0.0470055 0.0316934 -0.0497007 -0.0308021 0.0301405 0.0775799 0.170031 0.273069 0.315484 
0.213301 0.082396 -0.00767011 -0.0654294 -0.157315 -0.648259 -0.871184 -0.247626 -0.0546102 
0.00131124 0.0125386 -0.0140429 -0.0783126 -0.227119 -0.385009 -0.335068 -0.194826 -0.0950311 
-0.0444766 
Abscissas 1 64 double
0 1.0454283448 2.0195368049 3.0439872165 4.0562340793 5.0706736179 6.0851687658 7.0997453314 8.1143433132 
9.1287436912 10.142665624 11.155656942 12.169206309 13.183388455 14.19778746 15.212248498 16.226668582 17.241352843 
18.253862151 19.267312953 20.269933048 21.283509213 22.296111884 23.310609912 24.325011176 25.339508258 26.354025947 
27.36847363 28.382663237 29.396293713 30.409109317 31.422324977 32.436279653 33.450582146 34.465013572 35.479502989 
36.494022925 37.508584489 38.523175471 39.53778397 40.552370954 41.566873746 42.581017751 43.594804148 44.608272286 
45.621551551 46.635070092 47.649103037 48.663479229 49.677987212 50.692561115 51.707163349 52.721753681 53.736304237 
54.750805487 55.765263854 56.779683459 57.794047117 58.808370516 59.822768708 60.835346325 61.859052264 62.833734077 
63.878852123 
ParallelTransportNormals 3 64 double
-0.19985801275 0 0.97982486942 -0.12947037054 -0.030496670872 0.99111420947 -0.049377460676 -0.046981895677 0.99767458014 
0.044079005638 -0.045546026898 0.99798927885 0.11779065969 -0.029234941464 0.99260801865 0.1668585502 -0.010450043209 0.98592546413 
0.18722852323 -0.00039339221546 0.98231630615 0.17202964638 -0.008799756923 0.98505246817 0.10561242377 -0.046912181472 0.99330018785 
-0.040605574641 -0.13187107892 0.99043485695 -0.26716551217 -0.27142647063 0.92463520382 -0.4642907369 -0.41765767645 0.78102252011 
-0.5582767403 -0.51702478304 0.64885472563 -0.58801144933 -0.56864575156 0.57522564676 -0.59443771879 -0.58923252495 0.54721917914 
-0.59432768119 -0.58841407165 0.54821846709 -0.59412367886 -0.56530771322 0.57222744044 -0.59970527136 -0.50382614668 0.62170153725 
-0.63197041498 -0.33408018715 0.69928808308 -0.75483881133 0.040478628239 0.65466010232 -0.88387768948 0.25670233367 0.39097844176 
-0.93713274719 0.2808796325 0.20709622446 -0.96173313349 0.26137167481 0.082184107718 -0.97334859331 0.22865622465 -0.017574038303 
-0.97601511338 0.19141698812 -0.103701664 -0.97130651472 0.15472953002 -0.18061679601 -0.96072313261 0.12370109848 -0.24841316532 
-0.94719767844 0.10367587824 -0.30342687791 -0.93792059543 0.098370475076 -0.33260818737 -0.94374727309 0.096753969571 -0.3161957525 
-0.9634268591 0.069644472253 -0.25876308596 -0.97988513144 0.014513720324 -0.19903386924 -0.9864665509 -0.044295846791 -0.15786583514 
-0.98667341154 -0.094108923431 -0.13273691833 -0.98402174419 -0.13362549499 -0.11766662246 -0.98041159417 -0.1641974114 -0.10877645011 
-0.97700702116 -0.18613018815 -0.10398477612 -0.97471052331 -0.19888632473 -0.10190007643 -0.97365220838 -0.20436539846 -0.10117391476 
-0.97323209942 -0.20649927739 -0.1008827492 -0.97198371984 -0.21286460826 -0.099681025887 -0.96697083874 -0.23769939813 -0.09201300538 
-0.95073619472 -0.30470536658 -0.057055478555 -0.90432517166 -0.42428916666 0.046633539004 -0.79659976602 -0.55629128921 0.23657729039 
-0.62270238421 -0.63961040551 0.4507108495 -0.43385766639 -0.66290438361 0.61018464706 -0.28117597386 -0.65458999091 0.70174925402 
-0.17745183389 -0.63833077987 0.74902914637 -0.11694463973 -0.62482039729 0.77196076479 -0.092837422219 -0.61838133775 0.78037538029 
-0.10110702016 -0.62079263771 0.77742772747 -0.13872695402 -0.63198188645 0.76246555819 -0.20068435539 -0.64970374521 0.73321949849 
-0.27835006351 -0.6699856904 0.68821538548 -0.36250784717 -0.68911375236 0.62746338304 -0.4487264981 -0.70500892354 0.54918753412 
-0.53580854188 -0.71545284913 0.44837085891 -0.62153589881 -0.71492881403 0.32026538582 -0.69951232652 -0.69322375622 0.17356073537 
-0.76716590371 -0.64065287677 0.031943194556 -0.81473118543 -0.57687271101 -0.058574489074 -0.84768680035 -0.5201773783 -0.10412772738 
-0.84768680035 -0.5201773783 -0.10412772738 
