# vtk DataFile Version 4.2
vtk output
ASCII
DATASET POLYDATA
POINTS 64 float
0 0 0 -0.958135 -0.31531 0.106103 -1.92737 -0.594481 0.220959 
-2.89883 -0.854848 0.352641 -3.86494 -1.1218 0.510757 -4.81439 -1.42289 0.703738 
-5.73669 -1.77713 0.934683 -6.62687 -2.18597 1.19896 -7.49094 -2.63358 1.48611 
-8.34212 -3.09836 1.78427 -9.19413 -3.56178 2.08216 -10.0573 -4.01445 2.36411 
-10.9374 -4.46157 2.59821 -11.8303 -4.93373 2.69511 -12.6489 -5.47363 2.43531 
-13.2366 -6.01468 1.80993 -13.6966 -6.5267 1.06445 -14.1141 -7.02853 0.287733 
-14.4975 -7.53492 -0.503447 -14.8264 -8.05886 -1.30766 -15.0618 -8.61298 -2.12434 
-15.1462 -9.20595 -2.9433 -15.0193 -9.83027 -3.73294 -14.6681 -10.4595 -4.44723 
-14.1425 -11.0734 -5.06056 -13.5042 -11.6725 -5.57362 -12.7966 -12.2671 -5.99206 
-12.0458 -12.8684 -6.31475 -11.2679 -13.4845 -6.52643 -10.4756 -14.1154 -6.58649 
-9.69514 -14.7343 -6.39393 -9.06935 -15.1844 -5.73571 -8.88463 -15.2228 -4.73833 
-9.00267 -15.0435 -3.7471 -9.2696 -14.8246 -2.79293 -9.63335 -14.6594 -1.86033 
-10.0715 -14.6219 -0.94597 -10.5616 -14.7675 -0.0696325 -11.0737 -15.1037 0.739221 
-11.5833 -15.5871 1.47137 -12.0788 -16.1647 2.14238 -12.5524 -16.8004 2.77563 
-12.9916 -17.4763 3.39181 -13.374 -18.1876 4.00604 -13.6655 -18.9354 4.62667 
-13.8205 -19.7182 5.25329 -13.7926 -20.5197 5.87475 -13.557 -21.3045 6.4731 
-13.1285 -22.0321 7.0356 -12.5477 -22.6772 7.56096 -11.8581 -23.2331 8.05575 
-11.0947 -23.7047 8.52928 -10.2825 -24.1009 8.99052 -9.43795 -24.4298 9.44656 
-8.57068 -24.6944 9.90184 -7.68645 -24.8924 10.3583 -6.79032 -25.0209 10.8164 
-5.88856 -25.0823 11.2773 -4.98816 -25.0908 11.745 -4.09522 -25.0709 12.2262 
-3.21437 -25.0529 12.7296 -2.35117 -25.0673 13.2622 -1.51257 -25.1432 13.829 
-0.710413 -25.3035 14.4288 
LINES 1 65
64 0 1 2 3 4 5 6 7 8 9 10 11 12 13 14 15 16 17 18 19 20 21 22 23 24 25 26 27 28 29 30 31 32 33 34 35 36 37 38 39 40 41 42 43 44 45 46 47 48 49 50 51 52 53 54 55 56 57 58 59 60 61 62 63 

POINT_DATA 64
SCALARS MaximumInscribedSphereRadius float
LOOKUP_TABLE default
1.116 1.18039 1.2488 1.35987 1.50195 1.5377 1.44567 1.33987 1.21426 
1.11714 1.116 1.12129 1.34137 1.49986 1.26699 1.2401 1.24 1.24 
1.28006 1.41854 1.53738 1.39338 1.24582 1.38114 1.51766 1.63065 1.73426 
1.78232 1.67783 1.56156 1.70163 1.80926 1.6041 1.32762 1.03667 1.2698 
1.76838 1.93421 1.85149 1.76053 1.66102 1.60574 1.73496 1.86828 2.11467 
2.38474 2.27655 1.98115 1.86 1.86 1.86 1.8597 1.83781 1.70072 
1.56238 1.48267 1.40756 1.23266 1.0226 0.93 0.929854 0.885213 0.750732 
0.62 
TEXTURE_COORDINATES TCoords 2 float
0 0 0.015873 0 0.031746 0 0.047619 0 0.0634921 
0 0.0793651 0 0.0952381 0 0.111111 0 0.126984 0 
0.142857 0 0.15873 0 0.174603 0 0.190476 0 0.206349 
0 0.222222 0 0.238095 0 0.253968 0 0.269841 0 
0.285714 0 0.301587 0 0.31746 0 0.333333 0 0.349206 
0 0.365079 0 0.380952 0 0.396825 0 0.412698 0 
0.428571 0 0.444444 0 0.460317 0 0.47619 0 0.492063 
0 0.507937 0 0.52381 0 0.539683 0 0.555556 0 
0.571429 0 0.587302 0 0.603175 0 0.619048 0 0.634921 
0 0.650794 0 0.666667 0 0.68254 0 0.698413 0 
0.714286 0 0.730159 0 0.746032 0 0.761905 0 0.777778 
0 0.793651 0 0.809524 0 0.825397 0 0.84127 0 
0.857143 0 0.873016 0 0.888889 0 0.904762 0 0.920635 
0 0.936508 0 0.952381 0 0.968254 0 0.984127 0 
1 0 
FIELD FieldData 4
Curvature 1 64 float
0.0818382 0.072029 0.059745 0.0520268 0.0585453 0.0714298 0.0745301 0.0596465 0.0328399 
0.00611513 0.0384904 0.106044 0.230916 0.440974 0.482548 0.270484 0.144974 0.0760624 
0.0593203 0.0975471 0.156717 0.215944 0.239488 0.209406 0.160287 0.121091 0.102634 
0.115691 0.170516 0.291112 0.555428 0.765073 0.393333 0.178206 0.112361 0.147525 
0.193911 0.204761 0.169715 0.117846 0.0742652 0.0536683 0.0667998 0.101191 0.143533 
0.184313 0.208798 0.203404 0.17668 0.143597 0.113025 0.0885487 0.0732243 0.0680769 
0.0691665 0.0707754 0.0671487 0.0535974 0.0341864 0.0280536 0.0486915 0.0756579 0.100765 
0.120342 
Torsion 1 64 float
0.0400934 0.0757249 0.154263 0.257686 0.207479 0.102573 0.0335022 -0.0103941 -0.0442117 
-0.834863 -0.143852 -0.100312 -0.0818374 -0.0565248 -0.0118039 0.0123022 -0.0196687 -0.083475 
-0.0985274 -0.0251957 -0.00593186 -0.00572683 -0.0271266 -0.068107 -0.119426 -0.177693 -0.196256 
-0.105456 -0.0113661 0.0354585 0.0525605 -0.0144976 -0.138303 -0.387076 -0.699031 -0.298138 
-0.116617 -0.043917 -0.0267067 -0.0690036 -0.231718 -0.475289 -0.27108 -0.086215 -0.0352137 
-0.0351726 -0.0591959 -0.0817754 -0.0910255 -0.0964783 -0.106548 -0.115387 -0.112933 -0.0780277 
-0.0448612 -0.0370635 -0.0736564 -0.192884 -0.599175 -0.948509 -0.308968 -0.119622 -0.0592369 
-0.0336972 
Abscissas 1 64 double
0 1.0142492026 2.0294040291 3.0437364809 4.0584496356 5.0730177913 6.0876363178 7.1022375046 8.1168438762 
9.1314498735 10.146052627 11.160668462 12.175226272 13.189887805 14.204396708 15.218891027 16.233529352 17.248124656 
18.262733435 19.277337678 20.29194294 21.306552409 22.321157509 23.335752796 24.350358154 25.364964796 26.379571468 
27.394175082 28.408790601 29.423362209 30.437912292 31.451524596 32.466596943 33.480800328 34.495487164 35.510071566 
36.524675718 37.539271846 38.553887849 39.56849568 40.583101441 41.59770661 42.612311548 43.626918173 44.641524012 
45.656128136 46.670729463 47.685334701 48.6999415 49.714548598 50.729154888 51.743761412 52.75836741 53.772973145 
54.787578004 55.802183408 56.816790338 57.831392586 58.846008962 59.860583029 60.875273795 61.889672392 62.904675588 
63.919028395 
ParallelTransportNormals 3 64 double
0.11006631203 0 0.99392424608 0.11706517981 0.0021588098126 0.99312188739 0.13261294842 0.0064812205435 0.99114670947 
0.15790136845 0.013363579103 0.98736445784 0.19197574722 0.023468086444 0.98111903529 0.22948869501 0.036601829903 0.9726228688 
0.2628013018 0.050626924222 0.96352083024 0.28576695706 0.061839219014 0.95630181284 0.29672147506 0.067666224702 0.952563724 
0.29637964855 0.067479939134 0.9526833481 0.28158933453 0.059580208771 0.95768347871 0.23898885675 0.037591875543 0.97029437659 
0.12035538476 -0.023918587945 0.99244268475 -0.17505322689 -0.19859970322 0.96432075869 -0.45615260845 -0.41465585299 0.78739146641 
-0.54068282125 -0.4996203952 0.67678766797 -0.56167989851 -0.52388147007 0.64036231692 -0.57178870801 -0.53660691841 0.62057287123 
-0.58213935003 -0.55157879916 0.59738982705 -0.5945530202 -0.57529499318 0.56173158803 -0.6052926471 -0.61381752331 0.50680258429 
-0.60333358746 -0.66990059436 0.43269131713 -0.57992418743 -0.73128111093 0.35904856722 -0.54720357351 -0.77767270127 0.30950511924 
-0.52322245617 -0.80266588786 0.28629658367 -0.51481732693 -0.81011999803 0.28047942648 -0.521986686 -0.8042414335 0.28412253746 
-0.5438373085 -0.78683963411 0.29176081314 -0.58068238473 -0.75757632759 0.29813767951 -0.637388159 -0.71251388049 0.29336036691 
-0.72148390713 -0.64859082244 0.24246838308 -0.78096570383 -0.6127345015 0.12103305381 -0.78438980335 -0.61998543963 0.018726746708 
-0.76716627567 -0.63779964081 -0.068319277354 -0.73339141548 -0.65837216741 -0.16936091897 -0.6778509141 -0.67241296453 -0.29728596231 
-0.60067409919 -0.66342310399 -0.4461618671 -0.51721966542 -0.62330476032 -0.58649381366 -0.44953498454 -0.56900983112 -0.68858268186 
-0.40576642658 -0.52281229558 -0.74968053907 -0.38229845516 -0.4934293167 -0.78126525624 -0.37341865298 -0.48066921779 -0.79342019931 
-0.37447850181 -0.48245864473 -0.791833005 -0.38152710848 -0.49772106044 -0.77891643421 -0.39009676341 -0.52709792096 -0.754978342 
-0.3936829839 -0.57177884745 -0.71977958973 -0.38401452171 -0.62997956644 -0.67502488323 -0.35603081411 -0.69370532595 -0.62611099667 
-0.31246032728 -0.75296537613 -0.57914737868 -0.26073305333 -0.80186981216 -0.53760866738 -0.20725944421 -0.83968225087 -0.50197334627 
-0.15576383425 -0.8680425893 -0.47142304898 -0.10660939984 -0.88955812488 -0.44420803496 -0.057203584846 -0.90668763405 -0.41790583166 
-0.0045998059031 -0.92058135498 -0.3905237645 0.051507692922 -0.93087012483 -0.36170121408 0.10666180541 -0.93669445059 -0.33350676979 
0.15217017934 -0.93846031969 -0.31005880876 0.18003566405 -0.93828367429 -0.29531492719 0.18607767897 -0.93815449538 -0.29196102513 
0.17023194034 -0.93818708421 -0.30137365762 0.13460102358 -0.93629737693 -0.32439140928 0.083832288897 -0.92898897209 -0.36048805399 
0.083832288897 -0.92898897209 -0.36048805399 
