# vtk DataFile Version 4.2
vtk output
ASCII
DATASET POLYDATA
POINTS 64 float
0 0 0 -0.884956 0.214088 0.518713 -1.76459 0.32419 0.929306 
-2.72147 0.289403 1.27285 -3.66646 0.00752243 1.50469 -4.5025 -0.54911 1.63475 
-5.20303 -1.27699 1.72432 -5.83576 -2.06345 1.82681 -6.47417 -2.84183 1.95289 
-7.16389 -3.57702 2.06645 -7.91561 -4.25723 2.09225 -8.69355 -4.88747 1.93455 
-9.39524 -5.46841 1.49362 -9.85763 -5.97913 0.753512 -10.0002 -6.40668 -0.153073 
-9.8734 -6.77231 -1.08986 -9.56023 -7.11183 -1.99273 -9.13119 -7.46459 -2.84151 
-8.6382 -7.8702 -3.62982 -8.11755 -8.36309 -4.3473 -7.59382 -8.96785 -4.97041 
-7.08142 -9.69879 -5.4507 -6.58922 -10.556 -5.67418 -6.17393 -11.406 -5.34543 
-5.99338 -11.8196 -4.44773 -6.01079 -11.8578 -3.436 -6.15205 -11.7562 -2.4366 
-6.40174 -11.6482 -1.45941 -6.75901 -11.6427 -0.510538 -7.20614 -11.82 0.381583 
-7.70357 -12.191 1.18325 -8.21608 -12.7124 1.8861 -8.72232 -13.339 2.50251 
-9.20503 -14.0416 3.05241 -9.64096 -14.8044 3.55966 -9.99783 -15.6187 4.04811 
-10.2337 -16.4761 4.53572 -10.2991 -17.36 5.02796 -10.1428 -18.2347 5.51526 
-9.73515 -19.0409 5.97375 -9.09726 -19.716 6.3787 -8.29762 -20.2346 6.72432 
-7.40715 -20.6158 7.02508 -6.4723 -20.896 7.30189 -5.51734 -21.1064 7.57224 
-4.55318 -21.261 7.84754 -3.58365 -21.3502 8.13257 -2.61284 -21.3416 8.42637 
-1.65401 -21.1991 8.72444 -0.72661 -20.9196 9.02546 0.164465 -20.5497 9.33923 
1.03435 -20.1584 9.68496 1.90143 -19.8133 10.0826 2.77195 -19.5797 10.5474 
3.62944 -19.5245 11.0851 4.42531 -19.7112 11.6832 5.07979 -20.1763 12.2998 
5.52347 -20.8836 12.8729 5.76421 -21.7331 13.3711 5.86872 -22.6401 13.8128 
5.90667 -23.5612 14.2377 5.94034 -24.4709 14.6931 6.02209 -25.3048 15.2004 
6.27565 -26.0422 15.8971 
LINES 1 65
64 0 1 2 3 4 5 6 7 8 9 10 11 12 13 14 15 16 17 18 19 20 21 22 23 24 25 26 27 28 29 30 31 32 33 34 35 36 37 38 39 40 41 42 43 44 45 46 47 48 49 50 51 52 53 54 55 56 57 58 59 60 61 62 63 

POINT_DATA 64
SCALARS MaximumInscribedSphereRadius float
LOOKUP_TABLE default
1.24 1.24 1.24 1.23176 1.09437 0.938107 0.950449 1.09574 1.24567 
1.26925 1.32137 1.41112 1.59937 1.37842 1.14475 1.22448 1.24 1.29631 
1.47424 1.66048 1.81888 1.82997 1.6616 1.37973 1.31334 1.49971 1.55 
1.61 1.81458 1.85992 1.79274 1.59437 1.69636 1.83682 1.86 1.77547 
1.59056 1.71176 1.91488 2.12097 2.17 2.05373 1.7122 1.56037 1.58358 
1.74071 1.86608 1.86544 1.86 2.04801 2.71676 2.91296 2.54533 2.14882 
2.06863 2.57325 2.37376 2.27306 2.42723 2.14791 1.93115 2.06601 1.84504 
1.24 
TEXTURE_COORDINATES TCoords 2 float
0 0 0.015873 0 0.031746 0 0.047619 0 0.0634921 
0 0.0793651 0 0.0952381 0 0.111111 0 0.126984 0 
0.142857 0 0.15873 0 0.174603 0 0.190476 0 0.206349 
0 0.222222 0 0.238095 0 0.253968 0 0.269841 0 
0.285714 0 0.301587 0 0.31746 0 0.333333 0 0.349206 
0 0.365079 0 0.380952 0 0.396825 0 0.412698 0 
0.428571 0 0.444444 0 0.460317 0 0.47619 0 0.492063 
0 0.507937 0 0.52381 0 0.539683 0 0.555556 0 
0.571429 0 0.587302 0 0.603175 0 0.619048 0 0.634921 
0 0.650794 0 0.666667 0 0.68254 0 0.698413 0 
0.714286 0 0.730159 0 0.746032 0 0.761905 0 0.777778 
0 0.793651 0 0.809524 0 0.825397 0 0.84127 0 
0.857143 0 0.873016 0 0.888889 0 0.904762 0 0.920635 
0 0.936508 0 0.952381 0 0.968254 0 0.984127 0 
1 0 
FIELD FieldData 4
Curvature 1 64 float
0.0969697 0.121649 0.158902 0.2078 0.227106 0.167636 0.0836777 0.0409754 0.0508394 
0.0899563 0.143647 0.21876 0.282274 0.269176 0.202918 0.140234 0.0937314 0.0752734 
0.0824709 0.104231 0.140141 0.216392 0.424652 0.584541 0.332871 0.149161 0.079909 
0.110579 0.152575 0.159805 0.132088 0.100275 0.0753607 0.0627256 0.0680167 0.0925422 
0.124473 0.159432 0.187334 0.194562 0.168385 0.124255 0.0811594 0.0518957 0.0411912 
0.0507931 0.0738354 0.0982242 0.101436 0.0739365 0.0368828 0.0508872 0.094176 0.140435 
0.186094 0.225806 0.233316 0.190416 0.120209 0.0547835 0.0279313 0.0871194 0.177633 
0.272257 
Torsion 1 64 float
-0.0615021 -0.0761868 -0.091998 -0.108002 -0.125079 -0.159588 -0.29179 -0.583286 -0.542787 
-0.377837 -0.260954 -0.183378 -0.142883 -0.114807 -0.113498 -0.156019 -0.286967 -0.365045 
-0.216366 -0.0550938 0.0456509 0.0921326 0.0907975 0.0383568 -0.074334 -0.29152 -0.705149 
-0.358041 -0.139366 -0.0544287 -0.0307361 -0.0542778 -0.155498 -0.295973 -0.274182 -0.133523 
-0.0528885 -0.0246275 -0.0216216 -0.0287894 -0.0412381 -0.0568388 -0.0863673 -0.136942 -0.109657 
0.00557358 0.0293193 0.00368921 -0.0521919 -0.208079 -0.830983 -0.490027 -0.105255 -0.0325942 
-0.0125163 -0.00653516 9.39851e-05 0.0158619 0.0534552 0.401999 1.0023 0.14064 0.0428444 
0.0186585 
Abscissas 1 64 double
0 1.0478757151 2.0248424759 3.0421224097 4.0551442919 5.0679197641 6.0821077049 7.0966874689 8.1112449083 
9.1256961126 10.139823212 11.153357389 12.165426573 13.176556572 14.188998512 15.202572526 16.216733805 17.231108817 
18.245501176 19.259788215 20.273834137 21.287498353 22.300893168 23.302463373 24.307207098 25.319808604 26.334244695 
27.348590063 28.362509037 29.376041539 30.389815578 31.403954591 32.418295032 33.432732802 34.447192742 35.461575776 
36.475744073 37.489585565 38.503014021 39.516106467 40.529348762 41.543150234 42.557400366 43.571849355 44.586386779 
45.600932505 46.615424986 47.62975143 48.643917851 49.658197806 50.672729968 51.687304408 52.701714752 53.71581707 
54.729454742 55.742382859 56.754736617 57.767462026 58.781277277 59.795492414 60.810570377 61.828427143 62.807954568 
63.853629147 
ParallelTransportNormals 3 64 double
0.50567983211 0 0.86272122229 0.42443883079 0.014759497105 0.90533631108 0.33725321212 0.01847718831 0.94123263035 
0.23773707326 0.0018801213881 0.97132772489 0.17240045041 -0.028881990849 0.98460343048 0.16365542787 -0.03619140391 0.98585347959 
0.18050135029 -0.017057877097 0.98342681038 0.19410895006 -0.00030626804607 0.98097992931 0.17973426697 -0.016688029644 0.9835736388 
0.1105536444 -0.084618077922 0.99026141629 -0.031274326286 -0.20611858347 0.97802711929 -0.24486067504 -0.38095510141 0.89158087717 
-0.45289716101 -0.57606305155 0.68046713527 -0.5464201435 -0.72106699757 0.42601339391 -0.54803887277 -0.80167019764 0.23870125294 
-0.5232236376 -0.84144515964 0.1349335702 -0.50794517671 -0.85569584504 0.098875266022 -0.51635449699 -0.84877921349 0.11380632752 
-0.54989271208 -0.81905053966 0.16362829427 -0.60368057041 -0.76251818855 0.23267097164 -0.6729924938 -0.67316434742 0.30648142628 
-0.76146546127 -0.53329976859 0.36845855685 -0.88715466551 -0.29673110147 0.35342220204 -0.98354552581 -0.092326997576 0.15528658726 
-0.99851992876 -0.050919313214 -0.01910956337 -0.98943722535 -0.054543517543 -0.13430927658 -0.96849261447 -0.06577141914 -0.2402002834 
-0.93355255594 -0.07230180182 -0.35107274853 -0.88722831081 -0.062406765801 -0.45709005687 -0.84163203158 -0.03594063999 -0.53885414892 
-0.80631451315 -0.0047361617869 -0.59146806732 -0.78315227706 0.021364017116 -0.62146286269 -0.77289970827 0.035144538243 -0.63355418267 
-0.77792785883 0.027123845826 -0.62776790572 -0.79765911947 -0.012125209204 -0.60298665692 -0.82527518392 -0.09000939522 -0.55751159592 
-0.84607333711 -0.21025079794 -0.48985151853 -0.83769867424 -0.37223229501 -0.39962989093 -0.77493914134 -0.55929631513 -0.29437554095 
-0.65261219145 -0.73260563499 -0.19335540113 -0.50461553942 -0.85550499082 -0.1160791457 -0.3737538427 -0.92517462205 -0.066030173202 
-0.27730636067 -0.96012502982 -0.035512102818 -0.21073851235 -0.97740759091 -0.016238246311 -0.15799165002 -0.9874396681 -0.0012411223207 
-0.096431968522 -0.99520119427 0.016596938463 -0.0044853119216 -0.99902031979 0.044025931352 0.12138166097 -0.98916039747 0.082632925933 
0.24940107004 -0.96051951862 0.12329379797 0.33296046003 -0.93068360766 0.15154324296 0.35192263947 -0.92248701849 0.15864474954 
0.30979953682 -0.94034619497 0.14061749746 0.21192521812 -0.9729421513 0.09203951409 0.061371820128 -0.99810392345 0.0046965608556 
-0.13347675034 -0.98259886494 -0.12916434394 -0.34359510032 -0.88815660061 -0.30515612371 -0.50897165856 -0.71161144604 -0.48431085126 
-0.59048628073 -0.52622925786 -0.6118894675 -0.6150237309 -0.40140451358 -0.67869008163 -0.61904341508 -0.34983365674 -0.70313701571 
-0.61825420558 -0.37000535906 -0.69343909001 -0.61265970402 -0.45377607318 -0.64709764524 -0.56960203564 -0.65939703329 -0.49066187287 
-0.56960203564 -0.65939703329 -0.49066187287 
