# vtk DataFile Version 4.2
vtk output
ASCII
DATASET POLYDATA
POINTS 64 float
0 0 0 -0.935766 0.348623 0.291506 -1.84913 0.49545 0.612564 
-2.80761 0.436395 0.972748 -3.70292 0.118675 1.3193 -4.5053 -0.426757 1.61558 
-5.1899 -1.14326 1.83126 -5.76487 -1.9696 1.95585 -6.2487 -2.86068 1.98714 
-6.65813 -3.7865 1.92114 -7.00037 -4.72492 1.74409 -7.26579 -5.65111 1.42693 
-7.41722 -6.52121 0.928627 -7.39536 -7.26619 0.241789 -7.17795 -7.85256 -0.556424 
-6.80462 -8.33124 -1.36915 -6.32852 -8.78321 -2.14267 -5.7948 -9.27832 -2.84911 
-5.24628 -9.87543 -3.45928 -4.74205 -10.6271 -3.91292 -4.38554 -11.5626 -4.07726 
-4.40503 -12.4688 -3.64397 -4.76686 -12.8083 -2.76051 -5.1672 -12.7512 -1.8327 
-5.52421 -12.5215 -0.910776 -5.80937 -12.2167 0.0138159 -5.99805 -11.9042 0.96036 
-6.05476 -11.6592 1.94291 -5.93803 -11.5899 2.94747 -5.64712 -11.8022 3.89456 
-5.26067 -12.2929 4.69314 -4.86399 -12.9741 5.33135 -4.4984 -13.7681 5.846 
-4.17461 -14.628 6.27622 -3.88802 -15.5258 6.65192 -3.62778 -16.4448 6.99425 
-3.37925 -17.3739 7.31727 -3.12607 -18.3052 7.63039 -2.85184 -19.2319 7.93932 
-2.54217 -20.1476 8.24755 -2.18491 -21.0447 8.55874 -1.76971 -21.9133 8.87885 
-1.28851 -22.7401 9.21673 -0.73706 -23.5088 9.58312 -0.117056 -24.2012 9.98967 
0.56286 -24.7993 10.4469 1.28904 -25.2868 10.9608 2.04754 -25.6515 11.5271 
2.82841 -25.889 12.1296 3.62727 -26.0048 12.7441 4.44463 -26.0153 13.3449 
5.28339 -25.9452 13.9114 6.14637 -25.8256 14.4313 7.03473 -25.692 14.9028 
7.94696 -25.5839 15.3335 8.87753 -25.5433 15.7356 9.81321 -25.6117 16.1215 
10.7295 -25.8219 16.5025 11.5935 -26.1843 16.8909 12.3733 -26.684 17.3057 
13.0393 -27.2895 17.7679 13.556 -27.9811 18.321 13.8816 -28.6729 18.9342 
13.9804 -29.3803 19.69 
LINES 1 65
64 0 1 2 3 4 5 6 7 8 9 10 11 12 13 14 15 16 17 18 19 20 21 22 23 24 25 26 27 28 29 30 31 32 33 34 35 36 37 38 39 40 41 42 43 44 45 46 47 48 49 50 51 52 53 54 55 56 57 58 59 60 61 62 63 

POINT_DATA 64
SCALARS MaximumInscribedSphereRadius float
LOOKUP_TABLE default
0.62 0.62 0.641034 0.755989 0.955274 1.24895 1.54018 1.68709 1.77312 
1.57477 1.38533 1.34941 1.40061 1.4856 1.49687 1.33972 1.30456 1.45898 
1.61837 1.79296 1.42606 1.0142 1.26178 1.59328 1.77516 1.68442 1.57066 
1.55 1.49783 1.35415 1.55911 1.98844 2.05334 1.90461 1.86135 1.85775 
1.77228 1.61998 1.46485 1.30793 1.42904 1.73394 1.67186 1.38542 1.3386 
1.49014 1.59 1.65051 1.74774 1.85737 1.87521 1.88265 1.98193 2.12426 
2.17998 2.19272 2.1948 2.19352 2.18277 2.17272 2.17 2.10557 1.84802 
1.55 
TEXTURE_COORDINATES TCoords 2 float
0 0 0.015873 0 0.031746 0 0.047619 0 0.0634921 
0 0.0793651 0 0.0952381 0 0.111111 0 0.126984 0 
0.142857 0 0.15873 0 0.174603 0 0.190476 0 0.206349 
0 0.222222 0 0.238095 0 0.253968 0 0.269841 0 
0.285714 0 0.301587 0 0.31746 0 0.333333 0 0.349206 
0 0.365079 0 0.380952 0 0.396825 0 0.412698 0 
0.428571 0 0.444444 0 0.460317 0 0.47619 0 0.492063 
0 0.507937 0 0.52381 0 0.539683 0 0.555556 0 
0.571429 0 0.587302 0 0.603175 0 0.619048 0 0.634921 
0 0.650794 0 0.666667 0 0.68254 0 0.698413 0 
0.714286 0 0.730159 0 0.746032 0 0.761905 0 0.777778 
0 0.793651 0 0.809524 0 0.825397 0 0.84127 0 
0.857143 0 0.873016 0 0.888889 0 0.904762 0 0.920635 
0 0.936508 0 0.952381 0 0.968254 0 0.984127 0 
1 0 
FIELD FieldData 4
Curvature 1 64 float
0.152988 0.180275 0.207496 0.224114 0.219124 0.194191 0.159943 0.128077 0.109788 
0.114228 0.146747 0.202176 0.25143 0.241811 0.173696 0.110876 0.0909034 0.126334 
0.208127 0.354456 0.648005 0.776847 0.390493 0.188527 0.101458 0.0927152 0.14494 
0.227733 0.300043 0.290137 0.225863 0.15779 0.105003 0.0668799 0.0409807 0.0255477 
0.0214042 0.025833 0.0339228 0.04419 0.0560436 0.0689249 0.0822435 0.0947194 0.105609 
0.113991 0.117917 0.115496 0.106534 0.0931989 0.0784039 0.0629812 0.0502726 0.0491886 
0.06728 0.0962861 0.124449 0.139747 0.141076 0.143305 0.159367 0.18828 0.216582 
0.226986 
Torsion 1 64 float
0.0318223 0.0419663 0.0545256 0.0687019 0.0814442 0.0910193 0.103764 0.126992 0.148496 
0.120551 0.0498993 -0.0205324 -0.0952029 -0.172184 -0.284646 -0.502118 -0.599954 -0.317068 
-0.117568 -0.0164759 0.0634391 0.111038 0.122702 0.218672 0.477779 0.516691 0.286391 
0.17521 0.146368 0.136603 0.124241 0.114215 0.101262 0.0768456 0.000527175 -0.174823 
-0.297701 -0.174824 -0.0873066 -0.0820189 -0.0974695 -0.102406 -0.101902 -0.104148 -0.0947769 
-0.0565549 0.00872693 0.0764289 0.142495 0.199891 0.258306 0.355694 0.539717 0.601719 
0.374642 0.190715 0.125979 0.138783 0.189357 0.218241 0.190469 0.13379 0.0863759 
0.0532622 
Abscissas 1 64 double
0 1.0402748323 2.019489969 3.0451217763 4.0563631791 5.0708093752 6.0849943352 7.0993685946 8.1138075836 
9.1282735132 10.142714768 11.157051357 12.171105173 13.184623344 14.198646507 15.213056249 16.227599306 17.242012982 
18.256768845 19.269241876 20.283699605 21.288373244 22.301637027 23.313747259 24.328730242 25.343145182 26.357647317 
27.371878793 28.385571535 29.398817595 30.412654018 31.426888334 32.441327709 33.455868195 34.470444986 35.485039523 
36.4996443 37.514248321 38.528847288 39.543431892 40.558005532 41.572558806 42.587090906 43.601594698 44.616071113 
45.630520475 46.644938865 47.659361845 48.673802056 49.688278232 50.702786342 51.717326824 52.731891094 53.74647429 
54.761047485 55.775570366 56.790014438 57.804384228 58.818661509 59.833505468 60.845281819 61.8705659 62.850652979 
63.890594326 
ParallelTransportNormals 3 64 double
0.29741908075 0 0.95474702953 0.330360944 -0.0087208496025 0.94381438507 0.35227890395 -0.0098050085609 0.93584370257 
0.36330025342 -0.0075535642428 0.93164149196 0.3537626002 -0.01240032674 0.93525304308 0.33066114991 -0.03200590166 0.94320667205 
0.30218340056 -0.066887791196 0.95090021338 0.27278253461 -0.11457731186 0.95522862626 0.24287185195 -0.17541571432 0.95406634502 
0.21081095731 -0.25493139487 0.94369948828 0.1754088338 -0.36356335492 0.91490624 0.14133748366 -0.51038705114 0.84825041924 
0.12852362936 -0.67017245396 0.73099285813 0.14779564613 -0.77742875467 0.61135994177 0.16793929888 -0.81374852136 0.55642585839 
0.16076186658 -0.80588467123 0.56982937703 0.12030975662 -0.76794595644 0.62911411561 0.046016958646 -0.69296931499 0.71949702432 
-0.067034841842 -0.54809623482 0.83372468319 -0.21948633693 -0.24935898559 0.94321039233 -0.33980177666 0.41162662369 0.84563483564 
-0.17878406696 0.94069952118 0.28830655257 -0.026783671714 0.99697847637 -0.07291469394 0.036807974818 0.97291377062 -0.22821912262 
0.060248237433 0.95340339186 -0.29562158629 0.061811230115 0.951367465 -0.30179350287 0.053788260773 0.9695985018 -0.23871650195 
0.058722952801 0.99541755458 -0.07546858183 0.11295354799 0.97638767898 0.18414286933 0.21059187138 0.87506428233 0.43579073591 
0.30120583367 0.739472977 0.60204215969 0.36359522994 0.6187285772 0.69640035649 0.40212478782 0.52628918606 0.74920981551 
0.42462807235 0.46148794981 0.77892225052 0.43710184374 0.42004535397 0.79530112461 0.44321998719 0.39782113329 0.8033021778 
0.44486016342 0.3917390957 0.80538184478 0.4428700748 0.39874983959 0.8030346582 0.43732560373 0.41624428168 0.7971743939 
0.42731642807 0.44345076784 0.78787821825 0.41062186298 0.4816126185 0.7742344421 0.38401862606 0.53192786339 0.75470685898 
0.34409649253 0.59360825494 0.72747978907 0.28812314492 0.66342226339 0.69054757534 0.21531310028 0.73570727999 0.64216436138 
0.12765686048 0.80338092275 0.58162085496 0.031156564961 0.85877153398 0.5114105209 -0.065412406003 0.89654704324 0.43809201818 
-0.1525470071 0.91603031245 0.37096883601 -0.22226925924 0.92148160005 0.31854047963 -0.26949062478 0.919784454 0.28525665871 
-0.29081664837 0.91740723589 0.27164248666 -0.28425999735 0.91835520349 0.27535427022 -0.24801358395 0.92322107083 0.29351680794 
-0.18049801314 0.9286694525 0.32402702859 -0.082857115653 0.92721397985 0.36525187743 0.036158320486 0.90931304518 0.41453873368 
0.15567920099 0.87087661724 0.46619513503 0.2524895044 0.8201042273 0.51349596544 0.31712097478 0.77068098769 0.5527070676 
0.35342518063 0.73091313145 0.58382928667 0.36740482047 0.70783625847 0.60330881735 0.36917509815 0.7020930541 0.60891304 
0.36917509815 0.7020930541 0.60891304 
