# vtk DataFile Version 4.2
vtk output
ASCII
DATASET POLYDATA
POINTS 64 float
0 0 0 -0.822663 0.186108 -0.237622 -1.98039 0.361835 -0.566771 
-2.89067 0.334124 -0.812496 -3.8674 0.16143 -1.05845 -4.80231 -0.198566 -1.2641 
-5.65001 -0.732062 -1.41074 -6.41963 -1.38977 -1.50005 -7.12239 -2.12105 -1.53782 
-7.78751 -2.88725 -1.53483 -8.44403 -3.66019 -1.50113 -9.11557 -4.41878 -1.4456 
-9.82107 -5.14509 -1.37853 -10.5742 -5.82233 -1.31507 -11.3829 -6.43469 -1.27952 
-12.2455 -6.96971 -1.30881 -13.1406 -7.42665 -1.45232 -14.0286 -7.82716 -1.739 
-14.8672 -8.20958 -2.16525 -15.633 -8.61297 -2.6957 -16.3216 -9.05748 -3.29449 
-16.9367 -9.54819 -3.93555 -17.4817 -10.0811 -4.60558 -17.9552 -10.6491 -5.3007 
-18.3497 -11.2446 -6.02175 -18.6506 -11.8595 -6.77124 -18.8352 -12.4847 -7.54983 
-18.8746 -13.1094 -8.34945 -18.7443 -13.7231 -9.14839 -18.4335 -14.3187 -9.91051 
-17.9531 -14.8972 -10.5937 -17.3287 -15.465 -11.1593 -16.5936 -16.0303 -11.5743 
-15.7849 -16.6 -11.808 -14.9445 -17.1728 -11.8229 -14.1306 -17.7334 -11.5828 
-13.4185 -18.2524 -11.0722 -12.8776 -18.699 -10.3372 -12.5236 -19.0703 -9.45847 
-12.3261 -19.3901 -8.51539 -12.2389 -19.6953 -7.55135 -12.224 -20.0218 -6.59052 
-12.2511 -20.4037 -5.6507 -12.2955 -20.8715 -4.75076 -12.3372 -21.4436 -3.91338 
-12.3642 -22.1156 -3.15289 -12.3711 -22.8649 -2.46831 -12.3568 -23.6615 -1.8399 
-12.3183 -24.4796 -1.24088 -12.2492 -25.2976 -0.644582 -12.1395 -26.0972 -0.0293782 
-11.9781 -26.8636 0.615831 -11.7589 -27.5908 1.28885 -11.4837 -28.2835 1.97748 
-11.1625 -28.9561 2.66602 -10.8087 -29.6243 3.34238 -10.4371 -30.2994 4.00263 
-10.0612 -30.9844 4.65113 -9.693 -31.6709 5.29542 -9.34211 -32.3426 5.97997 
-9.0224 -32.967 6.72111 -8.75756 -33.4904 7.46918 -8.54508 -33.8986 8.58709 
-8.44136 -34.0884 9.43986 
LINES 1 65
64 0 1 2 3 4 5 6 7 8 9 10 11 12 13 14 15 16 17 18 19 20 21 22 23 24 25 26 27 28 29 30 31 32 33 34 35 36 37 38 39 40 41 42 43 44 45 46 47 48 49 50 51 52 53 54 55 56 57 58 59 60 61 62 63 

POINT_DATA 64
SCALARS MaximumInscribedSphereRadius float
LOOKUP_TABLE default
0.9796 1.04926 1.12599 1.1982 1.23304 1.24 1.29171 1.42024 1.58183 
1.54639 1.37368 1.17411 1.08573 1.0335 0.993319 1.13511 1.1948 1.15946 
0.965818 1.07053 1.28079 1.5352 1.55673 1.57131 1.56088 1.4602 1.35096 
1.27602 1.25826 1.25078 1.28155 1.33592 1.37988 1.3888 1.41962 1.4974 
1.69735 1.81649 1.87198 1.88169 1.9637 2.06436 2.16534 2.05473 1.95623 
1.8848 1.8848 1.91018 1.97205 2.07704 2.09854 2.03421 1.90109 1.71659 
1.48865 1.31565 1.24 1.24 1.24 1.24 1.24 1.24 1.24 
1.24 
TEXTURE_COORDINATES TCoords 2 float
0 0 0.015873 0 0.031746 0 0.047619 0 0.0634921 
0 0.0793651 0 0.0952381 0 0.111111 0 0.126984 0 
0.142857 0 0.15873 0 0.174603 0 0.190476 0 0.206349 
0 0.222222 0 0.238095 0 0.253968 0 0.269841 0 
0.285714 0 0.301587 0 0.31746 0 0.333333 0 0.349206 
0 0.365079 0 0.380952 0 0.396825 0 0.412698 0 
0.428571 0 0.444444 0 0.460317 0 0.47619 0 0.492063 
0 0.507937 0 0.52381 0 0.539683 0 0.555556 0 
0.571429 0 0.587302 0 0.603175 0 0.619048 0 0.634921 
0 0.650794 0 0.666667 0 0.68254 0 0.698413 0 
0.714286 0 0.730159 0 0.746032 0 0.761905 0 0.777778 
0 0.793651 0 0.809524 0 0.825397 0 0.84127 0 
0.857143 0 0.873016 0 0.888889 0 0.904762 0 0.920635 
0 0.936508 0 0.952381 0 0.968254 0 0.984127 0 
1 0 
FIELD FieldData 4
Curvature 1 64 float
0.176673 0.206448 0.238558 0.268909 0.28586 0.264895 0.221337 0.158302 0.0999104 
0.0608716 0.0451171 0.0713364 0.104962 0.140862 0.177361 0.205616 0.214683 0.208541 
0.193499 0.173649 0.152156 0.13004 0.120012 0.122942 0.138257 0.168467 0.203425 
0.233681 0.254613 0.256463 0.256069 0.257064 0.26967 0.307115 0.353129 0.402162 
0.392788 0.335802 0.248689 0.16108 0.115696 0.106284 0.134147 0.165034 0.170265 
0.152173 0.107562 0.0664019 0.0505572 0.0698734 0.0947208 0.101503 0.0929159 0.0700718 
0.0525795 0.0382125 0.0265564 0.0231515 0.0545128 0.113139 0.187776 0.255621 0.300598 
0.313499 
Torsion 1 64 float
-0.0106761 -0.01542 -0.0226154 -0.0326146 -0.0472977 -0.0688231 -0.10484 -0.160386 -0.410668 
-0.887701 -1.24677 -0.529296 -0.32111 -0.293058 -0.34252 -0.41475 -0.46772 -0.482601 
-0.394982 -0.263893 -0.130756 -0.0116406 0.0782069 0.112219 0.0993 0.0498962 -0.0183637 
-0.0941413 -0.173836 -0.215871 -0.241333 -0.244828 -0.203636 -0.147341 -0.100881 -0.0751472 
-0.0839637 -0.125416 -0.22108 -0.437496 -0.766659 -0.799665 -0.386359 -0.202428 -0.108536 
-0.104688 -0.223961 -0.958408 -1.1483 -0.360734 -0.0739494 0.128094 0.287564 0.493911 
0.623599 0.705411 0.743943 1.2772 0.923702 0.144969 0.0647032 0.0320351 0.0166943 
0.00907095 
Abscissas 1 64 double
0 0.87628477207 2.092649355 3.0359221859 4.0578465819 5.0805520932 6.0928414022 7.1091417667 8.1240673993 
9.1386869553 10.153371317 11.168022612 12.182790202 13.19763267 14.21261156 15.228088851 16.243288451 17.258774349 
18.274177334 19.289330912 20.304398807 21.319344995 22.334219429 23.34914093 24.364081377 25.379127191 26.394603591 
27.410089302 28.42589621 29.441867182 30.457808425 31.473803102 32.489771681 33.506206942 34.523319939 35.540418891 
36.558719078 37.57475906 38.592297926 39.607543203 40.622487516 41.637368214 42.652186883 43.667430758 44.6824126 
45.697631082 46.712598801 47.72735382 48.742050947 49.756685909 50.771490787 51.786229092 52.801037273 53.815779807 
54.830543697 55.844972779 56.859741994 57.875206789 58.886123215 59.907325514 60.92783471 61.878476797 63.087373639 
63.96715219 
ParallelTransportNormals 3 64 double
-0.27750005352 0 0.96072562176 -0.27357365381 -0.00074111115225 0.96185077153 -0.26057180201 -0.0015217810667 0.96545327188 
-0.24421882516 0.0001670304728 0.96972013362 -0.21760517768 0.0075820354143 0.97600742793 -0.18501803326 0.023935944077 0.98244358512 
-0.15430200825 0.046552204223 0.98692643218 -0.127712536 0.071637489726 0.98922069237 -0.10576595495 0.095663789258 0.98977876427 
-0.087242545709 0.11723547232 0.98926466744 -0.071380790589 0.13552738332 0.98819892284 -0.059201384808 0.14866079598 0.98711456467 
-0.054553695516 0.1531329237 0.98669863788 -0.065627113734 0.14398945888 0.9874006875 -0.10575870201 0.11643716237 0.98755125648 
-0.19166503185 0.067956965764 0.97910488017 -0.31142859055 0.010366794191 0.95021300905 -0.4358864333 -0.046070037847 0.89882176703 
-0.53309387433 -0.093683753981 0.84085330194 -0.60016348182 -0.13278439703 0.78877886572 -0.64539987253 -0.1652341202 0.74575913676 
-0.67918317972 -0.19504233513 0.7075794626 -0.70862643597 -0.22686767267 0.66811648187 -0.73695195105 -0.26483502945 0.62190371363 
-0.76454029507 -0.3128548241 0.56356010882 -0.78865276577 -0.37445038545 0.48766148493 -0.80229195973 -0.45054367824 0.39158396973 
-0.7960466675 -0.53571110347 0.28164395394 -0.76522322322 -0.62020407638 0.17256976062 -0.71627956454 -0.69284004528 0.083164037217 
-0.66178655204 -0.74938196336 0.021569249514 -0.61412477457 -0.78910500558 -0.012808256448 -0.58087522014 -0.8135519546 -0.026780511445 
-0.56332511037 -0.82571111891 -0.029427336389 -0.56112911519 -0.82721560076 -0.029128438574 -0.57229364211 -0.81931770258 -0.034619206177 
-0.59139430935 -0.80459828768 -0.053613117225 -0.60996197801 -0.7876309584 -0.087085353197 -0.62325145079 -0.77097032381 -0.13100530104 
-0.63082468253 -0.75433907439 -0.18174922489 -0.63391227407 -0.73523606315 -0.23996491455 -0.63348189101 -0.71028138249 -0.30692189798 
-0.63055815502 -0.67550704219 -0.38221283219 -0.62667332077 -0.62856597702 -0.46063582316 -0.62369383311 -0.57463291592 -0.52990849632 
-0.62250353186 -0.52472922514 -0.58064498026 -0.62266303858 -0.49150868452 -0.60885955148 -0.62300758669 -0.48098151003 -0.61686168136 
-0.62209657332 -0.49483484242 -0.60674074545 -0.6181177911 -0.53084458467 -0.57977100933 -0.60928491649 -0.58186936974 -0.53870207638 
-0.59578406769 -0.63484978284 -0.49194216929 -0.58064912573 -0.67831909884 -0.4502552531 -0.56896949494 -0.70505388792 -0.42328799766 
-0.56357801553 -0.71576370428 -0.41238591155 -0.56408772211 -0.71481981996 -0.41332513443 -0.56756593716 -0.70849180359 -0.41941420007 
-0.5701839885 -0.70366586444 -0.42396293527 -0.56405801182 -0.71523624313 -0.41264473317 -0.55131514456 -0.73986536341 -0.38555266229 
-0.53659678171 -0.76877324519 -0.34792469205 -0.50036483098 -0.83960204283 -0.21143189351 -0.48814507982 -0.86262807089 -0.13261671219 
-0.48814507982 -0.86262807089 -0.13261671219 
