# vtk DataFile Version 4.2
vtk output
ASCII
DATASET POLYDATA
POINTS 64 float
0 0 0 -0.891403 0.429412 0.249657 -1.75828 0.884585 0.495806 
-2.62848 1.3303 0.763629 -3.51507 1.71588 1.07002 -4.42966 1.96714 1.42732 
-5.35777 1.99535 1.83117 -6.24715 1.76363 2.25654 -7.06726 1.34388 2.68022 
-7.87425 0.861839 3.06138 -8.75851 0.408017 3.24829 -9.65523 -0.00497961 3.03952 
-10.3939 -0.444098 2.50553 -10.8955 -0.956183 1.79163 -11.0631 -1.50405 0.960146 
-10.8287 -1.99307 0.10797 -10.3032 -2.40604 -0.653161 -9.6369 -2.8149 -1.29897 
-8.91502 -3.29235 -1.827 -8.19489 -3.91385 -2.17052 -7.7399 -4.70091 -1.86711 
-7.91253 -5.03336 -0.929727 -8.26316 -5.04487 0.0206213 -8.70167 -4.83401 0.908579 
-9.20813 -4.38217 1.65937 -9.7111 -3.75019 2.27226 -10.1405 -3.05733 2.8757 
-10.4394 -2.43074 3.61213 -10.5207 -2.11733 4.56203 -10.3427 -2.47418 5.47341 
-10.0885 -3.32029 5.95493 -9.88113 -4.30743 6.01598 -9.73696 -5.28583 5.79486 
-9.63135 -6.24515 5.4819 -9.52735 -7.23878 5.32105 -9.40978 -8.20905 5.56814 
-9.29127 -9.03169 6.14676 -9.14155 -9.73893 6.85807 -8.88122 -10.3862 7.59355 
-8.40585 -10.9675 8.27223 -7.70078 -11.4144 8.84513 -6.86363 -11.6973 9.34169 
-5.97416 -11.8307 9.80993 -5.0633 -11.8331 10.2558 -4.13613 -11.7229 10.6516 
-3.1911 -11.5265 10.963 -2.23153 -11.285 11.1866 -1.26564 -11.0407 11.3784 
-0.309376 -10.8194 11.6338 0.614304 -10.6316 12.0079 1.50135 -10.5004 12.4818 
2.3588 -10.4925 13.0221 3.13484 -10.7772 13.6002 3.54402 -11.523 14.1265 
3.48206 -12.4371 14.5544 3.19318 -13.3114 14.9789 2.80905 -14.1325 15.4343 
2.35565 -14.9241 15.8777 1.76696 -15.7006 16.1472 0.999102 -16.2505 15.8373 
0.275323 -16.4813 15.1656 -0.454452 -16.6857 14.4924 -1.25285 -17.0441 13.9948 
-2.06334 -17.6385 13.861 
LINES 1 65
64 0 1 2 3 4 5 6 7 8 9 10 11 12 13 14 15 16 17 18 19 20 21 22 23 24 25 26 27 28 29 30 31 32 33 34 35 36 37 38 39 40 41 42 43 44 45 46 47 48 49 50 51 52 53 54 55 56 57 58 59 60 61 62 63 

POINT_DATA 64
SCALARS MaximumInscribedSphereRadius float
LOOKUP_TABLE default
1.116 1.116 1.03215 1.08224 1.1752 1.02774 1.46268 1.7409 1.64693 
1.55 1.42125 1.20658 1.20396 1.30898 1.00263 1.46583 1.33616 1.3032 
1.4161 1.58406 1.96382 2.0564 2.08219 2.84413 3.37276 2.24981 2.18862 
2.36922 1.97768 1.64822 1.99371 2.47732 2.48 2.2889 2.47886 2.66041 
2.30602 1.83264 1.55981 1.29883 1.7081 1.68069 1.86871 2.35638 2.21588 
1.74829 1.71744 1.86899 1.87924 1.86342 1.87897 1.92864 1.74172 1.78625 
1.80186 1.7179 2.40573 2.69609 2.79 3.24075 3.20363 3.07594 2.89591 
2.4986 
TEXTURE_COORDINATES TCoords 2 float
0 0 0.015873 0 0.031746 0 0.047619 0 0.0634921 
0 0.0793651 0 0.0952381 0 0.111111 0 0.126984 0 
0.142857 0 0.15873 0 0.174603 0 0.190476 0 0.206349 
0 0.222222 0 0.238095 0 0.253968 0 0.269841 0 
0.285714 0 0.301587 0 0.31746 0 0.333333 0 0.349206 
0 0.365079 0 0.380952 0 0.396825 0 0.412698 0 
0.428571 0 0.444444 0 0.460317 0 0.47619 0 0.492063 
0 0.507937 0 0.52381 0 0.539683 0 0.555556 0 
0.571429 0 0.587302 0 0.603175 0 0.619048 0 0.634921 
0 0.650794 0 0.666667 0 0.68254 0 0.698413 0 
0.714286 0 0.730159 0 0.746032 0 0.761905 0 0.777778 
0 0.793651 0 0.809524 0 0.825397 0 0.84127 0 
0.857143 0 0.873016 0 0.888889 0 0.904762 0 0.920635 
0 0.936508 0 0.952381 0 0.968254 0 0.984127 0 
1 0 
FIELD FieldData 4
Curvature 1 64 float
0.0686163 0.0306615 0.0155668 0.0398302 0.081004 0.124431 0.143135 0.109614 0.0392813 
0.121465 0.225089 0.202639 0.161969 0.189028 0.223294 0.175598 0.102572 0.0772055 
0.140105 0.435756 0.658281 0.202425 0.126678 0.15626 0.129696 0.0583965 0.108284 
0.243259 0.410248 0.365189 0.239967 0.15639 0.0569479 0.0983435 0.233709 0.200106 
0.0952759 0.0706455 0.128928 0.159138 0.125071 0.0878374 0.0710183 0.0661563 0.0664573 
0.0550331 0.0218039 0.0379046 0.0725718 0.064166 0.0774224 0.173198 0.339367 0.297653 
0.139231 0.061883 0.0503324 0.151215 0.403086 0.293186 0.0736952 0.130556 0.246053 
0.249245 
Torsion 1 64 float
-0.0369998 -0.130259 -0.460007 -0.13776 -0.0609997 -0.0330337 4.42691e-05 0.000613211 -1.02264 
-0.0170347 0.173996 0.2152 0.100791 -0.0476436 -0.00373086 0.105729 0.256952 0.287652 
0.0690424 -0.0360413 -0.0753602 -0.0298892 0.0196077 -0.0250293 -0.164288 -0.876021 -0.292474 
-0.106974 -0.0925497 -0.0592659 -0.0214297 -0.0205445 -0.220505 -0.148288 -0.000505787 -0.0244014 
-0.275945 -0.481589 -0.0303937 0.0810974 0.16508 0.121566 -0.0505275 -0.165915 -0.176112 
-0.156497 -0.621021 -0.173334 0.000513523 0.214319 0.244827 0.0441426 -0.0811357 -0.154526 
-0.183404 -0.104809 0.33102 0.0833587 -0.00428014 -0.0332512 -0.16567 -0.0430778 -0.00894053 
-0.00278083 
Abscissas 1 64 double
0 1.0204518633 2.0300277369 3.0437580705 4.0579532138 5.0714929608 6.0840590484 7.0967854389 8.1108244564 
9.1251627219 10.136503172 11.14559089 12.157304405 13.168977304 14.178733553 15.188821144 16.201750021 17.215729274 
18.229576433 19.240944351 20.199340462 21.208802787 22.221835359 23.23436872 24.24647058 25.260379002 26.274571951 
27.28665793 28.290216695 29.285010862 30.291177283 31.30171574 32.315106098 33.329691999 34.341611875 35.349727338 
36.36244557 37.376623711 38.390366966 39.402557391 40.415000561 41.428605481 42.442603907 43.45673551 44.470884862 
45.485074861 46.499511203 47.514105598 48.528337784 49.54243533 50.556643243 51.570199776 52.578902815 53.579129925 
54.590410962 55.604341554 56.618748339 57.633097633 58.64410209 59.638089645 60.652151341 61.665852882 62.672565122 
63.686535019 
ParallelTransportNormals 3 64 double
0.26969400054 0 0.96294607641 0.27247243944 -0.001398148797 0.96216257198 0.28937839006 -0.010166181407 0.95716079951 
0.31741842546 -0.023434693075 0.94799596958 0.35488480159 -0.036680716471 0.93419018548 0.39751797233 -0.043144123744 0.91657953624 
0.4392897762 -0.038467247579 0.89752145567 0.46964495904 -0.026901588533 0.8824454187 0.44614344729 -0.039926757938 0.89407039904 
0.27146896145 -0.13657338394 0.9527078848 -0.079266538187 -0.30726881442 0.94831571305 -0.33792111057 -0.44201987522 0.83091982341 
-0.46029097215 -0.53587193756 0.70779480606 -0.53394328053 -0.65259264843 0.53761269367 -0.52493988925 -0.79251541103 0.31041494159 
-0.45473571373 -0.87590336949 0.16127218603 -0.42609016454 -0.89565800579 0.12745159216 -0.46189098382 -0.8727998819 0.15772471341 
-0.57295225547 -0.78814718429 0.22483266856 -0.87828451521 -0.41876075278 0.23077205694 -0.98116194171 -0.02904997493 -0.19099042671 
-0.93818010789 -0.00073188417964 -0.34614671673 -0.89760302502 -0.010984544771 -0.44066784459 -0.84170907854 -0.050184749655 -0.53759400852 
-0.81077951793 -0.083388679286 -0.57938148182 -0.83769551044 -0.045143698502 -0.54426857182 -0.90175672567 0.070924539236 -0.42638540952 
-0.96265393642 0.22164949716 -0.15546349765 -0.94048160996 0.21113692056 0.2662997223 -0.87094173514 0.017810439985 0.49106341975 
-0.83086408783 -0.14129244058 0.53823908608 -0.8132625247 -0.23967073916 0.53024711476 -0.81059533901 -0.26036029504 0.52454524413 
-0.81985242568 -0.17410800845 0.54546164073 -0.84337501603 0.034361187173 0.53622559725 -0.86507599384 0.19920158632 0.46039358477 
-0.87258150058 0.24201595583 0.42429918921 -0.85821251728 0.19455499553 0.47499434618 -0.78596224625 0.073930884065 0.61383839229 
-0.64755655096 -0.046632068431 0.76058922126 -0.53258487072 -0.10104385985 0.84032344598 -0.47616340652 -0.11464626251 0.87185127446 
-0.43684640029 -0.11761169273 0.89181428128 -0.37857487806 -0.1141942926 0.91849916997 -0.29255303719 -0.10011109608 0.95099447363 
-0.20691971951 -0.080425819917 0.97504662307 -0.17651483615 -0.07275461408 0.98160545982 -0.23806599733 -0.087665056474 0.96728455937 
-0.35321583339 -0.11272574552 0.92872572988 -0.4521525961 -0.1301530755 0.8823934535 -0.52730194892 -0.13614408664 0.83869985236 
-0.62103572839 -0.12021838814 0.77450769087 -0.77783605093 0.016546048918 0.62824939805 -0.83332614672 0.27970328217 0.47679514169 
-0.79898320919 0.45492587769 0.39327887973 -0.76207520539 0.54790278884 0.34502741241 -0.73567129423 0.59874400841 0.31669126803 
-0.70810467417 0.64021671467 0.29784279189 -0.63249274346 0.71395591041 0.30036625554 -0.561516338 0.75124405515 0.34688870226 
-0.5454898784 0.75604320553 0.3617173813 -0.55723977499 0.75171238131 0.35272131911 -0.59214142859 0.73106135643 0.33899531219 
-0.59214142859 0.73106135643 0.33899531219 
