# vtk DataFile Version 4.2
vtk output
ASCII
DATASET POLYDATA
POINTS 64 float
0 0 0 -0.950928 0.385507 -0.208357 -1.89917 0.607094 -0.241124 
-2.91605 0.717751 -0.238358 -3.9267 0.646582 -0.232734 -4.87642 0.297459 -0.267433 
-5.59664 -0.408947 -0.318851 -6.03779 -1.32024 -0.263229 -6.42644 -2.22211 -0.0118281 
-6.95295 -2.98726 0.39412 -7.62856 -3.61844 0.810483 -8.38761 -4.24101 1.06246 
-8.9803 -5.02947 0.874611 -9.07769 -5.87764 0.326321 -8.88461 -6.67872 -0.263878 
-8.57958 -7.43988 -0.861345 -8.23394 -8.12939 -1.52004 -7.87383 -8.69385 -2.28179 
-7.49789 -9.11673 -3.12349 -7.08452 -9.46214 -3.98327 -6.55795 -9.98926 -4.68367 
-6.31014 -10.6674 -4.20875 -6.52123 -10.8356 -3.20986 -6.87864 -10.6557 -2.27845 
-7.29935 -10.1661 -1.49915 -7.69297 -9.48031 -0.863567 -8.01318 -8.73169 -0.258346 
-8.24297 -8.02842 0.435066 -8.35567 -7.49897 1.29152 -8.31513 -7.39961 2.29461 
-8.21131 -7.90932 3.1593 -8.19061 -8.71399 3.77518 -8.25443 -9.58587 4.29003 
-8.35088 -10.4589 4.79796 -8.41728 -11.3165 5.33593 -8.39983 -12.158 5.90207 
-8.27647 -12.9859 6.47515 -8.05785 -13.7999 7.03976 -7.76033 -14.5927 7.59852 
-7.39006 -15.3514 8.16117 -6.94623 -16.0638 8.73094 -6.42806 -16.7212 9.30405 
-5.83685 -17.3138 9.87713 -5.17546 -17.8221 10.4543 -4.448 -18.2108 11.0445 
-3.66613 -18.4361 11.6497 -2.85419 -18.4749 12.2559 -2.03705 -18.349 12.8435 
-1.22499 -18.1088 13.4021 -0.415924 -17.8038 13.9329 0.394462 -17.4681 14.4428 
1.20671 -17.1222 14.9428 2.01754 -16.7809 15.4483 2.82271 -16.4645 15.9783 
3.61704 -16.205 16.5535 4.38923 -16.0503 17.1926 5.11255 -16.0664 17.9028 
5.73485 -16.3225 18.6602 6.18887 -16.8418 19.402 6.43618 -17.5642 20.0683 
6.47678 -18.3947 20.6475 6.30155 -19.2487 21.1776 5.92943 -20.0034 21.6772 
5.23262 -20.5119 22.2659 
LINES 1 65
64 0 1 2 3 4 5 6 7 8 9 10 11 12 13 14 15 16 17 18 19 20 21 22 23 24 25 26 27 28 29 30 31 32 33 34 35 36 37 38 39 40 41 42 43 44 45 46 47 48 49 50 51 52 53 54 55 56 57 58 59 60 61 62 63 

POINT_DATA 64
SCALARS MaximumInscribedSphereRadius float
LOOKUP_TABLE default
0.6944 0.851245 0.93 0.93 1.099 1.26777 1.28589 1.4665 1.40983 
1.31455 1.48966 1.3499 1.08405 1.15942 1.50089 1.55057 1.58218 1.64094 
1.60514 1.57538 1.62358 1.56908 1.55 1.55 1.55 1.63876 1.82647 
2.03273 1.84769 1.27676 1.26767 1.45796 1.54867 1.55 1.55 1.62574 
1.81879 1.86 1.81642 1.64482 1.97955 2.47241 1.89915 1.76851 2.17775 
1.99992 1.76034 1.59184 1.84013 2.08215 1.72337 1.67548 1.86885 1.86998 
1.93673 2.12088 2.182 2.13354 1.92625 2.0001 2.13693 1.9545 1.87165 
1.8848 
TEXTURE_COORDINATES TCoords 2 float
0 0 0.015873 0 0.031746 0 0.047619 0 0.0634921 
0 0.0793651 0 0.0952381 0 0.111111 0 0.126984 0 
0.142857 0 0.15873 0 0.174603 0 0.190476 0 0.206349 
0 0.222222 0 0.238095 0 0.253968 0 0.269841 0 
0.285714 0 0.301587 0 0.31746 0 0.333333 0 0.349206 
0 0.365079 0 0.380952 0 0.396825 0 0.412698 0 
0.428571 0 0.444444 0 0.460317 0 0.47619 0 0.492063 
0 0.507937 0 0.52381 0 0.539683 0 0.555556 0 
0.571429 0 0.587302 0 0.603175 0 0.619048 0 0.634921 
0 0.650794 0 0.666667 0 0.68254 0 0.698413 0 
0.714286 0 0.730159 0 0.746032 0 0.761905 0 0.777778 
0 0.793651 0 0.809524 0 0.825397 0 0.84127 0 
0.857143 0 0.873016 0 0.888889 0 0.904762 0 0.920635 
0 0.936508 0 0.952381 0 0.968254 0 0.984127 0 
1 0 
FIELD FieldData 4
Curvature 1 64 float
0.403394 0.185251 0.118975 0.145183 0.241957 0.346172 0.292873 0.177792 0.206687 
0.166231 0.183911 0.433564 0.535269 0.275928 0.110042 0.0778161 0.128876 0.126312 
0.087695 0.254386 1.14143 0.767808 0.297964 0.275962 0.195064 0.0844283 0.112228 
0.22548 0.394671 0.535406 0.339878 0.143748 0.0385935 0.0386865 0.0727313 0.0839787 
0.0751309 0.0630941 0.0625942 0.0679265 0.0721642 0.0757154 0.085478 0.107521 0.13628 
0.148117 0.129665 0.0922164 0.0540532 0.0289387 0.0115471 0.00886165 0.0282697 0.0572237 
0.0973114 0.150095 0.207886 0.244355 0.234932 0.195181 0.168954 0.20056 0.301072 
0.392703 
Torsion 1 64 float
-0.122633 -0.22107 -0.311541 -0.183434 -0.0227128 0.145945 0.49267 1.07201 0.474069 
0.606823 0.684312 0.327581 0.235755 0.0942814 -0.336826 -0.610138 -0.0262698 0.152381 
0.520375 0.196542 0.0312335 -0.0260192 -0.0548381 -0.107531 -0.271195 -1.27697 -0.483513 
-0.131661 -0.122867 -0.204528 -0.218923 -0.271044 -1.49897 -0.615603 -0.25041 -0.153727 
-0.0182544 0.152451 0.131244 0.0276384 -0.00855051 0.0458548 0.11835 0.108583 0.0509725 
0.00220593 -0.0337453 -0.0764788 -0.140782 -0.177772 -0.0922442 0.0287875 0.0787195 0.0715675 
0.0568827 0.048135 0.0347768 0.00407842 -0.0529036 -0.147205 -0.303651 -0.320412 -0.197547 
-0.0947518 
Abscissas 1 64 double
0 1.0470396051 2.0213812601 3.0442669896 4.0574323523 5.0698908665 6.0800233549 7.0940069022 8.1077183659 
9.1213541721 10.135360355 11.148886892 12.152997375 13.167641093 14.181221747 15.195809049 16.21008917 17.224260967 
18.238478001 19.253066072 20.275661835 21.139883255 22.174600284 23.188314076 24.2002799 25.214761217 26.22928396 
27.243295961 28.256473507 29.265293497 30.274383249 31.287910966 32.302461246 33.317062729 34.331594145 35.346013137 
36.360442562 37.374933856 38.389445833 39.403942824 40.418418557 41.432886276 42.447337969 43.461726831 44.475950075 
45.48998895 46.50404319 47.518335878 48.532827638 49.547392888 50.561988732 51.576594653 52.59119503 53.605766561 
54.620239818 55.634463131 56.648264802 57.661435767 58.67436001 59.687751651 60.701099674 61.721412748 62.699992543 
63.74437479 
ParallelTransportNormals 3 64 double
-0.21403189859 0 0.97682667162 -0.046837904063 -0.052929297852 0.99749922314 -0.0038422156302 -0.060263798092 0.99817509086 
0.0098164427889 -0.060523973668 0.99811847296 -0.012451150016 -0.065299159157 0.99778804797 -0.0092095861837 -0.0632491279 0.99795527522 
0.059340851146 0.032170721014 0.99771925314 0.14038668686 0.20926285856 0.96772962866 0.21218947892 0.34005420259 0.91615433434 
0.22603947631 0.3561423464 0.90668008925 0.11000060151 0.25473746792 0.96073341261 -0.20712668302 -0.076671114234 0.97530512017 
-0.37472620295 -0.47259644626 0.79764206998 -0.36688745649 -0.60748788121 0.70452258193 -0.34977806001 -0.66115488759 0.6637239813 
-0.31737350915 -0.73339965502 0.60116470431 -0.26273253314 -0.83048418888 0.49119001217 -0.20474882132 -0.9082637301 0.36487657741 
-0.17223522269 -0.93991217117 0.29478829446 -0.26321983773 -0.855482233 0.44594334399 -0.83657507979 0.074414165207 0.54277496985 
-0.87187802786 0.47862689696 -0.10365808241 -0.78620352416 0.47633350969 -0.39368820931 -0.68554514429 0.38969025529 -0.61495476262 
-0.62676655245 0.30486781867 -0.71709086026 -0.62852997312 0.30841126581 -0.71402560459 -0.6644576512 0.40325621712 -0.6291903155 
-0.7069496839 0.55620724203 -0.43687028778 -0.72230750965 0.69046057762 -0.039192502386 -0.6861391308 0.58766584485 0.42879126389 
-0.67203746005 0.4390988052 0.5962867528 -0.67273099301 0.412108859 0.61449108975 -0.67139000581 0.42670885704 0.60593317405 
-0.67102451059 0.43059312002 0.60358567841 -0.6717957937 0.40382268133 0.6209812023 -0.66758852678 0.35393947203 0.65502092261 
-0.65689350572 0.30259025794 0.69060122933 -0.64447442083 0.26392812677 0.7176312875 -0.6330765011 0.23744828596 0.7367716439 
-0.62104992966 0.21571663176 0.75350070978 -0.60616377276 0.19451972307 0.77118581284 -0.589040466 0.17522597748 0.78887716803 
-0.57480365249 0.16271323671 0.80195084867 -0.56932139947 0.15917226894 0.80655894571 -0.57456674683 0.16130601957 0.80240477409 
-0.58526435174 0.16307853035 0.79427390208 -0.59242652486 0.16269563675 0.78902531165 -0.59143043543 0.16291948292 0.78972608044 
-0.58383559479 0.16547358407 0.79482985049 -0.57416220858 0.169300255 0.80104630446 -0.56842998197 0.1717082306 0.80461396902 
-0.57189689328 0.17024028898 0.80246631547 -0.58660271663 0.16425531636 0.79304315386 -0.61214751817 0.15505735588 0.77539192179 
-0.64794507443 0.14559316495 0.74764283641 -0.69193192396 0.14151852316 0.70795672199 -0.73817583653 0.15087596129 0.65752024963 
-0.77807671902 0.17962132197 0.6019408609 -0.80561674752 0.228373385 0.54665094268 -0.81903471905 0.30074737521 0.4886032596 
-0.80951946924 0.42045096552 0.40975506649 -0.75567750641 0.57731626402 0.30928536599 -0.53851634001 0.8381547468 0.086583901208 
-0.53851634001 0.8381547468 0.086583901208 
