# vtk DataFile Version 4.2
vtk output
ASCII
DATASET POLYDATA
POINTS 64 float
0 0 0 -0.821351 0.121294 -0.636961 -1.72308 -0.175825 -0.848142 
-2.48266 -0.789293 -0.582975 -3.0143 -1.46091 -0.0403713 -3.45358 -2.1039 0.610012 
-3.88476 -2.71375 1.29669 -4.3571 -3.30841 1.96943 -4.90278 -3.92379 2.56228 
-5.52661 -4.6317 2.93397 -6.03981 -5.4787 2.77019 -6.1294 -6.24999 2.12269 
-5.90129 -6.88108 1.36392 -5.48555 -7.42029 0.612195 -4.94021 -7.89384 -0.0999786 
-4.29854 -8.32426 -0.757117 -3.5788 -8.75111 -1.33105 -2.78967 -9.25917 -1.71758 
-2.16004 -9.94812 -1.44971 -2.19537 -10.4413 -0.561041 -2.64172 -10.6447 0.324063 
-3.3363 -10.6235 1.06046 -4.17552 -10.4212 1.59121 -5.06852 -10.11 1.95816 
-5.96606 -9.75747 2.27393 -6.82771 -9.41347 2.68293 -7.52983 -9.12555 3.35206 
-7.77693 -8.96787 4.31499 -7.4823 -8.98669 5.28229 -6.89773 -9.15557 6.09277 
-6.20562 -9.44708 6.77442 -5.49963 -9.85251 7.37953 -4.84725 -10.3903 7.93915 
-4.34011 -11.1224 8.42118 -4.14069 -12.0863 8.6357 -4.22117 -13.0817 8.45902 
-4.3389 -14.0223 8.09789 -4.37432 -14.969 7.73545 -4.27876 -15.9563 7.52736 
-4.03618 -16.9315 7.64088 -3.68258 -17.7516 8.11692 -3.26636 -18.3536 8.818 
-2.79865 -18.7743 9.61338 -2.27336 -19.0495 10.4362 -1.68635 -19.187 11.2517 
-1.04589 -19.1708 12.0378 -0.37824 -18.9838 12.7778 0.290422 -18.645 13.4611 
0.963311 -18.2151 14.0869 1.66779 -17.7625 14.6597 2.42262 -17.3363 15.1868 
3.21948 -16.9589 15.6887 4.03538 -16.639 16.1998 4.85232 -16.3966 16.7502 
5.65905 -16.2685 17.3514 6.4432 -16.2971 17.9937 7.1802 -16.5198 18.6533 
7.81767 -16.9691 19.3003 8.25321 -17.6607 19.8977 8.36794 -18.5289 20.4044 
8.15401 -19.4249 20.826 7.70036 -20.236 21.2426 7.12926 -20.8767 21.72 
6.52378 -21.1745 22.5143 
LINES 1 65
64 0 1 2 3 4 5 6 7 8 9 10 11 12 13 14 15 16 17 18 19 20 21 22 23 24 25 26 27 28 29 30 31 32 33 34 35 36 37 38 39 40 41 42 43 44 45 46 47 48 49 50 51 52 53 54 55 56 57 58 59 60 61 62 63 

POINT_DATA 64
SCALARS MaximumInscribedSphereRadius float
LOOKUP_TABLE default
0.9796 1.34516 1.36402 1.26023 1.31819 1.48504 1.3455 1.0714 1.46797 
1.62674 1.42996 1.5138 1.43024 1.3372 1.26094 1.24 1.34842 1.7602 
1.86984 2.15928 1.81887 1.83074 2.34814 2.3154 2.08219 1.68224 1.55 
1.69625 1.76815 1.60005 1.74306 1.866 1.88047 1.86918 2.15932 2.27611 
1.88295 1.48331 1.4242 1.83757 2.07639 2.17 2.13908 1.97838 1.93793 
2.14095 2.35003 2.39912 2.28041 2.54532 2.62339 2.27298 2.17 2.24075 
2.41675 2.37733 2.38022 2.7275 2.82048 2.60529 2.23545 2.35936 2.47245 
2.48 
TEXTURE_COORDINATES TCoords 2 float
0 0 0.015873 0 0.031746 0 0.047619 0 0.0634921 
0 0.0793651 0 0.0952381 0 0.111111 0 0.126984 0 
0.142857 0 0.15873 0 0.174603 0 0.190476 0 0.206349 
0 0.222222 0 0.238095 0 0.253968 0 0.269841 0 
0.285714 0 0.301587 0 0.31746 0 0.333333 0 0.349206 
0 0.365079 0 0.380952 0 0.396825 0 0.412698 0 
0.428571 0 0.444444 0 0.460317 0 0.47619 0 0.492063 
0 0.507937 0 0.52381 0 0.539683 0 0.555556 0 
0.571429 0 0.587302 0 0.603175 0 0.619048 0 0.634921 
0 0.650794 0 0.666667 0 0.68254 0 0.698413 0 
0.714286 0 0.730159 0 0.746032 0 0.761905 0 0.777778 
0 0.793651 0 0.809524 0 0.825397 0 0.84127 0 
0.857143 0 0.873016 0 0.888889 0 0.904762 0 0.920635 
0 0.936508 0 0.952381 0 0.968254 0 0.984127 0 
1 0 
FIELD FieldData 4
Curvature 1 64 float
0.301131 0.471184 0.499243 0.2982 0.145052 0.0606049 0.0411527 0.10244 0.233587 
0.469697 0.546017 0.311417 0.17976 0.118938 0.091709 0.107161 0.218091 0.586908 
0.790951 0.394924 0.284909 0.24089 0.158539 0.0504034 0.105501 0.268515 0.452111 
0.452625 0.297567 0.175281 0.107248 0.121479 0.219491 0.390811 0.393343 0.188611 
0.0810701 0.159172 0.273041 0.31717 0.248994 0.164339 0.120639 0.114061 0.12827 
0.137897 0.124585 0.0827742 0.0538789 0.0575807 0.0549517 0.0486939 0.0659558 0.0948534 
0.123736 0.15188 0.188128 0.243787 0.288305 0.263105 0.193149 0.192001 0.331006 
0.499534 
Torsion 1 64 float
0.00336398 0.00958581 0.048219 0.105158 0.168042 0.528507 0.700641 0.238197 0.177548 
0.194435 0.191937 0.128863 0.0893413 0.0855357 0.183236 0.263879 0.154961 0.0706005 
0.0520035 0.0507463 0.0337968 0.0143887 -0.0184224 -0.469542 -0.1702 0.035953 0.0475423 
-0.0359463 -0.125097 -0.209616 -0.39149 -0.253052 0.00422036 0.143439 0.229849 0.415194 
0.950854 0.299759 0.103615 0.00207561 -0.0897401 -0.164655 -0.164444 -0.0681627 0.0448888 
0.0698797 -0.010684 -0.31483 -0.658302 -0.382629 -0.351482 -0.467684 -0.134566 0.0657365 
0.0757991 0.0276582 -0.0385899 -0.0981412 -0.133286 -0.195689 -0.371883 -0.48524 -0.26922 
-0.100369 
Abscissas 1 64 double
0 1.0464459262 2.0190629971 3.030809179 4.0447726116 5.0593717126 6.0739385003 7.0884889806 8.1023516696 
9.1164866787 10.120284392 11.131307325 12.144239053 13.158479638 14.172798344 15.187111356 16.201819278 17.216830489 
18.187829846 19.204780873 20.216727213 21.229233087 22.24259099 23.256968582 24.271638295 25.285574792 26.29730765 
27.303863279 28.315215104 29.328689834 30.342904654 31.35727874 32.371190937 33.383874215 34.391262952 35.40537572 
36.419768545 37.434124145 38.447603907 39.458980663 40.470957116 41.484450905 42.498565489 43.512809162 44.527016297 
45.541106852 46.555157946 47.569431728 48.583940206 49.59847109 50.612969879 51.627516582 52.642044887 53.656458884 
54.670722607 55.684775935 56.698551041 57.711890678 58.724264011 59.736061195 60.749110575 61.767594084 62.749711505 
63.791907431 
ParallelTransportNormals 3 64 double
-0.6128203688 0 0.79022224443 -0.24068539582 0.041207212109 0.96972805771 0.13627221686 0.2460615623 0.9596267975 
0.32013500019 0.42900504669 0.84467049881 0.38314288776 0.51431456259 0.76725618816 0.40345131017 0.54354422333 0.73606162623 
0.39527777908 0.53264784197 0.74835937477 0.34572193956 0.47374556414 0.80996387633 0.20134022314 0.31037871457 0.92904637564 
-0.11416550226 -0.12149129806 0.986005123 -0.29099066787 -0.59509334982 0.74912504711 -0.27292680625 -0.77838529027 0.56535590412 
-0.23534817647 -0.84670658411 0.47717836943 -0.20377578884 -0.87997667013 0.42908797222 -0.18411610559 -0.89494861782 0.40640894567 
-0.19488703664 -0.88816613723 0.41614895846 -0.29607367205 -0.82547046739 0.480561014 -0.72384830951 -0.46244327284 0.5120447678 
-0.99753043911 0.070232176862 -0.00068145292948 -0.88972990024 0.22564696616 -0.39681752895 -0.69951309202 0.25603497682 -0.6671787802 
-0.48169774768 0.22430260315 -0.84714557315 -0.32082299084 0.17662021449 -0.93052560867 -0.27173498325 0.15842377176 -0.94924286008 
-0.35712507058 0.19223270737 -0.91406141489 -0.59583375801 0.2886963841 -0.74942413266 -0.86300087207 0.41417711641 -0.28928672809 
-0.84965792442 0.45436471023 0.26764551477 -0.69192826014 0.42070826882 0.58671955428 -0.56545304509 0.37510221412 0.73454828484 
-0.49255211329 0.33876167372 0.80164390106 -0.45608557486 0.31343848134 0.8329119202 -0.42206208125 0.27616932427 0.86347791165 
-0.36153122855 0.13065737295 0.92315969457 -0.34516044292 -0.13690702066 0.92850456991 -0.36129113908 -0.29446122783 0.88473798275 
-0.36345947281 -0.3211842258 0.87449294149 -0.36643072783 -0.22572489615 0.90264987285 -0.40625501758 0.0053112336747 0.91374430312 
-0.49337679323 0.26768547164 0.8276012495 -0.57556139246 0.41952657228 0.70194482593 -0.62449191274 0.47614735658 0.61910705515 
-0.64893598277 0.49328006079 0.57927270943 -0.6618103313 0.49805676267 0.56030933112 -0.67662741185 0.49952045033 0.54097566048 
-0.70352541378 0.49534237573 0.50959584278 -0.73334234663 0.48360974256 0.47783953325 -0.74214914789 0.47856339757 0.46924590227 
-0.71707681297 0.4946277254 0.49106441284 -0.66622142498 0.52525327565 0.52939400197 -0.61568870277 0.55142167823 0.56290456924 
-0.58571269869 0.56438223032 0.58173304246 -0.5686012433 0.57027472362 0.59285695215 -0.54546437593 0.57555362206 0.60926729989 
-0.50433829349 0.57812531005 0.64141563093 -0.44651895552 0.56857457279 0.6909007002 -0.38329275118 0.53766232597 0.75100325574 
-0.33491148869 0.48620866648 0.80711549817 -0.32056629876 0.44553607856 0.83590361334 -0.31948140048 0.4648685445 0.82572929649 
-0.28286991411 0.55859411914 0.77971611613 -0.18984804361 0.68983143006 0.69863461011 0.083579523878 0.91047433683 0.40503202979 
0.083579523878 0.91047433683 0.40503202979 
