# vtk DataFile Version 4.2
vtk output
ASCII
DATASET POLYDATA
POINTS 64 float
0 0 0 -0.904103 0.037236 0.495416 -1.82339 0.149137 0.845562 
-2.80516 0.288867 1.10292 -3.7978 0.407288 1.25639 -4.80917 0.451396 1.33584 
-5.81953 0.368173 1.36539 -6.80314 0.120816 1.38412 -7.73001 -0.288898 1.42957 
-8.58531 -0.826711 1.52148 -9.36996 -1.45429 1.66214 -10.0906 -2.14351 1.84908 
-10.7521 -2.8756 2.08554 -11.3514 -3.63372 2.39439 -11.8662 -4.37444 2.85866 
-12.2252 -4.891 3.64702 -12.4822 -5.00442 4.62653 -12.8271 -5.01851 5.57605 
-13.1285 -5.10765 6.55391 -12.8988 -5.32941 7.48462 -12.1424 -5.63758 8.10489 
-11.3099 -6.01954 8.53647 -10.528 -6.52762 8.93722 -9.87882 -7.19245 9.34359 
-9.43793 -8.00945 9.75174 -9.22741 -8.93075 10.12 -9.19785 -9.906 10.3975 
-9.26665 -10.9083 10.5383 -9.34351 -11.9191 10.502 -9.34082 -12.9068 10.2717 
-9.20188 -13.8319 9.87972 -8.92386 -14.6792 9.39603 -8.53785 -15.4683 8.88837 
-8.08277 -16.2401 8.4125 -7.60893 -17.053 8.0326 -7.2168 -17.973 7.8622 
-7.01698 -18.9575 7.99047 -6.94335 -19.9128 8.32476 -6.85806 -20.8296 8.7508 
-6.65702 -21.7022 9.22763 -6.26135 -22.4755 9.75078 -5.64739 -23.0636 10.3033 
-4.87709 -23.4408 10.845 -4.02542 -23.6591 11.3512 -3.13322 -23.7829 11.8182 
-2.21732 -23.8579 12.2482 -1.28355 -23.904 12.6423 -0.33406 -23.9208 12.9995 
0.628715 -23.8933 13.3184 1.59805 -23.7995 13.6029 2.56126 -23.623 13.8683 
3.50408 -23.3645 14.1395 4.41677 -23.0415 14.4429 5.29564 -22.6814 14.7997 
6.13991 -22.3157 15.2273 6.94658 -21.9785 15.742 7.70616 -21.7114 16.3591 
8.39822 -21.5667 17.0865 8.99291 -21.5993 17.9072 9.47044 -21.8449 18.7683 
9.84046 -22.2947 19.5955 10.1459 -22.9392 20.3299 10.4145 -23.6981 20.9065 
10.7038 -24.601 21.313 
LINES 1 65
64 0 1 2 3 4 5 6 7 8 9 10 11 12 13 14 15 16 17 18 19 20 21 22 23 24 25 26 27 28 29 30 31 32 33 34 35 36 37 38 39 40 41 42 43 44 45 46 47 48 49 50 51 52 53 54 55 56 57 58 59 60 61 62 63 

POINT_DATA 64
SCALARS MaximumInscribedSphereRadius float
LOOKUP_TABLE default
0.93 1.18684 1.42418 1.46645 1.32976 1.18968 1.04711 1.1077 1.48374 
1.86359 1.82784 1.65227 1.56088 1.56811 1.4266 0.959825 0.729041 0.77514 
0.914915 0.937057 0.958255 1.00852 1.10778 1.22172 1.25362 1.27068 1.41361 
1.66337 1.85759 1.86 1.86 1.86 1.86131 1.94366 2.0932 2.06204 
1.89977 1.60932 1.31121 1.24 1.24728 1.296 1.3392 1.24882 1.05134 
1.05923 1.28842 1.51314 1.60202 1.65418 1.739 1.83603 1.9959 2.24348 
2.41394 2.34486 2.23724 2.2688 2.41303 2.5205 2.59982 2.61029 2.54807 
2.48 
TEXTURE_COORDINATES TCoords 2 float
0 0 0.015873 0 0.031746 0 0.047619 0 0.0634921 
0 0.0793651 0 0.0952381 0 0.111111 0 0.126984 0 
0.142857 0 0.15873 0 0.174603 0 0.190476 0 0.206349 
0 0.222222 0 0.238095 0 0.253968 0 0.269841 0 
0.285714 0 0.301587 0 0.31746 0 0.333333 0 0.349206 
0 0.365079 0 0.380952 0 0.396825 0 0.412698 0 
0.428571 0 0.444444 0 0.460317 0 0.47619 0 0.492063 
0 0.507937 0 0.52381 0 0.539683 0 0.555556 0 
0.571429 0 0.587302 0 0.603175 0 0.619048 0 0.634921 
0 0.650794 0 0.666667 0 0.68254 0 0.698413 0 
0.714286 0 0.730159 0 0.746032 0 0.761905 0 0.777778 
0 0.793651 0 0.809524 0 0.825397 0 0.84127 0 
0.857143 0 0.873016 0 0.888889 0 0.904762 0 0.920635 
0 0.936508 0 0.952381 0 0.968254 0 0.984127 0 
1 0 
FIELD FieldData 4
Curvature 1 64 float
0.168395 0.13941 0.110619 0.0954607 0.102152 0.126006 0.151473 0.160144 0.145601 
0.117772 0.091405 0.0862514 0.127812 0.248294 0.489012 0.479031 0.1814 0.158088 
0.519067 0.630038 0.288038 0.157039 0.188114 0.235314 0.23419 0.190808 0.155839 
0.163212 0.192658 0.200528 0.168209 0.1155 0.087531 0.136275 0.260234 0.341523 
0.232769 0.111363 0.12099 0.20254 0.262359 0.242236 0.174515 0.108697 0.0637398 
0.0457328 0.0474181 0.0578858 0.0701234 0.0780267 0.0797579 0.075444 0.0700855 0.0726937 
0.0911042 0.123727 0.165342 0.204013 0.222243 0.214703 0.199545 0.194311 0.1985 
0.201746 
Torsion 1 64 float
0.0973106 0.173232 0.306674 0.440689 0.43254 0.331111 0.244774 0.173297 0.110615 
0.0775368 0.0921861 0.14126 0.138114 0.123931 0.181614 0.541244 1.09876 1.1462 
0.218185 -0.104317 -0.387549 -0.426243 -0.172028 0.000636636 0.123903 0.297356 0.493341 
0.462625 0.314776 0.230733 0.227688 0.387993 0.621863 0.447396 0.186428 0.0142852 
-0.222126 -0.75953 -0.27428 0.0185384 0.0274262 -0.0211559 -0.0609487 -0.13472 -0.201888 
-0.10635 0.0950111 0.192455 0.241789 0.282395 0.318477 0.351688 0.396959 0.374287 
0.266633 0.17099 0.121774 0.114621 0.146785 0.207963 0.245416 0.227477 0.169083 
0.110538 
Abscissas 1 64 double
0 1.0316128126 2.0216667663 3.0461900929 4.0575730557 5.0730166622 6.0872363319 7.1016460805 8.1160431235 
9.1305550057 10.145106904 11.159652424 12.174246329 13.18878482 14.203321051 15.211885471 16.230890031 17.241201818 
18.268332839 19.252298659 20.277889528 21.290411538 22.30530523 23.319502399 24.33363217 25.347890641 26.36230325 
27.376762131 28.391131475 29.405318867 30.419625264 31.434138373 32.448727669 33.463239586 34.477925651 35.492422861 
36.505133518 37.519932431 38.534488161 39.548963526 40.562956135 41.576931862 42.591395567 43.605898125 44.620496783 
45.635090034 46.649685275 47.664276895 48.678858678 49.693423423 50.707982545 51.722548731 52.737122317 53.751699951 
54.766270131 55.780820462 56.795317743 57.809720296 58.823774384 59.838560881 60.850221199 61.873891467 62.864189975 
63.89577411 
ParallelTransportNormals 3 64 double
0.48054759529 0 0.87696864748 0.35701092124 0.010206441071 0.93404444791 0.25662468373 0.023476245081 0.96622597648 
0.15694501209 0.036501799055 0.98693256195 0.080094585402 0.042740343077 0.99587053399 0.025778317431 0.041687416059 0.99879809656 
0.0092338500924 0.03894465527 0.99919870388 0.028774825674 0.04566542533 0.99854227669 0.065876714095 0.065391271823 0.99568280095 
0.10371906232 0.092282909063 0.99031622263 0.13800990836 0.12227983938 0.98285345097 0.17271829521 0.15797262357 0.9722206749 
0.21998145708 0.21383782019 0.95177809662 0.31282820236 0.33874352525 0.88735074233 0.49739120281 0.60430091484 0.6224326435 
0.62733825179 0.73752087247 0.25001936026 0.63048238941 0.73818425118 0.23994992802 0.62391736151 0.73714246124 0.2595151592 
0.63120442936 0.77507911576 0.028867501842 0.49718048431 0.84765918737 -0.18516335515 0.48922955784 0.85111396205 -0.19041917798 
0.58874660699 0.7962576351 -0.13910863131 0.73185271453 0.67895650729 -0.058392340659 0.86968097197 0.49159574356 0.044594079199 
0.9512172496 0.27401950152 0.14177114253 0.97477507136 0.087936962247 0.20513568904 0.97234989909 -0.034310250576 0.23099454637 
0.96889577431 -0.082048076329 0.23347182205 0.96998458972 -0.0527100249 0.23738481204 0.96368263176 0.032408612417 0.265076342 
0.94075567015 0.12987103458 0.31322880368 0.90784520725 0.2109762672 0.36236182796 0.87598290347 0.27010701449 0.39962001146 
0.8562105089 0.30383694775 0.41783570172 0.8626126322 0.29102572524 0.41376741537 0.88079144851 0.23251994225 0.41248139436 
0.88340799242 0.2139672634 0.41690326112 0.87901309592 0.26574104112 0.3958758344 0.86034589673 0.38239527473 0.33701452765 
0.79543258294 0.56142086904 0.22824025455 0.65300217172 0.75348261802 0.076499072279 0.47495402084 0.87766200783 -0.064250121412 
0.33161354907 0.93028282296 -0.15686402831 0.24039807212 0.94817803086 -0.20776715024 0.18785259492 0.95395667397 -0.23383341672 
0.15251903583 0.9562683891 -0.24957706568 0.11628463232 0.95747813542 -0.26403315036 0.066039510956 0.95719868359 -0.28179684728 
-0.0031943231735 0.95285258156 -0.30341679931 -0.082691052851 0.94173411835 -0.32603533569 -0.15419948784 0.92541364354 -0.34616774301 
-0.20219710679 0.91036950683 -0.36103142668 -0.2206837188 0.9033214379 -0.36784382024 -0.2095813822 0.90799736703 -0.36278978169 
-0.16969927185 0.92497769996 -0.34002707496 -0.099643755531 0.95200726429 -0.28940160801 0.001059373925 0.98057815061 -0.19612589906 
0.12285494511 0.99118502059 -0.049587472412 0.24309012959 0.95999388818 0.13899253056 0.33814205911 0.8819529529 0.32835793995 
0.41168253098 0.76301096327 0.49832897127 0.46427638238 0.63412851358 0.61832715372 0.51484390594 0.48365245826 0.70782487392 
0.51484390594 0.48365245826 0.70782487392 
