# vtk DataFile Version 4.2
vtk output
ASCII
DATASET POLYDATA
POINTS 64 float
0 0 0 -0.857483 0.139298 0.180151 -2.03073 0.222111 0.431262 
-2.94136 0.0819331 0.64387 -3.88251 -0.237242 0.897638 -4.71833 -0.745565 1.18451 
-5.43198 -1.38636 1.51088 -6.06053 -2.0922 1.88297 -6.6379 -2.81679 2.29656 
-7.20198 -3.53345 2.74099 -7.78099 -4.23122 3.19656 -8.39528 -4.90975 3.63453 
-9.05994 -5.57538 4.01553 -9.78247 -6.23765 4.28407 -10.5466 -6.90065 4.37031 
-11.3081 -7.55876 4.22563 -12.0063 -8.19905 3.85937 -12.6113 -8.82038 3.32992 
-13.1178 -9.43022 2.69579 -13.5323 -10.039 1.99738 -13.8578 -10.6543 1.25874 
-14.0913 -11.2799 0.49438 -14.2226 -11.9154 -0.286144 -14.2361 -12.5542 -1.07506 
-14.1146 -13.1826 -1.86331 -13.8502 -13.7819 -2.63898 -13.4495 -14.3353 -3.39012 
-12.9346 -14.8347 -4.10822 -12.3332 -15.2855 -4.79047 -11.6707 -15.701 -5.437 
-10.9653 -16.1012 -6.04661 -10.2273 -16.5119 -6.6118 -9.47215 -16.9537 -7.11608 
-8.69393 -17.502 -7.49469 -7.96157 -18.2262 -7.57785 -7.58252 -19.0026 -7.09558 
-7.55163 -19.6487 -6.27445 -7.70589 -20.1159 -5.39253 -7.92825 -20.5053 -4.4824 
-8.18544 -20.8388 -3.55846 -8.46046 -21.1275 -2.6257 -8.74012 -21.3832 -1.68442 
-9.01849 -21.6119 -0.735905 -9.29236 -21.821 0.218394 -9.56067 -22.0198 1.17648 
-9.82388 -22.2195 2.13578 -10.0828 -22.4333 3.09326 -10.3371 -22.6742 4.0455 
-10.5843 -22.954 4.98899 -10.8187 -23.2811 5.92051 -11.0312 -23.6596 6.83773 
-11.211 -24.0881 7.73981 -11.3479 -24.5601 8.62757 -11.436 -25.065 9.50332 
-11.476 -25.5915 10.3699 -11.4752 -26.1312 11.229 -11.445 -26.6822 12.0804 
-11.3968 -27.2512 12.9204 -11.34 -27.8436 13.7378 -11.2791 -28.4901 14.5239 
-11.2172 -29.2032 15.257 -11.1606 -29.9115 15.8805 -11.0882 -30.9464 16.4851 
-11.0348 -31.7526 16.8535 
LINES 1 65
64 0 1 2 3 4 5 6 7 8 9 10 11 12 13 14 15 16 17 18 19 20 21 22 23 24 25 26 27 28 29 30 31 32 33 34 35 36 37 38 39 40 41 42 43 44 45 46 47 48 49 50 51 52 53 54 55 56 57 58 59 60 61 62 63 

POINT_DATA 64
SCALARS MaximumInscribedSphereRadius float
LOOKUP_TABLE default
0.62 0.720275 0.833188 1.0068 1.33211 1.50048 1.47647 1.31965 1.29985 
1.33825 1.48913 1.77064 1.83437 1.71694 1.60178 1.70678 1.84765 1.99904 
2.0936 1.92467 1.69233 1.65042 1.85195 1.9879 1.90495 1.75439 1.64737 
1.60996 1.58439 1.56686 1.5547 1.64309 1.7549 1.85837 1.84396 1.55623 
1.50746 1.86601 2.04457 2.01139 1.93718 1.97566 2.1099 2.22898 2.3184 
2.35058 2.12915 1.9299 1.82899 1.85128 2.13506 2.47635 2.72874 2.60939 
2.47321 2.33204 2.18752 2.05005 1.96152 1.94354 2.08103 2.002 1.80867 
1.55 
TEXTURE_COORDINATES TCoords 2 float
0 0 0.015873 0 0.031746 0 0.047619 0 0.0634921 
0 0.0793651 0 0.0952381 0 0.111111 0 0.126984 0 
0.142857 0 0.15873 0 0.174603 0 0.190476 0 0.206349 
0 0.222222 0 0.238095 0 0.253968 0 0.269841 0 
0.285714 0 0.301587 0 0.31746 0 0.333333 0 0.349206 
0 0.365079 0 0.380952 0 0.396825 0 0.412698 0 
0.428571 0 0.444444 0 0.460317 0 0.47619 0 0.492063 
0 0.507937 0 0.52381 0 0.539683 0 0.555556 0 
0.571429 0 0.587302 0 0.603175 0 0.619048 0 0.634921 
0 0.650794 0 0.666667 0 0.68254 0 0.698413 0 
0.714286 0 0.730159 0 0.746032 0 0.761905 0 0.777778 
0 0.793651 0 0.809524 0 0.825397 0 0.84127 0 
0.857143 0 0.873016 0 0.888889 0 0.904762 0 0.920635 
0 0.936508 0 0.952381 0 0.968254 0 0.984127 0 
1 0 
FIELD FieldData 4
Curvature 1 64 float
0.206081 0.243855 0.279521 0.302673 0.293713 0.234454 0.167395 0.102672 0.0596281 
0.0482296 0.064694 0.109558 0.179195 0.250619 0.303338 0.309738 0.25923 0.206023 
0.159094 0.133542 0.130049 0.139108 0.157909 0.179839 0.192036 0.192186 0.176632 
0.143158 0.108685 0.0832479 0.0897007 0.16002 0.301037 0.528992 0.935345 0.72141 
0.403995 0.200082 0.118979 0.0719105 0.0482604 0.0422024 0.0377098 0.0309989 0.0246536 
0.026369 0.0390547 0.0535212 0.0670392 0.0760721 0.0813222 0.0828746 0.0802371 0.0707647 
0.0579054 0.0445787 0.0368807 0.0510656 0.0761154 0.109298 0.146229 0.178194 0.201416 
0.212714 
Torsion 1 64 float
-0.0207111 -0.0338914 -0.0573358 -0.0938673 -0.15044 -0.237831 -0.357366 -0.539744 -0.926891 
-1.09738 -0.937793 -0.404475 -0.276219 -0.208399 -0.180104 -0.17355 -0.183248 -0.199018 
-0.211101 -0.191935 -0.120154 -0.0422759 0.0257435 0.0546529 0.060178 0.048498 0.0219907 
-0.0549591 -0.225884 -0.413938 -0.448028 -0.246711 -0.0882317 -0.0220615 0.0183014 0.0374034 
0.0525805 0.0737963 0.137964 0.222994 0.261133 0.180077 0.140973 0.184469 0.260138 
0.230447 0.0802361 -0.0528246 -0.134447 -0.189745 -0.234238 -0.25648 -0.24442 -0.176544 
-0.00055852 0.286726 0.710487 0.434315 0.159409 0.025273 -0.00417098 -0.0114732 -0.00990214 
-0.00644378 
Abscissas 1 64 double
0 0.8872062406 2.0898798119 3.0354443023 4.0611343882 5.0805848714 6.0937165621 7.1094600808 8.1240809079 
9.1386255186 10.153350577 11.168032236 12.18291939 13.199170545 14.21449144 15.231335999 16.247002613 17.263045545 
18.278244793 19.293206577 20.308165568 21.323153486 22.338170687 23.353398268 24.368742476 25.383988386 26.399381447 
27.414387513 28.429428079 29.444072026 30.458694795 31.474942456 32.484775532 33.509267568 34.542545587 35.532044064 
36.577333824 37.587211709 38.601815822 39.61721762 40.631622044 41.646308527 42.660944882 43.675546527 44.690163474 
45.704767633 46.719399692 47.734049516 48.748718767 49.763438428 50.778173764 51.792910699 52.807659509 53.822358443 
54.837113319 55.851648167 56.866226942 57.881996252 58.893029696 59.912652966 60.937295556 61.882653654 63.083347646 
63.971379803 
ParallelTransportNormals 3 64 double
0.20560462561 0 0.97863514035 0.20926216058 -0.00042538456092 0.97785948234 0.22731336358 0.00031386480729 0.97382161417 
0.25786951094 0.0077785869371 0.96614844041 0.30758417607 0.030949975736 0.95101738871 0.36147104059 0.070937624306 0.92968088088 
0.40633983622 0.11594816604 0.90633545682 0.43928976047 0.15503377374 0.88486667659 0.4583474098 0.17909676779 0.8705412108 
0.46180643788 0.18337686792 0.86781780244 0.44555653382 0.16463487707 0.8799856433 0.40174446782 0.11858878814 0.90804079308 
0.31744120046 0.037886274306 0.94752082535 0.18226337484 -0.082617119647 0.97977266431 0.01308681023 -0.22911229322 0.97331202217 
-0.14374144963 -0.36861156979 0.91840291064 -0.25216373458 -0.47357961153 0.84388139125 -0.31640212836 -0.54473512339 0.77662947312 
-0.35211619806 -0.59198861239 0.72495769936 -0.37249983954 -0.62570556813 0.68537319145 -0.3848515207 -0.65312699719 0.6521613547 
-0.39256541097 -0.6797991664 0.61948808824 -0.39603006451 -0.71028286142 0.58194367835 -0.3928489866 -0.74763389668 0.53545609556 
-0.3794566342 -0.79023979114 0.48117952499 -0.35476198132 -0.83303665067 0.4244924914 -0.32287123053 -0.86970415872 0.37332136935 
-0.29202851081 -0.89595905051 0.33462924064 -0.26894016591 -0.91178464702 0.31035454662 -0.25960720354 -0.91734957133 0.3017844659 
-0.26988590579 -0.91157454673 0.31015067887 -0.30095707139 -0.89383126877 0.33240111937 -0.39725171138 -0.8316959049 0.38790849382 
-0.60134501432 -0.65990127437 0.45046029996 -0.91195005488 -0.23731524129 0.33470669795 -0.99597417076 0.048333771963 0.075493692874 
-0.98371849183 0.15583540256 -0.089516792535 -0.96964215887 0.18787073995 -0.15652050604 -0.95983696901 0.20265301644 -0.1940225447 
-0.95350155808 0.21005944697 -0.21612451847 -0.95093720469 0.21257616403 -0.22478836097 -0.95015612629 0.21325417372 -0.22743349151 
-0.95053584103 0.21295313496 -0.22612513619 -0.95157472036 0.21217154042 -0.22246075834 -0.95294927018 0.21114090852 -0.21750219587 
-0.9546406369 0.20980146525 -0.21129268697 -0.95686951767 0.20782688488 -0.20299929084 -0.96006573771 0.20450864233 -0.19091881647 
-0.96468604639 0.19868617096 -0.17292957346 -0.97094349513 0.18880578857 -0.14704116253 -0.97838169784 0.17350321732 -0.11254282253 
-0.9857406676 0.15257899949 -0.070957629265 -0.99147036871 0.1277020183 -0.026051919201 -0.99459072577 0.10256759633 0.016406596241 
-0.99539184383 0.080821095314 0.051604532577 -0.99493028416 0.064558914907 0.077109507663 -0.99417431171 0.053757371158 0.093421533811 
-0.99355913042 0.04695494854 0.10312849828 -0.99300135865 0.041087012761 0.11072560275 -0.99243834321 0.034853529004 0.11769182826 
-0.99196073695 0.029115919456 0.1231509626 -0.99057244153 0.010505294001 0.13658651791 -0.98982326419 -0.00050744821309 0.1423012585 
-0.98982326419 -0.00050744821309 0.1423012585 
