# vtk DataFile Version 4.2
vtk output
ASCII
DATASET POLYDATA
POINTS 64 float
0 0 0 -0.762105 -0.0847142 0.702735 -1.63158 -0.266594 1.1159 
-2.60761 -0.559004 1.18744 -3.51232 -0.913625 0.901659 -4.32223 -1.29458 0.423854 
-5.06249 -1.7033 -0.136796 -5.77002 -2.16795 -0.696086 -6.47493 -2.73454 -1.15522 
-7.17803 -3.42708 -1.38407 -7.84652 -4.18887 -1.34004 -8.48203 -4.9544 -1.14137 
-9.11749 -5.71296 -0.917272 -9.77597 -6.4712 -0.773941 -10.4505 -7.22653 -0.825787 
-11.0676 -7.9536 -1.16862 -11.5114 -8.61841 -1.79167 -11.7218 -9.21416 -2.58476 
-11.7251 -9.76722 -3.43506 -11.5781 -10.313 -4.27753 -11.3314 -10.8806 -5.08136 
-11.0218 -11.4933 -5.82835 -10.6771 -12.1738 -6.49746 -10.3248 -12.9479 -7.04694 
-10.01 -13.8729 -7.35718 -9.93762 -14.7866 -7.01136 -10.1784 -15.1765 -6.10715 
-10.5012 -15.1631 -5.14415 -10.8186 -14.9718 -4.19998 -11.1097 -14.6779 -3.27362 
-11.3652 -14.3301 -2.3554 -11.5811 -13.9736 -1.43037 -11.7571 -13.6663 -0.479622 
-11.895 -13.4902 0.509757 -11.9967 -13.5373 1.51742 -12.0636 -13.8397 2.4829 
-12.0965 -14.3394 3.36498 -12.0925 -14.958 4.16899 -12.0437 -15.6403 4.91824 
-11.9378 -16.3514 5.6341 -11.762 -17.0677 6.33081 -11.5068 -17.7715 7.01551 
-11.1666 -18.4489 7.68975 -10.7361 -19.0855 8.35206 -10.2024 -19.6589 8.99655 
-9.54111 -20.1292 9.60526 -8.73237 -20.4305 10.1368 -7.79607 -20.5098 10.5185 
-6.80625 -20.3831 10.6933 -5.81296 -20.2185 10.821 -4.82483 -20.1547 11.0432 
-3.82351 -20.1837 11.1958 -2.81114 -20.2341 11.2628 -1.82123 -20.1585 11.4619 
-0.90913 -19.9272 11.8415 -0.0979928 -19.5933 12.3507 0.627653 -19.2045 12.9436 
1.29827 -18.7988 13.5879 1.94615 -18.4077 14.2636 2.60522 -18.0683 14.9567 
3.30737 -17.8335 15.6476 4.09748 -17.813 16.2973 4.90033 -18.0658 16.8006 
5.70764 -18.6412 17.1133 
LINES 1 65
64 0 1 2 3 4 5 6 7 8 9 10 11 12 13 14 15 16 17 18 19 20 21 22 23 24 25 26 27 28 29 30 31 32 33 34 35 36 37 38 39 40 41 42 43 44 45 46 47 48 49 50 51 52 53 54 55 56 57 58 59 60 61 62 63 

POINT_DATA 64
SCALARS MaximumInscribedSphereRadius float
LOOKUP_TABLE default
0.62 0.62 0.653856 0.811929 1.12189 1.55777 1.50531 1.3144 1.31058 
1.2741 1.32006 1.46765 1.3769 1.22303 1.1319 0.840978 0.708735 0.919441 
1.12716 1.24877 1.25142 1.24006 1.25103 1.37563 1.56531 1.61104 1.71173 
2.07592 2.02916 1.82963 1.4976 1.32851 1.47932 1.68204 1.84496 1.86315 
2.00029 2.10808 1.9619 1.86551 1.86 1.86 1.86 1.86821 1.96999 
2.14128 2.178 2.06088 1.88602 2.28725 2.66231 1.99902 1.7139 2.0981 
2.07494 1.84938 1.90202 1.96427 1.99134 2.09553 1.99529 1.28466 1.4672 
2.17 
TEXTURE_COORDINATES TCoords 2 float
0 0 0.015873 0 0.031746 0 0.047619 0 0.0634921 
0 0.0793651 0 0.0952381 0 0.111111 0 0.126984 0 
0.142857 0 0.15873 0 0.174603 0 0.190476 0 0.206349 
0 0.222222 0 0.238095 0 0.253968 0 0.269841 0 
0.285714 0 0.301587 0 0.31746 0 0.333333 0 0.349206 
0 0.365079 0 0.380952 0 0.396825 0 0.412698 0 
0.428571 0 0.444444 0 0.460317 0 0.47619 0 0.492063 
0 0.507937 0 0.52381 0 0.539683 0 0.555556 0 
0.571429 0 0.587302 0 0.603175 0 0.619048 0 0.634921 
0 0.650794 0 0.666667 0 0.68254 0 0.698413 0 
0.714286 0 0.730159 0 0.746032 0 0.761905 0 0.777778 
0 0.793651 0 0.809524 0 0.825397 0 0.84127 0 
0.857143 0 0.873016 0 0.888889 0 0.904762 0 0.920635 
0 0.936508 0 0.952381 0 0.968254 0 0.984127 0 
1 0 
FIELD FieldData 4
Curvature 1 64 float
0.2394 0.318794 0.36658 0.307021 0.190557 0.0975019 0.0770017 0.145858 0.235349 
0.251257 0.154429 0.0568374 0.0768327 0.174738 0.26645 0.292198 0.262598 0.201956 
0.143867 0.102336 0.0835341 0.0968001 0.156601 0.304237 0.661419 0.764574 0.402863 
0.191753 0.103739 0.058554 0.0467068 0.0783811 0.138259 0.202167 0.228405 0.193222 
0.134104 0.0873588 0.0643651 0.0631294 0.0704778 0.0777875 0.0869876 0.107526 0.14786 
0.204738 0.260651 0.2955 0.0535523 0.15916 0.109022 0.135892 0.159369 0.214025 
0.167534 0.114266 0.0667327 0.0384023 0.055082 0.111495 0.197496 0.294939 0.329761 
0.278503 
Torsion 1 64 float
0.00108071 0.00234267 0.00605969 0.020183 0.0879218 0.432096 0.64686 0.223521 0.107727 
0.0702594 0.0904966 0.559341 0.335092 0.110113 0.151342 0.190034 0.195126 0.205268 
0.241782 0.311721 0.3501 0.242341 0.111038 0.0513717 0.0153737 -0.0279201 -0.0594092 
-0.0887102 -0.153329 -0.395527 -0.659107 -0.366229 -0.158241 -0.0746143 -0.018683 0.0359824 
0.118714 0.268613 0.373179 0.282815 0.144202 0.0767835 0.0578002 0.0406827 0.0152564 
0.00641104 -0.101388 -0.0745791 -2.07132 0.0240666 2.63452 0.106175 0.397072 0.0408033 
0.0496726 0.0944978 0.249306 0.778738 0.526606 0.146946 0.0513871 0.0207801 0.00925751 
0.00427626 
Abscissas 1 64 double
0 1.0401040363 2.0197877623 3.0411852232 4.0540698407 5.0686481823 6.0832255756 7.0977675578 8.1120344954 
9.1251192992 10.13957729 11.154164177 12.168776565 13.18320467 14.197191785 15.210632046 16.224088926 17.238080783 
18.252425176 19.266904249 20.281418329 21.295944153 22.310593061 23.323188764 24.348405371 25.327985794 26.341692068 
27.357468283 28.371749783 29.386253101 30.400858705 31.415450689 32.429992343 33.444333315 34.458216698 35.472163428 
36.486455902 37.500932916 38.515486412 39.5300467 40.544596388 41.5591271 42.573650242 43.588155362 44.602601505 
45.616957881 46.630567835 47.644765107 48.657861373 49.672744601 50.687576947 51.700858328 52.716703856 53.729259439 
54.74391824 55.758172065 56.772712757 57.787296286 58.801846156 59.816729114 60.829387504 61.852505375 62.833215071 
63.872779418 
ParallelTransportNormals 3 64 double
0.67789096666 0 0.73516245641 0.43565642738 -0.039933112996 0.89922679218 0.10929614926 -0.12349985846 0.98630732367 
-0.20871872906 -0.23296768664 0.94982237767 -0.37400490588 -0.30387026723 0.87623238417 -0.44212878448 -0.33857374392 0.83059614607 
-0.43819300318 -0.33619950697 0.83364068008 -0.35773947295 -0.27745886248 0.8916496224 -0.19067053163 -0.12804611612 0.97326714756 
-0.0084862010556 0.065118971258 0.99784142226 0.089522934825 0.17991259223 0.97960048147 0.10567651847 0.19928322744 0.97422721616 
0.054636112365 0.13945188925 0.98872041842 -0.071914177838 -0.0042428871939 0.99740179914 -0.26111698417 -0.22138557296 0.9395777502 
-0.43229113171 -0.44595702414 0.78373892979 -0.51845186959 -0.61196815027 0.59724588067 -0.53607643534 -0.70671033391 0.46171696895 
-0.53031352002 -0.75077691221 0.39382940288 -0.52623293642 -0.76231607647 0.37676663358 -0.53239632387 -0.74923898557 0.39394808901 
-0.55238893418 -0.70971933935 0.43722411272 -0.59148936074 -0.62812074126 0.50557360544 -0.66904724149 -0.43075961532 0.60565827202 
-0.79175111318 0.1603699462 0.58941636823 -0.72733823018 0.679071439 0.099202216011 -0.63047065368 0.74386015041 -0.22176300748 
-0.58879225001 0.73052308078 -0.34591865341 -0.56934140985 0.71501518528 -0.4057137462 -0.56358332926 0.7082557633 -0.42514421639 
-0.56795815676 0.71479162817 -0.40803977805 -0.58098649822 0.73685695476 -0.34568268268 -0.60123791991 0.76804954109 -0.22048325581 
-0.62449696047 0.78057436169 -0.026593462334 -0.64284454559 0.74256029296 0.18802952299 -0.65187445704 0.66997871684 0.35522980061 
-0.65372739581 0.59816250141 0.46351064051 -0.65134458197 0.53942294825 0.53364137625 -0.64603826594 0.49161772306 0.58390630525 
-0.63797315247 0.45074856081 0.62435245788 -0.62694599408 0.41442019825 0.65969282229 -0.61268286844 0.38133185391 0.69224686342 
-0.594651512 0.35058967047 0.72351673252 -0.57014246351 0.31983359829 0.75673247631 -0.53109161274 0.28572561144 0.79768576134 
-0.46469956007 0.2508843173 0.84918277079 -0.35121015302 0.22612900832 0.90857971583 -0.19772962848 0.2299159042 0.9529122053 
-0.16211767581 0.23514502809 0.95834475788 -0.2276675778 0.22759129023 0.94676801733 -0.1400944419 0.2291194062 0.96326416162 
-0.053165519314 0.22569231782 0.97274683512 -0.20857748227 0.2237163185 0.95207480942 -0.41791375623 0.18995135155 0.88840676292 
-0.56734756905 0.14093889223 0.81132790199 -0.66043626702 0.097163521266 0.74456912865 -0.71218857114 0.06771351055 0.69871476271 
-0.73603913764 0.053300036369 0.67483738337 -0.73650340814 0.053040537191 0.67435111864 -0.71071225904 0.063917338094 0.70057309308 
-0.63442762296 0.077029239526 0.76913463547 -0.51669164495 0.059433970249 0.85410616859 -0.37044959925 -0.014948535856 0.92873227342 
-0.37044959925 -0.014948535856 0.92873227342 
