# vtk DataFile Version 4.2
vtk output
ASCII
DATASET POLYDATA
POINTS 64 float
0 0 0 -0.723504 0.104329 0.742544 -1.39605 0.277598 1.44476 
-2.09334 0.497132 2.14684 -2.82148 0.723242 2.81684 -3.59356 0.915379 3.44627 
-4.40061 1.06101 4.04355 -5.22072 1.18391 4.62812 -6.04084 1.30821 5.2124 
-6.86587 1.42918 5.79041 -7.71848 1.50482 6.33471 -8.62162 1.45167 6.79147 
-9.54668 1.17434 7.09477 -10.4164 0.679083 7.25564 -11.2232 0.0753492 7.37322 
-12.0202 -0.53921 7.50159 -12.8651 -1.09355 7.58731 -13.7716 -1.53192 7.48316 
-14.6546 -1.84357 7.09819 -15.4256 -2.09419 6.48996 -16.0358 -2.37742 5.73228 
-16.3659 -2.80243 4.87739 -16.2295 -3.40497 4.08139 -15.7526 -4.05698 3.46911 
-15.1784 -4.7183 2.95723 -14.6313 -5.43734 2.49659 -14.2315 -6.31776 2.18983 
-14.2125 -7.23657 2.54405 -14.4524 -7.72167 3.39764 -14.8128 -7.89421 4.32765 
-15.3613 -7.75938 5.16439 -16.029 -7.30993 5.77833 -16.572 -6.67061 6.34623 
-16.8256 -5.99645 7.05541 -16.7356 -5.46975 7.91347 -16.3722 -5.21005 8.82071 
-15.8085 -5.30117 9.65317 -15.1353 -5.84425 10.1589 -14.5829 -6.68674 10.1126 
-14.2091 -7.57167 9.78796 -13.9179 -8.4914 9.4752 -13.6382 -9.46074 9.39597 
-13.3507 -10.3974 9.65035 -13.0654 -11.2393 10.1377 -12.777 -12.0045 10.738 
-12.4581 -12.7187 11.384 -12.0614 -13.3866 12.0362 -11.5273 -13.977 12.6637 
-10.8255 -14.4129 13.2499 -10.0071 -14.6262 13.8078 -9.15456 -14.6346 14.3566 
-8.30612 -14.5058 14.8974 -7.46139 -14.2979 15.4193 -6.60892 -14.0491 15.91 
-5.74159 -13.7907 16.3686 -4.85913 -13.5585 16.8121 -3.96491 -13.3934 17.2617 
-3.06728 -13.3339 17.7301 -2.18433 -13.4143 18.2222 -1.35442 -13.6742 18.7425 
-0.66813 -14.1738 19.2935 -0.328144 -14.9534 19.8321 -0.476524 -15.8398 20.2362 
-1.00207 -16.6996 20.4935 
LINES 1 65
64 0 1 2 3 4 5 6 7 8 9 10 11 12 13 14 15 16 17 18 19 20 21 22 23 24 25 26 27 28 29 30 31 32 33 34 35 36 37 38 39 40 41 42 43 44 45 46 47 48 49 50 51 52 53 54 55 56 57 58 59 60 61 62 63 

POINT_DATA 64
SCALARS MaximumInscribedSphereRadius float
LOOKUP_TABLE default
0.93 1.13982 1.12117 0.951148 0.93 0.93 0.810674 0.69478 0.848575 
0.779015 0.683128 0.871989 0.743445 1.15491 1.38828 1.00519 1.21994 1.44153 
1.36656 1.01215 1.78051 2.12931 1.92758 1.55 1.55076 1.70884 1.99276 
2.17916 2.04022 1.84376 1.91815 2.12753 1.87439 1.65658 1.56467 1.72348 
2.14115 2.19084 2.1948 2.23276 1.99665 1.67175 1.91484 1.50684 1.33792 
1.55083 1.76613 1.86 1.63621 1.13647 1.61325 2.00583 2.0573 1.6218 
1.93284 2.06646 1.97675 2.34175 2.56451 2.60147 2.37817 1.78799 1.68467 
1.86 
TEXTURE_COORDINATES TCoords 2 float
0 0 0.015873 0 0.031746 0 0.047619 0 0.0634921 
0 0.0793651 0 0.0952381 0 0.111111 0 0.126984 0 
0.142857 0 0.15873 0 0.174603 0 0.190476 0 0.206349 
0 0.222222 0 0.238095 0 0.253968 0 0.269841 0 
0.285714 0 0.301587 0 0.31746 0 0.333333 0 0.349206 
0 0.365079 0 0.380952 0 0.396825 0 0.412698 0 
0.428571 0 0.444444 0 0.460317 0 0.47619 0 0.492063 
0 0.507937 0 0.52381 0 0.539683 0 0.555556 0 
0.571429 0 0.587302 0 0.603175 0 0.619048 0 0.634921 
0 0.650794 0 0.666667 0 0.68254 0 0.698413 0 
0.714286 0 0.730159 0 0.746032 0 0.761905 0 0.777778 
0 0.793651 0 0.809524 0 0.825397 0 0.84127 0 
0.857143 0 0.873016 0 0.888889 0 0.904762 0 0.920635 
0 0.936508 0 0.952381 0 0.968254 0 0.984127 0 
1 0 
FIELD FieldData 4
Curvature 1 64 float
0.0711575 0.056668 0.0411726 0.0364574 0.0463542 0.0468543 0.0328163 0.021617 0.00952745 
0.045594 0.114804 0.183406 0.179056 0.0935341 0.0281843 0.0600866 0.153506 0.207209 
0.170424 0.139654 0.220296 0.350827 0.272367 0.0993659 0.0678279 0.214617 0.574625 
0.498173 0.223349 0.241172 0.274955 0.169512 0.217203 0.267093 0.247454 0.266073 
0.378881 0.436594 0.223089 0.0825124 0.162679 0.222063 0.169025 0.0914092 0.0470268 
0.0630387 0.108214 0.15326 0.166772 0.137023 0.0902265 0.0523957 0.034127 0.0251859 
0.0231777 0.0451719 0.0698016 0.0912821 0.12211 0.181988 0.293152 0.375967 0.298863 
0.204913 
Torsion 1 64 float
-0.0574344 -0.128932 -0.297731 -0.444152 -0.257176 -0.0980766 -0.0186282 -0.0072256 -0.463179 
-0.0872027 -0.0447082 -0.0654814 -0.134273 -0.268262 -0.997059 -0.609546 -0.222765 -0.169012 
-0.229894 -0.325888 -0.156593 -0.0303492 -0.0190048 -0.216848 -0.656596 0.0775173 0.180645 
0.0412182 -0.206608 -0.166461 0.23566 0.805991 0.341345 0.148357 0.0975755 0.0385769 
-0.0151063 0.010391 0.14893 0.877428 0.204228 0.0496743 0.0227954 0.122605 0.494385 
0.272222 0.00492889 -0.143017 -0.18575 -0.111485 0.0117233 0.209964 0.369103 0.504699 
0.775722 0.187148 0.0418927 0.0355885 0.0561117 0.0579264 0.0400885 0.0220257 0.0100144 
0.00445116 
Abscissas 1 64 double
0 1.041976539 2.0296239526 3.0431950092 4.0581907164 5.0726818554 6.0872207575 7.1018239146 8.1164282033 
9.1310176803 10.145386024 11.158849408 12.171099867 13.184758524 14.19928476 15.213861672 16.228001132 17.240345251 
18.25280844 19.266251775 20.279529662 21.289688242 22.297300647 23.310919954 24.325369529 25.339526716 26.353981105 
27.338888409 28.349591537 29.361795801 30.371331994 31.383620516 32.396568186 33.407386466 34.418211771 35.429445509 
36.43889745 37.440818367 38.449339195 39.463351051 40.477499941 41.489514466 42.501745109 43.515528635 44.529943556 
45.544438517 46.558712052 47.572391605 48.585389782 49.598613331 50.612539853 51.626888749 52.641406679 53.655963872 
54.670547735 55.685098969 56.699522089 57.71375985 58.727769451 59.741201923 60.753183719 61.759971255 62.745359818 
63.7853727 
ParallelTransportNormals 3 64 double
0 -0.99027339001 0.13913523289 -0.051515587684 -0.97995158207 0.19246049211 -0.081303659137 -0.97142085477 0.2230050177 
-0.088945784092 -0.96903162636 0.2303613566 -0.068898811378 -0.97462040071 0.21299771902 -0.037497331174 -0.98133707864 0.18860405148 
-0.021370570031 -0.98399846177 0.17689071761 -0.022512470324 -0.983826366 0.17770444633 -0.020692455874 -0.98409770617 0.17641861291 
0.011310268413 -0.98784824242 0.15500944416 0.10857012802 -0.98909083189 0.099558292288 0.29386368412 -0.95558168346 0.022534005149 
0.49068453202 -0.87087504266 -0.028378691176 0.59423796724 -0.80299675899 -0.045578979182 0.60517021128 -0.79469235383 -0.047255456247 
0.54534524335 -0.83728241874 -0.039455251012 0.43874992859 -0.89769215349 -0.040586915758 0.35649035335 -0.93216788045 -0.06306877701 
0.3541599087 -0.93296014538 -0.064468024712 0.42016071727 -0.90744935123 0.00080413045619 0.5364869747 -0.81977060286 0.20039432294 
0.57776302486 -0.60009387802 0.55324246462 0.47593053929 -0.3914615955 0.78755821437 0.40969096554 -0.30869482459 0.85840597506 
0.38202118016 -0.2746325718 0.88240397121 0.32402363068 -0.17667276981 0.92940594961 0.201738082 0.3559523641 0.91246899167 
0.27064458951 0.80230256191 0.53203581207 0.34877560846 0.88793270123 0.29988513306 0.431465442 0.89132498501 0.13920252674 
0.55397738236 0.83250243094 -0.0069830013201 0.69000241581 0.71018427308 -0.13976753719 0.7717625203 0.5753183764 -0.27090843109 
0.78343675787 0.48963582901 -0.38273176165 0.76856564454 0.46383861979 -0.44063656773 0.75712783525 0.46176294335 -0.46209568841 
0.74028636062 0.470418676 -0.48029404904 0.71683366393 0.49690458547 -0.48911688908 0.72286750273 0.48565823379 -0.49152685933 
0.74958366341 0.41315425986 -0.51713430471 0.79188245629 0.27319058643 -0.54615847417 0.83946791357 0.11329528015 -0.53146759222 
0.87201128623 0.01223130637 -0.48933292535 0.88645486231 -0.028227031686 -0.4619534736 0.88516418842 -0.025083063006 -0.46460219488 
0.86255692415 0.018584815467 -0.50561858869 0.80220757127 0.10016738579 -0.58858262583 0.6959072363 0.18842788695 -0.69297045383 
0.58852431876 0.23428429323 -0.77378937456 0.52680165367 0.24247880758 -0.81466805852 0.49556139862 0.24026883625 -0.83467945136 
0.46842179536 0.23487090553 -0.8517139657 0.4355480432 0.22602421053 -0.87132712475 0.40501459524 0.21701987491 -0.88818103534 
0.39314223742 0.21369084953 -0.89430162808 0.40633469706 0.21664114364 -0.88767039426 0.43966983782 0.22081906945 -0.87059139226 
0.49009380012 0.22022595443 -0.84339112876 0.56523331976 0.20529336362 -0.79897805294 0.68201345275 0.1467790681 -0.7164590396 
0.82440961159 -0.030965716034 -0.56514592518 0.85731808573 -0.3253680604 -0.39892521247 0.76754661707 -0.56163073179 -0.30893868604 
0.76754661707 -0.56163073179 -0.30893868604 
