# vtk DataFile Version 4.2
vtk output
ASCII
DATASET POLYDATA
POINTS 64 float
0 0 0 -1.00527 -0.0850277 0.260027 -1.95467 -0.0119449 0.480805 
-2.94632 0.135172 0.704235 -3.91592 0.321727 0.923798 -4.88723 0.503173 1.15682 
-5.85967 0.631882 1.41541 -6.82904 0.635173 1.71401 -7.75772 0.411629 2.05284 
-8.57099 -0.0898939 2.39076 -9.24893 -0.791333 2.66911 -9.84912 -1.58765 2.85565 
-10.4278 -2.41749 2.93035 -11.0133 -3.2435 2.86836 -11.6038 -4.03637 2.64163 
-12.1666 -4.77148 2.22769 -12.641 -5.42941 1.61925 -12.9503 -6.00202 0.841847 
-13.0368 -6.50064 -0.0367344 -12.8976 -6.95473 -0.932781 -12.5717 -7.39864 -1.78455 
-12.104 -7.86006 -2.5574 -11.5271 -8.35934 -3.22572 -10.8597 -8.91372 -3.7519 
-10.1188 -9.52828 -4.06145 -9.35071 -10.1658 -3.89244 -8.97925 -10.4885 -3.01279 
-9.03184 -10.5144 -2.00199 -9.26375 -10.458 -1.01603 -9.59777 -10.3936 -0.0601948 
-9.99172 -10.3687 0.874409 -10.4106 -10.4268 1.79656 -10.8042 -10.6164 2.71196 
-11.0993 -10.9771 3.61253 -11.2327 -11.5013 4.47017 -11.2079 -12.1388 5.25878 
-11.0742 -12.8501 5.96957 -10.8821 -13.6219 6.59941 -10.6735 -14.4525 7.14316 
-10.4817 -15.3404 7.59493 -10.3259 -16.275 7.95746 -10.2017 -17.2385 8.24992 
-10.0832 -18.2137 8.50383 -9.93381 -19.1861 8.75161 -9.71255 -20.1391 9.02 
-9.37828 -21.0461 9.32746 -8.8977 -21.8654 9.68292 -8.26207 -22.5472 10.0822 
-7.49904 -23.0593 10.5111 -6.65709 -23.4065 10.9578 -5.78079 -23.6212 11.4217 
-4.90097 -23.7434 11.9118 -4.03855 -23.8087 12.4422 -3.21017 -23.8457 13.0268 
-2.43041 -23.8767 13.6751 -1.71169 -23.9201 14.3898 -1.06314 -23.9936 15.1664 
-0.48916 -24.1173 15.9937 0.0106237 -24.3167 16.8537 0.438946 -24.6256 17.7202 
0.795913 -25.0769 18.5526 1.07722 -25.717 19.3023 1.26902 -26.4749 19.8899 
1.37744 -27.4166 20.3217 
LINES 1 65
64 0 1 2 3 4 5 6 7 8 9 10 11 12 13 14 15 16 17 18 19 20 21 22 23 24 25 26 27 28 29 30 31 32 33 34 35 36 37 38 39 40 41 42 43 44 45 46 47 48 49 50 51 52 53 54 55 56 57 58 59 60 61 62 63 

POINT_DATA 64
SCALARS MaximumInscribedSphereRadius float
LOOKUP_TABLE default
0.62 0.952803 1.13518 0.898542 0.794575 1.14413 1.53241 1.55 1.55 
1.55 1.55 1.47461 1.31564 1.2861 1.35332 1.31873 1.36454 1.67905 
1.64946 1.33355 1.45609 1.62578 1.6678 1.65015 1.58784 1.85101 2.06518 
1.85906 1.68309 1.68085 1.95795 2.18092 2.16743 2.04252 1.89237 1.86 
1.86 1.86 1.74413 1.64944 1.96086 2.27719 2.04547 1.63265 1.8677 
2.12614 1.82054 1.69679 1.98426 2.16068 2.18926 2.37191 2.62535 2.5095 
2.11723 2.16768 2.4504 2.63397 2.72112 2.38863 2.25845 2.42189 2.20396 
1.86 
TEXTURE_COORDINATES TCoords 2 float
0 0 0.015873 0 0.031746 0 0.047619 0 0.0634921 
0 0.0793651 0 0.0952381 0 0.111111 0 0.126984 0 
0.142857 0 0.15873 0 0.174603 0 0.190476 0 0.206349 
0 0.222222 0 0.238095 0 0.253968 0 0.269841 0 
0.285714 0 0.301587 0 0.31746 0 0.333333 0 0.349206 
0 0.365079 0 0.380952 0 0.396825 0 0.412698 0 
0.428571 0 0.444444 0 0.460317 0 0.47619 0 0.492063 
0 0.507937 0 0.52381 0 0.539683 0 0.555556 0 
0.571429 0 0.587302 0 0.603175 0 0.619048 0 0.634921 
0 0.650794 0 0.666667 0 0.68254 0 0.698413 0 
0.714286 0 0.730159 0 0.746032 0 0.761905 0 0.777778 
0 0.793651 0 0.809524 0 0.825397 0 0.84127 0 
0.857143 0 0.873016 0 0.888889 0 0.904762 0 0.920635 
0 0.936508 0 0.952381 0 0.968254 0 0.984127 0 
1 0 
FIELD FieldData 4
Curvature 1 64 float
0.202225 0.131477 0.0753726 0.0339974 0.0315298 0.0726862 0.135608 0.214278 0.260825 
0.221867 0.146694 0.108144 0.116837 0.144925 0.17177 0.196468 0.215541 0.219747 
0.202777 0.171551 0.14371 0.1342 0.154488 0.228991 0.450418 0.902011 0.495664 
0.218807 0.10724 0.069212 0.0857813 0.130525 0.179034 0.201502 0.178854 0.13678 
0.104961 0.0928816 0.0951188 0.093463 0.0726344 0.0387188 0.0323303 0.0677182 0.112317 
0.15374 0.180922 0.182254 0.157634 0.119465 0.0829128 0.0615611 0.0603813 0.0693962 
0.0784927 0.0848115 0.0892249 0.0963877 0.113875 0.143514 0.178324 0.203388 0.207647 
0.192414 
Torsion 1 64 float
-0.013281 -0.0252068 -0.0708305 -0.430917 -0.415114 -0.0983637 -0.0509022 -0.0620644 -0.103524 
-0.194819 -0.352601 -0.39165 -0.173445 0.0161468 0.108992 0.168423 0.20924 0.223098 
0.216181 0.208267 0.203345 0.177227 0.112175 0.0300133 -0.00709375 0.0401908 0.0884413 
0.145268 0.322713 0.534377 0.403405 0.245381 0.183254 0.116045 -0.000128804 -0.133936 
-0.250969 -0.279559 -0.199051 -0.0908726 0.0597498 0.75694 0.783551 0.164319 0.0211038 
0.00292663 0.00568376 0.0242627 0.0625711 0.134772 0.274871 0.436365 0.375489 0.223738 
0.156641 0.155622 0.193622 0.237289 0.225366 0.165598 0.0938421 0.0405562 0.0209255 
0.0138855 
Abscissas 1 64 double
0 1.0418269379 2.0192955709 3.0464008514 4.0579035067 5.0731131617 6.0875470301 7.1018742492 8.1153934836 
9.1288624235 10.143310963 11.157771409 12.172227871 13.186589961 14.20085588 15.214992945 16.228978493 17.242813996 
18.256725727 19.270862831 20.285151405 21.299513449 22.313805066 23.328491278 24.339629169 25.352060362 26.359980242 
27.372480748 28.386909117 29.401481387 30.416022634 31.43050958 32.44484116 33.4588136 34.472803908 35.48713588 
36.501587305 37.51608165 38.530568205 39.545033637 40.559523534 41.574098456 42.588707565 43.603284977 44.617780429 
45.632151462 46.646323191 47.660372044 48.674508345 49.68886121 50.703344324 51.71788534 52.73244446 53.746992079 
54.761518632 55.776025626 56.790523323 57.80501277 58.819438105 59.834229261 60.846124901 61.871294712 62.849266951 
63.890921641 
ParallelTransportNormals 3 64 double
0.25042289031 0 0.96813654823 0.22649478878 -8.4612229374e-05 0.97401237338 0.21989276207 0.00065850859043 0.97552382829 
0.22094266035 0.00047971057419 0.9752866813 0.23297188497 -0.0018011302404 0.97248180278 0.25629818252 -0.0055229610221 0.96658198749 
0.29434853192 -0.0081093944335 0.95566373766 0.3432674323 -0.0024303903381 0.93923456236 0.37745875022 0.011801538345 0.92595119503 
0.37272544447 0.0079836556701 0.92790732527 0.33714625308 -0.033709190542 0.94084860339 0.28148040227 -0.11049497508 0.95318395057 
0.20611362159 -0.21768966562 0.95400649079 0.11092234476 -0.34873160147 0.93063553745 0.0026402524224 -0.49219337046 0.87048188674 
-0.10312316837 -0.63423669859 0.76623065868 -0.18078178324 -0.75618116914 0.62889425684 -0.21204857182 -0.84080931151 0.4980713853 
-0.20960989341 -0.8849325783 0.41588222426 -0.20283200061 -0.89801874646 0.3904119754 -0.20973199416 -0.89014705131 0.40453765914 
-0.23683412965 -0.86522194358 0.44192825592 -0.29107731941 -0.81929003037 0.49400186261 -0.38513324074 -0.74121826197 0.54978893677 
-0.59557995325 -0.5665964998 0.56943210808 -0.91351769764 -0.29867385459 0.27618715519 -0.96981496438 -0.2372007675 -0.056521949408 
-0.94805964138 -0.23952781076 -0.20930681846 -0.92017061292 -0.24548203396 -0.3049993674 -0.89490733758 -0.24858195477 -0.37060473407 
-0.87610174013 -0.24781270983 -0.4135632984 -0.87083105726 -0.24620581878 -0.42548321297 -0.88349617546 -0.25632596938 -0.39208609432 
-0.90123616965 -0.29296265865 -0.31929022402 -0.90590001692 -0.34283182524 -0.2486191846 -0.90172045878 -0.37839771556 -0.20908223998 
-0.89967791939 -0.38769640008 -0.20067671197 -0.90461353672 -0.3679558696 -0.21513443986 -0.91552980138 -0.32110404063 -0.24227541739 
-0.92732854058 -0.25924408742 -0.26991532185 -0.93490373278 -0.2079001401 -0.28763265146 -0.93713976449 -0.19004178161 -0.29266565064 
-0.93353390956 -0.21626119843 -0.28591175868 -0.91961431528 -0.28857011817 -0.26652729323 -0.88502835452 -0.40436750111 -0.23067669094 
-0.81477134587 -0.55320752659 -0.1735197005 -0.69954522022 -0.70816313463 -0.095610980646 -0.55368099632 -0.83267760752 -0.0092388444362 
-0.41112800621 -0.90899767114 0.068534636216 -0.29933881055 -0.94555264732 0.12777506663 -0.22650896631 -0.95952634747 0.16734060082 
-0.18927386759 -0.9635336331 0.18915163475 -0.18059025658 -0.96405902787 0.19487778222 -0.19264824671 -0.96354905234 0.18563371671 
-0.21890348275 -0.96224600424 0.16175256589 -0.25509797186 -0.9591528829 0.1222733494 -0.2988108581 -0.95210146247 0.064922078216 
-0.34924483816 -0.93692197504 -0.01432674806 -0.40690238295 -0.90534424471 -0.12158227388 -0.46937853016 -0.84484208206 -0.25675991083 
-0.53630273178 -0.73062321682 -0.42257436614 -0.58558808407 -0.58405014768 -0.56211388596 -0.62126372714 -0.38451684917 -0.68277241746 
-0.62126372714 -0.38451684917 -0.68277241746 
