# vtk DataFile Version 4.2
vtk output
ASCII
DATASET POLYDATA
POINTS 64 float
0 0 0 -0.999005 0.306751 -0.00332831 -1.96945 0.20099 -0.0574251 
-2.92564 -0.153582 -0.064377 -3.78797 -0.678833 0.0254972 -4.56972 -1.29652 0.215311 
-5.29361 -1.95998 0.470599 -5.99941 -2.64187 0.727987 -6.73319 -3.32596 0.876848 
-7.48058 -3.99435 0.739329 -8.07678 -4.63451 0.231446 -8.38754 -5.26998 -0.493852 
-8.43285 -5.92462 -1.2665 -8.28466 -6.59053 -2.01741 -8.01453 -7.24869 -2.73909 
-7.67712 -7.88307 -3.44939 -7.21235 -8.52697 -4.1835 -7.56959 -8.63296 -4.66618 
-8.0189 -8.23936 -3.71902 -8.39982 -7.99896 -2.83629 -8.67915 -7.84741 -1.8712 
-8.88602 -7.76465 -0.880981 -9.03407 -7.71118 0.12111 -9.11526 -7.65679 1.13092 
-9.09136 -7.61941 2.14431 -8.90473 -7.69612 3.13763 -8.5321 -8.00984 4.02489 
-8.04199 -8.56854 4.71347 -7.52509 -9.28704 5.208 -7.03161 -10.1019 5.55605 
-6.58704 -10.9815 5.79611 -6.20579 -11.9082 5.95449 -5.89175 -12.8676 6.05429 
-5.63701 -13.8472 6.12383 -5.42169 -14.8353 6.20581 -5.2159 -15.8169 6.35833 
-4.98277 -16.7636 6.63738 -4.68546 -17.6369 7.05843 -4.29376 -18.4087 7.58702 
-3.7834 -19.0606 8.17265 -3.13677 -19.5676 8.76659 -2.3545 -19.8899 9.32475 
-1.47369 -19.9946 9.8153 -0.554728 -19.8976 10.2329 0.361723 -19.6583 10.596 
1.26479 -19.3349 10.9265 2.15662 -18.9662 11.2397 3.04138 -18.5785 11.55 
3.92215 -18.1969 11.8786 4.7993 -17.8546 12.2563 5.66452 -17.5974 12.7189 
6.48952 -17.487 13.2976 7.20315 -17.6063 14.0062 7.68579 -18.0132 14.797 
7.88038 -18.6406 15.5682 7.84431 -19.3726 16.269 7.64976 -20.1461 16.8955 
7.34179 -20.9419 17.4439 6.94658 -21.7546 17.9046 6.48271 -22.5762 18.2773 
5.97219 -23.3955 18.5899 5.45648 -24.2043 18.9166 5.00701 -24.9875 19.3693 
5.13784 -25.3972 20.2936 
LINES 1 65
64 0 1 2 3 4 5 6 7 8 9 10 11 12 13 14 15 16 17 18 19 20 21 22 23 24 25 26 27 28 29 30 31 32 33 34 35 36 37 38 39 40 41 42 43 44 45 46 47 48 49 50 51 52 53 54 55 56 57 58 59 60 61 62 63 

POINT_DATA 64
SCALARS MaximumInscribedSphereRadius float
LOOKUP_TABLE default
0.93 0.93 0.93 0.93 0.790239 0.715426 0.968079 1.17977 1.01335 
0.93 1.15546 1.64295 1.36092 1.0073 0.93 0.950717 1.15933 0.857817 
0.756829 0.914645 0.93 0.93 0.937512 1.09144 1.24 1.24 1.24 
1.24 1.25467 1.36563 1.53377 1.39328 1.30515 1.43902 1.40522 1.09463 
1.19311 1.47928 1.35955 1.17542 0.990343 1.33141 1.81571 1.73319 1.72509 
1.82602 1.60808 1.31849 1.2601 1.2772 1.2772 1.28882 1.31243 1.26701 
1.24 1.26228 1.58191 1.8689 1.8675 1.77023 1.58404 1.25872 1.22507 
1.86 
TEXTURE_COORDINATES TCoords 2 float
0 0 0.015873 0 0.031746 0 0.047619 0 0.0634921 
0 0.0793651 0 0.0952381 0 0.111111 0 0.126984 0 
0.142857 0 0.15873 0 0.174603 0 0.190476 0 0.206349 
0 0.222222 0 0.238095 0 0.253968 0 0.269841 0 
0.285714 0 0.301587 0 0.31746 0 0.333333 0 0.349206 
0 0.365079 0 0.380952 0 0.396825 0 0.412698 0 
0.428571 0 0.444444 0 0.460317 0 0.47619 0 0.492063 
0 0.507937 0 0.52381 0 0.539683 0 0.555556 0 
0.571429 0 0.587302 0 0.603175 0 0.619048 0 0.634921 
0 0.650794 0 0.666667 0 0.68254 0 0.698413 0 
0.714286 0 0.730159 0 0.746032 0 0.761905 0 0.777778 
0 0.793651 0 0.809524 0 0.825397 0 0.84127 0 
0.857143 0 0.873016 0 0.888889 0 0.904762 0 0.920635 
0 0.936508 0 0.952381 0 0.968254 0 0.984127 0 
1 0 
FIELD FieldData 4
Curvature 1 64 float
0.332647 0.299802 0.223168 0.167164 0.125913 0.0769913 0.0470644 0.115265 0.244745 
0.318689 0.292842 0.231355 0.168726 0.106383 0.0632487 0.128192 0.585786 0.789633 
0.199599 0.114941 0.0808097 0.0586719 0.0602792 0.0869741 0.157545 0.248785 0.269593 
0.207192 0.143463 0.105677 0.0877074 0.0751102 0.0566796 0.0388293 0.0567833 0.103974 
0.133448 0.135614 0.136833 0.153799 0.179785 0.193725 0.169981 0.119318 0.0714448 
0.0383671 0.0180535 0.0180708 0.0482296 0.0943244 0.153109 0.228471 0.300817 0.285957 
0.208051 0.140846 0.106713 0.0960328 0.0863243 0.0595143 0.0442996 0.200493 0.687083 
0.677803 
Torsion 1 64 float
-0.0916085 -0.17314 -0.239709 -0.208375 -0.106289 0.0479203 0.368856 0.0669723 -0.129342 
-0.278706 -0.30085 -0.16943 -0.0414017 0.0745905 0.28619 0.114153 0.0420138 0.0504096 
0.0286972 0.00941142 -0.0867569 -0.280157 -0.117517 0.309638 0.297619 0.16034 0.0927023 
0.090221 0.11916 0.142893 0.131993 0.125469 0.269807 0.799058 0.467747 0.193699 
0.184226 0.223162 0.208423 0.121256 0.0226899 -0.039302 -0.0539913 -0.0447643 -0.0261271 
-0.0383455 -0.594124 -0.845136 -0.122036 -0.0384876 -0.0236455 -0.0130768 0.00268988 0.0237468 
0.0276709 -0.0233532 -0.0997528 -0.0900605 -0.00179643 0.130877 0.535276 0.0859125 0.032813 
0.00725836 
Abscissas 1 64 double
0 1.0450445483 2.0227286325 3.0425729835 4.0562640129 5.0705183227 6.0850903226 7.099671277 8.1138623128 
9.1259080652 10.137447034 11.150584418 12.164289628 13.178814287 14.192205007 15.20256276 16.284011288 16.893797974 
18.013579191 19.004591752 20.02065441 21.035635118 22.0500142 23.064544944 24.07890695 25.09250735 26.104685997 
27.117842973 28.131744156 29.146000048 30.160378135 31.17480727 32.189294317 33.203854759 34.218430278 35.232881375 
36.247060918 37.261125368 38.275258423 39.289334905 40.303221186 41.316827752 42.330449358 43.344493929 44.35890415 
45.373450255 46.38803727 47.402642126 48.417225036 49.431709605 50.445977691 51.45975603 52.472482658 53.484339699 
54.497404426 55.511355213 56.525617161 57.539958402 58.554325747 59.568786008 60.583442042 61.596810877 62.606884778 
63.626353172 
ParallelTransportNormals 3 64 double
-0.0033316095341 0 0.99999445017 -0.056203925616 0.00502947687 0.99840664216 -0.012924100333 0.015250780067 0.9998001707 
0.070047634668 0.055423399077 0.99600279905 0.15051879798 0.11136381785 0.98231471104 0.20032467971 0.15374295366 0.96759140493 
0.20228487088 0.15558750935 0.96688849303 0.12442854463 0.081712215923 0.9888582563 -0.084612411252 -0.10916270438 0.99041619728 
-0.3460653708 -0.36380422664 0.86480358684 -0.47780003368 -0.54904041347 0.68575633588 -0.50405518504 -0.64414751463 0.57532803672 
-0.50013313493 -0.69452723464 0.51720283033 -0.48966064442 -0.72766893718 0.48034401336 -0.47633450361 -0.75601496241 0.44893965885 
-0.45361817084 -0.79240084641 0.40783753345 -0.44455520335 -0.7477364022 0.4932149065 0.20653565209 -0.86493924672 0.45740914278 
0.25314288305 -0.90018316989 0.35438530077 0.29716738767 -0.92634134285 0.23148058285 0.31870335861 -0.93671888977 0.1448650778 
0.32696953813 -0.93989165844 0.098461116861 0.32939579832 -0.94103326843 0.077167323159 0.33081628919 -0.94330911387 0.02699071115 
0.3141690761 -0.94019653649 -0.13163686564 0.23157587877 -0.88252643062 -0.40929171946 0.091175349395 -0.74056061679 -0.6657755091 
-0.033241223837 -0.58276644424 -0.81195953872 -0.12029593878 -0.4506505033 -0.88455808797 -0.18007901552 -0.3426597727 -0.92203895164 
-0.2214668146 -0.25213769236 -0.94200797986 -0.24799668022 -0.18016987147 -0.95185947703 -0.26103052181 -0.13573550001 -0.9557399964 
-0.26093124193 -0.1361510761 -0.95570799487 -0.24744970253 -0.19920851942 -0.94820072269 -0.21880375946 -0.32506024962 -0.92003301515 
-0.1750181065 -0.47529623746 -0.86224251174 -0.12185674442 -0.60222409605 -0.78897216173 -0.063659647634 -0.69407081626 -0.71708657167 
0.0017703824919 -0.75960674685 -0.65038023946 0.084042878337 -0.80735790345 -0.5840462399 0.18917508379 -0.83435374988 -0.51775149226 
0.29836498545 -0.83482252489 -0.46265504146 0.38302051632 -0.81931014046 -0.42664525992 0.43621660207 -0.80285751739 -0.40636791562 
0.46607651699 -0.7913444131 -0.39565982886 0.4809571166 -0.78500907169 -0.39043694671 0.48461206502 -0.78341640335 -0.38911423181 
0.4760899062 -0.78692586808 -0.39253799734 0.4523207156 -0.79510334068 -0.40400080182 0.40957668646 -0.80439877124 -0.43033655983 
0.34579695026 -0.80402490242 -0.48370282765 0.27834060842 -0.77434248247 -0.56826070209 0.24361352878 -0.721325276 -0.64833810223 
0.2385231284 -0.67770311309 -0.69557545078 0.24327522654 -0.64667826291 -0.7229276509 0.2538855706 -0.6135423353 -0.74773519366 
0.27234038728 -0.57132753389 -0.77421932453 0.29515363114 -0.52792798631 -0.79635191674 0.31074487089 -0.50167243464 -0.80731802503 
0.30162400931 -0.51614233457 -0.80163585715 0.25690290836 -0.58991228637 -0.76550923578 0.17605721596 -0.89046766062 -0.41960839136 
0.17605721596 -0.89046766062 -0.41960839136 
