# vtk DataFile Version 4.2
vtk output
ASCII
DATASET POLYDATA
POINTS 64 float
0 0 0 -0.968165 -0.025353 -0.393626 -1.83318 -0.0326388 -0.840583 
-2.74072 -0.0665924 -1.3199 -3.64983 -0.171028 -1.75184 -4.58389 -0.415356 -2.06211 
-5.48278 -0.869546 -2.17233 -6.27316 -1.50599 -2.20465 -6.95798 -2.20467 -2.46109 
-7.50648 -2.85457 -3.01317 -7.90451 -3.49087 -3.69558 -8.15103 -4.18687 -4.39083 
-8.22855 -4.95002 -5.05422 -8.12085 -5.71577 -5.71055 -7.81871 -6.36844 -6.42471 
-7.35127 -6.808 -7.20932 -6.78216 -7.05675 -8.01457 -6.16919 -7.22657 -8.7781 
-5.44019 -7.38946 -9.5956 -5.2875 -8.15849 -9.34726 -5.86825 -8.32831 -8.52477 
-6.44958 -8.27983 -7.70427 -6.98125 -7.9832 -6.89057 -7.38301 -7.51778 -6.08464 
-7.61831 -6.98964 -5.25133 -7.66651 -6.56228 -4.33319 -7.53381 -6.46235 -3.33637 
-7.31312 -6.78733 -2.40313 -7.10943 -7.39136 -1.61435 -6.95841 -8.13943 -0.946232 
-6.86226 -8.96893 -0.370257 -6.80432 -9.84681 0.134975 -6.75034 -10.7509 0.592253 
-6.65419 -11.6612 1.02974 -6.47713 -12.5544 1.47702 -6.20926 -13.4075 1.95608 
-5.8714 -14.211 2.47528 -5.49451 -14.9714 3.0313 -5.10005 -15.7036 3.6123 
-4.69087 -16.4219 4.20065 -4.25098 -17.1312 4.77741 -3.75335 -17.8235 5.32729 
-3.17608 -18.4782 5.84432 -2.51146 -19.0672 6.33464 -1.76293 -19.5561 6.81373 
-0.941593 -19.9025 7.29749 -0.0708357 -20.0644 7.79133 0.813128 -20.026 8.28684 
1.67851 -19.818 8.77344 2.51671 -19.5052 9.25186 3.33834 -19.1556 9.73365 
4.15681 -18.8252 10.2339 4.97754 -18.5567 10.7664 5.79414 -18.3843 11.343 
6.58597 -18.3431 11.9755 7.30906 -18.4764 12.6737 7.88406 -18.8198 13.4343 
8.21658 -19.3604 14.224 8.26521 -20.0254 14.9873 8.07038 -20.7365 15.6838 
7.70919 -21.4499 16.3039 7.25071 -22.1723 16.8716 6.7854 -22.863 17.3763 
6.37527 -23.6488 17.9305 
LINES 1 65
64 0 1 2 3 4 5 6 7 8 9 10 11 12 13 14 15 16 17 18 19 20 21 22 23 24 25 26 27 28 29 30 31 32 33 34 35 36 37 38 39 40 41 42 43 44 45 46 47 48 49 50 51 52 53 54 55 56 57 58 59 60 61 62 63 

POINT_DATA 64
SCALARS MaximumInscribedSphereRadius float
LOOKUP_TABLE default
1.24 1.05993 0.937832 0.93 0.93 0.934086 0.941427 0.819293 0.969316 
0.91009 0.797632 1.08928 0.908259 0.815673 1.16815 1.07141 1.06527 1.49961 
1.72454 0.93 0.973836 1.15559 1.23829 1.24 1.24265 1.32319 1.50801 
1.57204 1.45765 1.29033 1.40411 1.52866 1.55 1.44388 1.27037 1.24 
1.38811 1.747 1.72479 1.53779 1.3484 1.38445 1.69095 1.81823 1.91326 
2.06677 1.84598 1.35701 1.42744 1.4823 1.3124 1.25611 1.3442 1.65618 
1.77548 1.63583 1.72898 1.68085 1.33784 1.43295 1.56018 1.55943 1.56094 
1.581 
TEXTURE_COORDINATES TCoords 2 float
0 0 0.015873 0 0.031746 0 0.047619 0 0.0634921 
0 0.0793651 0 0.0952381 0 0.111111 0 0.126984 0 
0.142857 0 0.15873 0 0.174603 0 0.190476 0 0.206349 
0 0.222222 0 0.238095 0 0.253968 0 0.269841 0 
0.285714 0 0.301587 0 0.31746 0 0.333333 0 0.349206 
0 0.365079 0 0.380952 0 0.396825 0 0.412698 0 
0.428571 0 0.444444 0 0.460317 0 0.47619 0 0.492063 
0 0.507937 0 0.52381 0 0.539683 0 0.555556 0 
0.571429 0 0.587302 0 0.603175 0 0.619048 0 0.634921 
0 0.650794 0 0.666667 0 0.68254 0 0.698413 0 
0.714286 0 0.730159 0 0.746032 0 0.761905 0 0.777778 
0 0.793651 0 0.809524 0 0.825397 0 0.84127 0 
0.857143 0 0.873016 0 0.888889 0 0.904762 0 0.920635 
0 0.936508 0 0.952381 0 0.968254 0 0.984127 0 
1 0 
FIELD FieldData 4
Curvature 1 64 float
0.160153 0.0730554 0.042834 0.0976312 0.187857 0.276423 0.217996 0.222939 0.281274 
0.186443 0.142176 0.153094 0.156072 0.194951 0.234513 0.184088 0.101344 0.182077 
1.26829 0.783999 0.262911 0.200338 0.177832 0.153246 0.201273 0.321968 0.365701 
0.269674 0.166156 0.110793 0.077372 0.0516137 0.0480456 0.071354 0.0864953 0.0784161 
0.0570014 0.0338395 0.0169747 0.0275509 0.0537573 0.0769151 0.0921361 0.106672 0.131135 
0.156772 0.163905 0.140303 0.0897813 0.0359881 0.0239477 0.0569201 0.0861897 0.118007 
0.163657 0.217778 0.257322 0.256747 0.214596 0.153451 0.0919195 0.0593835 0.121748 
0.324363 
Torsion 1 64 float
0.0627473 0.358525 0.782323 0.184459 0.0217947 -0.0896908 -0.714364 -0.913331 0.043907 
0.441183 0.375203 -0.083827 -0.428667 -0.383964 -0.102563 0.05782 0.340801 0.335952 
0.0601726 -0.0569567 -0.141668 -0.207149 -0.331965 -0.602343 -0.50564 -0.269978 -0.16906 
-0.127672 -0.113213 -0.0546127 0.115433 0.510407 0.618601 0.28748 0.181412 0.175662 
0.175555 0.0170819 -0.859916 -0.297242 0.0680622 0.144035 0.191506 0.203667 0.140363 
0.0687204 0.0333705 0.0272038 0.0645247 0.688521 1.65312 0.0693263 -0.0309542 -0.054766 
-0.0664702 -0.0877649 -0.0939948 -0.066548 -0.0233826 0.0263385 0.151411 0.368009 0.188164 
0.0569483 
Abscissas 1 64 double
0 1.0454320447 2.0191197908 3.0460250426 4.0579328141 5.0720508344 6.0851844648 7.1004721319 8.1118490119 
9.1257583973 10.140152714 11.154332356 12.168480272 13.182749754 14.196299857 15.209873215 16.226828041 17.220576811 
18.327955765 19.15038918 20.171468867 21.178201451 22.194451157 23.208137528 24.222385212 25.236258625 26.246832346 
27.259372132 28.27353393 29.287829357 30.302260653 31.31679622 32.331390015 33.345943269 34.360414842 35.37487517 
36.389394211 37.403967024 38.418564702 39.433167637 40.447750057 41.462265351 42.476727022 43.491142849 44.505496843 
45.519708293 46.533759818 47.547857894 48.562213805 49.576757645 50.591366458 51.605942691 52.620443007 53.634851226 
54.649123598 55.663101254 56.676537439 57.689658452 58.703174315 59.717419599 60.729314594 61.756182387 62.72997251 
63.775333094 
ParallelTransportNormals 3 64 double
-0.37663036014 0 0.92636362829 -0.45903874136 -0.001441265472 0.8884150813 -0.46696641704 -0.0016226500052 0.88427356195 
-0.42927034147 0.0012597045049 0.90317516965 -0.32030389893 0.021869542832 0.94706237145 -0.16209723742 0.082169680167 0.9833476645 
-0.12551764884 0.10578052752 0.98643590761 -0.30167541107 -0.053686343693 0.95189795822 -0.50229464986 -0.27303405889 0.82045870549 
-0.58880975279 -0.39059267968 0.70763015312 -0.61244961367 -0.43945852195 0.657100965 -0.62087960413 -0.47741805488 0.62175599559 
-0.61926273966 -0.55937045209 0.55101574986 -0.57570585754 -0.71008811262 0.40538578899 -0.47069766241 -0.85912211889 0.20088030127 
-0.36106686991 -0.93196626287 0.032704744582 -0.30884296301 -0.95041041908 -0.036552147865 -0.28553103835 -0.95622376073 -0.064094816825 
-0.95443458781 -0.098541258884 0.28168109252 -0.72153389989 0.57101636663 -0.39157265016 -0.64906047193 0.57848770412 -0.49403692165 
-0.58597082188 0.55899560181 -0.5866533159 -0.57552296667 0.5504621137 -0.60478490078 -0.5998204561 0.58835268902 -0.54226979795 
-0.63019467848 0.6907347052 -0.35459869465 -0.61437375558 0.78901053403 0.0026954838354 -0.54388824652 0.74419464091 0.38776270029 
-0.49005244155 0.626375698 0.60621950603 -0.46611743623 0.53513996095 0.70452803907 -0.45611306269 0.47128785031 0.75488319374 
-0.45170443757 0.42244005671 0.78581645412 -0.44914934081 0.38175518416 0.80779195899 -0.44642727479 0.34885743268 0.82401527898 
-0.44349363398 0.32949303758 0.83351528769 -0.44336158241 0.32897474993 0.83379021412 -0.44890367748 0.34413201725 0.82465668193 
-0.45852343639 0.3651794753 0.81018529307 -0.46693174536 0.38145037847 0.7977909212 -0.46863370111 0.384522279 0.79531444796 
-0.46029184153 0.37049650042 0.80676128055 -0.44118480964 0.34193036347 0.82972259839 -0.41525639053 0.30944000416 0.85545836483 
-0.39177707125 0.28592774145 0.87450331795 -0.38205530201 0.27851206457 0.88117238727 -0.39433516921 0.28504656184 0.87364079112 
-0.42914278943 0.29550211712 0.85353088114 -0.47647324249 0.2988323752 0.82684488311 -0.52114113095 0.29254160296 0.80176762978 
-0.55290082465 0.28283317108 0.78377680206 -0.57081674779 0.27568348502 0.77341247503 -0.57944845112 0.27210446433 0.76824387599 
-0.58467490507 0.2701948566 0.76495097545 -0.59282039772 0.2680013785 0.75943349753 -0.61006428381 0.26571182756 0.74647089315 
-0.64329821787 0.26773277485 0.71727718782 -0.69710042062 0.28749118609 0.65681033906 -0.75662574715 0.34548063173 0.5551221594 
-0.78649460885 0.4399456237 0.43344443522 -0.77621843847 0.53672752349 0.33076955923 -0.74816265577 0.60857627574 0.26436254864 
-0.727199257 0.64532941865 0.23394696417 -0.72211170423 0.65310588798 0.22805127866 -0.7599316339 0.58960834876 0.27361634977 
-0.7599316339 0.58960834876 0.27361634977 
