# vtk DataFile Version 4.2
vtk output
ASCII
DATASET POLYDATA
POINTS 64 float
0 0 0 -0.299947 0.0939117 -0.979865 -0.851361 -0.0253643 -1.79694 
-1.6539 -0.413127 -2.29072 -2.50158 -0.959925 -2.39745 -3.31542 -1.55813 -2.30582 
-4.09607 -2.17784 -2.1157 -4.85698 -2.80971 -1.88928 -5.61316 -3.45213 -1.67865 
-6.38077 -4.1059 -1.5599 -7.12856 -4.76786 -1.74551 -7.61643 -5.37472 -2.38342 
-7.76452 -5.93006 -3.22224 -7.70214 -6.49788 -4.06025 -7.50863 -7.10279 -4.85147 
-7.21883 -7.74819 -5.57863 -6.85322 -8.4311 -6.23383 -6.42449 -9.1466 -6.81135 
-5.93959 -9.89193 -7.30016 -5.40154 -10.6673 -7.67077 -4.81185 -11.4771 -7.85009 
-4.2365 -12.2701 -7.61578 -3.9037 -12.8267 -6.84334 -3.86437 -13.1054 -5.86392 
-3.94934 -13.3035 -4.87378 -4.07991 -13.5165 -3.8901 -4.20716 -13.8048 -2.92578 
-4.29183 -14.2122 -2.00054 -4.30172 -14.7624 -1.14836 -4.22352 -15.4448 -0.401838 
-4.0684 -16.2207 0.233105 -3.85655 -17.0501 0.777611 -3.60307 -17.9044 1.26271 
-3.31179 -18.7629 1.7183 -2.97555 -19.6071 2.16956 -2.57805 -20.4159 2.63558 
-2.09875 -21.1634 3.12639 -1.52149 -21.8201 3.64077 -0.84463 -22.3621 4.1673 
-0.0835026 -22.7798 4.69214 0.738661 -23.0783 5.20617 1.60006 -23.2713 5.70625 
2.48367 -23.3752 6.1939 3.37719 -23.4057 6.67356 4.27199 -23.3764 7.15094 
5.16182 -23.2993 7.63225 6.04235 -23.1857 8.12335 6.91127 -23.048 8.62875 
7.76865 -22.9008 9.1509 8.61663 -22.7606 9.69006 9.45837 -22.6449 10.2446 
10.2964 -22.571 10.8117 11.131 -22.556 11.3885 11.9576 -22.6177 11.9734 
12.7656 -22.7759 12.5663 13.5335 -23.053 13.1686 14.2251 -23.4708 13.7821 
14.7877 -24.041 14.4044 15.1631 -24.7521 15.0224 15.3105 -25.5645 15.6127 
15.2311 -26.4178 16.1502 14.9474 -27.2763 16.629 14.5275 -28.0801 17.0356 
13.9708 -28.8658 17.3977 
LINES 1 65
64 0 1 2 3 4 5 6 7 8 9 10 11 12 13 14 15 16 17 18 19 20 21 22 23 24 25 26 27 28 29 30 31 32 33 34 35 36 37 38 39 40 41 42 43 44 45 46 47 48 49 50 51 52 53 54 55 56 57 58 59 60 61 62 63 

POINT_DATA 64
SCALARS MaximumInscribedSphereRadius float
LOOKUP_TABLE default
1.24 1.09229 0.987418 1.37923 1.44247 1.24854 1.07348 1.06987 1.38044 
1.64415 1.32682 1.02588 1.44129 1.41528 1.28686 1.2772 1.25875 1.09958 
0.978408 1.10529 1.30762 1.48211 1.55 1.55 1.55519 1.56946 1.64688 
1.79091 1.75849 1.61353 1.58185 1.58246 1.85547 2.07755 1.71694 1.32073 
1.24 1.35879 1.72497 2.01154 2.14081 2.10213 1.9464 1.98343 2.12492 
2.05239 1.89485 1.73163 1.59152 1.85251 2.13608 2.13313 2.12052 2.2459 
2.37092 2.4457 2.29221 1.98911 2.01412 2.14471 2.17 2.17 2.17 
2.17 
TEXTURE_COORDINATES TCoords 2 float
0 0 0.015873 0 0.031746 0 0.047619 0 0.0634921 
0 0.0793651 0 0.0952381 0 0.111111 0 0.126984 0 
0.142857 0 0.15873 0 0.174603 0 0.190476 0 0.206349 
0 0.222222 0 0.238095 0 0.253968 0 0.269841 0 
0.285714 0 0.301587 0 0.31746 0 0.333333 0 0.349206 
0 0.365079 0 0.380952 0 0.396825 0 0.412698 0 
0.428571 0 0.444444 0 0.460317 0 0.47619 0 0.492063 
0 0.507937 0 0.52381 0 0.539683 0 0.555556 0 
0.571429 0 0.587302 0 0.603175 0 0.619048 0 0.634921 
0 0.650794 0 0.666667 0 0.68254 0 0.698413 0 
0.714286 0 0.730159 0 0.746032 0 0.761905 0 0.777778 
0 0.793651 0 0.809524 0 0.825397 0 0.84127 0 
0.857143 0 0.873016 0 0.888889 0 0.904762 0 0.920635 
0 0.936508 0 0.952381 0 0.968254 0 0.984127 0 
1 0 
FIELD FieldData 4
Curvature 1 64 float
0.279701 0.408191 0.507608 0.390281 0.217124 0.107399 0.0512546 0.0703461 0.170039 
0.354641 0.516857 0.419292 0.268101 0.185594 0.143584 0.116505 0.0987683 0.104724 
0.148174 0.246058 0.440848 0.619 0.455328 0.201585 0.0867998 0.0792292 0.123495 
0.164518 0.178152 0.156151 0.115385 0.0742612 0.0453045 0.0449443 0.0698005 0.100619 
0.127131 0.141281 0.139111 0.125235 0.106377 0.0869029 0.0695483 0.0555582 0.0449463 
0.0365882 0.028718 0.0211935 0.0195326 0.027656 0.0407278 0.0557177 0.0729174 0.0938423 
0.120058 0.152073 0.187124 0.217509 0.23389 0.230489 0.21002 0.182983 0.157124 
0.135128 
Torsion 1 64 float
0.00281126 0.00628391 0.014347 0.0237827 0.0336069 0.0842695 0.225831 0.208226 0.0263683 
-0.0722232 -0.248766 -0.289325 -0.19822 -0.125928 -0.0867175 -0.0563819 -0.0488569 -0.0522879 
-0.0501357 -0.0523506 -0.0651276 -0.0911533 -0.119057 -0.215493 -0.564135 -0.462165 -0.158228 
-0.0617875 -0.0253807 -0.0173964 -0.0451088 -0.155065 -0.528351 -0.544783 -0.164969 -0.0225885 
0.0214006 0.0220181 0.00610447 -0.012076 -0.0318817 -0.0559894 -0.088487 -0.131328 -0.18015 
-0.233414 -0.331544 -0.595046 -0.767226 -0.419783 -0.182675 -0.0636444 0.00407211 0.0479159 
0.0766592 0.0933076 0.0914346 0.0718443 0.0517833 0.0356387 0.0243402 0.0173319 0.0127319 
0.00953667 
Abscissas 1 64 double
0 1.0290397246 2.0219668768 3.0409122492 4.0552809686 5.0694647504 6.0841622445 7.0988054883 8.113146968 
9.1284013871 10.144188444 11.150779052 12.167612742 13.181798356 14.196389905 15.210927532 16.225481264 17.240021215 
18.254700089 19.268594544 20.286298609 21.293690103 22.302227622 23.32129995 24.334625319 25.349548704 26.364042721 
27.378557223 28.392958285 29.407357578 30.421872477 31.436438315 32.451028484 33.465628203 34.480224507 35.494800933 
36.509336926 37.523812139 38.538280256 39.552784871 40.567319983 41.581881473 42.596459641 43.611047664 44.625641596 
45.640239083 46.654838864 47.669441426 48.684044841 49.698648435 50.713249028 51.727843351 52.742430836 53.757007001 
54.771567655 55.786094935 56.800562828 57.81495057 58.829078111 59.843996864 60.855661204 61.878745581 62.872579464 
63.901358927 
ParallelTransportNormals 3 64 double
0 0.99543860608 0.095404305642 -0.086712454549 0.99248299898 -0.086362300554 -0.27763907588 0.92130227712 -0.27224742005 
-0.47773506257 0.8079467543 -0.34495108668 -0.5806751715 0.73700730874 -0.3458852007 -0.63440699619 0.69596583855 -0.33639160924 
-0.65927452113 0.675776071 -0.3296722731 -0.66299020738 0.67265505194 -0.32860183507 -0.64066129428 0.69164887112 -0.33342907054 
-0.57819349237 0.74588575155 -0.33067617242 -0.55194168131 0.77286241629 -0.31311989065 -0.57928813595 0.72301096084 -0.37640457762 
-0.58479076745 0.65066881815 -0.48440669626 -0.56936379867 0.57996116515 -0.58264046519 -0.5421150303 0.50946878599 -0.66824609989 
-0.50753625824 0.43938854487 -0.7411778823 -0.46732357285 0.36859551439 -0.80358324089 -0.41902311258 0.2913663998 -0.85995654087 
-0.35276151621 0.19286738949 -0.91562081822 -0.24259400471 0.038007560442 -0.96938308951 -0.0060738282306 -0.2874006195 -0.95779120508 
0.28260828285 -0.71638193797 -0.63791024244 0.36142291512 -0.89286973351 -0.26862076502 0.35873231943 -0.92074987754 -0.15339747716 
0.35856887792 -0.92106166689 -0.1519005121 0.36777387729 -0.9031621844 -0.22145077071 0.3814158045 -0.85837821166 -0.34308720439 
0.38956927216 -0.77580408585 -0.4963504836 0.38322991956 -0.66142513135 -0.64471049655 0.36459824639 -0.5449744131 -0.75503046812 
0.34346479679 -0.45252185802 -0.82295558895 0.32661586436 -0.39155724754 -0.86023543233 0.31619220191 -0.35878418095 -0.87823482222 
0.31225943384 -0.34811294069 -0.88391822388 0.31448501051 -0.35312688449 -0.88113596091 0.32208995732 -0.36662513551 -0.87283679426 
0.33356029608 -0.38186957508 -0.86192410136 0.34647627797 -0.39421552779 -0.85120403339 0.35938684556 -0.40283178633 -0.84176460317 
0.37250700328 -0.40876634505 -0.83315581235 0.38634273608 -0.41280552453 -0.82482173177 0.40159568658 -0.41540099265 -0.81618804195 
0.41887581651 -0.41670784279 -0.80678226561 0.43846465429 -0.41672098617 -0.79629916905 0.46036043321 -0.41541579045 -0.78453680129 
0.48367408146 -0.41290465889 -0.77173125218 0.50628860342 -0.40965654494 -0.75885002816 0.52514137601 -0.4065447525 -0.74762818259 
0.53739161684 -0.4044797387 -0.74000431832 0.54133404985 -0.40388260276 -0.73745256774 0.53672297898 -0.40440297829 -0.74053134639 
0.5247943421 -0.40503653496 -0.74868972468 0.50790946802 -0.40456184593 -0.76049831368 0.48920761736 -0.40204623474 -0.77397334078 
0.47313521268 -0.39760661362 -0.78616286565 0.46525159178 -0.39385337333 -0.79272976269 0.46958463794 -0.39726713547 -0.78845994881 
0.48274705698 -0.41524746389 -0.77105435782 0.49477292703 -0.4502831662 -0.74326631897 0.49659502327 -0.49521291598 -0.71285170317 
0.48656352298 -0.54266258265 -0.684670183 0.47008990425 -0.58145802826 -0.66401961063 0.44875101586 -0.6162786491 -0.64716547531 
0.44875101586 -0.6162786491 -0.64716547531 
