# vtk DataFile Version 4.2
vtk output
ASCII
DATASET POLYDATA
POINTS 64 float
0 0 0 -0.728577 0.368181 0.644514 -1.60343 0.463588 1.09192 
-2.55208 0.396438 1.44338 -3.50275 0.253487 1.76894 -4.43664 0.107515 2.13733 
-5.34147 0.00612263 2.5844 -6.21181 -0.041803 3.10336 -7.06455 -0.0852071 3.6514 
-7.93518 -0.282761 4.13104 -8.69986 -0.910727 4.27542 -9.14148 -1.7862 4.02863 
-9.36407 -2.66758 3.58064 -9.44609 -3.49816 3.00496 -9.4115 -4.25601 2.33213 
-9.26915 -4.92692 1.58516 -9.03639 -5.50277 0.783367 -8.74444 -5.98979 -0.0572108 
-8.41307 -6.40973 -0.919227 -8.03548 -6.79368 -1.77904 -7.59303 -7.17967 -2.60625 
-7.0686 -7.61454 -3.35742 -6.46085 -8.16241 -3.95427 -5.84102 -8.9139 -4.21441 
-5.55682 -9.78567 -3.83424 -5.80876 -10.3978 -3.07316 -6.36554 -10.7133 -2.28963 
-7.08396 -10.7433 -1.5773 -7.82932 -10.4646 -0.951615 -8.45587 -9.92294 -0.368453 
-8.89769 -9.24263 0.239388 -9.17043 -8.54087 0.918495 -9.30593 -7.89798 1.69063 
-9.30813 -7.38899 2.56669 -9.13897 -7.14897 3.53385 -8.78641 -7.34247 4.45862 
-8.35898 -7.91199 5.17724 -7.95075 -8.69677 5.67071 -7.59519 -9.60999 5.92606 
-7.30102 -10.5748 5.85637 -7.05945 -11.4295 5.37598 -6.83806 -12.0572 4.61209 
-6.60092 -12.5602 3.76355 -6.32481 -13.1131 2.95963 -6.02141 -13.8916 2.3938 
-5.7706 -14.8601 2.2518 -5.60523 -15.8428 2.43379 -5.49692 -16.7687 2.83169 
-5.39442 -17.5935 3.4118 -5.19847 -18.2496 4.1576 -4.7296 -18.5959 4.97931 
-3.94867 -18.5572 5.61793 -3.05728 -18.3447 6.05237 -2.1521 -18.1236 6.45373 
-1.27223 -17.9622 6.93155 -0.446203 -17.8811 7.51442 0.346566 -17.8509 8.1469 
1.16776 -17.8214 8.74162 2.05328 -17.7622 9.2324 2.98643 -17.6813 9.62206 
3.93309 -17.6074 9.9798 4.83463 -17.5871 10.4407 5.29762 -17.7437 11.2717 
4.89837 -18.0411 12.1883 
LINES 1 65
64 0 1 2 3 4 5 6 7 8 9 10 11 12 13 14 15 16 17 18 19 20 21 22 23 24 25 26 27 28 29 30 31 32 33 34 35 36 37 38 39 40 41 42 43 44 45 46 47 48 49 50 51 52 53 54 55 56 57 58 59 60 61 62 63 

POINT_DATA 64
SCALARS MaximumInscribedSphereRadius float
LOOKUP_TABLE default
1.24 0.810558 0.620604 0.758995 1.25613 1.03031 0.686849 0.692884 1.07296 
0.854965 0.859063 1.13817 1.07949 0.93 0.93 0.93 0.93 0.93 
0.93 0.9525 1.23352 1.55 1.56508 1.65618 1.07 1.38631 1.34568 
1.24 1.34259 1.59013 1.77339 1.89764 1.92382 1.82265 1.61687 1.78644 
1.86 1.7622 1.53916 1.32871 1.43015 1.55 1.57444 1.61212 1.15661 
1.27327 1.496 1.42074 1.47982 1.64158 1.90787 2.04313 1.39221 1.24142 
1.3468 1.52395 1.35669 1.62097 1.67252 1.25288 1.26472 1.39398 1.59014 
1.6678 
TEXTURE_COORDINATES TCoords 2 float
0 0 0.015873 0 0.031746 0 0.047619 0 0.0634921 
0 0.0793651 0 0.0952381 0 0.111111 0 0.126984 0 
0.142857 0 0.15873 0 0.174603 0 0.190476 0 0.206349 
0 0.222222 0 0.238095 0 0.253968 0 0.269841 0 
0.285714 0 0.301587 0 0.31746 0 0.333333 0 0.349206 
0 0.365079 0 0.380952 0 0.396825 0 0.412698 0 
0.428571 0 0.444444 0 0.460317 0 0.47619 0 0.492063 
0 0.507937 0 0.52381 0 0.539683 0 0.555556 0 
0.571429 0 0.587302 0 0.603175 0 0.619048 0 0.634921 
0 0.650794 0 0.666667 0 0.68254 0 0.698413 0 
0.714286 0 0.730159 0 0.746032 0 0.761905 0 0.777778 
0 0.793651 0 0.809524 0 0.825397 0 0.84127 0 
0.857143 0 0.873016 0 0.888889 0 0.904762 0 0.920635 
0 0.936508 0 0.952381 0 0.968254 0 0.984127 0 
1 0 
FIELD FieldData 4
Curvature 1 64 float
0.254989 0.234608 0.1444 0.0578239 0.0330987 0.0642131 0.0699787 0.0667428 0.154536 
0.400857 0.400149 0.218626 0.134306 0.110727 0.104833 0.0955877 0.0750777 0.0602085 
0.0511383 0.0527369 0.0807301 0.14604 0.277202 0.516926 0.489565 0.285032 0.220898 
0.215099 0.197011 0.158166 0.125175 0.116032 0.143466 0.223541 0.322441 0.300472 
0.210614 0.179127 0.225382 0.293124 0.246282 0.103313 0.0682671 0.22233 0.323178 
0.231368 0.152993 0.140822 0.186799 0.296947 0.369757 0.214331 0.0519271 0.0711858 
0.0980897 0.0543602 0.0374875 0.0929955 0.082847 0.026748 0.110514 0.426121 0.696674 
0.32669 
Torsion 1 64 float
0.0145489 0.0375966 0.0935983 0.599313 0.801679 0.14072 0.00634543 -0.137281 -0.0631735 
-0.0048033 -0.0366735 -0.0683688 -0.0554443 -0.00814053 0.000196771 -0.0567744 -0.0861595 0.0854591 
0.294166 0.350334 0.219247 0.146407 0.121155 0.11645 0.0904446 0.0209144 -0.102935 
-0.240126 -0.31813 -0.341751 -0.330146 -0.239894 -0.111432 -0.0462693 -0.0431621 -0.0573069 
-0.0400933 0.0354194 0.106726 0.123122 0.115278 0.568446 1.04669 0.0925937 0.0479903 
0.00459431 -0.0950531 -0.206633 -0.247834 -0.221248 -0.160556 -0.0872284 -0.781012 -0.0995393 
-0.0052728 0.346995 1.65884 0.00924655 -0.0659225 -0.756998 -0.173889 -0.0353192 -0.0124871 
-0.00205269 
Abscissas 1 64 double
0 1.040086699 2.0273230866 3.0412168044 4.0562039921 5.0706847967 6.0850106978 7.0994671273 8.1140499542 
9.127505373 10.127467143 11.13859574 12.152041895 13.165944861 14.179963889 15.194040387 16.208263051 17.222656508 
18.2371665 19.251694789 20.266106781 21.280208997 22.292995691 23.301267817 24.29387599 25.302540169 26.314217375 
27.326367382 28.338655624 29.351595992 30.365254264 31.379177252 32.393008866 33.406200346 34.416956669 35.425393217 
36.437057461 37.449995328 38.46271411 39.473763298 40.483515382 41.496711449 42.511272747 43.525246191 44.534336838 
45.544832468 46.557811411 47.571467258 48.584993575 49.59745558 50.604918018 51.6144629 52.628608165 53.64317676 
54.657334063 55.67154815 56.686153036 57.700519762 58.714671686 59.72914269 60.743834141 61.756574329 62.72063531 
63.763718213 
ParallelTransportNormals 3 64 double
0.66257569879 0 0.74899495551 0.45953781878 0.057665336796 0.88628421065 0.3430828727 0.059609253493 0.93741179818 
0.31583187613 0.056595364791 0.94712575232 0.35768663452 0.063012153615 0.93171333573 0.43514728445 0.07343288677 0.89735971159 
0.5072853286 0.079500907224 0.85810325786 0.53595436151 0.081020479061 0.8403502867 0.4687715632 0.071623842149 0.88041083976 
0.22593038304 -0.051445864926 0.97278403821 0.035805584539 -0.28783627952 0.95701005026 -0.024770656507 -0.44800121316 0.89368972668 
-0.045767045306 -0.56599083101 0.82314018052 -0.048704816685 -0.6643694441 0.74581571623 -0.03846541951 -0.74705156428 0.66365229737 
-0.018147658262 -0.81458427799 0.57976125824 0.0063860150582 -0.86428106382 0.50296864866 0.027162621464 -0.89451229604 0.4462173733 
0.037490420669 -0.90622305857 0.42113446365 0.030301635224 -0.89947346441 0.43592349985 -0.007240870501 -0.86760110702 0.49720809415 
-0.10434080196 -0.78331558574 0.6128047733 -0.33262512966 -0.5416014757 0.77202873304 -0.68441324916 0.09227102743 0.72323202492 
-0.69820430478 0.65279051786 0.29389673115 -0.52727879502 0.84906129762 -0.032741185181 -0.31601636048 0.90631875728 -0.2805707934 
-0.086948928594 0.86739914481 -0.48995776083 0.075999310943 0.76997188371 -0.63353563675 0.13141952173 0.70658934616 -0.6953131706 
0.12714967628 0.71484760517 -0.68762334254 0.10942359816 0.7732338451 -0.624608595 0.098992052569 0.86051910987 -0.49970734943 
0.1208244488 0.95830171281 -0.25895806571 0.22450079689 0.96744343209 0.11684433191 0.37299304207 0.82227320121 0.42981737184 
0.49025265349 0.63226174907 0.59991450758 0.58504958114 0.42151272004 0.692852087 0.67738701152 0.15458815514 0.7192004859 
0.7636981141 -0.13854300566 0.6305323355 0.81636538302 -0.30721396811 0.48904717483 0.83134611649 -0.34416135556 0.43636750101 
0.81410354247 -0.30868835369 0.49188100434 0.75315853087 -0.16863422018 0.63585747394 0.67799549804 0.068265041874 0.73188932817 
0.6407719887 0.24273275986 0.7283488627 0.62262474799 0.36928206708 0.68990519502 0.60608780953 0.50662221209 0.61318145875 
0.57006066083 0.68534208933 0.45314132846 0.43256012288 0.89229431022 0.12923855482 0.13291365767 0.96616951594 -0.22102132493 
-0.056594557529 0.93774123807 -0.34269290406 -0.072819742397 0.9338245953 -0.35024121735 -0.0025915467377 0.94887158829 -0.31565169542 
0.088363198741 0.96180041205 -0.25909826801 0.13943689123 0.96531087978 -0.22075384197 0.13020154853 0.96496923638 -0.22777605142 
0.079736165656 0.96234524294 -0.2598726174 0.034518462166 0.9588627393 -0.28176359409 0.032057825356 0.95866015738 -0.28274192911 
0.10608204524 0.96243063556 -0.24994773736 0.34814806619 0.93727979895 -0.017306140154 0.3731635208 0.82243203455 0.42936527025 
0.3731635208 0.82243203455 0.42936527025 
