# vtk DataFile Version 4.2
vtk output
ASCII
DATASET POLYDATA
POINTS 64 float
0 0 0 -0.892234 0.046237 0.521421 -1.80946 0.167131 0.888714 
-2.74761 0.291553 1.24932 -3.67387 0.368082 1.65591 -4.56303 0.323836 2.14059 
-5.36304 0.0519096 2.69776 -5.9958 -0.501383 3.2611 -6.46128 -1.24478 3.76935 
-6.84592 -2.06862 4.21934 -7.24645 -2.91777 4.60322 -7.74495 -3.7729 4.81586 
-8.25721 -4.61126 4.5984 -8.47606 -5.39003 3.99324 -8.368 -6.115 3.29457 
-8.03825 -6.77837 2.60259 -7.56154 -7.37014 1.93131 -6.97605 -7.88528 1.28829 
-6.27925 -8.41685 1.29765 -6.50741 -8.42853 2.33317 -6.81167 -8.35731 3.29586 
-7.15391 -8.19375 4.23551 -7.4909 -7.90783 5.14818 -7.72886 -7.49841 6.04449 
-7.70004 -7.11775 6.98001 -7.41504 -7.11056 7.94726 -7.16809 -7.5096 8.843 
-7.10779 -8.16997 9.60706 -7.25091 -9.00374 10.1616 -7.53169 -9.94345 10.408 
-7.80835 -10.9127 10.3173 -7.94489 -11.8676 10.0067 -7.87169 -12.8212 9.67235 
-7.575 -13.7744 9.50744 -7.10797 -14.6684 9.59699 -6.53618 -15.459 9.87152 
-5.87538 -16.1293 10.2483 -5.11951 -16.6421 10.6873 -4.28482 -16.9481 11.1733 
-3.41914 -17.0449 11.6918 -2.55661 -16.9887 12.2224 -1.69918 -16.8428 12.7447 
-0.837439 -16.6465 13.2428 0.0295855 -16.4163 13.7168 0.890087 -16.1622 14.1905 
1.73545 -15.9113 14.6922 2.56995 -15.7113 15.2332 3.39975 -15.6238 15.8094 
4.20889 -15.7276 16.4102 4.92889 -16.1047 17.0127 5.45808 -16.7552 17.579 
5.75607 -17.5752 18.0936 5.84118 -18.4664 18.5687 5.73232 -19.372 19.0109 
5.43794 -20.2607 19.3996 4.96631 -21.1131 19.6784 4.35238 -21.9132 19.774 
3.67618 -22.66 19.6623 3.01883 -23.3865 19.4 2.42442 -24.1372 19.0651 
1.90942 -24.9376 18.7138 1.47512 -25.7878 18.3767 1.11709 -26.6629 18.0687 
0.805767 -27.6072 17.7762 
LINES 1 65
64 0 1 2 3 4 5 6 7 8 9 10 11 12 13 14 15 16 17 18 19 20 21 22 23 24 25 26 27 28 29 30 31 32 33 34 35 36 37 38 39 40 41 42 43 44 45 46 47 48 49 50 51 52 53 54 55 56 57 58 59 60 61 62 63 

POINT_DATA 64
SCALARS MaximumInscribedSphereRadius float
LOOKUP_TABLE default
1.24 1.24 1.25933 1.19833 0.988548 0.93 0.93 0.973047 1.19189 
1.40805 1.46317 1.3539 1.68905 1.84765 1.42044 1.12531 0.999835 1.26369 
1.74063 1.60583 1.55 1.55 1.55 1.34759 1.44548 1.56493 1.65289 
1.84346 1.86 1.86 1.86 1.82929 1.6228 1.55 1.55 1.56137 
1.74531 1.75619 1.62065 1.79297 2.01435 2.0637 1.71117 1.39623 1.56742 
2.11398 1.93239 2.00912 2.16029 2.17274 2.18884 1.94016 1.70674 1.85608 
1.87064 1.95304 2.1855 2.39785 2.35692 2.29791 2.5119 3.22302 3.35981 
2.48 
TEXTURE_COORDINATES TCoords 2 float
0 0 0.015873 0 0.031746 0 0.047619 0 0.0634921 
0 0.0793651 0 0.0952381 0 0.111111 0 0.126984 0 
0.142857 0 0.15873 0 0.174603 0 0.190476 0 0.206349 
0 0.222222 0 0.238095 0 0.253968 0 0.269841 0 
0.285714 0 0.301587 0 0.31746 0 0.333333 0 0.349206 
0 0.365079 0 0.380952 0 0.396825 0 0.412698 0 
0.428571 0 0.444444 0 0.460317 0 0.47619 0 0.492063 
0 0.507937 0 0.52381 0 0.539683 0 0.555556 0 
0.571429 0 0.587302 0 0.603175 0 0.619048 0 0.634921 
0 0.650794 0 0.666667 0 0.68254 0 0.698413 0 
0.714286 0 0.730159 0 0.746032 0 0.761905 0 0.777778 
0 0.793651 0 0.809524 0 0.825397 0 0.84127 0 
0.857143 0 0.873016 0 0.888889 0 0.904762 0 0.920635 
0 0.936508 0 0.952381 0 0.968254 0 0.984127 0 
1 0 
FIELD FieldData 4
Curvature 1 64 float
0.272253 0.117614 0.036566 0.0417486 0.0949206 0.161788 0.206307 0.165228 0.0795601 
0.0592164 0.156129 0.2992 0.330777 0.240463 0.15495 0.10178 0.12513 0.475693 
1.60268 0.177917 0.0732719 0.0827759 0.122289 0.197882 0.313444 0.272837 0.217585 
0.207695 0.218859 0.213362 0.164376 0.134833 0.177039 0.196074 0.147483 0.109581 
0.11945 0.142488 0.131927 0.0942758 0.0543917 0.0343423 0.0268821 0.0171687 0.0226152 
0.0403577 0.0721232 0.119863 0.179026 0.208803 0.182133 0.140936 0.119815 0.118359 
0.131888 0.149081 0.139246 0.0974175 0.0629734 0.0592811 0.0592777 0.0527243 0.0448427 
0.0408456 
Torsion 1 64 float
-0.00231588 -0.00890853 -0.0906855 0.0254156 0.109534 0.105589 0.0671819 0.0567526 0.212436 
0.505355 -0.0516726 -0.285741 -0.351708 -0.134456 0.012275 0.0295328 -0.0606881 -0.10062 
-0.0264043 0.042331 0.172278 0.229359 0.321227 0.474442 0.449182 0.294111 0.11182 
-0.0582071 -0.16938 -0.2444 -0.406589 -0.559903 -0.282272 -0.0591011 0.0944856 0.174193 
0.0698479 -0.0289282 -0.0372386 0.0212367 0.171757 0.250387 -0.125498 -0.834929 -0.652323 
-0.356971 -0.139438 -0.0157501 0.037719 0.0662678 0.0937929 0.0952553 0.0397701 -0.0745509 
-0.15381 -0.171535 -0.191795 -0.309995 -0.469601 -0.275927 -0.105951 -0.0489481 -0.0502327 
-0.0680164 
Abscissas 1 64 double
0 1.034456035 2.0298597672 3.0425946114 4.0570557198 5.0707021917 6.0828317767 7.0946974228 8.1084186596 
9.1228829641 10.137204274 11.149610597 12.155861673 13.166109017 14.178727513 15.192451225 16.206390713 17.217144532 
18.093612934 19.154027907 20.166163554 21.179489261 22.193530363 23.207248066 24.21766337 25.226050485 26.237269343 
27.248957672 28.260462333 29.271696678 30.283751357 31.297102906 32.310244073 33.322097266 34.334676795 35.348299909 
36.362120713 37.375551046 38.388768789 39.402465924 40.416719931 41.431212337 42.445758747 43.460334392 44.474924723 
45.489472766 46.503887961 47.51791601 48.531067355 49.542826839 50.554678297 51.567610513 52.581144929 53.594817314 
54.608419132 55.6216923 56.634756471 57.648388362 58.662643918 59.677061185 60.691535983 61.704012435 62.69844183 
63.734839582 
ParallelTransportNormals 3 64 double
0.50455788295 0 0.86337786788 0.37310249573 0.01224298911 0.92770934937 0.36036171371 0.013927522472 0.93270866802 
0.40257060504 0.0093772352302 0.91534090667 0.4782884173 0.0080328000985 0.87816607996 0.56573532661 0.024410207454 0.82422550434 
0.63243344901 0.062827972606 0.77206254827 0.660334618 0.095761785495 0.74484083716 0.6612833533 0.097510729008 0.74377145978 
0.63754284392 0.046925788646 0.76898445532 0.55152652856 -0.1161173941 0.82603585823 0.3613393059 -0.43474636616 0.82488150853 
0.2698495791 -0.63696589719 0.72211886173 0.26909034654 -0.64723533974 0.71321581614 0.26378946952 -0.63042051486 0.73005827864 
0.26033812622 -0.62504890957 0.73589260133 0.25970201213 -0.62438620404 0.73667953216 -0.20260797299 -0.24890741523 0.94709825674 
-0.86822727602 0.45993844684 -0.18611292887 -0.83811404984 0.45647313604 -0.29865886149 -0.81257766481 0.44720117493 -0.37380295316 
-0.79250263911 0.43391794415 -0.42854962927 -0.79753025582 0.43999861139 -0.41273079972 -0.82263730745 0.53503734648 -0.19236137414 
-0.754927161 0.61856884733 0.21784756757 -0.69017081424 0.57094213076 0.44462268329 -0.67795986321 0.52884647292 0.51057989773 
-0.68049182522 0.4831771071 0.55088180127 -0.70769521857 0.36936962787 0.60227365509 -0.76842298807 0.16140640566 0.61925284304 
-0.81788014652 -0.068854464319 0.57125399664 -0.82365493738 -0.24290888991 0.51243323012 -0.80573507775 -0.33525202106 0.48825922096 
-0.79319045171 -0.36559620569 0.48701983706 -0.77740803607 -0.39119204876 0.49255002431 -0.73754317822 -0.43844165995 0.5136136399 
-0.66296368126 -0.5007201811 0.5565594825 -0.56130639692 -0.55305507902 0.61568271727 -0.46659588861 -0.5754978578 0.67163270646 
-0.40034430043 -0.57705594229 0.71185032175 -0.3536738189 -0.57157132457 0.74041950998 -0.31343171891 -0.56355944555 0.76430446088 
-0.28054202686 -0.55544627549 0.78279985067 -0.27062965396 -0.55266759316 0.78823735123 -0.29385066817 -0.55954278215 0.77496042464 
-0.34463173785 -0.57317167986 0.74344010564 -0.41948780568 -0.58610240104 0.69319113985 -0.53058116721 -0.58499208845 0.61340678302 
-0.68914966418 -0.53509790269 0.48861331838 -0.85229741903 -0.4008970124 0.33596234158 -0.95430290465 -0.21959438157 0.20269255969 
-0.99413041313 -0.041724575393 0.099818743247 -0.99191358233 0.12612658564 0.014125494405 -0.95519324226 0.28951484699 -0.061538795258 
-0.88483974339 0.44941060645 -0.12283621345 -0.79267338515 0.58971403937 -0.15461648115 -0.720925042 0.67574790345 -0.15372655852 
-0.70573827589 0.69252629301 -0.14946845631 -0.73641337108 0.65632702288 -0.16410419231 -0.784170446 0.58955884503 -0.19364162743 
-0.82838569519 0.51267347196 -0.22570567372 -0.86118865248 0.44117340127 -0.25242847473 -0.885001501 0.37659063053 -0.27377333731 
-0.885001501 0.37659063053 -0.27377333731 
