# vtk DataFile Version 4.2
vtk output
ASCII
DATASET POLYDATA
POINTS 64 float
0 0 0 -0.891056 0.430161 -0.342377 -1.82586 0.600228 -0.572448 
-2.83024 0.502339 -0.684376 -3.77054 0.127413 -0.643236 -4.59141 -0.440646 -0.467584 
-5.29444 -1.11455 -0.184684 -5.9085 -1.83228 0.185117 -6.46765 -2.55505 0.625762 
-7.00192 -3.26176 1.12064 -7.53514 -3.94244 1.64935 -8.09054 -4.59707 2.18303 
-8.7392 -5.29266 2.66848 -8.89783 -5.87962 2.07695 -8.46681 -6.04055 1.17759 
-7.95274 -6.20122 0.314525 -7.40024 -6.4144 -0.508802 -6.8381 -6.72795 -1.29262 
-6.30204 -7.19629 -2.01437 -5.87204 -7.90001 -2.60111 -5.7296 -8.86272 -2.85636 
-6.0107 -9.78843 -2.58696 -6.53716 -10.3562 -1.93829 -7.09619 -10.5696 -1.12147 
-7.58051 -10.5199 -0.232652 -7.92888 -10.2963 0.692727 -8.09032 -9.9927 1.64633 
-7.99478 -9.74596 2.62403 -7.59397 -9.80445 3.54714 -7.05939 -10.3176 4.23292 
-6.61165 -11.1079 4.68133 -6.2957 -12.0188 4.99552 -6.09377 -12.9827 5.23873 
-5.9688 -13.9681 5.44518 -5.86942 -14.9594 5.63696 -5.72504 -15.9448 5.83039 
-5.44758 -16.8978 6.03751 -4.96855 -17.7623 6.26093 -4.29197 -18.4803 6.49315 
-3.47342 -19.0312 6.72631 -2.56568 -19.4191 6.95824 -1.60605 -19.6507 7.19041 
-0.623297 -19.7316 7.42751 0.358233 -19.6712 7.67577 1.31978 -19.4893 7.94276 
2.25304 -19.2208 8.23626 3.16293 -18.9135 8.56341 4.06116 -18.6172 8.93035 
4.95706 -18.3765 9.34092 5.8516 -18.2322 9.79677 6.73426 -18.2231 10.296 
7.57936 -18.3883 10.8311 8.34161 -18.7623 11.3843 8.95874 -19.356 11.9256 
9.38038 -20.1306 12.4246 9.60116 -21.0124 12.8734 9.65313 -21.9362 13.2886 
9.57893 -22.8624 13.6955 9.41924 -23.7704 14.1189 9.21674 -24.6493 14.5833 
9.03315 -25.4909 15.1194 8.9798 -26.2698 15.769 9.19843 -26.8784 16.5047 
9.80622 -27.2265 17.2795 
LINES 1 65
64 0 1 2 3 4 5 6 7 8 9 10 11 12 13 14 15 16 17 18 19 20 21 22 23 24 25 26 27 28 29 30 31 32 33 34 35 36 37 38 39 40 41 42 43 44 45 46 47 48 49 50 51 52 53 54 55 56 57 58 59 60 61 62 63 

POINT_DATA 64
SCALARS MaximumInscribedSphereRadius float
LOOKUP_TABLE default
0.8742 0.905961 0.848908 0.691989 1.02776 1.36154 1.52168 1.35195 1.14962 
0.980639 0.93 0.943518 1.03373 1.116 1.12392 1.19247 1.24972 1.04608 
1.03052 1.2104 1.24 1.24784 1.42658 1.5552 1.54155 1.27605 1.17544 
1.20235 1.05998 1.44319 1.55 1.3841 1.09075 1.36355 1.83386 1.6351 
1.55 1.45049 1.06404 1.10696 1.24 1.26047 1.48639 1.71488 1.84408 
2.03855 2.08948 1.89739 1.53458 1.34477 1.5178 1.581 1.65217 1.84413 
2.05906 1.85945 1.39075 1.51175 1.63406 1.53425 1.34059 1.38256 1.54017 
1.55 
TEXTURE_COORDINATES TCoords 2 float
0 0 0.015873 0 0.031746 0 0.047619 0 0.0634921 
0 0.0793651 0 0.0952381 0 0.111111 0 0.126984 0 
0.142857 0 0.15873 0 0.174603 0 0.190476 0 0.206349 
0 0.222222 0 0.238095 0 0.253968 0 0.269841 0 
0.285714 0 0.301587 0 0.31746 0 0.333333 0 0.349206 
0 0.365079 0 0.380952 0 0.396825 0 0.412698 0 
0.428571 0 0.444444 0 0.460317 0 0.47619 0 0.492063 
0 0.507937 0 0.52381 0 0.539683 0 0.555556 0 
0.571429 0 0.587302 0 0.603175 0 0.619048 0 0.634921 
0 0.650794 0 0.666667 0 0.68254 0 0.698413 0 
0.714286 0 0.730159 0 0.746032 0 0.761905 0 0.777778 
0 0.793651 0 0.809524 0 0.825397 0 0.84127 0 
0.857143 0 0.873016 0 0.888889 0 0.904762 0 0.920635 
0 0.936508 0 0.952381 0 0.968254 0 0.984127 0 
1 0 
FIELD FieldData 4
Curvature 1 64 float
0.175662 0.21454 0.241538 0.232875 0.19044 0.14159 0.100358 0.0684474 0.0445437 
0.0434941 0.0823318 0.216501 1.48458 0.631364 0.192089 0.0861804 0.0777848 0.130101 
0.227685 0.386925 0.503427 0.428828 0.293921 0.207057 0.161124 0.154355 0.205035 
0.330236 0.399967 0.29131 0.179291 0.110835 0.0639819 0.0327575 0.0514667 0.10978 
0.16246 0.178821 0.158604 0.13365 0.117785 0.109004 0.101693 0.0891423 0.0685071 
0.0425427 0.0341093 0.0510388 0.0761462 0.102515 0.131481 0.162866 0.190436 0.194748 
0.169033 0.128918 0.0915831 0.0644479 0.053557 0.0764142 0.143747 0.263932 0.3392 
0.282771 
Torsion 1 64 float
-0.00473568 -0.00807024 -0.0139103 -0.0266082 -0.0538759 -0.0989986 -0.158368 -0.222068 -0.305366 
-0.26767 -0.102629 -0.0633402 -0.161645 -0.0857482 -0.093464 -0.190562 -0.194715 -0.0944916 
-0.0490883 -0.018658 0.0182999 0.0616597 0.103668 0.163019 0.254499 0.341511 0.32698 
0.282038 0.235396 0.180285 0.14341 0.102476 0.042596 -0.148464 -0.0711495 -0.0120942 
-0.00628367 -0.0118894 -0.0205174 -0.0295167 -0.0420228 -0.0547426 -0.0673791 -0.093509 -0.173088 
-0.477929 -0.659792 -0.251215 -0.0903465 -0.0369417 -0.0151013 -0.00268576 0.0120855 0.038602 
0.0742833 0.119331 0.181686 0.300052 0.452009 0.369457 0.189444 0.092064 0.042857 
0.0167908 
Abscissas 1 64 double
0 1.0470155162 2.0246180847 3.0399518892 4.0530771363 5.0666677117 6.0807865252 7.0951582794 8.1096641992 
9.1244415352 10.137946432 11.148795581 12.216632055 13.064916344 14.075133304 15.092461984 16.10664952 17.120889734 
18.134603557 19.146727962 20.152828353 21.157094368 22.167168917 23.179717131 24.193145188 25.206899396 26.220587758 
27.23346349 28.241530108 29.251192899 30.264157314 31.278202978 32.292552242 33.307085156 34.321697152 35.336184894 
36.350117509 37.363468383 38.376950483 39.390794898 40.404816988 41.418937492 42.433118889 43.447361552 44.461723468 
45.476218491 46.490789622 47.505335145 48.519793787 49.534100418 50.548193571 51.5620105 52.575411311 53.588486199 
54.60175496 55.615560868 56.629722993 57.64411675 58.658618101 59.673084086 60.687662976 61.7032752 62.682819195 
63.727297273 
ParallelTransportNormals 3 64 double
-0.35867186089 0 0.9334637091 -0.2451226742 -0.036743199019 0.96879554702 -0.10658482738 -0.042265831617 0.99340488928 
0.045778221762 -0.005196499477 0.9989381116 0.16860789641 0.060566378914 0.98382065998 0.25756687959 0.1330641801 0.95705445326 
0.32201267841 0.20115639998 0.92511833713 0.36895986261 0.25879911957 0.89268787126 0.40177816272 0.30170415759 0.86460910778 
0.42127788661 0.32704718519 0.84591079962 0.42307029141 0.32924564491 0.84416161595 0.37222637744 0.27215603053 0.88734357438 
-0.18615979324 -0.67201402828 0.71675775348 -0.097554644006 -0.98672804306 0.12981086424 -0.095877176985 -0.98729902642 0.12668148785 
-0.12345928652 -0.97762962107 0.17028836891 -0.17978357217 -0.95101302381 0.25149969326 -0.26988641856 -0.88685811038 0.37502534998 
-0.40843827958 -0.71872101284 0.5626884373 -0.55579405105 -0.28890984423 0.77950245331 -0.50659949703 0.37917776669 0.774326269 
-0.26744137875 0.82215683632 0.5025268604 -0.05562956291 0.97467481855 0.21659720639 0.083229509494 0.99647617523 -0.010396198856 
0.15879320832 0.97167450376 -0.17502392905 0.18446149676 0.94513200175 -0.26962836549 0.18404450551 0.94861935212 -0.25738870366 
0.24015791098 0.96978852511 -0.042829830205 0.43675424031 0.84969803354 0.29539631917 0.60732832686 0.62346868381 0.49238105538 
0.69058126383 0.43804041213 0.57551552141 0.72670370972 0.30728115063 0.61439402076 0.74025128653 0.226501562 0.63302849478 
0.74347515496 0.19809525037 0.63875109842 0.73924475367 0.23239998002 0.63206601194 0.71563777577 0.34086163223 0.60965229563 
0.64694595342 0.50588741383 0.57056012643 0.52874890951 0.66775288157 0.52395675379 0.39103565415 0.78462923249 0.48109051613 
0.25372385391 0.85930370222 0.44409610819 0.11887054177 0.90404267124 0.41058086033 -0.015037742287 0.92558986535 0.37822912034 
-0.14465514283 0.92694088339 0.34620151408 -0.26019680188 0.9125334028 0.31556364346 -0.34764444841 0.89175068522 0.28969648409 
-0.39467656753 0.87705847021 0.27385917342 -0.39988843437 0.87531834941 0.27185846913 -0.36847846735 0.88472039729 0.2854705549 
-0.30582629501 0.8981913705 0.3157887573 -0.2154429777 0.90599430752 0.36436058801 -0.099548744654 0.89552204432 0.43373991698 
0.035755399193 0.85012984726 0.52535777735 0.17131877372 0.75501962694 0.6329259362 0.27266301474 0.6215292717 0.73440877229 
0.32280774289 0.49224940437 0.80838461454 0.33647812262 0.40175893831 0.85168787034 0.33593061514 0.35615906402 0.8719526036 
0.33503373773 0.34912544935 0.87513645519 0.34062264416 0.37669841599 0.86143747172 0.35607571471 0.44556083585 0.82139249263 
0.37549238147 0.57831911973 0.7242599445 0.35193931828 0.76990650979 0.5323370008 0.20609933015 0.94283007314 0.26190555416 
0.20609933015 0.94283007314 0.26190555416 
