# vtk DataFile Version 4.2
vtk output
ASCII
DATASET POLYDATA
POINTS 64 float
0 0 0 -0.913126 0.423508 0.273572 -1.78676 0.797287 0.537393 
-2.71803 1.08416 0.815957 -3.68571 1.18026 1.10223 -4.64043 1.00311 1.3895 
-5.51796 0.580974 1.67079 -6.32047 0.0233511 1.94282 -7.09972 -0.579686 2.18451 
-7.89816 -1.19044 2.31773 -8.66871 -1.83261 2.18731 -9.2591 -2.53412 1.75857 
-9.62691 -3.29717 1.20207 -9.79257 -4.12136 0.635828 -9.74594 -4.98042 0.100227 
-9.47133 -5.8123 -0.409168 -8.98096 -6.54003 -0.915922 -8.30406 -7.10222 -1.41157 
-7.42577 -7.451 -1.75762 -6.85768 -7.43103 -1.03178 -6.96413 -7.28256 -0.0238945 
-7.16387 -7.04886 0.944356 -7.37901 -6.70044 1.87204 -7.58392 -6.27753 2.77118 
-7.78828 -5.95544 3.71 -8.00485 -6.04742 4.68915 -8.20094 -6.61028 5.505 
-8.35901 -7.43058 6.07705 -8.47933 -8.38409 6.39645 -8.55922 -9.39281 6.43571 
-8.59424 -10.3817 6.21699 -8.57881 -11.3309 5.85935 -8.49151 -12.2822 5.51859 
-8.284 -13.2606 5.36147 -7.90871 -14.1861 5.51789 -7.37189 -14.9237 5.95556 
-6.71008 -15.4103 6.5476 -5.9584 -15.6436 7.18557 -5.1465 -15.6617 7.79222 
-4.29148 -15.5328 8.32214 -3.39967 -15.3327 8.76211 -2.48065 -15.1127 9.13126 
-1.55366 -14.8844 9.4748 -0.643276 -14.6394 9.84944 0.220948 -14.3841 10.3148 
1.00436 -14.1682 10.9207 1.67951 -14.0763 11.6707 2.24462 -14.1737 12.5062 
2.71377 -14.4832 13.3494 3.08283 -15.0136 14.1295 3.31541 -15.75 14.7847 
3.3821 -16.6167 15.306 3.28489 -17.5231 15.7499 3.02973 -18.4068 16.1767 
2.61875 -19.2308 16.6013 2.06859 -19.9925 16.9827 1.43059 -20.7385 17.2365 
0.811713 -21.5394 17.2733 0.35087 -22.4223 17.0901 0.110619 -23.3607 16.792 
0.0649932 -24.3258 16.483 0.154068 -25.301 16.2213 0.311285 -26.2581 16.0404 
0.480154 -27.2853 15.9869 
LINES 1 65
64 0 1 2 3 4 5 6 7 8 9 10 11 12 13 14 15 16 17 18 19 20 21 22 23 24 25 26 27 28 29 30 31 32 33 34 35 36 37 38 39 40 41 42 43 44 45 46 47 48 49 50 51 52 53 54 55 56 57 58 59 60 61 62 63 

POINT_DATA 64
SCALARS MaximumInscribedSphereRadius float
LOOKUP_TABLE default
1.55 1.37058 1.289 1.48712 1.67448 1.82878 1.87463 1.83957 1.70483 
1.47025 1.42281 1.72854 1.47516 1.33705 1.58725 1.96703 2.37276 1.78828 
1.39188 1.55 1.89549 2.3807 2.29284 2.17594 2.14244 1.94007 1.99437 
2.15189 2.17 1.94796 1.44932 1.35989 1.57121 1.93338 2.2532 2.44957 
2.32102 2.22882 2.40174 2.39791 2.22537 2.18163 2.19061 2.17879 2.24873 
2.44391 2.31602 2.1764 2.18047 2.32623 2.53021 2.70196 2.46122 1.92671 
2.1829 2.42784 2.24424 2.82853 3.53071 3.29933 3.1 3.1 2.85908 
2.48 
TEXTURE_COORDINATES TCoords 2 float
0 0 0.015873 0 0.031746 0 0.047619 0 0.0634921 
0 0.0793651 0 0.0952381 0 0.111111 0 0.126984 0 
0.142857 0 0.15873 0 0.174603 0 0.190476 0 0.206349 
0 0.222222 0 0.238095 0 0.253968 0 0.269841 0 
0.285714 0 0.301587 0 0.31746 0 0.333333 0 0.349206 
0 0.365079 0 0.380952 0 0.396825 0 0.412698 0 
0.428571 0 0.444444 0 0.460317 0 0.47619 0 0.492063 
0 0.507937 0 0.52381 0 0.539683 0 0.555556 0 
0.571429 0 0.587302 0 0.603175 0 0.619048 0 0.634921 
0 0.650794 0 0.666667 0 0.68254 0 0.698413 0 
0.714286 0 0.730159 0 0.746032 0 0.761905 0 0.777778 
0 0.793651 0 0.809524 0 0.825397 0 0.84127 0 
0.857143 0 0.873016 0 0.888889 0 0.904762 0 0.920635 
0 0.936508 0 0.952381 0 0.968254 0 0.984127 0 
1 0 
FIELD FieldData 4
Curvature 1 64 float
0.0723986 0.0330906 0.0691274 0.133067 0.187251 0.171256 0.102913 0.0481577 0.0917786 
0.191852 0.251447 0.189817 0.145233 0.14486 0.153373 0.158314 0.171108 0.278486 
0.952927 0.565952 0.122273 0.0841865 0.0724501 0.104774 0.286904 0.346702 0.245869 
0.189764 0.189868 0.175844 0.102578 0.0591474 0.150869 0.243469 0.250565 0.211671 
0.179978 0.149166 0.113179 0.0797248 0.0519454 0.0186863 0.026908 0.0698001 0.11333 
0.147475 0.155944 0.152172 0.164259 0.185184 0.16834 0.124936 0.106364 0.110706 
0.107552 0.10754 0.153585 0.194741 0.174351 0.135107 0.0965418 0.0720981 0.0962632 
0.178788 
Torsion 1 64 float
0.0196395 0.06724 0.0099089 -0.0121289 -0.0297934 -0.0347404 0.0216651 0.509121 0.0186542 
-0.194403 -0.243917 -0.248204 -0.149472 0.0506343 0.163788 0.159752 0.00721728 -0.188224 
-0.262015 0.0563683 0.301233 0.231945 0.12552 0.106149 0.0266727 0.0112346 0.0129422 
0.0197101 0.0105976 -0.0285423 -0.357962 -0.882801 -0.110336 0.0485236 0.114139 0.130803 
0.124038 0.14424 0.215378 0.299716 0.165199 -0.668168 -0.577578 -0.186583 -0.216959 
-0.220972 -0.198859 -0.149884 -0.053709 0.048456 0.152169 0.290702 0.237556 -0.00632924 
-0.285128 -0.53473 -0.385022 -0.267178 -0.235328 -0.213752 -0.251773 -0.388309 -0.306444 
-0.155312 
Abscissas 1 64 double
0 1.0430721418 2.0292493089 3.0427405561 4.0564461036 5.0690596498 6.0826577333 7.0970384145 8.1115823676 
9.1256158779 10.137119494 11.149294942 12.162819394 13.176405139 14.189831013 15.203197795 16.216528623 17.226445366 
18.232821958 19.154755501 20.179064556 21.194949182 22.208984451 23.223528513 24.236886937 25.243904312 26.254288438 
27.266772966 28.279523417 29.292165464 30.305604178 31.320057136 32.334318222 33.346733199 34.357568039 35.369366635 
36.38194577 37.395096571 38.408769303 39.422902322 40.437274054 41.451812011 42.466420386 43.480909235 44.495113074 
45.508781033 46.522094859 47.535417075 48.548753341 49.561692835 50.574453598 51.587994988 52.601989926 53.615973788 
54.629922476 55.643995912 56.657881801 57.67068948 58.683370878 59.69682475 60.711254028 61.724877867 62.711551862 
63.753903953 
ParallelTransportNormals 3 64 double
0.28699599222 0 0.95793178277 0.28877667761 -0.00079367934089 0.95739615653 0.28657944852 1.2372857301e-05 0.95805648035 
0.28373423507 0.0005862161087 0.95890277933 0.28800198391 0.0007664760405 0.95762950549 0.3027988088 0.0056051355824 0.95303801805 
0.3135835323 0.011894078754 0.94948612373 0.29662627179 -0.00054870986932 0.95499348364 0.21256714116 -0.065219370913 0.97496750928 
0.018462723482 -0.22023051471 0.97527311469 -0.16970335427 -0.40599890154 0.89797865425 -0.23024612485 -0.49851855771 0.83574276521 
-0.23660342058 -0.51743328106 0.82236343609 -0.23701275774 -0.5232229335 0.81857358529 -0.2295953064 -0.562265824 0.79444517649 
-0.18955306409 -0.64390215844 0.74125545276 -0.11196286333 -0.72960327141 0.67464315277 -0.051066965286 -0.76525094377 0.64170332562 
-0.59148200566 -0.64732347101 0.48075083033 -0.72320828879 -0.6901669996 0.025284060081 -0.72207218546 -0.69158451209 0.017961670834 
-0.73602130191 -0.67200987925 0.081702908896 -0.74827015044 -0.64951812624 0.13497401841 -0.73420188259 -0.67512443195 0.071795521977 
-0.67123724124 -0.70934769245 -0.21509629748 -0.59459699889 -0.58788297732 -0.54849613844 -0.54775097078 -0.40498560464 -0.73208984014 
-0.51751792992 -0.21235784489 -0.82890249 -0.49529890103 0.0054189338948 -0.86870572336 -0.4837997314 0.20529329422 -0.85075994455 
-0.48282222629 0.30187720613 -0.82204187863 -0.48036246249 0.25637242358 -0.83876402227 -0.44854543783 0.048181356012 -0.89246038967 
-0.34478911932 -0.29067556719 -0.8925402948 -0.17803346473 -0.59475820963 -0.78394308309 -0.0026078027071 -0.77394850412 -0.63324316999 
0.15546826047 -0.8544739189 -0.49568532549 0.27803506634 -0.87418366561 -0.39811985717 0.34814592164 -0.86952522066 -0.35031458416 
0.3631966279 -0.86669086596 -0.34195782246 0.34834491198 -0.87013681128 -0.34859396431 0.34427126151 -0.8711260466 -0.35016668806 
0.3721309293 -0.86395004493 -0.33927701266 0.42129946958 -0.85008726717 -0.31600378975 0.45757163867 -0.83971402039 -0.29241846631 
0.44865599018 -0.84159547142 -0.30070727453 0.397034553 -0.84136639512 -0.36669626788 0.32688378857 -0.81376580144 -0.48055406479 
0.25331062192 -0.74003964122 -0.62303696379 0.19483313487 -0.616904484 -0.76254108556 0.17261776994 -0.49793466036 -0.84986127074 
0.17347358101 -0.44815144679 -0.87696476408 0.16959145055 -0.46787334273 -0.86737147467 0.15248679931 -0.51172118719 -0.84551120786 
0.14469848365 -0.52457061334 -0.83898034569 0.19473599321 -0.46107586821 -0.86572913587 0.32916920209 -0.2956204142 -0.89680332688 
0.47609334693 -0.066491941623 -0.87687738408 0.54872346833 0.12216226479 -0.82703019072 0.56453176045 0.22738648331 -0.79347292244 
0.56376129789 0.26175076909 -0.78336436853 0.56630429676 0.24187583963 -0.78790578223 0.58343316764 0.13764077622 -0.80041286573 
0.58343316764 0.13764077622 -0.80041286573 
