# vtk DataFile Version 4.2
vtk output
ASCII
DATASET POLYDATA
POINTS 64 float
0 0 0 -0.684475 0.129591 0.779596 -1.44817 0.249956 1.38383 
-2.29729 0.365365 1.9298 -3.18997 0.456967 2.40426 -4.11552 0.496763 2.81736 
-5.06243 0.433567 3.175 -5.99902 0.187222 3.47343 -6.86181 -0.296441 3.69205 
-7.62162 -0.957776 3.80811 -8.32721 -1.68646 3.81294 -9.02754 -2.41147 3.70034 
-9.72979 -3.10293 3.46089 -10.403 -3.75859 3.07988 -10.9801 -4.39052 2.53678 
-11.3537 -5.01017 1.82832 -11.4328 -5.6179 1.02231 -11.2385 -6.22005 0.230657 
-10.8594 -6.84494 -0.472014 -10.3766 -7.53428 -1.03737 -9.8727 -8.33982 -1.38558 
-9.53773 -9.27598 -1.25828 -9.69941 -9.85456 -0.46176 -10.0852 -9.90232 0.473411 
-10.4716 -9.6904 1.3864 -10.8059 -9.33153 2.27415 -11.0714 -8.88392 3.14489 
-11.2665 -8.39084 4.00979 -11.3987 -7.89782 4.88653 -11.4772 -7.47686 5.80517 
-11.4871 -7.3178 6.80467 -11.3522 -7.82089 7.65623 -11.1173 -8.70241 8.09963 
-10.8548 -9.64342 8.37213 -10.5865 -10.5965 8.59331 -10.326 -11.5511 8.81783 
-10.0815 -12.5007 9.07803 -9.84578 -13.4369 9.38991 -9.58601 -14.3484 9.75184 
-9.2504 -15.219 10.1494 -8.78662 -16.021 10.5617 -8.1627 -16.7107 10.9648 
-7.38729 -17.243 11.3426 -6.5058 -17.5933 11.7002 -5.5733 -17.7599 12.0618 
-4.63958 -17.7556 12.4572 -3.74372 -17.6096 12.9095 -2.90553 -17.3658 13.4262 
-2.12149 -17.0732 13.9996 -1.36848 -16.7748 14.6106 -0.616388 -16.5037 15.2353 
0.15906 -16.2857 15.852 0.968596 -16.1441 16.4467 1.80616 -16.1039 17.0174 
2.64558 -16.1979 17.5786 3.42909 -16.4711 18.1606 4.04766 -16.9619 18.794 
4.38436 -17.6323 19.4736 4.44672 -18.3693 20.1666 4.33358 -19.0976 20.8633 
4.14299 -19.7967 21.574 3.97405 -20.4732 22.3125 3.95251 -21.1172 23.059 
4.35422 -21.7334 23.7941 
LINES 1 65
64 0 1 2 3 4 5 6 7 8 9 10 11 12 13 14 15 16 17 18 19 20 21 22 23 24 25 26 27 28 29 30 31 32 33 34 35 36 37 38 39 40 41 42 43 44 45 46 47 48 49 50 51 52 53 54 55 56 57 58 59 60 61 62 63 

POINT_DATA 64
SCALARS MaximumInscribedSphereRadius float
LOOKUP_TABLE default
1.2772 1.29473 1.43818 1.458 1.30099 1.43828 1.27702 1.02195 1.35581 
1.76276 1.97957 1.92507 1.57437 1.1165 1.1258 1.56772 1.82069 2.22312 
2.46857 2.48 2.4605 1.98025 1.8949 2.09158 2.02279 2.00393 2.3503 
2.48 2.33693 1.99295 2.14707 2.17 2.22815 2.40589 2.31784 1.99498 
1.45454 1.58227 1.86637 1.91218 2.13893 2.24852 2.18785 2.02619 2.0923 
2.05954 1.88426 1.88291 2.19322 2.35213 1.98989 2.05163 2.31671 2.53205 
2.18171 1.93543 2.06518 2.44089 2.47744 2.26787 2.03223 2.15692 2.69936 
1.86 
TEXTURE_COORDINATES TCoords 2 float
0 0 0.015873 0 0.031746 0 0.047619 0 0.0634921 
0 0.0793651 0 0.0952381 0 0.111111 0 0.126984 0 
0.142857 0 0.15873 0 0.174603 0 0.190476 0 0.206349 
0 0.222222 0 0.238095 0 0.253968 0 0.269841 0 
0.285714 0 0.301587 0 0.31746 0 0.333333 0 0.349206 
0 0.365079 0 0.380952 0 0.396825 0 0.412698 0 
0.428571 0 0.444444 0 0.460317 0 0.47619 0 0.492063 
0 0.507937 0 0.52381 0 0.539683 0 0.555556 0 
0.571429 0 0.587302 0 0.603175 0 0.619048 0 0.634921 
0 0.650794 0 0.666667 0 0.68254 0 0.698413 0 
0.714286 0 0.730159 0 0.746032 0 0.761905 0 0.777778 
0 0.793651 0 0.809524 0 0.825397 0 0.84127 0 
0.857143 0 0.873016 0 0.888889 0 0.904762 0 0.920635 
0 0.936508 0 0.952381 0 0.968254 0 0.984127 0 
1 0 
FIELD FieldData 4
Curvature 1 64 float
0.244921 0.139748 0.0858636 0.0616682 0.0615708 0.0891599 0.142133 0.189156 0.16535 
0.108087 0.0871822 0.091511 0.103237 0.134782 0.186159 0.218686 0.195422 0.146575 
0.129813 0.18813 0.400317 0.760641 0.448326 0.204546 0.117732 0.0798542 0.0606308 
0.061348 0.102732 0.246494 0.555226 0.453982 0.181284 0.0648676 0.019113 0.030289 
0.0416431 0.0450044 0.0663068 0.102289 0.136386 0.152929 0.147572 0.132564 0.121293 
0.109721 0.0909155 0.0650811 0.0362791 0.0234234 0.0414867 0.0601348 0.0751607 0.0959334 
0.137016 0.199749 0.243759 0.200083 0.124542 0.0607703 0.0489204 0.131617 0.281003 
0.367997 
Torsion 1 64 float
-0.00864687 -0.0157596 -0.0561604 -0.174932 -0.267212 -0.206318 -0.104228 -0.000280456 0.161725 
0.38689 0.272196 -0.00836492 -0.195789 -0.203612 -0.174822 -0.159298 -0.187357 -0.278789 
-0.336681 -0.210394 -0.0824803 0.0368154 0.10953 0.137281 0.168279 0.193567 0.263255 
0.322844 0.185367 0.0598774 -0.0232668 -0.0383283 -0.0119094 0.0401882 0.334072 0.117555 
0.240959 0.470037 0.300159 0.111196 0.0259389 -0.0429514 -0.112116 -0.165766 -0.191512 
-0.179682 -0.17876 -0.220459 -0.515372 -0.862648 -0.210105 0.01237 0.137167 0.209306 
0.196202 0.149063 0.118905 0.109633 0.148362 0.447873 0.604441 0.151821 0.0614841 
0.0233803 
Abscissas 1 64 double
0 1.0455000364 2.026732392 3.0428051723 4.0578824822 5.0722230812 6.0863868964 7.0997756058 8.1127551228 
9.1267296044 10.141061108 11.155346337 12.169548271 13.183609216 14.197153974 15.209808498 16.222350862 17.235778456 
18.249660579 19.263485667 20.27546874 21.277866143 22.275538227 23.288279926 24.302092295 25.316307446 26.330717593 
27.345228521 28.359732149 29.373280861 30.385403653 31.383625326 32.397946883 33.412181527 34.426744147 35.441342625 
36.455893407 37.470429972 38.484934894 39.499246169 40.513213099 41.526844288 42.540414145 43.554158962 44.568074229 
45.582082103 46.596234101 47.610571829 48.625070682 49.639658007 50.654227933 51.668716224 52.683121894 53.697432494 
54.711542293 55.725097826 56.737386928 57.749549286 58.763138113 59.777350032 60.792377732 61.807999531 62.794163085 
63.834123665 
ParallelTransportNormals 3 64 double
0 -0.98646387481 0.1639787294 -0.014467087197 -0.98397407758 0.17772371267 -0.017845657109 -0.98347953369 0.18013755669 
-0.0082728950305 -0.98461716713 0.17452963472 0.027627811423 -0.98721120479 0.15700554502 0.11199950162 -0.98615642573 0.12227679926 
0.27344330412 -0.95961814402 0.06604375142 0.48973682168 -0.87186161827 0.0038941077866 0.65363728996 -0.75621643285 -0.029916548308 
0.71783587813 -0.69532125179 -0.035213759813 0.7215127083 -0.69151946744 -0.034931903951 0.70770833192 -0.70546055264 -0.038396947755 
0.7081863889 -0.70499235934 -0.03818130241 0.74353448965 -0.66858894637 -0.012053360336 0.81187544446 -0.57860570792 0.077933929938 
0.86265251783 -0.44092876936 0.24781536238 0.84912556042 -0.29871953623 0.43560580956 0.79205193323 -0.17657646299 0.58435818449 
0.71862678731 -0.064609929014 0.69238796757 0.63405951361 0.063522583011 0.77067075632 0.5223861273 0.29567770226 0.79980462014 
0.48096112151 0.66004177648 0.57707993631 0.57566854674 0.76941983377 0.27676496111 0.64953419314 0.75372982338 0.099983425013 
0.69963538831 0.71405596351 -0.025187385818 0.73237091213 0.67003834458 -0.12116709065 0.75090798916 0.63217574882 -0.19102621396 
0.75805396474 0.61064816764 -0.22904803406 0.7567317075 0.61638299786 -0.21778228305 0.75114749788 0.65304179456 -0.096508294879 
0.77320187498 0.59202379242 0.22730307902 0.82019458769 0.41605975414 0.39265139668 0.83706265909 0.35425508145 0.41692858144 
0.84243200827 0.33509737309 0.42192186716 0.84389061223 0.32983596696 0.42315111898 0.84311487824 0.33276130386 0.42240645916 
0.83868413039 0.35016167515 0.41712795482 0.82671424771 0.39479326325 0.40085138384 0.79972363275 0.47558271562 0.36641942063 
0.74480487974 0.59049023209 0.31078445412 0.64717938717 0.72436411073 0.2376036109 0.50521252524 0.8483376433 0.15837786239 
0.3383138712 0.93724992834 0.084298851642 0.16932962712 0.98540760609 0.017301076485 0.014666488924 0.9988597886 -0.045431451949 
-0.10927713665 0.98867499167 -0.10286043094 -0.19071540264 0.97036831653 -0.14836766989 -0.22967673074 0.95748694761 -0.17454897451 
-0.23427746971 0.9557177955 -0.17809425189 -0.21354610364 0.96356271938 -0.16107435374 -0.17273443639 0.97662817616 -0.12790707572 
-0.11286060687 0.99020937419 -0.08214547272 -0.031320138285 0.99921021106 -0.024454100846 0.07832942901 0.99569508226 0.049556066458 
0.22315980702 0.96292417516 0.15158078186 0.38940670069 0.87230638184 0.29570931276 0.51055633221 0.72503930914 0.46222314074 
0.54668877111 0.59768027224 0.58643812949 0.54448832086 0.5341061968 0.64673258693 0.54190164522 0.52194853806 0.65872022174 
0.54919316568 0.54984603573 0.62932996414 0.5591572606 0.61969502073 0.55074607506 0.51381833151 0.77466343175 0.36862893229 
0.51381833151 0.77466343175 0.36862893229 
