# vtk DataFile Version 4.2
vtk output
ASCII
DATASET POLYDATA
POINTS 64 float
0 0 0 -0.935958 -0.210351 0.419633 -1.85194 -0.390575 0.693313 
-2.83413 -0.582663 0.916295 -3.81112 -0.788966 1.08705 -4.78328 -1.03619 1.23932 
-5.72952 -1.36546 1.39898 -6.60327 -1.84836 1.57585 -7.32629 -2.54959 1.68387 
-7.8464 -3.39706 1.49925 -8.17693 -4.16092 0.923067 -8.37278 -4.71763 0.0991395 
-8.46688 -5.08443 -0.841539 -8.45997 -5.31034 -1.8303 -8.33784 -5.45268 -2.82716 
-8.09175 -5.58029 -3.80293 -7.73365 -5.76513 -4.73374 -7.30058 -6.06604 -5.60008 
-6.84314 -6.51633 -6.38506 -6.41236 -7.12928 -7.07 -6.06652 -7.90984 -7.60759 
-5.93227 -8.88934 -7.82042 -6.2985 -9.5966 -7.22259 -6.80442 -9.68877 -6.34474 
-7.27106 -9.59908 -5.45025 -7.68039 -9.44972 -4.5338 -8.01266 -9.32049 -3.58405 
-8.24075 -9.29117 -2.59631 -8.33274 -9.4608 -1.60146 -8.28571 -9.8953 -0.687613 
-8.14927 -10.5554 0.0694625 -7.98287 -11.3515 0.675542 -7.82027 -12.2177 1.17801 
-7.67471 -13.12 1.61835 -7.54858 -14.0426 2.0213 -7.43513 -14.9778 2.39795 
-7.31462 -15.9218 2.74972 -7.15189 -16.8696 3.07309 -6.90118 -17.8081 3.36512 
-6.52087 -18.7107 3.62851 -5.99431 -19.5424 3.87276 -5.33349 -20.2742 4.11024 
-4.56518 -20.8906 4.35225 -3.7162 -21.3838 4.60681 -2.80867 -21.7452 4.87986 
-1.86318 -21.9604 5.17723 -0.905742 -22.0157 5.50717 0.0308773 -21.9122 5.88219 
0.915634 -21.6776 6.3192 1.73207 -21.3677 6.83541 2.48326 -21.0515 7.43941 
3.1854 -20.7918 8.12395 3.85616 -20.6417 8.86988 4.50407 -20.6501 9.65001 
5.11828 -20.8638 10.4278 5.65822 -21.3115 11.1594 6.06725 -21.9736 11.8089 
6.31506 -22.7852 12.3638 6.41657 -23.6765 12.8372 6.41732 -24.6 13.2571 
6.37724 -25.531 13.6561 6.39164 -26.459 14.0828 6.55832 -27.3049 14.5505 
7.13622 -27.9492 15.1315 
LINES 1 65
64 0 1 2 3 4 5 6 7 8 9 10 11 12 13 14 15 16 17 18 19 20 21 22 23 24 25 26 27 28 29 30 31 32 33 34 35 36 37 38 39 40 41 42 43 44 45 46 47 48 49 50 51 52 53 54 55 56 57 58 59 60 61 62 63 

POINT_DATA 64
SCALARS MaximumInscribedSphereRadius float
LOOKUP_TABLE default
1.24 1.05461 0.873286 0.692569 0.735486 0.92935 1.14829 1.39829 1.40268 
1.12531 1.1646 1.64303 1.41727 1.24 1.27723 1.44331 1.44639 1.27726 
1.42309 1.6307 1.80486 1.58867 1.55458 1.57233 1.5657 1.58582 1.76514 
1.81822 1.74774 1.68382 1.92944 2.00457 1.49856 1.55281 2.01098 1.87022 
1.65464 1.76809 1.86 1.82898 1.67412 1.56159 1.55059 1.59722 1.71399 
1.97928 2.05113 1.70465 1.69275 1.88711 2.08011 2.06732 1.9081 1.87482 
2.17756 2.78968 2.75475 2.57308 2.40948 2.41105 2.40569 2.08508 1.78089 
1.581 
TEXTURE_COORDINATES TCoords 2 float
0 0 0.015873 0 0.031746 0 0.047619 0 0.0634921 
0 0.0793651 0 0.0952381 0 0.111111 0 0.126984 0 
0.142857 0 0.15873 0 0.174603 0 0.190476 0 0.206349 
0 0.222222 0 0.238095 0 0.253968 0 0.269841 0 
0.285714 0 0.301587 0 0.31746 0 0.333333 0 0.349206 
0 0.365079 0 0.380952 0 0.396825 0 0.412698 0 
0.428571 0 0.444444 0 0.460317 0 0.47619 0 0.492063 
0 0.507937 0 0.52381 0 0.539683 0 0.555556 0 
0.571429 0 0.587302 0 0.603175 0 0.619048 0 0.634921 
0 0.650794 0 0.666667 0 0.68254 0 0.698413 0 
0.714286 0 0.730159 0 0.746032 0 0.761905 0 0.777778 
0 0.793651 0 0.809524 0 0.825397 0 0.84127 0 
0.857143 0 0.873016 0 0.888889 0 0.904762 0 0.920635 
0 0.936508 0 0.952381 0 0.968254 0 0.984127 0 
1 0 
FIELD FieldData 4
Curvature 1 64 float
0.142226 0.0967768 0.0625297 0.0455732 0.0591128 0.10574 0.175062 0.245226 0.319541 
0.373301 0.29709 0.207896 0.147847 0.115159 0.103152 0.108358 0.122402 0.136703 
0.155249 0.210043 0.394262 0.97488 0.613095 0.22036 0.0869408 0.0682358 0.12635 
0.198968 0.248985 0.236052 0.173923 0.108533 0.0622711 0.036865 0.0275194 0.0294122 
0.0461968 0.0766971 0.109797 0.13016 0.133903 0.126555 0.116924 0.114786 0.121778 
0.130884 0.133584 0.122947 0.103777 0.0893352 0.0879986 0.103052 0.130596 0.165883 
0.199045 0.211307 0.192079 0.150794 0.096654 0.038978 0.0580995 0.182198 0.356476 
0.415109 
Torsion 1 64 float
0.0406082 0.0778724 0.180099 0.338405 0.244928 0.0841801 -0.061615 -0.333018 -0.473153 
-0.246991 -0.0736595 0.0425812 0.18254 0.351072 0.460346 0.426283 0.321611 0.220024 
0.138489 0.0605476 0.00175483 -0.0253601 -0.054167 -0.146801 -0.50377 -0.570849 -0.225727 
-0.143118 -0.12076 -0.107562 -0.100284 -0.114799 -0.14667 -0.111312 0.16437 0.402656 
0.291083 0.166116 0.121271 0.103222 0.0905511 0.0805239 0.0687914 0.0591477 0.0613757 
0.0861988 0.133022 0.228915 0.377635 0.47623 0.429954 0.289679 0.156918 0.051173 
-0.044461 -0.090678 -0.0869068 -0.0679037 -0.0512072 -0.0534954 -0.0235211 -0.0110125 -0.00577931 
-0.00223098 
Abscissas 1 64 double
0 1.0470708718 2.0199065182 3.0452408928 4.0582668325 5.0728607498 6.0873937588 7.1012648503 8.1142471537 
9.1255820227 10.137871647 11.151348569 12.165387358 13.179649853 14.194005806 15.208381604 16.222684107 17.236901983 
18.250910859 19.26600611 20.27491055 21.286213093 22.282070774 23.299460624 24.312338067 25.327091385 26.341557925 
27.355711475 28.36909889 29.382079927 30.395766131 31.410004476 32.424500038 33.439065949 34.453651317 35.468247453 
36.482840122 37.497372473 38.511781353 39.526041093 40.540223543 41.554444464 42.568724663 43.583036621 44.597337325 
45.611579065 46.625778533 47.63998984 48.65429098 49.668709101 50.683147281 51.697560714 52.711884728 53.726016053 
54.739837552 55.753404428 56.767011348 57.780924396 58.795261987 59.809793368 60.823503609 61.844896187 62.825777683 
63.868210801 
ParallelTransportNormals 3 64 double
0.40910943554 0 0.91248532577 0.29068537198 -0.024914742333 0.95649426037 0.22814867166 -0.037181825474 0.97291607833 
0.18153753704 -0.046662222916 0.9822763153 0.16695958725 -0.050053968938 0.9846923867 0.18162906777 -0.045645655155 0.98230715965 
0.21468028996 -0.030895441702 0.97619559761 0.19241310432 -0.047410211304 0.98016808209 0.040699491216 -0.23645625209 0.97078936555 
-0.13037170645 -0.56048444796 0.8178388605 -0.21925535441 -0.78345895196 0.58148014597 -0.25346081786 -0.89240195693 0.37333143596 
-0.26069309757 -0.9415619509 0.21330776237 -0.25373245675 -0.96142773099 0.10619114127 -0.24594189216 -0.96713910167 0.064455749893 
-0.25499537675 -0.9624571709 0.093024470001 -0.29312262591 -0.93904844824 0.17963055984 -0.35756129481 -0.88468959588 0.29912244883 
-0.43735236721 -0.78918541567 0.43117199188 -0.52717441763 -0.62790130103 0.57256186527 -0.6313273958 -0.24631497135 0.73536022071 
-0.49950753285 0.69537404421 0.51666929777 -0.19018824302 0.98172589194 -0.0065349302928 -0.10865183643 0.98189965774 -0.15513813385 
-0.08777207298 0.97620334188 -0.19830052572 -0.099688371027 0.98067980135 -0.16831326716 -0.13111453165 0.98957100726 -0.05965065955 
-0.1651039294 0.9746610182 0.15091915747 -0.17167945405 0.88624961823 0.43021829255 -0.14590841886 0.73247173673 0.66497811106 
-0.11551362376 0.58632595489 0.80179703002 -0.095652173005 0.48597979737 0.86871991939 -0.085171860173 0.42583273284 0.90078423492 
-0.079807027651 0.3897985627 0.91743551209 -0.076541216108 0.36447420047 0.92806249759 -0.073492550021 0.33998611387 0.9375544184 
-0.069224014983 0.31147672122 0.94772901606 -0.062595808999 0.28123653591 0.95759478672 -0.054761096354 0.25837685361 0.9644908625 
-0.051149285298 0.25146979865 0.96651264398 -0.057946574686 0.26042014044 0.96375491954 -0.07765487489 0.27901228546 0.95714255206 
-0.10935387374 0.30075991249 0.94740973467 -0.15289841565 0.32194666123 0.93432993199 -0.21086843185 0.33998531427 0.91648485559 
-0.28691165476 0.35079561659 0.891416927 -0.38136925694 0.34839063389 0.85626015678 -0.48688060599 0.32880104052 0.80922008827 
-0.58822361909 0.29636756764 0.75243553797 -0.66943434044 0.2639350623 0.69440330265 -0.72173441746 0.24321167072 0.64803357465 
-0.74570991201 0.23605587411 0.62305244677 -0.7463116021 0.23599119783 0.62235612563 -0.73092827283 0.2332838517 0.64134429483 
-0.71391168713 0.223531266 0.66359918332 -0.70967700656 0.21857927117 0.66976238217 -0.71562662539 0.23192685158 0.65885390532 
-0.72120760075 0.25913107614 0.64242562371 -0.72269575825 0.28554092276 0.62942610561 -0.72242193271 0.29844789145 0.62372702942 
-0.72268665785 0.27943932734 0.63216900976 -0.71690900751 0.2238424544 0.66025451953 -0.65268760465 0.092571492837 0.75195040359 
-0.65268760465 0.092571492837 0.75195040359 
