# vtk DataFile Version 4.2
vtk output
ASCII
DATASET POLYDATA
POINTS 64 float
0 0 0 -1.03149 0.12702 0.11463 -1.99991 0.0926968 0.210229 
-2.99554 -0.122507 0.327855 -3.89652 -0.549987 0.499243 -4.67384 -1.14695 0.759942 
-5.33216 -1.83479 1.10991 -5.92106 -2.55102 1.52164 -6.49146 -3.26431 1.96359 
-7.08205 -3.9605 2.40606 -7.72085 -4.63408 2.81524 -8.42747 -5.28834 3.1379 
-9.15145 -5.99776 3.13409 -9.30859 -6.78063 2.56837 -9.03231 -7.57194 1.98293 
-8.75053 -8.40834 1.48327 -8.48493 -9.25401 0.989936 -8.18663 -10.0646 0.457565 
-7.78639 -10.7995 -0.115244 -7.2262 -11.4424 -0.66416 -6.46195 -11.9967 -1.03391 
-5.57432 -12.4336 -0.882006 -4.99151 -12.6373 -0.0850519 -4.81766 -12.6533 0.915227 
-4.85596 -12.5967 1.92707 -5.01067 -12.5287 2.92739 -5.23448 -12.5009 3.91655 
-5.49982 -12.5771 4.89263 -5.7806 -12.8392 5.831 -6.03865 -13.3425 6.67202 
-6.2383 -14.0419 7.37867 -6.36907 -14.8435 7.98646 -6.43109 -15.6829 8.55294 
-6.41814 -16.5248 9.11893 -6.31439 -17.3479 9.70273 -6.09599 -18.1381 10.3001 
-5.73527 -18.8825 10.887 -5.21118 -19.5615 11.4281 -4.52517 -20.1452 11.8938 
-3.70669 -20.6041 12.2785 -2.79883 -20.9205 12.6015 -1.84187 -21.0871 12.8935 
-0.869706 -21.1025 13.1825 0.0886792 -20.9743 13.489 1.0132 -20.7271 13.8255 
1.89976 -20.4047 14.1988 2.7606 -20.0654 14.6151 3.61319 -19.7744 15.0815 
4.46298 -19.5914 15.6042 5.29307 -19.5475 16.1854 6.07103 -19.6311 16.8309 
6.75742 -19.8085 17.5563 7.29946 -20.057 18.3765 7.63633 -20.3848 19.2747 
7.74511 -20.8302 20.1788 7.67482 -21.4261 20.996 7.51161 -22.1625 21.6738 
7.32579 -22.997 22.2197 7.15416 -23.887 22.6756 7.00717 -24.7994 23.0949 
6.87892 -25.7044 23.5307 6.74738 -26.5764 24.0534 6.60296 -27.3285 24.6574 
6.39449 -27.942 25.4769 
LINES 1 65
64 0 1 2 3 4 5 6 7 8 9 10 11 12 13 14 15 16 17 18 19 20 21 22 23 24 25 26 27 28 29 30 31 32 33 34 35 36 37 38 39 40 41 42 43 44 45 46 47 48 49 50 51 52 53 54 55 56 57 58 59 60 61 62 63 

POINT_DATA 64
SCALARS MaximumInscribedSphereRadius float
LOOKUP_TABLE default
1.55 1.41177 1.25632 1.08381 0.995145 1.14403 1.15509 1.00499 1.04021 
1.2068 1.38345 1.49155 1.5843 1.63726 1.02578 1.20211 1.4973 1.83959 
1.80137 1.59277 1.85726 1.98783 2.06188 2.15762 2.16994 2.10757 1.94017 
1.76484 1.58223 1.71353 1.82169 1.6476 1.63314 1.78526 1.67508 1.3954 
1.50113 1.72688 1.4997 1.26257 1.34551 1.43003 1.51763 1.44108 1.32195 
1.7732 2.29281 2.30931 2.22926 2.39474 2.39333 2.16604 1.81931 1.63406 
1.84254 2.19096 2.25802 1.81959 1.72073 2.03854 2.18681 2.17408 2.17 
2.17 
TEXTURE_COORDINATES TCoords 2 float
0 0 0.015873 0 0.031746 0 0.047619 0 0.0634921 
0 0.0793651 0 0.0952381 0 0.111111 0 0.126984 0 
0.142857 0 0.15873 0 0.174603 0 0.190476 0 0.206349 
0 0.222222 0 0.238095 0 0.253968 0 0.269841 0 
0.285714 0 0.301587 0 0.31746 0 0.333333 0 0.349206 
0 0.365079 0 0.380952 0 0.396825 0 0.412698 0 
0.428571 0 0.444444 0 0.460317 0 0.47619 0 0.492063 
0 0.507937 0 0.52381 0 0.539683 0 0.555556 0 
0.571429 0 0.587302 0 0.603175 0 0.619048 0 0.634921 
0 0.650794 0 0.666667 0 0.68254 0 0.698413 0 
0.714286 0 0.730159 0 0.746032 0 0.761905 0 0.777778 
0 0.793651 0 0.809524 0 0.825397 0 0.84127 0 
0.857143 0 0.873016 0 0.888889 0 0.904762 0 0.920635 
0 0.936508 0 0.952381 0 0.968254 0 0.984127 0 
1 0 
FIELD FieldData 4
Curvature 1 64 float
0.134011 0.157117 0.181716 0.198418 0.189947 0.148408 0.0897234 0.0392265 0.0291317 
0.0698489 0.149004 0.380545 0.795417 0.5208 0.189346 0.0783275 0.057364 0.112088 
0.16264 0.250525 0.467582 0.643695 0.435007 0.216003 0.104093 0.0686707 0.100869 
0.164872 0.218304 0.207568 0.139161 0.0817024 0.0637656 0.0774534 0.0997625 0.12399 
0.148858 0.164758 0.163529 0.147372 0.131858 0.124178 0.118478 0.104541 0.0760148 
0.0493587 0.0629541 0.101818 0.126221 0.124724 0.127032 0.155553 0.193628 0.212584 
0.208132 0.186582 0.145824 0.0953135 0.0436976 0.02585 0.0727118 0.132643 0.194491 
0.23367 
Torsion 1 64 float
0.0492319 0.0747844 0.111199 0.150162 0.173339 0.170056 0.186043 0.748795 0.779131 
0.20174 0.122858 0.179606 0.461126 0.371891 0.132826 0.166716 0.44865 0.309534 
0.345764 0.32422 0.240391 0.105804 0.0396367 0.0731491 0.246028 0.579002 0.32187 
0.122376 0.0737851 0.0922776 0.196808 0.40592 0.381068 0.0831698 -0.085736 -0.109243 
-0.062473 0.0198412 0.0971287 0.164864 0.19288 0.174425 0.141225 0.141132 0.287176 
0.727656 0.551177 0.109502 -0.0670991 -0.221163 -0.260478 -0.0992001 0.10244 0.274937 
0.309957 0.239434 0.180384 0.191386 0.47675 1.7263 0.253631 0.0945141 0.048575 
0.0259491 
Abscissas 1 64 double
0 1.0455836132 2.0193112683 3.0447041866 4.0565755418 5.0707554315 6.0851406581 7.0996873591 8.1143142715 
9.1288359437 10.143327049 11.158947119 12.17257995 13.151159679 14.173529487 15.187739684 16.202176856 17.21676804 
18.230890634 19.244979315 20.258900698 21.259860564 22.267957232 23.28335866 24.297504733 25.312005885 26.326547431 
27.340915803 28.354847807 29.368375279 30.382450019 31.396890695 32.41143678 33.425956288 34.440414806 35.454799292 
36.469071222 37.483150791 38.497199726 39.511331706 40.52557237 41.539869068 42.554185757 43.568539206 44.582978435 
45.597522259 46.612110246 47.626602846 48.640926878 49.655209986 50.669546357 51.683835353 52.69787864 53.711617617 
54.725323618 55.739140328 56.753250457 57.767635514 58.78219295 59.796996766 60.809644994 61.834807484 62.81012108 
63.85491203 
ParallelTransportNormals 3 64 double
0.11045055382 0 0.9938816203 0.098220576088 0.00053235497863 0.99516452661 0.11672080938 0.0028395506311 0.99316070684 
0.17625123452 0.023062844604 0.98407500097 0.26376235273 0.076465312808 0.96155211883 0.34127305361 0.14583142279 0.92858273676 
0.38797244461 0.19840341433 0.90006303524 0.40766550024 0.22268665977 0.88556168135 0.40543557604 0.21997944729 0.88726041073 
0.37905913452 0.1905912446 0.90553252289 0.31336745029 0.12575560687 0.94126848903 0.084931737625 -0.092000632538 0.9921302755 
-0.18302526321 -0.55141181521 0.81390832596 -0.17792207828 -0.6246623005 0.76035566966 -0.20294951788 -0.55165852565 0.80900207927 
-0.20654236243 -0.54061802432 0.81551971423 -0.19075868681 -0.5869763301 0.78680995882 -0.15814137808 -0.65913814022 0.73520624089 
-0.12591546161 -0.7053674896 0.69756863544 -0.15012061214 -0.6834890699 0.71435739874 -0.3925756095 -0.53817364091 0.74582405637 
-0.7938365151 -0.36326461221 0.48771139909 -0.93337684107 -0.32271066201 0.15705254274 -0.94512639207 -0.32623424392 -0.017530576334 
-0.93510714177 -0.33270387321 -0.1219949432 -0.92048574662 -0.3364028829 -0.19884438803 -0.90241816769 -0.33461323971 -0.27143218387 
-0.87927879146 -0.32027876983 -0.35254831794 -0.85485420269 -0.28558081276 -0.43320652294 -0.84033365864 -0.24742840684 -0.48230542777 
-0.83789626695 -0.23635671721 -0.49200136998 -0.84055633785 -0.2589986551 -0.47579905376 -0.84203954791 -0.30981596488 -0.44156932374 
-0.83691780075 -0.38288674509 -0.39110910911 -0.81902923802 -0.47246969391 -0.32552034592 -0.78088587225 -0.5735436834 -0.24751746959 
-0.71421007345 -0.68080130219 -0.16252248438 -0.61421276209 -0.78514349855 -0.079324457558 -0.48650880286 -0.87364651459 -0.0071380870596 
-0.34480792105 -0.9372895314 0.050949307322 -0.19985993582 -0.97483520609 0.098753870863 -0.057696236707 -0.98824602451 0.14156602457 
0.072959973404 -0.98061205615 0.18187038687 0.17750974752 -0.9597663976 0.21757470345 0.23995862308 -0.94012343418 0.24204914318 
0.24982252689 -0.93638849215 0.24650618011 0.20358104366 -0.95339751356 0.22268349694 0.10820565339 -0.97995597976 0.16726569973 
-0.010083790345 -0.99593259817 0.089535339788 -0.11475071264 -0.99334705953 0.0096898543447 -0.18956159811 -0.98001262063 -0.060346200565 
-0.24454030777 -0.96094983601 -0.12952007775 -0.29492372236 -0.92791274421 -0.2280305618 -0.33348439438 -0.86101500691 -0.38398088049 
-0.33772077062 -0.74644606103 -0.57337854779 -0.31289200458 -0.60477195047 -0.73235884742 -0.28503821362 -0.4794031578 -0.83001555954 
-0.26811944008 -0.39777842334 -0.87743050538 -0.26278965214 -0.36762957895 -0.89207067624 -0.26578687055 -0.38742151903 -0.88275812431 
-0.2768248626 -0.4629408251 -0.84205331655 -0.29397366185 -0.56356410754 -0.77199415984 -0.33212118169 -0.71262865588 -0.61794491623 
-0.33212118169 -0.71262865588 -0.61794491623 
