# vtk DataFile Version 4.2
vtk output
ASCII
DATASET POLYDATA
POINTS 64 float
0 0 0 -0.888425 0.526948 -0.144135 -1.81532 0.799454 -0.287506 
-2.83115 0.869706 -0.404085 -3.82846 0.702108 -0.437966 -4.76917 0.334111 -0.347512 
-5.60274 -0.19308 -0.112179 -6.3101 -0.826557 0.244244 -6.91149 -1.5276 0.663875 
-7.45144 -2.28302 1.07245 -7.98232 -3.09645 1.36464 -8.5434 -3.93885 1.33079 
-9.06507 -4.65385 0.83974 -9.48915 -5.22313 0.1155 -9.83751 -5.7653 -0.668147 
-10.1013 -6.34981 -1.45416 -10.2256 -6.98671 -2.23371 -10.138 -7.62554 -3.01616 
-9.8323 -8.20498 -3.79025 -9.37021 -8.72138 -4.53111 -8.80477 -9.20982 -5.21693 
-8.15661 -9.71045 -5.81741 -7.43159 -10.2603 -6.25632 -6.64675 -10.8963 -6.28137 
-6.25199 -11.3288 -5.46846 -6.39433 -11.379 -4.46276 -6.71647 -11.3151 -3.50486 
-7.12064 -11.2368 -2.57711 -7.55431 -11.2227 -1.66016 -7.97979 -11.3549 -0.749057 
-8.35401 -11.7112 0.123043 -8.64289 -12.3033 0.893528 -8.83676 -13.0694 1.52919 
-8.93757 -13.9363 2.04615 -8.93959 -14.8475 2.49218 -8.82988 -15.7577 2.92629 
-8.59812 -16.6215 3.40499 -8.24921 -17.388 3.96997 -7.81055 -18.023 4.62802 
-7.31271 -18.5361 5.34773 -6.76452 -18.9653 6.08566 -6.15924 -19.3386 6.80926 
-5.49063 -19.6521 7.50485 -4.76396 -19.8788 8.17545 -3.99918 -19.9882 8.83283 
-3.22643 -19.9673 9.48968 -2.47392 -19.8289 10.1558 -1.75817 -19.6031 10.8384 
-1.08457 -19.3263 11.5448 -0.450599 -19.0364 12.282 0.15721 -18.7719 13.0501 
0.776668 -18.5652 13.8265 1.47224 -18.4316 14.5525 2.27921 -18.367 15.1635 
3.16163 -18.3619 15.664 4.06759 -18.4186 16.1172 4.95299 -18.5519 16.5941 
5.76656 -18.7796 17.1553 6.44141 -19.1099 17.8361 6.92906 -19.5264 18.6222 
7.23863 -19.9964 19.4625 7.42241 -20.5135 20.3311 7.531 -21.0348 21.1483 
7.63662 -21.6479 21.986 
LINES 1 65
64 0 1 2 3 4 5 6 7 8 9 10 11 12 13 14 15 16 17 18 19 20 21 22 23 24 25 26 27 28 29 30 31 32 33 34 35 36 37 38 39 40 41 42 43 44 45 46 47 48 49 50 51 52 53 54 55 56 57 58 59 60 61 62 63 

POINT_DATA 64
SCALARS MaximumInscribedSphereRadius float
LOOKUP_TABLE default
0.93 1.28418 1.48658 1.30865 1.24 1.35998 1.73671 1.74419 1.54124 
1.34137 1.37198 1.46232 1.24108 1.28313 1.5581 1.74127 1.58683 1.39453 
1.2772 1.29674 1.43247 1.60872 1.59148 1.55 1.55602 1.65534 1.80506 
1.71194 1.64474 1.8048 1.86 1.78275 1.60199 1.55 1.55 1.56313 
1.69827 1.85033 1.86517 1.72933 1.57706 1.54704 1.4376 1.40293 1.68271 
1.96696 2.14764 1.99967 1.95561 2.33197 2.25012 1.88943 1.57486 1.18074 
1.18292 1.67511 1.58591 1.312 1.24765 1.10403 1.01279 1.15072 1.35801 
1.581 
TEXTURE_COORDINATES TCoords 2 float
0 0 0.015873 0 0.031746 0 0.047619 0 0.0634921 
0 0.0793651 0 0.0952381 0 0.111111 0 0.126984 0 
0.142857 0 0.15873 0 0.174603 0 0.190476 0 0.206349 
0 0.222222 0 0.238095 0 0.253968 0 0.269841 0 
0.285714 0 0.301587 0 0.31746 0 0.333333 0 0.349206 
0 0.365079 0 0.380952 0 0.396825 0 0.412698 0 
0.428571 0 0.444444 0 0.460317 0 0.47619 0 0.492063 
0 0.507937 0 0.52381 0 0.539683 0 0.555556 0 
0.571429 0 0.587302 0 0.603175 0 0.619048 0 0.634921 
0 0.650794 0 0.666667 0 0.68254 0 0.698413 0 
0.714286 0 0.730159 0 0.746032 0 0.761905 0 0.777778 
0 0.793651 0 0.809524 0 0.825397 0 0.84127 0 
0.857143 0 0.873016 0 0.888889 0 0.904762 0 0.920635 
0 0.936508 0 0.952381 0 0.968254 0 0.984127 0 
1 0 
FIELD FieldData 4
Curvature 1 64 float
0.195372 0.204261 0.205652 0.204699 0.206124 0.203119 0.175941 0.120727 0.0843184 
0.147149 0.313808 0.434425 0.269285 0.115869 0.0847487 0.126499 0.181267 0.201233 
0.159557 0.110198 0.105481 0.183465 0.408192 0.950771 0.622889 0.241549 0.0904892 
0.0692621 0.133608 0.203395 0.22849 0.203447 0.157048 0.111514 0.0946039 0.119349 
0.149999 0.154978 0.124647 0.0849169 0.0686797 0.0775229 0.0909479 0.104638 0.110203 
0.101203 0.081114 0.0618663 0.0567291 0.0644913 0.0723805 0.10261 0.157094 0.142243 
0.0876587 0.0765198 0.12521 0.181593 0.196324 0.164349 0.113533 0.0682245 0.062977 
0.118047 
Torsion 1 64 float
-0.0636135 -0.0942037 -0.129593 -0.15619 -0.146662 -0.0873429 0.00890667 0.245401 0.609788 
0.388112 0.105729 -0.00903917 -0.132311 -0.435568 -0.299794 0.217226 0.244108 0.0715047 
-0.0964032 -0.28144 -0.310364 -0.133621 -0.0355695 -0.019676 -0.0425672 -0.11768 -0.664555 
-0.637389 -0.155164 -0.0236789 0.00368385 -0.0290448 -0.145378 -0.398642 -0.546239 -0.3424 
-0.195133 -0.0899989 0.081353 0.329998 0.288587 -0.085747 -0.227802 -0.227348 -0.191449 
-0.175054 -0.211567 -0.326064 -0.37487 -0.333103 -0.491814 -0.432229 -0.117533 0.116311 
0.534165 0.600945 0.220539 0.0789212 0.0202543 -0.0263335 -0.144261 -0.484298 -0.578969 
-0.233052 
Abscissas 1 64 double
0 1.0429515115 2.0196536638 3.0445677196 4.0564237692 5.0705914024 6.0845673248 7.0988117927 8.1133181851 
9.1277812617 10.142117866 11.154835326 12.167009125 13.181129346 14.195725781 15.210155045 16.224450635 17.238352367 
18.252469707 19.266901686 20.281127532 21.29666932 22.306938963 23.317421754 24.319273013 25.336235096 26.348872404 
27.363865751 28.378294144 29.392491103 30.406186726 31.41996072 32.434098527 33.448465832 34.46294187 35.47739255 
36.491726411 37.505859183 38.520089749 39.534557908 40.549097309 41.563625071 42.578124949 43.592577371 44.606978099 
45.621389648 46.635859742 47.650386416 48.664951262 49.679534613 50.694101517 51.708631117 52.722931714 53.737171366 
54.75167752 55.766252501 56.780717424 57.794948137 58.808858752 59.823371349 60.834722887 61.862167221 62.837483635 
63.880961554 
ParallelTransportNormals 3 64 double
-0.16014314249 0 0.98709380198 -0.15366933592 -0.0028192966025 0.98811830606 -0.11467728882 -0.0098041897131 0.99335441676 
-0.032980556271 -0.0057915951416 0.99943921293 0.085258943702 0.026870380297 0.99599643332 0.21578018308 0.0927246621 0.97202934607 
0.31800704935 0.16972281443 0.93277311433 0.36988456128 0.22262083283 0.90201184921 0.37024526368 0.22308112416 0.90175010771 
0.31039887767 0.13540145353 0.94091390846 0.13554146282 -0.12974741948 0.98223933896 -0.12184913843 -0.49996534899 0.85743071865 
-0.25566418052 -0.68168111253 0.68552657689 -0.28521780858 -0.72420495392 0.627835955 -0.28371078564 -0.72143124336 0.63170020675 
-0.28327192144 -0.72005016156 0.63347042816 -0.28436242927 -0.75798973563 0.58701752061 -0.26458510354 -0.81924896837 0.50874930055 
-0.23598208981 -0.86007394733 0.45231101955 -0.22418465969 -0.87161076189 0.4359310933 -0.24147710518 -0.85751717717 0.45426104668 
-0.30716340041 -0.80726803214 0.50395334083 -0.50817284986 -0.64939541004 0.56572604332 -0.91339569157 -0.28212400928 0.29345247318 
-0.97545105514 -0.1646139063 -0.14627884632 -0.938016289 -0.16573539741 -0.30439648425 -0.90841090661 -0.17153177703 -0.38126955585 
-0.89132817726 -0.17341527561 -0.41888091699 -0.88271691583 -0.17223212919 -0.43720354547 -0.8786096437 -0.16972290203 -0.44636221897 
-0.87519348023 -0.16483656889 -0.45482444714 -0.87356677715 -0.16026028387 -0.45956253902 -0.87509423662 -0.16872420383 -0.4535881613 
-0.87744266066 -0.20933223019 -0.4315951745 -0.87255817701 -0.29194650201 -0.39167520689 -0.84962693729 -0.41107905412 -0.33037566299 
-0.80184433995 -0.54522306904 -0.24449429336 -0.73760330945 -0.65954038102 -0.14473369923 -0.67679014817 -0.73409859145 -0.055266204593 
-0.62753784654 -0.77847131042 0.013366750149 -0.58285210657 -0.80955865013 0.069987240793 -0.52879738345 -0.83870094757 0.13020771026 
-0.45615835648 -0.86682467601 0.20133190227 -0.36765537053 -0.88676614888 0.28013447794 -0.27868478894 -0.89189003233 0.35618388318 
-0.20736833429 -0.88444299366 0.41804182195 -0.16249909172 -0.87331298684 0.45925861148 -0.14440473295 -0.866767353 0.47734854025 
-0.15016617788 -0.8692643601 0.47098788868 -0.17465202578 -0.88019605944 0.4413066585 -0.20599823224 -0.89223041761 0.40185769896 
-0.22474847436 -0.89708260873 0.38043516713 -0.21965777481 -0.89641083955 0.38496502269 -0.21493631671 -0.89621588254 0.3880714775 
-0.24279050838 -0.89541144591 0.37321724448 -0.31460020579 -0.88779278024 0.33593256745 -0.42642614719 -0.86403019664 0.26760523217 
-0.55793881796 -0.81472930212 0.15786209068 -0.66747820466 -0.74437008299 0.019647540765 -0.73019600778 -0.67459149681 -0.10835175426 
-0.75876650502 -0.61756054879 -0.20710470649 -0.76923903476 -0.58011246363 -0.2678448001 -0.77434060891 -0.55318324519 -0.30722128611 
-0.77434060891 -0.55318324519 -0.30722128611 
