# vtk DataFile Version 4.2
vtk output
ASCII
DATASET POLYDATA
POINTS 64 float
0 0 0 -0.747295 -0.173273 0.714876 -1.51404 -0.35911 1.28582 
-2.36083 -0.561185 1.82004 -3.2316 -0.756907 2.30245 -4.117 -0.936078 2.76393 
-5.0074 -1.09315 3.22436 -5.89779 -1.22829 3.69165 -6.7893 -1.34523 4.16169 
-7.68789 -1.45004 4.621 -8.59991 -1.55464 5.05303 -9.52737 -1.68186 5.4441 
-10.4645 -1.86733 5.78549 -11.3941 -2.15731 6.06911 -12.2818 -2.60181 6.27451 
-13.0774 -3.22637 6.33461 -13.7564 -3.94223 6.10903 -14.3536 -4.55616 5.56822 
-14.9232 -5.00126 4.85695 -15.4784 -5.33547 4.07647 -15.9917 -5.62069 3.24915 
-16.3925 -5.90706 2.36272 -16.548 -6.23455 1.41716 -16.3605 -6.60902 0.495306 
-15.9211 -7.01793 -0.321795 -15.3591 -7.47346 -1.03281 -14.7522 -8.00587 -1.64688 
-14.1563 -8.66182 -2.13771 -13.6647 -9.51459 -2.37388 -13.5268 -10.4424 -2.02603 
-13.7333 -11.0602 -1.24915 -14.0324 -11.4591 -0.366545 -14.3272 -11.7749 0.551492 
-14.5653 -12.0932 1.48486 -14.7069 -12.4822 2.41073 -14.7455 -12.982 3.2923 
-14.7232 -13.5908 4.10333 -14.6985 -14.2826 4.8449 -14.7095 -15.0319 5.52869 
-14.7617 -15.8209 6.16443 -14.8333 -16.6399 6.75888 -14.8885 -17.4852 7.31728 
-14.8866 -18.3523 7.84378 -14.7883 -19.2298 8.34319 -14.559 -20.0941 8.82165 
-14.1683 -20.9091 9.28121 -13.6007 -21.6292 9.7138 -12.875 -22.2196 10.1046 
-12.0364 -22.6765 10.446 -11.1273 -23.0153 10.742 -10.1766 -23.2508 11.0062 
-9.20396 -23.3903 11.2583 -8.22631 -23.4387 11.5247 -7.2615 -23.4081 11.8366 
-6.32721 -23.3265 12.2233 -5.43595 -23.2382 12.6997 -4.58984 -23.1926 13.2574 
-3.78273 -23.2306 13.8707 -3.00634 -23.3766 14.5069 -2.2578 -23.6387 15.1392 
-1.54884 -24.0156 15.7591 -0.921712 -24.506 16.3906 -0.463357 -25.0821 17.0573 
-0.605344 -25.6232 17.9255 
LINES 1 65
64 0 1 2 3 4 5 6 7 8 9 10 11 12 13 14 15 16 17 18 19 20 21 22 23 24 25 26 27 28 29 30 31 32 33 34 35 36 37 38 39 40 41 42 43 44 45 46 47 48 49 50 51 52 53 54 55 56 57 58 59 60 61 62 63 

POINT_DATA 64
SCALARS MaximumInscribedSphereRadius float
LOOKUP_TABLE default
1.24 1.05516 1.01407 1.18491 1.10251 1.00512 1.14492 1.14165 1.0013 
1.10063 1.14007 0.779808 1.12649 1.85904 1.80478 1.29068 1.24282 1.6526 
1.84942 2.11166 1.8866 1.37235 1.24902 1.25694 1.27442 1.2772 1.43557 
1.80372 2.12752 1.54525 1.02996 1.25398 1.62219 1.77666 1.57898 1.55 
1.55 1.59545 1.77807 1.6569 1.30814 1.24032 1.31006 1.50668 1.70716 
1.75605 1.3693 1.55047 1.89035 1.93795 1.82686 1.6107 1.56574 1.62633 
1.7883 1.97459 2.15073 2.22804 2.41671 2.75035 2.30581 1.94147 2.00932 
1.55 
TEXTURE_COORDINATES TCoords 2 float
0 0 0.015873 0 0.031746 0 0.047619 0 0.0634921 
0 0.0793651 0 0.0952381 0 0.111111 0 0.126984 0 
0.142857 0 0.15873 0 0.174603 0 0.190476 0 0.206349 
0 0.222222 0 0.238095 0 0.253968 0 0.269841 0 
0.285714 0 0.301587 0 0.31746 0 0.333333 0 0.349206 
0 0.365079 0 0.380952 0 0.396825 0 0.412698 0 
0.428571 0 0.444444 0 0.460317 0 0.47619 0 0.492063 
0 0.507937 0 0.52381 0 0.539683 0 0.555556 0 
0.571429 0 0.587302 0 0.603175 0 0.619048 0 0.634921 
0 0.650794 0 0.666667 0 0.68254 0 0.698413 0 
0.714286 0 0.730159 0 0.746032 0 0.761905 0 0.777778 
0 0.793651 0 0.809524 0 0.825397 0 0.84127 0 
0.857143 0 0.873016 0 0.888889 0 0.904762 0 0.920635 
0 0.936508 0 0.952381 0 0.968254 0 0.984127 0 
1 0 
FIELD FieldData 4
Curvature 1 64 float
0.10711 0.0885784 0.0653651 0.04134 0.0236101 0.0178426 0.0176386 0.0152944 0.0159626 
0.02365 0.0375248 0.0615684 0.0978744 0.146513 0.204855 0.259355 0.273411 0.209003 
0.120431 0.0596521 0.0998076 0.198094 0.27494 0.22175 0.140527 0.0979892 0.142234 
0.290553 0.576963 0.514234 0.226471 0.076766 0.0499572 0.100566 0.124234 0.10963 
0.0855675 0.0732577 0.0618329 0.0448147 0.0375499 0.0518795 0.0762504 0.100958 0.12804 
0.15184 0.157333 0.139037 0.110721 0.0876473 0.0741303 0.0700445 0.0709459 0.0737299 
0.0765481 0.0780552 0.0815153 0.0861523 0.0896589 0.0931853 0.111762 0.204641 0.469715 
0.64748 
Torsion 1 64 float
-0.0253929 -0.0465118 -0.0951683 -0.222995 -0.530343 -0.509441 -0.104366 0.334495 0.544234 
0.417912 0.336752 0.234737 0.121894 0.0157259 -0.173594 -0.404761 -0.360875 -0.16721 
0.0667657 0.606032 0.330037 0.0818357 0.0527134 0.118456 0.244282 0.370707 0.168342 
0.0222307 -0.0511001 -0.0751811 -0.118625 -0.510082 -0.925037 -0.215127 -0.178346 -0.267159 
-0.322471 -0.209655 0.00809455 0.322731 0.551201 0.311414 0.17788 0.126989 0.0757584 
0.0320982 0.00475202 0.000101488 0.0293993 0.0998033 0.191943 0.268011 0.320164 0.35539 
0.368861 0.36476 0.312063 0.22233 0.0886921 -0.0915282 -0.259827 -0.258093 -0.185773 
-0.0744203 
Abscissas 1 64 double
0 1.0485804513 2.0224413 3.043852769 4.0583778924 5.0727788895 6.0874142718 7.1020093772 8.1166100626 
9.1312055819 10.145784816 11.160330947 12.174775463 13.189019029 14.202855546 15.216082555 16.228203418 17.241124871 
18.255252326 19.269732318 20.284234483 21.298361136 22.311020368 23.323544954 24.337411485 25.351723807 26.366103015 
27.379108409 28.391370339 29.39177418 30.405614712 31.419307794 32.433921615 33.448421788 34.46262082 35.4767556 
36.491087841 37.505536379 38.52002129 39.53455268 40.549119709 41.56367354 42.578159626 43.592530376 44.606729178 
45.62071976 46.634507578 47.648408692 48.662552234 49.676872319 50.691290085 51.705740298 52.720198318 53.734647849 
54.749079931 55.763502972 56.777913293 57.792298916 58.806665 59.820981031 60.835332464 61.851500801 62.844664378 
63.877561756 
ParallelTransportNormals 3 64 double
0.69125888561 0 0.7226071914 0.60045669736 -0.021554676053 0.79936671843 0.53939583871 -0.036237164623 0.84127224909 
0.49215271506 -0.047177862426 0.86922951765 0.4698214041 -0.051944934574 0.88123184919 0.46600639407 -0.052667291932 0.88321243031 
0.47025004269 -0.051970953455 0.8810016557 0.47107351565 -0.051854457777 0.88056848573 0.45941272229 -0.053298971722 0.88662233798 
0.43269421335 -0.056389217795 0.89977551303 0.39491241399 -0.061150740981 0.91668139075 0.35337796093 -0.068116062645 0.93299743769 
0.31319632145 -0.078350441649 0.94645088226 0.2697219591 -0.095921388614 0.95814881516 0.18893463758 -0.14723244252 0.97088944303 
0.010422459252 -0.30951652004 0.9508369451 -0.20117069684 -0.52999950863 0.82379055079 -0.33673392046 -0.65305403161 0.67832934376 
-0.40490026788 -0.70028085199 0.58793069439 -0.44590009389 -0.72404952707 0.52623700803 -0.48175781377 -0.74647221756 0.4590083194 
-0.51333084383 -0.78132530991 0.35499606316 -0.5112217931 -0.82749487343 0.23217345394 -0.48761503237 -0.8570025967 0.1666677217 
-0.48657234884 -0.85790274584 0.16507643086 -0.52082685747 -0.82895182243 0.20390748055 -0.59950420003 -0.75121359401 0.27617539775 
-0.75264427543 -0.53872877638 0.37854709108 -0.93876552617 -0.01040495426 0.3443995119 -0.92193163632 0.38277220624 0.059392727501 
-0.87804766578 0.47102600958 -0.084656924792 -0.86868783548 0.48229093363 -0.1130349496 -0.88220679548 0.46620394802 -0.066068516354 
-0.90398122608 0.42564590583 0.040540174314 -0.91650916567 0.36384218353 0.16622218481 -0.91736021568 0.30585125814 0.2547650733 
-0.91632393062 0.27714289633 0.28903679557 -0.9163244503 0.27719776023 0.28898253148 -0.91593052392 0.28678894766 0.28075500859 
-0.91607491595 0.28491308609 0.28219015174 -0.91808904961 0.25848270236 0.30049823554 -0.91984313759 0.20206771371 0.33623985682 
-0.91497517267 0.11731119579 0.38608097174 -0.89474722735 0.0097526050434 0.44646644426 -0.84847077089 -0.11557513504 0.51646852673 
-0.76612311574 -0.24748921736 0.59313106378 -0.6529230943 -0.3622008344 0.66520822942 -0.53404300648 -0.44178674967 0.72084848273 
-0.4295676887 -0.48935287064 0.75895017545 -0.3455348466 -0.51530364073 0.7842626012 -0.2832539684 -0.52744594972 0.80097937521 
-0.2471542563 -0.53092307225 0.81057724181 -0.24541406828 -0.53093898024 0.81109539165 -0.28337838005 -0.53318106769 0.79712900009 
-0.35455080016 -0.53980452501 0.76348202656 -0.44020482861 -0.54640798441 0.71250124452 -0.52272085694 -0.546786735 0.6540544107 
-0.59230586642 -0.53870090948 0.59914530018 -0.64934865738 -0.52343384702 0.55169133485 -0.70542850052 -0.49884418878 0.50351276645 
-0.78365042467 -0.44807767069 0.43025389359 -0.88545043959 -0.34779261724 0.30824959762 -0.98654966895 -0.003364029739 -0.16342715197 
-0.98654966895 -0.003364029739 -0.16342715197 
