# vtk DataFile Version 4.2
vtk output
ASCII
DATASET POLYDATA
POINTS 64 float
0 0 0 -0.777931 -0.224151 0.637565 -1.74876 -0.362801 0.795369 
-2.74439 -0.448918 0.632408 -3.71882 -0.542745 0.366119 -4.70298 -0.737482 0.236126 
-5.56102 -1.11965 0.591263 -6.17967 -1.5587 1.26466 -6.74724 -2.00237 1.97913 
-7.38953 -2.48137 2.59987 -8.1485 -3.06334 2.91977 -8.79424 -3.78504 2.664 
-8.98285 -4.51454 1.99513 -8.78333 -5.1405 1.22512 -8.37553 -5.658 0.454429 
-7.87161 -6.11054 -0.300894 -7.33381 -6.57343 -1.0231 -6.82403 -7.24412 -1.56598 
-6.82472 -8.04659 -1.06764 -7.2072 -8.36043 -0.185095 -7.71077 -8.34731 0.693487 
-8.2206 -8.01762 1.5034 -8.61161 -7.47813 2.2673 -8.8182 -6.93183 3.09487 
-8.82438 -6.64342 4.06174 -8.69238 -6.83664 5.04207 -8.53681 -7.42349 5.85101 
-8.40562 -8.22948 6.45018 -8.29457 -9.16389 6.82505 -8.17448 -10.1631 6.93644 
-8.00107 -11.1485 6.77822 -7.73436 -12.0688 6.44662 -7.34921 -12.9349 6.08621 
-6.82954 -13.7737 5.85779 -6.19602 -14.5539 5.95578 -5.53618 -15.1538 6.43191 
-4.86902 -15.5189 7.1012 -4.12658 -15.6676 7.77435 -3.2784 -15.6344 8.32753 
-2.36056 -15.4831 8.73091 -1.41618 -15.2729 9.03608 -0.472256 -15.0304 9.31821 
0.451564 -14.7601 9.63865 1.34679 -14.4725 10.0195 2.22179 -14.1961 10.4522 
3.08894 -13.9743 10.9296 3.94455 -13.8672 11.4629 4.74259 -13.9559 12.08 
5.39168 -14.297 12.7774 5.82811 -14.8644 13.4934 6.05354 -15.5932 14.1599 
6.09139 -16.4294 14.731 5.97366 -17.3237 15.1939 5.74625 -18.2337 15.5803 
5.45915 -19.1362 15.9441 5.1528 -20.0299 16.3141 4.85466 -20.9292 16.677 
4.57896 -21.856 16.9835 4.32406 -22.8213 17.1597 4.07412 -23.8035 17.1451 
3.80293 -24.7593 16.9426 3.47957 -25.658 16.6068 3.07857 -26.4746 16.2074 
2.52216 -27.2374 15.7796 
LINES 1 65
64 0 1 2 3 4 5 6 7 8 9 10 11 12 13 14 15 16 17 18 19 20 21 22 23 24 25 26 27 28 29 30 31 32 33 34 35 36 37 38 39 40 41 42 43 44 45 46 47 48 49 50 51 52 53 54 55 56 57 58 59 60 61 62 63 

POINT_DATA 64
SCALARS MaximumInscribedSphereRadius float
LOOKUP_TABLE default
0.93 1.11667 1.32645 1.52067 1.35003 1.24 1.24 1.24 1.24 
1.43057 1.44329 1.14833 1.01941 1.49754 1.37242 1.30306 1.54044 2.0905 
2.09427 1.67096 1.06108 1.14569 1.24 1.33379 1.53044 1.57037 1.78697 
1.71774 1.55308 1.55212 1.70828 1.85006 1.87577 2.04214 1.92748 1.6146 
1.83581 1.87693 1.84751 1.71652 1.46005 1.4808 1.62894 1.84094 1.66833 
1.5594 1.62857 2.01613 2.18306 2.01666 1.64768 1.95636 1.97617 1.86027 
1.86167 2.01705 2.23141 2.4213 2.30663 2.26093 2.45592 2.48 2.37761 
2.17 
TEXTURE_COORDINATES TCoords 2 float
0 0 0.015873 0 0.031746 0 0.047619 0 0.0634921 
0 0.0793651 0 0.0952381 0 0.111111 0 0.126984 0 
0.142857 0 0.15873 0 0.174603 0 0.190476 0 0.206349 
0 0.222222 0 0.238095 0 0.253968 0 0.269841 0 
0.285714 0 0.301587 0 0.31746 0 0.333333 0 0.349206 
0 0.365079 0 0.380952 0 0.396825 0 0.412698 0 
0.428571 0 0.444444 0 0.460317 0 0.47619 0 0.492063 
0 0.507937 0 0.52381 0 0.539683 0 0.555556 0 
0.571429 0 0.587302 0 0.603175 0 0.619048 0 0.634921 
0 0.650794 0 0.666667 0 0.68254 0 0.698413 0 
0.714286 0 0.730159 0 0.746032 0 0.761905 0 0.777778 
0 0.793651 0 0.809524 0 0.825397 0 0.84127 0 
0.857143 0 0.873016 0 0.888889 0 0.904762 0 0.920635 
0 0.936508 0 0.952381 0 0.968254 0 0.984127 0 
1 0 
FIELD FieldData 4
Curvature 1 64 float
0.295513 0.33681 0.210998 0.0712982 0.14815 0.393543 0.275967 0.0795604 0.0807698 
0.225267 0.406026 0.401799 0.273825 0.15638 0.0741095 0.064346 0.246847 0.900805 
0.436892 0.220985 0.204151 0.156964 0.131466 0.227691 0.321656 0.279508 0.19254 
0.1591 0.168065 0.172631 0.131343 0.0858737 0.126369 0.231456 0.266829 0.191149 
0.14528 0.153395 0.131166 0.0751301 0.0261899 0.0339237 0.0436571 0.0350648 0.0437658 
0.0801998 0.140312 0.191019 0.194787 0.167 0.146163 0.123804 0.0849477 0.0401841 
0.0148685 0.00893006 0.042401 0.0864254 0.121371 0.119815 0.0973709 0.082777 0.0951465 
0.127836 
Torsion 1 64 float
0.00507019 0.0164352 0.0568174 0.505463 0.202446 0.0526992 0.0280808 -0.0644527 0.0238429 
0.118524 0.21469 0.166958 0.0199735 -0.028766 0.0918964 0.26018 0.0296041 -0.0163933 
0.0424564 -0.0574509 -0.177759 -0.461923 -0.697838 -0.299564 -0.144452 -0.0717723 -0.0102523 
0.0618219 0.105854 0.149664 0.295131 0.648587 0.372445 0.108981 -0.056007 -0.30733 
-0.422991 -0.20431 -0.0833668 0.0286139 0.770272 0.394927 0.174558 0.437164 0.302333 
0.0176389 -0.0517869 -0.0228018 0.0181206 0.0513878 0.041726 -0.00614578 -0.117189 -0.359847 
-0.610205 -1.31535 -0.192447 -0.123933 -0.105722 -0.143197 -0.235351 -0.315873 -0.244308 
-0.138924 
Abscissas 1 64 double
0 1.03049004 2.0237893979 3.0363297908 4.0508423462 5.0624652175 6.0666651697 7.081045938 8.0956533369 
9.1092174626 10.117704764 11.119329244 12.126865674 13.139062887 14.153007626 15.167516961 16.179981847 17.182187299 
18.126801777 19.138567715 20.151313407 21.163531133 22.17717746 23.190093097 24.199083327 25.206953908 26.218370067 
27.231209853 28.244112486 29.256658593 30.269594045 31.283527172 32.297670132 33.310500229 34.320286842 35.331184193 
36.344278627 37.357421877 38.370590641 39.384518024 40.399004696 41.413584456 42.428064175 43.442566207 44.457095674 
45.471489573 46.485391121 47.498107293 48.510034649 49.522462509 50.535488582 51.548857175 52.562712819 53.577097417 
54.591664691 55.606270017 56.620844767 57.635207319 58.649048473 59.662638224 60.676630184 61.688983255 62.682592491 
63.71914396 
ParallelTransportNormals 3 64 double
0.6338784223 0 0.77343270279 0.17292032352 -0.095024121975 0.98034125587 -0.14899450439 -0.13190617696 0.98000071334 
-0.24832255436 -0.14097830485 0.95836372352 -0.10661028694 -0.12008918698 0.98702220537 0.37094637493 0.02968025316 0.92817986915 
0.65845728079 0.18938456714 0.72840064189 0.69461248305 0.21628909266 0.6860995021 0.62143511615 0.16048294633 0.76685306308 
0.39533974291 -0.010712444456 0.91847249889 0.025522087848 -0.35414860752 0.93484083502 -0.14387736842 -0.64830922157 0.74765931819 
-0.1428614274 -0.7857902979 0.60176757996 -0.10829588105 -0.85089449714 0.51405306816 -0.082609445103 -0.87822551554 0.4710579831 
-0.093731994761 -0.86845159297 0.48683276782 -0.23667888436 -0.71360397065 0.65935762585 -0.6146400219 0.4165241595 0.66986959032 
-0.46359935151 0.87898194685 0.11165293724 -0.3108149073 0.93086688415 -0.19204410271 -0.15361063459 0.87767511832 -0.45397154053 
-0.070450193054 0.79745937857 -0.59924561728 -0.083880451066 0.82186355689 -0.5634752557 -0.11688419154 0.95150200666 -0.28457339492 
-0.08531179486 0.97530561547 0.20371758416 -0.023252389 0.80708500725 0.58997721776 0.019688665423 0.59854674521 0.8008458967 
0.050520694197 0.37703361532 0.92482069201 0.081238508064 0.12006372793 0.98943671149 0.11924181957 -0.13691662798 0.98337949208 
0.15565671061 -0.2946100929 0.94285517531 0.16351320358 -0.31614195931 0.93451468358 0.10272501621 -0.20160964985 0.97406422793 
-0.08230899047 0.058114666067 0.99491100892 -0.33676125857 0.32964428433 0.88200141754 -0.49916424483 0.44777141527 0.7418462215 
-0.54243061622 0.46354222352 0.70064087349 -0.49752753663 0.46028120615 0.7352601999 -0.4190495374 0.46847682995 0.77777049636 
-0.36467247029 0.47903432864 0.79846108321 -0.36209030135 0.479653376 0.79926419446 -0.40861671869 0.46688159493 0.78425375582 
-0.46804562539 0.44865420543 0.76134269321 -0.50584222734 0.436611884 0.74397157458 -0.51713786632 0.43338163551 0.73807098928 
-0.51512145704 0.43376664762 0.73925393466 -0.52054080701 0.43370671745 0.73548334548 -0.54010009384 0.43951801313 0.71771568519 
-0.5557303267 0.45259765585 0.69736587665 -0.55889309389 0.45879082987 0.69076007704 -0.55755589528 0.45084304692 0.69704517119 
-0.55813901404 0.43820491083 0.70459725881 -0.55807082801 0.4385613871 0.70442945755 -0.55288381652 0.45683389543 0.6968660398 
-0.5474212118 0.4733674725 0.69011104386 -0.55098423986 0.46279895332 0.69443033936 -0.56887890246 0.40585267086 0.71530441345 
-0.60018512154 0.29421136026 0.74378592039 -0.63731325108 0.15098075503 0.75566965773 -0.66916182028 0.032540434336 0.74240391864 
-0.68727248479 -0.023943270702 0.72600499408 -0.68538182214 -0.019472602132 0.72792346827 -0.64667883678 0.044641255532 0.76145494966 
-0.64667883678 0.044641255532 0.76145494966 
