# vtk DataFile Version 4.2
vtk output
ASCII
DATASET POLYDATA
POINTS 64 float
0 0 0 -0.256867 0.565406 0.802176 -0.594938 1.0415 1.63218 
-1.00267 1.43165 2.47523 -1.47208 1.73879 3.32071 -1.99752 1.96416 4.15887 
-2.57567 2.10704 4.98031 -3.20489 2.16478 5.77414 -3.88462 2.13144 6.52666 
-4.61371 1.9974 7.2194 -5.38739 1.75025 7.82748 -6.19289 1.37931 8.32043 
-7.00709 0.884366 8.66903 -7.80158 0.281667 8.856 -8.55382 -0.398577 8.88494 
-9.25478 -1.12379 8.77471 -9.90525 -1.86819 8.54629 -10.5096 -2.613 8.21538 
-11.0699 -3.34411 7.7901 -11.5838 -4.04963 7.27276 -12.0427 -4.71864 6.66348 
-12.433 -5.34276 5.96519 -12.7386 -5.91881 5.18791 -12.9466 -6.45244 4.35042 
-13.0517 -6.95931 3.47779 -13.0575 -7.46061 2.5957 -12.9738 -7.97641 1.726 
-12.8136 -8.52326 0.886524 -12.591 -9.11364 0.0919829 -12.3199 -9.75817 -0.643211 
-12.0145 -10.4689 -1.29977 -11.692 -11.2622 -1.84386 -11.3833 -12.1587 -2.20475 
-11.1639 -13.149 -2.23143 -11.1656 -14.0489 -1.76377 -11.3941 -14.6213 -0.957864 
-11.7367 -14.8959 -0.0432563 -12.1182 -14.963 0.894532 -12.495 -14.8856 1.83338 
-12.8378 -14.7071 2.7715 -13.1223 -14.463 3.7143 -13.3257 -14.1905 4.67024 
-13.4225 -13.9391 5.64842 -13.3831 -13.7818 6.64998 -13.1853 -13.8229 7.64423 
-12.8519 -14.1463 8.54621 -12.4584 -14.726 9.28011 -12.0671 -15.4697 9.84853 
-11.7025 -16.3074 10.2899 -11.3678 -17.1986 10.641 -11.0586 -18.1209 10.9293 
-10.7675 -19.0612 11.1751 -10.4856 -20.011 11.394 -10.2023 -20.9635 11.5986 
-9.90447 -21.9125 11.7991 -9.57715 -22.8508 12.0034 -9.20509 -23.7705 12.2163 
-8.77649 -24.6629 12.4384 -8.28685 -25.5218 12.6664 -7.74056 -26.3459 12.894 
-7.14767 -27.1391 13.1149 -6.52049 -27.9084 13.3241 -5.86926 -28.6625 13.5182 
-5.20413 -29.4076 13.695 
LINES 1 65
64 0 1 2 3 4 5 6 7 8 9 10 11 12 13 14 15 16 17 18 19 20 21 22 23 24 25 26 27 28 29 30 31 32 33 34 35 36 37 38 39 40 41 42 43 44 45 46 47 48 49 50 51 52 53 54 55 56 57 58 59 60 61 62 63 

POINT_DATA 64
SCALARS MaximumInscribedSphereRadius float
LOOKUP_TABLE default
1.116 0.855737 0.643104 0.953218 1.2392 1.24 1.23519 1.08232 0.936126 
1.09406 1.24144 1.26261 1.27711 1.2772 1.26778 1.24832 1.16422 1.0319 
0.980038 0.9796 1.20124 1.52791 1.45705 1.31311 1.20628 1.12862 1.20753 
1.27383 1.25731 1.23388 1.08396 0.95417 1.30999 1.54803 1.56721 1.77591 
1.77006 1.62526 1.67726 1.81076 1.86 1.85904 1.75518 1.5778 1.40747 
1.38388 1.78179 1.93145 1.8831 1.86 1.86055 1.89909 2.0379 2.17083 
2.18265 2.19783 2.34201 2.46712 2.3031 2.08518 1.61389 1.34817 1.92766 
2.48 
TEXTURE_COORDINATES TCoords 2 float
0 0 0.015873 0 0.031746 0 0.047619 0 0.0634921 
0 0.0793651 0 0.0952381 0 0.111111 0 0.126984 0 
0.142857 0 0.15873 0 0.174603 0 0.190476 0 0.206349 
0 0.222222 0 0.238095 0 0.253968 0 0.269841 0 
0.285714 0 0.301587 0 0.31746 0 0.333333 0 0.349206 
0 0.365079 0 0.380952 0 0.396825 0 0.412698 0 
0.428571 0 0.444444 0 0.460317 0 0.47619 0 0.492063 
0 0.507937 0 0.52381 0 0.539683 0 0.555556 0 
0.571429 0 0.587302 0 0.603175 0 0.619048 0 0.634921 
0 0.650794 0 0.666667 0 0.68254 0 0.698413 0 
0.714286 0 0.730159 0 0.746032 0 0.761905 0 0.777778 
0 0.793651 0 0.809524 0 0.825397 0 0.84127 0 
0.857143 0 0.873016 0 0.888889 0 0.904762 0 0.920635 
0 0.936508 0 0.952381 0 0.968254 0 0.984127 0 
1 0 
FIELD FieldData 4
Curvature 1 64 float
0.141615 0.124013 0.110958 0.102288 0.0977033 0.0971984 0.101316 0.110997 0.12683 
0.148292 0.171717 0.188712 0.193837 0.180271 0.154689 0.128936 0.110015 0.102735 
0.105517 0.113555 0.121255 0.124279 0.121284 0.112798 0.103302 0.0961684 0.0918258 
0.0891923 0.0920195 0.108238 0.149188 0.230747 0.381508 0.571839 0.539028 0.355043 
0.229774 0.153258 0.107737 0.0867872 0.0912255 0.122784 0.181688 0.262676 0.330783 
0.319865 0.248241 0.177202 0.12109 0.079236 0.0492631 0.0310155 0.0290782 0.0385947 
0.0502116 0.060493 0.0674311 0.0698685 0.0671869 0.0620205 0.0573371 0.0545175 0.0534548 
0.0533303 
Torsion 1 64 float
0.01192 0.0132428 0.0149577 0.0181964 0.0235718 0.0304855 0.0348341 0.0315273 0.0219261 
0.01095 0.00378843 0.00590804 0.0138477 0.0313706 0.0509244 0.0740771 0.0898291 0.0688882 
0.0330741 -0.0126583 -0.0653643 -0.11267 -0.177058 -0.242535 -0.271372 -0.265743 -0.242754 
-0.226025 -0.208585 -0.173541 -0.126781 -0.0932536 -0.0744467 -0.0570522 -0.0119095 0.0300685 
0.093856 0.177501 0.301407 0.449368 0.46841 0.353602 0.257646 0.202934 0.160018 
0.115333 0.080305 0.060113 0.041116 0.02115 -0.0208723 -0.138869 -0.221072 -0.129071 
-0.0554596 -0.00439225 0.0339343 0.0605156 0.081215 0.0975289 0.0996207 0.0870284 0.0686786 
0.0514033 
Abscissas 1 64 double
0 1.0144707116 2.0292939923 3.0437804179 4.0584363869 5.0730248045 6.0876362056 7.102240792 8.11684725 
9.1314528325 10.146059326 11.160664527 12.175269321 13.189872936 14.204478179 15.219083999 16.233689957 17.248295952 
18.262901814 19.277507984 20.292114267 21.306720763 22.321326776 23.335932336 24.350538229 25.365144194 26.379750158 
27.394355751 28.408961427 29.423567983 30.438169273 31.452784865 32.467303012 33.48193087 34.496087276 35.510661748 
36.525213367 37.539828449 38.55443036 39.569036966 40.583642612 41.59824909 42.612856472 43.627461307 44.642025133 
45.65660371 46.671220468 47.685817771 48.700423209 49.715028693 50.729634341 51.744240651 52.758844659 53.773449955 
54.788055678 55.802661003 56.817266768 57.83187019 58.846485921 59.861058596 60.875759492 61.890118252 62.905228397 
63.919505268 
ParallelTransportNormals 3 64 double
0 -0.8173691176 0.57611433379 0.025816268043 -0.86256492994 0.50528730633 0.054495559892 -0.89587464898 0.4409522052 
0.085280129617 -0.92034751165 0.38169065654 0.11806927719 -0.93789832745 0.32619989753 0.15336415925 -0.94967543936 0.27312267305 
0.19186167322 -0.95607224188 0.22161896728 0.23537362172 -0.95688347323 0.17021538374 0.28659946454 -0.95079742719 0.11766477546 
0.34883032886 -0.93501198199 0.063796514122 0.42399763463 -0.90559169264 0.011388241595 0.50889841189 -0.86020438552 -0.032723409016 
0.59408235098 -0.80208171288 -0.061082617099 0.66750557794 -0.74118019595 -0.071331763978 0.72251440456 -0.68797835881 -0.068254765428 
0.76057384283 -0.6465907909 -0.058717788869 0.78588150938 -0.61655496438 -0.047436579928 0.80320953871 -0.59459650155 -0.03618614747 
0.81655171582 -0.57675306244 -0.024478569571 0.82888381636 -0.55932786141 -0.010196196531 0.84242971105 -0.53870077135 0.010661185671 
0.8575438711 -0.51263484053 0.042708657416 0.87242168413 -0.48049317353 0.089480250688 0.88367811953 -0.44308229505 0.15096708542 
0.88820328376 -0.40192603397 0.22259916876 0.88486829676 -0.35836093578 0.2976332258 0.8744423212 -0.31292470033 0.37071385032 
0.858621752 -0.26593307738 0.43823314041 0.83891842505 -0.21665474157 0.499276075 0.81579263741 -0.16228710922 0.555108338 
0.78826701563 -0.09635239004 0.60774281485 0.75406099292 -0.0047726141753 0.65678705919 0.71362815176 0.13967072685 0.68645972138 
0.69146879513 0.33207532948 0.64155816643 0.71170739831 0.46149425595 0.52961838235 0.74417771218 0.50965306175 0.43180237303 
0.77508070204 0.52423851243 0.35273770341 0.80457985504 0.52383444199 0.27972975216 0.83266042736 0.51384895776 0.20648453043 
0.85804775181 0.49674776576 0.13036760652 0.87834620132 0.4752562463 0.051375587392 0.89073247361 0.45363768809 -0.028434282102 
0.89292259536 0.43805561039 -0.10390630829 0.8864536993 0.43488618117 -0.15834724003 0.88325283877 0.43708295353 -0.16977312664 
0.89424703985 0.42342413375 -0.14503184019 0.91257237923 0.3925218034 -0.1146223648 0.92979270979 0.35649879771 -0.091619452428 
0.94299148272 0.32386723346 -0.076662106723 0.95214693653 0.29807799911 -0.067570094721 0.95789698412 0.28023720826 -0.062453782324 
0.96063154247 0.27121704358 -0.060235827162 0.96020935624 0.27263791323 -0.060552130092 0.95594899155 0.28657725782 -0.063521656546 
0.94653175649 0.31500903397 -0.069619986192 0.93033236567 0.35804443394 -0.079283495806 0.90634771616 0.41232479785 -0.092315104352 
0.87572159377 0.4707365715 -0.10732553498 0.84245349148 0.52478490259 -0.12195458459 0.81132151016 0.56898512864 -0.13421374945 
0.7857824665 0.60169326884 -0.14321705751 0.76705196629 0.62401352911 -0.14912543878 0.75495927633 0.63778539708 -0.15253287631 
0.75495927633 0.63778539708 -0.15253287631 
