# vtk DataFile Version 4.2
vtk output
ASCII
DATASET POLYDATA
POINTS 64 float
0 0 0 -0.837391 0.588796 -0.161568 -1.70105 1.05829 -0.119126 
-2.63703 1.3718 0.151915 -3.54215 1.44808 0.598247 -4.41901 1.35156 1.10022 
-5.2765 1.14842 1.60283 -6.12064 0.886006 2.10086 -6.94838 0.590685 2.60784 
-7.75701 0.275938 3.13363 -8.5466 -0.0558152 3.67764 -9.32226 -0.416538 4.22276 
-10.0994 -0.845274 4.71727 -10.8796 -1.44287 4.95999 -11.4851 -2.18813 4.66647 
-11.8005 -2.90067 4.01052 -11.9318 -3.57164 3.26214 -11.9279 -4.23993 2.49882 
-11.7943 -4.92837 1.76574 -11.5171 -5.65806 1.11698 -11.0426 -6.47166 0.733985 
-10.5032 -7.10344 1.19936 -10.2973 -7.12608 2.22596 -10.1914 -6.96305 3.21249 
-10.0916 -6.72407 4.19549 -9.96647 -6.45731 5.16597 -9.80305 -6.19885 6.13344 
-9.60292 -5.99629 7.10721 -9.3952 -5.93026 8.09795 -9.25794 -6.11047 9.08559 
-9.27077 -6.56659 9.99104 -9.42522 -7.20999 10.76 -9.67215 -7.97092 11.3835 
-9.97362 -8.8274 11.8356 -10.2878 -9.76602 12.0561 -10.5546 -10.7417 11.9885 
-10.7247 -11.6869 11.6628 -10.7922 -12.578 11.1827 -10.7736 -13.4418 10.6508 
-10.683 -14.3239 10.1577 -10.5284 -15.2662 9.81533 -10.3263 -16.2568 9.75154 
-10.1084 -17.2177 9.99104 -9.89234 -18.1039 10.4353 -9.67015 -18.924 10.9897 
-9.41915 -19.6926 11.6026 -9.10379 -20.4119 12.2447 -8.6713 -21.0628 12.8916 
-8.0613 -21.5926 13.5043 -7.26098 -21.9316 14.0255 -6.34298 -22.0695 14.4347 
-5.38631 -22.0624 14.7724 -4.42736 -21.9626 15.0883 -3.48199 -21.8018 15.4197 
-2.56048 -21.6015 15.7939 -1.67185 -21.3835 16.2322 -0.823459 -21.1747 16.7479 
-0.0188605 -21.0065 17.3426 0.743469 -20.9066 18.0042 1.47145 -20.8922 18.712 
2.17154 -20.9657 19.4375 2.87137 -21.128 20.171 3.54213 -21.3495 20.8553 
4.26464 -21.6494 21.5352 
LINES 1 65
64 0 1 2 3 4 5 6 7 8 9 10 11 12 13 14 15 16 17 18 19 20 21 22 23 24 25 26 27 28 29 30 31 32 33 34 35 36 37 38 39 40 41 42 43 44 45 46 47 48 49 50 51 52 53 54 55 56 57 58 59 60 61 62 63 

POINT_DATA 64
SCALARS MaximumInscribedSphereRadius float
LOOKUP_TABLE default
1.2772 1.25866 1.24568 1.28875 1.41843 1.47552 1.3613 1.34299 1.38143 
1.46933 1.58071 1.82669 1.83328 1.27951 1.42761 1.50544 1.30859 1.25712 
1.26759 1.43787 1.44234 1.59425 2.10172 2.46262 2.67428 2.7096 2.55738 
2.25458 1.89288 1.84124 1.72054 1.63456 1.76149 1.66327 1.32041 1.53701 
1.84161 1.672 1.60177 1.75468 1.6505 1.3683 1.41443 1.53397 1.55 
1.59665 1.75069 1.78633 1.6033 1.42813 1.34656 1.43605 1.58599 1.74493 
1.76667 1.44556 1.24 1.24536 1.28939 1.3953 1.63345 1.923 2.09522 
2.2382 
TEXTURE_COORDINATES TCoords 2 float
0 0 0.015873 0 0.031746 0 0.047619 0 0.0634921 
0 0.0793651 0 0.0952381 0 0.111111 0 0.126984 0 
0.142857 0 0.15873 0 0.174603 0 0.190476 0 0.206349 
0 0.222222 0 0.238095 0 0.253968 0 0.269841 0 
0.285714 0 0.301587 0 0.31746 0 0.333333 0 0.349206 
0 0.365079 0 0.380952 0 0.396825 0 0.412698 0 
0.428571 0 0.444444 0 0.460317 0 0.47619 0 0.492063 
0 0.507937 0 0.52381 0 0.539683 0 0.555556 0 
0.571429 0 0.587302 0 0.603175 0 0.619048 0 0.634921 
0 0.650794 0 0.666667 0 0.68254 0 0.698413 0 
0.714286 0 0.730159 0 0.746032 0 0.761905 0 0.777778 
0 0.793651 0 0.809524 0 0.825397 0 0.84127 0 
0.857143 0 0.873016 0 0.888889 0 0.904762 0 0.920635 
0 0.936508 0 0.952381 0 0.968254 0 0.984127 0 
1 0 
FIELD FieldData 4
Curvature 1 64 float
0.213442 0.270585 0.303298 0.259209 0.179712 0.12628 0.091014 0.0623463 0.0398823 
0.0286214 0.0572185 0.14088 0.326801 0.540875 0.452032 0.237989 0.136897 0.121079 
0.175122 0.356866 0.855339 0.936895 0.292001 0.109455 0.0437904 0.0486301 0.087519 
0.148566 0.2374 0.293342 0.254886 0.194629 0.182382 0.21914 0.263406 0.251525 
0.176986 0.0975212 0.0852897 0.165499 0.256352 0.27324 0.205941 0.125492 0.0741872 
0.0786765 0.131829 0.201958 0.252998 0.232735 0.158171 0.0931921 0.0599382 0.0568512 
0.0681948 0.0805219 0.089395 0.0930451 0.0913127 0.0852059 0.0769503 0.0703177 0.0682627 
0.0710323 
Torsion 1 64 float
0.0199528 0.0444188 0.105591 0.197815 0.221862 0.0998242 -0.0557932 -0.138662 -0.136905 
0.19059 0.230085 0.123296 0.0656887 -0.000203251 -0.0887505 -0.172537 -0.265226 -0.253512 
-0.162302 -0.125753 -0.0886052 0.0332589 0.103653 0.242568 0.736646 0.488236 0.263688 
0.235105 0.198003 0.113519 0.00613255 -0.0863807 -0.134883 -0.134897 -0.115227 -0.115632 
-0.193417 -0.587062 -0.908853 -0.272089 -0.0936714 -0.0287707 0.0273122 0.144307 0.432564 
0.385284 0.13727 0.043137 -0.00466708 -0.0613353 -0.150155 -0.312406 -0.498068 -0.431584 
-0.304543 -0.269754 -0.256035 -0.235749 -0.221884 -0.221367 -0.238112 -0.253449 -0.237864 
-0.191927 
Abscissas 1 64 double
0 1.0363443949 2.0202815626 3.0439119135 4.0559749564 5.0709523525 6.0854340696 7.1000510117 8.1146444701 
9.1292437317 10.143868444 11.158225216 12.174273606 13.186537764 14.190639946 15.209189124 16.222860415 17.23739474 
18.251894428 19.266867833 20.283628497 21.235822568 22.283089771 23.288592722 24.305138594 25.319369843 26.334010291 
27.348560953 28.362995454 29.376281887 30.390203198 31.404627469 32.418926018 33.433233215 34.447305068 35.461073083 
36.475207635 37.48965441 38.504230814 39.518839019 40.533244504 41.546280312 42.560290468 43.574834173 44.58938511 
45.603953105 46.61849363 47.632972844 48.646935207 49.660383461 50.674874048 51.689417386 52.703998835 53.718578723 
54.733148933 55.747705161 56.762233677 57.7767927 58.791099347 59.806546577 60.817478607 61.844181702 62.827671217 
63.864087488 
ParallelTransportNormals 3 64 double
-0.18944750803 0 0.9818908502 -0.011234811495 -0.11050492042 0.99381207558 0.2078031623 -0.20625728157 0.95617769245 
0.41134067571 -0.24920448667 0.87675308515 0.50170954286 -0.24819080798 0.82866691585 0.53271482399 -0.24283314128 0.81070770429 
0.54743343734 -0.23880623344 0.80205250112 0.5669452575 -0.23229713386 0.79032342531 0.5909645708 -0.22334230777 0.77516391145 
0.61361000303 -0.21418199547 0.76000581379 0.6254824129 -0.20892953523 0.75174477082 0.60678686523 -0.21843366193 0.7642620202 
0.48471439163 -0.29890775148 0.82201345163 0.25180542828 -0.52483521752 0.81310640186 0.13883849816 -0.70329298952 0.6972107589 
0.12392134431 -0.74953489285 0.65026221237 0.12423506778 -0.74623816711 0.6539833682 0.12081817881 -0.71253840409 0.69115265344 
0.099723278678 -0.63970853634 0.76212089344 -0.0035686236454 -0.42760649211 0.90395793753 -0.46751080916 0.22965104407 0.85363577788 
-0.81932628016 0.54554695053 0.17630363414 -0.8460417095 0.53310983315 0.0027076897477 -0.85061502053 0.52418199731 -0.041077007425 
-0.84990331652 0.52578178219 -0.034897995313 -0.84474828537 0.53516376538 -0.00028035713735 -0.83397711312 0.54882274964 0.05723429271 
-0.81799437814 0.55934799239 0.13422004593 -0.8042571507 0.55479513036 0.21300891737 -0.80115766304 0.5389536968 0.26014478979 
-0.80306077921 0.52644260194 0.27919808694 -0.80861931279 0.50699475905 0.29848135834 -0.82356652336 0.46291061769 0.3277986297 
-0.85499552011 0.37127387284 0.36213032453 -0.90078569508 0.22039219788 0.37418232274 -0.93909771957 0.051950300752 0.33970080858 
-0.95611221932 -0.079554514888 0.28199379997 -0.95846974554 -0.164208241 0.23317675801 -0.95544770014 -0.21255417022 0.20479359613 
-0.95334027811 -0.22823623937 0.1976120775 -0.95702144775 -0.20829408283 0.20180070267 -0.96538141412 -0.16945024624 0.19830617571 
-0.97171035895 -0.14250948301 0.18833487611 -0.97286107061 -0.1380293741 0.18571275986 -0.96727144408 -0.15679599432 0.1995018036 
-0.94959598549 -0.20323351786 0.23867048741 -0.90433360803 -0.28616248218 0.31668874181 -0.7986905063 -0.40579683537 0.44432240946 
-0.60959362332 -0.5222737943 0.59634360749 -0.40282700157 -0.57967606116 0.70831212818 -0.26502860486 -0.58929312031 0.76321258962 
-0.19806465244 -0.58555699197 0.7860619585 -0.17861544 -0.58289495615 0.79267269077 -0.19257028596 -0.58559394952 0.78739850854 
-0.23335834993 -0.59501842747 0.76908838991 -0.29621363306 -0.61046455811 0.73456824521 -0.37336783223 -0.62806071115 0.68274168246 
-0.45298034869 -0.6416827759 0.6189119637 -0.52480405467 -0.64719503915 0.55291887786 -0.58163893147 -0.64483326416 0.49586915092 
-0.62272994226 -0.63793321899 0.45304373643 -0.64608344248 -0.63136898344 0.42889321759 -0.65549244375 -0.62785806464 0.41967118897 
-0.65549244375 -0.62785806464 0.41967118897 
