# vtk DataFile Version 4.2
vtk output
ASCII
DATASET POLYDATA
POINTS 64 float
0 0 0 -0.868915 0.102108 0.568093 -1.7525 -0.0150052 0.966442 
-2.6864 -0.366408 1.194 -3.54957 -0.895034 1.22017 -4.36047 -1.49903 1.13376 
-5.1509 -2.12062 0.998704 -5.94784 -2.7307 0.850096 -6.7612 -3.31621 0.691863 
-7.58637 -3.87293 0.495714 -8.39406 -4.40414 0.188381 -9.09414 -4.91564 -0.336415 
-9.54951 -5.4048 -1.09775 -9.71679 -5.87418 -1.98066 -9.6604 -6.34327 -2.8781 
-9.44963 -6.83327 -3.74095 -9.1307 -7.36316 -4.545 -8.73418 -7.95509 -5.26714 
-8.28614 -8.64453 -5.86149 -7.84517 -9.50721 -6.16339 -7.66721 -10.3979 -5.78214 
-7.82501 -10.9562 -4.93883 -8.07127 -11.3326 -4.0311 -8.30599 -11.6661 -3.10194 
-8.46886 -12.019 -2.16484 -8.5072 -12.4309 -1.23879 -8.39165 -12.9194 -0.357542 
-8.13884 -13.4804 0.448803 -7.80163 -14.1018 1.17635 -7.44189 -14.7739 1.84587 
-7.10598 -15.49 2.48127 -6.8159 -16.2433 3.09581 -6.57031 -17.0267 3.69195 
-6.34962 -17.8333 4.26647 -6.12259 -18.6561 4.81489 -5.85482 -19.4858 5.33391 
-5.51819 -20.3086 5.8227 -5.0945 -21.1073 6.28275 -4.5738 -21.8614 6.71796 
-3.95234 -22.5467 7.13411 -3.2314 -23.135 7.5379 -2.41913 -23.5943 7.93537 
-1.53444 -23.8936 8.33083 -0.607772 -24.0135 8.72519 0.325725 -23.9581 9.118 
1.23916 -23.756 9.51026 2.12105 -23.4494 9.90711 2.97298 -23.0822 10.3179 
3.80322 -22.6976 10.7563 4.62094 -22.3397 11.2386 5.43027 -22.0594 11.7821 
6.22307 -21.9172 12.3985 6.97227 -21.9749 13.0792 7.63669 -22.2678 13.7867 
8.18533 -22.7773 14.4705 8.61829 -23.4447 15.0997 8.95454 -24.2134 15.6699 
9.21245 -25.0459 16.1891 9.40254 -25.9201 16.6676 9.52768 -26.8226 17.1149 
9.58658 -27.74 17.5372 9.56866 -28.6812 17.9485 9.48148 -29.5752 18.3286 
9.28407 -30.518 18.7301 
LINES 1 65
64 0 1 2 3 4 5 6 7 8 9 10 11 12 13 14 15 16 17 18 19 20 21 22 23 24 25 26 27 28 29 30 31 32 33 34 35 36 37 38 39 40 41 42 43 44 45 46 47 48 49 50 51 52 53 54 55 56 57 58 59 60 61 62 63 

POINT_DATA 64
SCALARS MaximumInscribedSphereRadius float
LOOKUP_TABLE default
0.93 1.23007 1.46039 1.36029 1.26793 1.24235 1.24005 1.30325 1.63358 
1.72864 1.56832 1.44298 1.44814 1.53504 1.55 1.43273 1.13953 1.075 
1.41753 1.38527 1.24 1.36342 1.50475 1.35425 1.31612 1.4622 1.39867 
1.32516 1.48796 1.67332 1.79269 1.69636 1.69348 1.99184 2.07159 1.90002 
1.72412 1.62368 1.72274 1.74403 1.44052 1.3934 1.70987 1.78262 1.67891 
1.60463 1.55 1.55054 1.66299 2.00382 1.86712 1.3434 1.6195 1.92695 
2.02189 1.97676 1.87585 1.86 1.86 1.86 1.86 1.86088 1.98544 
2.17 
TEXTURE_COORDINATES TCoords 2 float
0 0 0.015873 0 0.031746 0 0.047619 0 0.0634921 
0 0.0793651 0 0.0952381 0 0.111111 0 0.126984 0 
0.142857 0 0.15873 0 0.174603 0 0.190476 0 0.206349 
0 0.222222 0 0.238095 0 0.253968 0 0.269841 0 
0.285714 0 0.301587 0 0.31746 0 0.333333 0 0.349206 
0 0.365079 0 0.380952 0 0.396825 0 0.412698 0 
0.428571 0 0.444444 0 0.460317 0 0.47619 0 0.492063 
0 0.507937 0 0.52381 0 0.539683 0 0.555556 0 
0.571429 0 0.587302 0 0.603175 0 0.619048 0 0.634921 
0 0.650794 0 0.666667 0 0.68254 0 0.698413 0 
0.714286 0 0.730159 0 0.746032 0 0.761905 0 0.777778 
0 0.793651 0 0.809524 0 0.825397 0 0.84127 0 
0.857143 0 0.873016 0 0.888889 0 0.904762 0 0.920635 
0 0.936508 0 0.952381 0 0.968254 0 0.984127 0 
1 0 
FIELD FieldData 4
Curvature 1 64 float
0.212303 0.265275 0.282728 0.223908 0.130127 0.055905 0.0211839 0.0286783 0.0553526 
0.116772 0.216913 0.295227 0.27879 0.208414 0.147448 0.111879 0.112699 0.166718 
0.335974 0.667717 0.605788 0.23872 0.0747663 0.0633342 0.117758 0.149604 0.14428 
0.110693 0.0685086 0.0514261 0.0526182 0.0475651 0.0352576 0.0300006 0.0444224 0.0644696 
0.0800685 0.0919683 0.103271 0.116828 0.132768 0.147475 0.154109 0.146886 0.124965 
0.0932693 0.0587682 0.0360459 0.0499239 0.0905139 0.138997 0.184932 0.212622 0.208676 
0.174664 0.132805 0.0982926 0.0754041 0.0643983 0.0618767 0.065022 0.0724279 0.0839473 
0.10015 
Torsion 1 64 float
0.00428791 0.00907616 0.0193348 0.0374345 0.0805053 0.261842 0.76501 -0.160498 -0.356453 
-0.246933 -0.170764 -0.157559 -0.153205 -0.157997 -0.189009 -0.243458 -0.241033 -0.156533 
-0.0943903 -0.0585245 -0.00471548 0.0879268 0.535392 0.418656 0.0928122 0.0682693 0.106836 
0.226579 0.521451 0.541559 0.188034 -0.0857519 -0.459272 -0.739841 -0.357438 -0.173086 
-0.127595 -0.118078 -0.114596 -0.106256 -0.0925382 -0.0769724 -0.0646022 -0.0592427 -0.0684784 
-0.11263 -0.291781 -0.782704 -0.536779 -0.161834 -0.072851 -0.0507837 -0.0442826 -0.0331792 
-0.0189457 -0.000251873 0.0312063 0.0758337 0.111882 0.121829 0.113951 0.101167 0.0887406 
0.0770463 
Abscissas 1 64 double
0 1.0431532501 2.0194353692 3.042878024 4.0553957308 5.0702039236 6.0847915943 7.0993858132 8.1139829029 
9.1285344744 10.142930472 11.156416807 12.169469968 13.183290383 14.197499964 15.211919278 16.226307916 17.240752619 
18.255301529 19.270099221 20.25513664 21.278744077 22.291800661 23.306520366 24.321036737 25.335290761 26.349466874 
27.363791238 28.378292055 29.392856398 30.407416498 31.421972281 32.436551383 33.45114629 34.465736216 35.480296777 
36.49482269 37.509305995 38.523760497 39.538168267 40.552522293 41.566811271 42.581028986 43.595230473 44.609521813 
45.623947508 46.638470086 47.65304706 48.667643945 49.682198088 50.696629232 51.710826363 52.724763746 53.738544072 
54.752548719 55.766830045 56.781270952 57.795770283 58.810259006 59.825286459 60.836928178 61.864206172 62.8396475 
63.883108634 
ParallelTransportNormals 3 64 double
0.54722024493 0 0.83698865198 0.41118320469 -0.0017277785642 0.91155108851 0.25156412734 -0.042416025559 0.9669107356 
0.10111380362 -0.11618705514 0.98806708625 0.0216149106 -0.16996780801 0.98521253538 -0.01301671887 -0.1964734944 0.98042273078 
-0.024937640383 -0.20572314635 0.97829244153 -0.035939791061 -0.21389180904 0.97619599745 -0.069981895465 -0.23762261125 0.96883333393 
-0.16151702851 -0.29860991852 0.94060850839 -0.33108364576 -0.41587862973 0.84701156122 -0.49943365889 -0.56168210009 0.65960536596 
-0.57245365953 -0.67407371576 0.46682055803 -0.57982608237 -0.73644231693 0.34850312485 -0.5717191964 -0.76554690945 0.29508488591 
-0.56811508486 -0.77248625646 0.28374325355 -0.57756901169 -0.75766251649 0.30391042734 -0.61184144296 -0.70566436774 0.35733436551 
-0.71447654062 -0.5264773408 0.46080894362 -0.9010631932 0.0055858741251 0.43365184177 -0.90838774055 0.4062481865 0.098965265495 
-0.87655101692 0.47973655058 -0.03887359995 -0.8743006473 0.48305817138 -0.047467685885 -0.88833250032 0.45883209004 0.01839788101 
-0.90187937267 0.40733419947 0.14384869518 -0.8952062717 0.32952238925 0.3000345415 -0.86468554004 0.24256271579 0.439866168 
-0.82948551024 0.17201700737 0.53137927837 -0.8097352432 0.13536191145 0.57096934143 -0.80766176585 0.13122441611 0.57485878666 
-0.81378977076 0.14560893242 0.56262265134 -0.81938247501 0.16165305165 0.54998240929 -0.82045984154 0.16532680876 0.54727752989 
-0.81563872731 0.14778026888 0.55936969765 -0.80344936415 0.10707200584 0.58566603522 -0.78219187071 0.04895533712 0.62111130433 
-0.7508141603 -0.017966011738 0.66026912628 -0.70937745451 -0.086098741041 0.69955030828 -0.65884024348 -0.14978506279 0.73722043416 
-0.60038663756 -0.20524272514 0.77292387026 -0.5357784097 -0.24939051088 0.80668821039 -0.46899849243 -0.27924498725 0.83789178967 
-0.40623733876 -0.29376862445 0.86525789212 -0.35557535098 -0.29552475315 0.88669684225 -0.32246389859 -0.29090907848 0.90077130403 
-0.30837051664 -0.28691560398 0.90696585418 -0.31220786561 -0.28840693156 0.90517826447 -0.33397542339 -0.29813544762 0.89418995266 
-0.3752136949 -0.31671530129 0.87115216873 -0.43945737771 -0.34191350043 0.83064575566 -0.52948555522 -0.36565507149 0.76546810222 
-0.6398390911 -0.37169621384 0.67264244745 -0.75131447982 -0.34405162483 0.56316519057 -0.84005379465 -0.28535627306 0.46139074495 
-0.89646746584 -0.2177160143 0.38593499427 -0.92879126776 -0.1573703389 0.33553145511 -0.94780976497 -0.1061180712 0.3006586177 
-0.9601200884 -0.05922250627 0.27324368356 -0.96862976067 -0.011264426444 0.24825289412 -0.97384945585 0.040386250201 0.22357591135 
-0.97526871229 0.10384105869 0.19511015701 -0.971631825 0.16624590301 0.16820789633 -0.95789998713 0.2559662362 0.13003422854 
-0.95789998713 0.2559662362 0.13003422854 
