# vtk DataFile Version 4.2
vtk output
ASCII
DATASET POLYDATA
POINTS 64 float
0 0 0 -0.805043 0.431547 0.508578 -1.67817 0.675705 0.865381 
-2.67825 0.672995 1.0761 -3.63653 0.350238 1.11603 -4.4949 -0.189872 1.09659 
-5.26931 -0.845096 1.10464 -5.99438 -1.55086 1.17799 -6.69888 -2.26867 1.31141 
-7.40428 -2.98256 1.46042 -8.11979 -3.69616 1.54987 -8.8281 -4.41776 1.47363 
-9.4484 -5.1395 1.12685 -9.85746 -5.83492 0.514267 -9.99946 -6.49007 -0.246089 
-9.90078 -7.10839 -1.04368 -9.61215 -7.69782 -1.81693 -9.17843 -8.2661 -2.53652 
-8.63349 -8.82159 -3.18739 -8.0015 -9.37562 -3.75522 -7.29725 -9.94545 -4.21028 
-6.52743 -10.5668 -4.46305 -5.86596 -11.2205 -4.13413 -5.73292 -11.6025 -3.21124 
-5.92263 -11.7528 -2.22437 -6.21717 -11.8295 -1.25651 -6.56062 -11.8888 -0.303771 
-6.92552 -11.9714 0.639346 -7.29073 -12.1223 1.57371 -7.63073 -12.3943 2.48978 
-7.91071 -12.8324 3.36034 -8.09826 -13.4327 4.15598 -8.18633 -14.1378 4.87991 
-8.18517 -14.892 5.55839 -8.10413 -15.6623 6.21363 -7.94558 -16.4308 6.85671 
-7.70423 -17.1879 7.48738 -7.36795 -17.9262 8.09654 -6.92235 -18.6342 8.67022 
-6.35886 -19.2933 9.1965 -5.68277 -19.8791 9.67461 -4.91252 -20.3682 10.1178 
-4.07445 -20.7433 10.549 -3.19711 -20.9947 10.9918 -2.30857 -21.1204 11.4647 
-1.43223 -21.1288 11.9756 -0.582212 -21.0384 12.5219 0.239706 -20.8754 13.0939 
1.04267 -20.6693 13.6789 1.8412 -20.4497 14.2651 2.64895 -20.2451 14.8439 
3.47423 -20.0844 15.4117 4.31671 -19.9996 15.9705 5.16447 -20.0273 16.5268 
5.9886 -20.2092 17.0892 6.73479 -20.5868 17.6624 7.32067 -21.1802 18.2383 
7.67038 -21.9514 18.7951 7.77441 -22.8138 19.318 7.68729 -23.6941 19.8148 
7.47381 -24.5547 20.303 7.17713 -25.3934 20.8152 6.85589 -26.1545 21.3304 
6.51205 -26.9039 21.9734 
LINES 1 65
64 0 1 2 3 4 5 6 7 8 9 10 11 12 13 14 15 16 17 18 19 20 21 22 23 24 25 26 27 28 29 30 31 32 33 34 35 36 37 38 39 40 41 42 43 44 45 46 47 48 49 50 51 52 53 54 55 56 57 58 59 60 61 62 63 

POINT_DATA 64
SCALARS MaximumInscribedSphereRadius float
LOOKUP_TABLE default
1.64 1.64 1.51633 1.04143 1.01046 1.33399 1.86464 2.20572 2.2989 
2.05732 1.74595 1.55932 1.65408 1.86157 2.12468 2.58571 2.68517 2.26573 
2.18742 2.35084 2.55715 2.73951 2.60103 2.59852 3.18001 2.85923 2.57047 
2.74252 2.99251 3.24549 2.7894 2.57634 2.74682 2.42127 2.11046 2.34202 
2.46 2.48616 2.6778 2.75533 2.28173 2.05 2.10581 2.44294 2.83729 
3.09333 2.81427 2.18312 2.05 2.11308 2.3512 2.58924 2.83895 3.28156 
3.63684 3.42062 3.56163 3.60697 3.04554 3.05485 3.19274 3.02735 3.17185 
3.69 
TEXTURE_COORDINATES TCoords 2 float
0 0 0.015873 0 0.031746 0 0.047619 0 0.0634921 
0 0.0793651 0 0.0952381 0 0.111111 0 0.126984 0 
0.142857 0 0.15873 0 0.174603 0 0.190476 0 0.206349 
0 0.222222 0 0.238095 0 0.253968 0 0.269841 0 
0.285714 0 0.301587 0 0.31746 0 0.333333 0 0.349206 
0 0.365079 0 0.380952 0 0.396825 0 0.412698 0 
0.428571 0 0.444444 0 0.460317 0 0.47619 0 0.492063 
0 0.507937 0 0.52381 0 0.539683 0 0.555556 0 
0.571429 0 0.587302 0 0.603175 0 0.619048 0 0.634921 
0 0.650794 0 0.666667 0 0.68254 0 0.698413 0 
0.714286 0 0.730159 0 0.746032 0 0.761905 0 0.777778 
0 0.793651 0 0.809524 0 0.825397 0 0.84127 0 
0.857143 0 0.873016 0 0.888889 0 0.904762 0 0.920635 
0 0.936508 0 0.952381 0 0.968254 0 0.984127 0 
1 0 
FIELD FieldData 4
Curvature 1 64 float
0.191962 0.252499 0.308975 0.295669 0.207004 0.126715 0.0855493 0.0547649 0.0273641 
0.0633972 0.146811 0.237041 0.280276 0.259602 0.213181 0.168176 0.132977 0.108258 
0.101583 0.130993 0.237526 0.548464 0.743234 0.379 0.148629 0.0620821 0.0336501 
0.06464 0.112189 0.154846 0.166279 0.135895 0.0976798 0.072958 0.0641412 0.068519 
0.08088 0.0970488 0.111211 0.116745 0.11378 0.108869 0.106448 0.105811 0.101297 
0.0880431 0.066941 0.0407705 0.0150303 0.0171724 0.0397248 0.0643104 0.0938091 0.131084 
0.176597 0.221445 0.241746 0.21861 0.162564 0.107439 0.0718667 0.0694742 0.11167 
0.214278 
Torsion 1 64 float
-0.0185936 -0.0380694 -0.0834269 -0.164333 -0.274146 -0.376035 -0.377754 -0.346697 -0.620415 
-0.235974 -0.0979046 -0.144131 -0.188213 -0.179542 -0.137855 -0.107094 -0.102826 -0.126002 
-0.157914 -0.138474 -0.092097 -0.06397 -0.0370468 -0.0233586 -0.0482347 -0.327759 -0.758115 
-0.251252 -0.0780755 -0.0602146 -0.0948744 -0.156995 -0.207407 -0.209664 -0.122956 -0.0104794 
0.0261642 0.00529465 -0.0528561 -0.121131 -0.182566 -0.217021 -0.204842 -0.159563 -0.103175 
-0.0586404 -0.0136139 0.0584382 0.411784 0.333935 0.155835 0.147504 0.135111 0.115268 
0.0963913 0.085949 0.0852888 0.0938779 0.118555 0.183191 0.327707 0.373894 0.221236 
0.119446 
Abscissas 1 64 double
0 1.0454562121 2.0197650112 3.0418066665 4.0537649407 5.0681084362 6.0825501369 7.0970500719 8.1116336792 
9.1262406428 10.140722471 11.15474146 12.167626451 13.180639778 14.194306929 15.208314954 16.222534917 17.236865621 
18.251348604 19.265636048 20.279421255 21.3004674 22.286949127 23.294569412 24.310699023 25.32528844 26.339769555 
27.354386499 28.368873616 29.383161677 30.397172873 31.411316238 32.425726563 33.440233038 34.454761635 35.469288524 
36.483795514 37.498249466 38.512638767 39.526980552 40.541318826 41.555687944 42.570072035 43.584460093 44.598850163 
45.61326893 46.627751597 47.64230486 48.656903227 49.671510599 50.686104398 51.700662858 52.715153234 53.729528882 
54.743729455 55.757615786 56.771023739 57.784416955 58.798368134 59.812890688 60.825081545 61.851669227 62.825263864 
63.870885743 
ParallelTransportNormals 3 64 double
0.53408984859 0 0.8454277223 0.39125614084 0.056867903616 0.91852309377 0.20527925208 0.081465333281 0.97530704301 
0.024343690371 0.05124513439 0.9983893634 -0.036648600493 0.022285568711 0.99907969327 -0.019251659991 0.035021542352 0.99920111347 
0.02640329121 0.076459626142 0.99672302661 0.067767003482 0.11764954467 0.99074023734 0.078610528718 0.12866074335 0.98856805426 
0.037413759117 0.087273074576 0.99548160258 -0.077829220589 -0.028891232758 0.99654799638 -0.2603281194 -0.22715649749 0.93841845458 
-0.42054339254 -0.44772958 0.78910169065 -0.48835989186 -0.61391359341 0.62017313377 -0.49185441899 -0.71653522594 0.49462763823 
-0.47245706996 -0.77702461238 0.41595320505 -0.45032792267 -0.81249134838 0.37021962518 -0.4336002639 -0.83169959256 0.34679475036 
-0.42776248204 -0.83720293968 0.34074990353 -0.44131105678 -0.82580788381 0.35112090538 -0.50202038437 -0.77675085436 0.38030730197 
-0.73989163667 -0.56447175803 0.36596721217 -0.96013591727 -0.27857607897 0.023116846522 -0.95322324103 -0.21192630575 -0.21552886976 
-0.93235413567 -0.20214552369 -0.2997548214 -0.9179005319 -0.19906613706 -0.34326562106 -0.9083849086 -0.19716037251 -0.36873384079 
-0.90235740865 -0.19523238146 -0.38423355434 -0.89962904768 -0.19359609425 -0.39139255085 -0.90085748986 -0.19500323873 -0.38785244597 
-0.90604225282 -0.20651805629 -0.36937478059 -0.91170244789 -0.23332365768 -0.33816965753 -0.91401113351 -0.27208755966 -0.30091860644 
-0.91154469151 -0.31783411377 -0.26089797143 -0.90361294107 -0.3687768094 -0.21791584975 -0.88876152462 -0.42543476445 -0.17061129373 
-0.8637983567 -0.49005742574 -0.11703041675 -0.82374403826 -0.56414600936 -0.056436154708 -0.76362252775 -0.64559882768 0.0090988361361 
-0.68266961851 -0.72689977417 0.074692103143 -0.58579247082 -0.79889999619 0.13640372876 -0.48184711858 -0.85475595687 0.19291347416 
-0.37931931655 -0.89219904651 0.24514835815 -0.28549620264 -0.91223461064 0.29380254156 -0.20590345275 -0.91828336498 0.33817071094 
-0.14425395034 -0.91535319021 0.37592464003 -0.10136127731 -0.90885222715 0.40461527488 -0.07611256113 -0.90311773757 0.42259345726 
-0.067223444017 -0.90075499702 0.42909374723 -0.074814025124 -0.90275996165 0.42358861326 -0.10160307833 -0.90875271329 0.40477811276 
-0.15312537518 -0.91633621819 0.36997372165 -0.2366286755 -0.91915946902 0.31488528141 -0.35867144613 -0.90386011879 0.23322023795 
-0.51877179838 -0.84680824981 0.11743768244 -0.6944521066 -0.71873007169 -0.034108000346 -0.83054663619 -0.5202357385 -0.19886442994 
-0.88855438626 -0.31142431923 -0.33687682625 -0.89008591285 -0.15401965574 -0.42898136718 -0.87343501505 -0.057639238832 -0.48351731369 
-0.85883898832 -0.0089577814184 -0.51216730694 -0.85284989959 0.0065121236845 -0.52211554374 -0.86781257405 -0.027520118281 -0.49612899473 
-0.86781257405 -0.027520118281 -0.49612899473 
