# vtk DataFile Version 4.2
vtk output
ASCII
DATASET POLYDATA
POINTS 64 float
0 0 0 -0.987381 0.327539 0.100295 -1.94829 0.321299 0.294944 
-2.85682 -0.0271527 0.577176 -3.63693 -0.596167 0.888043 -4.3591 -1.24347 1.18604 
-5.1001 -1.88911 1.4374 -5.90128 -2.48971 1.59833 -6.75991 -3.02855 1.62048 
-7.63085 -3.52621 1.47259 -8.44253 -4.04046 1.14943 -9.10024 -4.63854 0.663811 
-9.48888 -5.34967 0.0577034 -9.55272 -6.1245 -0.590971 -9.34485 -6.89333 -1.21776 
-8.94058 -7.62462 -1.79156 -8.37792 -8.31152 -2.28315 -7.6418 -8.94572 -2.599 
-6.86963 -9.26148 -2.17076 -6.67522 -9.06466 -1.19449 -6.71004 -8.78709 -0.219594 
-6.82793 -8.52532 0.7535 -6.98615 -8.32908 1.73611 -7.16404 -8.26682 2.73232 
-7.33934 -8.46335 3.70966 -7.47655 -9.04025 4.52681 -7.55846 -9.89558 5.06257 
-7.60477 -10.8499 5.40269 -7.62815 -11.8315 5.65826 -7.62319 -12.8188 5.89162 
-7.57124 -13.802 6.1366 -7.44215 -14.7699 6.41104 -7.1975 -15.7044 6.7201 
-6.80017 -16.5744 7.05645 -6.23168 -17.3379 7.40472 -5.50651 -17.9556 7.75122 
-4.66553 -18.4059 8.09448 -3.7568 -18.688 8.44497 -2.82206 -18.8143 8.81747 
-1.89268 -18.8047 9.2235 -0.988642 -18.6836 9.66732 -0.119142 -18.4786 10.148 
0.714846 -18.2189 10.664 1.51735 -17.9366 11.2168 2.29368 -17.6689 11.8126 
3.0453 -17.4598 12.4609 3.76381 -17.3597 13.1695 4.42661 -17.4184 13.9344 
5.0029 -17.6662 14.7305 5.4718 -18.1019 15.5165 5.83424 -18.7001 16.2504 
6.10699 -19.4277 16.902 6.30951 -20.2544 17.4533 6.45206 -21.1569 17.8935 
6.53025 -22.1172 18.2099 6.52668 -23.1165 18.3812 6.42201 -24.1248 18.3849 
6.21528 -25.1036 18.2202 5.93276 -26.0304 17.9206 5.61353 -26.9132 17.5361 
5.29577 -27.78 17.1138 5.01666 -28.6639 16.6974 4.81838 -29.5566 16.3416 
4.75207 -30.5689 16.0887 
LINES 1 65
64 0 1 2 3 4 5 6 7 8 9 10 11 12 13 14 15 16 17 18 19 20 21 22 23 24 25 26 27 28 29 30 31 32 33 34 35 36 37 38 39 40 41 42 43 44 45 46 47 48 49 50 51 52 53 54 55 56 57 58 59 60 61 62 63 

POINT_DATA 64
SCALARS MaximumInscribedSphereRadius float
LOOKUP_TABLE default
1.24 1.09004 0.977131 1.14728 1.25246 1.30886 1.71981 2.02102 1.84014 
2.01474 2.31431 2.22587 1.95191 1.60422 1.42268 1.41974 1.7924 1.69087 
1.68146 1.55923 1.43381 1.88506 2.08343 1.89001 1.86 2.09357 2.42048 
2.08244 1.87916 1.86579 1.86009 1.86 1.86 1.86 1.86 1.83333 
1.77767 1.80237 1.85355 1.86 1.92259 2.1004 2.06245 1.94538 2.18031 
2.36879 1.81726 1.56109 1.67514 2.13225 2.26169 1.91537 2.16915 2.39909 
2.27262 2.25813 2.44861 2.63842 2.69061 2.36151 2.25805 2.43796 2.73946 
3.1 
TEXTURE_COORDINATES TCoords 2 float
0 0 0.015873 0 0.031746 0 0.047619 0 0.0634921 
0 0.0793651 0 0.0952381 0 0.111111 0 0.126984 0 
0.142857 0 0.15873 0 0.174603 0 0.190476 0 0.206349 
0 0.222222 0 0.238095 0 0.253968 0 0.269841 0 
0.285714 0 0.301587 0 0.31746 0 0.333333 0 0.349206 
0 0.365079 0 0.380952 0 0.396825 0 0.412698 0 
0.428571 0 0.444444 0 0.460317 0 0.47619 0 0.492063 
0 0.507937 0 0.52381 0 0.539683 0 0.555556 0 
0.571429 0 0.587302 0 0.603175 0 0.619048 0 0.634921 
0 0.650794 0 0.666667 0 0.68254 0 0.698413 0 
0.714286 0 0.730159 0 0.746032 0 0.761905 0 0.777778 
0 0.793651 0 0.809524 0 0.825397 0 0.84127 0 
0.857143 0 0.873016 0 0.888889 0 0.904762 0 0.920635 
0 0.936508 0 0.952381 0 0.968254 0 0.984127 0 
1 0 
FIELD FieldData 4
Curvature 1 64 float
0.208253 0.270053 0.277327 0.178438 0.0699567 0.0355703 0.0819845 0.114448 0.122382 
0.128712 0.165458 0.220171 0.236761 0.192443 0.140597 0.134989 0.217758 0.660315 
0.765049 0.231505 0.0863523 0.0526922 0.107761 0.19776 0.296877 0.291166 0.177745 
0.0849479 0.033087 0.0342894 0.0602825 0.0899482 0.118588 0.14031 0.147716 0.140785 
0.125393 0.109955 0.0966435 0.082997 0.067624 0.0512002 0.0367868 0.0382677 0.0594884 
0.0920709 0.124627 0.146131 0.149534 0.139782 0.124054 0.109669 0.101291 0.103544 
0.118051 0.135751 0.139312 0.114018 0.073268 0.0323632 0.0313426 0.0741946 0.12548 
0.170582 
Torsion 1 64 float
-0.00144458 -0.0036232 -0.0104715 -0.0529595 -0.442619 -1.08695 -0.00610756 0.138771 0.278612 
0.359539 0.247749 0.107007 0.0237508 0.0114028 0.0411889 0.0954313 0.0983491 0.0902048 
0.0690174 0.0794735 0.256257 0.426551 0.122311 0.0348733 0.00189745 -0.00953501 0.00709783 
0.09356 0.441893 0.303373 -0.00331456 -0.0504741 -0.0454636 -0.0180392 0.0238019 0.0706633 
0.106627 0.12317 0.111466 0.0892292 0.0983588 0.177918 0.39816 0.453924 0.201605 
0.0777136 0.0322841 0.0263505 0.0466454 0.0739234 0.0874405 0.0757907 0.0266517 -0.0208087 
-0.0373813 -0.0246259 -0.0029685 0.0283712 0.101177 0.744925 0.764677 0.11287 0.0424941 
0.0197739 
Abscissas 1 64 double
0 1.0451135407 2.0255548447 3.0387253567 4.0531161866 5.0676749891 6.0821311467 7.096276589 8.1102255559 
9.1241690003 10.137921394 11.150897989 12.162882457 13.175407546 14.188907302 15.202544859 16.217475376 17.239163922 
18.176903377 19.191611001 20.205848385 21.220409584 22.234838502 23.248718632 24.26092455 25.270561323 26.283149232 
27.297323541 28.311887254 29.326469604 30.340984604 31.355373691 32.369526459 33.383382179 34.397025365 35.41067945 
36.424493896 37.438494971 38.452627724 39.466875746 40.481229869 41.495677723 42.510204283 43.524761936 44.539281182 
45.553670707 46.567780198 47.581542838 48.595136142 49.608794394 50.622635419 51.636666526 52.650802269 53.664961425 
54.679044324 55.692941515 56.706651959 57.720494236 58.734723647 59.749146836 60.764366509 61.780510543 62.761777746 
63.807223983 
ParallelTransportNormals 3 64 double
0.10105666061 0 0.99488067191 0.19860964964 -0.015560982331 0.9799551331 0.29575958842 0.0025711121618 0.95525894669 
0.34980744519 0.031930450819 0.93627730807 0.35399004363 0.035316876606 0.93458213509 0.31828807989 0.003768395553 0.94798654916 
0.23953576907 -0.059870309418 0.96903981414 0.11609698161 -0.14460894677 0.98265443742 -0.031765009161 -0.23322035704 0.97190495896 
-0.17074947242 -0.31680402704 0.93299508365 -0.28056251469 -0.39993869023 0.87254439395 -0.35141770316 -0.48860863323 0.79860328163 
-0.37797357477 -0.57579984097 0.72497622024 -0.37152970708 -0.64492308414 0.66786218062 -0.35292774009 -0.69051047453 0.6313772999 
-0.33652681278 -0.71456880621 0.61330345301 -0.34396410556 -0.70699932694 0.61793255764 -0.5642698146 -0.57037871789 0.59688164196 
-0.79985031486 -0.53724680524 0.26759174891 -0.81083082975 -0.56990052623 0.13329199427 -0.80517501612 -0.58987713602 0.061140476118 
-0.79554114516 -0.60585799435 -0.0070976786908 -0.77965913033 -0.61807069302 -0.10059949761 -0.75167461976 -0.60741475999 -0.25696804345 
-0.71275591205 -0.51102069934 -0.48045484146 -0.68623687487 -0.33779235903 -0.64418574476 -0.67770909936 -0.21746248397 -0.70243892597 
-0.67601990895 -0.17054633753 -0.71687588149 -0.67604007056 -0.17270104656 -0.71634082078 -0.67491073914 -0.21180166265 -0.70684902907 
-0.66820583295 -0.28405900871 -0.68761285938 -0.64804328594 -0.38668624419 -0.65613538854 -0.60347207903 -0.51195644809 -0.61132809938 
-0.52511830251 -0.64447645908 -0.5557885048 -0.41352912965 -0.76362229665 -0.49585748658 -0.2794885294 -0.85502753559 -0.43682270466 
-0.13718854453 -0.91458921375 -0.38040225202 0.0020417546397 -0.94543733686 -0.3257975956 0.12900732549 -0.95339016109 -0.27277153572 
0.23618486985 -0.94575201383 -0.22309154082 0.31894985225 -0.9305314887 -0.17995038283 0.37571123473 -0.91504552561 -0.14674043122 
0.40589209704 -0.90505001227 -0.12702787429 0.40803030453 -0.90430523691 -0.12547234387 0.38112136631 -0.91270209484 -0.14738178389 
0.32509826859 -0.92448564728 -0.19909144568 0.24558019711 -0.92686699533 -0.28391537429 0.15710285407 -0.90498272804 -0.39537950781 
0.076184872444 -0.85206289448 -0.51786551252 0.0119725325 -0.77220322421 -0.63526281095 -0.035091501185 -0.67397463697 -0.73792057517 
-0.068400583782 -0.56504203385 -0.82222190442 -0.091702797819 -0.44827391471 -0.88918001229 -0.10702723859 -0.31895877777 -0.94170614752 
-0.11279518384 -0.1674618376 -0.97940480877 -0.10338365568 0.0070876553204 -0.99461630033 -0.076121932705 0.18105255453 -0.98052303586 
-0.040830666329 0.31851880436 -0.94703676167 -0.012679973753 0.40317619298 -0.91503452158 -2.581095964e-05 0.43793320773 -0.89900751104 
-0.0036989314178 0.42715970513 -0.90416862599 -0.01803649506 0.3736402028 -0.92739834143 -0.036295075022 0.24448764927 -0.96897288759 
-0.036295075022 0.24448764927 -0.96897288759 
