# vtk DataFile Version 4.2
vtk output
ASCII
DATASET POLYDATA
POINTS 64 float
0 0 0 -0.679435 0.567826 -0.552059 -1.4322 1.17885 -0.679716 
-2.23126 1.78681 -0.495079 -2.98508 2.29405 -0.0470417 -3.68698 2.67008 0.58078 
-4.32639 2.87087 1.34159 -4.89005 2.83822 2.18334 -5.36518 2.53151 3.02423 
-5.76437 1.98488 3.7791 -6.13332 1.29479 4.42461 -6.52643 0.557116 4.99964 
-6.98704 -0.155231 5.55602 -7.54275 -0.794658 6.11389 -8.20684 -1.34118 6.65158 
-8.98159 -1.80026 7.11817 -9.85528 -2.19529 7.44842 -10.7916 -2.56106 7.58071 
-11.7258 -2.94067 7.47579 -12.5668 -3.38178 7.12194 -13.1862 -3.92334 6.53159 
-13.4479 -4.55634 5.7864 -13.3264 -5.21924 5.03011 -12.9166 -5.86307 4.3626 
-12.3175 -6.47564 3.8202 -11.5851 -7.05632 3.42677 -10.7509 -7.59694 3.22746 
-9.85398 -8.06052 3.31598 -9.01951 -8.34377 3.80998 -8.42955 -8.36536 4.63184 
-8.08633 -8.19401 5.57025 -7.9012 -7.92156 6.52966 -7.81297 -7.60817 7.49053 
-7.78745 -7.30491 8.45837 -7.80779 -7.07576 9.44636 -7.87149 -7.01333 10.4564 
-7.9878 -7.21083 11.4434 -8.15969 -7.67454 12.3282 -8.37154 -8.33238 13.0703 
-8.59953 -9.12124 13.6655 -8.81644 -10.0053 14.1127 -8.99331 -10.9597 14.4069 
-9.10484 -11.9578 14.5484 -9.13358 -12.9717 14.5553 -9.06684 -13.9797 14.4633 
-8.88808 -14.9678 14.3195 -8.56864 -15.9205 14.181 -8.07004 -16.8011 14.1193 
-7.38125 -17.5397 14.2021 -6.55801 -18.0823 14.4377 -5.67264 -18.442 14.7773 
-4.76328 -18.6619 15.1694 -3.84228 -18.777 15.5789 -2.91255 -18.8095 15.9837 
-1.97533 -18.7748 16.3706 -1.0336 -18.6892 16.7383 -0.0915345 -18.5743 17.0971 
0.846154 -18.4573 17.4665 1.77282 -18.3667 17.8695 2.67722 -18.3274 18.3279 
3.53978 -18.3565 18.8572 4.34283 -18.4726 19.4845 5.02068 -18.6602 20.1584 
5.60568 -18.9556 20.9729 
LINES 1 65
64 0 1 2 3 4 5 6 7 8 9 10 11 12 13 14 15 16 17 18 19 20 21 22 23 24 25 26 27 28 29 30 31 32 33 34 35 36 37 38 39 40 41 42 43 44 45 46 47 48 49 50 51 52 53 54 55 56 57 58 59 60 61 62 63 

POINT_DATA 64
SCALARS MaximumInscribedSphereRadius float
LOOKUP_TABLE default
1.116 0.863978 0.75662 0.869263 0.752334 0.69216 0.906997 1.13186 0.96785 
0.729475 0.923326 1.1616 1.2772 1.33795 1.50893 1.66226 1.7546 1.78446 
1.90995 1.88696 1.68603 1.37816 1.2772 1.39739 1.66447 1.71863 1.61097 
1.34566 1.26044 1.22568 1.14481 1.22242 1.30947 1.37065 1.21673 1.16674 
1.23377 1.24 1.24 1.36544 1.49205 1.33011 1.56665 2.09802 1.6238 
1.38936 1.74459 1.86 1.75514 1.57975 1.55884 1.55 1.50542 1.28193 
1.21539 1.41598 1.25581 1.02787 1.16325 1.24 1.24569 1.26679 1.26256 
1.24 
TEXTURE_COORDINATES TCoords 2 float
0 0 0.015873 0 0.031746 0 0.047619 0 0.0634921 
0 0.0793651 0 0.0952381 0 0.111111 0 0.126984 0 
0.142857 0 0.15873 0 0.174603 0 0.190476 0 0.206349 
0 0.222222 0 0.238095 0 0.253968 0 0.269841 0 
0.285714 0 0.301587 0 0.31746 0 0.333333 0 0.349206 
0 0.365079 0 0.380952 0 0.396825 0 0.412698 0 
0.428571 0 0.444444 0 0.460317 0 0.47619 0 0.492063 
0 0.507937 0 0.52381 0 0.539683 0 0.555556 0 
0.571429 0 0.587302 0 0.603175 0 0.619048 0 0.634921 
0 0.650794 0 0.666667 0 0.68254 0 0.698413 0 
0.714286 0 0.730159 0 0.746032 0 0.761905 0 0.777778 
0 0.793651 0 0.809524 0 0.825397 0 0.84127 0 
0.857143 0 0.873016 0 0.888889 0 0.904762 0 0.920635 
0 0.936508 0 0.952381 0 0.968254 0 0.984127 0 
1 0 
FIELD FieldData 4
Curvature 1 64 float
0.321261 0.339747 0.287767 0.223646 0.188698 0.189063 0.218778 0.240451 0.219171 
0.15322 0.0792752 0.0655115 0.0981103 0.118376 0.129761 0.148478 0.172878 0.195794 
0.224743 0.280359 0.332792 0.321988 0.257335 0.191941 0.1633 0.187118 0.264617 
0.379935 0.408196 0.283747 0.164097 0.0892451 0.0624698 0.0939334 0.160088 0.224198 
0.240268 0.207209 0.168068 0.14691 0.142871 0.14103 0.130602 0.112707 0.103754 
0.125954 0.178323 0.231622 0.236377 0.187264 0.1322 0.0922423 0.0690961 0.0575806 
0.0461241 0.0281291 0.0190825 0.0379715 0.0652218 0.0890717 0.111723 0.131868 0.146112 
0.150941 
Torsion 1 64 float
-0.0200889 -0.0395325 -0.067362 -0.0999117 -0.128562 -0.141479 -0.137874 -0.142881 -0.168584 
-0.258335 -0.674146 -0.774723 -0.058485 0.176221 0.299414 0.291373 0.258139 0.242355 
0.221981 0.165025 0.111624 0.0881923 0.0869735 0.104257 0.110608 0.080372 0.0380797 
0.000185711 -0.0228438 -0.014777 0.037071 0.24512 0.502849 0.283104 0.0759098 -0.00769709 
-0.0268621 0.00674139 0.0541827 0.106176 0.109491 0.104958 0.135595 0.231964 0.344489 
0.306563 0.182035 0.0803866 0.011958 -0.0365334 -0.0865531 -0.138093 -0.166633 -0.121645 
-0.0130586 0.292883 0.565833 0.18215 -0.00222414 -0.0302512 -0.0345056 -0.035921 -0.0291051 
-0.0205269 
Abscissas 1 64 double
0 1.0434692001 2.021375512 3.0422539755 4.055308878 5.0693238302 6.0832203098 7.0967932813 8.110155233 
9.1240565495 10.138469491 11.153042494 12.167512039 13.181866884 14.196168136 15.210414423 16.224536661 17.238477601 
18.252226068 19.265672469 20.278315815 21.290489364 22.303493755 23.317381153 24.331461761 25.345565684 26.359411915 
27.37295427 28.38321102 29.395123622 30.408912345 31.423297143 32.437827691 33.452386506 34.466807372 35.480783326 
36.494016617 37.507671838 38.521737914 39.535927679 40.55015131 41.564353817 42.578589113 43.592911408 44.607311562 
45.621726856 46.636011325 47.649869449 48.663188511 49.676918635 50.691095788 51.705510621 52.720015901 53.734551278 
54.74910315 55.763680631 56.778289167 57.792877355 58.807446152 59.822138248 60.83455084 61.860162509 62.834274381 
63.879672324 
ParallelTransportNormals 3 64 double
-0.63060463619 0 0.77610424095 -0.34490040281 -0.23505301334 0.90873196987 -0.11068915771 -0.41915797229 0.90114066861 
0.1003800261 -0.57070113008 0.81499942975 0.2629431321 -0.66934209688 0.6948683808 0.4123657435 -0.73359922647 0.54017281356 
0.55888530231 -0.75407265877 0.34499513642 0.69093471406 -0.71093055696 0.1310990621 0.78259154991 -0.62148297076 -0.036185398399 
0.8265484369 -0.55071460266 -0.1163232903 0.83190328278 -0.54068192962 -0.12489987623 0.80386273302 -0.58830826917 -0.08773874223 
0.74464620927 -0.66706927344 -0.022816823829 0.6599124286 -0.74945056349 0.053286391046 0.55976046588 -0.81944640067 0.1231901671 
0.4590608586 -0.87162200394 0.17186683901 0.38049704769 -0.90464374806 0.19194188128 0.35083131426 -0.9164655101 0.19237556428 
0.38702648219 -0.89973063558 0.2017307252 0.48108476786 -0.83643497697 0.26255280504 0.57409479853 -0.71243423595 0.40355002384 
0.59090758303 -0.55724614383 0.58335663492 0.53500480609 -0.41970246229 0.73322554552 0.44560519586 -0.30836454108 0.84044471515 
0.33132469536 -0.20595111493 0.92076494531 0.1738233795 -0.093220439208 0.98035472277 -0.072607730308 0.049726265621 0.99612018151 
-0.44429922519 0.2099970191 0.8709187393 -0.77611353915 0.28104784989 0.56449967265 -0.92165951335 0.25772319017 0.29003878826 
-0.96773864704 0.21902454548 0.1245397908 -0.98144434191 0.18965288087 0.028262846941 -0.98475293074 0.17171762848 -0.027833818788 
-0.98483335301 0.16345488444 -0.058187348672 -0.98424993314 0.16143124079 -0.07205569795 -0.98322645452 0.162199639 -0.083408729993 
-0.98036389338 0.168766996 -0.10200165494 -0.97639038819 0.18037995679 -0.11884814276 -0.9743245465 0.18717465646 -0.1251292375 
-0.97652571883 0.17889756997 -0.11997157968 -0.98294621374 0.1489219426 -0.10788417817 -0.99061071484 0.097034760164 -0.096305072392 
-0.9954518693 0.027592985985 -0.091182251772 -0.99385937455 -0.057146288796 -0.094751492294 -0.98097827699 -0.161884101 -0.10712216357 
-0.94586058504 -0.29868583261 -0.12702175823 -0.86514902414 -0.47955616615 -0.14677550725 -0.71558572634 -0.68349842309 -0.14410750812 
-0.52634615988 -0.84385408981 -0.10425926859 -0.35999963387 -0.9317031949 -0.048264067589 -0.23597416736 -0.97175660937 0.0022988001959 
-0.14275246824 -0.98881833936 0.043128002092 -0.067892888461 -0.99478875633 0.076065011523 -0.0055260376152 -0.99471632894 0.10251286678 
0.042592256215 -0.99163564363 0.12183862277 0.070083179394 -0.98871020666 0.13244045914 0.071062262903 -0.98858943531 0.13281973942 
0.044011685515 -0.99160140157 0.12161263069 -0.0063684491285 -0.99517471766 0.097911818424 -0.071328009938 -0.99554908153 0.061598224506 
-0.14903041385 -0.98880274714 0.0076852451172 -0.21743196292 -0.97465687219 -0.052605351417 -0.28882805277 -0.94763502975 -0.13625786701 
-0.28882805277 -0.94763502975 -0.13625786701 
