# vtk DataFile Version 4.2
vtk output
ASCII
DATASET POLYDATA
POINTS 64 float
0 0 0 -0.635772 0.153178 0.81955 -1.32718 0.308656 1.48853 
-2.13377 0.461457 2.09425 -3.01823 0.581607 2.57606 -3.97094 0.643916 2.91722 
-4.96785 0.622138 3.10119 -5.97355 0.496165 3.13091 -6.95489 0.258997 3.03474 
-7.89202 -0.083195 2.85166 -8.77859 -0.515314 2.61438 -9.61623 -1.01837 2.3415 
-10.4091 -1.57156 2.03388 -11.1578 -2.15278 1.67236 -11.85 -2.74074 1.22059 
-12.4499 -3.31786 0.641661 -12.9006 -3.87537 -0.0750469 -13.1488 -4.41387 -0.897123 
-13.1756 -4.94184 -1.76214 -13.002 -5.47263 -2.60845 -12.664 -6.02121 -3.39154 
-12.1937 -6.60332 -4.07591 -11.6176 -7.23853 -4.61695 -10.9687 -7.95095 -4.92399 
-10.3694 -8.73078 -4.71548 -10.2743 -9.16271 -3.81805 -10.5693 -9.17222 -2.84882 
-10.9847 -9.00966 -1.9381 -11.4416 -8.76136 -1.06696 -11.8965 -8.47892 -0.205175 
-12.3081 -8.22196 0.685672 -12.6095 -8.10673 1.64666 -12.6882 -8.34876 2.62184 
-12.5551 -8.9698 3.40994 -12.3468 -9.76803 3.99944 -12.1279 -10.6395 4.47043 
-11.9149 -11.5462 4.87255 -11.7049 -12.4701 5.23549 -11.4849 -13.3993 5.57842 
-11.2355 -14.3235 5.91466 -10.932 -15.2302 6.25378 -10.5474 -16.1011 6.60402 
-10.056 -16.9074 6.97412 -9.44075 -17.6068 7.37472 -8.70571 -18.1487 7.81492 
-7.88296 -18.4967 8.2942 -7.01875 -18.6537 8.8009 -6.14759 -18.6593 9.32043 
-5.28318 -18.5654 9.84314 -4.42593 -18.4209 10.3663 -3.57176 -18.272 10.8932 
-2.71922 -18.165 11.4326 -1.87638 -18.1504 11.9968 -1.07017 -18.285 12.5968 
-0.355972 -18.623 13.2312 0.193056 -19.1833 13.8723 0.539035 -19.92 14.4762 
0.708023 -20.7608 15.0174 0.754462 -21.654 15.4959 0.734334 -22.573 15.9252 
0.708667 -23.5035 16.329 0.769548 -24.4266 16.748 1.08401 -25.2342 17.2321 
1.91782 -25.4966 17.7801 
LINES 1 65
64 0 1 2 3 4 5 6 7 8 9 10 11 12 13 14 15 16 17 18 19 20 21 22 23 24 25 26 27 28 29 30 31 32 33 34 35 36 37 38 39 40 41 42 43 44 45 46 47 48 49 50 51 52 53 54 55 56 57 58 59 60 61 62 63 

POINT_DATA 64
SCALARS MaximumInscribedSphereRadius float
LOOKUP_TABLE default
1.55 1.40302 1.28938 1.25394 1.24 1.24 1.24 1.26085 1.39175 
1.54862 1.55 1.55 1.55 1.55 1.54957 1.48049 1.40089 1.3888 
1.35911 1.27951 1.24 1.24 1.37377 1.69925 2.43129 2.43958 2.12925 
1.96746 2.30876 2.4786 2.48314 3.06128 2.96364 2.14016 1.95181 1.862 
1.86109 2.02624 2.33793 2.30526 2.0023 1.97003 2.14489 1.8545 1.69747 
1.99022 2.08672 1.92762 1.87513 1.84554 1.72494 1.56161 2.18168 2.65765 
2.59241 2.23116 1.68975 1.68009 1.8635 2.14666 2.46593 2.11253 2.07637 
2.48 
TEXTURE_COORDINATES TCoords 2 float
0 0 0.015873 0 0.031746 0 0.047619 0 0.0634921 
0 0.0793651 0 0.0952381 0 0.111111 0 0.126984 0 
0.142857 0 0.15873 0 0.174603 0 0.190476 0 0.206349 
0 0.222222 0 0.238095 0 0.253968 0 0.269841 0 
0.285714 0 0.301587 0 0.31746 0 0.333333 0 0.349206 
0 0.365079 0 0.380952 0 0.396825 0 0.412698 0 
0.428571 0 0.444444 0 0.460317 0 0.47619 0 0.492063 
0 0.507937 0 0.52381 0 0.539683 0 0.555556 0 
0.571429 0 0.587302 0 0.603175 0 0.619048 0 0.634921 
0 0.650794 0 0.666667 0 0.68254 0 0.698413 0 
0.714286 0 0.730159 0 0.746032 0 0.761905 0 0.777778 
0 0.793651 0 0.809524 0 0.825397 0 0.84127 0 
0.857143 0 0.873016 0 0.888889 0 0.904762 0 0.920635 
0 0.936508 0 0.952381 0 0.968254 0 0.984127 0 
1 0 
FIELD FieldData 4
Curvature 1 64 float
0.101742 0.0974757 0.100029 0.109051 0.123614 0.136233 0.138544 0.125545 0.106421 
0.0865313 0.0690344 0.05563 0.0550679 0.0808193 0.118231 0.152033 0.170042 0.169426 
0.152192 0.131793 0.124718 0.141772 0.219656 0.430449 0.827522 0.475544 0.20469 
0.0876794 0.0377856 0.0749366 0.174914 0.330491 0.367069 0.233445 0.131611 0.0721722 
0.0351812 0.018707 0.0267194 0.0467873 0.070729 0.0972255 0.12551 0.150028 0.15998 
0.148506 0.116428 0.0788604 0.0421728 0.0149882 0.0335699 0.0744756 0.121241 0.170071 
0.208011 0.203163 0.163768 0.113919 0.0657328 0.0388838 0.0931157 0.274381 0.576874 
0.475967 
Torsion 1 64 float
0.0952217 0.102914 0.101056 0.0913526 0.0818351 0.084467 0.102101 0.123094 0.120847 
0.0846811 -0.00161763 -0.192551 -0.331522 -0.142866 0.0166481 0.105193 0.130925 0.141495 
0.148097 0.16165 0.171034 0.156679 0.111807 0.0696165 0.0279539 -0.00842187 -0.0321621 
-0.101815 -0.472221 -0.250446 -0.0896752 -0.0978161 -0.10458 -0.0834409 -0.0673404 -0.0337936 
0.103039 0.579322 0.351172 0.0856785 0.0502701 0.0540049 0.0675789 0.0693283 0.0570101 
0.0366071 0.0145843 0.00432152 0.0227417 0.353522 0.119739 -0.0301131 -0.037242 -0.0319018 
-0.0190216 0.00129264 0.0222125 0.0485418 0.179983 0.464623 0.144496 0.0595261 0.0332355 
0.00988101 
Abscissas 1 64 double
0 1.0484897591 2.023039034 3.0432542569 4.0575711018 5.0714398843 6.0854156328 7.0994184861 8.1135764457 
9.1278899266 10.142298385 11.156780831 12.171299736 13.185786165 14.200094651 15.214075273 16.227788736 17.241384909 
18.255152886 19.269123741 20.283214063 21.297295641 22.311269259 23.32267079 24.328029848 25.328518849 26.341683728 
27.355785078 28.37030213 29.384910018 30.399317101 31.413035108 32.420872427 33.433046328 34.446991757 35.461445759 
36.475995091 37.49058376 38.505181354 39.519754437 40.534273639 41.548673899 42.562889548 43.576883271 44.590633172 
45.604409123 46.6184277 47.632758545 48.64727552 49.661868726 50.676469834 51.690989949 52.705338914 53.719298934 
54.732658471 55.745705554 56.759193404 57.77325753 58.78762099 59.802135416 60.816770295 61.832362881 62.825085492 
63.85680559 
ParallelTransportNormals 3 64 double
0 -0.98297794607 0.18372359004 -0.02030271255 -0.97826217057 0.20637569018 -0.026278519115 -0.97702997222 0.21147546622 
-0.019898053673 -0.97805934491 0.20737402269 0.0059738393594 -0.9806286265 0.19578511213 0.055131617077 -0.98165068865 0.18254432411 
0.12745854696 -0.97631450257 0.17482651653 0.21468313301 -0.96037418688 0.17774299866 0.3036187425 -0.93351690202 0.19068784134 
0.38271881026 -0.89993261682 0.20892007435 0.44578413752 -0.86572738498 0.22757987089 0.48978321606 -0.83722419634 0.24324482794 
0.51373219138 -0.8196011183 0.25363998584 0.52197648387 -0.81291148818 0.25829336554 0.52605505488 -0.80923374349 0.26154698934 
0.53980060767 -0.79438899201 0.2784985338 0.56214520841 -0.75934604866 0.32769855514 0.57601503598 -0.70556276182 0.41278065295 
0.56698640303 -0.64045041686 0.5180247893 0.53257544379 -0.56784978684 0.62762251096 0.47263573427 -0.4839939434 0.73645456441 
0.37960752921 -0.37576913994 0.84539675729 0.22492147352 -0.20560681394 0.95243696317 -0.1008392296 0.1839417184 0.97775093659 
-0.44606794424 0.78708160226 0.42605861159 -0.38939946588 0.91453385406 -0.10952573098 -0.31575082958 0.89867393086 -0.30444470698 
-0.27233638492 0.87822505824 -0.3931331079 -0.25764822661 0.86967529868 -0.42104900687 -0.27685337907 0.88163039639 -0.3822042002 
-0.3406328645 0.91492194956 -0.21653424169 -0.41963636304 0.88830366567 0.18660632459 -0.40678644513 0.68287176057 0.60680387826 
-0.3607154128 0.49132501258 0.79276990544 -0.33282296251 0.38230829763 0.86201464094 -0.31792038785 0.32094951262 0.89214238625 
-0.3097993423 0.28580904129 0.90682829655 -0.30505067194 0.26534376991 0.91462384144 -0.3019118288 0.25294823868 0.91916616353 
-0.29941854087 0.24469189968 0.92221169566 -0.29765592383 0.24013869277 0.92397746685 -0.29853824476 0.24182788207 0.92325196554 
-0.30777289408 0.2543925714 0.91682073782 -0.33398117835 0.27848497338 0.90050135597 -0.37990165457 0.30471680784 0.87339704595 
-0.43489595577 0.32118046817 0.84125419139 -0.48273994329 0.32566314623 0.81296104602 -0.51505987393 0.32401812339 0.79355250739 
-0.53212688528 0.32165527602 0.78318507479 -0.53713332201 0.3207972055 0.78011341953 -0.53482576298 0.32114323982 0.78155513099 
-0.53058678131 0.32144740925 0.78431449724 -0.53024027142 0.32142218767 0.78455913214 -0.53804018622 0.32384745872 0.77822591932 
-0.55186920668 0.33368219459 0.76426210931 -0.56285562166 0.34960169407 0.74898077724 -0.56699241017 0.36227224066 0.73978269138 
-0.56741634141 0.36568415177 0.73777625108 -0.56731490715 0.35869882817 0.74127521663 -0.56775693804 0.34084684558 0.74931668016 
-0.56715517696 0.30913491831 0.76339413642 -0.55582975135 0.25735065998 0.79045804779 -0.49392177826 0.19858310738 0.84652585691 
-0.49392177826 0.19858310738 0.84652585691 
