# vtk DataFile Version 4.2
vtk output
ASCII
DATASET POLYDATA
POINTS 64 float
0 0 0 -0.779082 0.561999 0.362196 -1.54924 0.885572 0.91331 
-2.32086 1.00121 1.55758 -3.08539 0.882957 2.21112 -3.82626 0.480579 2.76961 
-4.48566 -0.211332 3.09664 -5.02095 -1.06927 3.1443 -5.4698 -1.9633 2.98053 
-5.88297 -2.83319 2.66296 -6.27643 -3.64899 2.20719 -6.62074 -4.38798 1.60492 
-6.83548 -5.03215 0.853335 -6.81257 -5.57838 0.00155455 -6.52097 -6.05533 -0.843116 
-6.0367 -6.51475 -1.60612 -5.4421 -6.9998 -2.26912 -4.7839 -7.54494 -2.81463 
-4.09486 -8.19634 -3.16767 -3.51445 -8.99529 -3.03891 -3.47524 -9.60852 -2.25544 
-3.82675 -9.91011 -1.35599 -4.33754 -10.0633 -0.493628 -4.93849 -10.1297 0.320699 
-5.61132 -10.1066 1.07899 -6.35287 -9.91477 1.74124 -7.10559 -9.43941 2.21918 
-7.75732 -8.73087 2.53556 -8.23854 -7.94876 2.95735 -8.23158 -7.54989 3.84994 
-7.79814 -7.73774 4.74489 -7.2382 -8.12333 5.49701 -6.59917 -8.58901 6.13183 
-5.88037 -9.09728 6.63451 -5.07896 -9.64008 6.9317 -4.26075 -10.2259 6.86363 
-3.65748 -10.8566 6.35952 -3.41639 -11.5529 5.66724 -3.48514 -12.3497 5.04769 
-3.75437 -13.243 4.65628 -4.10118 -14.1898 4.57517 -4.40174 -15.124 4.82065 
-4.55414 -15.9745 5.34698 -4.50001 -16.6816 6.06883 -4.22172 -17.2111 6.88545 
-3.73309 -17.5557 7.70271 -3.07798 -17.7242 8.457 -2.3169 -17.7374 9.12645 
-1.4936 -17.6363 9.70994 -0.629497 -17.4785 10.2174 0.26299 -17.324 10.6744 
1.16907 -17.2181 11.1183 2.07471 -17.1852 11.5741 2.97302 -17.2341 12.0428 
3.8623 -17.3665 12.5126 4.73902 -17.5854 12.9734 5.58719 -17.9076 13.4266 
6.35813 -18.3773 13.8869 6.90938 -19.0696 14.373 6.98623 -19.9533 14.8469 
6.619 -20.8115 15.2365 6.04297 -21.5786 15.559 5.38502 -22.2757 15.8467 
4.66982 -22.9577 16.1378 
LINES 1 65
64 0 1 2 3 4 5 6 7 8 9 10 11 12 13 14 15 16 17 18 19 20 21 22 23 24 25 26 27 28 29 30 31 32 33 34 35 36 37 38 39 40 41 42 43 44 45 46 47 48 49 50 51 52 53 54 55 56 57 58 59 60 61 62 63 

POINT_DATA 64
SCALARS MaximumInscribedSphereRadius float
LOOKUP_TABLE default
0.9796 0.941628 1.10996 1.1822 1.01712 1.38092 0.896194 1.17737 1.4386 
1.26063 1.28542 1.57946 1.36454 1.13639 1.54756 1.56281 1.92912 2.27911 
2.29523 1.70744 1.75948 1.61014 1.84592 2.0786 2.01483 1.98561 2.16909 
2.24545 2.47996 2.25581 1.96457 1.77166 1.57333 1.78247 2.17545 2.4986 
2.09678 1.32613 1.39404 1.51965 1.91954 1.94327 1.57507 1.62147 2.02967 
1.95733 2.04823 2.08385 1.86219 1.69114 2.35645 2.03797 2.01046 2.32765 
2.67186 2.30287 2.44397 2.88781 2.73505 2.15648 1.89293 2.43759 2.885 
3.1 
TEXTURE_COORDINATES TCoords 2 float
0 0 0.015873 0 0.031746 0 0.047619 0 0.0634921 
0 0.0793651 0 0.0952381 0 0.111111 0 0.126984 0 
0.142857 0 0.15873 0 0.174603 0 0.190476 0 0.206349 
0 0.222222 0 0.238095 0 0.253968 0 0.269841 0 
0.285714 0 0.301587 0 0.31746 0 0.333333 0 0.349206 
0 0.365079 0 0.380952 0 0.396825 0 0.412698 0 
0.428571 0 0.444444 0 0.460317 0 0.47619 0 0.492063 
0 0.507937 0 0.52381 0 0.539683 0 0.555556 0 
0.571429 0 0.587302 0 0.603175 0 0.619048 0 0.634921 
0 0.650794 0 0.666667 0 0.68254 0 0.698413 0 
0.714286 0 0.730159 0 0.746032 0 0.761905 0 0.777778 
0 0.793651 0 0.809524 0 0.825397 0 0.84127 0 
0.857143 0 0.873016 0 0.888889 0 0.904762 0 0.920635 
0 0.936508 0 0.952381 0 0.968254 0 0.984127 0 
1 0 
FIELD FieldData 4
Curvature 1 64 float
0.224933 0.169441 0.134194 0.136768 0.178389 0.224886 0.208438 0.138582 0.0930219 
0.0862398 0.103642 0.132853 0.163814 0.16772 0.133594 0.0933429 0.0850655 0.14183 
0.32683 0.570065 0.320916 0.137735 0.0768046 0.0807122 0.132699 0.207428 0.181411 
0.146031 0.541777 0.474584 0.196709 0.103131 0.0908105 0.138666 0.229708 0.304283 
0.248013 0.200552 0.187499 0.189207 0.192248 0.191307 0.185532 0.175127 0.162342 
0.145078 0.119208 0.0907402 0.0616221 0.0363654 0.0332615 0.0447432 0.0506755 0.0508486 
0.051123 0.0620845 0.10122 0.193913 0.311349 0.282595 0.154856 0.0737608 0.0334691 
0.0651316 
Torsion 1 64 float
0.05623 0.0942798 0.141003 0.15166 0.111983 0.0790295 0.0808198 0.130746 0.157136 
0.0192898 -0.113162 -0.185041 -0.202822 -0.183061 -0.167153 -0.197614 -0.175758 -0.0715278 
-0.0350144 -0.0514118 -0.0498257 -0.0449745 -0.0158448 0.0655304 0.086945 0.0815364 0.27328 
0.770266 0.0992559 -0.0125438 -0.0566608 -0.102705 -0.0668193 0.0302858 0.105112 0.212156 
0.324865 0.307335 0.230942 0.183357 0.153622 0.121324 0.0939052 0.0887839 0.0728332 
0.00782099 -0.0205617 0.071243 0.219689 0.516036 0.479189 0.100447 -0.0431447 -0.0752037 
-0.00846734 0.0908825 0.0985032 0.0699254 0.0496607 0.0289107 0.0219792 0.0494046 0.181244 
0.066808 
Abscissas 1 64 double
0 1.0266443353 2.0274287268 3.0392831249 4.0520026102 5.0632971944 6.0734935612 7.0858479736 8.0995459702 
9.113579316 10.127516574 11.141112048 12.154010944 13.166145495 14.179052102 15.192836294 16.20693487 17.220827983 
18.23262718 19.228509831 20.224210882 21.235905907 22.249822329 23.264063106 24.278082429 25.290638165 26.301075824 
27.314429046 28.324959782 29.302644681 30.314620919 31.328474173 32.342482324 33.356235215 34.368764427 35.377349618 
36.385293237 37.396281716 38.408008006 39.419761223 40.43134684 41.442935149 42.454614674 43.466556908 44.478828862 
45.491464977 46.504627317 47.518326606 48.532478931 49.546918617 50.561459636 51.57595029 52.59037593 53.604789947 
54.619203254 55.633575186 56.647746008 57.6610653 58.670796993 59.676407864 60.687926324 61.700050204 62.70084107 
63.73103121 
ParallelTransportNormals 3 64 double
0.42157006103 0 0.9067958335 0.55831634072 -0.077903791361 0.82596238593 0.62912429911 -0.098127914478 0.77108594117 
0.65536008101 -0.098084959445 0.74892089365 0.63444693183 -0.10532047512 0.76575759102 0.56688810335 -0.15812571604 0.80847642897 
0.48916580197 -0.25893065036 0.83286957952 0.42873173427 -0.36650848881 0.82574852568 0.37787760396 -0.47056887319 0.79735403179 
0.32731197563 -0.57623981903 0.74887551808 0.2774500899 -0.68132012662 0.67736573037 0.24168500286 -0.76981259078 0.59074269735 
0.23433078073 -0.81546960183 0.52924324625 0.23273214507 -0.81026700888 0.53786905746 0.2042722566 -0.77591569806 0.59684811693 
0.1504071993 -0.72876061292 0.66804613871 0.069649865069 -0.66235295125 0.74594736025 -0.074120608165 -0.53465574131 0.84181314657 
-0.40868349121 -0.15185016087 0.8999551837 -0.71061843315 0.53634163385 0.45536698855 -0.62956267792 0.77681577727 0.014425074038 
-0.53821806323 0.82501627071 -0.17224827858 -0.46854647303 0.83878127321 -0.27732684384 -0.39121207079 0.84140990626 -0.37280354787 
-0.24870369738 0.81973921173 -0.51592062922 -0.00029758567435 0.70877884211 -0.70543069427 0.19525708253 0.5439971767 -0.8160525372 
0.18814832491 0.55335294209 -0.81141896041 0.045848055081 0.91189765229 -0.40784878031 0.17394416269 0.97730710851 0.12088938713 
0.26682379667 0.92370205547 0.27491739532 0.31677268775 0.8882381172 0.3326982288 0.35434446027 0.86128858146 0.36417301234 
0.41083333471 0.82223307336 0.39388925369 0.55244820693 0.72354760252 0.41385969308 0.79889958962 0.51261004666 0.31462737607 
0.96398512427 0.25334661904 0.080920768721 0.99155863569 0.014619660553 -0.12883220684 0.95269316142 -0.17974205255 -0.24508883027 
0.90933785536 -0.30924202404 -0.2783415804 0.89219801907 -0.35904368989 -0.27398964124 0.89791705329 -0.33651124938 -0.28373428493 
0.90194089985 -0.27275237315 -0.33482645671 0.8817029986 -0.19745371124 -0.42849953814 0.82501499719 -0.13283740454 -0.54927632241 
0.74095631929 -0.095123900186 -0.66478205189 0.65728494566 -0.084385572783 -0.74890291448 0.58316552856 -0.08849453751 -0.80751884382 
0.51725796789 -0.098605591272 -0.85013006771 0.4678273356 -0.10739605827 -0.87727058011 0.44759401019 -0.1103264209 -0.88740502754 
0.45004460655 -0.11013873295 -0.88618807915 0.45503434312 -0.11018324556 -0.88363080468 0.45146098138 -0.10982087711 -0.88550683636 
0.44134831452 -0.10780951316 -0.89083599733 0.43681862607 -0.10638851953 -0.89323623462 0.45618956143 -0.11586348996 -0.88230761967 
0.52063790948 -0.17254280452 -0.83616095809 0.58803945785 -0.3419639091 -0.73298723106 0.55699721765 -0.52901230247 -0.64023439721 
0.5002743755 -0.6267630986 -0.59740569754 0.46087223198 -0.67348846567 -0.57793604525 0.43554310881 -0.69894513007 -0.56725470956 
0.43554310881 -0.69894513007 -0.56725470956 
