# vtk DataFile Version 4.2
vtk output
ASCII
DATASET POLYDATA
POINTS 64 float
0 0 0 -0.831503 0.579507 0.258356 -1.67077 0.970056 0.582056 
-2.57244 1.20586 0.984923 -3.47562 1.23154 1.44521 -4.33699 1.02291 1.93631 
-5.11168 0.585059 2.42115 -5.77794 -0.0368354 2.86526 -6.35355 -0.779702 3.24664 
-6.87908 -1.59317 3.54834 -7.39915 -2.4424 3.74087 -7.94425 -3.29668 3.76495 
-8.48647 -4.11758 3.52601 -8.88208 -4.85668 2.96104 -8.96363 -5.4758 2.16566 
-8.73195 -5.98431 1.32072 -8.29606 -6.42515 0.518299 -7.738 -6.83662 -0.222064 
-7.10268 -7.24746 -0.897836 -6.41158 -7.68381 -1.49864 -5.67274 -8.18092 -1.98275 
-4.90493 -8.79982 -2.20486 -4.33543 -9.5067 -1.79768 -4.24563 -9.99099 -0.91414 
-4.45755 -10.2349 0.0456454 -4.8517 -10.279 0.978015 -5.37032 -10.1092 1.83157 
-5.94432 -9.70194 2.56007 -6.47786 -9.07393 3.14981 -6.88041 -8.29907 3.66452 
-7.05297 -7.49761 4.25804 -6.79625 -7.07144 5.11717 -6.27191 -7.39104 5.91964 
-5.77742 -8.06157 6.49565 -5.3434 -8.88519 6.89672 -4.96893 -9.7972 7.13323 
-4.64955 -10.757 7.20342 -4.37205 -11.7294 7.12477 -4.11038 -12.6949 6.95561 
-3.82867 -13.6556 6.79127 -3.49251 -14.6108 6.7399 -3.08004 -15.5266 6.87531 
-2.58247 -16.3494 7.19604 -1.99323 -17.0399 7.64739 -1.30188 -17.5736 8.16205 
-0.503927 -17.9255 8.67852 0.383603 -18.0727 9.14513 1.31529 -18.0212 9.54151 
2.24621 -17.8133 9.88622 3.15547 -17.5057 10.2146 4.04301 -17.1518 10.5558 
4.91953 -16.7959 10.9224 5.79804 -16.4721 11.3132 6.68726 -16.2061 11.7227 
7.58705 -16.0179 12.1517 8.48606 -15.926 12.6124 9.35848 -15.9515 13.1288 
10.1549 -16.1248 13.7314 10.7835 -16.4842 14.4389 11.1203 -17.0412 15.2128 
11.113 -17.7353 15.95 10.8272 -18.4831 16.5737 10.377 -19.2099 17.0537 
9.75964 -19.9687 17.4241 
LINES 1 65
64 0 1 2 3 4 5 6 7 8 9 10 11 12 13 14 15 16 17 18 19 20 21 22 23 24 25 26 27 28 29 30 31 32 33 34 35 36 37 38 39 40 41 42 43 44 45 46 47 48 49 50 51 52 53 54 55 56 57 58 59 60 61 62 63 

POINT_DATA 64
SCALARS MaximumInscribedSphereRadius float
LOOKUP_TABLE default
0.93 1.13396 1.2367 1.20383 0.997202 0.930018 0.944134 0.981666 1.16275 
1.11513 0.935686 0.93 0.93 0.93 0.93 0.93 0.947208 1.12565 
1.235 1.2291 1.06503 1.08328 1.58423 1.89035 1.74616 1.60066 1.55 
1.55 1.551 1.74545 1.3932 1.42493 1.85969 1.67527 1.08845 1.08399 
1.3418 1.74273 1.70627 1.48707 1.26122 1.03349 1.17078 1.50608 1.55 
1.55 1.62728 1.83404 2.05148 1.87769 1.38537 1.45842 1.80417 2.09652 
1.95224 1.8704 1.9139 2.08878 1.98854 1.74478 1.69119 2.04458 2.30326 
2.48 
TEXTURE_COORDINATES TCoords 2 float
0 0 0.015873 0 0.031746 0 0.047619 0 0.0634921 
0 0.0793651 0 0.0952381 0 0.111111 0 0.126984 0 
0.142857 0 0.15873 0 0.174603 0 0.190476 0 0.206349 
0 0.222222 0 0.238095 0 0.253968 0 0.269841 0 
0.285714 0 0.301587 0 0.31746 0 0.333333 0 0.349206 
0 0.365079 0 0.380952 0 0.396825 0 0.412698 0 
0.428571 0 0.444444 0 0.460317 0 0.47619 0 0.492063 
0 0.507937 0 0.52381 0 0.539683 0 0.555556 0 
0.571429 0 0.587302 0 0.603175 0 0.619048 0 0.634921 
0 0.650794 0 0.666667 0 0.68254 0 0.698413 0 
0.714286 0 0.730159 0 0.746032 0 0.761905 0 0.777778 
0 0.793651 0 0.809524 0 0.825397 0 0.84127 0 
0.857143 0 0.873016 0 0.888889 0 0.904762 0 0.920635 
0 0.936508 0 0.952381 0 0.968254 0 0.984127 0 
1 0 
FIELD FieldData 4
Curvature 1 64 float
0.117813 0.124751 0.135912 0.151392 0.165856 0.170118 0.151534 0.114639 0.0822755 
0.0816575 0.127221 0.195858 0.262243 0.289114 0.250499 0.171419 0.110478 0.0738745 
0.0681443 0.111169 0.238407 0.514918 0.527583 0.284799 0.190667 0.178975 0.190456 
0.184087 0.148723 0.201034 0.482147 0.612032 0.319717 0.17616 0.136074 0.125903 
0.108773 0.0678751 0.0358306 0.0903767 0.144101 0.155696 0.143937 0.136497 0.145171 
0.158329 0.149038 0.113961 0.0714873 0.0362928 0.0217344 0.0288769 0.0434442 0.0562912 
0.0694852 0.0921371 0.13124 0.192113 0.25248 0.261377 0.220593 0.171986 0.138006 
0.115911 
Torsion 1 64 float
-0.00919544 -0.0104936 -0.0137252 -0.0219678 -0.0302213 -0.0339552 -0.0587881 -0.132148 -0.315269 
-0.317759 -0.0837666 0.111847 0.231076 0.220589 0.13605 0.102524 0.119937 0.192385 
0.209696 0.0969028 0.0370225 0.0161475 0.00973119 -0.0121701 -0.0586152 -0.104562 -0.146722 
-0.222195 -0.457724 -0.491021 -0.220318 -0.105453 -0.0279405 0.0153565 0.0472518 0.0612869 
0.0741906 0.156541 0.691595 0.0996034 -0.0432041 -0.116602 -0.18947 -0.198955 -0.13823 
-0.0518734 0.0369744 0.114749 0.228641 0.488159 0.862346 0.430048 0.113374 -0.0385805 
-0.12586 -0.135164 -0.0885246 -0.0411234 -0.000984882 0.0262444 0.0372113 0.0387968 0.0351217 
0.0302584 
Abscissas 1 64 double
0 1.0459324293 2.0265815826 3.0419277675 4.0559550529 5.0692007659 6.0825715183 7.0964217343 8.1106338706 
9.1250031672 10.139262601 11.152929096 12.165336919 13.17626038 14.187493231 15.200497114 16.214508277 17.228847094 
18.243283951 19.257672361 20.27126442 21.282159706 22.27704442 23.288599223 24.301310323 25.314530741 26.327615455 
27.340559306 28.353895325 29.367497549 30.379618733 31.372402424 32.382863795 33.395745394 34.409439907 35.423303851 
36.43726206 37.451508549 38.466076017 39.480591195 40.494524228 41.508044252 42.521644124 43.53542128 44.549175053 
45.562736775 46.576197381 47.590005836 48.604232975 49.618731148 50.633310247 51.647894156 52.662445507 53.676943867 
54.691378856 55.705718719 56.71981667 57.733426902 58.745827917 59.757103276 60.76964147 61.784414073 62.764905129 
63.810921329 
ParallelTransportNormals 3 64 double
0.29671732377 0 0.95496535528 0.34774617314 -0.029437302885 0.93712648253 0.39713918229 -0.047295341542 0.91653893565 
0.45212014116 -0.05525678527 0.8902438237 0.50377685759 -0.049898313975 0.86239146332 0.5439547314 -0.034022508187 0.83842454587 
0.5660131643 -0.017800506284 0.82420400376 0.56707693973 -0.016631497203 0.823496896 0.54772593336 -0.043981604761 0.83550099962 
0.5035555732 -0.11422077925 0.85637923742 0.42199299638 -0.24466163474 0.87296196681 0.29441197273 -0.44121677989 0.84773188182 
0.16675350696 -0.65358310408 0.73825631997 0.11904130857 -0.78938278636 0.60224910416 0.12504399697 -0.83455591506 0.53654489417 
0.12771293745 -0.83835213294 0.52995764624 0.1161278767 -0.82841774015 0.54794010992 0.090642840409 -0.81085703195 0.57818228028 
0.046014057334 -0.78235247832 0.62113388749 -0.039414216827 -0.72658478981 0.68594537882 -0.24015861115 -0.57787028935 0.77999344239 
-0.68344505698 -0.13764985387 0.71690680832 -0.92221639176 0.29181870188 0.25369030727 -0.89948381164 0.42759749142 -0.089940302081 
-0.82377436154 0.46358227066 -0.32632388757 -0.7209728286 0.44942428358 -0.52746184104 -0.60566822255 0.3885267173 -0.6944155774 
-0.51917983946 0.30768638624 -0.79735900448 -0.50213706143 0.28214583305 -0.81746688033 -0.55119893424 0.41666228232 -0.72289160832 
-0.5224144884 0.81567644685 -0.24850560631 -0.187359656 0.86436283048 0.46666182251 0.022184804589 0.66081419509 0.75022158994 
0.12933876268 0.48839374215 0.86298495763 0.2059125432 0.32401137518 0.92337243478 0.26728474194 0.15844925238 0.9505012894 
0.31242244906 0.012334351516 0.94986318862 0.33626662658 -0.073365878033 0.93890478952 0.33338489854 -0.063150653116 0.94067343135 
0.29596760076 0.052868178774 0.95373378622 0.22131612998 0.23943920102 0.94535074952 0.12431800968 0.42475246627 0.89673316815 
0.025627090289 0.56217248116 0.8266228606 -0.064389412271 0.64822809007 0.75871888525 -0.14670902919 0.69717933908 0.70172461116 
-0.22532511651 0.72045924654 0.65587122665 -0.30337330975 0.72456463811 0.61884628151 -0.37767257615 0.7142185216 0.58928374203 
-0.44025278673 0.69669024645 0.56639225301 -0.48308834646 0.68092008015 0.55043028075 -0.50085796815 0.67376955666 0.54330091134 
-0.49270389583 0.67692738575 0.5468200668 -0.46338079256 0.68670993462 0.56009615851 -0.42208771549 0.69719339727 0.57945088422 
-0.37966468495 0.7038006435 0.60043266168 -0.34579615877 0.70507045904 0.61911280424 -0.32575635377 0.7026826396 0.63255031893 
-0.31881159408 0.70008596972 0.63893567946 -0.31743607325 0.69877978205 0.64104692153 -0.31575043552 0.69238283599 0.6487739752 
-0.3190811708 0.67598084914 0.66425680127 -0.33007585328 0.65404365634 0.68064442016 -0.35058156985 0.62538096966 0.69713069482 
-0.35058156985 0.62538096966 0.69713069482 
