# vtk DataFile Version 4.2
vtk output
ASCII
DATASET POLYDATA
POINTS 64 float
0 0 0 -0.974492 0.371114 -0.0616585 -1.91543 0.624039 -0.0491006 
-2.92539 0.778365 0.0496388 -3.91392 0.772059 0.264638 -4.85246 0.590885 0.603754 
-5.69878 0.252665 1.04856 -6.45207 -0.18822 1.56552 -7.14615 -0.672722 2.1249 
-7.82551 -1.15783 2.70152 -8.53514 -1.61591 3.2637 -9.32389 -2.03107 3.74802 
-10.2316 -2.42723 3.96387 -11.0039 -2.87061 3.52625 -11.2708 -3.34136 2.66182 
-11.2261 -3.83176 1.77634 -11.001 -4.35248 0.935453 -10.6356 -4.90793 0.169487 
-10.1436 -5.50225 -0.489169 -9.5293 -6.13972 -0.981991 -8.80315 -6.81314 -1.19371 
-8.09945 -7.38162 -0.760838 -7.90784 -7.41069 0.233272 -8.01922 -7.12639 1.19702 
-8.19283 -6.7436 2.12121 -8.34754 -6.34687 3.04196 -8.43812 -6.01177 3.99511 
-8.43687 -5.83195 4.99301 -8.34063 -5.9132 5.99843 -8.18151 -6.31167 6.9161 
-8.00693 -6.98875 7.64959 -7.84908 -7.85574 8.15051 -7.71738 -8.82572 8.41468 
-7.61129 -9.83297 8.4662 -7.53045 -10.8373 8.34947 -7.47883 -11.8248 8.12237 
-7.46438 -12.8019 7.84941 -7.49534 -13.7852 7.60179 -7.57061 -14.7861 7.4554 
-7.66523 -15.7958 7.46985 -7.72607 -16.7906 7.65787 -7.68592 -17.7485 7.98849 
-7.47466 -18.6451 8.41234 -7.03203 -19.4326 8.87198 -6.34487 -20.0386 9.30475 
-5.47612 -20.4143 9.66749 -4.51768 -20.5758 9.95697 -3.53194 -20.5781 10.1965 
-2.54662 -20.4768 10.416 -1.57159 -20.3162 10.6459 -0.612521 -20.13 10.9195 
0.318985 -19.9447 11.2761 1.19672 -19.7803 11.757 1.98537 -19.6454 12.3803 
2.67877 -19.5364 13.1127 3.32362 -19.4525 13.8916 3.98863 -19.4108 14.6566 
4.71434 -19.4468 15.3644 5.48794 -19.6 16.0023 6.25528 -19.9005 16.5939 
6.93509 -20.3681 17.181 7.40908 -21.0189 17.8119 7.5934 -21.7439 18.4387 
7.46521 -22.5408 19.1006 
LINES 1 65
64 0 1 2 3 4 5 6 7 8 9 10 11 12 13 14 15 16 17 18 19 20 21 22 23 24 25 26 27 28 29 30 31 32 33 34 35 36 37 38 39 40 41 42 43 44 45 46 47 48 49 50 51 52 53 54 55 56 57 58 59 60 61 62 63 

POINT_DATA 64
SCALARS MaximumInscribedSphereRadius float
LOOKUP_TABLE default
1.24 1.24 1.24 1.24 1.24 1.24 1.23999 1.22067 1.14961 
1.15629 1.22773 1.41251 1.54734 1.23046 0.90135 1.1605 1.17075 1.06135 
1.23183 1.48825 1.55 1.70034 1.81358 1.61817 1.25596 1.34436 1.54955 
1.54205 1.45138 1.26579 1.05841 1.08261 1.40728 1.55 1.56727 1.68252 
1.84543 1.86 1.86 1.85972 1.66433 1.29765 1.56098 1.76916 1.43492 
1.62458 2.134 2.05906 1.85406 1.5261 1.33747 1.44528 1.72251 2.09053 
2.17 2.1764 2.191 2.1948 2.15325 2.02788 2.04228 2.07894 1.84111 
1.55 
TEXTURE_COORDINATES TCoords 2 float
0 0 0.015873 0 0.031746 0 0.047619 0 0.0634921 
0 0.0793651 0 0.0952381 0 0.111111 0 0.126984 0 
0.142857 0 0.15873 0 0.174603 0 0.190476 0 0.206349 
0 0.222222 0 0.238095 0 0.253968 0 0.269841 0 
0.285714 0 0.301587 0 0.31746 0 0.333333 0 0.349206 
0 0.365079 0 0.380952 0 0.396825 0 0.412698 0 
0.428571 0 0.444444 0 0.460317 0 0.47619 0 0.492063 
0 0.507937 0 0.52381 0 0.539683 0 0.555556 0 
0.571429 0 0.587302 0 0.603175 0 0.619048 0 0.634921 
0 0.650794 0 0.666667 0 0.68254 0 0.698413 0 
0.714286 0 0.730159 0 0.746032 0 0.761905 0 0.777778 
0 0.793651 0 0.809524 0 0.825397 0 0.84127 0 
0.857143 0 0.873016 0 0.888889 0 0.904762 0 0.920635 
0 0.936508 0 0.952381 0 0.968254 0 0.984127 0 
1 0 
FIELD FieldData 4
Curvature 1 64 float
0.088751 0.109272 0.135637 0.165187 0.184682 0.176006 0.13447 0.0770057 0.0288151 
0.0496643 0.130696 0.288985 0.596632 0.602826 0.314905 0.179857 0.13612 0.141923 
0.187497 0.2976 0.583385 0.919552 0.414771 0.155912 0.054659 0.080764 0.158548 
0.232368 0.276594 0.276141 0.25016 0.215922 0.18065 0.140807 0.095127 0.053283 
0.0532775 0.0982012 0.135749 0.147148 0.148651 0.169182 0.213813 0.252496 0.24971 
0.205786 0.146072 0.0902629 0.0519707 0.0510265 0.0854358 0.127845 0.152303 0.125319 
0.062763 0.0468774 0.0955189 0.122592 0.129297 0.158591 0.221352 0.277973 0.279458 
0.23526 
Torsion 1 64 float
0.0204659 0.0191403 0.0161557 0.0100902 0.00862611 0.0209768 0.0660867 0.195163 1.32558 
0.807047 0.172128 0.210097 0.259655 0.22115 0.136807 0.11559 0.109418 0.0948906 
0.0747507 0.0525183 0.0236959 -0.0411919 -0.0802368 -0.172444 -0.721484 -0.385298 -0.149406 
-0.123404 -0.0960716 -0.0597975 -0.0171517 0.012997 0.0083663 -0.0368677 -0.173373 -0.707487 
-0.676131 -0.261126 -0.219543 -0.291723 -0.35396 -0.284097 -0.14916 -0.0482747 0.00939912 
0.042058 0.0752749 0.165839 0.487565 0.546533 0.170901 0.0271759 -0.0237518 0.0116146 
0.840673 1.2931 -0.0332964 -0.258828 -0.398461 -0.365955 -0.215948 -0.107003 -0.0500786 
-0.0234814 
Abscissas 1 64 double
0 1.0445869392 2.0190103348 3.0454532559 4.0571064321 5.0713472167 6.0854995023 7.0999284632 8.1145204797 
9.1290894192 10.143713166 11.158132653 12.171759734 13.164006041 14.183859663 15.197049143 16.211399478 17.225671809 
18.240110564 19.253355171 20.266081216 21.268950714 22.281774513 23.292736238 24.308021907 25.322464842 26.336856428 
27.350835039 28.36411495 29.377134981 30.390507644 31.404168306 32.418074231 33.432198299 34.446556364 35.461086391 
36.475680027 37.490218029 38.504571673 39.518759558 40.532990487 41.5471815 42.561155698 43.574724399 44.587981465 
45.601608818 46.615763569 47.630182189 48.644714335 49.659295311 50.6738573 51.688323646 52.702611533 53.716831931 
54.731282182 55.745911277 56.760440435 57.774782384 58.789107336 59.803563346 60.816197145 61.839040228 62.814979497 
63.858880106 
ParallelTransportNormals 3 64 double
-0.063146188719 0 0.99800428799 0.0072170878737 -0.022787011937 0.99971429205 0.091101899225 -0.040424388929 0.99502075995 
0.21256837425 -0.049350756065 0.97589916956 0.34580315906 -0.036404524048 0.93760060037 0.46570930618 -0.0015113596446 0.88493647113 
0.54963511502 0.039364468759 0.8344768894 0.59627598897 0.069184418234 0.79979276144 0.61131127537 0.079798927398 0.78735675255 
0.59260043249 0.067093291012 0.80269746338 0.51479713292 0.021750717815 0.85703606588 0.26956083384 -0.095527605876 0.95823349627 
-0.28571345114 -0.3734158512 0.88256921876 -0.57778722362 -0.62852709492 0.52068763685 -0.59743769926 -0.71391753273 0.36522589169 
-0.58820100973 -0.7485492605 0.30609406521 -0.57849554543 -0.76623765813 0.27968331228 -0.57285781785 -0.77379806635 0.27031550647 
-0.57728175577 -0.76887264866 0.27491930563 -0.60427126865 -0.74247946455 0.28910288584 -0.70069990962 -0.65875451579 0.27397467872 
-0.78865144507 -0.59995797896 0.1344593681 -0.79057188536 -0.60609567337 0.087430708574 -0.79251171875 -0.60155421012 0.10028812463 
-0.79629229383 -0.59257763969 0.1215332207 -0.79755902864 -0.58879825852 0.13121054303 -0.79650521421 -0.59487336961 0.10819019302 
-0.80039787164 -0.59880429655 0.028225192594 -0.81794015283 -0.56584703599 -0.10387992226 -0.84535777541 -0.47748061786 -0.23954642792 
-0.87191598909 -0.35412606124 -0.33816747438 -0.89186728373 -0.22755132219 -0.390887636 -0.90525326021 -0.11624816999 -0.40865988041 
-0.9136043433 -0.026382555272 -0.40574753811 -0.91819092666 0.042583066265 -0.39384274103 -0.91988128074 0.092845455483 -0.38104875114 
-0.91962809236 0.12290058317 -0.37306784692 -0.919585566 0.12369487855 -0.37291012836 -0.92318211966 0.081129999148 -0.3757029374 
-0.93042946743 -0.012315886976 -0.36626401005 -0.93191628181 -0.15260778564 -0.32900289885 -0.90727591839 -0.33435555842 -0.2550622835 
-0.82462376482 -0.54720477442 -0.14339658762 -0.65736283884 -0.75348971278 -0.011284983204 -0.43115109909 -0.89622207812 0.10437775836 
-0.21635315075 -0.95938047422 0.18105363804 -0.05678884074 -0.9728247101 0.22447073527 0.044208729173 -0.96775332783 0.24799009001 
0.096914094333 -0.96071288511 0.26007385624 0.11080912 -0.95822131305 0.26369158905 0.092692180611 -0.96178113035 0.25765328828 
0.05106977968 -0.96982671514 0.2383862836 0.0037337336153 -0.97832985345 0.20701873606 -0.03072404394 -0.98399999958 0.1754993845 
-0.05309934281 -0.98722386846 0.15023146588 -0.077540554119 -0.98956750295 0.12142330736 -0.12184698327 -0.98974884096 0.074501976394 
-0.1986551158 -0.98005366376 0.0055642719462 -0.308121155 -0.94782562268 -0.081779843613 -0.44019288709 -0.87770985161 -0.18935585163 
-0.5775984411 -0.74475310585 -0.33424968536 -0.65411718959 -0.58296916738 -0.48195191895 -0.66155895006 -0.41330103035 -0.62571719962 
-0.66155895006 -0.41330103035 -0.62571719962 
