# vtk DataFile Version 4.2
vtk output
ASCII
DATASET POLYDATA
POINTS 64 float
0 0 0 -0.863691 0.111826 0.581646 -1.71297 0.217271 1.04357 
-2.63643 0.301169 1.48145 -3.57519 0.331685 1.86072 -4.53404 0.276236 2.18721 
-5.49506 0.0843627 2.44858 -6.41492 -0.303104 2.62525 -7.2276 -0.903775 2.7032 
-7.90714 -1.65652 2.69306 -8.49291 -2.48132 2.61719 -9.04327 -3.32367 2.48716 
-9.60832 -4.14447 2.2969 -10.2208 -4.90492 2.02228 -10.8829 -5.56323 1.62644 
-11.5552 -6.0896 1.07962 -12.1709 -6.48989 0.380374 -12.6676 -6.80413 -0.446023 
-13.0045 -7.08455 -1.36049 -13.1599 -7.37428 -2.31981 -13.1274 -7.70027 -3.2795 
-12.913 -8.07627 -4.19655 -12.5303 -8.50985 -5.02954 -11.9934 -9.01163 -5.72796 
-11.3191 -9.60096 -6.20174 -10.5777 -10.2835 -6.28376 -9.97752 -10.9683 -5.84753 
-9.69358 -11.5138 -5.04408 -9.70588 -11.8694 -4.0955 -9.91612 -12.0442 -3.11907 
-10.2327 -12.0674 -2.15574 -10.5859 -11.9713 -1.20964 -10.918 -11.7905 -0.268197 
-11.1739 -11.5687 0.688027 -11.2954 -11.3715 1.67539 -11.2282 -11.3049 2.68443 
-10.9672 -11.4882 3.64545 -10.5927 -11.9482 4.467 -10.1984 -12.6079 5.1284 
-9.82842 -13.3865 5.66293 -9.49111 -14.2335 6.10788 -9.17907 -15.1202 6.48965 
-8.87644 -16.029 6.82403 -8.55776 -16.9463 7.11812 -8.18241 -17.8543 7.3708 
-7.68729 -18.7163 7.57151 -6.99886 -19.4485 7.70099 -6.11361 -19.9382 7.75236 
-5.12796 -20.1762 7.75848 -4.11597 -20.2456 7.761 -3.10192 -20.223 7.78441 
-2.09117 -20.1561 7.84168 -1.08453 -20.0767 7.94027 -0.0833993 -20.0007 8.08628 
0.909423 -19.937 8.28519 1.88942 -19.8869 8.54286 2.85049 -19.8501 8.86576 
3.78455 -19.8287 9.26108 4.68047 -19.8302 9.73701 5.52176 -19.8701 10.3024 
6.28168 -19.9733 10.9646 6.9146 -20.1837 11.7394 7.34725 -20.5036 12.553 
7.51125 -21.0138 13.451 
LINES 1 65
64 0 1 2 3 4 5 6 7 8 9 10 11 12 13 14 15 16 17 18 19 20 21 22 23 24 25 26 27 28 29 30 31 32 33 34 35 36 37 38 39 40 41 42 43 44 45 46 47 48 49 50 51 52 53 54 55 56 57 58 59 60 61 62 63 

POINT_DATA 64
SCALARS MaximumInscribedSphereRadius float
LOOKUP_TABLE default
0.9796 0.954368 1.10105 1.46057 1.54966 1.52404 1.34038 1.24201 1.2775 
1.63957 1.84667 1.8037 1.58235 1.38038 1.90283 1.86326 1.48099 1.89014 
1.97611 1.67438 1.7132 1.93641 2.27783 2.25518 1.92822 1.88127 1.93255 
1.79194 1.7284 1.99861 1.83677 1.63551 1.75223 1.85311 1.87431 2.04984 
1.94007 1.59231 1.54742 1.46704 1.30842 1.56274 2.05646 1.89449 1.66012 
1.7692 1.7242 1.64635 2.02689 2.12852 2.05098 1.78788 1.48752 1.12644 
1.02997 1.19933 1.50593 1.71014 1.46677 1.37497 1.64979 1.63068 1.6616 
1.86 
TEXTURE_COORDINATES TCoords 2 float
0 0 0.015873 0 0.031746 0 0.047619 0 0.0634921 
0 0.0793651 0 0.0952381 0 0.111111 0 0.126984 0 
0.142857 0 0.15873 0 0.174603 0 0.190476 0 0.206349 
0 0.222222 0 0.238095 0 0.253968 0 0.269841 0 
0.285714 0 0.301587 0 0.31746 0 0.333333 0 0.349206 
0 0.365079 0 0.380952 0 0.396825 0 0.412698 0 
0.428571 0 0.444444 0 0.460317 0 0.47619 0 0.492063 
0 0.507937 0 0.52381 0 0.539683 0 0.555556 0 
0.571429 0 0.587302 0 0.603175 0 0.619048 0 0.634921 
0 0.650794 0 0.666667 0 0.68254 0 0.698413 0 
0.714286 0 0.730159 0 0.746032 0 0.761905 0 0.777778 
0 0.793651 0 0.809524 0 0.825397 0 0.84127 0 
0.857143 0 0.873016 0 0.888889 0 0.904762 0 0.920635 
0 0.936508 0 0.952381 0 0.968254 0 0.984127 0 
1 0 
FIELD FieldData 4
Curvature 1 64 float
0.187188 0.102287 0.0660515 0.0620901 0.0841609 0.126298 0.176936 0.206153 0.179868 
0.115207 0.0610956 0.0552048 0.0939144 0.136527 0.161353 0.164179 0.155797 0.148871 
0.150069 0.15234 0.153248 0.154787 0.17502 0.233795 0.340565 0.444148 0.40852 
0.311872 0.223328 0.153306 0.102736 0.0727526 0.0786368 0.122909 0.192253 0.257075 
0.267067 0.217444 0.153979 0.102507 0.0651409 0.0434232 0.0464826 0.0797601 0.134757 
0.207857 0.265682 0.230064 0.15531 0.0882544 0.0542695 0.0343661 0.0384926 0.0448689 
0.0501534 0.0558497 0.0636655 0.0747426 0.0912849 0.116645 0.155583 0.204881 0.248172 
0.256056 
Torsion 1 64 float
0.0820563 0.133476 0.2142 0.220504 0.143543 0.0907597 0.0585056 0.0248855 -0.0259617 
-0.147766 -0.555559 -0.534553 -0.0644002 0.0990154 0.176182 0.245139 0.284933 0.26715 
0.194374 0.130917 0.0978385 0.0937686 0.104053 0.10758 0.105673 0.0950587 0.0527728 
-0.0203831 -0.0916299 -0.152338 -0.291293 -0.543882 -0.540931 -0.330389 -0.240552 -0.201885 
-0.156752 -0.113381 -0.0774607 -0.036222 0.0513215 0.267619 0.335902 0.174328 0.0959443 
0.0707276 0.0702531 0.0878863 0.115528 0.192577 0.438079 -0.0514917 0.404869 0.00808558 
-0.025329 -0.0193307 0.0171677 0.0593511 0.0856887 0.0888284 0.0714521 0.049148 0.0313182 
0.0195036 
Abscissas 1 64 double
0 1.0472719849 2.0197787095 3.0452337062 4.0581674923 5.072598566 6.086840616 7.1004927918 8.1140632839 
9.1282209476 10.142698587 11.157272308 12.171769357 13.186090247 14.200178878 15.214121422 16.228144396 17.2422376 
18.256346905 19.270434202 20.284501076 21.298565492 22.312614774 23.326456815 24.339606523 25.350667791 26.360314392 
27.372139269 28.385252921 29.399242588 30.413522023 31.42796911 32.442491147 33.456928619 34.471094629 35.484561487 
36.497126536 37.510413396 38.524425127 39.538737072 40.553215481 41.567768272 42.582347628 43.596924647 44.611423166 
45.625574416 46.638870893 47.651866329 48.665849659 49.680223307 50.694789153 51.709366066 52.723940902 53.738508954 
54.753065169 55.767610281 56.782141282 57.796641525 58.811124292 59.825516391 60.838796803 61.861124428 62.836551644 
63.882250917 
ParallelTransportNormals 3 64 double
0.55858494317 0 0.82944732278 0.47874731307 0.010118648632 0.87789442599 0.42953302779 0.015396857658 0.90291988283 
0.37505271504 0.018734351564 0.92681415883 0.32134327075 0.018030426896 0.94679111004 0.2605321632 0.010196192175 0.96541132664 
0.1929226487 -0.010630726681 0.9811563786 0.12956419372 -0.046767022299 0.99046754885 0.083389731771 -0.088644029502 0.99256656637 
0.051868676751 -0.12794259488 0.99042431957 0.024484403302 -0.16812612781 0.98546137374 -0.0098683569438 -0.21934834416 0.97559669918 
-0.064438363075 -0.29262640674 0.9540531869 -0.15323998017 -0.39147465708 0.90733957333 -0.27583416804 -0.50031539398 0.82073139229 
-0.40480424677 -0.59310342708 0.6959610956 -0.50726151347 -0.65891635947 0.55544125538 -0.56948929341 -0.70330574643 0.4254914473 
-0.59747484151 -0.73571521947 0.31897794532 -0.60264158071 -0.76160321932 0.23829322591 -0.5952037829 -0.78274823759 0.1817626292 
-0.58354796825 -0.79855263462 0.14759897864 -0.57643769906 -0.80578485573 0.13575840813 -0.58957552695 -0.79395022105 0.14847135926 
-0.65640521615 -0.73390453523 0.17468922514 -0.78712029783 -0.60066863656 0.14013859497 -0.88708957115 -0.46159732251 6.7819267383e-05 
-0.91114305169 -0.3818471984 -0.15495501423 -0.89935362836 -0.35373519565 -0.2569717154 -0.88763446271 -0.34933005104 -0.30012260169 
-0.88894331501 -0.3491876114 -0.29639128656 -0.90461165514 -0.34285678223 -0.25323305522 -0.92943268827 -0.32585836746 -0.17312192907 
-0.9519611927 -0.30084606082 -0.057109852739 -0.95575141532 -0.28243041688 0.082293934986 -0.9362879445 -0.28935595384 0.1990929857 
-0.91912525971 -0.30672722315 0.24723908983 -0.92044641447 -0.30480309817 0.24469055854 -0.93075922293 -0.28539542257 0.22855354233 
-0.94092213742 -0.26203809525 0.21447976115 -0.94743409214 -0.24465211759 0.20618919081 -0.94880167885 -0.24065727758 0.20459581851 
-0.94232210436 -0.25970115323 0.21115009506 -0.92053817473 -0.31699089731 0.2283117165 -0.86242795638 -0.43515006207 0.25857773211 
-0.72117056949 -0.62539673621 0.29797975105 -0.47197817303 -0.81887669169 0.32661532113 -0.22315078703 -0.91568030985 0.33426530841 
-0.065291080191 -0.93997176244 0.33494799697 0.013232480938 -0.94178581356 0.33595294735 0.043076873584 -0.9404677262 0.33714216428 
0.041223398565 -0.94060210841 0.33699896895 0.022664045173 -0.94203865151 0.33473798725 -0.0054734838475 -0.94401023323 0.32987076338 
-0.036464024834 -0.94579917822 0.3226984496 -0.06894275424 -0.9472527868 0.31298411227 -0.10497224384 -0.94835785745 0.29932958797 
-0.14935070318 -0.94884061313 0.2782011113 -0.20818617444 -0.94743923474 0.24293499797 -0.28682993551 -0.94041115351 0.18263474601 
-0.39359060353 -0.91641717102 0.072567247877 -0.49396322312 -0.86599508936 -0.07779999618 -0.57980578413 -0.7493530587 -0.31983628017 
-0.57980578413 -0.7493530587 -0.31983628017 
