# vtk DataFile Version 4.2
vtk output
ASCII
DATASET POLYDATA
POINTS 64 float
0 0 0 -0.918162 0.0432309 0.4974 -1.86057 0.0234412 0.744999 
-2.87215 -0.119281 0.820256 -3.82807 -0.45009 0.781873 -4.69308 -0.979277 0.779609 
-5.44667 -1.6465 0.903242 -6.10506 -2.37508 1.15742 -6.69559 -3.12592 1.49895 
-7.23427 -3.9018 1.86982 -7.70702 -4.74286 2.18305 -7.99888 -5.70638 2.23513 
-7.91908 -6.63063 1.8337 -7.5992 -7.37797 1.22488 -7.20575 -8.07492 0.601727 
-6.8025 -8.81627 0.0389128 -6.46444 -9.68742 -0.35781 -6.38306 -10.689 -0.337819 
-6.72576 -11.446 0.225287 -7.30063 -11.7214 1.0133 -7.90361 -11.6114 1.81998 
-8.42399 -11.2271 2.60054 -8.8087 -10.6908 3.37067 -9.04149 -10.1214 4.17714 
-9.11061 -9.65245 5.07308 -8.99054 -9.47413 6.06152 -8.69051 -9.74315 6.98869 
-8.29951 -10.3533 7.69756 -7.89031 -11.1232 8.21573 -7.49583 -11.9669 8.61792 
-7.1356 -12.853 8.95623 -6.82292 -13.7678 9.2639 -6.56341 -14.702 9.56266 
-6.34854 -15.6457 9.86693 -6.14845 -16.5875 10.1871 -5.90783 -17.5098 10.5346 
-5.53863 -18.3706 10.9241 -4.93933 -19.0616 11.3581 -4.12694 -19.4734 11.8015 
-3.22885 -19.6623 12.2337 -2.31689 -19.744 12.6707 -1.41173 -19.7796 13.1276 
-0.519 -19.7868 13.6097 0.360201 -19.7583 14.1152 1.22484 -19.6699 14.6385 
2.0694 -19.4902 15.171 2.88191 -19.1981 15.7034 3.65449 -18.8032 16.2291 
4.39774 -18.3473 16.7479 5.1403 -17.886 17.2629 5.91288 -17.475 17.7762 
6.7326 -17.1645 18.2867 7.59488 -16.9992 18.7945 8.4697 -17.0168 19.307 
9.29403 -17.2489 19.8497 9.94894 -17.7235 20.4597 10.2568 -18.4066 21.1385 
10.1562 -19.1483 21.8211 9.77469 -19.8297 22.4681 9.25365 -20.4373 23.0917 
8.68303 -21.001 23.7107 8.13963 -21.5864 24.3488 7.71548 -22.2107 24.9781 
7.69832 -23.0547 25.5871 
LINES 1 65
64 0 1 2 3 4 5 6 7 8 9 10 11 12 13 14 15 16 17 18 19 20 21 22 23 24 25 26 27 28 29 30 31 32 33 34 35 36 37 38 39 40 41 42 43 44 45 46 47 48 49 50 51 52 53 54 55 56 57 58 59 60 61 62 63 

POINT_DATA 64
SCALARS MaximumInscribedSphereRadius float
LOOKUP_TABLE default
0.93 0.93 0.897245 0.756815 0.75815 1.07803 1.24 1.24656 1.33703 
1.49526 1.48637 1.37652 1.29118 1.46761 1.7995 1.87517 1.86311 1.87106 
2.11149 2.25051 1.96529 1.78183 1.72387 1.83641 2.13431 2.60248 2.42629 
2.19191 2.17 2.33629 2.62644 2.71072 2.55712 2.31809 2.01336 2.06304 
2.36277 2.35083 2.30949 2.4355 2.39131 2.2413 2.2795 2.43937 2.66214 
2.86956 2.89952 2.85925 2.83017 2.78166 2.62185 2.41113 2.10732 1.95352 
2.09798 2.07796 1.94498 2.05013 2.22513 2.38427 2.48 2.48 2.70242 
3.1 
TEXTURE_COORDINATES TCoords 2 float
0 0 0.015873 0 0.031746 0 0.047619 0 0.0634921 
0 0.0793651 0 0.0952381 0 0.111111 0 0.126984 0 
0.142857 0 0.15873 0 0.174603 0 0.190476 0 0.206349 
0 0.222222 0 0.238095 0 0.253968 0 0.269841 0 
0.285714 0 0.301587 0 0.31746 0 0.333333 0 0.349206 
0 0.365079 0 0.380952 0 0.396825 0 0.412698 0 
0.428571 0 0.444444 0 0.460317 0 0.47619 0 0.492063 
0 0.507937 0 0.52381 0 0.539683 0 0.555556 0 
0.571429 0 0.587302 0 0.603175 0 0.619048 0 0.634921 
0 0.650794 0 0.666667 0 0.68254 0 0.698413 0 
0.714286 0 0.730159 0 0.746032 0 0.761905 0 0.777778 
0 0.793651 0 0.809524 0 0.825397 0 0.84127 0 
0.857143 0 0.873016 0 0.888889 0 0.904762 0 0.920635 
0 0.936508 0 0.952381 0 0.968254 0 0.984127 0 
1 0 
FIELD FieldData 4
Curvature 1 64 float
0.208072 0.225501 0.212922 0.187924 0.187506 0.189163 0.152778 0.0975112 0.0638287 
0.126656 0.312328 0.512414 0.340302 0.118359 0.0710106 0.205467 0.44613 0.61731 
0.479351 0.318861 0.238476 0.170265 0.137793 0.183408 0.30239 0.406569 0.353447 
0.22476 0.125052 0.0707702 0.052248 0.0472162 0.0394196 0.030144 0.0611191 0.142214 
0.247003 0.291452 0.21024 0.107155 0.0529326 0.0344121 0.0379805 0.0555244 0.0795846 
0.0959018 0.0900987 0.0586752 0.0209569 0.0490521 0.0904152 0.123146 0.15043 0.184993 
0.255493 0.34005 0.341041 0.24867 0.140633 0.0576057 0.046058 0.157361 0.360892 
0.531647 
Torsion 1 64 float
-0.0573881 -0.13208 -0.300219 -0.512758 -0.472798 -0.27289 -0.132525 0.0810083 0.517323 
0.261502 0.0416425 -0.022596 -0.089663 -0.448119 -0.569169 -0.102376 -0.0546831 -0.0432523 
0.00962158 0.112678 0.22624 0.399698 0.588497 0.403058 0.160514 0.047741 0.00775273 
0.038509 0.133827 0.294896 0.354627 0.268935 0.271055 0.558593 0.219262 0.0621974 
0.0130466 -0.0247492 -0.0760878 -0.166757 -0.238516 -0.0531927 0.204679 0.179286 0.078338 
0.0155468 -0.00863041 0.0178167 0.38182 0.058929 0.0510161 0.0864267 0.157152 0.21883 
0.194701 0.145492 0.116751 0.110136 0.123511 0.373813 0.849198 0.0787952 0.0354237 
0.0154583 
Abscissas 1 64 double
0 1.0451306335 2.0197254377 3.044084752 4.0563575084 5.070407123 6.0844858772 7.0988373227 8.1133046726 
9.1280485893 10.142437677 11.150539602 12.161360033 13.176988297 14.191316096 15.205700471 16.220870796 17.225930706 
18.229720367 19.243269705 20.25639413 21.270196645 22.28446043 23.298716483 24.312346355 25.323894247 26.334851414 
27.348590277 28.362856713 29.377351858 30.391895419 31.406454562 32.421016804 33.435607412 34.45021107 35.464742167 
36.479146759 37.4916101 38.50458917 39.518997635 40.533550304 41.548129695 42.562715621 43.577287282 44.591816893 
45.606267901 46.620662028 47.635147368 48.649747767 49.664351309 50.678868811 51.693254759 52.707481859 53.721563656 
54.735419374 55.74842836 56.759495714 57.772515006 58.786665235 59.801283877 60.814494672 61.836779652 62.819479731 
63.860393118 
ParallelTransportNormals 3 64 double
0.47632919715 0 0.87926702198 0.25405472546 0.0025363305994 0.9671865195 0.0758716946 -0.012016856071 0.99704517507 
-0.027334555872 -0.036918981524 0.99894434823 0.0093679291731 -0.019589353651 0.99976422177 0.11256171256 0.056687431142 0.99202640893 
0.20708329579 0.15012508184 0.96673624552 0.26500582669 0.21873769202 0.93910901066 0.28467377672 0.24532881885 0.92670092883 
0.25971550099 0.20542809267 0.94358208826 0.17309678216 0.00080133067756 0.98490449378 0.12959068351 -0.38558511103 0.91352634165 
0.17498200883 -0.57574396932 0.79868653324 0.18456273212 -0.59514042574 0.78214095376 0.15531816432 -0.5423444932 0.82567470503 
0.083440343139 -0.38600503155 0.91871531214 -0.0070466682146 0.019383227916 0.99978729485 0.075307506591 0.57297358094 0.81610664437 
0.29127481602 0.81681919986 0.49796121968 0.47932746278 0.84322166151 0.24335655526 0.62696930837 0.77826849552 0.034751046467 
0.7171845635 0.68650723783 -0.11980865698 0.7556217497 0.61768580631 -0.21794498403 0.76188736828 0.59613398478 -0.25328227384 
0.76324250911 0.61327788604 -0.20334971548 0.7903987224 0.60740718169 -0.079538514294 0.83184241041 0.5546996116 0.018615722437 
0.86227713856 0.50221077414 0.065287630226 0.88475987112 0.45706960645 0.091034857744 0.90513128732 0.41037949875 0.11102260902 
0.92418849796 0.35937825854 0.12931700401 0.9401176227 0.30790355301 0.14619937594 0.95028153163 0.26766758614 0.15911968441 
0.95249894133 0.25759217677 0.16245626249 0.94220246223 0.30114317093 0.14685813144 0.89875014179 0.428191639 0.094340356797 
0.76206584887 0.6471302567 -0.02186487719 0.51877521436 0.83720611705 -0.17308435671 0.32233604414 0.90621032087 -0.27364635754 
0.23388329031 0.91943834844 -0.31611980313 0.203386165 0.92140750823 -0.33112274412 0.18997709094 0.92172642905 -0.3381258566 
0.17069825926 0.92149406356 -0.3488707427 0.13132818375 0.91885565775 -0.37209835847 0.066488873314 0.90868659561 -0.41215033748 
-0.014326400346 0.88567445919 -0.46408566729 -0.087468953062 0.85397294023 -0.51291266275 -0.13040196825 0.82987551021 -0.54249604997 
-0.13512224161 0.82696173297 -0.54578042473 -0.10229243656 0.84586280736 -0.52350011323 -0.033604773152 0.87698680411 -0.47933794409 
0.071127137228 0.90660929177 -0.41593331489 0.21322022351 0.91869453064 -0.3324717968 0.39551387074 0.89190534117 -0.21925701914 
0.61509637231 0.78698090899 -0.048140436753 0.80193015041 0.56221451599 0.20204670714 0.83994317061 0.30136617308 0.45130244833 
0.78398495386 0.13614264531 0.60566721246 0.73389443662 0.064596536764 0.67618506589 0.71442856168 0.043711510467 0.69834170297 
0.73145472959 0.061269942995 0.67913177856 0.77025509287 0.10992846626 0.62819011789 0.83302062617 0.31248713306 0.45653962374 
0.83302062617 0.31248713306 0.45653962374 
