# vtk DataFile Version 4.2
vtk output
ASCII
DATASET POLYDATA
POINTS 64 float
0 0 0 -0.982575 0.213528 -0.282055 -1.94807 0.248048 -0.414145 
-2.96143 0.0967223 -0.409394 -3.90006 -0.250695 -0.259126 -4.75707 -0.736463 -0.0163134 
-5.547 -1.3037 0.272685 -6.30272 -1.91045 0.572904 -7.05343 -2.53089 0.857333 
-7.81746 -3.1529 1.09961 -8.59687 -3.7798 1.26911 -9.36745 -4.43698 1.32618 
-10.057 -5.17265 1.21967 -10.5285 -6.01422 0.912543 -10.6921 -6.89946 0.447091 
-10.6097 -7.75456 -0.0921312 -10.3753 -8.56489 -0.65559 -10.0449 -9.34166 -1.21877 
-9.64188 -10.1058 -1.74802 -9.17766 -10.8799 -2.21975 -8.57232 -11.672 -2.0833 
-8.34758 -11.6462 -1.12034 -8.29168 -11.31 -0.171243 -8.26748 -10.8831 0.752373 
-8.23927 -10.4355 1.66149 -8.18997 -10.0181 2.58508 -8.10171 -9.71487 3.54882 
-7.96014 -9.67747 4.55094 -7.79333 -10.0537 5.47484 -7.67318 -10.7637 6.18844 
-7.63581 -11.6334 6.70876 -7.68148 -12.5686 7.09926 -7.79687 -13.5286 7.40622 
-7.95793 -14.4976 7.66025 -8.12836 -15.4725 7.8836 -8.25865 -16.4562 8.09473 
-8.28558 -17.4468 8.31141 -8.14084 -18.4212 8.55221 -7.77845 -19.3249 8.83463 
-7.20395 -20.089 9.17189 -6.47226 -20.6667 9.57059 -5.65493 -21.0518 10.0312 
-4.80956 -21.2709 10.5471 -3.96879 -21.3667 11.1067 -3.14244 -21.3817 11.6951 
-2.32594 -21.3485 12.2964 -1.50943 -21.2854 12.8954 -0.685327 -21.1976 13.4807 
0.147479 -21.0856 14.0492 0.984321 -20.9561 14.6081 1.81812 -20.8294 15.1722 
2.64001 -20.7431 15.7607 3.43274 -20.7556 16.3934 4.15604 -20.9402 17.0795 
4.742 -21.3443 17.8011 5.13977 -21.9334 18.5241 5.35188 -22.6228 19.2372 
5.40191 -23.3441 19.9485 5.30908 -24.0528 20.6683 5.08705 -24.7177 21.402 
4.74972 -25.3137 22.1468 4.29868 -25.8411 22.9036 3.79244 -26.2825 23.6098 
3.16759 -26.785 24.2791 
LINES 1 65
64 0 1 2 3 4 5 6 7 8 9 10 11 12 13 14 15 16 17 18 19 20 21 22 23 24 25 26 27 28 29 30 31 32 33 34 35 36 37 38 39 40 41 42 43 44 45 46 47 48 49 50 51 52 53 54 55 56 57 58 59 60 61 62 63 

POINT_DATA 64
SCALARS MaximumInscribedSphereRadius float
LOOKUP_TABLE default
1.24 1.24 1.24 1.24 1.30676 1.47114 1.55 1.55 1.55 
1.52818 1.39948 1.27093 1.30469 1.66407 1.96574 1.88841 1.68007 1.39963 
1.24 1.25937 1.40566 1.56991 1.75858 1.77917 1.61211 1.78656 2.17025 
1.78398 1.55 1.55 1.55 1.61831 1.76322 1.70974 1.39081 1.24651 
1.24 1.27121 1.37018 1.67096 1.85753 1.86478 1.86 1.86178 1.87266 
1.92758 2.06589 2.10672 1.94479 1.86 1.86 1.86 1.86 1.86414 
1.94614 2.15784 2.463 2.68059 2.24058 1.96261 2.31762 2.48 2.60048 
3.1 
TEXTURE_COORDINATES TCoords 2 float
0 0 0.015873 0 0.031746 0 0.047619 0 0.0634921 
0 0.0793651 0 0.0952381 0 0.111111 0 0.126984 0 
0.142857 0 0.15873 0 0.174603 0 0.190476 0 0.206349 
0 0.222222 0 0.238095 0 0.253968 0 0.269841 0 
0.285714 0 0.301587 0 0.31746 0 0.333333 0 0.349206 
0 0.365079 0 0.380952 0 0.396825 0 0.412698 0 
0.428571 0 0.444444 0 0.460317 0 0.47619 0 0.492063 
0 0.507937 0 0.52381 0 0.539683 0 0.555556 0 
0.571429 0 0.587302 0 0.603175 0 0.619048 0 0.634921 
0 0.650794 0 0.666667 0 0.68254 0 0.698413 0 
0.714286 0 0.730159 0 0.746032 0 0.761905 0 0.777778 
0 0.793651 0 0.809524 0 0.825397 0 0.84127 0 
0.857143 0 0.873016 0 0.888889 0 0.904762 0 0.920635 
0 0.936508 0 0.952381 0 0.968254 0 0.984127 0 
1 0 
FIELD FieldData 4
Curvature 1 64 float
0.175676 0.206922 0.222787 0.204965 0.156288 0.0979871 0.0476138 0.0225392 0.0393595 
0.0693473 0.107792 0.173391 0.263582 0.297195 0.234367 0.148412 0.084946 0.083069 
0.186972 0.590626 1.31581 0.373459 0.138488 0.0408615 0.0479334 0.131696 0.249036 
0.360254 0.340552 0.240006 0.155594 0.10007 0.0602117 0.0325035 0.0450965 0.0940541 
0.150489 0.195791 0.215649 0.208499 0.182587 0.147303 0.108466 0.071948 0.0422031 
0.0255255 0.0247309 0.0272024 0.0183333 0.0120383 0.0454659 0.10006 0.165567 0.219578 
0.221963 0.180359 0.139998 0.118981 0.114121 0.118205 0.12325 0.132106 0.192958 
0.483079 
Torsion 1 64 float
0.0107193 0.0182396 0.030058 0.0422561 0.0507829 0.0748535 0.34685 0.971582 0.198033 
-0.151887 -0.249781 -0.233684 -0.147024 -0.0583085 -0.016072 -0.0329066 -0.151669 -0.277729 
-0.12041 -0.0329245 0.0815853 0.0554054 0.0687309 1.53045 1.30237 0.0719279 0.0549591 
0.083892 0.113574 0.125154 0.12242 0.0870235 -0.0873019 -0.638117 -0.603433 -0.133998 
-0.0743836 -0.0798468 -0.0992676 -0.118016 -0.123323 -0.110475 -0.0912255 -0.0207856 0.180627 
0.447339 0.222431 -0.0482908 -0.543741 -1.64924 -0.136325 -0.0468619 -0.0083679 0.0320653 
0.10028 0.165811 0.201837 0.188275 0.134609 0.0769554 -0.0241927 -0.15117 -0.209614 
-0.186817 
Abscissas 1 64 double
0 1.0443189985 2.0194223543 3.0440295731 4.0561094721 5.0706947921 6.0852242481 7.0998155759 8.1144165544 
9.1289765164 10.143479314 11.157846438 12.171787892 13.184148311 14.197581884 15.211849519 16.22629092 17.241034949 
18.25413047 19.272627723 20.278822862 21.267998759 22.276421709 23.294224234 24.307954029 25.322666826 26.336844213 
27.349608033 28.361027366 29.374826963 30.388970881 31.403394656 32.417902295 33.432475569 34.447083104 35.461637429 
36.476008274 37.490084497 38.503888806 39.517612629 40.531529791 41.545664342 42.559993901 43.574456315 44.589008494 
45.603602356 46.618200293 47.632793092 48.647387836 49.661993485 50.676597218 51.69114052 52.705468313 53.719392106 
54.732935666 55.746882775 56.761123889 57.775461258 58.789828505 59.804561599 60.816347794 61.843197839 62.817723502 
63.862227402 
ParallelTransportNormals 3 64 double
-0.27591417745 0 0.96118227547 -0.13613608451 -0.017362937338 0.99053798256 0.0060758671924 -0.0092943941042 0.99993834714 
0.14822588109 0.027122074894 0.98858155012 0.23614907004 0.067908323793 0.96934105261 0.28035366017 0.096171641769 0.95506692988 
0.29275530712 0.10559114799 0.95033932867 0.28179123861 0.096659449634 0.95459449435 0.24929503838 0.070004846159 0.96589404458 
0.19338536362 0.024764440305 0.98081028932 0.11077690576 -0.043672448328 0.99288528764 0.0032348721053 -0.14625919373 0.98924101404 
-0.10245766175 -0.28986400076 0.95156780558 -0.15652345032 -0.43683613638 0.88581860415 -0.1612245051 -0.53748829295 0.82771552716 
-0.15059136904 -0.59338327196 0.79070761481 -0.14120267021 -0.61976438023 0.77198051719 -0.14409699245 -0.61368376861 0.77629136856 
-0.16172112812 -0.58241667334 0.79664113334 -0.43587392721 -0.18125505022 0.88156708556 -0.93684090031 0.27880506203 0.2111796981 
-0.97181625818 0.23432767439 -0.025762401754 -0.9738729172 0.21477978964 -0.073764375637 -0.97391380952 0.21409747153 -0.07519417743 
-0.97285516105 0.22591347538 -0.050159119483 -0.96844502132 0.24901266982 0.010340742317 -0.95505228432 0.26885010665 0.12487895889 
-0.9322045524 0.24372667353 0.26756677875 -0.91852164281 0.19196003126 0.34564336834 -0.91685208337 0.17521794078 0.35872124337 
-0.91677875548 0.19119726635 0.35065698175 -0.91443423152 0.2187857394 0.34050379802 -0.91150661585 0.23921409458 0.3345628584 
-0.91201266988 0.23624650206 0.33529163462 -0.91826623517 0.19551516428 0.34432679517 -0.92549131591 0.104779846 0.3639876482 
-0.91692695927 -0.038036861711 0.39723815089 -0.87050102231 -0.20995934826 0.44513485849 -0.78265802929 -0.36633333142 0.50323582889 
-0.6791512808 -0.4726607196 0.5615562144 -0.59195435302 -0.52685494867 0.60992942788 -0.53471782103 -0.54765484255 0.64354566684 
-0.50426784481 -0.55334332377 0.66296689716 -0.48941608385 -0.55433060272 0.67319349355 -0.47886515828 -0.55421334348 0.6808345835 
-0.46442823105 -0.55336148188 0.69144594046 -0.44323297043 -0.55141263011 0.7067451063 -0.41986031786 -0.54859511724 0.7230219297 
-0.40498925107 -0.54644393673 0.73306393345 -0.41031283076 -0.54726044197 0.7294857021 -0.44639043086 -0.55190234467 0.70437162435 
-0.52406798908 -0.55545170169 0.64562074774 -0.6478991816 -0.53934857745 0.53789382083 -0.79459138832 -0.47338847206 0.3801682261 
-0.9102964043 -0.35658254343 0.21026018653 -0.97104585944 -0.22924146535 0.067218222436 -0.99215624508 -0.11563377757 -0.04748489061 
-0.98923277465 -0.017950825405 -0.14524560384 -0.9700281476 0.065833866886 -0.23390445666 -0.93884509542 0.13609830331 -0.31630228996 
-0.89642283646 0.19664171038 -0.39718778432 -0.85373849052 0.23967474737 -0.46226248526 -0.79810530213 0.2861670411 -0.53022292605 
-0.79810530213 0.2861670411 -0.53022292605 
