# vtk DataFile Version 4.2
vtk output
ASCII
DATASET POLYDATA
POINTS 64 float
0 0 0 -0.998927 0.277719 -0.0748548 -1.95624 0.392658 0.104695 
-2.91647 0.335197 0.456845 -3.78797 0.0812608 0.904121 -4.58812 -0.337627 1.36678 
-5.32465 -0.887645 1.7957 -6.0196 -1.53066 2.1601 -6.69798 -2.23251 2.43654 
-7.37931 -2.96705 2.5957 -8.05569 -3.72295 2.59378 -8.66161 -4.5062 2.37498 
-9.06023 -5.31558 1.91468 -9.15444 -6.11634 1.30067 -9.00785 -6.88526 0.655465 
-8.72852 -7.6341 0.0308697 -8.3845 -8.38335 -0.563844 -8.01304 -9.1471 -1.09698 
-7.63529 -9.98461 -1.64249 -7.24814 -10.6982 -1.28072 -7.15114 -10.4029 -0.328478 
-7.07731 -9.93759 0.568829 -6.98949 -9.45039 1.45604 -6.88501 -9.00572 2.36147 
-6.77537 -8.67487 3.31422 -6.68095 -8.62686 4.32306 -6.62176 -9.04621 5.23976 
-6.57075 -9.80721 5.90779 -6.49331 -10.7011 6.38082 -6.38313 -11.6441 6.73853 
-6.25032 -12.6074 7.02794 -6.11314 -13.5811 7.27797 -5.99156 -14.5616 7.50876 
-5.89986 -15.546 7.73654 -5.8372 -16.5294 7.97817 -5.78258 -17.504 8.25519 
-5.69196 -18.455 8.59675 -5.4995 -19.3479 9.03768 -5.13931 -20.1132 9.59632 
-4.60031 -20.6795 10.2417 -3.93198 -21.0347 10.9168 -3.19208 -21.2201 11.5856 
-2.41894 -21.2881 12.2389 -1.63319 -21.2813 12.8807 -0.844201 -21.2284 13.5164 
-0.0548828 -21.146 14.1486 0.734585 -21.0389 14.7768 1.52439 -20.9011 15.3986 
2.31346 -20.7202 16.0102 3.09935 -20.4852 16.6072 3.88006 -20.1944 17.1863 
4.65751 -19.8618 17.747 5.4391 -19.5152 18.2932 6.23532 -19.1926 18.833 
7.05443 -18.9441 19.3776 7.89204 -18.8348 19.9391 8.71508 -18.9336 20.5231 
9.4609 -19.2705 21.1218 10.0735 -19.8092 21.7242 10.5251 -20.4844 22.3321 
10.8043 -21.23 22.9572 10.8739 -21.9908 23.6387 10.726 -22.6595 24.3425 
10.2709 -23.1612 25.1305 
LINES 1 65
64 0 1 2 3 4 5 6 7 8 9 10 11 12 13 14 15 16 17 18 19 20 21 22 23 24 25 26 27 28 29 30 31 32 33 34 35 36 37 38 39 40 41 42 43 44 45 46 47 48 49 50 51 52 53 54 55 56 57 58 59 60 61 62 63 

POINT_DATA 64
SCALARS MaximumInscribedSphereRadius float
LOOKUP_TABLE default
1.55 1.36514 1.24 1.24 1.24 1.24 1.24 1.24 1.24143 
1.26202 1.26911 1.13091 1.16441 1.4887 1.31483 1.01804 1.05265 1.18777 
1.24 1.27476 1.48756 1.55 1.56839 1.67843 1.77603 1.64662 1.55578 
1.58115 1.75325 1.79151 1.63176 1.55034 1.55 1.45681 1.29957 1.34583 
1.47873 1.41918 1.39997 1.65429 1.94329 2.19827 1.96395 1.67623 1.85191 
2.06665 2.00547 1.95907 2.09786 2.33788 2.62405 2.59043 2.27572 2.04948 
1.90885 2.0157 2.23016 2.6125 2.68783 2.3384 2.28486 2.44811 2.34863 
2.17 
TEXTURE_COORDINATES TCoords 2 float
0 0 0.015873 0 0.031746 0 0.047619 0 0.0634921 
0 0.0793651 0 0.0952381 0 0.111111 0 0.126984 0 
0.142857 0 0.15873 0 0.174603 0 0.190476 0 0.206349 
0 0.222222 0 0.238095 0 0.253968 0 0.269841 0 
0.285714 0 0.301587 0 0.31746 0 0.333333 0 0.349206 
0 0.365079 0 0.380952 0 0.396825 0 0.412698 0 
0.428571 0 0.444444 0 0.460317 0 0.47619 0 0.492063 
0 0.507937 0 0.52381 0 0.539683 0 0.555556 0 
0.571429 0 0.587302 0 0.603175 0 0.619048 0 0.634921 
0 0.650794 0 0.666667 0 0.68254 0 0.698413 0 
0.714286 0 0.730159 0 0.746032 0 0.761905 0 0.777778 
0 0.793651 0 0.809524 0 0.825397 0 0.84127 0 
0.857143 0 0.873016 0 0.888889 0 0.904762 0 0.920635 
0 0.936508 0 0.952381 0 0.968254 0 0.984127 0 
1 0 
FIELD FieldData 4
Curvature 1 64 float
0.245409 0.251474 0.231459 0.198607 0.165068 0.135046 0.107202 0.0919458 0.108897 
0.151497 0.21088 0.281773 0.306195 0.239733 0.144114 0.0709245 0.0696043 0.198613 
0.845011 1.03176 0.258496 0.0829882 0.0466637 0.142089 0.288616 0.432265 0.383156 
0.229193 0.131056 0.0733268 0.0380813 0.0248114 0.0279503 0.0301634 0.0356381 0.0730887 
0.140879 0.213032 0.2437 0.218249 0.164894 0.110206 0.0671166 0.0402381 0.0274161 
0.0247197 0.0288656 0.038604 0.0493519 0.0533567 0.0426818 0.0231156 0.0277286 0.0703694 
0.126686 0.185198 0.221384 0.211887 0.185134 0.166851 0.179334 0.228917 0.293611 
0.321014 
Torsion 1 64 float
0.105243 0.163097 0.212913 0.22906 0.221007 0.225541 0.293737 0.371006 0.193256 
-0.0640709 -0.210017 -0.242956 -0.197756 -0.130181 -0.12879 -0.310923 -0.375846 -0.0380462 
0.0587283 0.0948737 0.0453688 0.208461 0.697003 0.0847237 0.0211171 -0.0441379 -0.103863 
-0.112976 -0.0750309 0.0407268 0.410031 0.701984 0.488119 0.548709 0.719231 0.327306 
0.128562 0.0624893 0.0360429 0.0211182 0.00185885 -0.0286226 -0.0609792 -0.0605237 -0.0100099 
0.0325782 0.0139403 -0.00429187 0.00185264 0.0333991 0.157227 0.92056 1.19771 0.18549 
0.0963498 0.0847888 0.0957249 0.127717 0.180105 0.244605 0.237582 0.166474 0.101013 
0.0559552 
Abscissas 1 64 double
0 1.0395127662 2.0202726194 3.0446541027 4.0566065046 5.0713778943 6.0857584942 7.1002625547 8.1147655126 
9.129206808 10.143536534 11.157686582 12.170539163 13.183997516 14.198402703 15.212755225 16.229318532 17.232081237 
18.300585918 19.18935613 20.191025997 21.204513138 22.220495098 23.234617044 24.249120256 25.26350999 26.273303492 
27.287199566 28.301540887 29.316070713 30.330642105 31.345245025 32.359844513 33.374436237 34.389030643 35.403620486 
36.418165862 37.432463078 38.446101798 39.459883014 40.47406692 41.488491955 42.503015383 43.517587617 44.532181389 
45.546781707 46.561381713 47.575974778 48.59055536 49.605125029 50.619698405 51.634293926 52.64890369 53.663495578 
54.678000102 55.692315416 56.706352762 57.720325692 58.734396655 59.74900443 60.761254059 61.784985565 62.767019691 
63.806072144 
ParallelTransportNormals 3 64 double
-0.074725649141 0 0.99720413024 0.17828368649 -0.05020305767 0.98269760361 0.34670845666 -0.055581238471 0.93632471505 
0.46447863104 -0.035477086311 0.88487342465 0.50757326328 -0.01813882447 0.86141764868 0.51178828645 -0.015481087098 0.85897211002 
0.4889633388 -0.034503765729 0.8716216745 0.44444774116 -0.078096582678 0.89239404366 0.37588321225 -0.15052839678 0.91435934539 
0.28145024911 -0.2541934205 0.92529533785 0.1716478578 -0.38598957928 0.90639343422 0.084746843785 -0.52378476505 0.84762461761 
0.057817662783 -0.61175038647 0.78893509399 0.058595154435 -0.63510185534 0.77020272735 0.056330261285 -0.62703091858 0.77695503654 
0.048135151462 -0.60733372891 0.79298723125 0.027271626763 -0.56322351274 0.82585442608 0.016597099457 -0.54043624142 0.8412212582 
-0.37585794698 0.24865788563 0.89269258964 -0.77124206423 0.62597394949 -0.11550884347 -0.78227196832 0.57696960647 -0.23485450984 
-0.78258843767 0.57510459164 -0.23834858065 -0.77867733351 0.59405493536 -0.20189191183 -0.77019963273 0.62476092659 -0.12832112203 
-0.75277386446 0.65711176506 0.039187207221 -0.73016970026 0.6022829523 0.32265686756 -0.71444197083 0.4339385988 0.54888064531 
-0.70281921912 0.28419101191 0.6521354261 -0.69255606957 0.1837089346 0.69757947064 -0.68463004632 0.12152892855 0.7186879846 
-0.68035831977 0.090882431207 0.72722275846 -0.67985711377 0.087097190781 0.72815409373 -0.68169811446 0.10405815566 0.72419581674 
-0.68394413923 0.13269096803 0.71736568179 -0.6857707752 0.16318576388 0.70928756534 -0.68753226716 0.18653869193 0.70178536464 
-0.68899179811 0.19604549685 0.69775100523 -0.68669915505 0.18916739478 0.70189740504 -0.67588442566 0.17315205408 0.71637881691 
-0.65824777804 0.15969020549 0.73566901592 -0.6412255213 0.15315521146 0.75191310139 -0.63022870252 0.1513132558 0.76152221316 
-0.62612362325 0.15115212293 0.76493283636 -0.62630440513 0.15114527394 0.76478617814 -0.62749651975 0.15104310675 0.76382857867 
-0.62799955052 0.15098270696 0.76342700158 -0.62760755295 0.15104350049 0.76373727187 -0.62698297647 0.15116953918 0.7642251747 
-0.62628322423 0.15135432101 0.76476218039 -0.62468720232 0.15189002138 0.76596039105 -0.62036862679 0.15361776429 0.76911920363 
-0.61167705664 0.15740450394 0.77529026856 -0.59806184358 0.16317903194 0.78466211505 -0.58074272549 0.16930170039 0.79628815201 
-0.56391255619 0.17293618885 0.80752442908 -0.55610923003 0.17298552821 0.81290745556 -0.56667359306 0.17591894098 0.80494320615 
-0.59544547011 0.19446453604 0.77950512272 -0.63398580469 0.23842708827 0.73567283695 -0.67171259254 0.31180283649 0.67199790489 
-0.70127422002 0.43900309805 0.56168563115 -0.69250980797 0.59005844727 0.41504360574 -0.59136193731 0.7900560051 0.1615628915 
-0.59136193731 0.7900560051 0.1615628915 
