# vtk DataFile Version 4.2
vtk output
ASCII
DATASET POLYDATA
POINTS 64 float
0 0 0 -0.620457 0.700852 0.46701 -1.32871 1.1861 0.926817 
-2.16019 1.54045 1.40911 -3.04871 1.7166 1.86186 -3.97688 1.73325 2.27056 
-4.92212 1.59444 2.61101 -5.86272 1.30402 2.85467 -6.77255 0.870643 2.96706 
-7.6205 0.317279 2.91385 -8.37694 -0.314295 2.67517 -9.02467 -0.974528 2.25936 
-9.54764 -1.63576 1.6957 -9.91717 -2.3016 1.02595 -10.1132 -2.97826 0.296429 
-10.1364 -3.6608 -0.453412 -10.0069 -4.33824 -1.19718 -9.75457 -5.0026 -1.9211 
-9.40851 -5.65247 -2.61906 -8.99247 -6.29221 -3.28759 -8.52418 -6.93094 -3.92173 
-8.01697 -7.58273 -4.51063 -7.48084 -8.27352 -5.02597 -6.93266 -9.05212 -5.37893 
-6.51844 -9.92562 -5.19361 -6.53238 -10.4785 -4.3372 -6.75117 -10.7402 -3.38259 
-7.02458 -10.9202 -2.42225 -7.3155 -11.0843 -1.4642 -7.60254 -11.2772 -0.510381 
-7.8674 -11.5385 0.433404 -8.0912 -11.9047 1.35252 -8.25497 -12.4 2.2223 
-8.34665 -13.0222 3.01796 -8.36622 -13.7417 3.73277 -8.32026 -14.521 4.38063 
-8.21286 -15.3304 4.98284 -8.04154 -16.1477 5.55897 -7.79622 -16.9552 6.12206 
-7.46036 -17.7352 6.67689 -7.01676 -18.4687 7.21931 -6.4547 -19.1344 7.73869 
-5.77608 -19.7118 8.22333 -4.9989 -20.1881 8.66825 -4.14908 -20.56 9.07881 
-3.25229 -20.83 9.46866 -2.33083 -21.0046 9.85546 -1.40394 -21.0941 10.2581 
-0.487973 -21.1158 10.6938 0.404986 -21.0949 11.1749 1.26751 -21.063 11.7082 
2.09497 -21.0544 12.2951 2.88473 -21.1028 12.93 3.63575 -21.2364 13.5988 
4.3477 -21.4738 14.2813 5.01999 -21.822 14.9564 5.65048 -22.2777 15.6075 
6.23403 -22.8319 16.2251 6.76118 -23.4746 16.8066 7.21706 -24.1971 17.3538 
7.58073 -24.9894 17.8692 7.82083 -25.8556 18.3616 7.91703 -26.7178 18.8038 
7.81347 -27.6615 19.2434 
LINES 1 65
64 0 1 2 3 4 5 6 7 8 9 10 11 12 13 14 15 16 17 18 19 20 21 22 23 24 25 26 27 28 29 30 31 32 33 34 35 36 37 38 39 40 41 42 43 44 45 46 47 48 49 50 51 52 53 54 55 56 57 58 59 60 61 62 63 

POINT_DATA 64
SCALARS MaximumInscribedSphereRadius float
LOOKUP_TABLE default
1.116 1.20259 1.22058 1.07838 1.0668 1.22371 1.25878 1.16917 0.986963 
1.35439 1.56288 1.50863 1.54957 1.83791 1.71487 1.44193 1.17655 1.116 
1.18306 1.46566 1.58946 1.40055 1.36622 1.51202 1.3577 1.6287 2.04069 
2.0407 1.86029 1.68162 1.701 2.02861 2.17 2.17 2.17 2.17 
2.16773 2.03663 1.89405 1.86 1.86 1.86094 1.87167 1.87843 1.86769 
1.92224 2.02666 1.98688 1.98845 2.27351 2.40258 2.21633 2.0291 1.96288 
2.27065 2.52847 2.61595 2.56018 2.46294 2.68291 2.72786 2.33574 2.18491 
2.17 
TEXTURE_COORDINATES TCoords 2 float
0 0 0.015873 0 0.031746 0 0.047619 0 0.0634921 
0 0.0793651 0 0.0952381 0 0.111111 0 0.126984 0 
0.142857 0 0.15873 0 0.174603 0 0.190476 0 0.206349 
0 0.222222 0 0.238095 0 0.253968 0 0.269841 0 
0.285714 0 0.301587 0 0.31746 0 0.333333 0 0.349206 
0 0.365079 0 0.380952 0 0.396825 0 0.412698 0 
0.428571 0 0.444444 0 0.460317 0 0.47619 0 0.492063 
0 0.507937 0 0.52381 0 0.539683 0 0.555556 0 
0.571429 0 0.587302 0 0.603175 0 0.619048 0 0.634921 
0 0.650794 0 0.666667 0 0.68254 0 0.698413 0 
0.714286 0 0.730159 0 0.746032 0 0.761905 0 0.777778 
0 0.793651 0 0.809524 0 0.825397 0 0.84127 0 
0.857143 0 0.873016 0 0.888889 0 0.904762 0 0.920635 
0 0.936508 0 0.952381 0 0.968254 0 0.984127 0 
1 0 
FIELD FieldData 4
Curvature 1 64 float
0.172899 0.168713 0.158085 0.146467 0.139285 0.141303 0.153061 0.169462 0.183196 
0.185746 0.170187 0.156548 0.157506 0.161963 0.158485 0.142759 0.118995 0.0924719 
0.0672568 0.0513288 0.0613263 0.110875 0.222921 0.523682 0.789697 0.367942 0.144227 
0.053083 0.0289149 0.0608463 0.0969924 0.124119 0.13286 0.117852 0.0916197 0.0677696 
0.0553646 0.0609487 0.0771175 0.0956729 0.111783 0.120934 0.117892 0.106333 0.0920376 
0.0793824 0.0698991 0.0617205 0.0540723 0.0499448 0.0555389 0.067576 0.0801247 0.0899033 
0.0951949 0.0948967 0.0917311 0.0888914 0.089722 0.0971453 0.111622 0.131038 0.151702 
0.167646 
Torsion 1 64 float
0.0154436 0.0220664 0.0309106 0.0423111 0.0553629 0.0674746 0.0762852 0.0835964 0.0956998 
0.094401 0.0705189 -0.0862773 -0.168694 -0.114108 -0.0522752 -0.020397 -0.0159679 -0.0347401 
-0.0911125 -0.213567 -0.218992 -0.109387 -0.0490008 -0.0234198 -0.0123784 -0.0102161 -0.021824 
-0.0958445 -0.300999 -0.0523719 -0.0137546 -0.0107606 -0.0228765 -0.0585056 -0.12426 -0.224238 
-0.298957 -0.196159 -0.0751481 -0.0143715 -0.00167383 -0.0141186 -0.0464113 -0.0913161 -0.142455 
-0.194981 -0.243626 -0.294776 -0.370195 -0.439603 -0.379791 -0.276337 -0.199702 -0.145323 
-0.097966 -0.0452759 0.0117909 0.0665547 0.106845 0.11718 0.105024 0.0861354 0.0663441 
0.0489743 
Abscissas 1 64 double
0 1.0460681245 2.0199857316 3.0444512335 4.057112353 5.0714125682 6.0856371595 7.0997641873 8.1137819678 
9.1277124773 10.141646638 11.155726852 12.169845895 13.183977564 14.198129006 15.212352737 16.226692285 17.241141389 
18.255650234 19.270188234 20.284789921 21.299126952 22.314118179 23.329646015 24.313986295 25.333446242 26.347163111 
27.361763094 28.376371272 29.390947585 30.405435907 31.419783894 32.434013659 33.448254509 34.462640765 35.477137664 
36.491675306 37.506218355 38.520734053 39.535185072 40.549557106 41.563864137 42.578151249 43.592488094 44.606891362 
45.621349055 46.635836053 47.650349849 48.664884343 49.679437162 50.693989551 51.708520813 52.723010077 53.73745691 
54.751875779 55.766287158 56.780709883 57.795135837 58.809606327 59.82412734 60.836866729 61.861804118 62.835587598 
63.881713851 
ParallelTransportNormals 3 64 double
-0.74874603122 -0.66285698361 0 -0.60558890911 -0.78952083564 -0.099593791235 -0.47259410539 -0.86247511177 -0.18108421555 
-0.31613108881 -0.91062967507 -0.26611037103 -0.16529373639 -0.92664854168 -0.33763954288 -0.0094624351546 -0.91648632606 -0.39995409295 
0.15466629101 -0.87912875773 -0.45078926979 0.32688377239 -0.81176535183 -0.48392562746 0.49784905549 -0.71579213307 -0.48968146808 
0.64974977185 -0.60360448876 -0.46204637768 0.76693220503 -0.4957997996 -0.40742797106 0.85677022363 -0.39439213278 -0.332264397 
0.93052177053 -0.28473054524 -0.23034268206 0.97994708676 -0.16741068096 -0.10806188528 0.99847504133 -0.052530517309 0.016974586614 
0.9905612511 0.048683672154 0.12813394509 0.96731654297 0.1303740911 0.21748862514 0.93869777988 0.19323248565 0.28549550703 
0.91050192578 0.24094569707 0.3360526956 0.88497213858 0.2778538467 0.37365967647 0.8623355882 0.30780023 0.40204023646 
0.84076176459 0.33556177624 0.4248740396 0.81443005386 0.37124428611 0.44596117252 0.7637175497 0.45856602857 0.45437066556 
0.73317199923 0.56583107603 0.37721878657 0.73921377778 0.58690284441 0.33031506468 0.74147786563 0.58893500728 0.32150603724 
0.74028778353 0.58820924516 0.32555165714 0.73595717409 0.5855344179 0.33987715921 0.72865839859 0.57952731092 0.36497264838 
0.71917988946 0.56735605118 0.40110771345 0.70972472494 0.54634091804 0.4447498354 0.70333044578 0.51836666073 0.48643837132 
0.70121061322 0.49280067447 0.51521953685 0.70144257677 0.47962271326 0.52720049736 0.70109775443 0.48319499969 0.52438967477 
0.6973965458 0.50479652597 0.50874210094 0.68727204747 0.54427884895 0.48105890217 0.6665657395 0.60083808071 0.44122977653 
0.63071449569 0.67045064407 0.39076227913 0.57614529427 0.74637092849 0.33314717017 0.50248532888 0.82017413738 0.2735377097 
0.41605871161 0.88273293221 0.2183522816 0.32474055548 0.93033807716 0.1703368246 0.23415655418 0.96362585816 0.12882512808 
0.14794012109 0.98470809838 0.091998269293 0.070574655191 0.99576274673 0.058955663675 0.0089613609126 0.99948142447 0.0309285653 
-0.02954065965 0.99949840212 0.011414621389 -0.040202532529 0.99917773931 0.0052537275165 -0.022457513049 0.9996029791 0.017016000947 
0.021045680165 0.99853323325 0.049884481052 0.084260891262 0.99106736117 0.103371117 0.15894833752 0.97212611386 0.1723549963 
0.23673462383 0.93921855871 0.24864677127 0.3109523881 0.89342240973 0.32419902857 0.37809092911 0.83757365478 0.39435722656 
0.43746039512 0.77359590515 0.45845150042 0.48948686376 0.70134344173 0.51818914206 0.53378900447 0.61944700007 0.57563418315 
0.57013922624 0.51974265617 0.63624589119 0.58938395816 0.41974205959 0.690248617 0.58936860195 0.28709536197 0.75512972671 
0.58936860195 0.28709536197 0.75512972671 
