# vtk DataFile Version 4.2
vtk output
ASCII
DATASET POLYDATA
POINTS 64 float
0 0 0 -0.796869 0.194942 0.335844 -1.90585 0.434772 0.738874 
-2.81409 0.563252 0.952673 -3.82871 0.616164 1.09173 -4.84756 0.486334 1.08608 
-5.74492 0.0451655 0.959118 -6.44459 -0.687676 0.823048 -6.95643 -1.56418 0.792531 
-7.39964 -2.47392 0.875966 -7.84618 -3.36846 1.04882 -8.32865 -4.23188 1.27605 
-8.86403 -5.05918 1.51826 -9.45827 -5.85342 1.73307 -10.1112 -6.61737 1.87635 
-10.8143 -7.34916 1.90581 -11.5481 -8.04134 1.78873 -12.284 -8.68675 1.51937 
-12.9971 -9.28596 1.11487 -13.6701 -9.84804 0.603646 -14.2927 -10.387 0.0104291 
-14.8534 -10.9175 -0.648616 -15.332 -11.4526 -1.36626 -15.6919 -12.0019 -2.14101 
-15.8726 -12.5663 -2.96696 -15.826 -13.1317 -3.80919 -15.5488 -13.6798 -4.61953 
-15.0914 -14.2011 -5.36128 -14.511 -14.7003 -6.02822 -13.8502 -15.1868 -6.6255 
-13.1351 -15.6706 -7.15892 -12.3817 -16.1609 -7.6295 -11.5989 -16.6686 -8.03039 
-10.7962 -17.2042 -8.34242 -9.9844 -17.7838 -8.52409 -9.1848 -18.4315 -8.48877 
-8.54874 -19.0849 -8.06046 -8.22497 -19.6018 -7.23389 -8.22003 -19.8585 -6.25052 
-8.37115 -19.9403 -5.24575 -8.58217 -19.9259 -4.25489 -8.82324 -19.8575 -3.27132 
-9.07465 -19.7675 -2.29238 -9.32744 -19.6802 -1.31374 -9.5768 -19.6174 -0.332181 
-9.81928 -19.6013 0.653001 -10.0521 -19.6553 1.63938 -10.2717 -19.8032 2.61922 
-10.4742 -20.063 3.57937 -10.6559 -20.4416 4.50364 -10.8151 -20.9311 5.37848 
-10.9517 -21.5146 6.1977 -11.0674 -22.1723 6.96196 -11.1637 -22.8863 7.6766 
-11.2418 -23.6428 8.34852 -11.3013 -24.4314 8.98399 -11.3393 -25.2457 9.58807 
-11.3503 -26.0826 10.1639 -11.3297 -26.933 10.7098 -11.2602 -27.8083 11.2287 
-11.1317 -28.7012 11.715 -10.9684 -29.5297 12.1355 -10.6026 -30.5841 12.5821 
-10.2726 -31.3541 12.8747 
LINES 1 65
64 0 1 2 3 4 5 6 7 8 9 10 11 12 13 14 15 16 17 18 19 20 21 22 23 24 25 26 27 28 29 30 31 32 33 34 35 36 37 38 39 40 41 42 43 44 45 46 47 48 49 50 51 52 53 54 55 56 57 58 59 60 61 62 63 

POINT_DATA 64
SCALARS MaximumInscribedSphereRadius float
LOOKUP_TABLE default
1.24 1.24 1.24 1.25433 1.31018 1.45504 1.36341 1.07979 0.955188 
0.949119 1.04425 1.23027 1.32941 1.32087 1.31216 1.4146 1.66717 1.91884 
2.16021 2.39206 2.37652 2.28363 2.16688 2.1267 2.0494 1.92533 1.74135 
1.65471 1.59487 1.54104 1.45589 1.36163 1.4643 1.79494 2.30993 2.21902 
1.99061 1.86 1.86 1.86 1.89136 1.98869 2.10863 2.16411 2.1675 
2.15529 2.04632 1.95891 1.93477 2.06551 2.13777 2.17 2.17 2.17 
2.17 2.17 2.17 2.17 2.21361 2.30644 2.42413 2.39218 2.29358 
2.17 
TEXTURE_COORDINATES TCoords 2 float
0 0 0.015873 0 0.031746 0 0.047619 0 0.0634921 
0 0.0793651 0 0.0952381 0 0.111111 0 0.126984 0 
0.142857 0 0.15873 0 0.174603 0 0.190476 0 0.206349 
0 0.222222 0 0.238095 0 0.253968 0 0.269841 0 
0.285714 0 0.301587 0 0.31746 0 0.333333 0 0.349206 
0 0.365079 0 0.380952 0 0.396825 0 0.412698 0 
0.428571 0 0.444444 0 0.460317 0 0.47619 0 0.492063 
0 0.507937 0 0.52381 0 0.539683 0 0.555556 0 
0.571429 0 0.587302 0 0.603175 0 0.619048 0 0.634921 
0 0.650794 0 0.666667 0 0.68254 0 0.698413 0 
0.714286 0 0.730159 0 0.746032 0 0.761905 0 0.777778 
0 0.793651 0 0.809524 0 0.825397 0 0.84127 0 
0.857143 0 0.873016 0 0.888889 0 0.904762 0 0.920635 
0 0.936508 0 0.952381 0 0.968254 0 0.984127 0 
1 0 
FIELD FieldData 4
Curvature 1 64 float
0.176011 0.211542 0.261 0.328728 0.425506 0.517669 0.494142 0.366845 0.240545 
0.17328 0.130168 0.10133 0.105438 0.134189 0.173244 0.209666 0.211835 0.194361 
0.163897 0.13412 0.128436 0.147264 0.191582 0.260189 0.303665 0.313432 0.278829 
0.219639 0.167233 0.12519 0.101369 0.115267 0.158874 0.236242 0.379884 0.596331 
0.704814 0.605578 0.367758 0.213268 0.112979 0.0491676 0.0256543 0.0359269 0.0690796 
0.10103 0.130612 0.154224 0.16969 0.167704 0.154421 0.134795 0.111556 0.0905534 
0.0739879 0.0628706 0.060296 0.0669886 0.0787941 0.0949918 0.115858 0.138881 0.162136 
0.184515 
Torsion 1 64 float
0.020371 0.0317357 0.0533406 0.0937813 0.17124 0.342612 0.486067 0.567754 0.520889 
0.482334 0.528208 0.675131 0.650233 0.468777 0.26228 0.162345 0.136727 0.147567 
0.191854 0.274396 0.290761 0.23495 0.116495 0.0726396 0.0689585 0.0804003 0.0902192 
0.10552 0.138641 0.18782 0.252166 0.202444 0.132785 0.064637 0.0252898 -0.0266423 
-0.0805675 -0.12716 -0.105184 -0.0781028 -0.0387067 0.0218444 0.226785 0.172782 -0.0253376 
-0.0249116 -0.019516 -0.0139511 -0.00919186 -0.00275059 0.00481914 0.0150137 0.0293072 0.0634693 
0.117895 0.177536 0.211385 0.18174 0.13935 0.0964449 0.0685314 0.0514066 0.0399347 
0.0317031 
Abscissas 1 64 double
0 0.88644990758 2.0905222723 3.0323939704 4.0578574175 5.0849621687 6.0929403006 7.1152428005 8.1307041977 
9.1460996749 10.160739573 11.175573053 12.190326658 13.205261912 14.220345762 15.235617532 16.251143433 17.266391662 
18.281809459 19.29680963 20.311743744 21.326673762 22.341788684 23.357390829 24.373963158 25.389423567 26.406256521 
27.421711238 28.437020861 29.451996291 30.466809513 31.481428487 32.496983194 33.511143719 34.524990191 35.554622158 
36.562098512 37.589328495 38.605651299 39.625023865 40.638198832 41.653192948 42.66789889 43.682423015 44.697106876 
45.71181959 46.726743039 47.74172849 48.756807571 49.772009295 50.78704416 51.802086675 52.816977735 53.831722762 
54.846532874 55.861085662 56.875707923 57.891591801 58.902357119 59.922322942 60.947086391 61.890495679 63.092558598 
63.979911541 
ParallelTransportNormals 3 64 double
0.38837197669 0 0.92150269002 0.34352042511 0.010328235214 0.93908841176 0.2330500838 0.029992253693 0.97200212097 
0.13768676583 0.039169150338 0.98970103172 -0.009821470318 0.033600073263 0.99938709907 -0.13779782889 -0.0047528331788 0.99044897341 
-0.16549068702 -0.025056962062 0.98589298667 -0.11994258939 0.035498050909 0.99214598907 -0.071720857182 0.12568829513 0.98947388602 
-0.032492254564 0.20523745534 0.97817270475 -0.0050610505412 0.2571453524 0.96635948462 0.0068296027713 0.27689642709 0.96087549932 
-0.0028217181317 0.26304211819 0.9647802247 -0.039744274302 0.21690986039 0.9753822354 -0.10714571792 0.14256309809 0.98396928722 
-0.20194208905 0.048620664743 0.97818987095 -0.30683868442 -0.046843675129 0.95060806426 -0.40407868671 -0.13036943221 0.90538623034 
-0.48346316809 -0.19688143979 0.85293672905 -0.54576973419 -0.24983200585 0.79982458458 -0.5967565192 -0.2959125631 0.74586688611 
-0.64290907799 -0.34322888234 0.68473487699 -0.68808029134 -0.40164745244 0.60433834614 -0.72717104277 -0.48217520583 0.4885993711 
-0.73853616537 -0.57796134595 0.34716712839 -0.71167051662 -0.67039867331 0.20997784311 -0.66429595369 -0.73934448882 0.10991184086 
-0.61887850043 -0.78400253422 0.048264148617 -0.58486015133 -0.81101986619 0.013615433701 -0.56270004765 -0.82664837464 -0.0045957678147 
-0.55092642546 -0.8344580071 -0.012645478225 -0.54902480702 -0.83569336834 -0.013724262617 -0.55767073055 -0.83000396911 -0.0098370497673 
-0.58141394657 -0.81360382437 -0.0025767626116 -0.62949054104 -0.77700596826 0.0018395713335 -0.70847638141 -0.70532853195 -0.023934891099 
-0.76541238304 -0.63604838504 -0.097909834941 -0.77584834468 -0.61140614516 -0.15569801449 -0.77507395634 -0.60960833065 -0.16624694104 
-0.7768298111 -0.60993390558 -0.15657610101 -0.77869384405 -0.60959249403 -0.1484347953 -0.7797419921 -0.60925531777 -0.14425804492 
-0.77906510415 -0.60949326828 -0.14688607631 -0.77618442587 -0.61035419374 -0.15813125948 -0.770795947 -0.61121948357 -0.17967846558 
-0.76265810383 -0.61057205692 -0.21343472063 -0.75194210113 -0.60578941345 -0.26000435209 -0.73961435561 -0.59388094816 -0.31666389814 
-0.72715808409 -0.57318304723 -0.37775959964 -0.71622910508 -0.54534919097 -0.43544245193 -0.70767787389 -0.51433095868 -0.48441272872 
-0.70155650682 -0.48421643655 -0.52283162711 -0.69746791993 -0.4577607877 -0.5513561117 -0.6949005361 -0.43611886369 -0.57176357147 
-0.69343512067 -0.41965718914 -0.58569239113 -0.69275577423 -0.4084938408 -0.5943250115 -0.69258372704 -0.40270567947 -0.59846129094 
-0.69259062912 -0.40151195523 -0.59925484584 -0.69226098969 -0.40784123589 -0.59534884602 -0.69090922104 -0.41992586457 -0.58847830592 
-0.68895339956 -0.4313893192 -0.58244868316 -0.67750861416 -0.4734711639 -0.56285622916 -0.6684612431 -0.49681543147 -0.55347447414 
-0.6684612431 -0.49681543147 -0.55347447414 
