# vtk DataFile Version 4.2
vtk output
ASCII
DATASET POLYDATA
POINTS 64 float
0 0 0 -0.665716 0.596232 0.539387 -1.37889 0.736946 1.19718 
-2.11617 0.574811 1.87765 -2.82817 0.194502 2.49148 -3.5246 -0.325511 3.01402 
-4.21624 -0.943739 3.4239 -4.90737 -1.63854 3.68433 -5.57813 -2.3963 3.71063 
-6.08671 -3.15501 3.29139 -6.10395 -3.64948 2.41506 -5.74338 -3.87552 1.49453 
-5.23315 -4.02275 0.63027 -4.65889 -4.18594 -0.18997 -4.06259 -4.41944 -0.976723 
-3.47776 -4.76819 -1.72844 -2.95101 -5.28489 -2.42309 -2.58626 -6.04658 -2.97851 
-2.68287 -7.02832 -3.07925 -3.27491 -7.67845 -2.58113 -3.97059 -7.9198 -1.88552 
-4.65469 -7.91624 -1.13729 -5.29203 -7.74081 -0.36822 -5.855 -7.43619 0.418509 
-6.30561 -7.04102 1.23667 -6.57396 -6.61875 2.11776 -6.52295 -6.33846 3.0864 
-6.09489 -6.50559 3.98148 -5.56359 -7.09556 4.61018 -5.10904 -7.903 5.02038 
-4.77411 -8.82778 5.26588 -4.56954 -9.81468 5.37722 -4.48795 -10.8256 5.38937 
-4.49508 -11.8397 5.3609 -4.52791 -12.8536 5.37297 -4.50026 -13.8586 5.50469 
-4.32842 -14.8176 5.78426 -3.97557 -15.6875 6.1668 -3.4553 -16.4507 6.58498 
-2.79944 -17.1064 6.99541 -2.03921 -17.6558 7.3812 -1.19968 -18.0954 7.74276 
-0.301419 -18.4124 8.09105 0.633678 -18.5853 8.44345 1.57673 -18.5915 8.81608 
2.4946 -18.4288 9.21537 3.36857 -18.1311 9.63546 4.20618 -17.7554 10.0673 
5.03192 -17.3622 10.5067 5.87262 -17.0135 10.9548 6.74302 -16.7731 11.4166 
7.63276 -16.7004 11.8973 8.50242 -16.8336 12.4008 9.29372 -17.1807 12.9306 
9.93892 -17.728 13.4883 10.3628 -18.446 14.0634 10.506 -19.277 14.6245 
10.371 -20.1426 15.1339 10.0335 -20.9883 15.5803 9.59461 -21.8079 15.9861 
9.1514 -22.6257 16.3917 8.82853 -23.474 16.8508 8.79389 -24.3004 17.3741 
9.21476 -25.0489 17.9693 
LINES 1 65
64 0 1 2 3 4 5 6 7 8 9 10 11 12 13 14 15 16 17 18 19 20 21 22 23 24 25 26 27 28 29 30 31 32 33 34 35 36 37 38 39 40 41 42 43 44 45 46 47 48 49 50 51 52 53 54 55 56 57 58 59 60 61 62 63 

POINT_DATA 64
SCALARS MaximumInscribedSphereRadius float
LOOKUP_TABLE default
0.62 0.824596 0.736767 0.62 0.726237 1.12281 1.08242 0.931767 1.06073 
1.35837 0.757202 0.915723 0.925806 0.894415 1.03897 1.25913 0.814741 0.669457 
1.06736 1.25641 1.62968 1.75608 1.54904 1.34456 1.24 1.40738 1.91281 
1.81072 1.07175 1.22392 1.64509 1.86633 1.82194 1.61048 1.55 1.39144 
1.24345 1.24 1.26942 1.45324 1.57096 1.5202 1.35624 1.56463 1.87855 
1.69891 1.41333 1.33854 1.58867 1.98349 2.17 2.11142 1.93866 1.9306 
1.92039 1.86 1.88554 2.06123 2.17 2.22154 2.41176 2.31444 2.07462 
1.86 
TEXTURE_COORDINATES TCoords 2 float
0 0 0.015873 0 0.031746 0 0.047619 0 0.0634921 
0 0.0793651 0 0.0952381 0 0.111111 0 0.126984 0 
0.142857 0 0.15873 0 0.174603 0 0.190476 0 0.206349 
0 0.222222 0 0.238095 0 0.253968 0 0.269841 0 
0.285714 0 0.301587 0 0.31746 0 0.333333 0 0.349206 
0 0.365079 0 0.380952 0 0.396825 0 0.412698 0 
0.428571 0 0.444444 0 0.460317 0 0.47619 0 0.492063 
0 0.507937 0 0.52381 0 0.539683 0 0.555556 0 
0.571429 0 0.587302 0 0.603175 0 0.619048 0 0.634921 
0 0.650794 0 0.666667 0 0.68254 0 0.698413 0 
0.714286 0 0.730159 0 0.746032 0 0.761905 0 0.777778 
0 0.793651 0 0.809524 0 0.825397 0 0.84127 0 
0.857143 0 0.873016 0 0.888889 0 0.904762 0 0.920635 
0 0.936508 0 0.952381 0 0.968254 0 0.984127 0 
1 0 
FIELD FieldData 4
Curvature 1 64 float
0.320797 0.326792 0.24951 0.169575 0.12479 0.108972 0.128752 0.206534 0.383995 
0.58265 0.381671 0.177005 0.0866954 0.0651812 0.0899377 0.15013 0.271512 0.539948 
0.679128 0.373942 0.199725 0.1358 0.109888 0.116217 0.170886 0.295062 0.464211 
0.393526 0.244726 0.174511 0.143876 0.117926 0.0770152 0.0573311 0.105166 0.1567 
0.169171 0.15335 0.130993 0.111998 0.0996556 0.0994076 0.109637 0.124268 0.126268 
0.105284 0.0652289 0.0233 0.0353489 0.0829746 0.124044 0.152116 0.167127 0.182028 
0.205085 0.221743 0.209178 0.159309 0.0837603 0.0331915 0.101182 0.240248 0.340735 
0.299236 
Torsion 1 64 float
-0.0345701 -0.0627827 -0.0916295 -0.121877 -0.154442 -0.158028 -0.0938194 -0.0176425 0.0384228 
0.0996228 0.110962 0.158461 0.318425 0.36075 0.163485 0.0655498 0.029023 0.0086313 
0.00230929 -0.0087429 -0.0355555 -0.0952853 -0.184864 -0.259674 -0.254132 -0.234505 -0.233503 
-0.192314 -0.134967 -0.0890519 -0.069167 -0.0985913 -0.350782 -0.670811 -0.286381 -0.189179 
-0.178125 -0.13817 -0.0735315 -0.00219991 0.068588 0.126301 0.129761 0.0974197 0.0578079 
0.0287209 0.0440588 1.04386 0.546982 -0.0280804 -0.0602212 -0.0864454 -0.105964 -0.0989417 
-0.0665498 -0.0324566 -0.0140106 -0.00380173 -0.0135302 -0.0706217 -0.0125781 -0.00302808 -0.00147792 
-0.000548079 
Abscissas 1 64 double
0 1.0438430482 2.0242015037 3.0405268611 4.05461081 5.068746064 6.0829380197 7.0969541166 8.109285647 
9.1143026666 10.120655038 11.13479061 12.149170629 13.163664877 14.178099951 15.192365984 16.205762381 17.216566228 
18.208179402 19.218763952 20.231728565 21.245566987 22.259691067 23.27392126 24.288121724 25.301353888 26.311022071 
27.317168071 28.329894398 29.343227727 30.356967083 31.37097988 32.385240367 33.399782184 34.414262243 35.428239487 
36.441811222 37.455539516 38.46948797 39.483625766 40.497860062 41.512131869 42.5263763 43.540510489 44.554534745 
45.56862148 46.582979684 47.597528902 48.612135693 49.626624805 50.640859005 51.654758884 52.668448016 53.682009017 
54.695323137 55.708266926 56.7210953 57.734466523 58.748588646 59.763034044 60.777772291 61.794945876 62.773726257 
63.818552434 
ParallelTransportNormals 3 64 double
0.62953253187 0 0.77697412525 0.67523937765 -0.023928626363 0.73721042024 0.680869858 -0.023866631776 0.7320154509 
0.66206556877 -0.030908056196 0.74880830304 0.62502253807 -0.054587270179 0.77869574087 0.57117272238 -0.098744801711 0.81486881481 
0.49404161147 -0.17198544174 0.85225811463 0.37370747533 -0.30033817119 0.8775760399 0.17056309233 -0.5616870425 0.80957760457 
0.04090880273 -0.87053804131 0.49039778597 0.083179295667 -0.95975220297 0.26824785865 0.10368579284 -0.96854281103 0.22621688613 
0.086776830125 -0.96370280508 0.25248105915 0.042273089916 -0.94862123371 0.31357732829 -0.026759345931 -0.91459046685 0.40349500041 
-0.1239723814 -0.83889439173 0.52998778116 -0.25784508442 -0.64683231424 0.71772130364 -0.34620424344 -0.061981874242 0.93610943222 
-0.053558270266 0.63759320132 0.76850922006 0.22366638303 0.82963573962 0.51154461061 0.38234500923 0.85699480462 0.34550282021 
0.49397742545 0.8418762958 0.21732603553 0.58158803645 0.8068379555 0.103768345 0.65175740693 0.75839201211 -0.0073374709112 
0.70081277474 0.70260919153 -0.12329549358 0.71322636598 0.6623919116 -0.22922719368 0.71596087302 0.66303251144 -0.21860447634 
0.79023039256 0.60450753898 -0.10053139799 0.87398854863 0.48579176895 -0.012262711208 0.93612047712 0.34947205089 0.03934130099 
0.97559137542 0.20961368681 0.065448991618 0.99399946862 0.081107787276 0.073393345954 0.99731516293 -0.0090533513797 0.072667066927 
0.99687455615 -0.031414292943 0.072486284969 0.99704789966 0.036293135929 0.067663092332 0.98178981456 0.18648793339 0.036207882057 
0.9305898537 0.36496007363 -0.028401916144 0.84749734889 0.52039007905 -0.10460597137 0.74858634664 0.63971934329 -0.17429183415 
0.64450766281 0.72829135595 -0.23281231376 0.53765257377 0.79435039967 -0.28273159084 0.42511018421 0.84334799054 -0.32870275041 
0.30332715622 0.87588957607 -0.3752467013 0.17384373543 0.88823237033 -0.42523124526 0.051489494225 0.87794497474 -0.47598471961 
-0.041650340852 0.85401629625 -0.51857633465 -0.093338159984 0.83367885872 -0.54430464669 -0.1026971954 0.8293524532 -0.54920651346 
-0.067671329148 0.84494575469 -0.53055373229 0.016406177514 0.87389223062 -0.48584277972 0.15039242156 0.89772321414 -0.41409558116 
0.3210879143 0.89184709306 -0.31860840212 0.5047055794 0.8387505334 -0.20437666413 0.68038145051 0.72937347954 -0.071382134673 
0.82713822027 0.55566548429 0.084132241975 0.91085274662 0.32696243901 0.2518786165 0.9119932462 0.092920142743 0.39954244575 
0.86367229126 -0.082121648457 0.49731902052 0.82207735869 -0.17134416118 0.54298249949 0.82035787717 -0.17453607898 0.54456414728 
0.86995380243 -0.066693607621 0.48860243996 0.92165796605 0.17926753534 0.34410716991 0.83657628327 0.54067520329 0.088376732355 
0.83657628327 0.54067520329 0.088376732355 
