# vtk DataFile Version 4.2
vtk output
ASCII
DATASET POLYDATA
POINTS 64 float
0 0 0 -0.964282 0.0922126 -0.393884 -1.88887 0.0187751 -0.71388 
-2.81636 -0.328809 -0.922136 -3.52199 -1.04499 -0.864963 -3.90063 -1.93258 -0.557469 
-4.1136 -2.82823 -0.131645 -4.29516 -3.71065 0.335054 -4.53078 -4.59414 0.774179 
-4.8916 -5.49653 1.05907 -5.35293 -6.39212 0.985832 -5.73625 -7.22076 0.547407 
-5.94846 -8.01511 -0.0458324 -5.99413 -8.82213 -0.658161 -5.89119 -9.64981 -1.23507 
-5.65664 -10.4827 -1.76417 -5.30418 -11.2946 -2.25953 -4.84189 -12.0508 -2.75217 
-4.27123 -12.6922 -3.29165 -3.60262 -13.0728 -3.96045 -3.17001 -12.608 -4.67765 
-3.52577 -11.6714 -4.66029 -4.08075 -10.9292 -4.2608 -4.65843 -10.3239 -3.68773 
-5.20444 -9.82574 -2.99338 -5.67554 -9.4358 -2.1848 -6.0019 -9.19395 -1.25695 
-6.0591 -9.19337 -0.248576 -5.77398 -9.51029 0.666693 -5.30385 -10.0842 1.35599 
-4.8304 -10.8324 1.8491 -4.44348 -11.6981 2.20839 -4.15979 -12.6307 2.48864 
-3.95189 -13.5936 2.73114 -3.7706 -14.5644 2.96406 -3.56108 -15.5277 3.20355 
-3.27803 -16.4681 3.45747 -2.89281 -17.3654 3.73166 -2.3906 -18.1926 4.03503 
-1.76992 -18.915 4.38281 -1.04491 -19.4928 4.79288 -0.245862 -19.891 5.27294 
0.588333 -20.0988 5.81031 1.42733 -20.1399 6.37855 2.25881 -20.0596 6.95404 
3.08458 -19.9058 7.52305 3.91131 -19.7204 8.08124 4.74352 -19.5344 8.63101 
5.5802 -19.367 9.17996 6.41594 -19.2263 9.73774 7.24525 -19.1174 10.312 
8.06632 -19.0537 10.9045 8.87984 -19.0683 11.5102 9.67857 -19.2202 12.1161 
10.4242 -19.5868 12.6956 11.042 -20.1983 13.2154 11.4892 -20.9849 13.6723 
11.7843 -21.8592 14.0932 11.9572 -22.7713 14.5017 12.0237 -23.6983 14.908 
11.9848 -24.6297 15.3095 11.8327 -25.5579 15.6921 11.5731 -26.4437 16.0266 
11.1506 -27.3572 16.3095 
LINES 1 65
64 0 1 2 3 4 5 6 7 8 9 10 11 12 13 14 15 16 17 18 19 20 21 22 23 24 25 26 27 28 29 30 31 32 33 34 35 36 37 38 39 40 41 42 43 44 45 46 47 48 49 50 51 52 53 54 55 56 57 58 59 60 61 62 63 

POINT_DATA 64
SCALARS MaximumInscribedSphereRadius float
LOOKUP_TABLE default
0.9796 1.2151 1.50318 1.18863 1.17144 1.54596 1.55 1.41722 1.32111 
1.51946 1.36861 1.50141 1.63481 1.56936 1.87086 2.13425 2.1684 1.9437 
1.3462 1.27635 1.8205 1.58904 1.35853 1.40852 1.79119 1.87284 1.86122 
1.88264 2.3044 2.07688 2.09393 2.3762 2.04028 1.86 1.87893 2.05511 
2.17 2.12682 1.81952 1.80148 2.54516 2.10204 1.6728 1.60969 1.78024 
1.97828 2.05337 2.14611 2.21979 2.19098 2.14004 2.11382 2.32359 2.56871 
2.74646 2.18421 2.0722 2.35507 3.14209 3.02199 2.55465 2.48 2.48 
2.48 
TEXTURE_COORDINATES TCoords 2 float
0 0 0.015873 0 0.031746 0 0.047619 0 0.0634921 
0 0.0793651 0 0.0952381 0 0.111111 0 0.126984 0 
0.142857 0 0.15873 0 0.174603 0 0.190476 0 0.206349 
0 0.222222 0 0.238095 0 0.253968 0 0.269841 0 
0.285714 0 0.301587 0 0.31746 0 0.333333 0 0.349206 
0 0.365079 0 0.380952 0 0.396825 0 0.412698 0 
0.428571 0 0.444444 0 0.460317 0 0.47619 0 0.492063 
0 0.507937 0 0.52381 0 0.539683 0 0.555556 0 
0.571429 0 0.587302 0 0.603175 0 0.619048 0 0.634921 
0 0.650794 0 0.666667 0 0.68254 0 0.698413 0 
0.714286 0 0.730159 0 0.746032 0 0.761905 0 0.777778 
0 0.793651 0 0.809524 0 0.825397 0 0.84127 0 
0.857143 0 0.873016 0 0.888889 0 0.904762 0 0.920635 
0 0.936508 0 0.952381 0 0.968254 0 0.984127 0 
1 0 
FIELD FieldData 4
Curvature 1 64 float
0.135243 0.187418 0.275288 0.378664 0.313737 0.151824 0.0425629 0.0550642 0.163501 
0.278865 0.27532 0.184282 0.134556 0.115197 0.099727 0.0853747 0.0863699 0.131725 
0.248466 0.67035 1.00319 0.380396 0.172166 0.113454 0.124173 0.180925 0.27279 
0.343224 0.273495 0.186935 0.142019 0.104179 0.0637106 0.0207938 0.0206958 0.0536936 
0.0770359 0.0950472 0.112018 0.128931 0.141269 0.138205 0.11625 0.083918 0.0505948 
0.0224862 0.00921544 0.0136009 0.0195047 0.0246213 0.0339514 0.0574424 0.0996782 0.156999 
0.199069 0.176167 0.12682 0.0906645 0.0733286 0.0712057 0.0780836 0.0892933 0.102718 
0.116006 
Torsion 1 64 float
-0.00504741 -0.00889774 -0.0174478 -0.0385919 -0.0671457 -0.128918 -1.0446 -0.322257 -0.152092 
-0.227546 -0.294822 -0.335185 -0.235702 -0.0829902 0.049593 0.186383 0.27251 0.201126 
0.115159 0.0586436 -0.0262781 -0.0625257 -0.0981758 -0.131667 -0.094226 -0.0418252 -0.0120971 
0.0615296 0.195345 0.273563 0.217377 0.141229 0.102468 0.0857225 0.0531853 0.00795525 
-0.0303777 -0.0623524 -0.0937092 -0.0886382 -0.0543049 -0.0125936 0.0217048 0.0552254 0.117085 
0.340183 1.07959 0.453375 0.239938 0.0489045 -0.126918 -0.120094 -0.0442396 0.0155111 
0.0652499 0.100729 0.120195 0.106969 0.0546845 -0.0334857 -0.0707018 -0.074139 -0.0630778 
-0.0504993 
Abscissas 1 64 double
0 1.0456992057 2.0268505336 3.0389906449 4.0460160585 5.0587960886 6.0731281161 7.0877411961 8.1020883677 
9.1148439766 10.124925408 11.137737662 12.151625884 13.165681742 14.179814445 15.194054883 16.208363816 17.222368157 
18.236313914 19.255720594 20.21362577 21.215629748 22.22479088 23.238954558 24.253075503 25.266880185 26.279752205 
27.289743453 28.299419757 29.312087025 30.325592637 31.339553752 32.353856916 33.368387739 34.383000485 35.397540609 
36.411936514 37.426203291 38.44030741 39.454247252 40.467989969 41.481634929 42.495455659 43.509608622 44.524009703 
45.538564232 46.553163302 47.567764206 48.5823565 49.596940127 50.611510015 51.626041521 52.640425537 53.654400737 
54.667431535 55.680222828 56.693881156 57.708027858 58.722350857 59.736674305 60.751640296 61.76705657 62.748885071 
63.794279481 
ParallelTransportNormals 3 64 double
-0.37814347514 0 0.92574700227 -0.32703502975 -0.00036551659947 0.9450121458 -0.22692772716 0.02216137171 0.97365942724 
-0.055677895775 0.13384478084 0.98943698463 0.059502483963 0.30401346954 0.95080769073 0.094364549704 0.40907242331 0.90760954394 
0.10308573633 0.44837657122 0.88788049947 0.096890687749 0.42215344068 0.90133160776 0.050199963499 0.28237212868 0.95799057647 
-0.094007648565 -0.032947330373 0.99502614811 -0.25336769811 -0.35823423304 0.89859503884 -0.31057570301 -0.51412128805 0.79951362332 
-0.31821220251 -0.56153825198 0.76381659169 -0.3179704242 -0.56844078599 0.75879501985 -0.31753945195 -0.57056133914 0.75738263429 
-0.31071110775 -0.58969471897 0.7454654559 -0.284875991 -0.63941630288 0.71413756473 -0.2152383207 -0.73363429996 0.64455657566 
-0.034318947227 -0.88296893465 0.46817525597 0.51347871865 -0.8276242107 -0.22666665249 0.58587983118 0.23691330365 -0.77499478061 
0.36807054036 0.63886920499 -0.67555178649 0.24903914447 0.78051779281 -0.57338597788 0.16915928508 0.8589631156 -0.48328821868 
0.1016103223 0.91794559399 -0.38347259207 0.035839535321 0.97005085057 -0.24024336623 -0.011458440588 0.99993359612 -0.0012277963924 
0.026572693459 0.94715363524 0.3196777803 0.14551815913 0.80686893336 0.5725268463 0.26352999604 0.64152085377 0.72041858344 
0.34572250166 0.48735027244 0.80185139758 0.38888684989 0.37160718133 0.8430154926 0.40624870787 0.30466138534 0.86147746786 
0.41030284768 0.28451874087 0.86642983518 0.40662321272 0.30272874315 0.86198194352 0.39481199256 0.34837794007 0.85015075216 
0.37116248883 0.41341310907 0.831461369 0.32925074344 0.49485479407 0.80418448178 0.25968599936 0.59085013875 0.76384507282 
0.15395902848 0.69300357183 0.70430296534 0.015172872032 0.78188027368 0.6232439503 -0.13335784861 0.83699198464 0.53071659278 
-0.26054809916 0.85591945594 0.44667278065 -0.34953637654 0.85382978976 0.38574474929 -0.39963718496 0.84675107652 0.35114489148 
-0.41777991151 0.84302740294 0.33876945469 -0.41401669464 0.84386978654 0.34128281516 -0.39958808461 0.8469246588 0.35078196212 
-0.38407167487 0.84978342086 0.36104997743 -0.36897284065 0.8520470044 0.37131515612 -0.34595275982 0.85445388009 0.38758902818 
-0.2989763279 0.85586625248 0.42202619969 -0.20986912676 0.84666440309 0.48899318826 -0.070125847031 0.79973259927 0.5962467067 
0.080577029422 0.69162254831 0.71775036955 0.17542795047 0.56711366019 0.80474041195 0.21374195129 0.48138914544 0.85004639221 
0.22627627591 0.43355089721 0.87225722496 0.23006122711 0.40447470844 0.88513956075 0.23046844714 0.37702063189 0.89707287218 
0.2265933259 0.33928463421 0.91298488577 0.21516062093 0.28915049326 0.93279038345 0.18581121788 0.21119065133 0.95962112321 
0.18581121788 0.21119065133 0.95962112321 
