# vtk DataFile Version 4.2
vtk output
ASCII
DATASET POLYDATA
POINTS 64 float
0 0 0 -0.731612 0.526584 0.533464 -1.54079 0.837182 0.978774 
-2.44219 1.04572 1.41307 -3.36779 1.14199 1.81574 -4.30572 1.14329 2.20195 
-5.24248 1.04803 2.57952 -6.16272 0.841155 2.95271 -7.04467 0.496609 3.31609 
-7.86061 -0.00706924 3.64583 -8.59329 -0.66058 3.89961 -9.25315 -1.4191 4.03274 
-9.87303 -2.2215 4.01231 -10.4817 -3.00952 3.82026 -11.0778 -3.74361 3.45411 
-11.6289 -4.41429 2.9297 -12.0889 -5.03679 2.27438 -12.4082 -5.63838 1.52311 
-12.5402 -6.24329 0.720217 -12.4524 -6.86317 -0.0770622 -12.1418 -7.49634 -0.805225 
-11.639 -8.13614 -1.40988 -10.9905 -8.78094 -1.8476 -10.2507 -9.43869 -2.06393 
-9.51518 -10.1242 -1.947 -9.04325 -10.7948 -1.36223 -9.02254 -11.3515 -0.516437 
-9.27196 -11.8478 0.331817 -9.62426 -12.3688 1.12791 -9.98694 -12.9655 1.86371 
-10.2956 -13.6667 2.52822 -10.5025 -14.4726 3.10801 -10.5914 -15.3513 3.60673 
-10.5727 -16.264 4.04901 -10.4635 -17.1825 4.46585 -10.2768 -18.0873 4.88497 
-10.0189 -18.9625 5.32837 -9.68843 -19.7911 5.81146 -9.27729 -20.5518 6.34174 
-8.77421 -21.2196 6.91589 -8.17317 -21.7705 7.51903 -7.48165 -22.1902 8.13079 
-6.72236 -22.4842 8.7357 -5.92252 -22.6743 9.33005 -5.10405 -22.7844 9.91933 
-4.28133 -22.8316 10.5111 -3.46366 -22.8257 11.1117 -2.65741 -22.774 11.7254 
-1.86637 -22.6858 12.3546 -1.09149 -22.5777 13.0006 -0.331999 -22.4728 13.6651 
0.412112 -22.4014 14.351 1.13605 -22.4072 15.0616 1.82128 -22.5538 15.7946 
2.41789 -22.924 16.5251 2.84284 -23.5627 17.1857 3.05621 -24.4001 17.7149 
3.10527 -25.327 18.1236 3.05491 -26.2846 18.4549 2.95248 -27.2511 18.7453 
2.83371 -28.2191 19.0233 2.73648 -29.1924 19.3214 2.69479 -30.1115 19.6432 
2.8366 -31.0372 20.1118 
LINES 1 65
64 0 1 2 3 4 5 6 7 8 9 10 11 12 13 14 15 16 17 18 19 20 21 22 23 24 25 26 27 28 29 30 31 32 33 34 35 36 37 38 39 40 41 42 43 44 45 46 47 48 49 50 51 52 53 54 55 56 57 58 59 60 61 62 63 

POINT_DATA 64
SCALARS MaximumInscribedSphereRadius float
LOOKUP_TABLE default
1.581 1.35001 1.24 1.24 1.24 1.18607 1.01085 1.14909 1.51846 
1.76206 1.66754 1.31753 0.901166 1.05612 1.48843 1.74936 1.69602 1.52902 
1.4269 1.3888 1.37173 1.29498 1.16249 1.03729 1.36285 1.39795 1.3252 
1.41849 1.52339 1.55 1.51688 1.42334 1.45585 1.49366 1.35379 1.38388 
1.74267 1.99995 2.11578 1.96672 2.10607 2.47282 2.70212 2.48968 2.06095 
1.90351 2.03295 2.37216 2.48 2.44183 2.27143 2.3775 2.7305 2.40375 
2.06381 1.83943 1.62764 1.7893 2.06058 1.86637 1.57665 1.75231 1.85305 
1.86 
TEXTURE_COORDINATES TCoords 2 float
0 0 0.015873 0 0.031746 0 0.047619 0 0.0634921 
0 0.0793651 0 0.0952381 0 0.111111 0 0.126984 0 
0.142857 0 0.15873 0 0.174603 0 0.190476 0 0.206349 
0 0.222222 0 0.238095 0 0.253968 0 0.269841 0 
0.285714 0 0.301587 0 0.31746 0 0.333333 0 0.349206 
0 0.365079 0 0.380952 0 0.396825 0 0.412698 0 
0.428571 0 0.444444 0 0.460317 0 0.47619 0 0.492063 
0 0.507937 0 0.52381 0 0.539683 0 0.555556 0 
0.571429 0 0.587302 0 0.603175 0 0.619048 0 0.634921 
0 0.650794 0 0.666667 0 0.68254 0 0.698413 0 
0.714286 0 0.730159 0 0.746032 0 0.761905 0 0.777778 
0 0.793651 0 0.809524 0 0.825397 0 0.84127 0 
0.857143 0 0.873016 0 0.888889 0 0.904762 0 0.920635 
0 0.936508 0 0.952381 0 0.968254 0 0.984127 0 
1 0 
FIELD FieldData 4
Curvature 1 64 float
0.241556 0.174423 0.123973 0.091172 0.0749337 0.0753434 0.0907563 0.116964 0.141155 
0.147352 0.136497 0.12754 0.133467 0.141576 0.138216 0.13104 0.13395 0.150252 
0.170369 0.180176 0.175983 0.169562 0.193949 0.285607 0.449092 0.438807 0.240957 
0.112983 0.0783638 0.106292 0.130189 0.12554 0.0992434 0.0742397 0.0610649 0.0619576 
0.0743392 0.091153 0.108363 0.120482 0.122795 0.110218 0.0867312 0.0638239 0.0490933 
0.041809 0.0385982 0.0344659 0.0262562 0.019274 0.0338421 0.0688704 0.121404 0.191616 
0.253399 0.25231 0.18555 0.113646 0.0581534 0.0168027 0.0358573 0.0925154 0.183813 
0.339539 
Torsion 1 64 float
-0.0265491 -0.0350826 -0.0491068 -0.0716865 -0.0962195 -0.0915895 -0.0462117 0.0168557 0.0853524 
0.179508 0.288495 0.34034 0.202976 -0.00142322 -0.153092 -0.249187 -0.264416 -0.20081 
-0.140946 -0.114167 -0.119051 -0.148225 -0.178248 -0.175509 -0.169973 -0.187017 -0.25356 
-0.49351 -0.551627 -0.234515 -0.121538 -0.11332 -0.164782 -0.247998 -0.289856 -0.21054 
-0.0866743 -0.0017986 0.0434341 0.0492339 0.0294887 -0.00684164 -0.0560647 -0.113713 -0.147703 
-0.139853 -0.119341 -0.146951 -0.350543 -0.754046 -0.377703 -0.113492 -0.0382062 -0.0125723 
0.00237451 0.012223 0.0158761 0.0156235 0.0177432 0.0710394 0.0138849 0.00534028 0.00316134 
0.00204519 
Abscissas 1 64 double
0 1.0474404116 2.0218827424 3.0439552096 4.0579243135 5.0722621666 6.0867361303 7.1010808633 8.1152780733 
9.1292740359 10.143324782 11.157467694 12.171629441 13.185701195 14.199753069 15.213876456 16.228051515 17.242109045 
18.256000182 19.269719587 20.283416986 21.297212494 22.311049739 23.324332568 24.336582194 25.343693673 26.356473696 
27.370431593 28.384950753 29.399356361 30.413540189 31.427632463 32.441892391 33.45630644 34.470802905 35.485312988 
36.499803058 37.514232943 38.528575054 39.542820603 40.55699533 41.571200596 42.585543317 43.599998338 44.614525811 
45.629079305 46.643641782 47.658211155 48.672792721 49.687389024 50.701982807 51.716539575 52.730939786 53.745003322 
54.758238164 55.770611499 56.783984441 57.798109346 58.812630196 59.827062557 60.841157992 61.863673026 62.83842398 
63.885619483 
ParallelTransportNormals 3 64 double
0.58916984827 0 0.80800921398 0.49618658005 0.049960716153 0.86677725202 0.44537374777 0.06547393568 0.89294758443 
0.40419036791 0.072334261833 0.91181023303 0.37980818626 0.073611120928 0.92213184769 0.36645120211 0.072941744993 0.92757372661 
0.36087943104 0.072035184181 0.92982631093 0.35629364768 0.070632025659 0.93170057077 0.34042012734 0.062701859346 0.93818048036 
0.30069787836 0.033020129766 0.95314765749 0.23482411301 -0.033775478217 0.97145090098 0.14820565094 -0.13942524315 0.97907899916 
0.046898865509 -0.27057210468 0.96155667154 -0.060239453738 -0.40592936769 0.91191696807 -0.15733445129 -0.52482887694 0.83654080616 
-0.231125832 -0.61921253839 0.75043766035 -0.275952059 -0.68961936426 0.6695338629 -0.29455843262 -0.73935509102 0.6054662494 
-0.29565125667 -0.76968352607 0.56584238453 -0.29240829868 -0.77988226562 0.55342663346 -0.29934580822 -0.76902485953 0.5647945224 
-0.33025758078 -0.73453304906 0.59278253195 -0.4060501795 -0.66342133761 0.62848657943 -0.57592423175 -0.5087476164 0.63991182369 
-0.85915200439 -0.19048735012 0.4749446313 -0.98631842937 0.12557177829 0.10680676188 -0.95523571407 0.26879587528 -0.12358603476 
-0.92644989414 0.31746401258 -0.20225527033 -0.92723502158 0.31623669853 -0.20057309206 -0.94981601547 0.27257431566 -0.15346914736 
-0.97809517933 0.18991314166 -0.085222173136 -0.99581780992 0.089004819101 -0.020616295111 -0.99954729009 -0.0062647343761 0.029427333692 
-0.9938772031 -0.087458948186 0.067520645361 -0.98263329637 -0.15675659093 0.099293383813 -0.96701112051 -0.21930221727 0.12959949963 
-0.94544911902 -0.28173905612 0.16355142187 -0.91375180566 -0.34966423201 0.20686363262 -0.8658017051 -0.42458677088 0.26478950403 
-0.79736357841 -0.50012762134 0.33776276615 -0.71211434612 -0.56414598466 0.41789049529 -0.62562859079 -0.60669416547 0.4904192655 
-0.55449961513 -0.62877858532 0.54513087187 -0.50459586118 -0.63803550184 0.58163022211 -0.4719968348 -0.64115919588 0.60508997139 
-0.45104450383 -0.64168647008 0.6203203444 -0.43829451804 -0.64123433744 0.62985430057 -0.43291032557 -0.64076289484 0.63404381758 
-0.43660559819 -0.64122596345 0.63103471808 -0.45182173554 -0.64333895126 0.61803892522 -0.48238538337 -0.64692336587 0.59058826656 
-0.53539439216 -0.6492899907 0.54016233932 -0.62096017281 -0.64003555046 0.45250741201 -0.74565664052 -0.58975795801 0.31013178717 
-0.88102108637 -0.45604607027 0.12579279456 -0.96409275009 -0.26397435614 -0.029029442421 -0.98806193795 -0.10287325959 -0.11467649821 
-0.98799352393 -0.0014917420678 -0.15448809459 -0.98369937738 0.052584815717 -0.17196037945 -0.98175097542 0.069624523604 -0.17696736413 
-0.98435047498 0.046272095642 -0.1700383356 -0.98833026108 -0.0084262231634 -0.15209304321 -0.97921070229 -0.18825045284 -0.075552415703 
-0.97921070229 -0.18825045284 -0.075552415703 
