# vtk DataFile Version 4.2
vtk output
ASCII
DATASET POLYDATA
POINTS 64 float
0 0 0 -0.70083 0.295228 0.721525 -1.42099 0.611307 1.29851 
-2.22735 0.939416 1.82938 -3.08498 1.23843 2.28188 -3.99348 1.48186 2.66132 
-4.94661 1.63877 2.97073 -5.93023 1.66938 3.21578 -6.91516 1.52364 3.40666 
-7.84892 1.15984 3.55788 -8.67893 0.590585 3.67907 -9.40623 -0.111413 3.76334 
-10.0824 -0.867271 3.79042 -10.7707 -1.60967 3.72735 -11.5137 -2.2705 3.52967 
-12.299 -2.79581 3.16273 -13.0682 -3.17872 2.6248 -13.7554 -3.46092 1.93473 
-14.2886 -3.71228 1.11012 -14.5655 -4.00938 0.18254 -14.4822 -4.40593 -0.744097 
-14.0607 -4.89218 -1.52557 -13.4295 -5.42877 -2.10949 -12.689 -5.99819 -2.5036 
-11.8993 -6.60476 -2.69264 -11.1393 -7.26436 -2.58166 -10.6236 -7.93417 -2.03353 
-10.491 -8.50792 -1.20993 -10.5883 -9.01743 -0.338484 -10.7822 -9.53553 0.511972 
-10.9972 -10.1143 1.31686 -11.1761 -10.7899 2.05179 -11.2744 -11.5701 2.69212 
-11.275 -12.4282 3.23274 -11.1828 -13.3273 3.69316 -11.0034 -14.2372 4.10425 
-10.7299 -15.1328 4.49432 -10.3448 -15.9861 4.88451 -9.82986 -16.7612 5.28743 
-9.18172 -17.4187 5.70667 -8.42298 -17.933 6.14039 -7.595 -18.3102 6.58862 
-6.73736 -18.5826 7.05701 -5.87683 -18.7866 7.55416 -5.02779 -18.9463 8.08608 
-4.19634 -19.0675 8.65468 -3.38272 -19.1406 9.25629 -2.58378 -19.1516 9.88144 
-1.79582 -19.1039 10.5188 -1.01566 -19.0337 11.1636 -0.244826 -19.0044 11.8225 
0.501785 -19.0885 12.5037 1.18887 -19.3465 13.2031 1.77053 -19.7991 13.8989 
2.21296 -20.4246 14.5628 2.50594 -21.1788 15.1738 2.66197 -22.0154 15.7254 
2.71051 -22.898 16.2232 2.69248 -23.8051 16.6773 2.65577 -24.7296 17.0932 
2.64961 -25.6733 17.4663 2.72143 -26.6396 17.7828 2.88788 -27.5714 18.0191 
3.20564 -28.558 18.175 
LINES 1 65
64 0 1 2 3 4 5 6 7 8 9 10 11 12 13 14 15 16 17 18 19 20 21 22 23 24 25 26 27 28 29 30 31 32 33 34 35 36 37 38 39 40 41 42 43 44 45 46 47 48 49 50 51 52 53 54 55 56 57 58 59 60 61 62 63 

POINT_DATA 64
SCALARS MaximumInscribedSphereRadius float
LOOKUP_TABLE default
0.93 0.968479 1.07944 1.23962 1.24 1.14294 0.968437 1.124 1.12409 
0.958389 1.18047 1.32712 1.24096 1.03944 1.21421 1.4331 1.55876 1.59258 
1.73295 1.68203 1.62914 1.75703 1.484 1.31473 1.49479 1.55 1.73402 
1.8848 1.78168 1.45224 1.69699 2.06846 1.90215 1.68643 1.63851 1.81026 
1.86 1.93863 2.12037 2.17 2.08389 1.97544 2.22766 2.16726 1.67828 
1.56958 1.8935 2.39067 2.27577 2.30094 2.45968 2.48 2.56817 2.4723 
2.01216 2.2799 2.56957 2.7745 2.83241 2.74226 2.4903 2.48284 2.16155 
1.55 
TEXTURE_COORDINATES TCoords 2 float
0 0 0.015873 0 0.031746 0 0.047619 0 0.0634921 
0 0.0793651 0 0.0952381 0 0.111111 0 0.126984 0 
0.142857 0 0.15873 0 0.174603 0 0.190476 0 0.206349 
0 0.222222 0 0.238095 0 0.253968 0 0.269841 0 
0.285714 0 0.301587 0 0.31746 0 0.333333 0 0.349206 
0 0.365079 0 0.380952 0 0.396825 0 0.412698 0 
0.428571 0 0.444444 0 0.460317 0 0.47619 0 0.492063 
0 0.507937 0 0.52381 0 0.539683 0 0.555556 0 
0.571429 0 0.587302 0 0.603175 0 0.619048 0 0.634921 
0 0.650794 0 0.666667 0 0.68254 0 0.698413 0 
0.714286 0 0.730159 0 0.746032 0 0.761905 0 0.777778 
0 0.793651 0 0.809524 0 0.825397 0 0.84127 0 
0.857143 0 0.873016 0 0.888889 0 0.904762 0 0.920635 
0 0.936508 0 0.952381 0 0.968254 0 0.984127 0 
1 0 
FIELD FieldData 4
Curvature 1 64 float
0.142097 0.0988933 0.0775004 0.0715031 0.0769663 0.0892336 0.109795 0.141033 0.172082 
0.173309 0.126952 0.070099 0.0684923 0.123166 0.164163 0.166111 0.149099 0.150538 
0.207355 0.277689 0.29002 0.223033 0.163411 0.157567 0.247354 0.396686 0.376412 
0.200086 0.0856574 0.0594447 0.0933875 0.121318 0.118452 0.0965372 0.0748563 0.0714613 
0.0879015 0.112522 0.13134 0.133449 0.114633 0.0824449 0.0547241 0.0418847 0.0429827 
0.0479373 0.0521738 0.0451006 0.0204268 0.0321441 0.0865612 0.136377 0.16335 0.164728 
0.150584 0.125601 0.0943478 0.0609487 0.036434 0.0432681 0.0713097 0.0997801 0.119284 
0.126591 
Torsion 1 64 float
0.12551 0.164336 0.19145 0.18704 0.16829 0.159857 0.153328 0.134174 0.0955664 
0.019607 -0.150302 -0.634743 -0.671115 -0.117481 0.0698688 0.159588 0.2871 0.346584 
0.217347 0.1233 0.0804261 0.0778713 0.109894 0.135452 0.10869 0.0926462 0.108649 
0.181659 0.50093 0.661388 0.238908 0.104775 0.0864685 0.136512 0.247964 0.260871 
0.152122 0.0731494 0.0495318 0.0567683 0.0894088 0.166053 0.271589 0.20548 -0.00803541 
-0.151897 -0.155107 -0.0527589 0.83216 0.320245 0.0115115 -0.0222948 -0.0254874 -0.022848 
-0.0233325 -0.0206152 0.00759726 0.141299 0.587211 0.454749 0.112582 0.0293523 0.0109496 
0.00596975 
Abscissas 1 64 double
0 1.0482942313 2.0237156092 3.0433719562 4.058113742 5.0723081401 6.086618025 7.1007590624 8.1145505367 
9.1280161397 10.141753474 11.156087236 12.170609062 13.184953692 14.198749242 15.212326814 16.226088187 17.240000846 
18.25366608 19.266245985 20.277598164 21.289961685 22.303468234 23.317321483 24.330896506 25.343309988 26.350799093 
27.363266238 28.377416641 29.391945929 30.406387465 31.420559678 32.434612656 33.448813371 34.463194495 35.477641957 
36.492045958 37.506308091 38.520391114 39.534339097 40.548386972 41.56265676 42.577116585 43.591654847 44.60620401 
45.620749892 46.635274685 47.649786162 48.664346937 49.678958744 50.69346507 51.707618419 52.721379107 53.73500974 
54.748729685 55.762663285 56.776842633 57.791252003 58.80581114 59.820211404 60.835015825 61.854439324 62.830006094 
63.878169557 
ParallelTransportNormals 3 64 double
0 -0.92552066942 0.37869709594 -0.05360471351 -0.90244298002 0.42746134622 -0.073099714905 -0.89420923924 0.44164042857 
-0.077014913639 -0.89273396408 0.44395357015 -0.0588505263 -0.89831269316 0.43539742864 -0.01358643311 -0.90804675428 0.41864842157 
0.069839904026 -0.91612381112 0.39476518402 0.20508448127 -0.90821219 0.36481635582 0.38863292771 -0.85946517664 0.33209043595 
0.56859955281 -0.76426390112 0.30429465652 0.68191737475 -0.67176555163 0.28934363248 0.71916067549 -0.63307931541 0.28638872748 
0.69055392348 -0.66449112926 0.28563406291 0.59914845225 -0.7541027837 0.26897978321 0.46886640164 -0.85521419064 0.22084606754 
0.35248948164 -0.92320592365 0.15310776553 0.29000790058 -0.95174057908 0.10042553328 0.29107248875 -0.95127513494 0.10174686208 
0.33440277248 -0.92193249079 0.19548725837 0.35516520626 -0.84745320907 0.39456398048 0.29045833911 -0.7342694396 0.61358157022 
0.17578772278 -0.62284266242 0.7623422423 0.051263425573 -0.52243062188 0.85113941662 -0.096697922947 -0.40872156261 0.90752200852 
-0.32619757044 -0.22120576054 0.91905557859 -0.64912923399 0.1154890397 0.75186003969 -0.80627959895 0.41653347024 0.42001556696 
-0.81034691241 0.54076431361 0.22563651892 -0.80059344021 0.57518817301 0.16795448526 -0.80568339091 0.56153215994 0.18856274015 
-0.82425592285 0.50239340384 0.26115712018 -0.84374694505 0.40004634225 0.35784635918 -0.85097195661 0.28038872344 0.44410459673 
-0.84533447611 0.17225537924 0.50570515897 -0.83204391415 0.083724148707 0.54835498708 -0.81249163373 0.0057734273192 0.58294426205 
-0.78346822648 -0.071296458666 0.61732839971 -0.73969713315 -0.15048783825 0.65589752382 -0.67954966285 -0.22456964906 0.69841300706 
-0.61251997612 -0.28039680841 0.73905135727 -0.55811858533 -0.31096225451 0.76928936102 -0.53049768229 -0.32160676388 0.78430944054 
-0.52966407675 -0.32183789016 0.78477789103 -0.54556443264 -0.31845544414 0.77520679817 -0.56663069933 -0.31493377729 0.76141077383 
-0.58268632 -0.31303695878 0.74998967655 -0.5879935153 -0.31276015234 0.74595221903 -0.58581022977 -0.31270967605 0.74768912872 
-0.58823068329 -0.31289167659 0.74571003879 -0.60992141096 -0.31428338479 0.72747634085 -0.65921747299 -0.31250075467 0.68394122674 
-0.73374619618 -0.29471378387 0.61217669442 -0.8166018234 -0.24830802332 0.52106102096 -0.88719141115 -0.17400082878 0.42733489391 
-0.93504299914 -0.084229178533 0.34438355832 -0.96022541589 0.0049900319719 0.27918139313 -0.96900614512 0.078776162325 0.23413971678 
-0.96978294958 0.12433735648 0.20990772375 -0.96957128631 0.13141955277 0.20654399509 -0.97042526581 0.094215739263 0.22225705379 
-0.96756472852 0.0107711399 0.25239349966 -0.95374342264 -0.098336029591 0.28408363039 -0.9169371971 -0.24565769458 0.31444947714 
-0.9169371971 -0.24565769458 0.31444947714 
