# vtk DataFile Version 2.0
Vessel Segment
ASCII
DATASET POLYDATA
POINTS 64 float
0.0 0.0 0.0
-0.8742212345034389 0.22076362552973677 0.19018562554413357
-1.751192243422492 0.3073156675071282 0.3807323348661095
-2.6687842344833634 0.2537395283895529 0.5918370473309088
-3.556064415786226 0.04224159660101947 0.8174126606939708
-4.396863707041336 -0.32214297022733646 1.0530876733236394
-5.170012510428994 -0.8305292394706758 1.2864394283900826
-5.8606242527395995 -1.4483439505605373 1.4807451282769948
-6.483813209048773 -2.1314504303164403 1.611603974254202
-7.0548750990528175 -2.843139517736637 1.6421673673568136
-7.573207830978652 -3.558703358395625 1.524885458461309
-8.006240705312308 -4.263129996033228 1.2183008830426103
-8.303863565800553 -4.946759454274582 0.7245684650616121
-8.415820216223345 -5.600345636828471 0.07958338222411161
-8.342941311961514 -6.2233620215270475 -0.618066981055979
-8.127409626871852 -6.836485056553856 -1.293513211595305
-7.815810197490757 -7.446192898992765 -1.89356330037117
-7.460158964334908 -8.046620813466735 -2.3921082696672213
-7.093180514998355 -8.637575630414284 -2.681485062591353
-6.796316443863562 -9.164394229145373 -2.6988933047248147
-6.602090550681292 -9.58839926477206 -2.4832896541614655
-6.54888255515341 -9.883625151747363 -1.993541540735859
-6.637586527961796 -9.99411947444334 -1.2755552258310934
-6.803897801092115 -9.937029442544711 -0.464797543977403
-6.984959988270775 -9.796149843830174 0.37030189118142853
-7.140061693676447 -9.659758450621265 1.194179651564208
-7.24318285715782 -9.602675773329654 1.9924254668718677
-7.280586444725425 -9.66890506017006 2.7590267059661575
-7.246032025854467 -9.910275297649836 3.482163704047769
-7.15298883591668 -10.364355636855302 4.125331546290446
-7.021224735146862 -11.003451654466533 4.639260031282902
-6.8735131712283115 -11.769416170605158 5.02769095488524
-6.7138815613116245 -12.613171141026383 5.3270165101956515
-6.538180686659732 -13.493871357481359 5.581655767004369
-6.335356839632584 -14.387057878203311 5.8249479895931175
-6.096828823372469 -15.263905589863406 6.081620519444094
-5.8007067550541995 -16.09536057003474 6.377023026094598
-5.420085142224522 -16.85846645549192 6.715110330258385
-4.94297719860481 -17.530416553303347 7.091980340117115
-4.373374734010737 -18.096241417577712 7.502507638123076
-3.7243721444096605 -18.546396772740252 7.9431023920996715
-3.012788664360168 -18.87819480895996 8.409323417534262
-2.2538237508575794 -19.09525766211041 8.894291724188854
-1.4595509929803467 -19.207155922711905 9.390995300422281
-0.6391472678820965 -19.22799158904512 9.893164545802748
0.1972687789317915 -19.17702041238041 10.396527007474738
1.0384499376355592 -19.078916743650275 10.90092305005607
1.8722757125052356 -18.96185774722342 11.412138098377293
2.6859724405458416 -18.855828802464373 11.937885421817585
3.465425828755912 -18.79159330917617 12.481091515492585
4.193780396512504 -18.796430458456783 13.037230394654355
4.856661228810326 -18.88520499407235 13.596092660548324
5.449664860963821 -19.066518541109765 14.14723522380247
5.9685261188927345 -19.349989971872102 14.683552790496309
6.408483026391369 -19.737498364206086 15.203315185288252
6.763371297868631 -20.232208462084753 15.70794236457954
7.017038326647322 -20.83288310746015 16.19156439829681
7.161487333476543 -21.522062770390914 16.640294931702694
7.201654087183839 -22.275435480020814 17.04325082746603
7.1469713973544415 -23.06380158763821 17.393950898768537
7.019620346315836 -23.859600099466615 17.704457573971506
6.849206112704034 -24.652445938627597 18.00551863848153
6.680145450062671 -25.398574538150076 18.30290676375567
6.554458556033797 -26.110047421212922 18.64682874841205
LINES 1 65
64 0 1 2 3 4 5 6 7 8 9 10 11 12 13 14 15 16 17 18 19 20 21 22 23 24 25 26 27 28 29 30 31 32 33 34 35 36 37 38 39 40 41 42 43 44 45 46 47 48 49 50 51 52 53 54 55 56 57 58 59 60 61 62 63
POINT_DATA 64
SCALARS MaximumInscribedSphereRadius float
LOOKUP_TABLE default
1.0504169464111328
1.1020586490631104
1.1450433731079102
1.1499969959259033
1.1416497230529785
1.1957383155822754
1.2411638498306274
1.2984693050384521
1.3675094842910767
1.3999483585357666
1.3690991401672363
1.346214771270752
1.3143428564071655
1.3488529920578003
1.3847123384475708
1.416588306427002
1.4318759441375732
1.4713720083236694
1.5428448915481567
1.5907090902328491
1.621002435684204
1.6511926651000977
1.7027181386947632
1.737393856048584
1.813644289970398
1.8405288457870483
1.848818063735962
1.854238748550415
1.8562743663787842
1.8241267204284668
1.8153562545776367
1.8307830095291138
1.8312032222747803
1.8312742710113525
1.8474129438400269
1.8309497833251953
1.7855145931243896
1.740337610244751
1.7239956855773926
1.7344573736190796
1.769072413444519
1.7967634201049805
1.8187546730041504
1.8281015157699585
1.8699476718902588
1.9226384162902832
1.951216697692871
1.973125696182251
2.016754388809204
2.074343204498291
2.0766520500183105
2.003842830657959
1.9740580320358276
1.9724071025848389
2.0235164165496826
2.083308458328247
2.1063036918640137
2.1698834896087646
2.2127528190612793
2.1832430362701416
2.1600520610809326
2.163174629211426
2.174283981323242
2.1679189205169678
