# vtk DataFile Version 2.0
Vessel Segment
ASCII
DATASET POLYDATA
POINTS 64 float
4.63448207456881 12.175202673892063 -5.767375698401706
3.8072034343222185 12.38275081253505 -5.50150352481952
2.9542614299343066 12.50447920674469 -5.237759330559706
2.063975058822437 12.52640340927659 -4.9675457041808455
1.1821540929775858 12.429158840574647 -4.690807184203497
0.3277627679989774 12.20703392350466 -4.414671071750368
-0.48035349033797015 11.860891487520977 -4.1471010613997805
-1.2305446665048714 11.409777007855924 -3.9079777878663697
-1.9299221539900968 10.879050763055183 -3.7112503776388794
-2.5874769707313066 10.29230708184269 -3.5797602847889474
-3.202495838260662 9.667921312780122 -3.5481390160176454
-3.756884960847646 9.025309225853212 -3.6509130463316875
-4.225398680012054 8.381166898161819 -3.900562507224812
-4.5729668650090805 7.749094766940709 -4.2940035468873425
-4.786672619059923 7.136828923687412 -4.780893343875942
-4.881594613441148 6.539095063496741 -5.312259181097191
-4.881738056030652 5.952773777212735 -5.844889108896583
-4.813845357889407 5.378025216999609 -6.356494661043511
-4.688006868402786 4.811393743040544 -6.77559331546513
-4.547775636172306 4.277269489364628 -7.049485779312695
-4.4110817871589045 3.7924499264022065 -7.1846216446083595
-4.30365940781191 3.3746961932807746 -7.140478726421739
-4.2407962831341415 3.0591563758833638 -6.936570356231869
-4.201169474440366 2.832085968084707 -6.6282339325935204
-4.17780944099244 2.6638417913255372 -6.221309867561191
-4.175161212356286 2.526475000141405 -5.729604511413334
-4.180660893957443 2.3941086260063877 -5.178306427729572
-4.171589637851726 2.226798827992682 -4.601378346953582
-4.143034839532937 1.9831281953598032 -4.01388283831401
-4.104647082451685 1.6380483197369988 -3.4304346654805262
-4.059442647048154 1.2045070304212249 -2.8939106847114124
-4.004063950954962 0.6925377231269662 -2.4222431324161997
-3.9271300615200744 0.10863426372473511 -1.9966124671036072
-3.8226626466274376 -0.5349798988945622 -1.5946384636281612
-3.6888040037283645 -1.2258364221332578 -1.1973960649373707
-3.5246589931332264 -1.9462591164495349 -0.7988353207733605
-3.3193485921279855 -2.678093720639481 -0.39628240535870857
-3.060596194651505 -3.3987621465662765 0.0038233385610055848
-2.7439136229629812 -4.081852076843881 0.39847468647557294
-2.369411189140849 -4.70811506258689 0.794051236885917
-1.9419191453135471 -5.262665183050628 1.2023501763523934
-1.4637962902425687 -5.73526254366159 1.6275563211942112
-0.9362688185964754 -6.12596146717603 2.071620194439377
-0.3607577185750695 -6.438299672660273 2.5342031570268526
0.2616013071826903 -6.6774194866527 3.014640596964857
0.9259077324930751 -6.849597379117558 3.5106502181609254
1.6235894034657226 -6.9631952948403315 4.016698929034419
2.3442546524362955 -7.031079758370652 4.529329538400029
3.0749946629597478 -7.0718581293746094 5.0497274789073305
3.8022781951895013 -7.109034720074026 5.581193145705776
4.512919658154295 -7.165748924715515 6.122042698034402
5.194760606162583 -7.260029089690901 6.663608519271834
5.839227178388823 -7.409243151097844 7.201589087508864
6.437286217880123 -7.627353217291644 7.7360783827393265
6.979473733311422 -7.919537726055471 8.265524515793546
7.457437110853929 -8.289326537812485 8.788487283137801
7.860007491504103 -8.736115692452096 9.298990141941623
8.18397740432682 -9.249832931171742 9.787148562816146
8.434908472910069 -9.817901123727097 10.246133854810681
8.62017182085639 -10.42855976935698 10.673812783736121
8.7499602248288 -11.072812748195387 11.07758774671155
8.833643581041683 -11.74824647560651 11.473431037077209
8.88562306622449 -12.423505909866366 11.862348267719968
8.926199332206055 -13.095916489694481 12.27262348859094
LINES 1 65
64 0 1 2 3 4 5 6 7 8 9 10 11 12 13 14 15 16 17 18 19 20 21 22 23 24 25 26 27 28 29 30 31 32 33 34 35 36 37 38 39 40 41 42 43 44 45 46 47 48 49 50 51 52 53 54 55 56 57 58 59 60 61 62 63
POINT_DATA 64
SCALARS MaximumInscribedSphereRadius float
LOOKUP_TABLE default
1.053342342376709
1.0871089696884155
1.121266484260559
1.139750361442566
1.157848596572876
1.2030329704284668
1.2176085710525513
1.2424229383468628
1.2994208335876465
1.336740255355835
1.3366140127182007
1.3299111127853394
1.303038239479065
1.329016923904419
1.3460599184036255
1.363905429840088
1.3744765520095825
1.4191577434539795
1.478562593460083
1.5083180665969849
1.5471125841140747
1.5876522064208984
1.6265660524368286
1.6527491807937622
1.6931627988815308
1.7155410051345825
1.7450954914093018
1.7558350563049316
1.7416763305664062
1.7057387828826904
1.7113099098205566
1.7462509870529175
1.7719972133636475
1.7870137691497803
1.7853305339813232
1.7791569232940674
1.7853624820709229
1.7689341306686401
1.7584824562072754
1.7575052976608276
1.7729474306106567
1.7882156372070312
1.808946132659912
1.7974988222122192
1.8020495176315308
1.8481398820877075
1.878620982170105
1.8933783769607544
1.9213382005691528
1.9512587785720825
1.9570019245147705
1.9180642366409302
1.9206894636154175
1.9255417585372925
1.951863169670105
1.9891164302825928
1.9935818910598755
2.0281777381896973
2.051894187927246
2.0465357303619385
2.046438217163086
2.0404000282287598
2.033120632171631
1.994559645652771
