# vtk DataFile Version 2.0
Vessel Segment
ASCII
DATASET POLYDATA
POINTS 64 float
0.0 0.0 0.0
-0.6050159997410245 0.24841498790515792 0.45438944465584225
-1.426389667722914 0.5025921107994186 0.9480259981420305
-2.1323145627975464 0.6709368262026045 1.3109431001875136
-2.9064010911517673 0.7711395294302039 1.6507874296771154
-3.677522169219123 0.76615159958601 1.9350552691353693
-4.421391116248237 0.6459153021375338 2.1798294112086296
-5.132808910475837 0.4205613401201036 2.4090372059080334
-5.814584414164226 0.11578673124313354 2.6440320312976837
-6.485152244567871 -0.24823000695970324 2.891679995589786
-7.157142215304905 -0.6568377680248685 3.145435478952196
-7.8394856452941895 -1.1003344191445246 3.38933227956295
-8.539804458618164 -1.5737382107310824 3.602242565817303
-9.260319815741646 -2.076339218351576 3.762080528669887
-9.995425595177544 -2.6064097384611764 3.8472021089659796
-10.732038762834337 -3.1581556267208524 3.839748819669088
-11.451576709747314 -3.722727749082777 3.7293012142181396
-12.13399240705702 -4.29482560687595 3.5168287886513605
-12.760093371073404 -4.87532557381524 3.214188906881544
-13.314988984002007 -5.468830002678765 2.8405579063627453
-13.79107771979438 -6.07926000489129 2.4130781972780824
-14.184277958340115 -6.707874284850226 1.9421837793456183
-14.48951138390435 -7.354854159884983 1.4320417675707076
-14.697411113315159 -8.019083241621653 0.8822988801532321
-14.793444315592447 -8.694346812036303 0.2925022575590346
-14.768644544813368 -9.368054416444567 -0.3282301161024306
-14.627510918511284 -10.029386825031704 -0.9666767517725626
-14.383577558729383 -10.666526678535673 -1.6175562739372253
-14.049744500054253 -11.270477993620766 -2.2697218457857766
-13.641193389892578 -11.848537981510162 -2.895832339922587
-13.178464571634928 -12.423980037371317 -3.470374504725138
-12.681306627061632 -13.020643379953173 -3.9692778322431774
-12.172812143961588 -13.654596580399406 -4.341578854454888
-11.693746566772461 -14.31474561161465 -4.515017456478542
-11.301973236931694 -14.947812186347115 -4.435826746436457
-11.032652272118462 -15.497859795888266 -4.145771182245678
-10.878433439466688 -15.954685476091173 -3.7030861265957355
-10.828341166178385 -16.316558890872532 -3.1582853462960987
-10.866873211330837 -16.58930884467231 -2.559656712743971
-10.970634460449219 -16.7994245423211 -1.9220111634996202
-11.148317813873291 -16.94075870513916 -1.2176533540089924
-11.356308778127035 -16.991875330607098 -0.4947369164890713
-11.54813003540039 -16.99899016486274 0.22196473677953085
-11.700372166103786 -17.00564776526557 0.9334741847382652
-11.799678908454048 -17.047455469767254 1.6459509763452742
-11.843608750237358 -17.15806664360894 2.375265657901764
-11.851748996310764 -17.3372556898329 3.1324733628167047
-11.838883293999565 -17.5807400809394 3.897126648161146
-11.80859343210856 -17.895969072977703 4.649530013402303
-11.763488875495064 -18.286153475443523 5.38774115509457
-11.702163272433811 -18.75041887495253 6.112670006644395
-11.618959003024631 -19.29012335671319 6.824969242016475
-11.509045600891113 -19.909152136908638 7.516211012999217
-11.37362888124254 -20.60225550333659 8.17063672012753
-11.219145668877495 -21.350977579752605 8.776463402642143
-11.049768818749321 -22.13394906785753 9.332754347059462
-10.866830031077066 -22.93430021074083 9.842411173714531
-10.669517623053657 -23.737444559733074 10.309157954321968
-10.456894556681315 -24.52679994371202 10.736208862728542
-10.22749990887112 -25.2914555867513 11.134359995524088
-9.9856276512146 -26.015655199686687 11.509333345625135
-9.752931118011475 -26.65356667836507 11.842833307054308
-9.511806594000923 -27.30528916252984 12.217887613508436
-9.341175662146675 -27.779277801513672 12.478391170501709
LINES 1 65
64 0 1 2 3 4 5 6 7 8 9 10 11 12 13 14 15 16 17 18 19 20 21 22 23 24 25 26 27 28 29 30 31 32 33 34 35 36 37 38 39 40 41 42 43 44 45 46 47 48 49 50 51 52 53 54 55 56 57 58 59 60 61 62 63
POINT_DATA 64
SCALARS MaximumInscribedSphereRadius float
LOOKUP_TABLE default
1.0250667333602905
1.0740324258804321
1.1110358238220215
1.1349270343780518
1.1888415813446045
1.2569645643234253
1.2588322162628174
1.1879632472991943
1.1616077423095703
1.2429221868515015
1.331140398979187
1.3827087879180908
1.3075121641159058
1.2123290300369263
1.1537343263626099
1.197235107421875
1.3097083568572998
1.3683911561965942
1.3672679662704468
1.3786766529083252
1.3946856260299683
1.4493787288665771
1.4622681140899658
1.4638761281967163
1.4423828125
1.3943915367126465
1.3694623708724976
1.3862800598144531
1.4110783338546753
1.436048984527588
1.447932243347168
1.4632699489593506
1.614799976348877
1.775979995727539
1.8315266370773315
1.8024133443832397
1.785390019416809
1.786143183708191
1.8086090087890625
1.8017488718032837
1.8016645908355713
1.8272299766540527
1.8580156564712524
1.8296843767166138
1.8103468418121338
1.8267977237701416
1.8473821878433228
1.8282675743103027
1.7855489253997803
1.8172645568847656
1.8286088705062866
1.856177806854248
1.9065322875976562
1.9297165870666504
1.924691081047058
1.914246678352356
1.9143710136413574
1.9285967350006104
1.9513435363769531
1.9827289581298828
1.9804878234863281
1.9340566396713257
1.9368476867675781
1.8978887796401978
