# vtk DataFile Version 2.0
Vessel Segment
ASCII
DATASET POLYDATA
POINTS 64 float
0.0 0.0 0.0
-0.8059106042298178 0.1756727117074964 0.3427846984316905
-1.6273638241820865 0.3219390565710556 0.6690183476441436
-2.5189896871646247 0.43099480192177 1.0129290473543935
-3.4187972148259482 0.47163698251824826 1.3577414341270924
-4.316281934579213 0.42837557796802783 1.6981558617618349
-5.197767794132233 0.29165622297053534 2.0275047575641008
-6.055296387937334 0.0573047709509006 2.34255792428222
-6.883938908576965 -0.2801751088764932 2.6376697387960224
-7.679992768499586 -0.7178288878898861 2.90552801059352
-8.439226693577236 -1.2467284305021167 3.1256514891154237
-9.160516646173265 -1.8378121960494254 3.270232588880592
-9.851150221294827 -2.4599241382545896 3.304968037539058
-10.491622739368015 -3.0891049106915793 3.185459984673394
-11.044658899307251 -3.704300641806589 2.9009804936746755
-11.487957186169094 -4.288310347331895 2.474768275188075
-11.819163931740654 -4.841740957564777 1.9470869195130136
-12.035298400455051 -5.375066585010952 1.3392932416043348
-12.116676648457846 -5.898367679160502 0.6784801765655478
-12.059367524252998 -6.429620045754644 0.009173205743233362
-11.863766656981575 -6.982705252038108 -0.6276997940407859
-11.542337271902296 -7.548553374078539 -1.1850949451327324
-11.13904837767283 -8.117279960049522 -1.6451906110677454
-10.700030300352308 -8.700768086645338 -1.9457469772961404
-10.311796651946175 -9.24887693590588 -1.991374596953392
-10.056151694721645 -9.700817770428127 -1.7659534708493285
-9.93831894132826 -10.011428581343758 -1.3219391008218129
-9.911796106232536 -10.226940592130026 -0.7489123509989845
-9.969393584463331 -10.384311146206326 -0.07380290215628015
-10.113120847278172 -10.492506345113119 0.7141610347769327
-10.314159181382921 -10.553691082530552 1.5654830589062638
-10.52054860856798 -10.628216955396864 2.4162089170681105
-10.68703724278344 -10.773740225368076 3.248322545654244
-10.792963094181484 -11.024662971496582 4.035614979763825
-10.836609429783291 -11.398370597097609 4.7646775336729155
-10.820663889249166 -11.905023839738634 5.422903590732151
-10.751410828696358 -12.542343947622511 5.991031085451444
-10.640223503112793 -13.283160845438639 6.456604402098391
-10.497656636767918 -14.087092717488607 6.829403065972858
-10.323335554864672 -14.916443890995449 7.139959752559662
-10.107580833964878 -15.745389421780905 7.421314722961849
-9.840545548333061 -16.554111414485508 7.70487446255154
-9.512481146388584 -17.325276586744522 8.013741069369846
-9.113557789060804 -18.042533742056953 8.358172516028086
-8.635355578528511 -18.68872504764133 8.744984103573692
-8.076058632797665 -19.242011149724323 9.170616971121895
-7.437101198567285 -19.68616665734185 9.61658447318607
-6.724943591488732 -20.01325292057461 10.068529360824162
-5.955047886404726 -20.226019514931572 10.522158900896708
-5.142720207571983 -20.341147290335762 10.9826969438129
-4.298779590262307 -20.380994425879585 11.452469163470798
-3.4362059496343136 -20.372941626442802 11.92300468020969
-2.573759044210116 -20.35209451781379 12.401098900371128
-1.7302430605308876 -20.34433624479506 12.902607758839926
-0.9235848618878258 -20.366161108016968 13.42882932557
-0.1667684286625849 -20.42792214287652 13.973510040177239
0.5347458991325564 -20.534119579527115 14.528279092576769
1.1845950063111053 -20.687916623221504 15.086408350202772
1.7905223692715582 -20.896969503826565 15.645203193028768
2.3579977874954543 -21.177886115180122 16.206423865424263
2.881188223759333 -21.55378614531623 16.770255592134262
3.344056002381775 -22.04617502954271 17.337022251553005
3.7110094701250396 -22.611172013812595 17.87941124704149
3.991558915211095 -23.269169304105972 18.435874965455795
LINES 1 65
64 0 1 2 3 4 5 6 7 8 9 10 11 12 13 14 15 16 17 18 19 20 21 22 23 24 25 26 27 28 29 30 31 32 33 34 35 36 37 38 39 40 41 42 43 44 45 46 47 48 49 50 51 52 53 54 55 56 57 58 59 60 61 62 63
POINT_DATA 64
SCALARS MaximumInscribedSphereRadius float
LOOKUP_TABLE default
1.0652055740356445
1.0658773183822632
1.0848565101623535
1.124163269996643
1.1766490936279297
1.2015049457550049
1.1686981916427612
1.1641840934753418
1.2222840785980225
1.2566035985946655
1.284742832183838
1.2899919748306274
1.2833925485610962
1.3256797790527344
1.3307944536209106
1.3192315101623535
1.296596884727478
1.3462761640548706
1.4010343551635742
1.4056986570358276
1.4641222953796387
1.5180845260620117
1.542836308479309
1.5612438917160034
1.5584018230438232
1.5909870862960815
1.6690137386322021
1.68695068359375
1.6365125179290771
1.5791363716125488
1.606634259223938
1.6784577369689941
1.7142642736434937
1.717233419418335
1.6720353364944458
1.6884599924087524
1.7851060628890991
1.8114984035491943
1.8024706840515137
1.7842178344726562
1.7721186876296997
1.764453649520874
1.7806038856506348
1.7392983436584473
1.688698172569275
1.7313803434371948
1.7674546241760254
1.778958797454834
1.7989088296890259
1.7830355167388916
1.7930066585540771
1.7929540872573853
1.8367642164230347
1.8476914167404175
1.841224193572998
1.8534632921218872
1.828646183013916
1.82083261013031
1.813402771949768
1.8384391069412231
1.8767253160476685
1.8657722473144531
1.8258370161056519
1.7346110343933105
