# vtk DataFile Version 4.2
vtk output
ASCII
DATASET POLYDATA
POINTS 64 float
0 0 0 -0.539411 0.0497539 0.701926 -1.34396 0.104739 1.59493 
-2.08403 0.109717 2.18061 -2.94411 0.0564307 2.73561 -3.84964 -0.0923126 3.18185 
-4.76273 -0.36201 3.52448 -5.65753 -0.759103 3.79761 -6.50491 -1.27101 4.02177 
-7.29912 -1.87027 4.22171 -8.04494 -2.5312 4.41371 -8.75061 -3.23455 4.60586 
-9.42375 -3.96845 4.8003 -10.0685 -4.72749 4.99438 -10.6847 -5.51157 5.18178 
-11.2663 -6.32533 5.35273 -11.7995 -7.17725 5.49385 -12.2601 -8.07706 5.58801 
-12.6141 -9.0282 5.61647 -12.8246 -10.0207 5.56363 -12.8668 -11.0258 5.42417 
-12.7467 -12.0103 5.2054 -12.494 -12.9514 4.91984 -12.1496 -13.8432 4.57887 
-11.7486 -14.6903 4.18996 -11.3188 -15.5024 3.75915 -10.8814 -16.2907 3.29356 
-10.4522 -17.068 2.80315 -10.043 -17.8504 2.30084 -9.66614 -18.6535 1.81218 
-9.33438 -19.5048 1.37435 -9.06696 -20.4517 1.0595 -8.95824 -21.4448 1.15974 
-9.06044 -22.2648 1.7723 -9.32587 -22.6832 2.66178 -9.67446 -22.8358 3.61034 
-10.0745 -22.8046 4.54006 -10.516 -22.6086 5.43432 -10.9801 -22.2626 6.2689 
-11.4435 -21.7752 7.02947 -11.8768 -21.1591 7.71049 -12.2462 -20.4338 8.31749 
-12.5157 -19.6255 8.86979 -12.6469 -18.7663 9.39516 -12.5935 -17.9018 9.92717 
-12.309 -17.1094 10.499 -11.774 -16.515 11.1298 -11.0666 -16.2273 11.8013 
-10.309 -16.2696 12.4818 -9.60638 -16.575 13.1498 -9.00356 -17.0706 13.8004 
-8.51885 -17.7046 14.4289 -8.1594 -18.4438 15.0253 -7.92777 -19.2666 15.5736 
-7.82442 -20.1577 16.0498 -7.84358 -21.103 16.4208 -7.96746 -22.0858 16.6461 
-8.16029 -23.0834 16.6844 -8.37057 -24.0609 16.5196 -8.53388 -24.9966 16.1467 
-8.60183 -25.8639 15.6045 -8.57816 -26.5995 15.0094 -8.33974 -27.3996 14.1447 
-8.09272 -27.9394 13.4853 
LINES 1 65
64 0 1 2 3 4 5 6 7 8 9 10 11 12 13 14 15 16 17 18 19 20 21 22 23 24 25 26 27 28 29 30 31 32 33 34 35 36 37 38 39 40 41 42 43 44 45 46 47 48 49 50 51 52 53 54 55 56 57 58 59 60 61 62 63 

POINT_DATA 64
SCALARS MaximumInscribedSphereRadius float
LOOKUP_TABLE default
1.24 1.14699 1.04721 0.962495 0.93338 0.93 0.93 0.93 0.93 
1.00169 1.09889 1.20047 1.22973 1.24 1.24 1.24 1.24 1.24 
1.24 1.24 1.29246 1.37885 1.4897 1.53514 1.55 1.55 1.55 
1.55 1.55 1.55 1.55 1.58726 1.69365 1.85413 1.85885 1.88857 
1.95496 2.06585 2.11389 2.0684 1.97493 1.89129 1.87524 1.85964 1.82102 
1.69388 1.52208 1.30669 1.06075 0.95992 0.93 0.947831 1.00137 1.10542 
1.21352 1.32408 1.43829 1.55499 1.67118 1.78549 1.89313 1.99265 2.08501 
2.17 
TEXTURE_COORDINATES TCoords 2 float
0 0 0.015873 0 0.031746 0 0.047619 0 0.0634921 
0 0.0793651 0 0.0952381 0 0.111111 0 0.126984 0 
0.142857 0 0.15873 0 0.174603 0 0.190476 0 0.206349 
0 0.222222 0 0.238095 0 0.253968 0 0.269841 0 
0.285714 0 0.301587 0 0.31746 0 0.333333 0 0.349206 
0 0.365079 0 0.380952 0 0.396825 0 0.412698 0 
0.428571 0 0.444444 0 0.460317 0 0.47619 0 0.492063 
0 0.507937 0 0.52381 0 0.539683 0 0.555556 0 
0.571429 0 0.587302 0 0.603175 0 0.619048 0 0.634921 
0 0.650794 0 0.666667 0 0.68254 0 0.698413 0 
0.714286 0 0.730159 0 0.746032 0 0.761905 0 0.777778 
0 0.793651 0 0.809524 0 0.825397 0 0.84127 0 
0.857143 0 0.873016 0 0.888889 0 0.904762 0 0.920635 
0 0.936508 0 0.952381 0 0.968254 0 0.984127 0 
1 0 
FIELD FieldData 4
Curvature 1 64 float
0.177196 0.18923 0.198655 0.20546 0.20914 0.208846 0.201241 0.184586 0.152156 
0.118985 0.0888591 0.0640376 0.0530721 0.0567468 0.0736368 0.104464 0.146853 0.191003 
0.232042 0.254056 0.244826 0.216544 0.173503 0.13187 0.095375 0.0642142 0.039685 
0.0533442 0.0970774 0.177186 0.323749 0.631636 0.788903 0.690157 0.431807 0.30407 
0.243272 0.221951 0.215654 0.207436 0.198741 0.191601 0.21412 0.265658 0.343316 
0.438056 0.470624 0.447542 0.373147 0.30139 0.254279 0.226028 0.21472 0.220734 
0.233266 0.250365 0.269341 0.281227 0.285772 0.282735 0.271684 0.255012 0.234912 
0.212314 
Torsion 1 64 float
-0.0828529 -0.123221 -0.177988 -0.242128 -0.308671 -0.322666 -0.294711 -0.235373 -0.18778 
-0.150357 -0.0940682 -0.00271957 0.159254 0.200114 0.15669 0.063838 0.018161 -0.00847891 
-0.0192396 -0.0113087 0.0268952 0.0779518 0.135871 0.200701 0.297902 0.502931 0.923224 
0.624843 0.348703 0.167952 0.128988 0.0908741 0.027364 -0.0591403 -0.0794505 -0.0534225 
-0.000494169 0.0713688 0.142976 0.23922 0.34908 0.458943 0.451878 0.395501 0.314047 
0.271033 0.251825 0.236322 0.216015 0.174532 0.0999445 0.0144242 -0.0650164 -0.141892 
-0.215016 -0.279224 -0.320835 -0.337788 -0.326226 -0.284977 -0.215002 -0.153835 -0.104289 
-0.069222 
Abscissas 1 64 double
0 0.88664524257 2.0898820304 3.0336770925 4.0586659296 5.0790772179 6.0909397951 7.107280945 8.1223423433 
9.1371615667 10.152021096 11.166710031 12.18136912 13.196017156 14.2107108 15.225446075 16.24032804 17.255550204 
18.270830512 19.286782798 20.302388311 21.318028235 22.333445017 23.348422512 24.363129717 25.37793629 26.392584204 
27.406936189 28.422765774 29.435573688 30.448723847 31.481807756 32.485856714 33.51448407 34.532662683 35.554703882 
36.567316514 37.583701521 38.599392837 39.614658846 40.630098206 41.645462425 42.660851688 43.676455194 44.692942586 
45.710698925 46.729249675 47.74615592 48.765384561 49.781833384 50.797850718 51.813680591 52.829217559 53.844739279 
54.860370997 55.876048596 56.891923235 57.908710886 58.922062463 59.942483001 60.967571968 61.914045974 63.116006226 
64.003255821 
ParallelTransportNormals 3 64 double
0 -0.99749729953 0.070704578551 0.0044070734278 -0.99784865851 0.065411256066 0.027732843302 -0.99866705495 0.043531629474 
0.070247830337 -0.99744359152 0.013096719743 0.14731496623 -0.98861638263 -0.030593279135 0.25555291655 -0.96368240167 -0.077517324188 
0.37266270867 -0.92050886758 -0.11741350121 0.48221785252 -0.86334183004 -0.14868364808 0.56584248454 -0.80673685773 -0.17028777135 
0.62460978062 -0.75864829183 -0.18524413957 0.66498174243 -0.72070182565 -0.19592896864 0.69392409867 -0.69053274139 -0.20404381481 
0.71769997112 -0.66359879515 -0.21105305147 0.74129433713 -0.63472461176 -0.21819113858 0.76927387029 -0.59740056326 -0.22656186683 
0.80546165576 -0.54333081571 -0.2366920907 0.85167508451 -0.4618737089 -0.24763325191 0.90357719499 -0.34394124058 -0.2554460329 
0.94894010237 -0.18776554302 -0.25348921667 0.97167493077 -0.0080254435831 -0.23618514173 0.96496543187 0.1633442463 -0.20532991136 
0.93791767946 0.30304651824 -0.16874013851 0.90585061692 0.40147793702 -0.13509302688 0.87840505553 0.46550318301 -0.10821896795 
0.85978166008 0.50269628898 -0.089843964933 0.85067129043 0.51950927191 -0.080426811721 0.85036137393 0.52006916753 -0.080084921898 
0.85796759843 0.50591936333 -0.089090952674 0.8730594191 0.47547641334 -0.10811767236 0.8965027531 0.42074462907 -0.13876876732 
0.9293467761 0.32233022412 -0.18004942758 0.97487960646 0.085987219509 -0.20546520627 0.976277743 -0.19380357905 -0.096550200818 
0.92646863841 -0.36093435025 0.10668766023 0.87642471381 -0.40752507374 0.25652102311 0.83064676933 -0.41489405747 0.37133390052 
0.78297412077 -0.40203953306 0.47467435159 0.73601719965 -0.37393347995 0.56431589947 0.69341594764 -0.33565295143 0.63758248075 
0.66146674114 -0.29633599731 0.68894609881 0.64538806867 -0.26946660531 0.71474610139 0.64632589297 -0.27171772722 0.71304440029 
0.65733366853 -0.3175243338 0.68344037462 0.66205545047 -0.42203015133 0.61933281188 0.62760674501 -0.59102677278 0.50675154412 
0.50432342455 -0.7996897677 0.32581307353 0.29046153749 -0.95147118161 0.10165965669 0.051454337179 -0.99156981088 -0.11891913781 
-0.13495266667 -0.94713536068 -0.29107110181 -0.26197587845 -0.86919041285 -0.41937651976 -0.34723929509 -0.780626898 -0.51966000237 
-0.40586234326 -0.68526139582 -0.60472520844 -0.44572940801 -0.57990768343 -0.68193282187 -0.46958221254 -0.45786942721 -0.75488286064 
-0.47623010187 -0.31286731648 -0.82177790938 -0.46355968545 -0.14206547592 -0.87460266326 -0.43298511088 0.04913659936 -0.90006082481 
-0.39510273267 0.23473034063 -0.88814159785 -0.36302579652 0.3989406237 -0.84205620348 -0.34794438847 0.51642152704 -0.78245990884 
-0.34624403989 0.5832877585 -0.73477238355 -0.35434876014 0.6356409511 -0.68585533276 -0.36016779832 0.65119098992 -0.6680040806 
-0.36016779832 0.65119098992 -0.6680040806 
