# vtk DataFile Version 4.2
vtk output
ASCII
DATASET POLYDATA
POINTS 64 float
0 0 0 -0.308675 0.665585 0.630333 -0.719831 1.43165 1.28596 
-1.16738 2.12453 1.81023 -1.69979 2.84223 2.31966 -2.29789 3.52306 2.76655 
-2.96919 4.17116 3.16813 -3.71031 4.76913 3.51797 -4.51868 5.30579 3.81514 
-5.38884 5.76848 4.05708 -6.31361 6.143 4.24241 -7.28382 6.41123 4.37175 
-8.28647 6.54805 4.44984 -9.3004 6.52278 4.48901 -10.2925 6.30961 4.51271 
-11.2227 5.90511 4.55309 -12.0602 5.33816 4.63899 -12.7973 4.65548 4.7825 
-13.4447 3.89857 4.97671 -14.0184 3.09231 5.20142 -14.5293 2.24526 5.4276 
-14.9776 1.35489 5.61727 -15.3464 0.414752 5.71991 -15.5943 -0.568369 5.67048 
-15.6621 -1.5485 5.41207 -15.5177 -2.44591 4.95981 -15.1816 -3.21719 4.39132 
-14.6925 -3.8632 3.77996 -14.087 -4.40464 3.17154 -13.397 -4.86733 2.58881 
-12.6507 -5.279 2.03826 -11.8725 -5.66713 1.51557 -11.0838 -6.057 1.01014 
-10.3026 -6.46946 0.511142 -9.5425 -6.92035 0.0123791 -8.81354 -7.42058 -0.484247 
-8.12057 -7.98402 -0.970049 -7.47793 -8.62112 -1.41799 -6.8973 -9.38255 -1.78359 
-6.50405 -10.3115 -1.87254 -6.6622 -11.1433 -1.30808 -7.1801 -11.4921 -0.505892 
-7.80767 -11.5576 0.293532 -8.46915 -11.4738 1.0562 -9.14723 -11.2578 1.78081 
-9.81825 -10.9312 2.46801 -10.4603 -10.503 3.12701 -11.047 -9.98946 3.77639 
-11.5503 -9.41542 4.44496 -11.9385 -8.82168 5.17072 -12.174 -8.27827 5.99591 
-12.2119 -7.90951 6.94298 -12.0358 -7.86627 7.94059 -11.6962 -8.1988 8.83984 
-11.2803 -8.8158 9.53217 -10.8437 -9.60084 10.0054 -10.4123 -10.4798 10.2734 
-10.0005 -11.4046 10.3484 -9.62012 -12.3391 10.2341 -9.283 -13.2472 9.9369 
-9.00567 -14.0918 9.42837 -8.80346 -14.8061 8.7787 -8.70428 -15.3554 7.85113 
-8.70505 -15.6499 6.92705 
LINES 1 65
64 0 1 2 3 4 5 6 7 8 9 10 11 12 13 14 15 16 17 18 19 20 21 22 23 24 25 26 27 28 29 30 31 32 33 34 35 36 37 38 39 40 41 42 43 44 45 46 47 48 49 50 51 52 53 54 55 56 57 58 59 60 61 62 63 

POINT_DATA 64
SCALARS MaximumInscribedSphereRadius float
LOOKUP_TABLE default
0.93 1.18864 1.44289 1.45959 1.35402 1.23085 1.10832 1.00647 1.06867 
1.30689 1.4302 1.29208 1.06108 0.93 0.937162 0.977079 1.11169 1.19396 
1.1132 0.989315 0.864275 0.734779 0.624703 0.621195 0.647445 0.787623 0.894291 
0.93 0.950386 1.01913 1.14566 1.29641 1.64042 1.97846 2.07344 2.00862 
1.89084 1.76282 1.61529 1.43456 1.31659 1.35903 1.49484 1.66972 1.80542 
1.86 1.86 1.86 1.86 1.84045 1.72442 1.64389 1.70056 1.82727 
1.86 1.8581 1.75863 1.64117 1.62053 1.69672 1.78443 1.78294 1.6638 
1.55 
TEXTURE_COORDINATES TCoords 2 float
0 0 0.015873 0 0.031746 0 0.047619 0 0.0634921 
0 0.0793651 0 0.0952381 0 0.111111 0 0.126984 0 
0.142857 0 0.15873 0 0.174603 0 0.190476 0 0.206349 
0 0.222222 0 0.238095 0 0.253968 0 0.269841 0 
0.285714 0 0.301587 0 0.31746 0 0.333333 0 0.349206 
0 0.365079 0 0.380952 0 0.396825 0 0.412698 0 
0.428571 0 0.444444 0 0.460317 0 0.47619 0 0.492063 
0 0.507937 0 0.52381 0 0.539683 0 0.555556 0 
0.571429 0 0.587302 0 0.603175 0 0.619048 0 0.634921 
0 0.650794 0 0.666667 0 0.68254 0 0.698413 0 
0.714286 0 0.730159 0 0.746032 0 0.761905 0 0.777778 
0 0.793651 0 0.809524 0 0.825397 0 0.84127 0 
0.857143 0 0.873016 0 0.888889 0 0.904762 0 0.920635 
0 0.936508 0 0.952381 0 0.968254 0 0.984127 0 
1 0 
FIELD FieldData 4
Curvature 1 64 float
0.11373 0.10427 0.099469 0.0987742 0.10129 0.105894 0.111621 0.117961 0.124457 
0.132727 0.146032 0.165877 0.190553 0.213854 0.226199 0.218417 0.18844 0.14687 
0.10786 0.0899347 0.107491 0.160886 0.236844 0.317518 0.33774 0.292455 0.235702 
0.184899 0.141227 0.101461 0.0653973 0.0369365 0.0370534 0.0506638 0.0673745 0.0941718 
0.147027 0.259324 0.511821 1.10965 0.759267 0.40347 0.233711 0.165169 0.135871 
0.123679 0.120173 0.128504 0.164694 0.236205 0.340964 0.439724 0.470167 0.413962 
0.325993 0.260626 0.227239 0.215005 0.219639 0.238715 0.268509 0.300562 0.320449 
0.311886 
Torsion 1 64 float
0.150277 0.159167 0.15781 0.143679 0.118881 0.0909105 0.0678291 0.0532786 0.050581 
0.0685337 0.100967 0.134669 0.164992 0.187591 0.194406 0.175674 0.122511 0.0179568 
-0.203984 -0.411776 -0.386806 -0.177938 -0.0491572 0.0195793 0.098304 0.147958 0.163714 
0.157842 0.150332 0.171447 0.28077 0.584078 0.441195 0.13209 -0.0624235 -0.131434 
-0.127061 -0.0963642 -0.0663151 -0.0292492 0.027024 0.0190807 -0.0139611 -0.0722272 -0.163119 
-0.282149 -0.40212 -0.473311 -0.416418 -0.329778 -0.245105 -0.164123 -0.0879383 -0.0278041 
0.0030342 0.0144427 0.0152787 0.0148894 0.0151979 0.0158428 0.0156328 0.0137226 0.0103853 
0.0070372 
Abscissas 1 64 double
0 0.96726589757 2.0561881327 3.0335529213 4.062179475 5.072607015 6.0884533478 7.1029558242 8.117734547 
9.132522892 10.147319491 11.162200597 12.177151479 13.192151777 14.207171536 15.222318773 16.237314595 17.25218628 
18.266955562 19.28168783 20.296414094 21.311158748 22.326248885 23.341347222 24.35723561 25.372486885 26.387876901 
27.40291807 28.417788913 29.432557685 30.447221168 31.461836268 32.476482113 33.491073724 34.505873636 35.519899629 
36.536598409 37.546318219 38.571291498 39.583963492 40.601567849 41.618124384 42.636561078 43.649596164 44.665228323 
45.679712735 46.69453558 47.709244522 48.724044452 49.73891094 50.754634013 51.771669404 52.785625385 53.802756019 
54.819113667 55.834423002 56.849559591 57.864675062 58.880077889 59.893302314 60.917442569 61.903944101 62.986512009 
63.956385559 
ParallelTransportNormals 3 64 double
-0.90718932777 -0.42072262072 0 -0.8909468199 -0.45316598922 -0.029229271673 -0.8611911692 -0.50346900783 -0.069776272852 
-0.83193240675 -0.54565930425 -0.10071938382 -0.7873244617 -0.60080126879 -0.13841252623 -0.73568967163 -0.65486944185 -0.17293559838 
-0.6716627064 -0.71135218306 -0.20699584655 -0.59645362606 -0.76642551582 -0.23840092418 -0.50922174808 -0.81836094529 -0.26641804461 
-0.40862068757 -0.86528437918 -0.29036541948 -0.29150545652 -0.90500851393 -0.30981310258 -0.15265249252 -0.93351687988 -0.32441247124 
0.010591638055 -0.94254727241 -0.33390486141 0.1898342535 -0.92124235321 -0.3395224335 0.36161547118 -0.86604710904 -0.34524868708 
0.4988159682 -0.79064654816 -0.35505022989 0.59200552926 -0.71668899311 -0.36862764475 0.65113165336 -0.65520987114 -0.38305038148 
0.6919181664 -0.60299763108 -0.39704295475 0.72749867859 -0.54876043715 -0.41183449984 0.7668539748 -0.47747537863 -0.42889654246 
0.81545008738 -0.36861033068 -0.44628195024 0.87053141022 -0.19683227871 -0.45103449743 0.90958221796 0.045960602618 -0.41297434759 
0.8990604606 0.30363146119 -0.31543339068 0.84048934804 0.50704490307 -0.19100555516 0.75948346481 0.64616683016 -0.075188391955 
0.67623116989 0.73647960578 0.017583945414 0.60327618909 0.79302594 0.08466225937 0.54937439727 0.82583893305 0.12719209206 
0.51936415298 0.84158321893 0.14831912291 0.51437949913 0.8440582106 0.15158980172 0.5311188864 0.83550319416 0.14087988163 
0.56352692223 0.81735014559 0.11990057309 0.60526691714 0.79068845512 0.091998510566 0.6540701748 0.75418539035 0.058280386224 
0.71050252298 0.7034427232 0.018828171017 0.78724792837 0.61579368481 -0.03223099468 0.91388318437 0.39560363832 -0.091188193677 
0.98712989934 -0.14993338094 0.05562861779 0.83636415674 -0.41309103958 0.36034815157 0.71780474939 -0.45600314776 0.52613446093 
0.64737284003 -0.45498163844 0.61147372362 0.58586408721 -0.44122323915 0.67976858161 0.53979660313 -0.42269299345 0.72797682692 
0.50920668243 -0.4051092707 0.7593385499 0.50101650217 -0.39883209638 0.76805951817 0.51820688973 -0.41598423986 0.7472742011 
0.55913930566 -0.46960151336 0.68325519063 0.61312261758 -0.56801726704 0.54903282247 0.65192300718 -0.69742655362 0.2976450823 
0.62525789228 -0.77663908649 -0.076709174663 0.52054606364 -0.71798947917 -0.46208538542 0.39239318265 -0.55691181978 -0.73203607506 
0.28202300069 -0.37538572509 -0.88292048593 0.19035325761 -0.1996491995 -0.96120020519 0.11147561829 -0.030915412663 -0.99328617416 
0.039820060397 0.13726391262 -0.98973379304 -0.02459302499 0.30269031745 -0.95277161736 -0.090848186136 0.49161918867 -0.86605841628 
-0.13789556682 0.64477177043 -0.75183387574 -0.18418301667 0.83696174413 -0.51533644858 -0.19510758352 0.93452049744 -0.29766503105 
-0.19510758352 0.93452049744 -0.29766503105 
