# vtk DataFile Version 4.2
vtk output
ASCII
DATASET POLYDATA
POINTS 64 float
0 0 0 -1.01465 -0.113794 0.201553 -1.99326 -0.126131 0.339653 
-2.97992 -0.252201 0.52904 -3.85576 -0.672516 0.808018 -4.47853 -1.42583 1.06533 
-4.87781 -2.35455 1.07693 -5.17039 -3.24751 0.704987 -5.43019 -3.96802 0.0420126 
-5.67947 -4.54064 -0.757029 -5.90496 -5.03248 -1.61518 -6.07192 -5.49402 -2.50298 
-6.12629 -5.95786 -3.40316 -6.01476 -6.4356 -4.29038 -5.74522 -6.92353 -5.1376 
-5.3877 -7.43728 -5.93596 -5.01692 -8.02194 -6.67722 -4.70219 -8.74823 -7.30925 
-4.53657 -9.6866 -7.63785 -4.61098 -10.6149 -7.28765 -4.86083 -11.0611 -6.42191 
-5.18981 -11.003 -5.46882 -5.53385 -10.5956 -4.60783 -5.84768 -10.0205 -3.83339 
-6.11345 -9.41951 -3.06049 -6.32458 -8.92764 -2.20005 -6.48141 -8.73445 -1.22067 
-6.59457 -9.01798 -0.260267 -6.66581 -9.73103 0.450706 -6.66738 -10.6659 0.838071 
-6.57017 -11.6659 0.97077 -6.37223 -12.6607 0.981959 -6.1076 -13.6383 1.03731 
-5.83806 -14.5944 1.24066 -5.60895 -15.5316 1.55425 -5.41307 -16.473 1.87798 
-5.21098 -17.4275 2.15579 -4.94602 -18.3746 2.40438 -4.5439 -19.2543 2.70635 
-3.95504 -19.9333 3.16948 -3.25587 -20.3337 3.78344 -2.52867 -20.56 4.45342 
-1.78009 -20.7216 5.11887 -0.995961 -20.8496 5.7497 -0.173082 -20.9231 6.33838 
0.669035 -20.9226 6.90407 1.4995 -20.8713 7.48461 2.29528 -20.8245 8.11204 
3.04707 -20.8387 8.79286 3.76373 -20.9454 9.50275 4.46684 -21.1516 10.2042 
5.17339 -21.4623 10.8622 5.87341 -21.9022 11.4491 6.5203 -22.506 11.9431 
7.05771 -23.2645 12.3476 7.47061 -24.1138 12.7175 7.77844 -24.9923 13.1202 
7.99844 -25.8628 13.5921 8.1301 -26.7237 14.1122 8.15137 -27.6198 14.5859 
8.03295 -28.5945 14.8294 7.81079 -29.5767 14.7344 7.56635 -30.4818 14.4249 
7.31506 -31.3894 13.979 
LINES 1 65
64 0 1 2 3 4 5 6 7 8 9 10 11 12 13 14 15 16 17 18 19 20 21 22 23 24 25 26 27 28 29 30 31 32 33 34 35 36 37 38 39 40 41 42 43 44 45 46 47 48 49 50 51 52 53 54 55 56 57 58 59 60 61 62 63 

POINT_DATA 64
SCALARS MaximumInscribedSphereRadius float
LOOKUP_TABLE default
0.93 0.932525 1.0936 1.04308 0.703201 1.02695 0.936288 0.688463 0.988094 
1.25609 1.22038 1.03212 1.05368 1.16537 1.00759 1.1115 1.24 1.30195 
1.74885 1.86 1.86 1.86 1.86 1.86 1.86 1.86461 2.00642 
2.17 2.11165 1.95117 2.22696 2.18774 1.65272 1.80344 2.0301 2.01929 
1.60008 1.55 1.55 1.57698 1.67283 1.81675 1.87341 2.04864 2.4575 
2.24368 2.17 2.25431 2.41844 2.02964 2.14571 2.30217 1.95487 2.01766 
2.26791 2.47015 2.4739 2.30304 2.06427 1.87005 1.90314 2.10779 2.03152 
1.86 
TEXTURE_COORDINATES TCoords 2 float
0 0 0.015873 0 0.031746 0 0.047619 0 0.0634921 
0 0.0793651 0 0.0952381 0 0.111111 0 0.126984 0 
0.142857 0 0.15873 0 0.174603 0 0.190476 0 0.206349 
0 0.222222 0 0.238095 0 0.253968 0 0.269841 0 
0.285714 0 0.301587 0 0.31746 0 0.333333 0 0.349206 
0 0.365079 0 0.380952 0 0.396825 0 0.412698 0 
0.428571 0 0.444444 0 0.460317 0 0.47619 0 0.492063 
0 0.507937 0 0.52381 0 0.539683 0 0.555556 0 
0.571429 0 0.587302 0 0.603175 0 0.619048 0 0.634921 
0 0.650794 0 0.666667 0 0.68254 0 0.698413 0 
0.714286 0 0.730159 0 0.746032 0 0.761905 0 0.777778 
0 0.793651 0 0.809524 0 0.825397 0 0.84127 0 
0.857143 0 0.873016 0 0.888889 0 0.904762 0 0.920635 
0 0.936508 0 0.952381 0 0.968254 0 0.984127 0 
1 0 
FIELD FieldData 4
Curvature 1 64 float
0.268428 0.0707681 0.081709 0.222864 0.286239 0.252469 0.269619 0.232111 0.140378 
0.0691451 0.0483529 0.0778988 0.111096 0.108883 0.0720927 0.0596739 0.12787 0.271175 
0.49692 0.492257 0.344479 0.246729 0.133781 0.0413945 0.103756 0.220419 0.319148 
0.33158 0.263301 0.184761 0.104924 0.066207 0.104028 0.0849992 0.0442687 0.0399526 
0.0493158 0.120501 0.22609 0.223873 0.124665 0.050008 0.0382714 0.0522421 0.0543952 
0.037977 0.039542 0.0612136 0.0683294 0.0656803 0.0730034 0.0962023 0.12791 0.139822 
0.108337 0.0765978 0.0737326 0.0744252 0.10255 0.193067 0.248109 0.196666 0.13703 
0.100304 
Torsion 1 64 float
0.00508896 0.373595 0.0177562 -0.080967 -0.246767 -0.464065 -0.289924 -0.118451 -0.00552352 
0.261964 0.518092 0.173184 0.0369016 0.0660414 0.363298 0.523993 0.0865151 -0.0571888 
-0.0763841 0.0256757 0.0467751 -0.0211902 -0.170493 -1.33261 -0.350655 -0.109423 -0.0749124 
-0.0053094 0.0851435 0.156595 0.440978 0.982054 0.294178 0.265171 0.489447 0.495715 
0.65501 0.275959 0.110619 0.0482493 -0.0614956 -0.431461 -0.073114 0.235067 0.343536 
0.736349 0.665299 0.301544 0.259343 0.278485 0.133749 -0.0739978 -0.116126 -0.155834 
-0.292187 -0.413414 -0.146565 0.279135 0.402095 0.192631 0.084522 0.0441574 0.0300228 
0.0212856 
Abscissas 1 64 double
0 1.0407147944 2.0290980273 3.04164867 4.0523857686 5.0630952915 6.0740748897 7.0846798857 8.0976782715 
9.1118289233 10.12631176 11.140749407 12.154863729 13.168684911 14.182839402 15.197303915 16.211587724 17.224511123 
18.23245241 19.227398329 20.232896195 21.242838472 22.255578578 23.269968317 24.284462071 25.29780731 26.308303855 
27.316057784 28.325512703 29.337459132 30.350898226 31.365260912 32.379556056 33.393524141 34.408005821 35.42260092 
36.437041433 37.451437066 38.464727767 39.475810204 40.488778969 41.503128277 42.517677416 43.532167017 44.546600837 
45.56107929 46.575638674 47.590096054 48.604446302 49.618808663 50.633162081 51.647416102 52.661315981 53.674764015 
54.688544562 55.702755267 56.716998372 57.731326098 58.745715152 59.759540378 60.771149751 61.782632984 62.769925653 
63.811900631 
ParallelTransportNormals 3 64 double
0.19483605868 0 0.98083582227 0.1397753781 -0.0034134823152 0.99017735372 0.1885082393 -1.5294639254e-05 0.98207160812 
0.29032392029 0.029869472779 0.95646214557 0.32312804338 0.055560017948 0.94472289693 0.23525358298 -0.08905272928 0.96784573311 
0.11215810495 -0.41317334973 0.9037191724 0.020484263223 -0.68096236015 0.73203187022 -0.029559036879 -0.80808568819 0.58832285684 
-0.052862863236 -0.86033432956 0.50698161611 -0.061300117231 -0.88083104024 0.46944538999 -0.062453512146 -0.88565378148 0.46012708914 
-0.062675096462 -0.88200520499 0.46705315613 -0.065988273529 -0.87360871244 0.4821341777 -0.078302083661 -0.85393799658 0.51444988258 
-0.1098279956 -0.80639094251 0.5810950518 -0.17172629694 -0.68800334318 0.70509678677 -0.26624462802 -0.3600949592 0.89411711672 
-0.30071709413 0.35763689287 0.88411825123 -0.17457849152 0.89484648151 0.41081884674 -0.022091719324 0.99741149929 -0.068427019667 
0.098400250639 0.91415619576 -0.39323763861 0.15983473821 0.82242268815 -0.54596133424 0.16823661445 0.80537418241 -0.56839147413 
0.1382642199 0.87405924014 -0.465728945 0.081207306441 0.9802433748 -0.18035603552 0.016465925991 0.95842052715 0.28488412807 
-0.030033053423 0.70725882171 0.70631648347 -0.044402053724 0.38247854532 0.92289686314 -0.031854011945 0.12843555121 0.99120614965 
-0.014102289879 0.0084399582783 0.99986493714 -0.023865887693 0.050071779208 0.99846043303 -0.062707886295 0.19067968927 0.97964737385 
-0.090461119615 0.29605268544 0.95087832728 -0.092816127349 0.30646257461 0.94734674585 -0.08351224162 0.26213959974 0.96140966073 
-0.076377251899 0.23308949405 0.96945128973 -0.094998921897 0.28407822751 0.9540832068 -0.1908423335 0.43477700685 0.88008417669 
-0.34122289853 0.56084002658 0.75433772152 -0.43238508545 0.60090176976 0.67227985316 -0.45146870979 0.60591786832 0.65501109985 
-0.43778110792 0.60333165121 0.66658729375 -0.42825744665 0.60213750554 0.67381450252 -0.44513196038 0.60287736707 0.66211510942 
-0.48224514473 0.60172801906 0.63668124793 -0.51693661274 0.59963531355 0.61091245621 -0.53108773072 0.59933724157 0.59894965827 
-0.51722937083 0.59819625407 0.61207435787 -0.47733716539 0.58940446888 0.65172970056 -0.41441651589 0.56633227481 0.71240908604 
-0.33112913594 0.52188551026 0.78612277 -0.23784456963 0.44959747709 0.86098319919 -0.16761271093 0.36881257454 0.91426651694 
-0.14704111702 0.33400953591 0.93102982757 -0.15977516816 0.36453670467 0.91737935806 -0.18047096744 0.43311322394 0.88308729193 
-0.19120617944 0.4859676565 0.85280456951 -0.18855127221 0.45545940954 0.87006042549 -0.19870679972 0.26019411946 0.94488868548 
-0.25041950422 -0.036930430609 0.96743279622 -0.29951222708 -0.23528735609 0.92462548412 -0.32858274665 -0.3416230942 0.88052656979 
-0.32858274665 -0.3416230942 0.88052656979 
