# vtk DataFile Version 4.2
vtk output
ASCII
DATASET POLYDATA
POINTS 64 float
0 0 0 -0.769107 0.657636 0.270812 -1.59341 1.10524 0.544847 
-2.53504 1.32099 0.858872 -3.47881 1.19053 1.20099 -4.3201 0.754535 1.5595 
-5.0328 0.134114 1.9274 -5.64819 -0.579807 2.30246 -6.20801 -1.34147 2.67098 
-6.75164 -2.13559 2.99164 -7.32067 -2.95846 3.15443 -7.91412 -3.73774 2.91563 
-8.40973 -4.32513 2.25598 -8.78385 -4.78887 1.43527 -9.06125 -5.23416 0.567047 
-9.22862 -5.71016 -0.312807 -9.24644 -6.2348 -1.18028 -9.07713 -6.80216 -2.00316 
-8.71992 -7.38978 -2.74813 -8.21152 -7.98028 -3.39717 -7.59417 -8.57274 -3.94165 
-6.89079 -9.17396 -4.35642 -6.10908 -9.78429 -4.56444 -5.29216 -10.3448 -4.37167 
-4.66489 -10.6522 -3.6484 -4.33937 -10.6725 -2.68974 -4.1914 -10.5635 -1.6923 
-4.14124 -10.4351 -0.687222 -4.16094 -10.369 0.324766 -4.24952 -10.4387 1.3324 
-4.41572 -10.7053 2.2959 -4.6523 -11.1919 3.15261 -4.92055 -11.8679 3.85866 
-5.16581 -12.6738 4.42313 -5.34016 -13.5583 4.88798 -5.40587 -14.4838 5.29773 
-5.33166 -15.4172 5.68706 -5.09495 -16.3248 6.07254 -4.68621 -17.171 6.45308 
-4.11264 -17.9226 6.81927 -3.40003 -18.5553 7.16584 -2.58717 -19.0598 7.50234 
-1.71313 -19.4375 7.85183 -0.813232 -19.6924 8.24414 0.0809271 -19.8309 8.70239 
0.946429 -19.8701 9.22992 1.77577 -19.8426 9.81355 2.57378 -19.7872 10.4376 
3.35015 -19.7421 11.0892 4.11142 -19.7397 11.7599 4.85674 -19.8041 12.4451 
5.57764 -19.9498 13.1438 6.26245 -20.1827 13.855 6.90362 -20.5025 14.5731 
7.50241 -20.9052 15.2861 8.06713 -21.3889 15.9762 8.60508 -21.9575 16.6213 
9.11249 -22.6215 17.1961 9.57093 -23.3883 17.676 9.96081 -24.2486 18.0448 
10.2769 -25.178 18.3018 10.5301 -26.1513 18.4605 10.7309 -27.1041 18.5397 
10.9152 -28.1357 18.5546 
LINES 1 65
64 0 1 2 3 4 5 6 7 8 9 10 11 12 13 14 15 16 17 18 19 20 21 22 23 24 25 26 27 28 29 30 31 32 33 34 35 36 37 38 39 40 41 42 43 44 45 46 47 48 49 50 51 52 53 54 55 56 57 58 59 60 61 62 63 

POINT_DATA 64
SCALARS MaximumInscribedSphereRadius float
LOOKUP_TABLE default
0.8742 0.904215 0.991724 1.17273 1.06976 1.33449 1.82282 1.93206 1.74743 
1.55027 1.48012 1.24629 1.23711 1.12602 1.6124 1.73628 1.58746 1.77836 
1.69109 1.48041 1.30321 1.42539 1.7591 2.0153 1.984 2.0364 2.18773 
2.36429 2.10801 1.86 1.86 1.94941 2.33963 2.28294 1.94227 1.63744 
1.79377 1.55021 1.4009 1.81457 1.85843 1.75403 1.56276 1.79156 1.8848 
1.88081 1.88212 2.03758 2.0852 1.92595 2.06183 1.9274 1.69169 2.04119 
2.07832 2.13177 2.42905 2.48 2.64766 2.79 2.76664 2.58234 2.59289 
2.79 
TEXTURE_COORDINATES TCoords 2 float
0 0 0.015873 0 0.031746 0 0.047619 0 0.0634921 
0 0.0793651 0 0.0952381 0 0.111111 0 0.126984 0 
0.142857 0 0.15873 0 0.174603 0 0.190476 0 0.206349 
0 0.222222 0 0.238095 0 0.253968 0 0.269841 0 
0.285714 0 0.301587 0 0.31746 0 0.333333 0 0.349206 
0 0.365079 0 0.380952 0 0.396825 0 0.412698 0 
0.428571 0 0.444444 0 0.460317 0 0.47619 0 0.492063 
0 0.507937 0 0.52381 0 0.539683 0 0.555556 0 
0.571429 0 0.587302 0 0.603175 0 0.619048 0 0.634921 
0 0.650794 0 0.666667 0 0.68254 0 0.698413 0 
0.714286 0 0.730159 0 0.746032 0 0.761905 0 0.777778 
0 0.793651 0 0.809524 0 0.825397 0 0.84127 0 
0.857143 0 0.873016 0 0.888889 0 0.904762 0 0.920635 
0 0.936508 0 0.952381 0 0.968254 0 0.984127 0 
1 0 
FIELD FieldData 4
Curvature 1 64 float
0.140412 0.178895 0.225762 0.258819 0.233482 0.166752 0.100935 0.0546049 0.0674574 
0.162985 0.327154 0.368389 0.206162 0.0979012 0.0849911 0.112976 0.142371 0.147836 
0.130703 0.108134 0.115434 0.173258 0.318035 0.474057 0.362693 0.175871 0.0734757 
0.068901 0.111786 0.157465 0.183118 0.178508 0.144911 0.109578 0.0932069 0.101709 
0.117979 0.131017 0.136426 0.132437 0.117062 0.101457 0.0947898 0.0965284 0.0894964 
0.0679694 0.0424219 0.02661 0.0354067 0.0503941 0.0619022 0.0682819 0.069892 0.0669257 
0.0652662 0.0716404 0.0879552 0.106443 0.116381 0.110906 0.0947234 0.074745 0.0573489 
0.0435945 
Torsion 1 64 float
-0.0164471 -0.0257507 -0.0404476 -0.0574126 -0.0636199 -0.0702706 -0.0205232 0.283013 0.296033 
0.0847551 0.00788717 -0.0595288 -0.15623 -0.312429 -0.186758 -0.0227373 0.0151358 -0.00230671 
-0.0500803 -0.107069 -0.101959 -0.0442724 -0.000924335 0.0246311 0.00543692 -0.11006 -0.535631 
-0.498524 -0.120148 -0.0260998 -0.0448277 -0.0993682 -0.187297 -0.289052 -0.335846 -0.211988 
-0.0824543 -0.0217993 -0.0146677 -0.047305 -0.115843 -0.199384 -0.22751 -0.157634 -0.0971933 
-0.133592 -0.356342 -0.742305 -0.316974 -0.050948 0.0375247 0.031302 -0.0222667 -0.102613 
-0.159382 -0.124581 -0.0177919 0.0300245 0.0178989 -0.00680866 -0.0317353 -0.0517587 -0.0717605 
-0.0994119 
Abscissas 1 64 double
0 1.0475446464 2.0247447349 3.0405333881 4.0528409768 5.0659497882 6.0799588996 7.0943837501 8.1089458183 
9.1233337087 10.136946581 11.145155672 12.15797067 13.172162599 14.186581215 15.20084526 16.214785173 17.228537891 
18.242380626 19.256487883 20.27068112 21.284704532 22.298038822 23.307340236 24.312865769 25.325488413 26.339718362 
27.354205665 28.368541374 29.382459779 30.39588511 31.4091479 32.42277508 33.436804054 34.451113068 35.465392595 
36.479454119 37.4935373 38.507407215 39.521301133 40.535319399 41.549465899 42.563737559 43.577984703 44.592231178 
45.606587528 46.621075657 47.635633569 48.650210809 49.664792708 50.679261866 51.693711046 52.708113268 53.722529197 
54.736967557 55.751420025 56.765741915 57.780017999 58.794144993 59.808115215 60.822879057 61.841019874 62.817963428 
63.86600407 
ParallelTransportNormals 3 64 double
0.3321247773 0 0.94323545963 0.31965139313 0.0085844837684 0.94749632902 0.31822955711 0.0091228884634 0.94796978954 
0.33979266115 0.0081542351974 0.94046502108 0.38241155747 0.021675341687 0.92373783092 0.42363248142 0.04969448035 0.90446999912 
0.45154461811 0.077737185917 0.88885566195 0.4604439377 0.088911038145 0.88322489069 0.44021272643 0.060386431183 0.89586061104 
0.35612706094 -0.061812114488 0.93239089387 0.12689813527 -0.37769856385 0.91719172376 -0.12421730978 -0.69286165384 0.7102906367 
-0.21651190862 -0.80440455273 0.55322319997 -0.23622001875 -0.83190180868 0.50213492555 -0.23758273355 -0.83472457698 0.49677895014 
-0.23656619734 -0.82923116591 0.50637151161 -0.23758830692 -0.82186417208 0.51777512404 -0.24078347013 -0.81485511759 0.52728972856 
-0.24779356218 -0.80531396747 0.53857939465 -0.26479518403 -0.78744826818 0.55660464916 -0.30117431907 -0.7545688591 0.58302647144 
-0.37713376848 -0.69260137259 0.61487678388 -0.5392131966 -0.57390930935 0.61634181527 -0.76257701334 -0.43971553739 0.47447502031 
-0.86917567009 -0.40298028869 0.28660171223 -0.89560729556 -0.40792455916 0.17744048627 -0.90342834558 -0.41729510087 0.098397272295 
-0.90476000768 -0.42579961319 0.010198917214 -0.89839980341 -0.42558653368 -0.10841538441 -0.87854001722 -0.39937056297 -0.26205074238 
-0.84313229232 -0.33315733371 -0.42205938994 -0.80488761215 -0.24508321379 -0.54045365215 -0.78224122942 -0.17973145054 -0.59648576235 
-0.77853467399 -0.16480002613 -0.60557799892 -0.78374228369 -0.20406455028 -0.58660522677 -0.78334261525 -0.29131434894 -0.54909953309 
-0.76314985343 -0.41087927649 -0.4987790306 -0.71439297673 -0.54335602819 -0.44091598 -0.63590230594 -0.67102716893 -0.38124899458 
-0.53454232607 -0.7801209852 -0.3250780677 -0.42232791982 -0.86377493705 -0.2748308321 -0.30785597867 -0.92364114231 -0.22827995231 
-0.19428316438 -0.96414203637 -0.1807876814 -0.086528952896 -0.98777033871 -0.12970157394 0.0032506392912 -0.99683703166 -0.079406332547 
0.061892410569 -0.99724199125 -0.040960229528 0.086748360705 -0.99597581667 -0.022514318142 0.080812953019 -0.99635470204 -0.027323512647 
0.050319395083 -0.99729670764 -0.053546572417 0.0026586660732 -0.99533522034 -0.096440295724 -0.054115352503 -0.98719982499 -0.15002677819 
-0.1130943067 -0.9713149613 -0.20918155688 -0.16985916042 -0.94765404361 -0.27036952352 -0.22246618709 -0.9170010267 -0.33108595957 
-0.27312907319 -0.87840441525 -0.39218132624 -0.32659304392 -0.82738225434 -0.45691967441 -0.3883064612 -0.75461485961 -0.52893714735 
-0.45759677357 -0.65196802117 -0.60460143251 -0.52381003575 -0.52496789271 -0.6708440639 -0.57551079039 -0.3939091554 -0.71667489661 
-0.60973417467 -0.27955199747 -0.74167035598 -0.62957577082 -0.19519117251 -0.7520204485 -0.64308113024 -0.12580025222 -0.75539457006 
-0.64308113024 -0.12580025222 -0.75539457006 
