# vtk DataFile Version 4.2
vtk output
ASCII
DATASET POLYDATA
POINTS 64 float
0 0 0 -1.01889 -0.218552 0.0892002 -1.95939 -0.270939 0.33778 
-2.91834 -0.218384 0.695385 -3.83348 -0.0818373 1.10752 -4.73754 0.097245 1.53206 
-5.64759 0.287174 1.9385 -6.57936 0.455694 2.30274 -7.54214 0.565286 2.60296 
-8.53158 0.570847 2.82604 -9.52238 0.429786 2.99064 -10.4723 0.120194 3.16472 
-11.3305 -0.339204 3.44795 -12.0661 -0.873315 3.89711 -12.7067 -1.41028 4.47207 
-13.3149 -1.93701 5.09013 -13.9482 -2.47953 5.6679 -14.6398 -3.0805 6.10217 
-15.3609 -3.7765 6.24699 -15.9724 -4.54251 5.99608 -16.3302 -5.2988 5.42544 
-16.409 -5.99775 4.6957 -16.2539 -6.63411 3.92156 -15.9215 -7.22179 3.16468 
-15.459 -7.78237 2.45696 -14.902 -8.34234 1.82059 -14.2757 -8.93904 1.28979 
-13.6114 -9.62657 0.956912 -13.0782 -10.4225 1.19638 -13.0902 -10.8245 2.13142 
-13.3594 -10.8299 3.1079 -13.6793 -10.6759 4.05818 -13.9962 -10.4347 4.99128 
-14.2718 -10.1582 5.92777 -14.4589 -9.9093 6.89316 -14.4884 -9.80199 7.90071 
-14.3186 -9.98631 8.88137 -14.0401 -10.4636 9.73114 -13.774 -11.111 10.4652 
-13.575 -11.8464 11.1351 -13.458 -12.6278 11.7713 -13.4149 -13.4318 12.3887 
-13.4188 -14.2451 12.9952 -13.4245 -15.0613 13.5979 -13.3642 -15.8729 14.2035 
-13.1447 -16.6545 14.811 -12.6773 -17.3388 15.3939 -11.9698 -17.8516 15.9074 
-11.1211 -18.1939 16.3446 -10.214 -18.4181 16.7399 -9.29069 -18.5671 17.133 
-8.37452 -18.6621 17.5584 -7.48359 -18.7078 18.0414 -6.63302 -18.6996 18.5942 
-5.83177 -18.635 19.2131 -5.07727 -18.5217 19.8818 -4.35335 -18.3816 20.5788 
-3.63518 -18.2466 21.2826 -2.89817 -18.1514 21.9733 -2.12697 -18.1255 22.6321 
-1.3235 -18.184 23.2455 -0.48655 -18.3321 23.8204 0.3143 -18.5399 24.3318 
1.17126 -18.8368 24.8542 
LINES 1 65
64 0 1 2 3 4 5 6 7 8 9 10 11 12 13 14 15 16 17 18 19 20 21 22 23 24 25 26 27 28 29 30 31 32 33 34 35 36 37 38 39 40 41 42 43 44 45 46 47 48 49 50 51 52 53 54 55 56 57 58 59 60 61 62 63 

POINT_DATA 64
SCALARS MaximumInscribedSphereRadius float
LOOKUP_TABLE default
0.9796 0.762299 0.79556 1.15249 1.24 1.18971 1.0229 1.0479 1.24312 
1.44631 1.32907 1.05696 1.2115 1.423 1.4995 1.33461 1.11142 1.00182 
1.11089 1.10724 1.02839 1.00826 1.16365 1.1538 1.05163 1.16886 1.3406 
1.29735 1.09857 1.33919 1.18442 1.0168 1.17488 1.24 1.36743 1.7743 
1.85724 1.73697 1.5798 1.55 1.64514 1.78491 1.56242 1.34816 1.46798 
1.41781 1.28824 1.48466 1.55 1.49348 1.32319 1.25353 1.26806 1.25458 
1.24923 1.268 1.25699 1.16465 0.97613 1.08708 1.24788 1.29505 1.15937 
0.93 
TEXTURE_COORDINATES TCoords 2 float
0 0 0.015873 0 0.031746 0 0.047619 0 0.0634921 
0 0.0793651 0 0.0952381 0 0.111111 0 0.126984 0 
0.142857 0 0.15873 0 0.174603 0 0.190476 0 0.206349 
0 0.222222 0 0.238095 0 0.253968 0 0.269841 0 
0.285714 0 0.301587 0 0.31746 0 0.333333 0 0.349206 
0 0.365079 0 0.380952 0 0.396825 0 0.412698 0 
0.428571 0 0.444444 0 0.460317 0 0.47619 0 0.492063 
0 0.507937 0 0.52381 0 0.539683 0 0.555556 0 
0.571429 0 0.587302 0 0.603175 0 0.619048 0 0.634921 
0 0.650794 0 0.666667 0 0.68254 0 0.698413 0 
0.714286 0 0.730159 0 0.746032 0 0.761905 0 0.777778 
0 0.793651 0 0.809524 0 0.825397 0 0.84127 0 
0.857143 0 0.873016 0 0.888889 0 0.904762 0 0.920635 
0 0.936508 0 0.952381 0 0.968254 0 0.984127 0 
1 0 
FIELD FieldData 4
Curvature 1 64 float
0.196893 0.176901 0.133729 0.0850978 0.042498 0.0209007 0.0431947 0.0779391 0.112218 
0.134938 0.147047 0.17123 0.180776 0.137673 0.0578579 0.0422425 0.140912 0.255177 
0.347034 0.335898 0.272761 0.208944 0.15592 0.11616 0.0981948 0.124403 0.229361 
0.523752 0.911083 0.434329 0.182454 0.0793096 0.0509639 0.104382 0.200677 0.299486 
0.290996 0.18721 0.119225 0.0868224 0.0655917 0.0408133 0.0293412 0.0699238 0.143511 
0.22362 0.248042 0.197711 0.122275 0.0655942 0.0508953 0.0661397 0.0799807 0.0818332 
0.0687486 0.0402218 0.0184146 0.0374272 0.0680337 0.083051 0.0817716 0.0727108 0.0626288 
0.0545003 
Torsion 1 64 float
0.0182361 0.0329341 0.0610334 0.12924 0.387107 1.2448 0.350492 0.153526 0.165955 
0.272515 0.410984 0.407423 0.282354 0.163727 0.124686 0.282894 0.101715 0.113692 
0.141098 0.150989 0.135119 0.121266 0.133071 0.195353 0.283617 0.241847 0.122739 
0.0338571 -0.0612146 -0.080959 -0.113606 -0.317481 -0.78703 -0.316065 -0.173857 -0.167787 
-0.206487 -0.26487 -0.277906 -0.204979 -0.104112 0.0101689 0.154554 0.0530742 0.021539 
0.0211294 0.0282794 0.0553785 0.145877 0.398985 0.470185 0.152927 0.0117593 -0.0239214 
-0.0124156 0.203259 0.708827 0.300276 0.0206736 -0.0281683 -0.0651376 -0.0963259 -0.115463 
-0.125709 
Abscissas 1 64 double
0 1.0458769185 2.0200825458 3.0448890179 4.0577963806 5.0725027402 6.0871249485 7.1016518605 8.1160915021 
9.1303828894 10.144619437 11.158768604 12.172560022 13.18652618 14.201060218 15.215628894 16.230131291 17.244066885 
18.256674425 19.268434945 20.281166793 21.294705295 22.308758133 23.323018946 24.337427472 25.351716211 26.366630927 
27.378954562 28.366451836 29.384316227 30.397238072 31.411675904 32.426209713 33.440813744 34.455178229 35.468856301 
36.481031855 37.494677701 38.508965782 39.523451133 40.53785974 41.552480494 42.567032281 43.581656803 44.596093076 
45.610062246 46.623227199 47.636737648 48.650938587 49.66551231 50.680020985 51.694593571 52.709056841 53.723514275 
54.738015271 55.752542643 56.767184364 57.781742481 58.796293578 59.810904461 60.823449593 61.849572672 62.822234854 
63.86886353 
ParallelTransportNormals 3 64 double
0.087212865963 0 0.99618969881 0.25428729549 0.022632015812 0.96686388039 0.3504127937 0.022757976943 0.93631882844 
0.41261717961 0.016464215673 0.91075572614 0.42727610905 0.013921226724 0.90401400768 0.41073549878 0.017285784266 0.91159067114 
0.36797710373 0.02560725435 0.92948217823 0.30117382063 0.035413600653 0.95291143694 0.21997723045 0.040202714218 0.97467623335 
0.15878397759 0.03601537948 0.98665624252 0.16807426373 0.038172706225 0.98503496708 0.27224291914 0.082477362523 0.95868726791 
0.41836036563 0.17355970819 0.89154452057 0.52022456221 0.25283746605 0.81574482569 0.55337032576 0.28107014359 0.78407962411 
0.52324617244 0.25512551936 0.81309557396 0.4181242866 0.16439710463 0.89338998928 0.21625098749 -0.020944889567 0.97611311947 
-0.0290766441 -0.29011126585 0.95655109753 -0.18484109085 -0.53471160129 0.82457096394 -0.23143187482 -0.68996692642 0.68584614001 
-0.22662329241 -0.77418775918 0.5909950904 -0.21045482141 -0.81478605001 0.54021519865 -0.20156461622 -0.82762841478 0.52383481417 
-0.21042559545 -0.81788920599 0.53551686762 -0.25196357934 -0.77728569008 0.57649051222 -0.36342660764 -0.66636708539 0.65105760756 
-0.69086061144 -0.25982206445 0.67468815788 -0.94227090796 0.31184437902 0.12197794589 -0.88849411322 0.38939864801 -0.24278983445 
-0.855763214 0.38114841581 -0.34985026324 -0.84439458678 0.37409308862 -0.3834737838 -0.85100916723 0.37987259038 -0.36260200271 
-0.87270330785 0.4045068478 -0.27342850353 -0.89468772695 0.44066541468 -0.073129088327 -0.87314818267 0.42882177283 0.23178468077 
-0.81681157138 0.34569117121 0.46186196099 -0.78949143222 0.28927357697 0.54131698303 -0.7878549857 0.28440831947 0.54625674304 
-0.79295140691 0.30887140948 0.52519188749 -0.79620289283 0.3410678408 0.49973361045 -0.79675164769 0.36370920458 0.48259965437 
-0.79675843273 0.36255758371 0.48345423607 -0.79544337005 0.32335629519 0.51255297424 -0.77956493333 0.23295584978 0.58138634898 
-0.71662411332 0.098657631084 0.69044663229 -0.59782297287 -0.022395612585 0.80131524985 -0.48326705265 -0.085347866517 0.87130287358 
-0.41915481412 -0.1060342617 0.90170171185 -0.40423721782 -0.10907578235 0.90812705357 -0.42778618678 -0.10595208583 0.89764866953 
-0.47815187833 -0.10203072436 0.87233050648 -0.54148822867 -0.1006668845 0.83465961719 -0.60278676363 -0.10336841148 0.7911782916 
-0.65013800099 -0.10878301365 0.75198858742 -0.67761919679 -0.11349325058 0.72660271553 -0.68421474842 -0.11475145208 0.72019600269 
-0.67165602687 -0.11276474722 0.73223103824 -0.64339764062 -0.1104957424 0.7575157866 -0.60815360871 -0.11122730955 0.78598834204 
-0.57619428549 -0.115241297 0.80914744567 -0.55619606943 -0.11960905325 0.82239869087 -0.54715786569 -0.12234622234 0.82803965599 
-0.54715786569 -0.12234622234 0.82803965599 
