# vtk DataFile Version 4.2
vtk output
ASCII
DATASET POLYDATA
POINTS 64 float
0 0 0 -0.72023 0.458134 0.60881 -1.44702 0.784898 1.17093 
-2.26666 1.02554 1.72732 -3.14914 1.1344 2.21544 -4.08468 1.08451 2.60229 
-5.03499 0.851046 2.86667 -5.94675 0.439541 3.03238 -6.79434 -0.102513 3.16168 
-7.59059 -0.714564 3.30539 -8.36407 -1.34764 3.47964 -9.14738 -1.97131 3.64304 
-9.96028 -2.5764 3.66937 -10.73 -3.1548 3.36269 -11.309 -3.7201 2.75243 
-11.7008 -4.34759 2.05893 -11.9534 -5.08609 1.41175 -12.0853 -5.92397 0.85594 
-12.1026 -6.81647 0.37433 -12.0096 -7.72316 -0.0709197 -11.8099 -8.61706 -0.506858 
-11.505 -9.48225 -0.939819 -11.0914 -10.3146 -1.34604 -10.5539 -11.1159 -1.6572 
-9.8752 -11.8643 -1.72187 -9.14897 -12.4248 -1.30985 -8.61828 -12.6683 -0.48507 
-8.34772 -12.684 0.490844 -8.29978 -12.5793 1.49804 -8.44052 -12.4282 2.49084 
-8.73852 -12.2945 3.45097 -9.15894 -12.2479 4.37263 -9.65275 -12.3763 5.24848 
-10.1322 -12.7738 6.04685 -10.4728 -13.4583 6.71009 -10.6113 -14.3252 7.21601 
-10.5852 -15.2645 7.59733 -10.463 -16.2263 7.89608 -10.2997 -17.1967 8.14301 
-10.1291 -18.1728 8.36087 -9.96174 -19.1511 8.5716 -9.78561 -20.1225 8.80558 
-9.56849 -21.0646 9.11233 -9.25735 -21.9112 9.57359 -8.8044 -22.5085 10.2517 
-8.22773 -22.7751 11.0411 -7.55543 -22.8479 11.7969 -6.79445 -22.8558 12.4674 
-5.96314 -22.8576 13.0488 -5.0879 -22.8736 13.5616 -4.18989 -22.9064 14.0326 
-3.28172 -22.946 14.4833 -2.36935 -22.9714 14.9264 -1.45603 -22.9571 15.3679 
-0.54623 -22.8826 15.8106 0.35361 -22.7423 16.2577 1.23919 -22.5525 16.715 
2.11315 -22.3538 17.1905 2.98216 -22.2071 17.6929 3.84348 -22.1866 18.2275 
4.67142 -22.3569 18.7876 5.4298 -22.7343 19.3535 6.07162 -23.2474 19.8788 
6.66198 -23.9299 20.4124 
LINES 1 65
64 0 1 2 3 4 5 6 7 8 9 10 11 12 13 14 15 16 17 18 19 20 21 22 23 24 25 26 27 28 29 30 31 32 33 34 35 36 37 38 39 40 41 42 43 44 45 46 47 48 49 50 51 52 53 54 55 56 57 58 59 60 61 62 63 

POINT_DATA 64
SCALARS MaximumInscribedSphereRadius float
LOOKUP_TABLE default
1.116 1.20781 1.26251 1.24775 1.13077 0.959051 0.932598 1.03719 1.27537 
1.00181 0.921925 1.55418 1.67546 1.26172 0.84705 1.24278 1.4648 1.51489 
1.34701 1.17417 1.00392 1.02727 1.2083 1.49958 1.65418 1.40904 1.58745 
1.80667 2.01017 2.2301 2.31848 2.21427 2.22863 2.23298 2.17493 2.17 
2.23867 2.40668 2.48 2.48 2.24275 1.94008 1.86 1.76878 1.63079 
1.78965 1.47545 1.42952 1.78077 1.51883 1.20337 1.00851 1.03723 1.19756 
1.24 1.24581 1.26831 1.37945 1.52489 1.55 1.62631 1.75225 1.68623 
1.55 
TEXTURE_COORDINATES TCoords 2 float
0 0 0.015873 0 0.031746 0 0.047619 0 0.0634921 
0 0.0793651 0 0.0952381 0 0.111111 0 0.126984 0 
0.142857 0 0.15873 0 0.174603 0 0.190476 0 0.206349 
0 0.222222 0 0.238095 0 0.253968 0 0.269841 0 
0.285714 0 0.301587 0 0.31746 0 0.333333 0 0.349206 
0 0.365079 0 0.380952 0 0.396825 0 0.412698 0 
0.428571 0 0.444444 0 0.460317 0 0.47619 0 0.492063 
0 0.507937 0 0.52381 0 0.539683 0 0.555556 0 
0.571429 0 0.587302 0 0.603175 0 0.619048 0 0.634921 
0 0.650794 0 0.666667 0 0.68254 0 0.698413 0 
0.714286 0 0.730159 0 0.746032 0 0.761905 0 0.777778 
0 0.793651 0 0.809524 0 0.825397 0 0.84127 0 
0.857143 0 0.873016 0 0.888889 0 0.904762 0 0.920635 
0 0.936508 0 0.952381 0 0.968254 0 0.984127 0 
1 0 
FIELD FieldData 4
Curvature 1 64 float
0.076829 0.0806961 0.0954053 0.11852 0.144381 0.162275 0.153745 0.112739 0.0667228 
0.0362835 0.0535563 0.139342 0.267013 0.274173 0.177136 0.147676 0.139571 0.112674 
0.0885424 0.0792202 0.0788523 0.0888703 0.130345 0.2281 0.389955 0.416968 0.283011 
0.192388 0.14315 0.117858 0.117509 0.148834 0.209394 0.254818 0.236697 0.170679 
0.104647 0.0545706 0.0243074 0.0143557 0.0366691 0.0931055 0.182495 0.287536 0.278198 
0.174712 0.117238 0.0934845 0.065643 0.0384297 0.0176797 0.0132913 0.0291806 0.0437973 
0.0491973 0.0388365 0.0232367 0.0458522 0.0969004 0.142331 0.161797 0.151731 0.131296 
0.110504 
Torsion 1 64 float
-0.151478 -0.139105 -0.103961 -0.0534126 0.00573548 0.0741748 0.180174 0.252721 0.396686 
0.518254 0.221897 0.12537 0.159503 0.306744 0.463916 0.268383 -0.000307498 -0.184268 
-0.24419 -0.164758 0.00658052 0.202162 0.219427 0.139341 0.0986833 0.0839972 0.0962399 
0.132327 0.190154 0.282013 0.351953 0.2976 0.210977 0.156034 0.0989855 0.029617 
-0.0499146 -0.172122 -0.386473 -0.29443 -0.0682643 -0.0267383 -0.00870456 -0.0286791 -0.170405 
-0.343433 -0.322208 -0.163955 -0.118222 -0.0874025 0.482627 0.706104 0.107815 0.0500487 
0.0806593 0.248962 0.939434 0.35033 0.0648549 0.0101583 -0.000954179 -0.000141861 0.000275966 
0.000248288 
Abscissas 1 64 double
0 1.0484596378 2.0236403531 3.0430950749 4.0574335289 5.0710297554 6.0846819705 7.0986361854 8.1130077976 
9.1275386458 10.142141799 11.156655595 12.170378682 13.180857069 14.194377124 15.208375766 16.222294374 17.236378032 
18.250677571 19.265065315 20.279451389 21.293834917 22.308175398 23.321984529 24.334366557 25.340016487 26.350553586 
27.363399821 28.377157216 29.391204035 30.405368094 31.419460105 32.433090847 33.44564901 34.457793023 35.471032219 
36.485117949 37.499634026 38.514186847 39.528751001 40.543387641 41.557973706 42.572266717 43.58533119 44.596154316 
45.609454095 46.623614295 47.6378742 48.65232291 49.666849352 50.681413264 51.696041805 52.710636163 53.725170435 
54.739699774 55.754241298 56.768834561 57.783422126 58.797870158 59.811818326 60.825818843 61.844551205 62.819816934 
63.868176948 
ParallelTransportNormals 3 64 double
0.64556190526 0 0.7637079458 0.61616584587 0.015845878282 0.78745702012 0.56805724385 0.033580677048 0.82230365793 
0.48812440172 0.049976467241 0.87134202307 0.37913834963 0.053508058404 0.92379164292 0.25973568854 0.035567807289 0.96502450911 
0.17595237888 0.0065488966151 0.98437689546 0.15410853832 -0.0052899328443 0.98803976389 0.17212702297 0.0073603713288 0.9850472643 
0.19794681215 0.027840890679 0.97981730152 0.18863280182 0.020321996675 0.98183740127 0.07958119815 -0.063624633399 0.99479582776 
-0.18264743779 -0.2597218436 0.9482533825 -0.40405665925 -0.44743785116 0.79783305614 -0.45860469039 -0.51445532015 0.7245808868 
-0.45012498436 -0.49647993632 0.74222312769 -0.43828387886 -0.44793510457 0.7792697759 -0.43594642633 -0.42082836783 0.79552133737 
-0.43545970141 -0.43239714959 0.78956162107 -0.42909243571 -0.47156638753 0.7703926426 -0.41522687564 -0.5199032638 0.7465167366 
-0.40042698656 -0.55486959942 0.72923107179 -0.40158123003 -0.55288709999 0.73010161645 -0.45848249865 -0.4803903373 0.74767567986 
-0.63942624514 -0.31191426084 0.70274004504 -0.85064092346 -0.17673077966 0.49515275507 -0.95431490913 -0.14317157431 0.26226885924 
-0.98636731689 -0.15211983455 0.062762027672 -0.97825502015 -0.17448700042 -0.1121222647 -0.94379459965 -0.19685686901 -0.2655167166 
-0.89358777333 -0.20945683587 -0.39702484211 -0.83952146276 -0.20461706095 -0.5033245195 -0.79986061077 -0.18318039262 -0.57154872679 
-0.79213359219 -0.17298421779 -0.58532113624 -0.80085640503 -0.20122179009 -0.56403795059 -0.80345642903 -0.24297635133 -0.54352576696 
-0.80151294051 -0.26789380866 -0.53461192792 -0.80110543431 -0.27065172042 -0.53383305382 -0.80292464935 -0.26004645213 -0.53636540734 
-0.80407330981 -0.25340382966 -0.53782210029 -0.80051836448 -0.27358222461 -0.53321957438 -0.78527186901 -0.34776836316 -0.51225507057 
-0.73688466815 -0.51158546036 -0.441906441 -0.61041310963 -0.75048381077 -0.25331775573 -0.42767504168 -0.90390426229 0.007151457148 
-0.29473589466 -0.94003971304 0.17162776673 -0.22349081898 -0.9440512926 0.24252630945 -0.19004948573 -0.94425500135 0.26881905699 
-0.17893849832 -0.94437088594 0.2759431891 -0.1791598546 -0.94436479406 0.27582038041 -0.17828245768 -0.94439996364 0.2762681197 
-0.16390591827 -0.94491324644 0.2833263254 -0.13008463618 -0.94511886869 0.29971371586 -0.080375913055 -0.94269770682 0.32382209029 
-0.027745264155 -0.93645058815 0.34970058088 0.0090424689982 -0.92964904057 0.36833530257 0.010474188846 -0.92933292184 0.36909431281 
-0.038851354394 -0.93910753726 0.34141998437 -0.14851499903 -0.94970226672 0.27569711578 -0.30870506211 -0.93549748739 0.17188843975 
-0.47628735128 -0.87769400424 0.05294897475 -0.60129962585 -0.7977794123 -0.044573190009 -0.69843936934 -0.70414721984 -0.12790285437 
-0.69843936934 -0.70414721984 -0.12790285437 
