# vtk DataFile Version 4.2
vtk output
ASCII
DATASET POLYDATA
POINTS 64 float
0 0 0 -0.834903 -0.0305022 0.632325 -1.70537 0.0021655 1.07275 
-2.65821 0.0677496 1.42897 -3.63399 0.149071 1.69553 -4.62441 0.225067 1.90112 
-5.62376 0.270485 2.07024 -6.62557 0.249511 2.22868 -7.61471 0.113861 2.40706 
-8.55867 -0.178891 2.63347 -9.42249 -0.626728 2.91897 -10.2019 -1.18295 3.25368 
-10.9223 -1.79546 3.62134 -11.6155 -2.42877 4.00587 -12.31 -3.06226 4.38758 
-13.0311 -3.68717 4.73217 -13.8038 -4.30374 4.95779 -14.5978 -4.90065 4.78522 
-15.0574 -5.37115 4.02209 -15.153 -5.76883 3.0955 -15.0626 -6.19217 2.17825 
-14.8582 -6.67461 1.30974 -14.5748 -7.23224 0.511313 -14.2358 -7.87807 -0.193335 
-13.8646 -8.62536 -0.76949 -13.4941 -9.48413 -1.15969 -13.176 -10.4382 -1.27637 
-12.9762 -11.403 -1.04703 -12.9162 -12.267 -0.521409 -12.9551 -13.0059 0.172071 
-13.0432 -13.6637 0.939426 -13.1412 -14.2964 1.7265 -13.2121 -14.9584 2.49199 
-13.217 -15.694 3.19006 -13.1259 -16.5175 3.77467 -12.939 -17.4041 4.23009 
-12.682 -18.3192 4.58463 -12.3831 -19.2415 4.88367 -12.0597 -20.161 5.1653 
-11.717 -21.0709 5.455 -11.3473 -21.9627 5.76726 -10.9307 -22.823 6.10712 
-10.4389 -23.6315 6.47231 -9.84932 -24.3623 6.85577 -9.15885 -24.9911 7.25132 
-8.38646 -25.506 7.66004 -7.56125 -25.907 8.09258 -6.71246 -26.1996 8.56466 
-5.86746 -26.3908 9.09223 -5.05087 -26.4922 9.68539 -4.28005 -26.525 10.344 
-3.55922 -26.5234 11.0579 -2.87937 -26.5316 11.811 -2.22543 -26.5999 12.5835 
-1.58576 -26.7765 13.3506 -0.960417 -27.0905 14.0847 -0.359661 -27.5399 14.7672 
0.203829 -28.0976 15.4 0.71813 -28.7289 16.0051 1.16863 -29.4043 16.6132 
1.5324 -30.1028 17.253 1.77239 -30.8055 17.9504 1.8511 -31.4548 18.6762 
1.68171 -32.0607 19.5131 
LINES 1 65
64 0 1 2 3 4 5 6 7 8 9 10 11 12 13 14 15 16 17 18 19 20 21 22 23 24 25 26 27 28 29 30 31 32 33 34 35 36 37 38 39 40 41 42 43 44 45 46 47 48 49 50 51 52 53 54 55 56 57 58 59 60 61 62 63 

POINT_DATA 64
SCALARS MaximumInscribedSphereRadius float
LOOKUP_TABLE default
1.24 1.24 1.33091 1.50759 1.39794 1.21348 1.03246 1.02767 1.24745 
1.6276 1.76698 1.57951 1.78288 1.94062 1.89475 1.54111 1.12464 1.21465 
1.15605 1.29302 1.74157 2.0589 1.75348 1.62755 1.79983 1.87252 1.8848 
1.88204 1.86833 1.9639 2.12985 2.17 2.41467 2.81728 2.15002 1.82577 
2.39981 2.5156 2.40145 2.03165 2.16522 2.58793 2.36298 2.11838 2.2185 
2.22574 2.1948 2.19642 2.30506 2.47923 2.48717 2.48556 2.51615 2.73141 
2.89715 2.84999 2.65865 2.37201 2.04271 2.23417 2.72759 2.17067 1.96334 
2.17 
TEXTURE_COORDINATES TCoords 2 float
0 0 0.015873 0 0.031746 0 0.047619 0 0.0634921 
0 0.0793651 0 0.0952381 0 0.111111 0 0.126984 0 
0.142857 0 0.15873 0 0.174603 0 0.190476 0 0.206349 
0 0.222222 0 0.238095 0 0.253968 0 0.269841 0 
0.285714 0 0.301587 0 0.31746 0 0.333333 0 0.349206 
0 0.365079 0 0.380952 0 0.396825 0 0.412698 0 
0.428571 0 0.444444 0 0.460317 0 0.47619 0 0.492063 
0 0.507937 0 0.52381 0 0.539683 0 0.555556 0 
0.571429 0 0.587302 0 0.603175 0 0.619048 0 0.634921 
0 0.650794 0 0.666667 0 0.68254 0 0.698413 0 
0.714286 0 0.730159 0 0.746032 0 0.761905 0 0.777778 
0 0.793651 0 0.809524 0 0.825397 0 0.84127 0 
0.857143 0 0.873016 0 0.888889 0 0.904762 0 0.920635 
0 0.936508 0 0.952381 0 0.968254 0 0.984127 0 
1 0 
FIELD FieldData 4
Curvature 1 64 float
0.167208 0.131803 0.0976029 0.0684731 0.0465721 0.0381974 0.0551863 0.0922549 0.128113 
0.137641 0.11273 0.0735913 0.0337474 0.0173115 0.0595471 0.149471 0.353886 0.592977 
0.350458 0.184826 0.117689 0.0991301 0.102808 0.124688 0.167441 0.225099 0.275235 
0.254557 0.175402 0.0927244 0.0270454 0.0378809 0.0914641 0.127431 0.129844 0.0982192 
0.0576327 0.0251621 0.017388 0.0304055 0.0483353 0.0708967 0.0930434 0.106345 0.103789 
0.0939599 0.0861105 0.084744 0.084587 0.0778652 0.0609752 0.0441979 0.0522614 0.081363 
0.104794 0.108959 0.0940029 0.0699628 0.0577646 0.07033 0.099262 0.13913 0.181616 
0.211033 
Torsion 1 64 float
-0.0193316 -0.0283945 -0.048687 -0.106021 -0.288435 -0.492684 -0.315055 -0.1438 -0.0750476 
-0.0537374 -0.0501084 -0.0588667 -0.0682164 -0.0499464 -0.0550933 -0.0636586 -0.105026 -0.219244 
-0.214141 -0.187517 -0.175686 -0.162675 -0.137368 -0.107225 -0.0759855 -0.0470578 -0.0241175 
-0.00399837 0.00547768 0.0236637 2.45162 0.826902 0.00412701 -0.00954162 -0.0163058 -0.0339553 
-0.100449 -0.412563 -0.59009 0.0141979 0.133772 0.0973823 0.0406117 -0.0202892 -0.0857254 
-0.150436 -0.187929 -0.178996 -0.155252 -0.163972 -0.292887 -0.612702 -0.493179 -0.184884 
-0.0533604 0.0108896 0.0980731 0.267352 0.384715 0.230852 0.0906829 0.0414642 0.0233457 
0.0148097 
Abscissas 1 64 double
0 1.0477730213 2.0238642298 3.0432258947 4.0580234473 5.0724072886 6.0869835346 7.1014615145 8.1156697565 
9.129585992 10.143614284 11.157957751 12.17251169 13.187140312 14.201705321 15.216220007 16.230186055 17.238411655 
18.245868663 19.258714938 20.272981448 21.287297757 22.30157223 23.315744617 24.329739475 25.343156108 26.355604409 
27.367214777 28.380315975 29.394417149 30.408959263 31.423552225 32.438069566 33.452186682 34.466198378 35.48029882 
36.494771932 37.509367572 38.523951295 39.53848992 40.553128733 41.567611827 42.581960889 43.596216897 44.610415171 
45.624693081 46.639021801 47.653378556 48.667731971 49.682099027 50.696498247 51.711018858 52.725623311 53.740048492 
54.754350571 55.768525749 56.782762128 57.797151744 58.811642717 59.82598955 60.840669684 61.859368644 62.836391175 
63.883390291 
ParallelTransportNormals 3 64 double
0.60375013635 0 0.79717361525 0.45147755187 0.00039284236544 0.8922823913 0.35052378774 0.0057986715255 0.93653587739 
0.26445862216 0.012355767485 0.96431787921 0.20447769654 0.017154853907 0.97872089106 0.16768329736 0.019400070261 0.98565001347 
0.15578303808 0.019545411809 0.98759790498 0.17464258864 0.021029200491 0.98440730339 0.22374807647 0.031912273595 0.97412442997 
0.28627919121 0.057528886044 0.95641761378 0.33845893643 0.089411375513 0.93672362748 0.37189591333 0.11546701191 0.92106503506 
0.38786639285 0.12954193002 0.91256701105 0.38577636463 0.12763399071 0.91372105202 0.35613320469 0.10128266805 0.92893000903 
0.26275264245 0.023675974717 0.96457270183 -0.048475189269 -0.21736366759 0.97488624569 -0.4816199479 -0.58619674882 0.65147187004 
-0.5735190301 -0.72968289607 0.37234230662 -0.57373994359 -0.76370664779 0.29593011549 -0.57289821716 -0.76629289527 0.29083127659 
-0.58069221024 -0.7496748676 0.31746519473 -0.60002874844 -0.71228618534 0.36416190248 -0.63470731407 -0.64426092436 0.42670187111 
-0.69007190606 -0.5243733395 0.49883200107 -0.76640410395 -0.32340543512 0.55500781435 -0.84122659821 -0.046153681578 0.53870924267 
-0.87678032615 0.2040293875 0.43546328056 -0.87871214969 0.350450733 0.32411300766 -0.87279291924 0.41555465893 0.25602118187 
-0.87061197385 0.43067832567 0.23780448019 -0.87400595725 0.40466170974 0.26900276459 -0.87790983761 0.33266880542 0.34439190311 
-0.87146677064 0.21613907743 0.44026079416 -0.85049880615 0.08715411954 0.51870602482 -0.82572079549 -0.013417430364 0.563919445 
-0.80793220026 -0.072213760556 0.5848339359 -0.79880845073 -0.099216978838 0.59334732674 -0.79506064777 -0.10951006821 0.59656190905 
-0.79160243128 -0.11825611206 0.59948401376 -0.78230969525 -0.13896285481 0.60719096313 -0.75990385033 -0.1801238169 0.62458109869 
-0.71933672777 -0.23786911621 0.65266603684 -0.66371236992 -0.29695003736 0.68651770941 -0.60716223764 -0.34116257757 0.71760860701 
-0.56519679119 -0.36522134414 0.73970666957 -0.54587762316 -0.37322600281 0.75014663324 -0.55070748958 -0.37184643848 0.74729611741 
-0.5760368912 -0.36738600425 0.7302116295 -0.61389864327 -0.3641851591 0.70035535672 -0.65518918841 -0.36332149427 0.66236290596 
-0.69357459328 -0.3631405971 0.62216010022 -0.72722109757 -0.36121065425 0.58367485684 -0.75644162598 -0.35567861829 0.54889779283 
-0.78214347939 -0.34571067819 0.51839724598 -0.80568398543 -0.33105387243 0.49119919501 -0.82923259632 -0.31068396657 0.46459527992 
-0.85588203779 -0.2812849046 0.43398702726 -0.88795468189 -0.23784629543 0.39365673201 -0.92560569949 -0.17431986859 0.33595635503 
-0.96504776687 -0.082820785342 0.24864336944 -0.99083728629 0.027661679929 0.13219797108 -0.980506573 0.1857886153 -0.063948813375 
-0.980506573 0.1857886153 -0.063948813375 
