# vtk DataFile Version 4.2
vtk output
ASCII
DATASET POLYDATA
POINTS 64 float
0 0 0 -0.8673 0.509284 0.286714 -1.74535 0.885537 0.51085 
-2.69425 1.17316 0.731008 -3.67201 1.33165 0.951622 -4.66118 1.3335 1.17432 
-5.63635 1.16219 1.39283 -6.56945 0.829087 1.60909 -7.44274 0.371386 1.84698 
-8.25074 -0.166945 2.14062 -9.00059 -0.746093 2.50314 -9.71672 -1.33996 2.90796 
-10.4366 -1.94321 3.29144 -11.1944 -2.57312 3.52883 -11.9212 -3.2405 3.33528 
-12.3039 -3.85649 2.63403 -12.2728 -4.45571 1.81959 -11.8758 -5.14214 1.19534 
-11.2168 -5.87998 0.995109 -10.4938 -6.5763 1.13637 -9.77943 -7.2534 1.38314 
-9.08449 -7.97945 1.51825 -8.55026 -8.74103 1.15753 -8.4261 -9.24625 0.293523 
-8.57309 -9.52027 -0.673911 -8.83886 -9.68547 -1.63211 -9.11257 -9.75612 -1.35184 
-8.95637 -9.5767 -0.333283 -8.87323 -9.33406 0.658143 -8.93048 -9.06426 1.63266 
-9.21226 -8.8504 2.58156 -9.78464 -8.87416 3.41278 -10.485 -9.26396 4.02928 
-11.0909 -9.92779 4.49665 -11.513 -10.7519 4.90868 -11.722 -11.6609 5.30529 
-11.7231 -12.5987 5.69026 -11.5604 -13.5302 6.05688 -11.3075 -14.4489 6.4054 
-11.0325 -15.3648 6.7444 -10.7663 -16.2826 7.0852 -10.5018 -17.1941 7.44394 
-10.2013 -18.0736 7.85031 -9.79997 -18.8549 8.35578 -9.24837 -19.3996 9.00547 
-8.60182 -19.5891 9.76019 -7.95276 -19.5023 10.5342 -7.30766 -19.2969 11.2898 
-6.6313 -19.0727 12.012 -5.89686 -18.8638 12.6798 -5.10154 -18.6582 13.275 
-4.25782 -18.439 13.7938 -3.38074 -18.2106 14.2497 -2.48407 -17.9909 14.6706 
-1.58424 -17.7946 15.0962 -0.703227 -17.629 15.5711 0.137602 -17.5016 16.124 
0.933727 -17.4291 16.7484 1.70153 -17.4404 17.4112 2.46305 -17.5774 18.0667 
3.21679 -17.8864 18.6708 3.91436 -18.4 19.1986 4.4639 -19.0877 19.6343 
4.81066 -19.9965 20.0144 
LINES 1 65
64 0 1 2 3 4 5 6 7 8 9 10 11 12 13 14 15 16 17 18 19 20 21 22 23 24 25 26 27 28 29 30 31 32 33 34 35 36 37 38 39 40 41 42 43 44 45 46 47 48 49 50 51 52 53 54 55 56 57 58 59 60 61 62 63 

POINT_DATA 64
SCALARS MaximumInscribedSphereRadius float
LOOKUP_TABLE default
1.55 1.36478 1.18542 1.01281 1.03227 1.21581 1.40188 1.53042 1.43558 
1.38979 1.39297 1.4486 1.49322 1.19931 0.988601 1.11757 1.20724 1.24 
1.24 1.24 1.36357 2.01085 2.26402 1.88 2.05916 2.16849 1.84495 
1.66042 1.60573 1.72633 1.90614 2.14422 2.52426 2.71745 2.55976 2.58128 
2.73086 2.63833 2.45761 2.27979 2.11069 1.95341 1.98173 2.17259 2.47038 
2.50032 2.23089 2.17 2.0604 1.69565 1.66497 1.83448 1.86 1.80826 
1.66404 1.77044 2.13007 1.94117 1.67976 1.5896 1.62156 1.75186 1.55373 
1.24 
TEXTURE_COORDINATES TCoords 2 float
0 0 0.015873 0 0.031746 0 0.047619 0 0.0634921 
0 0.0793651 0 0.0952381 0 0.111111 0 0.126984 0 
0.142857 0 0.15873 0 0.174603 0 0.190476 0 0.206349 
0 0.222222 0 0.238095 0 0.253968 0 0.269841 0 
0.285714 0 0.301587 0 0.31746 0 0.333333 0 0.349206 
0 0.365079 0 0.380952 0 0.396825 0 0.412698 0 
0.428571 0 0.444444 0 0.460317 0 0.47619 0 0.492063 
0 0.507937 0 0.52381 0 0.539683 0 0.555556 0 
0.571429 0 0.587302 0 0.603175 0 0.619048 0 0.634921 
0 0.650794 0 0.666667 0 0.68254 0 0.698413 0 
0.714286 0 0.730159 0 0.746032 0 0.761905 0 0.777778 
0 0.793651 0 0.809524 0 0.825397 0 0.84127 0 
0.857143 0 0.873016 0 0.888889 0 0.904762 0 0.920635 
0 0.936508 0 0.952381 0 0.968254 0 0.984127 0 
1 0 
FIELD FieldData 4
Curvature 1 64 float
0.118137 0.0886735 0.0797626 0.0908652 0.108778 0.120478 0.115311 0.0970685 0.0846698 
0.0749989 0.0422397 0.0325069 0.133051 0.332058 0.468438 0.31099 0.288966 0.358367 
0.2625 0.0865882 0.116664 0.401021 0.513453 0.253277 0.160077 0.591552 0.606222 
0.109029 0.100237 0.178209 0.291137 0.325264 0.234587 0.174562 0.158422 0.145442 
0.114566 0.0635825 0.0193754 0.0170895 0.0149075 0.0491744 0.128071 0.228221 0.270691 
0.198099 0.0884987 0.0332743 0.0561668 0.0660368 0.0635612 0.0509309 0.0305966 0.0203698 
0.0425287 0.0662743 0.0699933 0.0676195 0.087093 0.123546 0.155045 0.18224 0.200704 
0.198696 
Torsion 1 64 float
-0.126558 -0.167308 -0.157444 -0.0667175 -0.000576359 -0.000815591 -0.0782629 -0.220999 -0.264363 
-0.157205 0.108192 0.227481 -0.0407764 -0.0943304 -0.233673 -0.411691 -0.320307 -0.121601 
-0.0504179 -0.801067 -0.601215 -0.0212513 0.0015074 0.0581188 0.151764 0.0482969 -0.0498633 
-0.208444 -0.302184 -0.199393 -0.224663 -0.292445 -0.317252 -0.252769 -0.119995 -0.0319246 
0.0122004 0.0671872 0.310763 0.200832 0.784092 0.22584 0.0261726 -0.0275866 -0.0489472 
-0.0091653 0.286139 1.06905 -0.00713134 -0.194203 -0.0873237 0.109722 0.464974 0.94737 
0.254308 -0.00620209 -0.211604 -0.399953 -0.262107 -0.0214181 0.12153 0.145585 0.100031 
0.0579243 
Abscissas 1 64 double
0 1.0458414641 2.027052521 3.0427335202 4.0575260826 5.0714566749 6.0853849595 7.0994860766 8.1137431531 
9.1280847393 10.142534615 11.157127342 12.171619788 13.185228083 14.190760632 15.199549106 16.211154043 17.2203534 
18.229700767 19.243379539 20.258112819 21.272186908 22.26994652 23.278495632 24.294675536 25.302678435 25.70074878 
26.746716285 27.7707828 28.783577538 29.796270467 30.805780451 31.816977627 32.830003043 33.843459265 34.856998936 
35.870739881 36.884926513 37.899537086 38.91414005 39.928715692 40.943351425 41.957727653 42.971135041 43.982597652 
44.994298975 46.008154875 47.022686705 48.037231805 49.051627223 50.066057194 51.080486231 52.09502062 53.10963482 
54.124210351 55.13867445 56.153032749 57.167402346 58.181775388 59.195857557 60.21002768 61.224405717 62.206627659 
63.250962962 
ParallelTransportNormals 3 64 double
0.31387595661 0 0.94946399819 0.25847317752 0.027969537244 0.9656134431 0.23622736962 0.036077260729 0.97102783745 
0.22586662976 0.038475942948 0.97339810323 0.2195410283 0.03899137763 0.97482378375 0.21207184196 0.038347023751 0.97650142838 
0.2125580707 0.038475544848 0.97639064878 0.23817716037 0.04969094292 0.96994971543 0.29197404675 0.081561202635 0.95294224707 
0.35213286098 0.12471422057 0.92760380088 0.38724964668 0.15281312001 0.90922266882 0.37169862908 0.13984914309 0.91775941636 
0.26188224947 0.048204859963 0.96389521157 -0.051676158459 -0.22584682307 0.97279123514 -0.36696603234 -0.59038666451 0.7188737841 
-0.41083966262 -0.74177822038 0.53007154554 -0.41417410508 -0.73177373969 0.54126426502 -0.50178101588 -0.61361297817 0.609667881 
-0.60639642403 -0.50503161798 0.61418762749 -0.64864463837 -0.46466288906 0.60278398506 -0.62667141424 -0.48654041166 0.60873751848 
-0.50609184641 -0.63265756323 0.58618721471 -0.41335752376 -0.81068437918 0.41464007875 -0.41465427527 -0.85707133125 0.305762269 
-0.42305003718 -0.865985993 0.26664006821 0.68857431434 -0.46706538407 0.55472095745 0.88373261023 -0.46490917727 -0.053629567507 
0.8941672141 -0.44641956606 0.034271916429 0.89585852028 -0.41189828447 0.166665278 0.86531026272 -0.36831991928 0.3399685078 
0.77657266927 -0.34862011422 0.52478462754 0.72131146414 -0.36656475181 0.58765640848 0.77425192649 -0.32387577453 0.54372643581 
0.85768021056 -0.20312799134 0.47235968874 0.91765708326 -0.038423605044 0.39551119343 0.93701348056 0.13170393004 0.32351168767 
0.92528020679 0.26745823249 0.26892867604 0.90868700458 0.34133263924 0.24037461825 0.90387897276 0.35804190276 0.23411279008 
0.90603792248 0.35072691805 0.23682464396 0.90476992467 0.35509764373 0.23515324117 0.88961795033 0.40312752479 0.21463480896 
0.83782126591 0.52568663213 0.14734005288 0.70832840484 0.70581736722 -0.0096288639473 0.51592563091 0.82372534793 -0.23515376787 
0.37168590483 0.83519177245 -0.40534465752 0.3053922553 0.82022579289 -0.48369951322 0.27897983696 0.81163925601 -0.51323675694 
0.25721135257 0.80495661353 -0.53468417822 0.21860905134 0.79449698978 -0.56655504225 0.16700320949 0.78112196124 -0.60162979455 
0.12464998523 0.77010541353 -0.62561971935 0.10944752534 0.76626484014 -0.63313460967 0.12739071072 0.77041978785 -0.62467988387 
0.17661668865 0.78042337839 -0.59978820907 0.24679689148 0.7923656087 -0.55789608039 0.32209070877 0.80156026544 -0.50374469346 
0.39493554129 0.80441090425 -0.44378938176 0.46983747894 0.79714669138 -0.37922275223 0.55987717464 0.77064489032 -0.30437477284 
0.67834990256 0.70349678644 -0.21197566172 0.80942769578 0.57669679818 -0.11066891287 0.93399527945 0.35727878456 0.002165195651 
0.93399527945 0.35727878456 0.002165195651 
