# vtk DataFile Version 4.2
vtk output
ASCII
DATASET POLYDATA
POINTS 64 float
0 0 0 -1.02712 -0.036364 0.185796 -1.9014 -0.412554 0.420011 
-2.72623 -0.94375 0.692382 -3.48293 -1.55185 0.98791 -4.20453 -2.19275 1.30043 
-4.91873 -2.8432 1.61072 -5.65498 -3.49629 1.85641 -6.42732 -4.14917 1.81932 
-7.0349 -4.70944 1.24341 -7.38046 -5.18569 0.418366 -7.57412 -5.67482 -0.448938 
-7.66137 -6.21313 -1.30423 -7.65278 -6.81067 -2.12384 -7.54399 -7.46589 -2.89039 
-7.32233 -8.17079 -3.58505 -6.96759 -8.91175 -4.17937 -6.45169 -9.6642 -4.62039 
-5.75531 -10.3749 -4.80577 -4.94168 -10.9296 -4.58543 -4.22035 -11.2102 -3.93691 
-3.73515 -11.2566 -3.0494 -3.4701 -11.1781 -2.07404 -3.37707 -11.0532 -1.07187 
-3.41517 -10.9404 -0.0645445 -3.54825 -10.8968 0.94006 -3.73739 -10.9881 1.93212 
-3.93672 -11.2819 2.88144 -4.09866 -11.8103 3.73063 -4.19367 -12.5367 4.43103 
-4.22298 -13.3856 4.98511 -4.20075 -14.2968 5.43037 -4.13528 -15.2369 5.80594 
-4.02471 -16.1875 6.14269 -3.85773 -17.1351 6.46429 -3.61437 -18.0649 6.78914 
-3.26887 -18.9555 7.13008 -2.7967 -19.776 7.49364 -2.18878 -20.4902 7.87901 
-1.46136 -21.0707 8.28164 -0.647916 -21.5095 8.6991 0.217111 -21.8118 9.13395 
1.10524 -21.9859 9.59192 1.9935 -22.0411 10.0786 2.86394 -21.9926 10.5973 
3.70573 -21.8658 11.1491 4.5163 -21.6967 11.7353 5.30041 -21.5297 12.3572 
6.06527 -21.414 13.0135 6.81402 -21.397 13.6975 7.54159 -21.5159 14.394 
8.23592 -21.7869 15.0817 8.88325 -22.2051 15.741 9.47089 -22.7557 16.3575 
9.98614 -23.4222 16.9222 10.4142 -24.1893 17.4291 10.7386 -25.042 17.8721 
10.9457 -25.9636 18.2412 11.0345 -26.9338 18.5229 11.0239 -27.9315 18.7043 
10.95 -28.9409 18.7763 10.8581 -29.9554 18.733 10.7931 -30.918 18.5893 
10.8066 -31.9286 18.3113 
LINES 1 65
64 0 1 2 3 4 5 6 7 8 9 10 11 12 13 14 15 16 17 18 19 20 21 22 23 24 25 26 27 28 29 30 31 32 33 34 35 36 37 38 39 40 41 42 43 44 45 46 47 48 49 50 51 52 53 54 55 56 57 58 59 60 61 62 63 

POINT_DATA 64
SCALARS MaximumInscribedSphereRadius float
LOOKUP_TABLE default
0.9796 0.946422 1.07421 1.33991 1.46611 1.48031 1.24573 1.02612 1.02572 
1.00561 0.976447 1.21534 1.24 1.24 1.24 1.33893 1.522 1.67325 
1.59414 1.52615 1.94456 1.73196 1.60699 1.60746 1.77723 1.69772 1.55 
1.58908 1.77394 1.7231 1.73375 2.24004 2.15784 1.72397 1.88369 2.07739 
1.68671 1.41809 1.32999 1.7001 1.98054 2.02317 1.47539 1.24119 1.50397 
1.71818 1.86418 1.87836 1.87403 1.86 1.86 1.86 1.86 1.86 
1.86 1.86 1.86 1.98122 2.31207 2.18611 1.82738 1.64092 1.66973 
1.86 
TEXTURE_COORDINATES TCoords 2 float
0 0 0.015873 0 0.031746 0 0.047619 0 0.0634921 
0 0.0793651 0 0.0952381 0 0.111111 0 0.126984 0 
0.142857 0 0.15873 0 0.174603 0 0.190476 0 0.206349 
0 0.222222 0 0.238095 0 0.253968 0 0.269841 0 
0.285714 0 0.301587 0 0.31746 0 0.333333 0 0.349206 
0 0.365079 0 0.380952 0 0.396825 0 0.412698 0 
0.428571 0 0.444444 0 0.460317 0 0.47619 0 0.492063 
0 0.507937 0 0.52381 0 0.539683 0 0.555556 0 
0.571429 0 0.587302 0 0.603175 0 0.619048 0 0.634921 
0 0.650794 0 0.666667 0 0.68254 0 0.698413 0 
0.714286 0 0.730159 0 0.746032 0 0.761905 0 0.777778 
0 0.793651 0 0.809524 0 0.825397 0 0.84127 0 
0.857143 0 0.873016 0 0.888889 0 0.904762 0 0.920635 
0 0.936508 0 0.952381 0 0.968254 0 0.984127 0 
1 0 
FIELD FieldData 4
Curvature 1 64 float
0.359653 0.256979 0.147916 0.0757875 0.044747 0.0650163 0.130918 0.280762 0.472621 
0.326861 0.174619 0.113005 0.0944105 0.0940117 0.104548 0.129463 0.174538 0.246211 
0.342229 0.387505 0.310549 0.206266 0.136739 0.096459 0.0898517 0.113533 0.156666 
0.190254 0.192665 0.157449 0.1096 0.0698681 0.0459538 0.0437437 0.0594118 0.0839899 
0.109487 0.128845 0.132228 0.122301 0.107815 0.0968824 0.0896022 0.080942 0.0658965 
0.0466468 0.0334704 0.048797 0.0767222 0.101692 0.114312 0.115237 0.110924 0.106853 
0.105851 0.109125 0.113703 0.114024 0.105679 0.0934136 0.0848615 0.0882455 0.10115 
0.116781 
Torsion 1 64 float
0.0177536 0.0322019 0.0571946 0.0973239 0.0717607 -0.0231534 0.00505612 0.0494057 0.148339 
0.190825 0.17761 0.132642 0.0558562 -0.00602986 -0.0320559 -0.0274932 -0.00553474 0.0298452 
0.0642737 0.0861167 0.0965499 0.116051 0.177431 0.311433 0.396248 0.292084 0.154867 
0.080684 0.0413434 0.0248105 0.0482236 0.129963 0.304615 0.323296 0.154932 0.0591244 
0.0259558 0.0215039 0.0378203 0.0631587 0.0886577 0.0999827 0.0968364 0.100573 0.159335 
0.369924 0.770718 0.419292 0.153468 0.0690313 0.0326376 0.011285 -0.00687232 -0.0279275 
-0.0436367 -0.0337181 0.00308346 0.0593145 0.134938 0.221042 0.296384 0.272327 0.188945 
0.116006 
Abscissas 1 64 double
0 1.0444223158 2.0245963132 3.0427807688 4.0575306289 5.0719900569 6.0866066005 7.1009806789 8.1129770747 
9.1203145538 10.133686558 11.1480675 12.162421764 13.176763159 14.191034903 15.205219158 16.219161227 17.232488467 
18.244617695 19.253694272 20.263462744 21.276006763 22.289782574 23.303981368 24.318318577 25.332636818 26.346684449 
27.360222521 28.373412652 29.38694329 30.401090561 31.415504355 32.429964115 33.444491607 34.459012966 35.47354718 
36.48783464 37.501905441 38.515887643 39.529904719 40.544059367 41.558333426 42.572641277 43.586993378 44.601422963 
45.615904247 46.630423671 47.645054595 48.659514005 49.673797942 50.688000818 51.702134142 52.716335131 53.730511195 
54.744705606 55.758918501 56.77310837 57.787244154 58.801407709 59.815519733 60.830180436 61.849753925 62.825187667 
63.873415043 
ParallelTransportNormals 3 64 double
0.17800147276 0 0.98403022093 0.25208914211 0.016537465124 0.96756269909 0.29148472893 0.037496167954 0.9558403058 
0.32154649764 0.059155985553 0.94504413613 0.33980145736 0.074579518826 0.9375355273 0.33960019165 0.074398501793 0.93762283076 
0.29144385041 0.031119795464 0.9560816076 0.080641190941 -0.15136459029 0.98518310944 -0.31119313518 -0.49587814984 0.81071801085 
-0.46796640181 -0.66626725771 0.580599163 -0.49092638828 -0.70736710127 0.50854996345 -0.49247996611 -0.71304940871 0.49902306932 
-0.49198745127 -0.70593744087 0.50951023285 -0.49304451951 -0.69465596364 0.52379403773 -0.49571065208 -0.68368240816 0.53558315339 
-0.49921828588 -0.67488396974 0.54342684 -0.50376921516 -0.66707817206 0.54883812752 -0.51682155248 -0.65132642572 0.55558021028 
-0.56606539391 -0.61007223806 0.55442026853 -0.66470585597 -0.55638877047 0.49859568904 -0.75431782378 -0.53208427755 0.38456591414 
-0.80391008486 -0.53420076785 0.26145384888 -0.82506004459 -0.54621282466 0.14466330912 -0.82815820507 -0.5596174164 0.031342218029 
-0.81836723638 -0.56856291507 -0.083733374627 -0.79889805262 -0.56567976924 -0.20437294388 -0.77379182796 -0.54078818986 -0.32983987129 
-0.75037263777 -0.48748583439 -0.44642856735 -0.73604187417 -0.4175073048 -0.5328508327 -0.73111018236 -0.35502772585 -0.58260897275 
-0.73094470132 -0.31392882697 -0.60594433343 -0.73178544639 -0.29618093262 -0.61381342084 -0.73126625413 -0.30175720438 -0.61171255927 
-0.72682815072 -0.33210990452 -0.60118537129 -0.71417537161 -0.38999932744 -0.58125215111 -0.68616642893 -0.47658407491 -0.5495846171 
-0.6331143139 -0.58760140819 -0.50387582858 -0.54877476919 -0.7074384816 -0.44539538327 -0.43891366814 -0.81395645077 -0.3805649592 
-0.31919352708 -0.89315383858 -0.31684651315 -0.20118317644 -0.94525996073 -0.25692204298 -0.088432033186 -0.97589895654 -0.19950188503 
0.017075436436 -0.9895182081 -0.14339506726 0.10921619267 -0.98986936493 -0.090721902704 0.17892788023 -0.98273234274 -0.047137630492 
0.218122127 -0.97571356085 -0.02014410284 0.22156275575 -0.97498839966 -0.017537553993 0.18755380207 -0.9811952218 -0.045601623267 
0.1192911601 -0.98717950686 -0.10604829254 0.025347917694 -0.98069491016 -0.19389423986 -0.078974431702 -0.95208819504 -0.29545068623 
-0.17887071767 -0.90077274035 -0.39574453453 -0.2675405786 -0.83121354957 -0.4873459488 -0.34350117594 -0.7473869502 -0.56869999894 
-0.40710802149 -0.65072016274 -0.64095735322 -0.45817326359 -0.54079307132 -0.70542194079 -0.4953744407 -0.41660396818 -0.76226327289 
-0.51642294829 -0.28203388797 -0.80855687772 -0.52177942583 -0.14723456801 -0.84027865185 -0.5165600286 -0.023235453215 -0.85593565796 
-0.50789163931 0.082605595073 -0.85745110553 -0.50170908575 0.1607635164 -0.84996651997 -0.49998079074 0.22348507213 -0.83670402857 
-0.49998079074 0.22348507213 -0.83670402857 
