# vtk DataFile Version 4.2
vtk output
ASCII
DATASET POLYDATA
POINTS 64 float
0 0 0 -1.04403 0.0270342 0.0787288 -2.01032 -0.0467412 0.158849 
-3.01155 -0.237367 0.268472 -3.95588 -0.566998 0.427138 -4.82777 -1.03091 0.657798 
-5.61157 -1.59617 0.96613 -6.32004 -2.21831 1.34057 -6.98024 -2.86168 1.76431 
-7.62017 -3.5036 2.22021 -8.26454 -4.13178 2.68884 -8.93566 -4.74057 3.14514 
-9.6587 -5.32756 3.54767 -10.4698 -5.8819 3.79905 -11.3486 -6.33173 3.61918 
-11.9872 -6.5633 2.86961 -12.2961 -6.6891 1.91164 -12.3958 -6.82888 0.912195 
-12.3335 -7.03348 -0.079162 -12.1246 -7.335 -1.02459 -11.7771 -7.75396 -1.88005 
-11.307 -8.29614 -2.59618 -10.7442 -8.94955 -3.12928 -10.1304 -9.6908 -3.4479 
-9.51402 -10.4914 -3.5296 -8.95283 -11.3169 -3.35422 -8.51597 -12.1183 -2.91428 
-8.26189 -12.8388 -2.24869 -8.19598 -13.4528 -1.44441 -8.27672 -13.9812 -0.582323 
-8.45596 -14.465 0.291187 -8.69287 -14.9467 1.15215 -8.95193 -15.4664 1.98407 
-9.19639 -16.0619 2.76803 -9.38392 -16.7635 3.47597 -9.47094 -17.5793 4.07181 
-9.4341 -18.4818 4.53268 -9.28465 -19.4261 4.87175 -9.0514 -20.3799 5.12675 
-8.76076 -21.3283 5.33988 -8.43016 -22.2645 5.5484 -8.06682 -23.1823 5.78301 
-7.66832 -24.0712 6.06624 -7.22396 -24.9162 6.40941 -6.71884 -25.6988 6.81129 
-6.14057 -26.4011 7.25989 -5.48446 -27.0104 7.7366 -4.75486 -27.5207 8.22267 
-3.96596 -27.9335 8.70881 -3.13981 -28.2559 9.20152 -2.30061 -28.4966 9.71827 
-1.47226 -28.667 10.2786 -0.676646 -28.7838 10.8971 0.068766 -28.8691 11.58 
0.752922 -28.9513 12.3245 1.37049 -29.0626 13.1217 1.91922 -29.2378 13.9567 
2.39654 -29.5121 14.8086 2.79845 -29.9144 15.6485 3.12459 -30.453 16.4436 
3.38646 -31.108 17.1704 3.61285 -31.8574 17.8328 3.81682 -32.6159 18.4058 
4.05622 -33.4666 18.9679 
LINES 1 65
64 0 1 2 3 4 5 6 7 8 9 10 11 12 13 14 15 16 17 18 19 20 21 22 23 24 25 26 27 28 29 30 31 32 33 34 35 36 37 38 39 40 41 42 43 44 45 46 47 48 49 50 51 52 53 54 55 56 57 58 59 60 61 62 63 

POINT_DATA 64
SCALARS MaximumInscribedSphereRadius float
LOOKUP_TABLE default
1.24 1.24 1.26637 1.39477 1.57313 1.75065 1.79244 1.63769 1.84266 
2.19065 2.0225 1.54116 1.4606 1.56474 1.67643 1.81636 1.86 1.82169 
1.6488 1.70002 2.03369 2.07783 1.95244 2.01405 2.20978 2.53022 2.68418 
2.31284 2.05489 1.8793 1.87202 1.95183 2.22716 2.40736 2.26072 2.17802 
2.17098 2.03569 1.86491 1.86 1.90057 2.03643 2.1724 2.18584 2.18931 
2.17619 2.27387 2.46743 2.74944 2.99268 2.79612 2.50539 2.48738 2.42206 
2.27349 2.18741 2.19597 2.32095 2.46236 2.48 2.48 2.48 2.48 
2.48 
TEXTURE_COORDINATES TCoords 2 float
0 0 0.015873 0 0.031746 0 0.047619 0 0.0634921 
0 0.0793651 0 0.0952381 0 0.111111 0 0.126984 0 
0.142857 0 0.15873 0 0.174603 0 0.190476 0 0.206349 
0 0.222222 0 0.238095 0 0.253968 0 0.269841 0 
0.285714 0 0.301587 0 0.31746 0 0.333333 0 0.349206 
0 0.365079 0 0.380952 0 0.396825 0 0.412698 0 
0.428571 0 0.444444 0 0.460317 0 0.47619 0 0.492063 
0 0.507937 0 0.52381 0 0.539683 0 0.555556 0 
0.571429 0 0.587302 0 0.603175 0 0.619048 0 0.634921 
0 0.650794 0 0.666667 0 0.68254 0 0.698413 0 
0.714286 0 0.730159 0 0.746032 0 0.761905 0 0.777778 
0 0.793651 0 0.809524 0 0.825397 0 0.84127 0 
0.857143 0 0.873016 0 0.888889 0 0.904762 0 0.920635 
0 0.936508 0 0.952381 0 0.968254 0 0.984127 0 
1 0 
FIELD FieldData 4
Curvature 1 64 float
0.0940031 0.106457 0.120132 0.132573 0.137726 0.125549 0.0984883 0.0686848 0.0412002 
0.019806 0.038077 0.0920452 0.190968 0.40041 0.560254 0.357079 0.200118 0.147479 
0.146134 0.161142 0.177254 0.18566 0.188681 0.195026 0.212105 0.236578 0.241281 
0.206211 0.146934 0.0897429 0.0494137 0.0460938 0.076982 0.117281 0.152006 0.16234 
0.140253 0.101453 0.0619163 0.0364317 0.0377004 0.0550907 0.072237 0.0852048 0.0945798 
0.0989759 0.0988927 0.0913358 0.0784746 0.068968 0.0669515 0.0688474 0.0704479 0.0704232 
0.0728742 0.082535 0.100263 0.11946 0.129711 0.121754 0.0966728 0.0711926 0.0544697 
0.0495942 
Torsion 1 64 float
0.0428163 0.058448 0.0779058 0.096831 0.107611 0.107519 0.117191 0.158984 0.264958 
0.856508 0.415466 0.116534 0.0664875 0.0859156 0.151687 0.194012 0.214201 0.195888 
0.133484 0.0835117 0.0579622 0.0516538 0.0573894 0.0647458 0.0663491 0.063079 0.0625976 
0.07318 0.109074 0.214304 0.594279 0.701202 0.269157 0.120573 0.0750191 0.0567854 
0.0567861 0.0865804 0.218089 0.532534 0.398718 0.0557077 -0.0859046 -0.118174 -0.120575 
-0.102914 -0.0690599 0.0400754 0.178495 0.290363 0.300171 0.267688 0.258251 0.280627 
0.296041 0.260074 0.188444 0.124578 0.0899151 0.0915536 0.142069 0.228594 0.319703 
0.324256 
Abscissas 1 64 double
0 1.0473431201 2.0197516835 3.044845295 4.0575597693 5.0717644288 6.0861259616 7.1006179029 8.1151838323 
9.1297855742 10.144397103 11.158910678 12.173491274 13.187576052 14.1910652 15.202642677 16.217015022 17.231100272 
18.2452656 19.259359955 20.273310672 21.287112624 22.300959071 23.314724725 24.328410717 25.341891364 26.355121926 
27.368377523 28.382382252 29.396739123 30.411238586 31.425841212 32.440380965 33.454764081 34.468958603 35.482924398 
36.496958458 37.511357625 38.525835466 39.540408991 40.554926774 41.569528136 42.584004613 43.598523644 44.612976098 
45.627305974 46.641692596 47.656081866 48.670527083 49.685035922 50.69954268 51.714022489 52.728511071 53.743038989 
54.75748791 55.772035063 56.786443872 57.800745801 58.815047992 59.829266401 60.842104714 61.867593475 62.839833543 
63.887191822 
ParallelTransportNormals 3 64 double
0.075195073473 0 0.99716884274 0.082617559838 0.00018665451057 0.99658130826 0.10816343129 0.0035811589994 0.99412667575 
0.15976087053 0.017403537569 0.98700232073 0.23119783845 0.048610981197 0.97169158276 0.30477991157 0.094348842155 0.94773809752 
0.36314759094 0.14079174494 0.92103285053 0.4030542201 0.17769044674 0.89776021342 0.42661703006 0.20098429681 0.88181813437 
0.43416113182 0.20844498848 0.87638735636 0.42241339868 0.19739848286 0.8846472515 0.37819723347 0.15947393774 0.91188536329 
0.25349844894 0.066705691796 0.96503310154 -0.12098677455 -0.1556519167 0.98037476569 -0.63879109281 -0.38832713117 0.66418971608 
-0.82619178215 -0.45900429737 0.32668362999 -0.86233928048 -0.48250114626 0.15350442733 -0.86430295915 -0.50057941672 0.048996350394 
-0.85420893173 -0.51941696615 -0.023089310018 -0.83795458583 -0.54046450902 -0.075698260019 -0.81916083762 -0.56255768756 -0.11182294164 
-0.80193454181 -0.58249725626 -0.13265721659 -0.79138120533 -0.59500645396 -0.14029649888 -0.7914012859 -0.59498128587 -0.1402899645 
-0.80447766593 -0.5769240548 -0.1413305346 -0.82866555689 -0.53749532933 -0.15624393035 -0.85369051926 -0.48237418924 -0.19628458646 
-0.86667279013 -0.42824258972 -0.2559034177 -0.86612419297 -0.38590822095 -0.31765347056 -0.85795735731 -0.35411072395 -0.37217572223 
-0.84715322295 -0.32904413083 -0.41720663563 -0.83669377537 -0.30792572979 -0.45290757466 -0.82864171584 -0.2900918474 -0.47874797841 
-0.82442182236 -0.27742086661 -0.49332172219 -0.82386695074 -0.27435400774 -0.49595677827 -0.82414593528 -0.28390630569 -0.4900823267 
-0.82220863285 -0.30311393186 -0.48176229447 -0.81744737 -0.32672884778 -0.47437122311 -0.81010516591 -0.3533879403 -0.46781041439 
-0.79968072101 -0.38501154454 -0.46073512457 -0.78440892046 -0.42581331353 -0.45098300137 -0.76150670253 -0.48012564466 -0.43541578674 
-0.72782820739 -0.54940788294 -0.41038649916 -0.68037179806 -0.63075743677 -0.37314778889 -0.61811546509 -0.71608565689 -0.32427550603 
-0.54356111321 -0.79530433923 -0.26838838313 -0.46165217149 -0.86148360942 -0.21147875371 -0.37921112249 -0.91159991079 -0.15869633651 
-0.30247116257 -0.94653344462 -0.11218571222 -0.23440971459 -0.96954681833 -0.070929914574 -0.17865444206 -0.98329211104 -0.034917254921 
-0.14001546086 -0.99012548835 -0.0068693547227 -0.12156351095 -0.99254540983 0.0087133368571 -0.12497649878 -0.99214551668 0.0053055144098 
-0.14871976294 -0.98861616332 -0.022814769892 -0.18993331751 -0.9784918648 -0.080492269334 -0.24457056321 -0.95455553166 -0.17032021779 
-0.30586513549 -0.90738712909 -0.28826223624 -0.36276613286 -0.83385009662 -0.41604657096 -0.4056104655 -0.74686828029 -0.52694204822 
-0.43347642202 -0.66678587287 -0.60621348657 -0.44899382294 -0.61233151949 -0.65073393734 -0.45897488784 -0.57607500304 -0.67637241459 
-0.45897488784 -0.57607500304 -0.67637241459 
