# vtk DataFile Version 4.2
vtk output
ASCII
DATASET POLYDATA
POINTS 64 float
0 0 0 -0.96782 -0.0159555 0.359933 -1.92795 -0.0535391 0.629726 
-2.89405 -0.177636 0.905397 -3.82104 -0.438184 1.22245 -4.66471 -0.868987 1.58267 
-5.39541 -1.4798 1.92873 -6.01456 -2.25632 2.1245 -6.53288 -3.11081 1.9809 
-6.94842 -3.87087 1.45928 -7.26497 -4.4757 0.710563 -7.47205 -4.9665 -0.152047 
-7.5345 -5.38793 -1.07197 -7.41907 -5.78153 -1.99898 -7.14307 -6.19716 -2.88173 
-6.77556 -6.69868 -3.68258 -6.39051 -7.36196 -4.34375 -6.08354 -8.25525 -4.69409 
-6.03021 -9.19836 -4.38874 -6.24464 -9.68244 -3.53636 -6.53432 -9.67209 -2.56878 
-6.78731 -9.32092 -1.65354 -6.95028 -8.76966 -0.818582 -6.99995 -8.13989 -0.0251047 
-6.93973 -7.54779 0.795828 -6.8139 -7.14023 1.71385 -6.73719 -7.10216 2.71894 
-6.83516 -7.49235 3.6442 -7.10086 -8.18511 4.33046 -7.44455 -9.05369 4.71892 
-7.77961 -10.0048 4.81015 -8.05449 -10.9707 4.6727 -8.2529 -11.9318 4.41609 
-8.37423 -12.9008 4.14166 -8.4181 -13.8904 3.92352 -8.37695 -14.8965 3.80319 
-8.22832 -15.8993 3.7947 -7.92449 -16.8605 3.8973 -7.39962 -17.6999 4.10616 
-6.65231 -18.3097 4.41155 -5.79212 -18.6734 4.80421 -4.91871 -18.8613 5.28362 
-4.07639 -18.9271 5.84448 -3.27578 -18.8842 6.46558 -2.50717 -18.7227 7.10725 
-1.75175 -18.4434 7.72377 -0.990041 -18.0896 8.29277 -0.20626 -17.7377 8.83236 
0.602043 -17.4758 9.38587 1.40442 -17.4032 9.9998 2.12252 -17.6044 10.6835 
2.6823 -18.0757 11.3831 3.08385 -18.7378 12.0368 3.3709 -19.5175 12.6182 
3.58246 -20.3692 13.1267 3.73655 -21.2668 13.5734 3.83288 -22.196 13.9689 
3.86214 -23.1492 14.3146 3.8129 -24.1216 14.5988 3.67259 -25.1055 14.8008 
3.42705 -26.0842 14.9 3.06697 -27.0299 14.8848 2.60066 -27.903 14.7602 
2.00853 -28.7157 14.5257 
LINES 1 65
64 0 1 2 3 4 5 6 7 8 9 10 11 12 13 14 15 16 17 18 19 20 21 22 23 24 25 26 27 28 29 30 31 32 33 34 35 36 37 38 39 40 41 42 43 44 45 46 47 48 49 50 51 52 53 54 55 56 57 58 59 60 61 62 63 

POINT_DATA 64
SCALARS MaximumInscribedSphereRadius float
LOOKUP_TABLE default
0.93 0.969443 0.76303 1.04862 1.67152 1.33968 1.02735 0.794646 0.970917 
1.1903 1.15106 1.22705 1.24 1.24 1.24 1.29736 1.59482 2.03129 
1.84285 1.58289 1.57371 1.76288 1.86 1.86 1.86913 2.35672 2.02492 
2.11242 2.17 2.17 2.3026 2.39088 2.23578 2.39762 2.32864 2.09807 
1.87423 2.34289 1.92713 1.56658 1.55051 1.63159 2.07421 1.96723 1.72573 
1.62198 1.85017 2.29075 2.49028 2.48048 2.43628 2.20043 1.77354 1.70964 
1.90103 1.98901 2.31221 2.34801 2.18163 2.19985 2.40363 2.64242 2.61897 
2.17 
TEXTURE_COORDINATES TCoords 2 float
0 0 0.015873 0 0.031746 0 0.047619 0 0.0634921 
0 0.0793651 0 0.0952381 0 0.111111 0 0.126984 0 
0.142857 0 0.15873 0 0.174603 0 0.190476 0 0.206349 
0 0.222222 0 0.238095 0 0.253968 0 0.269841 0 
0.285714 0 0.301587 0 0.31746 0 0.333333 0 0.349206 
0 0.365079 0 0.380952 0 0.396825 0 0.412698 0 
0.428571 0 0.444444 0 0.460317 0 0.47619 0 0.492063 
0 0.507937 0 0.52381 0 0.539683 0 0.555556 0 
0.571429 0 0.587302 0 0.603175 0 0.619048 0 0.634921 
0 0.650794 0 0.666667 0 0.68254 0 0.698413 0 
0.714286 0 0.730159 0 0.746032 0 0.761905 0 0.777778 
0 0.793651 0 0.809524 0 0.825397 0 0.84127 0 
0.857143 0 0.873016 0 0.888889 0 0.904762 0 0.920635 
0 0.936508 0 0.952381 0 0.968254 0 0.984127 0 
1 0 
FIELD FieldData 4
Curvature 1 64 float
0.181949 0.0742886 0.0557143 0.0888017 0.11784 0.131699 0.155802 0.224979 0.249741 
0.180167 0.116553 0.101705 0.109603 0.102383 0.0904859 0.126357 0.244233 0.44416 
0.491162 0.316045 0.212023 0.140977 0.0880481 0.0831602 0.143372 0.239163 0.287088 
0.254017 0.212595 0.185833 0.144767 0.0872992 0.051052 0.0591111 0.0777263 0.0923057 
0.117227 0.167196 0.203193 0.173526 0.119208 0.0890982 0.0774547 0.0748259 0.0735179 
0.0558535 0.0272712 0.0572322 0.120872 0.178885 0.189533 0.152726 0.107984 0.0753832 
0.056161 0.0497031 0.051901 0.0601191 0.0729808 0.0873556 0.0993005 0.103938 0.102932 
0.0986295 
Torsion 1 64 float
-0.110603 -0.339368 -0.364553 -0.068676 0.0549209 0.213075 0.33536 0.229617 0.105301 
-0.0315797 -0.179399 -0.239163 -0.207855 -0.282666 -0.405593 -0.18965 -0.0391423 0.0152314 
0.042437 0.0608676 0.093987 0.177711 0.439117 0.540517 0.271471 0.181797 0.0981912 
-0.00974529 -0.0870193 -0.0841139 -0.0996635 -0.257359 -0.568327 -0.261386 -0.025236 0.0905196 
0.130316 0.0732316 -0.0231973 -0.128082 -0.17587 -0.0842201 0.111263 0.23274 0.23004 
0.276993 1.12796 0.359613 0.104722 0.0387032 -0.0137904 -0.0563615 -0.0816881 -0.052927 
0.0366783 0.0826524 0.0316789 -0.0289876 -0.0202999 0.00872138 0.0255877 0.0297753 0.0271792 
0.0225049 
Abscissas 1 64 double
0 1.0327060884 2.0307293736 3.0430255155 4.0567899829 5.0702636902 6.0835615426 7.0958145532 8.1054825197 
9.1166464268 10.129859137 11.143694839 12.157480637 13.171183141 14.185171088 15.199048244 16.211643678 17.219083896 
18.211827544 19.215254033 20.225319795 21.237736839 22.251443757 23.265684315 24.279656163 25.291932183 26.300663913 
27.309600307 28.320276241 29.331935787 30.344456501 31.3580714 32.372432124 33.386825283 34.401132045 35.415237203 
36.429027524 37.442312455 38.454094174 39.465821365 40.478928959 41.492824486 42.506923813 43.521113963 44.535305241 
45.549585787 46.564049267 47.57859528 48.592655571 49.605566887 50.617295918 51.629677627 52.643059699 53.657137906 
54.671397532 55.685779105 56.700230207 57.714605641 58.72888045 59.743055241 60.756951332 61.768997055 62.766631458 
63.799147852 
ParallelTransportNormals 3 64 double
0.34857541763 0 0.93728073608 0.27059771219 -0.0021805267034 0.96269004537 0.27461077295 -0.0018449577482 0.96155370079 
0.32166769738 0.0077136381659 0.94682120395 0.37938814836 0.030251430959 0.9247429285 0.39823952562 0.042723918946 0.91628595263 
0.33114587938 -0.026239979886 0.94321464685 0.16728722666 -0.2612367649 0.95066836303 -0.0073235650955 -0.563109813 0.8263496257 
-0.10787229832 -0.75056622322 0.65193091031 -0.15201768224 -0.84293186269 0.5160973737 -0.16654860386 -0.89211257923 0.41999608157 
-0.16505619496 -0.91506801536 0.36797687397 -0.16696202683 -0.91112774613 0.37678894865 -0.19649369137 -0.8690384226 0.45405115273 
-0.27087882863 -0.7538979189 0.59855040563 -0.40539434296 -0.45112902476 0.79507108469 -0.53866386619 0.23179546263 0.81000747081 
-0.47391220819 0.81157716387 0.34168659033 -0.34771228659 0.93063825385 -0.11405527708 -0.26295168599 0.8742381723 -0.40812256607 
-0.22517593817 0.79230620923 -0.56705085106 -0.21891853164 0.75755720668 -0.61496484055 -0.21856037679 0.79898022751 -0.56023384202 
-0.19871503901 0.90556270614 -0.37479129996 -0.16189494394 0.98649102693 -0.025009616201 -0.16622157624 0.91477928824 0.36817012561 
-0.22894038156 0.72798380495 0.64623980179 -0.32192034316 0.48975484886 0.81025149224 -0.41822222569 0.23158142776 0.8783280778 
-0.48731562506 0.014436891389 0.87310655577 -0.51997171148 -0.11851458255 0.84592181257 -0.52840832682 -0.16944167355 0.83190994669 
-0.52765289806 -0.160485191 0.83416240783 -0.52760077869 -0.12212360413 0.84066833153 -0.53102844659 -0.085843567777 0.84299446664 
-0.53273216083 -0.078448903021 0.8426400266 -0.51716775308 -0.11225886618 0.84849010727 -0.4795359535 -0.15512661959 0.86370191686 
-0.46600199084 -0.1633245853 0.8695787626 -0.50054198211 -0.15233320172 0.85220438851 -0.5562201956 -0.14409989769 0.81844628015 
-0.60180707623 -0.14346436049 0.7856501895 -0.61589893029 -0.14529989774 0.77431030432 -0.59473674128 -0.1391791693 0.79178113605 
-0.55652776202 -0.12323465997 0.82163864849 -0.52933000504 -0.1108156419 0.8411478106 -0.53607928941 -0.11341760912 0.83651386205 
-0.59563742769 -0.1257824548 0.7933440797 -0.70179738388 -0.11679205229 0.70273753884 -0.80008622177 -0.065075068554 0.59634492803 
-0.85319357899 -0.0024722316077 0.52158853979 -0.87353963979 0.040124986948 0.4850963648 -0.88027762471 0.062170574143 0.47036807199 
-0.88360194503 0.078074215951 0.46168389568 -0.88664066967 0.10024133946 0.45146428071 -0.88875465185 0.1319273585 0.43898785962 
-0.88836288741 0.16967694567 0.42663932587 -0.88430449895 0.21156160959 0.41622979048 -0.87461435787 0.26084801732 0.408666168 
-0.85616474275 0.31946193851 0.40611082616 -0.8271988497 0.38313596513 0.41103393446 -0.78553539208 0.44967099967 0.42512367594 
-0.78553539208 0.44967099967 0.42512367594 
