# vtk DataFile Version 4.2
vtk output
ASCII
DATASET POLYDATA
POINTS 64 float
0 0 0 -0.842619 0.351885 0.51471 -1.69826 0.500751 0.958582 
-2.61885 0.398841 1.37948 -3.4698 -0.0116172 1.7449 -4.18636 -0.647813 2.07564 
-4.78136 -1.40217 2.40092 -5.29696 -2.21249 2.72769 -5.776 -3.05409 3.03027 
-6.26415 -3.91804 3.24028 -6.80002 -4.77537 3.1963 -7.3181 -5.51748 2.74709 
-7.71106 -6.12495 2.03671 -7.96774 -6.70179 1.2429 -8.09507 -7.31318 0.44372 
-8.10027 -7.98522 -0.315857 -7.99947 -8.72655 -1.00058 -7.81891 -9.53813 -1.58138 
-7.59373 -10.4169 -2.03488 -7.36377 -11.3577 -2.3352 -7.17727 -12.3492 -2.43024 
-7.12269 -13.328 -2.1736 -7.34979 -13.8081 -1.35307 -7.66884 -13.5048 -0.440745 
-7.90494 -12.91 0.345703 -8.04465 -12.2378 1.09249 -8.0802 -11.5963 1.87723 
-8.00377 -11.1071 2.76136 -7.83175 -10.947 3.74468 -7.63348 -11.2322 4.69372 
-7.4765 -11.8688 5.46515 -7.37242 -12.7 6.036 -7.30398 -13.6261 6.44359 
-7.25124 -14.597 6.73275 -7.19586 -15.5879 6.94325 -7.11974 -16.5858 7.10999 
-7.00488 -17.5821 7.26341 -6.8379 -18.5694 7.42653 -6.61279 -19.5406 7.61466 
-6.32627 -20.4881 7.83679 -5.96745 -21.3999 8.09929 -5.51226 -22.2521 8.40787 
-4.92808 -23.001 8.76258 -4.19338 -23.5812 9.15047 -3.32799 -23.9323 9.54351 
-2.39413 -24.054 9.91894 -1.4483 -24.0084 10.2825 -0.517995 -23.8689 10.6624 
0.385233 -23.6939 11.0899 1.25504 -23.5226 11.5832 2.09166 -23.3782 12.1386 
2.90177 -23.2815 12.7415 3.69251 -23.2639 13.3767 4.46065 -23.3732 14.0298 
5.17936 -23.6629 14.6834 5.79277 -24.1654 15.3143 6.23317 -24.8593 15.9071 
6.45173 -25.6732 16.47 6.43027 -26.5227 17.0224 6.18395 -27.3368 17.5737 
5.75588 -28.0785 18.1174 5.19386 -28.7491 18.6409 4.57452 -29.3383 19.1099 
3.84226 -29.9466 19.5495 
LINES 1 65
64 0 1 2 3 4 5 6 7 8 9 10 11 12 13 14 15 16 17 18 19 20 21 22 23 24 25 26 27 28 29 30 31 32 33 34 35 36 37 38 39 40 41 42 43 44 45 46 47 48 49 50 51 52 53 54 55 56 57 58 59 60 61 62 63 

POINT_DATA 64
SCALARS MaximumInscribedSphereRadius float
LOOKUP_TABLE default
0.62 0.790661 0.914757 0.93 0.93 0.93 0.943787 1.19753 1.50755 
1.54227 1.40959 1.15174 0.967203 1.18272 1.47213 1.69529 1.43474 1.43515 
1.72474 1.7331 1.57072 1.78139 1.8696 2.06526 2.26761 2.43641 2.14808 
1.87167 1.86804 2.05573 2.06248 1.87749 1.86 1.92216 2.09434 2.28083 
2.35626 1.9316 1.67394 2.04531 1.92607 1.64623 1.74296 1.84648 1.85039 
2.01979 2.10879 1.97304 2.19616 2.54751 2.50108 2.58691 2.74067 2.60905 
2.49261 2.47686 2.32257 2.30949 2.65342 2.65793 2.48685 2.49496 2.59567 
2.79 
TEXTURE_COORDINATES TCoords 2 float
0 0 0.015873 0 0.031746 0 0.047619 0 0.0634921 
0 0.0793651 0 0.0952381 0 0.111111 0 0.126984 0 
0.142857 0 0.15873 0 0.174603 0 0.190476 0 0.206349 
0 0.222222 0 0.238095 0 0.253968 0 0.269841 0 
0.285714 0 0.301587 0 0.31746 0 0.333333 0 0.349206 
0 0.365079 0 0.380952 0 0.396825 0 0.412698 0 
0.428571 0 0.444444 0 0.460317 0 0.47619 0 0.492063 
0 0.507937 0 0.52381 0 0.539683 0 0.555556 0 
0.571429 0 0.587302 0 0.603175 0 0.619048 0 0.634921 
0 0.650794 0 0.666667 0 0.68254 0 0.698413 0 
0.714286 0 0.730159 0 0.746032 0 0.761905 0 0.777778 
0 0.793651 0 0.809524 0 0.825397 0 0.84127 0 
0.857143 0 0.873016 0 0.888889 0 0.904762 0 0.920635 
0 0.936508 0 0.952381 0 0.968254 0 0.984127 0 
1 0 
FIELD FieldData 4
Curvature 1 64 float
0.133802 0.172019 0.216493 0.238558 0.201373 0.135828 0.0743053 0.0507263 0.104135 
0.224382 0.322017 0.24799 0.140671 0.108587 0.107624 0.109889 0.110588 0.109972 
0.121379 0.167923 0.291839 0.636145 0.626774 0.269434 0.114872 0.0903928 0.165692 
0.269529 0.333769 0.295623 0.214839 0.143461 0.0932051 0.0593663 0.0387424 0.0347858 
0.0401839 0.0486337 0.0556994 0.0656574 0.088171 0.12723 0.169044 0.195461 0.17576 
0.123431 0.0702999 0.0497318 0.0546968 0.0553911 0.0533449 0.0632545 0.0944321 0.136699 
0.175138 0.19088 0.185477 0.177337 0.166211 0.142367 0.109444 0.0828844 0.0779766 
0.117342 
Torsion 1 64 float
-0.0440431 -0.0620097 -0.0840859 -0.106285 -0.119189 -0.105987 0.0425342 0.434125 0.191711 
0.013851 -0.0964979 -0.235852 -0.361765 -0.281079 -0.174509 -0.152787 -0.160145 -0.181738 
-0.160785 -0.0968328 -0.0344943 0.0286375 0.0857296 0.149819 0.517947 0.593949 0.229895 
0.135234 0.0865911 0.0394357 -0.00253237 -0.0358734 -0.0789462 -0.18519 -0.402376 -0.422931 
-0.234262 -0.107033 -0.0358948 0.0195536 0.0488509 0.0485519 0.0363495 0.0173572 -0.0258807 
-0.122141 -0.387054 -0.581144 -0.283409 -0.204142 -0.285205 -0.24672 -0.0896818 0.00566076 
0.0595252 0.134667 0.187279 0.178239 0.110216 0.0223842 -0.0530192 -0.169847 -0.26897 
-0.199355 
Abscissas 1 64 double
0 1.0482157329 2.0235643146 3.0409269953 4.0539045867 5.0676067748 6.0819473134 7.096462214 8.111018595 
9.1253184955 10.137299642 11.147707042 12.161648518 13.175928192 14.190176401 15.204386446 16.218574084 17.232769468 
18.246971008 19.260962956 20.274317239 21.287674088 22.26508876 23.27806486 24.291983396 25.30641069 26.320611091 
27.333944433 28.344954368 29.355561531 30.367987919 31.381691595 32.395829037 33.410246477 34.42477108 35.439365026 
36.453930795 37.468452027 38.482993778 39.497484914 40.511899945 41.52613071 42.540002226 43.553350734 44.566589286 
45.580419956 46.594742475 47.60926283 48.623758912 49.638279952 50.652801159 51.667255323 52.681680675 53.695842898 
54.70958031 55.722897034 56.736239503 57.749677961 58.763213875 59.776803857 60.791187134 61.810805688 62.785844468 
63.834405948 
ParallelTransportNormals 3 64 double
0.52128495298 0 0.85338267957 0.46274865607 0.017003405971 0.88632644409 0.41404671778 0.018436955349 0.91006889529 
0.38989213833 0.011441241302 0.92078945393 0.40377348975 0.020709065813 0.91462456974 0.43051073018 0.049055050461 0.9012514151 
0.44823886402 0.074031233398 0.89084302616 0.44462337519 0.068026555769 0.89313069701 0.4030545546 -0.0052762220303 0.91516074407 
0.27526731121 -0.22006196831 0.93584220758 0.059751726975 -0.54710734502 0.83492711308 -0.069662111261 -0.73880351916 0.67031078637 
-0.097647674981 -0.78982033032 0.60551529905 -0.095509464161 -0.78320409164 0.61438529693 -0.091614407284 -0.74548345222 0.66019786644 
-0.095882619482 -0.68238183065 0.72468031605 -0.11177863232 -0.59464695618 0.79617870787 -0.13881422431 -0.48201428042 0.86509701456 
-0.17485098487 -0.33794526568 0.92478112572 -0.21884511496 -0.133811935 0.96654083293 -0.26346909895 0.23089120624 0.93662868031 
-0.18522262571 0.86966135931 0.45758245056 0.052562110022 0.95298165824 -0.29843455506 0.14126000484 0.80952131266 -0.56984283393 
0.15939416556 0.74838896857 -0.64382253122 0.15676147648 0.76812411902 -0.62081492997 0.16000734601 0.8577909852 -0.48845908214 
0.19954691689 0.9610181022 -0.19137720662 0.27885493104 0.93420575384 0.22248491393 0.34727211873 0.7567565825 0.55382447616 
0.38315637211 0.55504151657 0.73832249688 0.39897540344 0.39391701354 0.82803865483 0.40618704413 0.28102553874 0.86950372728 
0.4100245788 0.21139470397 0.88723848198 0.41205705415 0.18065542239 0.89306920364 0.41165274147 0.18487721603 0.89239141381 
0.40729930315 0.21551676932 0.88750199988 0.39789132267 0.26250997345 0.87907394978 0.38282267549 0.31901976274 0.86699088237 
0.35955267815 0.38606304167 0.84951586182 0.32111334596 0.46936181005 0.82254830272 0.25602196984 0.56962855828 0.78100963921 
0.15161902558 0.67483394414 0.72222629343 0.010413879366 0.75701817765 0.65331082175 -0.13420370304 0.79502613814 0.59154273368 
-0.24863917591 0.79966154423 0.5465528107 -0.3289212646 0.79174126546 0.51473932263 -0.38377270243 0.78233273683 0.49058536642 
-0.42017831764 0.77522217924 0.47167865566 -0.43875824371 0.77178478807 0.46026019215 -0.43609895153 0.77217413684 0.46213072487 
-0.40671636896 0.77427201635 0.4848552773 -0.34555655685 0.77067369698 0.53539958797 -0.25679320722 0.74685139345 0.61340870944 
-0.16090309628 0.68982226784 0.70587210768 -0.092504841187 0.61216946055 0.78529701765 -0.067596884319 0.55517736546 0.82898055111 
-0.066405158001 0.54512056013 0.8357235966 -0.062008803761 0.57243381453 0.81760285973 -0.046623174765 0.60793245974 0.79261870024 
-0.030563722875 0.63085119322 0.77530163863 -0.023946083476 0.637890408 0.76975477424 -0.044407016551 0.61971762864 0.78356753227 
-0.044407016551 0.61971762864 0.78356753227 
