# vtk DataFile Version 4.2
vtk output
ASCII
DATASET POLYDATA
POINTS 64 float
0 0 0 -0.432967 0.626357 0.706387 -1.03644 1.07065 1.35382 
-1.79599 1.35892 1.95726 -2.65979 1.45329 2.47886 -3.5656 1.32933 2.91566 
-4.43983 0.976266 3.28659 -5.21532 0.415707 3.62038 -5.86206 -0.294198 3.94553 
-6.40044 -1.08987 4.27104 -6.87848 -1.93639 4.56052 -7.34152 -2.82848 4.68463 
-7.76536 -3.7016 4.41034 -8.06587 -4.46321 3.81279 -8.24833 -5.1849 3.12383 
-8.30566 -5.92778 2.43592 -8.19024 -6.68617 1.77342 -7.8632 -7.4007 1.13358 
-7.36722 -8.03465 0.51669 -6.78777 -8.63601 -0.0593346 -6.20136 -9.30723 -0.542161 
-5.77208 -10.2054 -0.699606 -5.97407 -10.8504 -0.0107339 -6.40283 -10.7682 0.898435 
-6.72452 -10.3447 1.76013 -6.87461 -9.76376 2.57707 -6.83867 -9.17489 3.40092 
-6.60363 -8.82655 4.31756 -6.27378 -9.16835 5.19473 -6.04072 -9.96865 5.77076 
-5.86702 -10.8843 6.17087 -5.7078 -11.8356 6.48528 -5.5407 -12.7978 6.76057 
-5.34635 -13.7564 7.02998 -5.09927 -14.6995 7.31066 -4.7669 -15.6128 7.60071 
-4.3153 -16.4737 7.88927 -3.72126 -17.2459 8.16964 -2.98491 -17.8844 8.44784 
-2.13381 -18.3485 8.7436 -1.21576 -18.6151 9.08024 -0.282694 -18.6852 9.47013 
0.625624 -18.5813 9.90854 1.49125 -18.3384 10.378 2.31944 -17.9976 10.8545 
3.13326 -17.6029 11.3141 3.95641 -17.1974 11.7469 4.79952 -16.8217 12.168 
5.66247 -16.5225 12.6092 6.53202 -16.3693 13.107 7.35652 -16.4702 13.6847 
8.00278 -16.9348 14.3049 8.30814 -17.7306 14.8449 8.27517 -18.6678 15.2258 
8.03808 -19.6195 15.4831 7.70643 -20.5591 15.6733 7.33863 -21.493 15.8214 
6.96041 -22.4299 15.9132 6.58367 -23.3717 15.9207 6.22336 -24.3179 15.8555 
5.90037 -25.2787 15.812 5.64684 -26.2439 15.9734 5.49926 -27.097 16.451 
5.4436 -27.8044 17.2096 
LINES 1 65
64 0 1 2 3 4 5 6 7 8 9 10 11 12 13 14 15 16 17 18 19 20 21 22 23 24 25 26 27 28 29 30 31 32 33 34 35 36 37 38 39 40 41 42 43 44 45 46 47 48 49 50 51 52 53 54 55 56 57 58 59 60 61 62 63 

POINT_DATA 64
SCALARS MaximumInscribedSphereRadius float
LOOKUP_TABLE default
1.116 1.20322 1.11498 0.898268 0.703896 0.803585 1.03612 1.21733 1.05737 
1.01166 1.19894 1.24 1.24 1.08997 1.01622 1.21441 1.43418 1.34396 
0.949301 1.35311 1.55 1.67658 1.86 1.86 1.89366 2.07381 2.17 
2.09279 1.95535 2.12583 1.97007 1.76407 1.57075 1.55 1.55 1.49096 
1.28725 1.4167 1.55 1.57146 1.75403 1.96941 2.10445 1.90145 1.69375 
1.55 1.55278 1.70457 1.91233 2.11206 2.17 2.03835 1.94621 2.06763 
1.76028 1.75019 2.10732 1.7465 1.67568 1.78146 1.62741 1.772 1.72896 
1.55 
TEXTURE_COORDINATES TCoords 2 float
0 0 0.015873 0 0.031746 0 0.047619 0 0.0634921 
0 0.0793651 0 0.0952381 0 0.111111 0 0.126984 0 
0.142857 0 0.15873 0 0.174603 0 0.190476 0 0.206349 
0 0.222222 0 0.238095 0 0.253968 0 0.269841 0 
0.285714 0 0.301587 0 0.31746 0 0.333333 0 0.349206 
0 0.365079 0 0.380952 0 0.396825 0 0.412698 0 
0.428571 0 0.444444 0 0.460317 0 0.47619 0 0.492063 
0 0.507937 0 0.52381 0 0.539683 0 0.555556 0 
0.571429 0 0.587302 0 0.603175 0 0.619048 0 0.634921 
0 0.650794 0 0.666667 0 0.68254 0 0.698413 0 
0.714286 0 0.730159 0 0.746032 0 0.761905 0 0.777778 
0 0.793651 0 0.809524 0 0.825397 0 0.84127 0 
0.857143 0 0.873016 0 0.888889 0 0.904762 0 0.920635 
0 0.936508 0 0.952381 0 0.968254 0 0.984127 0 
1 0 
FIELD FieldData 4
Curvature 1 64 float
0.16292 0.151685 0.148516 0.149899 0.151142 0.15358 0.149273 0.127907 0.0881392 
0.0608699 0.138568 0.283957 0.248652 0.120432 0.084152 0.111497 0.141954 0.124266 
0.0637585 0.0883286 0.289947 0.837281 0.547971 0.250533 0.155988 0.124454 0.240187 
0.511132 0.386111 0.152752 0.0605549 0.0352996 0.0349502 0.0379532 0.0577383 0.0831826 
0.107108 0.124314 0.133476 0.135356 0.129914 0.115877 0.0943205 0.0671053 0.0381045 
0.0250245 0.0297285 0.051217 0.101291 0.177305 0.266429 0.313816 0.264046 0.160103 
0.0742349 0.0365827 0.0435502 0.0613554 0.0544864 0.0415422 0.139719 0.253107 0.249437 
0.191066 
Torsion 1 64 float
-0.00340733 -0.00285183 0.0110412 0.0625702 0.127169 0.148023 0.138 0.120046 -0.0216072 
-0.466466 -0.180739 0.0129616 0.138055 0.324582 0.19266 -0.110523 -0.166931 -0.0051067 
0.498572 0.542896 0.0346102 -0.0872412 -0.157267 -0.194623 -0.303961 -0.504926 -0.320337 
-0.153679 -0.0283976 0.0525279 0.13126 0.225597 0.182962 0.00645036 -0.0849029 -0.0310696 
0.0323826 0.0826842 0.116749 0.111902 0.0795318 0.0334483 -0.019928 -0.127177 -0.434103 
-0.590018 -0.488378 -0.232779 -0.0678235 -0.0116971 0.00383895 0.00211302 -0.00444786 -0.00504722 
0.0276483 0.268258 0.150742 0.0572516 0.232278 0.809991 0.149346 0.0385249 0.0138846 
0.00531512 
Abscissas 1 64 double
0 1.0386366616 2.0289625549 3.0409683086 4.0544389134 5.0676772201 6.0808510886 7.0942746225 8.1081583503 
9.1225073244 10.136862789 11.149598518 12.158168838 13.171787231 14.1860817 15.200171553 16.213770809 17.227133193 
18.241254452 19.255749916 20.269423216 21.277282674 22.242357357 23.250910833 24.263509061 25.277121108 26.290426746 
27.298798627 28.296323257 29.309539563 30.32377576 31.338258838 32.352919442 33.367447754 34.381975894 35.396231678 
36.410311622 37.4241079 38.437660689 39.451186183 40.464704323 41.478380784 42.492303746 43.506553423 44.520996344 
45.535552724 46.550107623 47.564657194 48.578984527 49.592588476 50.604377902 51.613413452 52.622444711 53.6346286 
54.648603385 55.663007654 56.677591809 57.692115283 58.706501065 59.721078667 60.735648386 61.746558492 62.735325937 
63.774068539 
ParallelTransportNormals 3 64 double
0 -0.74822006327 0.66345062885 0.051102761384 -0.80059069736 0.59702851111 0.11279448992 -0.83386491359 0.54032093142 
0.19752485716 -0.8538449646 0.48159392358 0.31748051073 -0.85183747064 0.41662819026 0.47378345217 -0.80994996382 0.34570261289 
0.63821266197 -0.71889149597 0.2754625476 0.76895176137 -0.60210908402 0.2148902967 0.84710657998 -0.50282455678 0.17198228762 
0.88198537711 -0.44647218999 0.1508786868 0.88596763264 -0.43911487136 0.14912908388 0.87101931374 -0.46886945383 0.14658373159 
0.87385227529 -0.46247759168 0.14998892684 0.89061887781 -0.41098768242 0.1946461903 0.90470378104 -0.32495637741 0.27552571814 
0.89990683485 -0.20107400642 0.38695856694 0.8584166041 -0.062964003716 0.50907412824 0.79719692004 0.037351536276 0.60256280454 
0.74880828227 0.092934974288 0.65623871187 0.71473916584 0.13012344654 0.68717960787 0.67210012625 0.19606377643 0.71403110287 
0.63514406001 0.46210524862 0.61891094855 0.75823908368 0.57596749491 0.30550767058 0.85797698882 0.50886780681 0.070207135381 
0.91020386861 0.39770339965 -0.11558946088 0.91982433937 0.29908795587 -0.25390860435 0.9078433707 0.25775069301 -0.33073402384 
0.93316101148 0.25787639773 -0.25042022711 0.97306046798 0.1772852941 -0.14738809368 0.98352481461 0.13314530488 -0.12227537297 
0.98490414917 0.12541032798 -0.11931498896 0.98315027266 0.13569485253 -0.12248448211 0.97823333143 0.16182411393 -0.12989420862 
0.96693936861 0.21047899606 -0.14396822446 0.94227955311 0.28948056053 -0.16825649723 0.89337960751 0.40014411365 -0.20434667895 
0.80917374732 0.53165485237 -0.2501618768 0.68711071441 0.66108316464 -0.30140987969 0.53961900968 0.76352661834 -0.35473712447 
0.38949162985 0.82553276243 -0.40840167536 0.25633235374 0.8497542904 -0.4606640537 0.14873159105 0.84778042879 -0.50906508267 
0.065768812362 0.83156260611 -0.55152343145 0.003821402995 0.81021550429 -0.58611964093 -0.038906193534 0.79107675488 -0.61047839929 
-0.058425335663 0.78153519648 -0.62111932575 -0.044506917762 0.78806063206 -0.61398662401 0.016532323157 0.81220680788 -0.58313530464 
0.14497578195 0.84574264137 -0.51351865323 0.36586651866 0.85253256073 -0.37326923717 0.65988654133 0.73936585307 -0.13374560881 
0.88742186704 0.43799955993 0.14366215716 0.94087601211 0.098614441378 0.32407949918 0.90976497622 -0.11913190089 0.39766226655 
0.87810871501 -0.22440598565 0.42257193261 0.86083105443 -0.2706850158 0.43092866921 0.84907298068 -0.30017082205 0.43470973198 
0.83660930976 -0.33118638201 0.43634899244 0.83068626977 -0.34635858946 0.43588536191 0.84580131665 -0.30417449115 0.43828987176 
0.88848354173 -0.16155284054 0.42953192638 0.93270227316 0.039348916648 0.35849425713 0.95196633904 0.18596652372 0.24326228927 
0.95196633904 0.18596652372 0.24326228927 
