# vtk DataFile Version 4.2
vtk output
ASCII
DATASET POLYDATA
POINTS 64 float
0 0 0 -0.966862 -0.371026 0.134917 -1.863 -0.668171 0.410133 
-2.76543 -0.975434 0.75904 -3.64197 -1.34474 1.11311 -4.46349 -1.87838 1.36967 
-5.13369 -2.63489 1.40908 -5.63594 -3.5052 1.27183 -6.0744 -4.39563 1.06167 
-6.50341 -5.27091 0.78093 -6.9019 -6.10291 0.360508 -7.19329 -6.84968 -0.258549 
-7.29565 -7.47611 -1.04794 -7.18883 -8.00041 -1.90884 -6.90678 -8.47638 -2.75868 
-6.49963 -8.96318 -3.54984 -6.02139 -9.52053 -4.24919 -5.54628 -10.2174 -4.81045 
-5.22705 -11.1259 -5.11352 -5.36478 -12.0887 -4.90304 -5.9141 -12.6549 -4.27514 
-6.56312 -12.8161 -3.51593 -7.16359 -12.668 -2.71392 -7.61769 -12.288 -1.89191 
-7.84771 -11.7739 -1.04985 -7.79822 -11.2602 -0.17877 -7.43758 -10.9389 0.708454 
-6.80652 -11.081 1.47635 -6.15268 -11.7412 1.86347 -5.6626 -12.6266 1.87679 
-5.31486 -13.5615 1.69395 -5.05133 -14.5128 1.45956 -4.81589 -15.4873 1.30673 
-4.54502 -16.4609 1.37226 -4.18858 -17.3526 1.69479 -3.73117 -18.1265 2.164 
-3.16377 -18.7996 2.66741 -2.4747 -19.369 3.14599 -1.66603 -19.803 3.57661 
-0.769188 -20.0695 3.96713 0.1633 -20.1737 4.35194 1.08653 -20.1617 4.77204 
1.98025 -20.0887 5.24649 2.84725 -19.9913 5.76436 3.70264 -19.8859 6.29975 
4.56242 -19.7779 6.82747 5.43534 -19.6771 7.33466 6.32139 -19.6114 7.82443 
7.20876 -19.6397 8.31472 8.04233 -19.8837 8.8358 8.61175 -20.5059 9.385 
8.73684 -21.3839 9.87014 8.58012 -22.2969 10.2821 8.29679 -23.194 10.6618 
7.96731 -24.0785 11.034 7.64377 -24.9648 11.4071 7.36735 -25.8688 11.7751 
7.16607 -26.8013 12.1201 7.04285 -27.7622 12.4211 6.9777 -28.7439 12.6683 
6.94249 -29.7387 12.8677 6.91202 -30.7393 13.0369 6.8687 -31.7088 13.1914 
6.78213 -32.7347 13.372 
LINES 1 65
64 0 1 2 3 4 5 6 7 8 9 10 11 12 13 14 15 16 17 18 19 20 21 22 23 24 25 26 27 28 29 30 31 32 33 34 35 36 37 38 39 40 41 42 43 44 45 46 47 48 49 50 51 52 53 54 55 56 57 58 59 60 61 62 63 

POINT_DATA 64
SCALARS MaximumInscribedSphereRadius float
LOOKUP_TABLE default
1.24 1.26101 1.27651 1.2772 1.26318 1.24084 1.25956 1.44181 1.30357 
0.956228 1.16723 1.09525 1.00845 1.20362 1.26277 1.24163 1.24 1.38218 
1.70346 1.35797 1.43613 1.45535 1.20084 1.17327 1.27849 1.61093 1.5353 
1.32149 1.53509 1.36256 1.31665 1.48041 1.55 1.63735 2.05845 2.02918 
1.88331 1.86 1.86 1.86 1.6917 1.61879 1.7766 1.65312 1.45496 
1.69581 1.93985 2.13753 2.18359 2.10913 1.91392 2.2842 2.32304 2.07234 
2.07078 2.15981 2.17 2.07893 1.90639 2.03238 2.15951 2.1575 1.80986 
1.24 
TEXTURE_COORDINATES TCoords 2 float
0 0 0.015873 0 0.031746 0 0.047619 0 0.0634921 
0 0.0793651 0 0.0952381 0 0.111111 0 0.126984 0 
0.142857 0 0.15873 0 0.174603 0 0.190476 0 0.206349 
0 0.222222 0 0.238095 0 0.253968 0 0.269841 0 
0.285714 0 0.301587 0 0.31746 0 0.333333 0 0.349206 
0 0.365079 0 0.380952 0 0.396825 0 0.412698 0 
0.428571 0 0.444444 0 0.460317 0 0.47619 0 0.492063 
0 0.507937 0 0.52381 0 0.539683 0 0.555556 0 
0.571429 0 0.587302 0 0.603175 0 0.619048 0 0.634921 
0 0.650794 0 0.666667 0 0.68254 0 0.698413 0 
0.714286 0 0.730159 0 0.746032 0 0.761905 0 0.777778 
0 0.793651 0 0.809524 0 0.825397 0 0.84127 0 
0.857143 0 0.873016 0 0.888889 0 0.904762 0 0.920635 
0 0.936508 0 0.952381 0 0.968254 0 0.984127 0 
1 0 
FIELD FieldData 4
Curvature 1 64 float
0.163638 0.102268 0.0583704 0.0832449 0.172385 0.251953 0.19576 0.0892576 0.0532037 
0.101863 0.165544 0.197357 0.172308 0.130904 0.0982184 0.0927461 0.14268 0.267745 
0.495124 0.504995 0.30535 0.218472 0.187185 0.17964 0.193445 0.257671 0.386615 
0.452954 0.331035 0.175377 0.0694496 0.0810704 0.162397 0.199176 0.154508 0.107563 
0.10964 0.128293 0.13253 0.114562 0.0837082 0.0595574 0.0392399 0.0211263 0.0199172 
0.0231717 0.0289257 0.0727212 0.168723 0.332381 0.381438 0.220432 0.0997834 0.0347574 
0.0190624 0.0435526 0.0614705 0.0647661 0.0564736 0.0416943 0.0233687 0.0130781 0.0278332 
0.0504808 
Torsion 1 64 float
-0.0430388 -0.121755 -0.375742 -0.282041 -0.0917106 -0.0243001 -0.0053222 -0.162349 -0.111988 
0.132991 0.134113 0.160873 0.192186 0.243257 0.359598 0.417149 0.269905 0.125303 
0.0468716 -0.0206067 -0.0831759 -0.150995 -0.223631 -0.288082 -0.315739 -0.247106 -0.141799 
-0.0451262 -0.0122965 -0.0886378 -0.615353 -0.542346 -0.174571 -0.16184 -0.259875 -0.314636 
-0.109255 0.0573783 0.143227 0.235381 0.343081 0.290163 0.147334 -0.0684807 -0.106924 
-0.245256 -0.509853 -0.205194 -0.0876958 -0.066284 -0.0566875 -0.0532905 -0.0638305 -0.142391 
-0.100834 -0.0798903 -0.110691 -0.141317 -0.157906 -0.179318 -0.401826 -1.03787 -0.278684 
-0.0774171 
Abscissas 1 64 double
0 1.0443586881 2.0277722947 3.0429207791 4.05784676 5.0705115061 6.0819602713 7.096125957 8.1106602497 
9.1250464399 10.138837994 11.15165843 12.164589958 13.178221947 14.192287171 15.206525008 16.220646778 17.233746077 
18.243267142 19.238382912 20.24664524 21.258382277 22.271159465 23.284227932 24.297279314 25.309760316 26.319939066 
27.323977688 28.330572407 29.342643823 30.3567397 31.371313254 32.385432968 33.39813255 34.411150496 35.42520268 
36.439317937 37.453256468 38.467030019 39.480861339 40.494996658 41.509383864 42.523862742 43.538438897 44.553053947 
45.567634497 46.582224194 47.596756548 48.61096075 49.623827514 50.630302818 51.641189945 52.655014958 53.669528474 
54.684137351 55.698734424 56.713153908 57.727597936 58.742049271 59.756489506 60.771688138 61.786949291 62.769637615 
63.814903805 
ParallelTransportNormals 3 64 double
0.13820208671 0 0.99040405049 0.27801482014 0.050034734412 0.95927278974 0.33876330036 0.070444942599 0.93823074795 
0.3467535641 0.073483795654 0.93507331133 0.27646590715 0.036099293103 0.96034548118 0.14531282236 -0.077350305952 0.98635749798 
0.063355188009 -0.1910371914 0.9795360696 0.034247429567 -0.24551779362 0.9687869356 0.0039569792009 -0.30717314714 0.95164541715 
-0.055161764583 -0.42914609679 0.90154911532 -0.13069417314 -0.60200809475 0.7877215796 -0.1759587115 -0.75986433237 0.62581525088 
-0.17561373555 -0.85033455445 0.49607556016 -0.16295859481 -0.88289017464 0.44039690724 -0.16801325356 -0.87582902784 0.45243238237 
-0.20752496682 -0.82923248767 0.51894784857 -0.29562189225 -0.71332615617 0.63543173649 -0.44087167555 -0.41960424669 0.79345097004 
-0.50488276172 0.25266311569 0.82538157654 -0.25227384361 0.81801218185 0.51692743995 0.0087251700201 0.97661464399 0.21482017727 
0.20341110939 0.97868060219 -0.028428849292 0.33751048658 0.91153286877 -0.23493509869 0.40298314614 0.82596405368 -0.39419280302 
0.41203274574 0.77442006771 -0.48010683725 0.41796191054 0.78647791199 -0.45470906665 0.52251325575 0.80520573899 -0.28039902899 
0.73363699019 0.67348389295 -0.090532936304 0.87443647157 0.48339262735 -0.041139093542 0.93252985093 0.35720024466 -0.052877805713 
0.95684223612 0.28218193517 -0.069471509632 0.96634103196 0.24552028692 -0.076842687736 0.9619274081 0.26250148961 -0.07608304342 
0.93565832964 0.34061457729 -0.092332009096 0.88719465327 0.43980865168 -0.13947758643 0.818470695 0.53684531429 -0.20470180739 
0.71987124462 0.63434698631 -0.28176105503 0.5835570576 0.72566799158 -0.36450943269 0.42646433932 0.79019080847 -0.44014390089 
0.2957553417 0.81667988108 -0.49554288381 0.22816803625 0.82003840618 -0.52485841864 0.21511269512 0.81942766833 -0.53128601033 
0.22266485866 0.820158545 -0.52702971623 0.22706270993 0.82067635939 -0.52434038458 0.22110432086 0.81993502189 -0.52803355875 
0.21450199239 0.81913939949 -0.53197701027 0.22875192247 0.82048825688 -0.52390035149 0.29534361188 0.82189202443 -0.487099221 
0.47199159449 0.79392639011 -0.38328164816 0.78920747179 0.59769117251 -0.14112699517 0.96969475455 0.20851354492 0.1273349307 
0.96519124074 -0.0498271971 0.25675497897 0.93700192684 -0.16579268782 0.30747385866 0.92281399731 -0.20704090677 0.32488211598 
0.92476356036 -0.20175425976 0.3226570565 0.93803445208 -0.16215320828 0.30626410785 0.95385839918 -0.10131877966 0.28264581936 
0.96411245817 -0.041488226916 0.26223252094 0.96803059088 -0.001081639203 0.25082983312 0.9688597156 0.01524539232 0.24714050557 
0.96876540289 0.012380121047 0.2476697938 0.96817329167 -0.0033796619719 0.25025797725 0.96603851448 -0.03648603605 0.25580922131 
0.96603851448 -0.03648603605 0.25580922131 
