# vtk DataFile Version 4.2
vtk output
ASCII
DATASET POLYDATA
POINTS 64 float
0 0 0 -0.927436 -0.0324115 0.462972 -1.88641 -0.0426414 0.719077 
-2.89127 -0.0760906 0.839272 -3.89948 -0.182638 0.876393 -4.88564 -0.417124 0.90291 
-5.81231 -0.819575 0.98383 -6.64016 -1.38468 1.13521 -7.36502 -2.07316 1.30558 
-8.0145 -2.84633 1.39799 -8.61023 -3.66058 1.30478 -9.1474 -4.45048 0.967854 
-9.60945 -5.16237 0.414115 -9.98015 -5.7798 -0.299273 -10.2272 -6.30927 -1.12762 
-10.2913 -6.7656 -2.03005 -10.1177 -7.17743 -2.93915 -9.72408 -7.59912 -3.77239 
-9.19009 -8.09654 -4.47575 -8.61189 -8.73534 -5.00817 -8.12478 -9.5812 -5.26508 
-8.05352 -10.5205 -4.96396 -8.51944 -10.9976 -4.21261 -9.14619 -11.0257 -3.41859 
-9.76394 -10.8061 -2.64536 -10.3076 -10.4475 -1.86802 -10.7288 -10.0262 -1.04756 
-10.9689 -9.62899 -0.147039 -10.955 -9.39334 0.835988 -10.6538 -9.50317 1.79144 
-10.1773 -10.0237 2.51207 -9.69187 -10.8156 2.91246 -9.26766 -11.7261 3.04441 
-8.90357 -12.6707 2.98636 -8.56799 -13.6121 2.81239 -8.20904 -14.5367 2.59919 
-7.7464 -15.4266 2.45365 -7.09878 -16.1985 2.53066 -6.31213 -16.726 2.88506 
-5.49051 -17.0253 3.39765 -4.66171 -17.174 3.96301 -3.81945 -17.2146 4.5268 
-2.95685 -17.1616 5.05785 -2.07345 -17.0224 5.53652 -1.17539 -16.8117 5.95865 
-0.270758 -16.5617 6.34409 0.634882 -16.3268 6.73637 1.52965 -16.1859 7.19197 
2.36885 -16.2408 7.75578 3.06279 -16.5685 8.41477 3.53384 -17.1572 9.08953 
3.76486 -17.9339 9.69658 3.77963 -18.8197 10.1879 3.62076 -19.751 10.5554 
3.33824 -20.6873 10.8242 2.98083 -21.6128 11.0361 2.59241 -22.5291 11.2336 
2.21024 -23.4446 11.4458 1.86324 -24.3698 11.6762 1.56996 -25.3157 11.8962 
1.33938 -26.292 12.0464 1.17421 -27.2905 12.0501 1.07044 -28.258 11.8558 
1.01195 -29.2017 11.4295 
LINES 1 65
64 0 1 2 3 4 5 6 7 8 9 10 11 12 13 14 15 16 17 18 19 20 21 22 23 24 25 26 27 28 29 30 31 32 33 34 35 36 37 38 39 40 41 42 43 44 45 46 47 48 49 50 51 52 53 54 55 56 57 58 59 60 61 62 63 

POINT_DATA 64
SCALARS MaximumInscribedSphereRadius float
LOOKUP_TABLE default
1.24 0.854119 0.879761 1.43588 1.13551 1.05646 1.22602 1.24 1.24 
1.24 1.22492 1.14641 1.18093 1.3417 1.58641 1.38952 1.24 1.27321 
1.49155 1.89038 2.16783 1.7245 1.38429 1.6125 1.79258 1.48469 1.23105 
1.76112 1.49551 1.4996 1.83755 1.86 1.86 1.86 1.86 1.86 
1.93243 2.16192 2.16524 2.01448 1.81304 1.62112 1.55 1.57598 1.73786 
1.95018 2.17 2.17 1.99431 1.97572 2.12628 1.98406 2.23515 2.18029 
1.66174 1.92319 2.16285 2.1718 2.18475 2.09939 1.87815 1.64367 1.79229 
2.17 
TEXTURE_COORDINATES TCoords 2 float
0 0 0.015873 0 0.031746 0 0.047619 0 0.0634921 
0 0.0793651 0 0.0952381 0 0.111111 0 0.126984 0 
0.142857 0 0.15873 0 0.174603 0 0.190476 0 0.206349 
0 0.222222 0 0.238095 0 0.253968 0 0.269841 0 
0.285714 0 0.301587 0 0.31746 0 0.333333 0 0.349206 
0 0.365079 0 0.380952 0 0.396825 0 0.412698 0 
0.428571 0 0.444444 0 0.460317 0 0.47619 0 0.492063 
0 0.507937 0 0.52381 0 0.539683 0 0.555556 0 
0.571429 0 0.587302 0 0.603175 0 0.619048 0 0.634921 
0 0.650794 0 0.666667 0 0.68254 0 0.698413 0 
0.714286 0 0.730159 0 0.746032 0 0.761905 0 0.777778 
0 0.793651 0 0.809524 0 0.825397 0 0.84127 0 
0.857143 0 0.873016 0 0.888889 0 0.904762 0 0.920635 
0 0.936508 0 0.952381 0 0.968254 0 0.984127 0 
1 0 
FIELD FieldData 4
Curvature 1 64 float
0.146574 0.128051 0.0971162 0.0736386 0.0855277 0.11895 0.127478 0.102736 0.0876893 
0.124165 0.159398 0.151619 0.12788 0.117675 0.131682 0.153551 0.147418 0.128555 
0.143686 0.234806 0.474015 0.576084 0.320086 0.172867 0.101752 0.09176 0.131453 
0.203949 0.288234 0.325648 0.269651 0.193153 0.128743 0.0748553 0.043529 0.104574 
0.209264 0.255871 0.187295 0.107092 0.0695588 0.0625332 0.0649417 0.0587746 0.0360362 
0.0247755 0.0767378 0.148631 0.204668 0.215589 0.196049 0.16916 0.137531 0.0997237 
0.0590092 0.0227881 0.0151989 0.0286738 0.0387624 0.0624934 0.101666 0.140026 0.155192 
0.146639 
Torsion 1 64 float
-0.0462897 -0.0983628 -0.222153 -0.442522 -0.358925 -0.127041 0.0280964 0.270405 0.495877 
0.232478 0.0785617 0.00743466 -0.0618502 -0.1553 -0.191886 -0.2017 -0.258231 -0.329449 
-0.275879 -0.119779 -0.0357395 0.00396911 0.0561806 0.146894 0.30986 0.37954 0.245386 
0.159534 0.131919 0.108065 0.0571773 0.0103299 -0.0355211 -0.176908 -0.597896 -0.194046 
-0.0507806 0.00376979 0.0535015 0.136412 0.207336 0.144268 0.0769325 0.0346808 0.0484927 
0.20639 0.00545553 -0.0123637 -0.0245761 -0.0382163 -0.0404516 -0.028167 -0.00173579 0.0282785 
0.0853131 0.526046 0.537987 0.291574 0.407146 0.290685 0.144717 0.0745418 0.038733 
0.01998 
Abscissas 1 64 double
0 1.0370781493 2.029713815 3.0422893241 4.0567931881 5.0707944001 6.0843190838 7.0980226928 8.1121489719 
9.1261290204 10.139334979 11.15225761 12.165620914 13.17930743 14.19297923 15.206254214 16.219271414 17.232704855 
18.246256821 19.259100281 20.268435357 21.257392663 22.261998186 23.273962833 24.287730094 25.301839293 26.31577107 
27.328866269 28.339839168 29.347644986 30.356263121 31.36772833 32.380829523 33.394831819 34.409283673 35.423771768 
36.437250857 37.447780542 38.45905419 39.472655628 40.486881286 41.501232958 42.515580661 43.529926399 44.544371984 
45.558976811 46.573494492 47.587414435 48.599912789 49.611449928 50.623258167 51.635752248 52.648794078 53.662507234 
54.676770077 55.69126288 56.705896467 57.720401717 58.735039968 59.749505354 60.763846237 61.775922686 62.768180124 
63.805351276 
ParallelTransportNormals 3 64 double
0.44663774965 0 0.89471488229 0.25805840071 -0.004212651607 0.96612013507 0.11900318641 -0.0072898482927 0.99286711081 
0.03815312421 -0.012909687256 0.99918851029 0.030264469097 -0.014258760942 0.99944021815 0.085245794437 0.0040502708083 0.99635171994 
0.15248753206 0.041130989284 0.98744913504 0.17481427157 0.05915593309 0.98282274395 0.12885529709 0.01027683693 0.99161015477 
0.02017984087 -0.12826850871 0.99153414651 -0.11639604422 -0.32165652745 0.93967496468 -0.23368335437 -0.49793409554 0.83513695068 
-0.31629221068 -0.6298018617 0.70944263507 -0.36968713176 -0.72893379496 0.57618308477 -0.3947442069 -0.80832890391 0.43678529533 
-0.38756013735 -0.86527104907 0.31796721777 -0.37283372755 -0.88691293429 0.27272781046 -0.39575948178 -0.86419714384 0.31070521263 
-0.48234726892 -0.77573594154 0.40690891016 -0.65290528838 -0.53794668886 0.53322419708 -0.85102790921 0.10065804243 0.51538282493 
-0.67667160479 0.73478523063 0.046970247294 -0.42670878114 0.8507935401 -0.3067082787 -0.29548278251 0.8306242742 -0.4719674145 
-0.24342249624 0.80470778215 -0.54147102754 -0.24469700728 0.80573799246 -0.53936041951 -0.27945613798 0.84876472919 -0.44889052276 
-0.30718238029 0.9264075597 -0.21773382505 -0.24152104429 0.95247607653 0.18562572234 -0.046913989158 0.79476557353 0.60510062036 
0.15475723701 0.5196876584 0.84022314613 0.28927939015 0.26795607511 0.9189760477 0.36719397701 0.084607953128 0.9262883339 
0.40730993143 -0.023525938442 0.91298693856 0.41632183352 -0.047738300605 0.90796320718 0.37500194422 0.043511000074 0.92600234055 
0.21893497593 0.27702596697 0.93558756402 -0.041911657657 0.51336886243 0.85714399259 -0.24264144896 0.61659783605 0.74895409461 
-0.34812974398 0.64523521288 0.68005676338 -0.40025239896 0.65113996856 0.64483700147 -0.42657503128 0.65094851771 0.6279329343 
-0.43878093958 0.64960489042 0.62087420095 -0.4430390881 0.64876854903 0.61872104878 -0.44293793271 0.64879440031 0.61876636454 
-0.43765265759 0.65021011795 0.62103699876 -0.42268973068 0.65333312106 0.62808377189 -0.39146506027 0.65487931288 0.64644272147 
-0.34516244949 0.64331989113 0.68337573935 -0.29817019769 0.60635742161 0.73717379936 -0.26576480068 0.54334497133 0.79633241354 
-0.25430524893 0.46585345793 0.84753135405 -0.2601200652 0.39250002629 0.88220251702 -0.27239829105 0.34054476896 0.89990467904 
-0.28085075553 0.31595297466 0.90625414257 -0.28137079456 0.3146687523 0.90653960327 -0.27694571083 0.32518778993 0.90418691349 
-0.27568413587 0.32837246951 0.90342115234 -0.28533521104 0.30016873163 0.91021016798 -0.30843969144 0.21539076409 0.92653751974 
-0.33964171322 0.059661375088 0.93866076245 -0.36758725982 -0.14505589454 0.91860676782 -0.38592752378 -0.35981227753 0.84946752223 
-0.38592752378 -0.35981227753 0.84946752223 
