# vtk DataFile Version 4.2
vtk output
ASCII
DATASET POLYDATA
POINTS 64 float
0 0 0 -0.498211 0.302426 0.851659 -0.996171 0.665953 1.63762 
-1.54914 1.05974 2.38886 -2.17613 1.43553 3.092 -2.8875 1.74714 3.74421 
-3.68127 1.95215 4.34082 -4.54167 2.01001 4.87364 -5.43285 1.88535 5.33989 
-6.29851 1.55925 5.75368 -7.0789 1.04585 6.14702 -7.74756 0.398196 6.54909 
-8.33401 -0.326496 6.94908 -8.89378 -1.1023 7.2859 -9.46022 -1.92622 7.44893 
-10.004 -2.77116 7.32958 -10.4656 -3.56615 6.90652 -10.7916 -4.2351 6.22124 
-10.911 -4.71137 5.3372 -10.7935 -5.00543 4.37515 -10.4913 -5.2208 3.43155 
-10.0684 -5.46925 2.54395 -9.57444 -5.84492 1.7428 -9.06394 -6.44922 1.11369 
-8.68244 -7.35235 0.922141 -8.70293 -8.20508 1.43383 -9.09372 -8.56974 2.28462 
-9.65645 -8.44947 3.11378 -10.2378 -7.99696 3.80857 -10.7515 -7.37745 4.42557 
-11.138 -6.72802 5.10085 -11.2735 -6.26615 5.98442 -11.0801 -6.25533 6.97277 
-10.7289 -6.60441 7.8555 -10.3504 -7.17215 8.60462 -10.0035 -7.90556 9.21167 
-9.72418 -8.78188 9.6356 -9.51849 -9.75698 9.81437 -9.33357 -10.7507 9.74243 
-9.08711 -11.7063 9.50932 -8.70609 -12.605 9.23575 -8.13705 -13.4207 9.04534 
-7.37956 -14.091 9.05149 -6.5134 -14.5513 9.29922 -5.63563 -14.7857 9.74638 
-4.8004 -14.8073 10.3195 -4.02428 -14.6291 10.9465 -3.29438 -14.2814 11.5585 
-2.57661 -13.8338 12.1185 -1.83593 -13.3718 12.6354 -1.05688 -12.9744 13.1491 
-0.258537 -12.725 13.7212 0.471338 -12.7462 14.4195 0.931698 -13.1539 15.2164 
1.02317 -13.8535 15.9395 0.86613 -14.6763 16.5093 0.588655 -15.5491 16.9446 
0.274284 -16.4522 17.2832 -0.0157089 -17.382 17.5671 -0.23189 -18.3344 17.8413 
-0.342827 -19.2955 18.1454 -0.346927 -20.2431 18.5015 -0.270464 -21.152 18.9085 
-0.139985 -22.0584 19.3847 
LINES 1 65
64 0 1 2 3 4 5 6 7 8 9 10 11 12 13 14 15 16 17 18 19 20 21 22 23 24 25 26 27 28 29 30 31 32 33 34 35 36 37 38 39 40 41 42 43 44 45 46 47 48 49 50 51 52 53 54 55 56 57 58 59 60 61 62 63 

POINT_DATA 64
SCALARS MaximumInscribedSphereRadius float
LOOKUP_TABLE default
1.24 0.984202 1.14366 1.06311 0.93 0.996723 1.22193 0.979276 1.13655 
1.08493 0.951231 0.977793 1.02202 1.47939 1.31398 1.24 1.24 1.24 
1.12732 1.0005 1.21761 1.34244 1.16922 1.04306 1.24 1.40403 1.4171 
1.29464 1.36229 1.25197 1.25464 1.47339 1.32811 1.66389 1.68845 1.25752 
1.21125 1.02089 1.12123 1.50512 1.91176 2.05491 1.78745 1.6048 1.55049 
1.66865 1.81878 1.70807 2.30663 2.35474 2.48785 2.89111 2.80478 2.49367 
2.1946 1.5235 1.25923 1.47766 2.05091 1.93945 1.86 1.86 1.78442 
1.55 
TEXTURE_COORDINATES TCoords 2 float
0 0 0.015873 0 0.031746 0 0.047619 0 0.0634921 
0 0.0793651 0 0.0952381 0 0.111111 0 0.126984 0 
0.142857 0 0.15873 0 0.174603 0 0.190476 0 0.206349 
0 0.222222 0 0.238095 0 0.253968 0 0.269841 0 
0.285714 0 0.301587 0 0.31746 0 0.333333 0 0.349206 
0 0.365079 0 0.380952 0 0.396825 0 0.412698 0 
0.428571 0 0.444444 0 0.460317 0 0.47619 0 0.492063 
0 0.507937 0 0.52381 0 0.539683 0 0.555556 0 
0.571429 0 0.587302 0 0.603175 0 0.619048 0 0.634921 
0 0.650794 0 0.666667 0 0.68254 0 0.698413 0 
0.714286 0 0.730159 0 0.746032 0 0.761905 0 0.777778 
0 0.793651 0 0.809524 0 0.825397 0 0.84127 0 
0.857143 0 0.873016 0 0.888889 0 0.904762 0 0.920635 
0 0.936508 0 0.952381 0 0.968254 0 0.984127 0 
1 0 
FIELD FieldData 4
Curvature 1 64 float
0.0656929 0.0478027 0.0441202 0.0549598 0.0697393 0.0852025 0.101575 0.115473 0.12351 
0.122502 0.103488 0.0658967 0.051996 0.108823 0.168458 0.188576 0.185531 0.204856 
0.18766 0.126838 0.0859358 0.100304 0.174405 0.33942 0.512222 0.420713 0.310816 
0.217884 0.117203 0.0968478 0.23935 0.360964 0.247865 0.155277 0.127402 0.142033 
0.163846 0.151005 0.105393 0.0914456 0.131372 0.184763 0.200092 0.177424 0.145903 
0.126297 0.104445 0.0689218 0.0353379 0.0461694 0.0969562 0.187372 0.292827 0.290884 
0.194473 0.114325 0.0636274 0.0425944 0.0527345 0.0673003 0.0714801 0.0643729 0.0553069 
0.0492391 
Torsion 1 64 float
-0.179689 -0.352344 -0.400205 -0.259697 -0.156769 -0.0967923 -0.0812225 -0.109582 -0.145727 
-0.168306 -0.115789 0.212729 0.593698 0.0679868 -0.0216457 -0.00945013 -0.0225874 -0.0824046 
-0.143106 -0.257737 -0.425477 -0.270837 -0.0867299 -0.0240181 -0.0178702 -0.0325422 0.000918818 
0.07655 0.353266 0.591868 0.168815 0.0751574 0.0861594 0.104036 0.0730151 0.00154988 
-0.100831 -0.210239 -0.401788 -0.487205 -0.236543 -0.0974156 -0.042912 0.00837866 0.0648101 
0.136162 0.202739 0.297704 0.800765 0.559992 0.204648 0.100255 0.0336388 -0.021848 
-0.0608636 -0.121948 -0.277825 -0.502937 -0.312483 -0.164066 -0.113785 -0.107651 -0.110125 
-0.0990557 
Abscissas 1 64 double
0 1.031987762 2.0309125193 3.0434363101 4.0577048015 5.0718675108 6.0857920238 7.0994651797 8.1129398905 
9.1263159912 10.139875956 11.153889011 12.168331865 13.182561498 14.195615195 15.207476713 16.219437064 17.231058782 
18.242303646 19.255130318 20.269078263 21.283181304 22.296574727 23.30730124 24.306239353 25.300922023 26.305679498 
27.314954575 28.327606953 29.341692833 30.355173991 31.361344959 32.368498014 33.380629766 34.393927017 35.407208462 
36.419963958 37.432429478 38.445765795 39.459794142 40.473538571 41.486173954 42.497672794 43.509344569 44.521952687 
45.535137249 46.54866859 47.562667668 48.577132161 49.59164514 50.605910648 51.619246502 52.629588185 53.636166727 
54.646454199 55.659535316 56.673565465 57.687995759 58.70250248 59.716891585 60.73103967 61.74334828 62.74214667 
63.774304626 
ParallelTransportNormals 3 64 double
0 -0.94234945716 0.33463039401 -0.039144228881 -0.91614184778 0.39893839635 -0.059504452707 -0.90146876024 0.42873452674 
-0.059500910093 -0.90147107093 0.42873015986 -0.032709532046 -0.91523137819 0.40159881835 0.024628355692 -0.93491127302 0.35402592514 
0.11652807722 -0.94951429538 0.2912796081 0.24591222301 -0.94457866148 0.21748179431 0.40598603003 -0.90350691861 0.13729745608 
0.56875727604 -0.82049422317 0.057483829831 0.6924576028 -0.72138337352 -0.01041617641 0.76130328442 -0.64610898009 -0.054410430744 
0.79298675876 -0.60463245194 -0.074776991736 0.81332686487 -0.57573996586 -0.083802760112 0.84328288863 -0.530709811 -0.08497685715 
0.8778143411 -0.47438380743 -0.066347462624 0.90806015727 -0.41816406905 -0.023781550319 0.93312293722 -0.35371870907 0.064534168398 
0.93328075898 -0.295394608 0.20427689661 0.90174944879 -0.25710951371 0.3474804017 0.85329640358 -0.22611562663 0.46984781688 
0.79486678581 -0.18633994218 0.57746360817 0.7171579748 -0.11050413742 0.68809394329 0.6013775662 0.085552069466 0.79437136548 
0.53145473953 0.42642847651 0.73192527915 0.59173867067 0.60604416457 0.53155979554 0.68236944442 0.62938588875 0.3718135882 
0.76685452987 0.58712849325 0.25925713576 0.83664779629 0.51881358065 0.1756500313 0.89484075693 0.43677957229 0.092106595646 
0.93784017431 0.34513341832 -0.036588673173 0.93323210035 0.30739110638 -0.18597998437 0.91761255882 0.31707412382 -0.23968978262 
0.92204156108 0.31151001842 -0.22978439472 0.93923616232 0.28066802304 -0.19763828635 0.96010085318 0.22703151772 -0.16328821662 
0.97289210423 0.17820228621 -0.14739368617 0.97029674147 0.19128350392 -0.14810420187 0.95108333143 0.27810980942 -0.13451925727 
0.90526940148 0.41349244203 -0.097525950993 0.81321652252 0.5795811394 -0.05257937188 0.66250369697 0.74838931162 -0.03165896027 
0.48174368351 0.87426110133 -0.059921199071 0.31543613316 0.94052043399 -0.12617986819 0.17063998969 0.96216447902 -0.21241824129 
0.035201463336 0.94900476264 -0.3132903086 -0.08579739292 0.90675558259 -0.41283546458 -0.16560749633 0.86291203598 -0.47744840069 
-0.18631659259 0.84999628294 -0.49273973486 -0.14158647878 0.87529065771 -0.46240624299 -0.018533997432 0.9257419744 -0.37770132086 
0.20857084934 0.95959697445 -0.18886992198 0.48555144662 0.8595772763 0.15926926495 0.61241321338 0.60545347611 0.50830713584 
0.60247373654 0.37348431876 0.70536151045 0.56279992261 0.21864800019 0.79715073802 0.53266635822 0.12822807242 0.83655490691 
0.52202733489 0.095962369244 0.84751323607 0.52895828751 0.12173524593 0.83987121631 0.54167183005 0.19610687243 0.81739447216 
0.54746436462 0.29229734332 0.78412054721 0.54399536196 0.38062290196 0.74779358961 0.53591179384 0.45183908806 0.71319000815 
0.53591179384 0.45183908806 0.71319000815 
