# vtk DataFile Version 4.2
vtk output
ASCII
DATASET POLYDATA
POINTS 64 float
0 0 0 -0.933763 0.141362 0.449345 -1.83758 0.278131 0.806755 
-2.78773 0.38391 1.14991 -3.74462 0.417134 1.48708 -4.69423 0.341436 1.83506 
-5.61555 0.127334 2.20072 -6.48751 -0.231546 2.574 -7.30611 -0.713828 2.92908 
-8.08845 -1.2862 3.22781 -8.8575 -1.91972 3.41669 -9.61526 -2.59265 3.42006 
-10.3067 -3.27663 3.14034 -10.7841 -3.92245 2.5274 -10.9008 -4.48892 1.69831 
-10.6853 -4.98188 0.839946 -10.275 -5.44536 0.0365526 -9.77762 -5.92912 -0.703482 
-9.26571 -6.48406 -1.38082 -8.82119 -7.18066 -1.9667 -8.73738 -8.14726 -2.20695 
-9.3253 -8.66482 -1.60322 -9.91261 -8.61554 -0.783379 -10.3743 -8.35519 0.0808876 
-10.686 -7.99541 0.976187 -10.8251 -7.61596 1.90599 -10.7611 -7.30645 2.86873 
-10.4707 -7.19681 3.83169 -9.9946 -7.44576 4.68634 -9.49409 -8.0761 5.29789 
-9.10037 -8.92793 5.67974 -8.82628 -9.87353 5.9229 -8.64032 -10.856 6.09374 
-8.49977 -11.8513 6.23213 -8.35476 -12.8468 6.36356 -8.14786 -13.8296 6.50633 
-7.81708 -14.7729 6.6765 -7.31192 -15.6251 6.89012 -6.62061 -16.3142 7.16111 
-5.78419 -16.7775 7.49538 -4.87529 -16.9939 7.88757 -3.96188 -16.983 8.32687 
-3.0887 -16.7862 8.80323 -2.27524 -16.4524 9.30875 -1.51775 -16.031 9.83582 
-0.793548 -15.568 10.3749 -0.0701251 -15.1062 10.9159 0.682315 -14.6888 11.4533 
1.47875 -14.3648 11.9913 2.30897 -14.1956 12.548 3.11758 -14.2659 13.1536 
3.75985 -14.6614 13.8258 4.07153 -15.3452 14.5016 4.07173 -16.1627 15.0998 
3.88583 -17.0222 15.6049 3.6164 -17.9042 16.0274 3.33681 -18.8149 16.3763 
3.10409 -19.7615 16.6567 2.9571 -20.7407 16.8767 2.90325 -21.7375 17.0572 
2.91312 -22.7369 17.235 2.93395 -23.7279 17.4564 2.91233 -24.6648 17.7499 
2.77853 -25.6022 18.1924 
LINES 1 65
64 0 1 2 3 4 5 6 7 8 9 10 11 12 13 14 15 16 17 18 19 20 21 22 23 24 25 26 27 28 29 30 31 32 33 34 35 36 37 38 39 40 41 42 43 44 45 46 47 48 49 50 51 52 53 54 55 56 57 58 59 60 61 62 63 

POINT_DATA 64
SCALARS MaximumInscribedSphereRadius float
LOOKUP_TABLE default
0.62 1.01351 1.27195 1.33664 1.15405 0.93 0.93 1.06286 1.21444 
1.24 1.24 1.22518 1.02219 0.93 0.93 0.93 0.93 0.93 
0.93 1.07432 1.2339 1.24 1.37179 1.58077 1.70007 1.68591 1.52972 
1.32345 1.7746 1.94693 1.64357 1.74648 1.86 1.86 1.74043 1.58337 
1.54956 1.46928 1.26373 1.24 1.17036 1.07348 1.45865 1.82919 1.6166 
1.55 1.59258 1.76346 1.86 1.84268 1.66214 1.73537 1.85874 1.38271 
1.5281 1.77663 1.65927 1.62851 1.8213 1.54531 1.27116 1.24573 1.36386 
1.55 
TEXTURE_COORDINATES TCoords 2 float
0 0 0.015873 0 0.031746 0 0.047619 0 0.0634921 
0 0.0793651 0 0.0952381 0 0.111111 0 0.126984 0 
0.142857 0 0.15873 0 0.174603 0 0.190476 0 0.206349 
0 0.222222 0 0.238095 0 0.253968 0 0.269841 0 
0.285714 0 0.301587 0 0.31746 0 0.333333 0 0.349206 
0 0.365079 0 0.380952 0 0.396825 0 0.412698 0 
0.428571 0 0.444444 0 0.460317 0 0.47619 0 0.492063 
0 0.507937 0 0.52381 0 0.539683 0 0.555556 0 
0.571429 0 0.587302 0 0.603175 0 0.619048 0 0.634921 
0 0.650794 0 0.666667 0 0.68254 0 0.698413 0 
0.714286 0 0.730159 0 0.746032 0 0.761905 0 0.777778 
0 0.793651 0 0.809524 0 0.825397 0 0.84127 0 
0.857143 0 0.873016 0 0.888889 0 0.904762 0 0.920635 
0 0.936508 0 0.952381 0 0.968254 0 0.984127 0 
1 0 
FIELD FieldData 4
Curvature 1 64 float
0.0816711 0.0480826 0.0343353 0.0505096 0.0756584 0.097879 0.105328 0.0944546 0.0778399 
0.0865959 0.136676 0.207902 0.27892 0.301043 0.251221 0.158615 0.0818011 0.0752233 
0.161019 0.451742 1.06406 0.459467 0.195449 0.128124 0.12273 0.154465 0.215859 
0.29521 0.319208 0.243328 0.153042 0.0882951 0.0406242 0.0156984 0.0478958 0.0946416 
0.140787 0.174885 0.190102 0.180988 0.159065 0.132592 0.103962 0.0725527 0.037433 
0.00644938 0.0366888 0.0706118 0.11156 0.173288 0.260779 0.307383 0.249126 0.156422 
0.0854941 0.0567699 0.065164 0.0782872 0.0722749 0.0455821 0.0352822 0.0720703 0.116462 
0.146056 
Torsion 1 64 float
0.140798 0.389108 0.62481 0.265276 0.0905974 0.0159008 -0.0501088 -0.156935 -0.3431 
-0.290851 -0.0746565 0.0303245 0.133336 0.17188 0.139509 0.162062 0.389214 0.460939 
0.111551 0.0230195 -0.0653252 -0.11884 -0.175263 -0.261562 -0.27764 -0.22542 -0.188209 
-0.171991 -0.154266 -0.128506 -0.102122 -0.0710956 0.0633305 0.572082 0.0526056 0.0201655 
0.0325255 0.0502317 0.0593111 0.0594484 0.0603793 0.0640648 0.0654821 0.0574575 0.0496257 
0.932582 -0.0486884 -0.128976 -0.15146 -0.155957 -0.125446 -0.0568321 0.00961976 0.0878156 
0.265078 0.49809 0.3064 0.15942 0.159113 0.516253 0.846967 0.21205 0.0713789 
0.0295286 
Abscissas 1 64 double
0 1.0458525362 2.0273476908 3.0430885896 4.0581876591 5.0723767065 6.086466163 7.1005900192 8.1148795842 
9.1292296121 10.14336012 11.156793035 12.16880122 13.179093149 14.18998265 15.203016988 16.217216631 17.231643051 
18.245939493 19.258907812 20.258437499 21.247380559 22.257083779 23.270935909 24.284917999 25.298754603 26.312046777 
27.32380012 28.33329184 29.344149657 30.357282408 31.371389394 32.385792528 33.40044946 34.41500417 35.429443851 
36.443439137 37.456881671 38.469898355 39.482806294 40.496088923 41.509706749 42.523655785 43.537899199 44.552380264 
45.566995832 46.58153068 47.596019803 48.610281806 49.624091375 50.636782252 51.647120994 52.657780427 53.670771587 
54.684883832 55.699290842 56.713823811 57.728138322 58.742455396 59.756895763 60.772037725 61.787680869 62.76971644 
63.814907653 
ParallelTransportNormals 3 64 double
0.43362397866 0 0.90109391582 0.36899840217 0.0097814805581 0.9293785568 0.3409782577 0.013456863852 0.93997486168 
0.33273414025 0.014057672693 0.94291588901 0.34303194035 0.014287356671 0.93921507619 0.36527435665 0.017732706349 0.93073100061 
0.38505134031 0.024051742405 0.92258169233 0.38570157623 0.024375271794 0.92230154517 0.35434319403 0.0037173249212 0.93510805918 
0.27996758523 -0.054095036278 0.9584841565 0.15064507725 -0.16475424975 0.9747625854 -0.040028600648 -0.3432919702 0.93837536963 
-0.23897923576 -0.56966973088 0.7863620811 -0.33073922646 -0.75688052671 0.56368735338 -0.32174364741 -0.85369225661 0.40950037405 
-0.30165729028 -0.88439722526 0.35615225281 -0.30795330144 -0.87782675392 0.36685822089 -0.34777656891 -0.83684292657 0.42278289272 
-0.43259028586 -0.72584634778 0.5348015744 -0.58509546294 -0.24303339749 0.77369119612 -0.21567898379 0.83517105706 0.50593663773 
0.15804648223 0.98595649783 0.053954553405 0.27767923358 0.95070294432 -0.13805127632 0.32769462506 0.91059985644 -0.25184148618 
0.34222929808 0.88676492821 -0.31068805839 0.34212779558 0.8876967543 -0.3081282913 0.35983343269 0.90861955897 -0.21196791686 
0.45249281214 0.89173495975 0.0076822215208 0.61910909457 0.74176351993 0.25785811897 0.74902429769 0.52649644877 0.40219906875 
0.81295207141 0.35445222457 0.46203089733 0.83945560714 0.24337943375 0.48588140001 0.84850419368 0.18857031742 0.49445107816 
0.84846179206 0.18886592319 0.4944110137 0.83810465558 0.2470889857 0.4863410526 0.80478418858 0.36644436184 0.46694854052 
0.7250604108 0.5376695791 0.43034732995 0.5785866488 0.72634762589 0.37102104548 0.37268488869 0.88166138443 0.28944632826 
0.14659144283 0.96971823513 0.19533943111 -0.06037974126 0.99306239621 0.10090274564 -0.22770054018 0.97361336437 0.015148620756 
-0.34926220673 0.93537294476 -0.05561802915 -0.4260233681 0.89847237205 -0.10607302436 -0.4622393609 0.87685567254 -0.13213214129 
-0.46157382176 0.87728084519 -0.13163557924 -0.42435790859 0.89945104588 -0.10444223997 -0.34682038289 0.93656527802 -0.050607331706 
-0.22132505861 0.97461250498 0.033847947615 -0.037368469215 0.98569923424 0.16431864509 0.1854681529 0.91409064984 0.36061038274 
0.34405764119 0.7346798113 0.58469642928 0.38341567531 0.54545878733 0.74529667331 0.36847703583 0.41047950543 0.83410505914 
0.34429364989 0.31798313482 0.88337342535 0.32355433259 0.25026358242 0.91251341534 0.30950350153 0.19932388625 0.92977285985 
0.302818081 0.16541702477 0.93858319702 0.30166551262 0.15407760253 0.94088150736 0.30201358828 0.16986847438 0.93804717041 
0.30133406074 0.21392885916 0.92921053968 0.3013846248 0.27870218995 0.91186204946 0.30875472635 0.36962629784 0.87638286092 
0.30875472635 0.36962629784 0.87638286092 
