# vtk DataFile Version 4.2
vtk output
ASCII
DATASET POLYDATA
POINTS 64 float
0 0 0 -0.244546 0.933922 -0.323469 -0.779351 1.78183 -0.308354 
-1.51851 2.41237 -0.031874 -2.36756 2.75443 0.39812 -3.24524 2.75644 0.899361 
-4.04166 2.4005 1.41015 -4.67378 1.77581 1.89531 -5.15408 0.999018 2.33521 
-5.54849 0.109225 2.61236 -5.86084 -0.809903 2.36933 -5.991 -1.58404 1.72964 
-5.9428 -2.32559 1.04014 -5.72412 -3.08409 0.404216 -5.35546 -3.8336 -0.170728 
-4.87345 -4.52774 -0.73147 -4.31762 -5.14389 -1.31482 -3.71485 -5.71271 -1.89998 
-3.07681 -6.30854 -2.41596 -2.43789 -7.03536 -2.70678 -2.05437 -7.88669 -2.39043 
-2.25959 -8.38694 -1.54894 -2.80778 -8.45311 -0.704608 -3.48636 -8.16291 -0.0148907 
-4.1108 -7.54182 0.479924 -4.51166 -6.67968 0.824536 -4.64475 -5.72167 1.1253 
-4.56837 -4.78915 1.51288 -4.32625 -4.09162 2.19279 -4.02239 -4.2708 3.10795 
-3.78163 -5.04935 3.70431 -3.55176 -5.99295 3.98806 -3.33363 -6.97972 3.95028 
-3.20047 -7.92275 3.60756 -3.23735 -8.80719 3.1142 -3.46581 -9.70781 2.71269 
-3.77259 -10.6675 2.6691 -3.91313 -11.585 3.06186 -3.73928 -12.3316 3.71908 
-3.28868 -12.8651 4.45132 -2.66224 -13.2099 5.16935 -1.94863 -13.4092 5.86175 
-1.20376 -13.5007 6.54417 -0.448188 -13.5045 7.22099 0.330419 -13.4228 7.86586 
1.15313 -13.2699 8.43897 2.02001 -13.106 8.93982 2.90476 -13.0193 9.42793 
3.75701 -13.0805 9.97288 4.50504 -13.3269 10.6095 5.0756 -13.7611 11.3242 
5.43334 -14.3562 12.0615 5.58757 -15.0765 12.757 5.56175 -15.8863 13.3656 
5.38482 -16.7464 13.8722 5.10446 -17.6285 14.287 4.77643 -18.5276 14.6234 
4.43647 -19.4515 14.8669 4.0967 -20.4019 14.9597 3.76355 -21.3503 14.8345 
3.44086 -22.2506 14.499 3.13261 -23.0982 14.0374 2.85648 -23.9268 13.5373 
2.64233 -24.8121 13.0702 
LINES 1 65
64 0 1 2 3 4 5 6 7 8 9 10 11 12 13 14 15 16 17 18 19 20 21 22 23 24 25 26 27 28 29 30 31 32 33 34 35 36 37 38 39 40 41 42 43 44 45 46 47 48 49 50 51 52 53 54 55 56 57 58 59 60 61 62 63 

POINT_DATA 64
SCALARS MaximumInscribedSphereRadius float
LOOKUP_TABLE default
0.93 0.695165 0.977401 1.36422 1.40889 0.906865 0.646731 0.859151 1.12737 
1.15872 0.993839 1.42778 1.25688 1.17895 1.13819 0.956 1.10272 1.25398 
1.42813 1.55 1.85069 2.00805 1.86025 1.86625 1.87945 1.85332 1.67787 
1.55092 1.55 1.60509 1.4084 1.01439 1.50493 1.31971 1.59572 1.86 
1.53797 1.08729 1.57391 1.77555 1.42812 1.77865 2.05541 1.86898 1.86 
1.88222 2.0836 2.17 2.08655 1.91175 1.77931 1.80569 1.84082 1.67138 
1.82541 2.17 2.12655 1.91062 2.11263 2.17 2.50278 2.35315 1.49967 
1.24 
TEXTURE_COORDINATES TCoords 2 float
0 0 0.015873 0 0.031746 0 0.047619 0 0.0634921 
0 0.0793651 0 0.0952381 0 0.111111 0 0.126984 0 
0.142857 0 0.15873 0 0.174603 0 0.190476 0 0.206349 
0 0.222222 0 0.238095 0 0.253968 0 0.269841 0 
0.285714 0 0.301587 0 0.31746 0 0.333333 0 0.349206 
0 0.365079 0 0.380952 0 0.396825 0 0.412698 0 
0.428571 0 0.444444 0 0.460317 0 0.47619 0 0.492063 
0 0.507937 0 0.52381 0 0.539683 0 0.555556 0 
0.571429 0 0.587302 0 0.603175 0 0.619048 0 0.634921 
0 0.650794 0 0.666667 0 0.68254 0 0.698413 0 
0.714286 0 0.730159 0 0.746032 0 0.761905 0 0.777778 
0 0.793651 0 0.809524 0 0.825397 0 0.84127 0 
0.857143 0 0.873016 0 0.888889 0 0.904762 0 0.920635 
0 0.936508 0 0.952381 0 0.968254 0 0.984127 0 
1 0 
FIELD FieldData 4
Curvature 1 64 float
0.235627 0.254093 0.219996 0.187283 0.189977 0.204531 0.174551 0.118996 0.1406 
0.325365 0.281776 0.123823 0.102178 0.0893777 0.0702752 0.0634284 0.0412876 0.0464157 
0.152152 0.396924 0.530126 0.303321 0.223151 0.214843 0.202624 0.162828 0.123948 
0.236847 0.587217 0.402256 0.195848 0.176356 0.18175 0.133063 0.127571 0.212609 
0.265965 0.249291 0.197353 0.141316 0.0927522 0.0608703 0.0491825 0.0534102 0.062255 
0.0511786 0.0473486 0.089431 0.127119 0.148347 0.146314 0.131899 0.119259 0.103751 
0.0763037 0.0500312 0.0525227 0.0842152 0.122016 0.121749 0.0778626 0.0318168 0.0501525 
0.122248 
Torsion 1 64 float
0.0271511 0.0529171 0.0771707 0.0784866 0.0372594 -0.0311042 -0.0513207 0.0836395 0.290179 
0.0642069 -0.205906 -0.351372 -0.0873564 0.148775 0.331201 0.131886 -0.356896 -0.551407 
-0.0918914 -0.0377677 -0.0374628 -0.00968505 0.0870344 0.190669 0.219335 0.260348 0.416112 
0.192649 0.00134686 -0.0859358 -0.0854871 0.0275703 0.165343 0.437884 0.630247 0.319013 
0.242257 0.146092 0.0696083 -0.00761271 -0.0954787 -0.142356 0.0338272 0.23458 0.233313 
0.496325 0.693103 0.179766 0.0687937 0.012407 -0.0437835 -0.0711086 -0.0342139 -0.00503156 
-0.07081 -0.238058 -0.133541 0.0102878 0.0261082 0.0346992 -0.0602469 -0.732002 -0.328246 
-0.0658268 
Abscissas 1 64 double
0 1.0181577654 2.0207507841 3.0308883501 4.0422170356 5.0529439529 6.0638263493 7.076344866 8.0900538395 
9.1020336023 10.102744516 11.115381191 12.129101885 13.142779688 14.156799452 15.170996599 16.18533628 17.19988041 
18.213953366 19.224429518 20.210293731 21.210529022 22.219383437 23.229530202 24.239738022 25.251040216 26.263934374 
27.276675962 28.280393135 29.261185802 30.271012573 31.282810796 32.29410863 33.306281536 34.319690658 35.331877152 
36.34034987 37.348228402 38.357967778 39.36981655 40.383168028 41.397257498 42.411604722 43.425995777 44.440274281 
45.454516091 46.469008853 47.483183462 48.49661654 49.509309254 50.521665073 51.534450102 52.547534199 53.560863619 
54.574629591 55.588907438 56.603376788 57.617505868 58.631070987 59.644050451 60.657574712 61.670746024 62.677188211 
63.700808392 
ParallelTransportNormals 3 64 double
-0.96738558117 -0.25330838387 0 -0.84444536693 -0.53347833161 0.048092535475 -0.64827323104 -0.76140057031 0.0033150331851 
-0.41512271372 -0.90420992852 -0.10038693994 -0.14325964592 -0.95836543689 -0.24700680806 0.13548818626 -0.89943874086 -0.41551522574 
0.33179198033 -0.7647272036 -0.55236435969 0.43685069859 -0.63238806576 -0.6397240041 0.52881594838 -0.45714185631 -0.71510489856 
0.69026806435 -0.04360589786 -0.72223855132 0.78344916116 0.31226454566 -0.53730649112 0.79056794462 0.44376036661 -0.4219941492 
0.77687110604 0.52074502842 -0.353971609 0.74823480702 0.59427269841 -0.29493157424 0.7011011538 0.67426316831 -0.23200506893 
0.64566536993 0.74425236379 -0.17089367766 0.6085651259 0.78219732713 -0.13347594904 0.61394018727 0.77715218901 -0.13824587365 
0.69796687209 0.69010379413 -0.19130864799 0.91998057065 0.34602963977 -0.18411745712 0.9785468727 -0.088379640765 0.18610496241 
0.82863721008 -0.20167469213 0.52219507143 0.66512617231 -0.17184311062 0.72668914967 0.55742232633 -0.096519460701 0.8245995051 
0.54576655164 -0.079661331718 0.83414204027 0.57286937444 -0.1720102002 0.80139451636 0.57829849235 -0.35305051887 0.73547684183 
0.51350228551 -0.68368682139 0.51854385835 0.24568791456 -0.93265520474 -0.26418122134 0.052689847624 -0.59692790839 -0.8005628346 
-0.029959582846 -0.29452854773 -0.95517294663 -0.1019221923 0.015552187125 -0.9946707979 -0.15692627434 0.31768666665 -0.93511995287 
-0.1657861762 0.48567659565 -0.85827337616 -0.17297762071 0.43731737086 -0.88251473635 -0.26220289494 0.12726634528 -0.95658398442 
-0.36821200784 -0.31764935869 -0.87379562954 -0.36137809069 -0.66208944648 -0.65653898622 -0.26992477753 -0.84968475007 -0.45296406035 
-0.16251273762 -0.93730121619 -0.30831159603 -0.068874560614 -0.97532567503 -0.20975252687 0.0059262491332 -0.99024063198 -0.13924212846 
0.068749207665 -0.99423091645 -0.082331228757 0.1291189564 -0.99116537994 -0.030323006083 0.1780639691 -0.98399468671 0.0069050293247 
0.18090829919 -0.98346137235 0.0087130011551 0.11350531775 -0.99310401168 -0.02934220207 -0.0068913057862 -0.99486777597 -0.1009485921 
-0.14574367554 -0.96817165702 -0.20347585503 -0.2713372718 -0.90334115633 -0.3321909695 -0.36143916173 -0.80344417412 -0.47311646709 
-0.41052022984 -0.67734978926 -0.61046736512 -0.42239161856 -0.53591829415 -0.73101087719 -0.40593755815 -0.40037770288 -0.82153051917 
-0.37774688675 -0.29297011967 -0.87833695046 -0.35053833838 -0.21331044091 -0.91193285341 -0.31988482594 -0.12965449636 -0.93854323806 
-0.27171499492 0.003170426241 -0.96237254217 -0.20273298727 0.19781966199 -0.95904468989 -0.13520275028 0.38817639019 -0.91161357296 
-0.094006011931 0.5023040295 -0.85956589722 -0.082609923826 0.53499659847 -0.84080570889 -0.097566878815 0.48278123123 -0.87028902494 
-0.097566878815 0.48278123123 -0.87028902494 
