# vtk DataFile Version 4.2
vtk output
ASCII
DATASET POLYDATA
POINTS 64 float
0 0 0 -0.675289 0.635518 0.437055 -1.42838 1.22607 0.741935 
-2.27896 1.71814 0.985449 -3.21663 2.02813 1.21038 -4.19326 2.06719 1.47184 
-5.10181 1.794 1.82217 -5.85995 1.28281 2.258 -6.48954 0.640295 2.72626 
-7.07465 -0.0842738 3.12684 -7.68187 -0.883084 3.22258 -8.17906 -1.62381 2.7601 
-8.43524 -2.23827 1.997 -8.49566 -2.83252 1.17789 -8.39617 -3.47375 0.399091 
-8.14784 -4.17586 -0.288469 -7.74729 -4.8933 -0.882264 -7.20326 -5.53248 -1.45066 
-6.56938 -6.03261 -2.06393 -5.90011 -6.43001 -2.71448 -5.1964 -6.79831 -3.34503 
-4.39088 -7.23853 -3.76909 -4.07448 -7.55371 -3.00147 -4.38585 -7.50786 -2.04508 
-4.88967 -7.30834 -1.18917 -5.51525 -6.93951 -0.483594 -6.15811 -6.36523 0.0477719 
-6.64922 -5.61923 0.524678 -6.81678 -4.89039 1.19843 -6.58899 -4.5568 2.11436 
-6.11856 -4.84572 2.94893 -5.65114 -5.64072 3.34151 -5.35128 -6.60375 3.27779 
-5.2057 -7.57147 3.01236 -5.16165 -8.55217 2.75783 -5.17015 -9.56245 2.68901 
-5.16834 -10.5543 2.89258 -5.08308 -11.4679 3.32155 -4.82092 -12.2498 3.90782 
-4.2818 -12.7848 4.57219 -3.50546 -13.0021 5.18281 -2.62805 -13.0107 5.69062 
-1.72037 -12.9328 6.13702 -0.81018 -12.8236 6.5718 0.0857297 -12.6876 7.02799 
0.959823 -12.5101 7.51144 1.82 -12.309 8.01052 2.68111 -12.1537 8.52365 
3.53392 -12.1485 9.07091 4.30054 -12.4046 9.67847 4.83689 -12.9583 10.3311 
5.07206 -13.7158 10.9592 5.06277 -14.5668 11.5088 4.89677 -15.4588 11.9615 
4.6459 -16.3763 12.3134 4.36504 -17.3167 12.5697 4.09274 -18.276 12.7567 
3.84863 -19.2475 12.9176 3.63627 -20.2263 13.0795 3.44053 -21.2099 13.233 
3.22487 -22.1957 13.3359 2.93492 -23.1655 13.3195 2.52229 -24.0559 13.1111 
1.96843 -24.7988 12.6763 
LINES 1 65
64 0 1 2 3 4 5 6 7 8 9 10 11 12 13 14 15 16 17 18 19 20 21 22 23 24 25 26 27 28 29 30 31 32 33 34 35 36 37 38 39 40 41 42 43 44 45 46 47 48 49 50 51 52 53 54 55 56 57 58 59 60 61 62 63 

POINT_DATA 64
SCALARS MaximumInscribedSphereRadius float
LOOKUP_TABLE default
1.3144 1.25618 1.2595 1.19975 1.02177 1.64138 1.33029 0.9796 1.0135 
1.32681 1.07115 0.903652 1.23822 1.46236 1.25384 1.24 1.43753 1.4532 
1.2975 1.5862 1.37831 1.44936 1.37894 1.25845 1.39064 1.62094 1.77887 
1.36675 1.45597 1.55 1.37459 1.38276 1.46745 1.25864 1.15244 1.37145 
1.64115 1.57187 1.79225 1.66687 1.55 1.48963 1.31751 1.46828 1.60482 
1.71261 1.83703 1.71805 1.60787 1.77231 2.12864 1.63056 1.55 1.45093 
1.35775 1.55814 1.55964 1.83172 2.17 2.16698 1.72167 1.39415 1.41361 
1.86 
TEXTURE_COORDINATES TCoords 2 float
0 0 0.015873 0 0.031746 0 0.047619 0 0.0634921 
0 0.0793651 0 0.0952381 0 0.111111 0 0.126984 0 
0.142857 0 0.15873 0 0.174603 0 0.190476 0 0.206349 
0 0.222222 0 0.238095 0 0.253968 0 0.269841 0 
0.285714 0 0.301587 0 0.31746 0 0.333333 0 0.349206 
0 0.365079 0 0.380952 0 0.396825 0 0.412698 0 
0.428571 0 0.444444 0 0.460317 0 0.47619 0 0.492063 
0 0.507937 0 0.52381 0 0.539683 0 0.555556 0 
0.571429 0 0.587302 0 0.603175 0 0.619048 0 0.634921 
0 0.650794 0 0.666667 0 0.68254 0 0.698413 0 
0.714286 0 0.730159 0 0.746032 0 0.761905 0 0.777778 
0 0.793651 0 0.809524 0 0.825397 0 0.84127 0 
0.857143 0 0.873016 0 0.888889 0 0.904762 0 0.920635 
0 0.936508 0 0.952381 0 0.968254 0 0.984127 0 
1 0 
FIELD FieldData 4
Curvature 1 64 float
0.149556 0.090867 0.0857616 0.113804 0.155643 0.189343 0.167097 0.104445 0.0737914 
0.193212 0.350718 0.245545 0.123829 0.0949748 0.105556 0.10435 0.096177 0.107823 
0.0796499 0.0354412 0.183761 0.971566 0.410569 0.15216 0.143211 0.156675 0.143348 
0.220947 0.35576 0.381952 0.387239 0.302153 0.145627 0.0634676 0.114294 0.156504 
0.139767 0.150021 0.217917 0.2304 0.145993 0.0606917 0.0202454 0.0249011 0.03159 
0.0224678 0.0270215 0.0858733 0.159471 0.216355 0.20721 0.153616 0.104766 0.0743 
0.0587956 0.0417333 0.0233985 0.0201184 0.0126501 0.0299428 0.0796781 0.13757 0.175688 
0.170954 
Torsion 1 64 float
0.171158 0.28492 0.266832 0.180226 0.14491 0.116192 0.0467325 -0.118012 -0.609108 
-0.0680062 0.0734498 0.190487 0.310976 0.238043 0.0280521 -0.230985 -0.44322 -0.212575 
0.0188523 0.601662 0.0577538 0.00799666 -0.00510767 -0.0495119 -0.130966 -0.264849 -0.607407 
-0.416037 -0.151899 -0.0525599 -0.0185356 -0.0513622 -0.18926 -0.872054 -0.277598 -0.142121 
-0.207613 -0.20136 -0.0944463 -0.0612019 -0.0550647 -0.0158878 0.498453 0.0706024 -0.124406 
0.153113 0.275806 -0.0636585 -0.0857935 -0.0632095 -0.00622646 0.0455685 0.114568 0.183259 
0.223509 0.252053 0.508231 0.156163 -0.740948 -0.305158 -0.0598334 -0.0240813 -0.0119566 
-0.00592477 
Abscissas 1 64 double
0 1.0251416549 2.0295567291 3.0419391723 4.0548126953 5.0665901456 6.0779390177 7.0908750218 8.1050133452 
9.1188268548 10.126785281 11.131653827 12.144328823 13.158096474 14.171803596 15.185393641 16.199175032 17.21287791 
18.226798208 19.241226236 20.255349282 21.266528444 22.154609266 23.161453604 24.174481066 25.187014493 26.199642702 
27.212137016 28.218728114 29.219776855 30.220419863 31.222729849 32.233375034 33.247341419 34.261490579 35.274148145 
36.286674833 37.299566424 38.311399983 39.32049001 40.331815734 41.34561713 42.360124179 43.374719871 44.389243949 
45.403772964 46.418379744 47.432742057 48.446056419 49.457204947 50.467245386 51.478986962 52.492074715 53.506056058 
54.520243769 55.534601982 56.549181032 57.563721131 58.578293748 59.592860869 60.607207464 61.619558091 62.622805862 
63.646383338 
ParallelTransportNormals 3 64 double
0.54334179805 0 0.83951157854 0.43524021098 0.092704194948 0.89552883314 0.3511243937 0.14952397995 0.92431284724 
0.28509871814 0.17913957913 0.94160911853 0.26105943073 0.18352096779 0.94771727219 0.30337423587 0.1887777821 0.93398448702 
0.37027152459 0.22025136251 0.90243467098 0.40291201834 0.24738408021 0.88117139214 0.36615404559 0.20601418111 0.90746315191 
0.18625111905 -0.023858700313 0.98221244294 -0.12802606655 -0.46199945237 0.87759092537 -0.2638405737 -0.70609292423 0.65713083479 
-0.27984026484 -0.76715648788 0.57720044117 -0.2801190636 -0.75834134887 0.58860148555 -0.29004959604 -0.71998882429 0.63046595842 
-0.29832332185 -0.70188806051 0.64680472026 -0.26070558408 -0.75591479891 0.60052095319 -0.17097999833 -0.8427018982 0.51050891367 
-0.10003923427 -0.89156328639 0.44170924597 -0.086312167942 -0.89921868986 0.42890087137 -0.19430546168 -0.84136301544 0.50433487269 
-0.9072567808 -0.35266684039 0.22915329671 -0.92063525265 -0.26464623533 -0.28704198594 -0.85364661499 -0.28478553021 -0.43610166073 
-0.78576354534 -0.31894804487 -0.52995074817 -0.76034020966 -0.33785060866 -0.5547429421 -0.84061346621 -0.24438689221 -0.4833674041 
-0.96235898385 0.028598547615 -0.27027265729 -0.94699310587 0.29454904003 0.12823774969 -0.78050600848 0.3051695663 0.5456023337 
-0.5735058357 0.06602274927 0.81653662073 -0.45736207035 -0.1997461538 0.86655721718 -0.43457759085 -0.29844844236 0.84974751825 
-0.43987053384 -0.24406691942 0.86425994487 -0.4432032942 -0.057210712196 0.89459363647 -0.44241231072 0.17953113433 0.87865802172 
-0.44996344817 0.34481087677 0.82379509259 -0.46644025115 0.42519723253 0.77565508156 -0.48126074514 0.44953701204 0.75253210562 
-0.47335864659 0.44501485553 0.76019298211 -0.44625480097 0.4413080374 0.77852672962 -0.42611764644 0.44208945513 0.78929124223 
-0.42929424125 0.44176251324 0.78775144324 -0.4598666428 0.43761191821 0.77266970944 -0.50224972626 0.43010511255 0.75016985052 
-0.52657133286 0.42479559528 0.73639074793 -0.5185374312 0.42645902627 0.74111512692 -0.48966414805 0.42916155693 0.75897916978 
-0.47016690836 0.42613728808 0.77288426688 -0.48093642029 0.43283256369 0.76246713467 -0.49572907191 0.45796116547 0.73791886965 
-0.49802325278 0.47428576556 0.72596546217 -0.49903335771 0.46423791516 0.73174371608 -0.50783600762 0.4260276727 0.74873427293 
-0.52496223332 0.36618730932 0.76832383022 -0.5423596617 0.30644005713 0.78226625183 -0.55225827641 0.26943018672 0.78893483294 
-0.55640829215 0.25169897355 0.79186958468 -0.55979999845 0.23538951876 0.79449086602 -0.56571473189 0.20707542958 0.79817705341 
-0.57806951913 0.15929682304 0.80028754409 -0.60279488958 0.093896361627 0.79235206466 -0.64106451227 0.029069844118 0.76693626545 
-0.64106451227 0.029069844118 0.76693626545 
