# vtk DataFile Version 4.2
vtk output
ASCII
DATASET POLYDATA
POINTS 64 float
0 0 0 -1.02645 -0.184334 0.109739 -1.94924 -0.437179 0.287401 
-2.87812 -0.802177 0.50761 -3.74097 -1.2866 0.728942 -4.53842 -1.88084 0.927792 
-5.27932 -2.55223 1.09987 -5.98479 -3.26675 1.24526 -6.67624 -4.00235 1.34571 
-7.36189 -4.74982 1.35004 -8.01521 -5.50505 1.17584 -8.55053 -6.25432 0.753901 
-8.87261 -6.97878 0.122999 -8.95835 -7.6765 -0.60742 -8.83634 -8.35373 -1.35221 
-8.54154 -9.01421 -2.06281 -8.09754 -9.66106 -2.7063 -7.50665 -10.2993 -3.22879 
-6.72755 -10.9216 -3.36481 -6.24676 -11.1439 -2.57084 -6.24084 -11.0357 -1.55441 
-6.35216 -10.9005 -0.554031 -6.495 -10.8191 0.446564 -6.61927 -10.8692 1.45176 
-6.67095 -11.1533 2.42265 -6.60936 -11.7279 3.25368 -6.45815 -12.5096 3.8812 
-6.27223 -13.3885 4.35218 -6.08608 -14.3112 4.73053 -5.91485 -15.2559 5.05869 
-5.7585 -16.2113 5.3623 -5.60149 -17.1692 5.6574 -5.41061 -18.1201 5.9551 
-5.13564 -19.0465 6.26364 -4.72102 -19.9131 6.58835 -4.13244 -20.6643 6.9301 
-3.38385 -21.2476 7.28643 -2.52739 -21.6453 7.65568 -1.61664 -21.8748 8.03837 
-0.68763 -21.9674 8.43499 0.240034 -21.9527 8.84529 1.15677 -21.8557 9.26887 
2.05819 -21.697 9.70658 2.94234 -21.4976 10.1625 3.8086 -21.2803 10.6439 
4.65708 -21.0738 11.1604 5.48717 -20.9133 11.7211 6.29404 -20.8436 12.3318 
7.06118 -20.9199 12.9906 7.75279 -21.1968 13.6779 8.3205 -21.6972 14.3518 
8.73358 -22.3898 14.966 8.99686 -23.2146 15.4937 9.13774 -24.1188 15.931 
9.18871 -25.0677 16.2861 9.17802 -26.0414 16.5706 9.1283 -27.0293 16.796 
9.05818 -28.0259 16.9729 8.98366 -29.0283 17.1111 8.91738 -30.0346 17.2205 
8.86573 -31.0435 17.3109 8.82953 -32.0621 17.3934 8.80705 -33.0315 17.4723 
8.79371 -34.0758 17.5689 
LINES 1 65
64 0 1 2 3 4 5 6 7 8 9 10 11 12 13 14 15 16 17 18 19 20 21 22 23 24 25 26 27 28 29 30 31 32 33 34 35 36 37 38 39 40 41 42 43 44 45 46 47 48 49 50 51 52 53 54 55 56 57 58 59 60 61 62 63 

POINT_DATA 64
SCALARS MaximumInscribedSphereRadius float
LOOKUP_TABLE default
0.93 0.93 0.93 0.93 0.955286 1.0385 1.2182 1.12643 1.06771 
1.48001 1.6147 1.38972 0.80461 0.912063 1.21724 1.24 1.18106 1.03022 
1.33831 1.70918 1.48751 1.30287 1.45948 1.54924 1.55 1.55 1.63786 
1.78936 1.73752 1.58126 1.69872 1.83475 1.86 1.86 1.84375 1.71408 
1.56079 1.54447 1.45216 1.27146 1.31058 1.39755 1.48923 1.54982 1.55 
1.55 1.55 1.55 1.62521 1.86091 1.79712 1.5587 1.38068 1.33267 
1.4887 1.65464 1.83064 1.86 1.8147 1.65595 1.62907 1.7832 1.72615 
1.55 
TEXTURE_COORDINATES TCoords 2 float
0 0 0.015873 0 0.031746 0 0.047619 0 0.0634921 
0 0.0793651 0 0.0952381 0 0.111111 0 0.126984 0 
0.142857 0 0.15873 0 0.174603 0 0.190476 0 0.206349 
0 0.222222 0 0.238095 0 0.253968 0 0.269841 0 
0.285714 0 0.301587 0 0.31746 0 0.333333 0 0.349206 
0 0.365079 0 0.380952 0 0.396825 0 0.412698 0 
0.428571 0 0.444444 0 0.460317 0 0.47619 0 0.492063 
0 0.507937 0 0.52381 0 0.539683 0 0.555556 0 
0.571429 0 0.587302 0 0.603175 0 0.619048 0 0.634921 
0 0.650794 0 0.666667 0 0.68254 0 0.698413 0 
0.714286 0 0.730159 0 0.746032 0 0.761905 0 0.777778 
0 0.793651 0 0.809524 0 0.825397 0 0.84127 0 
0.857143 0 0.873016 0 0.888889 0 0.904762 0 0.920635 
0 0.936508 0 0.952381 0 0.968254 0 0.984127 0 
1 0 
FIELD FieldData 4
Curvature 1 64 float
0.0953133 0.0930898 0.0957899 0.102966 0.0988732 0.076337 0.0469331 0.0388151 0.0797128 
0.143604 0.213103 0.233277 0.20794 0.169237 0.136858 0.126608 0.166788 0.366594 
0.92312 0.541837 0.149142 0.064502 0.106101 0.195785 0.262022 0.23585 0.152301 
0.0849125 0.0450674 0.0242464 0.019071 0.0372726 0.0734427 0.119272 0.159079 0.175485 
0.164042 0.135504 0.105893 0.0814638 0.0630922 0.0488176 0.0362561 0.0270349 0.0314425 
0.0506274 0.0812533 0.121781 0.164545 0.194052 0.193374 0.166199 0.131368 0.0982366 
0.0729638 0.0544646 0.0412661 0.0322945 0.0257037 0.0190626 0.0144291 0.017156 0.0242545 
0.0317362 
Torsion 1 64 float
-0.145723 -0.213014 -0.242979 -0.179302 -0.0756037 -0.0559989 -0.260828 -0.515459 -0.0889669 
0.0810438 0.143065 0.187905 0.169263 0.12921 0.111838 0.12012 0.1157 0.0953082 
0.0845299 0.065636 0.171913 0.510481 0.223472 0.0439285 0.00157466 -0.036046 -0.0768783 
-0.135989 -0.199527 -0.0937429 0.226597 0.0850098 0.0148769 0.0166172 0.0349398 0.0547628 
0.0679913 0.0695593 0.0635536 0.0565211 0.0605031 0.109362 0.255663 0.550852 0.527291 
0.271944 0.130626 0.0693935 0.0379087 0.0211846 0.0176569 0.024539 0.0375152 0.0540284 
0.0758197 0.108082 0.156759 0.221531 0.242643 0.25697 0.3187 0.207706 0.0901862 
0.0408732 
Abscissas 1 64 double
0 1.0486283182 2.0217858785 3.0438101334 4.057794106 5.0719880926 6.0865359882 7.1011124722 8.1156569408 
9.1299776309 10.143656735 11.156576186 12.169796019 13.183539865 14.197561376 15.211510276 16.226217808 17.240859052 
18.247216652 19.201661407 20.223851236 21.239444235 22.253455846 23.267542676 24.280464896 25.292674504 26.306430448 
27.320755046 28.335237951 29.349864669 30.364464361 31.379013831 32.393543031 33.407949713 34.422021612 35.43569001 
36.449394333 37.463314672 38.477507644 39.491875197 40.506332134 41.52084387 42.535404606 43.549970738 44.564550188 
45.579111225 46.593602962 47.607926641 48.621998592 49.635595982 50.648925415 51.662615771 52.676558522 53.69078498 
54.705233618 55.719703518 56.73420968 57.748813381 58.763434895 59.777831921 60.792091306 61.8146664 62.787533969 
63.836377185 
ParallelTransportNormals 3 64 double
0.10630538375 0 0.99433352824 0.18436182364 0.017644073879 0.98270005833 0.21963768999 0.029363115518 0.97513952467 
0.23017710287 0.034363128492 0.97254186373 0.22159834994 0.028789770624 0.97471294257 0.20977238558 0.019060489183 0.97756444494 
0.19607431963 0.0059350244569 0.9805710768 0.16793429117 -0.023276689277 0.98552334807 0.10523801835 -0.09079763598 0.99029326404 
-0.0081489046437 -0.21805076555 0.97590340659 -0.15208706528 -0.40024434715 0.90370016441 -0.25080973471 -0.56992656092 0.78248207145 
-0.28155574577 -0.6771308233 0.67986778874 -0.28009243474 -0.73264655604 0.62030416082 -0.27203204971 -0.75851515587 0.59215987896 
-0.2679914405 -0.76566570998 0.58475345949 -0.28056539269 -0.75005189145 0.59892004521 -0.39825101297 -0.64183484195 0.65531989618 
-0.8423427263 -0.34600493558 0.41320614227 -0.94658706805 -0.32001009195 0.039578575627 -0.94137032712 -0.33201815843 -0.059881964681 
-0.93549551405 -0.33702332266 -0.10612927575 -0.93204446585 -0.33742778634 -0.13204394226 -0.93066759923 -0.33481089055 -0.14751097355 
-0.93072993194 -0.32943056706 -0.15879954429 -0.93254505951 -0.31785932307 -0.17124591301 -0.93673268811 -0.29723207538 -0.18489176398 
-0.9421570168 -0.27096696587 -0.19727407101 -0.94735477977 -0.24380744669 -0.20754963308 -0.95082418012 -0.22368347165 -0.21424071277 
-0.95109134684 -0.2220522173 -0.21475116474 -0.9452886132 -0.25389058777 -0.20486338668 -0.92534827465 -0.33424593209 -0.17891402259 
-0.87406432582 -0.46758386683 -0.13182140115 -0.77132122701 -0.63326354479 -0.063567661674 -0.61923845369 -0.78504343635 0.015828471901 
-0.45160855711 -0.88750083198 0.091607774734 -0.30220755153 -0.9405267573 0.15517736497 -0.18353037167 -0.96130518117 0.20544817191 
-0.092980964292 -0.9651045669 0.24480137915 -0.025518353841 -0.96101899631 0.27530220185 0.023118909357 -0.95417886186 0.29834244688 
0.052453131565 -0.94829583724 0.31302344011 0.060905178538 -0.94628375428 0.31754939082 0.044004293133 -0.95046084068 0.30771384843 
-0.0021294232828 -0.9605474214 0.27810810271 -0.082829138663 -0.97189557528 0.22035953471 -0.20277591389 -0.97139114104 0.12361706947 
-0.35619531301 -0.93423896292 -0.017957147581 -0.51393582308 -0.83687061335 -0.18846099402 -0.63593016925 -0.68848929922 -0.34867650436 
-0.7079685673 -0.52687874376 -0.47029703071 -0.74181088805 -0.38210823512 -0.55109881422 -0.75389381378 -0.26540465461 -0.60100290087 
-0.75576698973 -0.17599632096 -0.63074682104 -0.75373138061 -0.10989690088 -0.64792875924 -0.75094962539 -0.063831733214 -0.6572671983 
-0.74890368924 -0.035555838307 -0.66172429803 -0.74801262159 -0.022843444015 -0.66329125956 -0.74791397313 -0.021157705548 -0.66345839379 
-0.74817187525 -0.027105432578 -0.66295108463 -0.74844887424 -0.036538867275 -0.66218516581 -0.7487191593 -0.05156819514 -0.66087846216 
-0.7487191593 -0.05156819514 -0.66087846216 
