# vtk DataFile Version 4.2
vtk output
ASCII
DATASET POLYDATA
POINTS 64 float
0 0 0 -0.790241 0.685644 0.0252586 -1.59717 1.22328 0.106058 
-2.51457 1.65851 0.247271 -3.47987 1.88729 0.448037 -4.46347 1.86992 0.692683 
-5.40727 1.6029 0.949076 -6.27808 1.13854 1.18274 -7.07999 0.545912 1.3692 
-7.83839 -0.117131 1.48921 -8.58304 -0.80544 1.519 -9.33327 -1.48171 1.42597 
-10.081 -2.12095 1.17932 -10.7884 -2.72174 0.770351 -11.4076 -3.29924 0.212132 
-11.8927 -3.87682 -0.465799 -12.2032 -4.4765 -1.22228 -12.3106 -5.10846 -2.00793 
-12.2066 -5.76917 -2.77004 -11.909 -6.44845 -3.46161 -11.45 -7.14004 -4.04439 
-10.8602 -7.84603 -4.47012 -10.1695 -8.56861 -4.63252 -9.50839 -9.21611 -4.24216 
-9.20652 -9.51969 -3.32346 -9.17618 -9.5925 -2.31341 -9.25221 -9.60977 -1.30169 
-9.37185 -9.65764 -0.295373 -9.50609 -9.79847 0.700216 -9.64147 -10.0819 1.66457 
-9.77361 -10.5373 2.56092 -9.90378 -11.161 3.34977 -10.0332 -11.9218 4.00784 
-10.1579 -12.7815 4.5314 -10.2635 -13.707 4.93298 -10.3254 -14.6733 5.23548 
-10.3115 -15.6607 5.46792 -10.1862 -16.648 5.66432 -9.91867 -17.6062 5.86146 
-9.49685 -18.4981 6.09632 -8.93629 -19.2871 6.39899 -8.27463 -19.9499 6.78824 
-7.55562 -20.479 7.26955 -6.81554 -20.8787 7.83644 -6.07609 -21.1594 8.47162 
-5.3438 -21.334 9.15161 -4.61369 -21.4151 9.85129 -3.87377 -21.4144 10.5454 
-3.11126 -21.345 11.211 -2.31836 -21.226 11.8326 -1.49539 -21.0839 12.4087 
-0.650119 -20.9516 12.9541 0.204745 -20.8631 13.4933 1.05163 -20.8518 14.0516 
1.86572 -20.9509 14.6485 2.61249 -21.1943 15.2901 3.24648 -21.6125 15.9618 
3.71887 -22.2184 16.6229 3.99889 -22.9911 17.2162 4.09444 -23.8797 17.6953 
4.04465 -24.8293 18.0428 3.88635 -25.8195 18.2566 3.67151 -26.7643 18.3468 
3.38762 -27.7704 18.2987 
LINES 1 65
64 0 1 2 3 4 5 6 7 8 9 10 11 12 13 14 15 16 17 18 19 20 21 22 23 24 25 26 27 28 29 30 31 32 33 34 35 36 37 38 39 40 41 42 43 44 45 46 47 48 49 50 51 52 53 54 55 56 57 58 59 60 61 62 63 

POINT_DATA 64
SCALARS MaximumInscribedSphereRadius float
LOOKUP_TABLE default
1.116 1.03845 0.963164 0.948467 0.975409 0.955232 0.991698 1.22338 1.33913 
1.27975 1.16719 1.04575 1.10133 1.25215 1.11243 1.02223 1.15313 1.23216 
1.24 1.25956 1.30237 1.40072 1.50979 1.3336 1.64651 1.76494 1.6096 
1.71485 1.8718 2.04344 2.02595 1.72434 1.71744 2.02168 2.06554 1.90297 
1.86 1.82129 1.56923 1.29676 1.24 1.27894 1.44791 1.47393 1.31802 
1.52911 2.01127 1.99964 1.65243 1.70112 1.86572 1.87185 1.90401 2.04049 
2.07405 1.64662 1.43095 1.52447 1.54996 1.56358 1.71336 1.75948 1.53568 
1.24 
TEXTURE_COORDINATES TCoords 2 float
0 0 0.015873 0 0.031746 0 0.047619 0 0.0634921 
0 0.0793651 0 0.0952381 0 0.111111 0 0.126984 0 
0.142857 0 0.15873 0 0.174603 0 0.190476 0 0.206349 
0 0.222222 0 0.238095 0 0.253968 0 0.269841 0 
0.285714 0 0.301587 0 0.31746 0 0.333333 0 0.349206 
0 0.365079 0 0.380952 0 0.396825 0 0.412698 0 
0.428571 0 0.444444 0 0.460317 0 0.47619 0 0.492063 
0 0.507937 0 0.52381 0 0.539683 0 0.555556 0 
0.571429 0 0.587302 0 0.603175 0 0.619048 0 0.634921 
0 0.650794 0 0.666667 0 0.68254 0 0.698413 0 
0.714286 0 0.730159 0 0.746032 0 0.761905 0 0.777778 
0 0.793651 0 0.809524 0 0.825397 0 0.84127 0 
0.857143 0 0.873016 0 0.888889 0 0.904762 0 0.920635 
0 0.936508 0 0.952381 0 0.968254 0 0.984127 0 
1 0 
FIELD FieldData 4
Curvature 1 64 float
0.109255 0.129829 0.156322 0.186989 0.210765 0.206751 0.172557 0.126386 0.0872466 
0.0756298 0.101405 0.128642 0.139158 0.141978 0.146155 0.156686 0.16867 0.174466 
0.168078 0.158258 0.17548 0.263973 0.49679 0.655755 0.340967 0.139551 0.0610943 
0.0766276 0.118361 0.149454 0.161415 0.154045 0.136245 0.114162 0.0943456 0.0859907 
0.0956457 0.118721 0.139864 0.150253 0.148834 0.139292 0.126602 0.110704 0.0929502 
0.0769684 0.0672921 0.0633809 0.0594609 0.0494152 0.0348569 0.0388426 0.0650492 0.0991838 
0.135786 0.171907 0.201109 0.213595 0.202314 0.172269 0.143273 0.123471 0.113807 
0.112847 
Torsion 1 64 float
0.0232993 0.028178 0.0340874 0.0410911 0.050829 0.0674877 0.102711 0.190912 0.387705 
0.479502 0.180436 -0.0507347 -0.174511 -0.220105 -0.237728 -0.192381 -0.134515 -0.100857 
-0.100092 -0.13242 -0.152582 -0.124404 -0.0751413 -0.0429411 -0.0661707 -0.23152 -0.632652 
-0.22426 -0.0356485 0.01768 0.0313576 0.0166202 -0.0263858 -0.128731 -0.266705 -0.375154 
-0.335986 -0.237369 -0.181548 -0.160303 -0.148198 -0.126098 -0.0760425 -0.000361369 0.0861493 
0.19413 0.277832 0.282771 0.262368 0.333188 0.690374 0.668011 0.245808 0.0814798 
0.00924579 -0.025422 -0.0502668 -0.0627417 -0.0734876 -0.0829368 -0.0915134 -0.0968935 -0.094958 
-0.0852263 
Abscissas 1 64 double
0 1.0465306946 2.0195237012 3.0447012679 4.0568532026 5.0705701942 6.0843726601 7.0985418639 8.1129553953 
9.127449835 10.141925512 11.156243237 12.170424956 13.184633095 14.198794977 15.212950237 16.226996545 17.240975849 
18.254960651 19.268990464 20.283194934 21.296867487 22.30956761 23.313910101 24.327465886 25.340591234 26.35531103 
27.369845059 28.384266412 29.398484784 30.412533095 31.426550103 32.440759937 33.455032854 34.46941341 35.483845985 
36.498331298 37.512745411 38.526935362 39.541123937 40.55520342 41.56940914 42.583598955 43.597918283 44.61233051 
45.626786269 46.641275978 47.655805685 48.670331415 49.684844405 50.699419942 51.714036908 52.728611711 53.743028207 
54.757351921 55.771531022 56.785441515 57.799009744 58.81265819 59.826697053 60.83910857 61.864420657 62.837528186 
63.884019328 
ParallelTransportNormals 3 64 double
0.031946846402 0 0.99948956923 0.076930657265 -0.034288472293 0.99644667426 0.12363601578 -0.060756349678 0.99046595175 
0.18425241626 -0.082089198422 0.97944495027 0.24189619809 -0.088347869803 0.96627164051 0.28288718726 -0.082299833332 0.95561581021 
0.29641785083 -0.076846594532 0.95196168968 0.28443616465 -0.084417647024 0.95497106192 0.25012546724 -0.1120293445 0.96171028725 
0.19121715916 -0.16499223012 0.9675812948 0.10234165639 -0.24612081967 0.96382090011 -0.012614492392 -0.34707523953 0.93775244745 
-0.13092723578 -0.44789880951 0.88444599347 -0.23097298428 -0.53675983531 0.81150499674 -0.30027486609 -0.60924848764 0.73392866486 
-0.33798849348 -0.66505456321 0.66593258384 -0.35166675825 -0.7053679822 0.61545633544 -0.35173294285 -0.7305280447 0.58533128468 
-0.34912020186 -0.73924588475 0.57587377657 -0.35483751097 -0.72888661673 0.58550374956 -0.38372448878 -0.69039439979 0.61327896544 
-0.46914630019 -0.59509789248 0.65250306313 -0.70753901037 -0.353516117 0.61189452018 -0.95447892287 -0.10964070433 0.27739665059 
-0.9978388155 -0.060512472433 0.025611305243 -0.99555189923 -0.055993195885 -0.075770561224 -0.9912205792 -0.054551219518 -0.12044055718 
-0.98864500237 -0.052636844936 -0.14074950036 -0.98692873707 -0.049936134104 -0.15322548892 -0.98485508659 -0.044209055386 -0.16764849491 
-0.9818254106 -0.031745431805 -0.18711250803 -0.97824976711 -0.012675259635 -0.20704282392 -0.97520491767 0.0067414237488 -0.22120108895 
-0.97431511631 0.013638791333 -0.22477552693 -0.97601866878 -0.0056014926148 -0.21761475472 -0.97738940267 -0.061391632219 -0.20233888167 
-0.97049507501 -0.1591921515 -0.18109988483 -0.94308768333 -0.29492225747 -0.15364401584 -0.88541880578 -0.44969577821 -0.11750423577 
-0.80012454551 -0.59563688305 -0.070833715266 -0.70296293452 -0.71105031813 -0.0158290171 -0.61045764716 -0.79090790537 0.042498779366 
-0.53086545375 -0.84157374074 0.099677022994 -0.4636941844 -0.87246445837 0.15425132815 -0.40462633452 -0.89073785663 0.20703526311 
-0.3488552498 -0.90048943396 0.25965129311 -0.29268275269 -0.90356174266 0.31291050395 -0.23595684165 -0.90091500472 0.36424788694 
-0.18459796946 -0.89469411075 0.40675058434 -0.14946292274 -0.88901685848 0.43279309152 -0.14305157719 -0.88796228695 0.43710321803 
-0.17181449287 -0.89169777629 0.41875393228 -0.23657695442 -0.89549550993 0.37698691798 -0.33473282879 -0.8903066914 0.30871982213 
-0.46060952605 -0.86268471062 0.20883954264 -0.6024908499 -0.79469823709 0.07388834644 -0.73680144375 -0.67036930751 -0.087912593131 
-0.83345938852 -0.49327068851 -0.24905717327 -0.87783722231 -0.29699049801 -0.37576382905 -0.88222392664 -0.12031991317 -0.45519672864 
-0.8660725524 0.030720684657 -0.49897351985 -0.84437900963 0.14270507449 -0.51639069493 -0.81578213047 0.25500571211 -0.51910654242 
-0.81578213047 0.25500571211 -0.51910654242 
