# vtk DataFile Version 4.2
vtk output
ASCII
DATASET POLYDATA
POINTS 64 float
0 0 0 -1.00483 -0.183236 0.22932 -1.91093 -0.231797 0.581467 
-2.82844 -0.180915 1.03457 -3.69575 -0.0312188 1.53626 -4.54147 0.19279 2.05001 
-5.3851 0.466096 2.54299 -6.24841 0.757991 2.98882 -7.14869 1.02959 3.36948 
-8.09295 1.23517 3.67787 -9.07347 1.32546 3.92116 -10.0653 1.25401 4.12018 
-11.0265 0.989349 4.30507 -11.9085 0.531493 4.50658 -12.6812 -0.0807626 4.74443 
-13.3479 -0.793293 5.02163 -13.9343 -1.56295 5.32652 -14.4748 -2.36521 5.63256 
-15.0014 -3.19172 5.89501 -15.5332 -4.04278 6.0424 -16.0509 -4.91179 5.97829 
-16.4736 -5.76586 5.63466 -16.7056 -6.55189 5.03897 -16.7215 -7.24776 4.30187 
-16.5545 -7.87152 3.51976 -16.2448 -8.44981 2.74609 -15.8211 -9.00563 2.01105 
-15.2967 -9.56095 1.3405 -14.6795 -10.1293 0.79025 -13.8966 -10.7609 0.561691 
-13.443 -10.963 1.41056 -13.4743 -10.7484 2.39717 -13.5904 -10.4693 3.36621 
-13.7372 -10.1964 4.33223 -13.8839 -10.0008 5.31679 -14.0203 -9.9708 6.32113 
-14.1438 -10.2005 7.30013 -14.2546 -10.7049 8.17207 -14.3481 -11.403 8.9016 
-14.4122 -12.2129 9.50894 -14.4276 -13.0864 10.0246 -14.3703 -13.9937 10.4747 
-14.2146 -14.9088 10.8838 -13.9384 -15.8014 11.2787 -13.5299 -16.6339 11.6896 
-12.9923 -17.363 12.1454 -12.3479 -17.9497 12.6639 -11.6304 -18.3722 13.2427 
-10.871 -18.6319 13.8628 -10.0886 -18.7497 14.4976 -9.28889 -18.7572 15.1218 
-8.46968 -18.6887 15.7163 -7.62827 -18.5748 16.2717 -6.76734 -18.4391 16.791 
-5.89564 -18.2966 17.2903 -5.02557 -18.1558 17.7929 -4.1701 -18.0229 18.3219 
-3.33971 -17.9071 18.8932 -2.53964 -17.8246 19.5116 -1.7696 -17.8007 20.1717 
-1.02718 -17.8717 20.8575 -0.305026 -18.0986 21.5463 0.346178 -18.4868 22.1585 
0.966549 -19.1453 22.684 
LINES 1 65
64 0 1 2 3 4 5 6 7 8 9 10 11 12 13 14 15 16 17 18 19 20 21 22 23 24 25 26 27 28 29 30 31 32 33 34 35 36 37 38 39 40 41 42 43 44 45 46 47 48 49 50 51 52 53 54 55 56 57 58 59 60 61 62 63 

POINT_DATA 64
SCALARS MaximumInscribedSphereRadius float
LOOKUP_TABLE default
0.93 1.12186 1.15615 0.982842 1.09442 1.24 1.23193 1.02281 0.654329 
0.795131 0.93 0.93 0.93 0.93 0.928708 0.847041 0.672223 0.741336 
0.894198 0.93 0.93 0.93 1.21082 1.25862 0.96177 0.9669 1.09234 
1.1952 1.33031 1.46367 1.24 1.17363 0.985168 1.07293 1.24 1.24 
1.24 1.24 1.24674 1.36707 1.5474 1.72547 1.86 1.85252 1.75474 
1.58334 1.55 1.55654 1.54248 1.28802 0.95377 0.969356 1.13297 1.4491 
1.40473 1.26236 1.46574 1.48665 1.2873 1.27508 1.47665 2.22894 2.16401 
1.55 
TEXTURE_COORDINATES TCoords 2 float
0 0 0.015873 0 0.031746 0 0.047619 0 0.0634921 
0 0.0793651 0 0.0952381 0 0.111111 0 0.126984 0 
0.142857 0 0.15873 0 0.174603 0 0.190476 0 0.206349 
0 0.222222 0 0.238095 0 0.253968 0 0.269841 0 
0.285714 0 0.301587 0 0.31746 0 0.333333 0 0.349206 
0 0.365079 0 0.380952 0 0.396825 0 0.412698 0 
0.428571 0 0.444444 0 0.460317 0 0.47619 0 0.492063 
0 0.507937 0 0.52381 0 0.539683 0 0.555556 0 
0.571429 0 0.587302 0 0.603175 0 0.619048 0 0.634921 
0 0.650794 0 0.666667 0 0.68254 0 0.698413 0 
0.714286 0 0.730159 0 0.746032 0 0.761905 0 0.777778 
0 0.793651 0 0.809524 0 0.825397 0 0.84127 0 
0.857143 0 0.873016 0 0.888889 0 0.904762 0 0.920635 
0 0.936508 0 0.952381 0 0.968254 0 0.984127 0 
1 0 
FIELD FieldData 4
Curvature 1 64 float
0.159162 0.144372 0.120664 0.0928399 0.0650278 0.0455023 0.0456974 0.0630024 0.0865821 
0.110853 0.135158 0.157179 0.168821 0.157675 0.125408 0.0853001 0.0457556 0.0459619 
0.107095 0.182037 0.241511 0.266111 0.230365 0.174712 0.127426 0.0975539 0.103353 
0.173049 0.398919 1.37775 0.579909 0.178296 0.0526959 0.0672199 0.141902 0.212544 
0.237646 0.200194 0.142823 0.102316 0.0843955 0.0864038 0.0998975 0.118729 0.13807 
0.151354 0.152172 0.138155 0.115474 0.0898015 0.0671416 0.0512855 0.0371718 0.0192908 
0.00713256 0.025134 0.0415569 0.0523895 0.063273 0.0837102 0.120856 0.16887 0.210119 
0.221294 
Torsion 1 64 float
0.0499641 0.0734126 0.108778 0.173679 0.316354 0.59405 0.615239 0.38939 0.273439 
0.234804 0.207226 0.174067 0.140665 0.107684 0.0709302 -0.0371232 -0.545477 -0.605841 
-0.0718995 0.0785259 0.143173 0.153885 0.153894 0.151463 0.169249 0.209672 0.190233 
0.101562 0.0369653 -0.0202007 -0.0202001 0.0553038 0.666728 0.189679 -0.0194243 -0.0380388 
-0.0226459 0.0265302 0.107324 0.220614 0.311816 0.308191 0.258056 0.214631 0.170841 
0.116683 0.0508172 -0.00922152 -0.0831214 -0.170814 -0.262978 -0.273749 -0.201167 -0.161891 
-0.392627 0.00878116 0.104719 0.203178 0.272604 0.243704 0.166626 0.103211 0.0609682 
0.0343465 
Abscissas 1 64 double
0 1.0468268394 2.0201628195 3.0447191883 4.0577979393 5.0723724163 6.0869840474 7.1015144385 8.1159955806 
9.1303889402 10.144668108 11.158788721 12.172758462 13.186741856 14.200889485 15.215299974 16.229792422 17.244396507 
18.258943823 19.273260482 20.286819016 21.299831213 22.31300116 23.326808016 24.341037659 25.355384054 26.36965277 
27.386025988 28.389386495 29.420933511 30.404384696 31.4145493 32.429642366 33.444147086 34.458611707 35.472615271 
36.48575647 37.499154209 38.513205747 39.527557272 40.542024971 41.556454115 42.570857071 43.585237279 44.599518861 
45.613597514 46.627653064 47.641715473 48.655942272 49.670337527 50.684842053 51.699350402 52.713949995 53.728488277 
54.743115357 55.757735 56.772294598 57.786859319 58.80142212 59.815948343 60.829136933 61.852580414 62.827030803 
63.873277835 
ParallelTransportNormals 3 64 double
0.22249706131 0 0.97493336065 0.36142585634 0.016527022108 0.93225436867 0.44346608897 0.016537300596 0.89613857501 
0.50197032081 0.0099433014472 0.86482768675 0.52032239056 0.0059403417509 0.85394925038 0.50689230024 0.0098939162257 0.86195261261 
0.46504501486 0.023750376296 0.8849683914 0.40039350283 0.044407491382 0.91526663743 0.32248279848 0.064562704925 0.94437095562 
0.24672553312 0.076207559874 0.96608432299 0.19084049355 0.076741017204 0.97861673923 0.16897289696 0.072977499533 0.98291527847 
0.18312499857 0.078524978635 0.97994849999 0.21844149249 0.10136412777 0.97057128948 0.25444291368 0.13449823493 0.95768942172 
0.27840993782 0.16284670116 0.94655631552 0.28309802133 0.16938610603 0.94401475486 0.26166515454 0.13667197277 0.95543294833 
0.20250113768 0.042896588147 0.97834205264 0.09674714686 -0.13042972236 0.98672593819 -0.028947915294 -0.36074451533 0.93221532537 
-0.1156847279 -0.57802573139 0.80777676222 -0.13920187193 -0.71857099629 0.6813798956 -0.13119503072 -0.78851702734 0.60085668965 
-0.11966355748 -0.81759544938 0.56322137225 -0.1159944331 -0.82326924121 0.55567350842 -0.12693862892 -0.81044162019 0.57190118443 
-0.16524635932 -0.77275247467 0.61281910351 -0.31573983501 -0.64365525121 0.69714867437 -0.87461221471 -0.26909254666 0.40328981541 
-0.96230170949 -0.27050692406 0.028309432243 -0.95773096705 -0.28583272017 -0.032419914153 -0.95373694382 -0.29421851035 -0.061816746541 
-0.95066624046 -0.29912011351 -0.082224430306 -0.94538426265 -0.30332859439 -0.11933297848 -0.93642774866 -0.29644272623 -0.18768266197 
-0.92598007178 -0.26371021062 -0.27021811835 -0.91856707171 -0.22008107752 -0.32832735812 -0.9156578948 -0.1922456745 -0.35300456133 
-0.91565800301 -0.19224796569 -0.35300303286 -0.91490426661 -0.224281859 -0.33563049722 -0.90717052624 -0.29045024501 -0.30443437963 
-0.883677928 -0.38877724745 -0.2607020741 -0.83535970418 -0.5105135132 -0.20383845929 -0.75670380922 -0.64033761053 -0.13178425416 
-0.6521964901 -0.75667473554 -0.045640802894 -0.53550909242 -0.84314281643 0.048375645039 -0.42145806947 -0.89582576337 0.14095849517 
-0.3199908202 -0.92067022774 0.22354464147 -0.23559901032 -0.92735418305 0.29070143708 -0.16965244195 -0.92486932596 0.34034508788 
-0.12196485707 -0.91963145527 0.37336652248 -0.092256044544 -0.91527549701 0.39212190301 -0.079580646753 -0.91324027066 0.39957368371 
-0.082118742932 -0.91365309413 0.39811372201 -0.097986410867 -0.91616998172 0.38862736378 -0.12631009785 -0.92034831163 0.37014151951 
-0.16746467496 -0.92535360204 0.3401121783 -0.22355887721 -0.92915489433 0.29443608943 -0.29878131849 -0.926809223 0.22749590739 
-0.40568412106 -0.90512350603 0.12716852105 -0.52304377223 -0.85215540455 0.016011833792 -0.67358105711 -0.72948300297 -0.11892479923 
-0.67358105711 -0.72948300297 -0.11892479923 
