# vtk DataFile Version 4.2
vtk output
ASCII
DATASET POLYDATA
POINTS 64 float
0 0 0 -0.810179 0.0119988 -0.623189 -1.70211 -0.0613229 -1.07674 
-2.68274 -0.265387 -1.26044 -3.61648 -0.611992 -1.07405 -4.41397 -1.04656 -0.621258 
-5.09391 -1.52681 -0.0414166 -5.70849 -2.04131 0.580706 -6.30032 -2.59229 1.19355 
-6.90227 -3.18722 1.75314 -7.53514 -3.83517 2.21029 -8.19997 -4.54217 2.50604 
-8.86545 -5.30462 2.57571 -9.46091 -6.09912 2.36895 -9.89393 -6.88259 1.89247 
-10.106 -7.61525 1.22367 -10.1009 -8.28423 0.460922 -9.91572 -8.8992 -0.324446 
-9.59129 -9.47842 -1.09174 -9.1611 -10.0425 -1.81689 -8.64795 -10.6124 -2.48188 
-8.0654 -11.2158 -3.05058 -7.42343 -11.8848 -3.46563 -6.79016 -12.6816 -3.3592 
-6.59448 -13.171 -2.52535 -6.71848 -13.3031 -1.51759 -6.93121 -13.2816 -0.527672 
-7.16413 -13.1845 0.455447 -7.3804 -13.0492 1.43738 -7.55146 -12.9077 2.42741 
-7.65015 -12.7983 3.43123 -7.65282 -12.7731 4.44546 -7.55262 -12.8953 5.44758 
-7.37845 -13.2127 6.39521 -7.18923 -13.7269 7.24905 -7.03941 -14.3951 7.99767 
-6.95278 -15.1636 8.65431 -6.92689 -15.9914 9.2404 -6.94363 -16.8525 9.77676 
-6.97393 -17.7319 10.2819 -6.97895 -18.6203 10.7719 -6.90778 -19.507 11.26 
-6.69446 -20.3668 11.7547 -6.27315 -21.1435 12.2525 -5.63011 -21.7616 12.735 
-4.82854 -22.1862 13.1896 -3.95001 -22.4457 13.6259 -3.04612 -22.5877 14.0643 
-2.14364 -22.6523 14.5234 -1.25695 -22.6691 15.0163 -0.393844 -22.6583 15.5495 
0.442555 -22.6323 16.1232 1.25296 -22.5967 16.7326 2.04189 -22.5502 17.3689 
2.817 -22.4867 18.0205 3.58726 -22.3993 18.6751 4.36105 -22.2856 19.3214 
5.14444 -22.1545 19.9528 5.94037 -22.0311 20.5695 6.74931 -21.9538 21.1779 
7.56222 -21.9672 21.782 8.36782 -22.122 22.3873 9.12193 -22.4333 22.9712 
9.81994 -22.918 23.5393 
LINES 1 65
64 0 1 2 3 4 5 6 7 8 9 10 11 12 13 14 15 16 17 18 19 20 21 22 23 24 25 26 27 28 29 30 31 32 33 34 35 36 37 38 39 40 41 42 43 44 45 46 47 48 49 50 51 52 53 54 55 56 57 58 59 60 61 62 63 

POINT_DATA 64
SCALARS MaximumInscribedSphereRadius float
LOOKUP_TABLE default
0.93 0.93 0.937345 1.06479 1.21049 1.04804 0.998273 1.16495 1.32937 
1.46156 1.4449 1.3185 1.2772 1.3046 1.3236 1.17453 1.07955 1.29308 
1.49211 1.47481 1.36531 1.22236 1.2808 1.44329 1.37217 1.26657 1.36877 
1.52891 1.40972 1.24738 1.56646 1.75597 1.20874 1.15293 1.51751 1.72252 
1.82665 1.68405 1.62726 1.76314 1.79733 1.62726 1.44602 1.37592 1.6118 
1.78211 1.64031 1.60922 1.69806 1.57697 1.31453 1.114 1.02187 1.23591 
1.49172 1.55 1.61777 1.77393 1.67032 1.36625 1.26622 1.24235 1.3962 
1.55 
TEXTURE_COORDINATES TCoords 2 float
0 0 0.015873 0 0.031746 0 0.047619 0 0.0634921 
0 0.0793651 0 0.0952381 0 0.111111 0 0.126984 0 
0.142857 0 0.15873 0 0.174603 0 0.190476 0 0.206349 
0 0.222222 0 0.238095 0 0.253968 0 0.269841 0 
0.285714 0 0.301587 0 0.31746 0 0.333333 0 0.349206 
0 0.365079 0 0.380952 0 0.396825 0 0.412698 0 
0.428571 0 0.444444 0 0.460317 0 0.47619 0 0.492063 
0 0.507937 0 0.52381 0 0.539683 0 0.555556 0 
0.571429 0 0.587302 0 0.603175 0 0.619048 0 0.634921 
0 0.650794 0 0.666667 0 0.68254 0 0.698413 0 
0.714286 0 0.730159 0 0.746032 0 0.761905 0 0.777778 
0 0.793651 0 0.809524 0 0.825397 0 0.84127 0 
0.857143 0 0.873016 0 0.888889 0 0.904762 0 0.920635 
0 0.936508 0 0.952381 0 0.968254 0 0.984127 0 
1 0 
FIELD FieldData 4
Curvature 1 64 float
0.207504 0.275241 0.361082 0.396047 0.305122 0.181454 0.0930198 0.0500774 0.0689896 
0.119215 0.173453 0.227066 0.274921 0.299944 0.287045 0.243564 0.192713 0.146635 
0.11259 0.104688 0.141622 0.254196 0.569701 0.962597 0.556594 0.237626 0.10794 
0.0467291 0.0491524 0.0882775 0.136122 0.18123 0.210006 0.211819 0.189152 0.153147 
0.114275 0.0754604 0.0411125 0.0383548 0.0859794 0.151724 0.219792 0.259844 0.242599 
0.183655 0.123587 0.0815212 0.0597947 0.0524921 0.0495164 0.0446693 0.0364786 0.0281129 
0.0254188 0.0275201 0.0243152 0.0223168 0.0467704 0.0880636 0.132545 0.16917 0.187365 
0.184596 
Torsion 1 64 float
0.00371699 0.00681533 0.01409 0.0297523 0.0587436 0.128923 0.402211 0.890621 0.468703 
0.0884348 -0.0235969 -0.0801447 -0.117935 -0.145608 -0.151545 -0.146474 -0.149206 -0.180208 
-0.249657 -0.279354 -0.203038 -0.111268 -0.0542364 0.00830392 0.0470862 0.0816077 0.197972 
0.785373 0.626513 0.271553 0.196919 0.208719 0.237338 0.245854 0.208745 0.143532 
0.0737039 -0.0749656 -0.579211 -1.02056 -0.196577 -0.0717524 -0.0529545 -0.0636231 -0.0929941 
-0.143253 -0.222627 -0.336526 -0.387429 -0.287074 -0.144505 -0.00671208 0.198466 0.471757 
0.539154 0.422029 0.663368 1.17615 0.487133 0.153047 0.0661486 0.0348554 0.019856 
0.0117236 
Abscissas 1 64 double
0 1.0222027542 2.0255101054 3.0438533063 4.0571385194 5.0719587155 6.0864412651 7.1010618755 8.1156650509 
9.1302715209 10.144840351 11.159392654 12.173812039 13.187988115 14.202071273 15.216496242 16.231062618 17.245598359 
18.260236333 19.274677784 20.289725255 21.303074244 22.318925006 23.342276205 24.328738904 25.352656269 26.365402047 
27.380391306 28.394921275 29.409535999 30.424111276 31.438657579 32.453161127 33.467597139 34.48211643 35.496694454 
36.511225739 37.525831269 38.540452997 39.555059447 40.56964378 41.584307826 42.598945558 43.613129084 44.627207973 
45.641830997 46.656480212 47.671061598 48.685663283 49.700282293 50.714861584 51.72944027 52.744029633 53.758648685 
54.773247182 55.787860803 56.802445186 57.817115032 58.83153597 59.84667633 60.859562437 61.879044272 62.882303959 
63.904501687 
ParallelTransportNormals 3 64 double
-0.60969500164 0 0.79263611133 -0.45363240744 0.0056929834445 0.89117070691 -0.19282516837 0.044204960321 0.98023689786 
0.14322833737 0.14093904238 0.97960289389 0.37420506651 0.24514626531 0.89435668321 0.4801042412 0.31071996888 0.82033713711 
0.51501444441 0.33754591783 0.78792314054 0.51037838903 0.333451434 0.79266893542 0.47436737736 0.29888444581 0.82803603747 
0.40494751964 0.22901143107 0.88519561159 0.29740605697 0.11672563574 0.94758892102 0.15272794187 -0.043085055873 0.98732864525 
-0.010410308747 -0.2445224868 0.96958773658 -0.14665818188 -0.45356538134 0.87907327484 -0.21858998005 -0.62261506364 0.75137800284 
-0.23468222388 -0.73158758104 0.64008113944 -0.22570708021 -0.79214817111 0.56706048086 -0.2133922527 -0.8210064966 0.52953949714 
-0.20872790925 -0.82807318353 0.52031477263 -0.21736173843 -0.8176942885 0.53303839001 -0.25141037075 -0.78123530122 0.57137048367 
-0.32569331014 -0.70404812932 0.63106267465 -0.60272856967 -0.38572553518 0.69852278618 -0.94161811869 0.1429111622 0.30484704077 
-0.95794734749 0.27503190838 -0.081818878053 -0.93674327347 0.281933451 -0.20742605624 -0.92771429441 0.27953216274 -0.24740242103 
-0.9286910096 0.28003751421 -0.2431295937 -0.93663793607 0.28571665111 -0.20267059974 -0.94710361999 0.295451048 -0.12531325242 
-0.95289331995 0.30313941527 -0.010040702705 -0.9460838343 0.29636685128 0.13073663576 -0.92788772439 0.26721260499 0.26004190944 
-0.91164465187 0.23004142502 0.34056566399 -0.90577243362 0.20956223701 0.36832046822 -0.90604244486 0.21120287054 0.36671574222 
-0.90695446441 0.22414122257 0.3566431155 -0.9070143756 0.2351997204 0.3492935928 -0.90708088021 0.23273902666 0.35076605055 
-0.90760144093 0.20668412267 0.36543302788 -0.90536579245 0.14668868504 0.39849116871 -0.88840580637 0.042571117361 0.4570807622 
-0.83225351994 -0.10221461197 0.54489104566 -0.72206011001 -0.24661750268 0.64638147011 -0.59360177134 -0.33934431803 0.7297138966 
-0.49894291686 -0.37788743864 0.77990835964 -0.45079567164 -0.3887327811 0.80353599006 -0.43953184649 -0.39002106484 0.80913245202 
-0.45313959511 -0.38940196484 0.80189189865 -0.48057426918 -0.38930789245 0.78580387927 -0.51257505327 -0.39000082438 0.76496154919 
-0.54209827067 -0.39110515777 0.74375145076 -0.56337803475 -0.39219752628 0.72717693194 -0.57268114229 -0.39285182492 0.71951633264 
-0.56933799388 -0.39252537877 0.72234207668 -0.55558934216 -0.39073473062 0.73392564553 -0.53814130738 -0.38799177432 0.74824215088 
-0.52681476399 -0.38616655393 0.75719323628 -0.53045049558 -0.38662126287 0.75441783571 -0.55395915862 -0.38754602736 0.73684281042 
-0.60084900716 -0.38268648419 0.70180590295 -0.65949443042 -0.36510915457 0.65708629684 -0.72310672941 -0.33032278325 0.6066329341 
-0.72310672941 -0.33032278325 0.6066329341 
