# vtk DataFile Version 4.2
vtk output
ASCII
DATASET POLYDATA
POINTS 64 float
0 0 0 -0.9707 0.202182 0.326823 -1.86397 0.495795 0.618027 
-2.77932 0.810895 0.922195 -3.70388 1.07489 1.24744 -4.64224 1.20996 1.607 
-5.57188 1.12465 2.0002 -6.4303 0.761172 2.39557 -7.16558 0.155513 2.74068 
-7.77239 -0.617284 2.98948 -8.25701 -1.50086 3.0972 -8.61011 -2.44652 3.01169 
-8.81117 -3.3885 2.69852 -8.85431 -4.26139 2.18574 -8.75692 -5.03743 1.54069 
-8.54293 -5.72345 0.825041 -8.23479 -6.34307 0.0833481 -7.85252 -6.92694 -0.652978 
-7.41463 -7.51066 -1.3578 -6.93915 -8.13738 -1.99808 -6.4529 -8.86486 -2.50918 
-6.03902 -9.75968 -2.72453 -5.96505 -10.6814 -2.35282 -6.33437 -11.2351 -1.59391 
-6.93864 -11.4319 -0.806395 -7.65657 -11.3611 -0.0951783 -8.41093 -11.0759 0.518793 
-9.13662 -10.6268 1.06657 -9.77883 -10.0793 1.62906 -10.2597 -9.55669 2.35013 
-10.4193 -9.36335 3.32185 -10.2337 -9.66253 4.2677 -9.87488 -10.2655 4.9973 
-9.4576 -11.0359 5.50631 -9.05083 -11.9059 5.83141 -8.69797 -12.8364 6.02706 
-8.41011 -13.7997 6.16272 -8.15926 -14.7707 6.31642 -7.8876 -15.7182 6.55525 
-7.52035 -16.5891 6.92115 -6.99916 -17.3067 7.41047 -6.3275 -17.823 7.96632 
-5.5508 -18.1537 8.52785 -4.71101 -18.3398 9.06514 -3.83591 -18.4126 9.57288 
-2.94548 -18.3833 10.0579 -2.05726 -18.2498 10.5292 -1.18619 -18.0136 10.9923 
-0.337496 -17.6962 11.4485 0.496762 -17.3368 11.9005 1.33113 -16.9815 12.3555 
2.17635 -16.6781 12.8273 3.0319 -16.4814 13.3351 3.8734 -16.4639 13.8995 
4.62875 -16.7036 14.5293 5.1875 -17.2262 15.1912 5.48593 -17.9604 15.8212 
5.55308 -18.8045 16.3782 5.44776 -19.6946 16.8523 5.2199 -20.6011 17.2458 
4.90941 -21.5132 17.5651 4.55073 -22.4281 17.8178 4.18808 -23.3227 18.0087 
3.84852 -24.299 18.1577 
LINES 1 65
64 0 1 2 3 4 5 6 7 8 9 10 11 12 13 14 15 16 17 18 19 20 21 22 23 24 25 26 27 28 29 30 31 32 33 34 35 36 37 38 39 40 41 42 43 44 45 46 47 48 49 50 51 52 53 54 55 56 57 58 59 60 61 62 63 

POINT_DATA 64
SCALARS MaximumInscribedSphereRadius float
LOOKUP_TABLE default
0.93 1.32823 1.50375 1.3158 1.24006 1.24 1.24 1.12609 0.978426 
1.13726 1.14068 0.98503 1.1284 1.14648 0.983173 1.10023 1.17316 1.02442 
1.01481 1.19748 1.4024 1.64504 1.61842 0.955571 1.14641 1.44907 1.73244 
1.51895 1.35125 1.48798 1.28576 1.24 1.26079 1.30485 1.37697 1.47994 
1.55361 1.34924 1.24 1.24 1.24185 1.48637 2.06085 2.01648 1.86268 
1.86 1.86 1.91542 2.23195 2.34753 1.98475 2.00972 2.18897 2.37853 
2.28038 1.95905 1.88652 1.64099 1.3444 1.55802 1.82314 1.86 1.86 
1.86 
TEXTURE_COORDINATES TCoords 2 float
0 0 0.015873 0 0.031746 0 0.047619 0 0.0634921 
0 0.0793651 0 0.0952381 0 0.111111 0 0.126984 0 
0.142857 0 0.15873 0 0.174603 0 0.190476 0 0.206349 
0 0.222222 0 0.238095 0 0.253968 0 0.269841 0 
0.285714 0 0.301587 0 0.31746 0 0.333333 0 0.349206 
0 0.365079 0 0.380952 0 0.396825 0 0.412698 0 
0.428571 0 0.444444 0 0.460317 0 0.47619 0 0.492063 
0 0.507937 0 0.52381 0 0.539683 0 0.555556 0 
0.571429 0 0.587302 0 0.603175 0 0.619048 0 0.634921 
0 0.650794 0 0.666667 0 0.68254 0 0.698413 0 
0.714286 0 0.730159 0 0.746032 0 0.761905 0 0.777778 
0 0.793651 0 0.809524 0 0.825397 0 0.84127 0 
0.857143 0 0.873016 0 0.888889 0 0.904762 0 0.920635 
0 0.936508 0 0.952381 0 0.968254 0 0.984127 0 
1 0 
FIELD FieldData 4
Curvature 1 64 float
0.148811 0.0730315 0.0138388 0.0419577 0.0966647 0.15428 0.195937 0.187323 0.155247 
0.144515 0.162581 0.185083 0.177413 0.146745 0.11291 0.0834187 0.0586234 0.043338 
0.0635885 0.124861 0.261329 0.498967 0.49322 0.29364 0.206434 0.160562 0.122243 
0.102802 0.186381 0.384456 0.424605 0.287595 0.197798 0.145197 0.105291 0.0653645 
0.0332184 0.065399 0.122353 0.169862 0.17733 0.145555 0.107902 0.0815419 0.0705759 
0.0725117 0.0719311 0.0570708 0.0335374 0.0195435 0.0376116 0.0763157 0.128923 0.190452 
0.234531 0.230327 0.183137 0.135271 0.0999766 0.0738773 0.0587839 0.0583107 0.0908871 
0.175079 
Torsion 1 64 float
0.0132833 0.0510281 1.20584 0.165916 0.0338418 0.0276395 0.0430847 0.0839721 0.138722 
0.145967 0.10033 0.036067 -0.0172792 -0.0538952 -0.0904131 -0.139885 -0.265847 -0.502279 
-0.324272 -0.114872 -0.067464 -0.0742498 -0.0905061 -0.058032 -0.00198485 0.0861128 0.265596 
0.513569 0.349182 0.170133 0.0692419 0.0506903 0.0841487 0.136988 0.201168 0.388578 
1.15648 0.460868 0.179468 0.121567 0.0917377 0.0736787 0.0415578 -0.0283939 -0.102121 
-0.0943496 -0.0491619 -0.0126378 -0.00495926 -0.059858 0.0403474 0.0440232 0.0533039 0.0523079 
0.0386007 0.017215 -0.00709017 -0.0267373 -0.0528023 -0.0909548 -0.153945 -0.199198 -0.147939 
-0.0941672 
Abscissas 1 64 double
0 1.044006403 2.02835374 3.0430811757 4.058112685 5.0720390841 6.0850120613 7.0975925456 8.1107853791 
9.1243608114 10.137853377 11.150900512 12.163731389 13.177014041 14.190824612 15.20500861 16.219398693 17.233898806 
18.248418907 19.262725121 20.276080591 21.285226441 22.281824954 23.291242919 24.303197657 25.316245069 26.329831986 
27.34392112 28.358112695 29.370189334 30.373729286 31.382980806 32.395226243 33.408503111 34.42243181 35.436640414 
36.451141979 37.46573156 38.479927677 39.493447511 40.506375262 41.519618686 42.533493149 43.547672802 44.562019663 
45.576400742 46.59073813 47.605142192 48.619608733 49.63423143 50.648840862 51.663258765 52.677417396 53.690815449 
54.703069131 55.714713818 56.727141361 57.740682053 58.75465379 59.768807321 60.783835662 61.798503375 62.782508814 
63.826856552 
ParallelTransportNormals 3 64 double
0.31908765211 0 0.94772520821 0.31061692146 0.0022681110711 0.95053247381 0.31553285039 0.0006141761531 0.94891445511 
0.33078220785 -0.0041854879466 0.9436978397 0.35657464619 -0.0097096142475 0.93421638023 0.39035192971 -0.010607504768 0.9206046121 
0.41948728636 -0.0032938418924 0.90775523529 0.42489111401 -8.0719059044e-06 0.90524446487 0.40331243258 -0.022170558921 0.91479371885 
0.361757795 -0.085235015806 0.92836754028 0.3093879515 -0.19959397013 0.92975337728 0.26389812129 -0.35455111182 0.89702357309 
0.24430886418 -0.50011691628 0.83078050587 0.24761728679 -0.60074635179 0.76012466089 0.25963492746 -0.6571786867 0.7076057364 
0.26921312782 -0.68113053208 0.6808711259 0.26946157792 -0.68156362187 0.68033924432 0.25497667569 -0.66094271599 0.70579148552 
0.2178226179 -0.61170449634 0.76050701265 0.14139162455 -0.50407982703 0.85200465755 -0.0067749569666 -0.23693778293 0.97150120277 
-0.16567362538 0.35737716717 0.91914841578 -0.073630657799 0.82237030576 0.56416806578 0.089242891526 0.94803570011 0.30539158081 
0.2343918408 0.96188431366 0.14085109903 0.36811180289 0.92955576767 0.020488420332 0.48530882647 0.87141401672 -0.071504925797 
0.5689121642 0.81050427688 -0.13936199831 0.59637108194 0.78433719027 -0.17075334426 0.55927987298 0.82580694166 -0.072449422234 
0.56214469992 0.81384838733 0.14711947114 0.6125440438 0.73033473113 0.30232594151 0.67161129664 0.62581306891 0.39660593669 
0.72928854593 0.51100022201 0.45499119759 0.77724851516 0.39732545973 0.48787009001 0.80620757966 0.31173147229 0.50284473516 
0.812272315 0.28995543286 0.50610229523 0.7952743426 0.35236619401 0.49333232747 0.74336509291 0.50009551609 0.4441990696 
0.63527494884 0.69334169762 0.34015148055 0.48298818245 0.85087626024 0.2067172111 0.3334650241 0.93832526105 0.091360725518 
0.21127995952 0.9773903134 0.0083038531481 0.11261548276 0.99228641205 -0.051821129855 0.02296353546 0.99449543465 -0.10223260976 
-0.068020150526 0.98616758303 -0.15115143832 -0.15689243324 0.96749192767 -0.19835355878 -0.22673214133 0.94501030027 -0.23568637736 
-0.26267932883 0.93055420414 -0.25508516884 -0.25894312078 0.93215448078 -0.25305431069 -0.21366986601 0.94990955365 -0.22807241884 
-0.12097961393 0.97716379657 -0.1746849956 0.031728380326 0.99643255119 -0.078201539717 0.24139739977 0.96723730591 0.078608456563 
0.45200507948 0.84504607929 0.28563706343 0.58349093686 0.65229637079 0.48378483983 0.62733997022 0.46306216741 0.62611340098 
0.6239431907 0.30858624856 0.71796199201 0.60124467133 0.18618548986 0.77707130211 0.57283286636 0.090201288522 0.8146939516 
0.54610755277 0.017235473257 0.83753774797 0.52643341394 -0.032105616496 0.8496099635 0.51951019409 -0.050509191056 0.85297009318 
0.51951019409 -0.050509191056 0.85297009318 
