# vtk DataFile Version 4.2
vtk output
ASCII
DATASET POLYDATA
POINTS 64 float
0 0 0 -1.01959 -0.168239 0.166089 -1.97654 -0.224509 0.367624 
-2.97121 -0.260103 0.576561 -3.96767 -0.32138 0.760725 -4.96107 -0.468299 0.902387 
-5.92415 -0.769375 1.00061 -6.79872 -1.27379 1.08783 -7.53126 -1.96173 1.21955 
-8.12568 -2.75787 1.42287 -8.64246 -3.59816 1.66005 -9.15226 -4.45921 1.82516 
-9.68752 -5.30708 1.6981 -10.1284 -5.97643 1.08624 -10.3568 -6.43141 0.210172 
-10.3952 -6.80144 -0.733051 -10.2583 -7.16284 -1.67046 -9.94182 -7.54892 -2.55278 
-9.44919 -7.96435 -3.33533 -8.82357 -8.39801 -4.00553 -8.14029 -8.85258 -4.60204 
-7.4676 -9.3521 -5.17411 -6.84666 -9.92733 -5.73311 -6.29384 -10.6149 -6.22923 
-5.83066 -11.4838 -6.46459 -5.71495 -12.265 -5.8788 -5.99668 -12.5023 -4.93223 
-6.45321 -12.5069 -4.02774 -7.02036 -12.4159 -3.19189 -7.6434 -12.3045 -2.39887 
-8.2499 -12.2354 -1.58866 -8.74552 -12.2711 -0.705279 -9.07201 -12.4473 0.237943 
-9.26275 -12.761 1.18318 -9.37403 -13.199 2.09114 -9.42933 -13.7437 2.94499 
-9.41946 -14.3725 3.74082 -9.31825 -15.0646 4.47522 -9.09765 -15.8045 5.13267 
-8.74182 -16.5753 5.68707 -8.2505 -17.3484 6.12173 -7.62308 -18.0707 6.45756 
-6.84999 -18.658 6.74825 -5.95617 -19.0294 7.04793 -5.01304 -19.199 7.37971 
-4.06668 -19.2517 7.74134 -3.12743 -19.2533 8.125 -2.19489 -19.2245 8.52363 
-1.26922 -19.1458 8.93126 -0.355647 -18.9879 9.34304 0.540235 -18.7535 9.75739 
1.42252 -18.4907 10.1839 2.30039 -18.2821 10.6474 3.15916 -18.2301 11.1831 
3.92403 -18.4252 11.8169 4.48601 -18.8686 12.5328 4.81278 -19.4743 13.2766 
4.96378 -20.1726 13.9963 5.02759 -20.9435 14.6524 5.08352 -21.787 15.2127 
5.18283 -22.6903 15.6647 5.34159 -23.6235 16.0363 5.5463 -24.5232 16.3638 
5.82306 -25.4603 16.7399 
LINES 1 65
64 0 1 2 3 4 5 6 7 8 9 10 11 12 13 14 15 16 17 18 19 20 21 22 23 24 25 26 27 28 29 30 31 32 33 34 35 36 37 38 39 40 41 42 43 44 45 46 47 48 49 50 51 52 53 54 55 56 57 58 59 60 61 62 63 

POINT_DATA 64
SCALARS MaximumInscribedSphereRadius float
LOOKUP_TABLE default
0.93 1.15002 1.10894 0.939157 0.96842 1.1024 1.23373 1.24 1.23737 
1.12392 0.935115 0.990342 1.26661 1.32235 1.26349 1.24385 1.27057 1.4161 
1.7167 2.17568 2.07116 1.98403 1.97986 1.87761 1.42292 1.47367 1.55 
1.72287 1.71608 1.29228 1.45058 1.84615 1.87124 1.24366 1.21246 1.24 
1.31177 1.49729 1.55 1.55 1.55 1.55 1.35056 1.37713 1.49908 
1.37359 1.83071 2.14596 1.9234 2.08229 2.0789 1.89798 2.53059 2.15695 
1.67783 1.90506 1.85693 1.64326 1.55082 1.55 1.56458 1.7484 1.86 
1.86 
TEXTURE_COORDINATES TCoords 2 float
0 0 0.015873 0 0.031746 0 0.047619 0 0.0634921 
0 0.0793651 0 0.0952381 0 0.111111 0 0.126984 0 
0.142857 0 0.15873 0 0.174603 0 0.190476 0 0.206349 
0 0.222222 0 0.238095 0 0.253968 0 0.269841 0 
0.285714 0 0.301587 0 0.31746 0 0.333333 0 0.349206 
0 0.365079 0 0.380952 0 0.396825 0 0.412698 0 
0.428571 0 0.444444 0 0.460317 0 0.47619 0 0.492063 
0 0.507937 0 0.52381 0 0.539683 0 0.555556 0 
0.571429 0 0.587302 0 0.603175 0 0.619048 0 0.634921 
0 0.650794 0 0.666667 0 0.68254 0 0.698413 0 
0.714286 0 0.730159 0 0.746032 0 0.761905 0 0.777778 
0 0.793651 0 0.809524 0 0.825397 0 0.84127 0 
0.857143 0 0.873016 0 0.888889 0 0.904762 0 0.920635 
0 0.936508 0 0.952381 0 0.968254 0 0.984127 0 
1 0 
FIELD FieldData 4
Curvature 1 64 float
0.157491 0.0826368 0.0280036 0.0258613 0.0698312 0.117491 0.156616 0.168107 0.136358 
0.0673908 0.0738023 0.23078 0.403732 0.301241 0.16489 0.122238 0.132909 0.145788 
0.122949 0.0733707 0.0471853 0.065488 0.114261 0.282951 0.746724 0.595426 0.237465 
0.118281 0.0565237 0.0567195 0.12841 0.162289 0.138701 0.110996 0.0944886 0.084816 
0.0876642 0.104438 0.120972 0.127206 0.12435 0.143706 0.174743 0.152493 0.0916817 
0.0427727 0.0216007 0.0364288 0.0569316 0.0559435 0.0256778 0.0476939 0.1269 0.203056 
0.233486 0.200548 0.140088 0.0929115 0.0851997 0.0936163 0.0771701 0.0513263 0.0478198 
0.0668599 
Torsion 1 64 float
0.0249893 0.0710838 0.479727 0.60037 0.143593 0.147578 0.182323 0.188593 0.123308 
-0.342655 -0.440142 -0.00977014 0.0897862 0.18871 0.28229 0.249432 0.111762 0.0261342 
0.0463199 0.286738 0.535794 -0.0235569 -0.218392 -0.149702 -0.044447 0.0963326 0.147423 
0.180304 0.420864 0.349607 0.064577 -0.0681844 -0.182086 -0.153757 0.00633061 0.150998 
0.152307 0.0539181 0.00958357 0.0744558 0.282184 0.314331 0.179982 0.107685 0.10307 
0.125019 -0.163113 -0.15725 -0.030702 0.0667767 1.48581 0.304078 -0.00808222 -0.0743517 
-0.0952104 -0.0229079 0.135375 0.428078 0.401787 0.200912 0.213962 0.433894 0.440763 
0.191204 
Abscissas 1 64 double
0 1.0466392525 2.0261982765 3.0431987978 4.0583853428 5.0725337891 6.0863471226 7.0997149164 8.1132368275 
9.1273931006 10.1419882 11.156169752 12.16687795 13.175231655 14.188478224 15.202414273 16.216360647 17.23011891 
18.243850194 19.258063749 20.272622453 21.287165266 22.301530246 23.313704732 24.326087021 25.309353486 26.325068745 
27.338253344 28.352445341 29.367073312 30.381497686 31.395043662 32.408606738 33.422639317 34.436848072 35.451153461 
36.465467391 37.479661239 38.493740143 39.507696415 40.521604042 41.535583529 42.549038698 43.562280509 44.57634978 
45.59082057 46.605408162 47.619984978 48.634490296 49.648941403 50.663452784 51.678047056 52.69244418 53.705935205 
54.718255819 55.730648195 56.74400358 57.758099709 58.772410903 59.786588703 60.801534928 61.818469508 62.797560409 
63.844559328 
ParallelTransportNormals 3 64 double
0.16077860672 0 0.98699049622 0.20579479085 0.0050341040648 0.97858222028 0.20539576927 0.0050152357516 0.97866614603 
0.18150998593 0.0038528881487 0.98338155375 0.1412275123 -0.00036269564825 0.98997709985 0.10419379607 -0.0088431844464 0.99451769766 
0.10426411391 -0.008812360221 0.99451060168 0.15239080825 0.026893375851 0.98795434505 0.21024860754 0.091598295498 0.97334745867 
0.23472436822 0.12764224421 0.96364512579 0.199520338 0.069298750566 0.97744018635 0.048381985706 -0.17783449379 0.98287032526 
-0.21060373229 -0.58036762953 0.78665080089 -0.33893117603 -0.79588003158 0.50169775088 -0.36069775768 -0.86317361788 0.35331067492 
-0.35738547518 -0.88776974862 0.29006981155 -0.35153589447 -0.89741354227 0.26659228992 -0.3479618863 -0.90095397397 0.25923823498 
-0.34756444366 -0.90125576021 0.25872188194 -0.35895329845 -0.89352716599 0.2697438288 -0.39227714825 -0.87007977371 0.29846243708 
-0.4490134639 -0.82294269686 0.34806928465 -0.53236752773 -0.73325129351 0.42299805672 -0.68054675596 -0.50625168413 0.5296841939 
-0.91019238645 0.15361436359 0.38464587214 -0.85643451984 0.49971688088 -0.12962620175 -0.75682768246 0.53230544582 -0.37929246158 
-0.67634302543 0.52551579918 -0.51613298361 -0.63545413544 0.51856243721 -0.57209355919 -0.66072507656 0.52227220266 -0.53914202166 
-0.7511336143 0.52500841686 -0.40020551682 -0.84221461841 0.50153236486 -0.19783787185 -0.88885112775 0.45736568036 -0.027573667041 
-0.90752226094 0.41089666306 0.08699010394 -0.91560037358 0.36324276455 0.17242578087 -0.91782107721 0.30588047524 0.25306442874 
-0.91138426494 0.22934120288 0.34173284052 -0.88840444887 0.12708715573 0.44111947369 -0.8405359803 0.0016355843387 0.54175325627 
-0.7662923517 -0.1336702757 0.6284332018 -0.67135205623 -0.26057588385 0.69382031201 -0.55822439007 -0.36635461347 0.74442583749 
-0.4430265262 -0.43260700425 0.78522523963 -0.36720996761 -0.45493931564 0.81128728499 -0.33942729376 -0.45820830416 0.82148296528 
-0.33676554225 -0.45828495931 0.82253502395 -0.33734919388 -0.45829344035 0.82229109439 -0.32546966582 -0.45760618151 0.82744551439 
-0.29963111834 -0.45428227127 0.838956978 -0.27560005569 -0.44907223826 0.84992866414 -0.27674814368 -0.44939325863 0.84938575692 
-0.3255438818 -0.4624614404 0.82471243301 -0.44316599872 -0.48010709236 0.75703439648 -0.63249620931 -0.4634033489 0.62064956412 
-0.82826106877 -0.36920017013 0.42151493014 -0.94601961531 -0.23022296446 0.22813214171 -0.98875769881 -0.11359467566 0.09723406147 
-0.99801243323 -0.050299636534 0.037962213972 -0.99847264322 -0.04409478635 0.033287093045 -0.99512108267 -0.081810875331 0.055145366971 
-0.98746557626 -0.13630107295 0.079584880598 -0.97748779744 -0.18647909461 0.098707411757 -0.96421261571 -0.23734422569 0.11815985037 
-0.96421261571 -0.23734422569 0.11815985037 
