# vtk DataFile Version 4.2
vtk output
ASCII
DATASET POLYDATA
POINTS 64 float
0 0 0 -0.821064 -0.535507 0.369001 -1.66674 -0.870244 0.727126 
-2.59469 -1.0775 1.09022 -3.5472 -1.18198 1.4249 -4.51126 -1.27316 1.72708 
-5.46878 -1.45945 2.00459 -6.37631 -1.82111 2.27529 -7.19502 -2.34883 2.55745 
-7.93974 -2.97177 2.85158 -8.66197 -3.62859 3.12784 -9.41378 -4.28364 3.31301 
-10.2121 -4.90561 3.27248 -10.962 -5.44664 2.86468 -11.5029 -5.88671 2.13125 
-11.7797 -6.26862 1.23465 -11.8116 -6.63132 0.28869 -11.6381 -6.9927 -0.642616 
-11.3071 -7.36243 -1.52713 -10.8664 -7.75229 -2.35345 -10.3578 -8.18464 -3.11706 
-9.81766 -8.70559 -3.79948 -9.29505 -9.41575 -4.30775 -9.00499 -10.3346 -4.151 
-9.09108 -10.8233 -3.27651 -9.28171 -10.8758 -2.28454 -9.49633 -10.6517 -1.31935 
-9.7324 -10.2433 -0.421644 -10.0016 -9.7505 0.423321 -10.2851 -9.26576 1.2683 
-10.523 -8.86076 2.16715 -10.6515 -8.60173 3.13855 -10.6442 -8.54587 4.15025 
-10.5174 -8.72438 5.13949 -10.3006 -9.16047 6.02725 -10.0303 -9.88712 6.676 
-9.78949 -10.8496 6.8417 -9.67603 -11.7978 6.50758 -9.67908 -12.6547 5.96517 
-9.76431 -13.4971 5.40641 -9.91029 -14.3963 4.96143 -10.0772 -15.3724 4.74808 
-10.1981 -16.3772 4.79947 -10.2134 -17.361 5.04396 -10.0777 -18.2989 5.40419 
-9.74597 -19.1518 5.8394 -9.18174 -19.8317 6.33367 -8.41781 -20.2201 6.87166 
-7.58174 -20.3092 7.43739 -6.76665 -20.2319 8.03629 -5.98792 -20.1221 8.67724 
-5.22894 -20.047 9.3463 -4.4645 -20.0073 10.0122 -3.66943 -19.9554 10.6402 
-2.83451 -19.8276 11.2017 -1.97671 -19.5891 11.6875 -1.1207 -19.2589 12.1205 
-0.276052 -18.8981 12.5515 0.55718 -18.6019 13.0479 1.34708 -18.5204 13.6759 
1.95783 -18.8205 14.4214 2.26991 -19.4511 15.1532 2.34138 -20.1942 15.7835 
2.22906 -21.0466 16.3821 
LINES 1 65
64 0 1 2 3 4 5 6 7 8 9 10 11 12 13 14 15 16 17 18 19 20 21 22 23 24 25 26 27 28 29 30 31 32 33 34 35 36 37 38 39 40 41 42 43 44 45 46 47 48 49 50 51 52 53 54 55 56 57 58 59 60 61 62 63 

POINT_DATA 64
SCALARS MaximumInscribedSphereRadius float
LOOKUP_TABLE default
1.24 1.05122 1.20613 1.76312 1.86 1.86 1.764 1.26257 1.116 
1.08475 0.970731 0.785464 0.715146 0.9195 0.948644 1.10244 1.15793 0.976189 
0.93 1.09312 1.47604 1.73498 1.58284 1.42712 1.39055 1.33937 1.61071 
1.9863 1.78551 1.66694 1.78439 1.60712 1.70561 1.84641 1.86 1.84396 
1.53798 1.24 1.24 1.24 1.24 1.2072 1.03788 1.02225 1.22041 
1.42587 1.55 1.58598 1.75225 1.52662 1.31127 1.49697 1.55 1.55 
1.60374 1.92736 2.01026 1.62703 1.55334 1.7049 1.93855 1.9152 2.15078 
2.48 
TEXTURE_COORDINATES TCoords 2 float
0 0 0.015873 0 0.031746 0 0.047619 0 0.0634921 
0 0.0793651 0 0.0952381 0 0.111111 0 0.126984 0 
0.142857 0 0.15873 0 0.174603 0 0.190476 0 0.206349 
0 0.222222 0 0.238095 0 0.253968 0 0.269841 0 
0.285714 0 0.301587 0 0.31746 0 0.333333 0 0.349206 
0 0.365079 0 0.380952 0 0.396825 0 0.412698 0 
0.428571 0 0.444444 0 0.460317 0 0.47619 0 0.492063 
0 0.507937 0 0.52381 0 0.539683 0 0.555556 0 
0.571429 0 0.587302 0 0.603175 0 0.619048 0 0.634921 
0 0.650794 0 0.666667 0 0.68254 0 0.698413 0 
0.714286 0 0.730159 0 0.746032 0 0.761905 0 0.777778 
0 0.793651 0 0.809524 0 0.825397 0 0.84127 0 
0.857143 0 0.873016 0 0.888889 0 0.904762 0 0.920635 
0 0.936508 0 0.952381 0 0.968254 0 0.984127 0 
1 0 
FIELD FieldData 4
Curvature 1 64 float
0.142645 0.14032 0.120654 0.0802495 0.0389238 0.0730718 0.133443 0.141875 0.0951104 
0.0411439 0.0798644 0.182808 0.281592 0.295874 0.231709 0.182296 0.149235 0.119889 
0.091922 0.0738056 0.0987068 0.209308 0.582337 0.723465 0.339625 0.202465 0.143892 
0.0768071 0.0332756 0.0806681 0.143549 0.180403 0.189337 0.210401 0.276494 0.396781 
0.387772 0.199692 0.0790437 0.105414 0.179395 0.197398 0.161306 0.141166 0.164835 
0.218996 0.261231 0.227939 0.128446 0.0551973 0.0395934 0.029852 0.0385997 0.0789077 
0.0994263 0.0803632 0.0362557 0.0774532 0.19576 0.322066 0.33645 0.244425 0.171301 
0.127352 
Torsion 1 64 float
-0.0201394 -0.0371904 -0.0714671 -0.216712 -1.03392 -0.414376 -0.139501 -0.095211 -0.00114118 
0.666514 0.282692 -0.062827 -0.127008 -0.180338 -0.184002 -0.133994 -0.0942643 -0.0968435 
-0.160108 -0.317652 -0.261086 -0.0593244 0.0604239 0.131817 0.0748893 -0.00563803 -0.129777 
-0.394061 -0.946984 -0.198631 -0.0166888 0.0648426 0.0878719 0.0778811 0.0573612 0.0489905 
0.074569 0.207221 0.857719 0.444751 0.169186 0.179294 0.259821 0.237402 0.0793072 
-0.0323736 -0.0981502 -0.15671 -0.339704 -0.800322 -0.606511 -0.956814 -0.775621 -0.226159 
-0.121142 -0.136674 -0.718803 -0.442573 -0.0528884 -0.00940543 0.0278298 0.0428651 0.0388527 
0.0321303 
Abscissas 1 64 double
0 1.0474137651 2.0248953158 3.0426790526 4.0576676752 5.0720829319 6.0862625835 7.1000114826 8.1141067747 
9.1285891759 10.143157244 11.157354727 12.170174606 13.180800154 14.192805381 15.205902029 16.219513989 17.233431474 
18.247643449 19.262045911 20.276294853 21.290610713 22.308346829 23.28456014 24.290031128 25.301515489 26.315356929 
27.329455139 28.343993076 29.358554003 30.372730082 31.386251899 32.399519088 33.412702293 34.425270455 35.436190615 
36.442079816 37.453807598 38.467955406 39.482407772 40.496251391 41.509241274 42.522591462 43.536432526 44.55025579 
45.563611548 46.575995641 47.587863606 48.60127504 49.615685343 50.63022656 51.644786213 52.659363922 53.673865192 
54.68811713 55.702368097 56.716899459 57.731477376 58.745589156 59.757996563 60.767375278 61.782550978 62.759579509 
63.807206597 
ParallelTransportNormals 3 64 double
0.40992322844 0 0.91212002871 0.39289472336 -0.0088156456051 0.91954120122 0.36754848256 -0.016605165191 0.92985610793 
0.33358660183 -0.022232591875 0.94245726213 0.30119753641 -0.02553907797 0.95321970162 0.28330008251 -0.028123516749 0.95861886642 
0.2947930518 -0.024746643538 0.9552406295 0.32971393828 -0.0067557089773 0.94405671403 0.35741988621 0.013634925374 0.93384426633 
0.35092427018 0.0079681909681 0.93636994 0.28223989764 -0.053159460756 0.95786988256 0.10542865703 -0.19881364685 0.97435000493 
-0.18396953833 -0.41619632755 0.89046944131 -0.42709628374 -0.60098254706 0.67558030059 -0.53250074905 -0.70692426907 0.46551157886 
-0.55798557284 -0.7683838478 0.31342999688 -0.55025968587 -0.8078991121 0.21098175935 -0.53296647265 -0.83296117179 0.14873609286 
-0.52052699529 -0.84520557027 0.12115771195 -0.52430472232 -0.84193360445 0.12748475927 -0.55930376601 -0.81011966216 0.17574251142 
-0.66046805297 -0.69296259905 0.28911033761 -0.89600318255 -0.21673158822 0.38756382124 -0.96586418468 0.25470289742 0.04725262747 
-0.9347338431 0.31580168303 -0.16291697135 -0.91177356431 0.30609689283 -0.27381318382 -0.89087722262 0.27677182713 -0.36018763155 
-0.87318565282 0.24521731029 -0.42120694017 -0.8703655636 0.24022952141 -0.4298296904 -0.89120249324 0.27578659817 -0.36013867927 
-0.92069415793 0.32923600471 -0.20958511579 -0.93269661925 0.36042133568 -0.0131710752 -0.91969784785 0.3485320242 0.18077969126 
-0.88704433825 0.2901216791 0.35914029752 -0.83333158411 0.16189097836 0.5285355069 -0.76039388541 -0.079273970741 0.64460590797 
-0.71829278112 -0.30610627422 0.62478350608 -0.71422504995 -0.37253032767 0.59254006867 -0.71235146119 -0.33646045812 0.61591375683 
-0.69738424374 -0.22372686616 0.68088288709 -0.66807451486 -0.048061495177 0.74254059504 -0.64421106644 0.11617726925 0.75597284606 
-0.63881861003 0.19489574208 0.74426234165 -0.63873731602 0.19359822955 0.74467064307 -0.62654239949 0.14688256875 0.76542153918 
-0.59303458237 0.089567982342 0.80017970522 -0.55466793857 0.058711238464 0.82999787253 -0.55513220304 0.058849863615 0.82967760648 
-0.59471396245 0.059134670016 0.80175956101 -0.63909322148 0.053925029352 0.76723656422 -0.66324726006 0.051020678687 0.74665920095 
-0.6574834504 0.051455027295 0.75170997906 -0.6210954533 0.05359234608 0.78190044017 -0.56335768344 0.059957983027 0.82403468421 
-0.50663573231 0.072232479663 0.85912903782 -0.47504942002 0.082713663081 0.87606306764 -0.48015376414 0.080639702498 0.87346986277 
-0.52706201553 0.062272445041 0.84754219622 -0.62433763484 0.039646842448 0.78014783574 -0.75996584705 0.060873747199 0.64710609503 
-0.85348053453 0.15500283219 0.49753904289 -0.88079005013 0.25415751904 0.39951576077 -0.87879546543 0.34633579286 0.32828348806 
-0.87879546543 0.34633579286 0.32828348806 
