# vtk DataFile Version 4.2
vtk output
ASCII
DATASET POLYDATA
POINTS 64 float
0 0 0 -0.827681 0.188902 0.613051 -1.70803 0.357177 0.994664 
-2.67897 0.459054 1.30015 -3.66336 0.406119 1.5341 -4.60976 0.114407 1.74762 
-5.44936 -0.401236 1.98734 -6.21152 -0.999081 2.28923 -6.97656 -1.55823 2.65145 
-7.78674 -2.03522 3.03247 -8.65763 -2.43253 3.36815 -9.59108 -2.7797 3.55733 
-10.5311 -3.12242 3.41219 -11.2426 -3.46655 2.78642 -11.5713 -3.76263 1.87472 
-11.6263 -3.99365 0.889028 -11.5017 -4.18903 -0.0984216 -11.2287 -4.42451 -1.04626 
-10.8216 -4.76196 -1.91142 -10.3146 -5.17766 -2.6855 -9.7421 -5.62787 -3.39136 
-9.12277 -6.09361 -4.04836 -8.45908 -6.5836 -4.6338 -7.72129 -7.15701 -5.00103 
-7.30116 -7.64977 -4.31311 -7.44986 -7.7528 -3.2929 -7.69742 -7.79511 -2.31244 
-8.01351 -7.78377 -1.34888 -8.35407 -7.68841 -0.397861 -8.62416 -7.45817 0.551934 
-8.68908 -7.1253 1.50706 -8.51709 -6.85395 2.46841 -8.1955 -6.797 3.4277 
-7.83251 -7.04832 4.33901 -7.52115 -7.65234 5.08849 -7.31583 -8.53715 5.53334 
-7.21047 -9.53884 5.64461 -7.15747 -10.5464 5.54027 -7.11452 -11.5453 5.36731 
-7.05389 -12.5529 5.26725 -6.96088 -13.5583 5.35656 -6.83335 -14.5249 5.63618 
-6.659 -15.4452 6.02568 -6.40182 -16.3236 6.46298 -6.00076 -17.1372 6.91612 
-5.39114 -17.8063 7.37117 -4.57978 -18.2166 7.81685 -3.67421 -18.3503 8.2527 
-2.76553 -18.306 8.70148 -1.88246 -18.1824 9.18543 -1.02491 -18.0389 9.70829 
-0.183412 -17.9042 10.2589 0.654438 -17.7854 10.8186 1.4975 -17.6753 11.3723 
2.34541 -17.5606 11.9175 3.19239 -17.4355 12.4619 4.03475 -17.3095 13.0133 
4.87146 -17.2084 13.5782 5.69834 -17.1786 14.1651 6.49234 -17.2989 14.784 
7.17353 -17.6853 15.4249 7.59387 -18.4012 16.0146 7.71786 -19.2596 16.4567 
7.61306 -20.2454 16.7955 
LINES 1 65
64 0 1 2 3 4 5 6 7 8 9 10 11 12 13 14 15 16 17 18 19 20 21 22 23 24 25 26 27 28 29 30 31 32 33 34 35 36 37 38 39 40 41 42 43 44 45 46 47 48 49 50 51 52 53 54 55 56 57 58 59 60 61 62 63 

POINT_DATA 64
SCALARS MaximumInscribedSphereRadius float
LOOKUP_TABLE default
0.93 1.32692 1.4751 1.30495 1.25638 1.2628 1.33998 1.47975 1.34095 
1.06488 1.19527 1.17692 0.759481 1.10077 1.24 1.0897 0.889119 0.919969 
0.93 0.93 0.959627 1.14301 1.43091 1.74714 1.48783 1.29018 1.43144 
1.46646 1.2533 1.01969 1.23523 1.54809 1.51649 1.3316 1.24 1.37892 
1.76955 1.86 1.81414 1.6187 1.55013 1.56956 1.75387 1.85448 1.86 
1.50989 1.24 1.24 1.24 1.24 1.24 1.24 1.27424 1.47332 
1.67939 1.8396 1.67594 1.55771 1.58669 1.73358 1.93863 2.09101 2.00865 
1.86 
TEXTURE_COORDINATES TCoords 2 float
0 0 0.015873 0 0.031746 0 0.047619 0 0.0634921 
0 0.0793651 0 0.0952381 0 0.111111 0 0.126984 0 
0.142857 0 0.15873 0 0.174603 0 0.190476 0 0.206349 
0 0.222222 0 0.238095 0 0.253968 0 0.269841 0 
0.285714 0 0.301587 0 0.31746 0 0.333333 0 0.349206 
0 0.365079 0 0.380952 0 0.396825 0 0.412698 0 
0.428571 0 0.444444 0 0.460317 0 0.47619 0 0.492063 
0 0.507937 0 0.52381 0 0.539683 0 0.555556 0 
0.571429 0 0.587302 0 0.603175 0 0.619048 0 0.634921 
0 0.650794 0 0.666667 0 0.68254 0 0.698413 0 
0.714286 0 0.730159 0 0.746032 0 0.761905 0 0.777778 
0 0.793651 0 0.809524 0 0.825397 0 0.84127 0 
0.857143 0 0.873016 0 0.888889 0 0.904762 0 0.920635 
0 0.936508 0 0.952381 0 0.968254 0 0.984127 0 
1 0 
FIELD FieldData 4
Curvature 1 64 float
0.264091 0.164341 0.117959 0.141423 0.201874 0.200465 0.120652 0.0819893 0.0818516 
0.0906714 0.146591 0.283778 0.434781 0.38259 0.228465 0.140127 0.127748 0.15555 
0.153309 0.110801 0.0656808 0.0901078 0.269082 0.99259 0.683664 0.162888 0.0680161 
0.0948102 0.147299 0.192928 0.202395 0.21206 0.247125 0.309714 0.336518 0.292279 
0.178968 0.0578733 0.0622927 0.15173 0.160265 0.106425 0.0844767 0.131008 0.209268 
0.262823 0.2325 0.146451 0.0730252 0.0409351 0.028259 0.0190041 0.0121607 0.0109967 
0.0152717 0.0145458 0.0224861 0.0612172 0.129249 0.231869 0.332802 0.331634 0.258047 
0.189975 
Torsion 1 64 float
0.117683 0.259073 0.43049 0.334691 0.19673 0.242358 0.586186 0.574765 0.423946 
0.48155 0.360903 0.182221 0.0911879 0.0172428 -0.0138899 0.198548 0.438131 0.135136 
-0.0493015 -0.0573621 0.00978499 0.0699742 0.02982 0.0226864 0.0423019 0.0208334 -0.213447 
-0.340827 -0.354207 -0.496321 -0.562958 -0.411791 -0.209239 -0.0388396 0.0410522 0.0560822 
0.0610349 0.156329 0.242522 0.0195636 -0.0650737 -0.288697 -0.421662 -0.111825 0.0607168 
0.0986295 0.143886 0.237879 0.423781 0.535045 0.469707 0.532275 0.762309 0.787631 
0.297551 0.39634 0.378805 0.0709447 0.00089284 -0.013991 -0.0116363 -0.00685443 -0.00351915 
-0.00186517 
Abscissas 1 64 double
0 1.0471730225 2.0213184385 3.0442677714 4.0574599734 5.070553757 6.0845960051 7.0992115203 8.1136753717 
9.1281145211 10.142503971 11.156232015 12.167251934 13.175342149 14.188704634 15.202600048 16.216875748 17.230965373 
18.244920259 19.259343813 20.273584502 21.2895231 22.301113817 23.305101085 24.249852698 25.28597769 26.298093425 
27.312237827 28.326886485 29.340824164 30.354373802 31.367983797 32.381344768 33.393969627 34.405654321 35.417057938 
36.430401126 37.444734676 38.459407008 39.473777413 40.487412362 41.501694052 42.5161198 43.530496673 44.54446316 
45.557578013 46.57014047 47.583993293 48.598421857 49.61296464 50.627542013 51.642152311 52.656731046 53.671353911 
54.685922879 55.700514794 56.715151886 57.729753805 58.744184625 59.758061332 60.770028396 61.788332557 62.76181901 
63.809468781 
ParallelTransportNormals 3 64 double
0.59519868554 0 0.80357857409 0.40381312161 0.039893903028 0.91397124644 0.30487251117 0.054436060249 0.95083619371 
0.22798428466 0.056331341998 0.97203392217 0.20446406337 0.052132824694 0.97748484151 0.23602385302 0.066397067329 0.96947623501 
0.29313504699 0.10609740909 0.95016587184 0.33814058411 0.14019313548 0.93059487971 0.34868740419 0.14713055291 0.925618547 
0.30656739764 0.12522462079 0.9435757654 0.17302306745 0.070125360539 0.98241816552 -0.13677425791 -0.043953456112 0.98962664479 
-0.57862706194 -0.22775283124 0.78314709413 -0.82446416006 -0.37894232998 0.42031126481 -0.87811083011 -0.45262700665 0.1550811494 
-0.87217450309 -0.48901417367 -0.013295642349 -0.85071220469 -0.51227122873 -0.11775794244 -0.82683383668 -0.53238680541 -0.18141139968 
-0.80115365708 -0.55354538489 -0.22746499646 -0.77543970322 -0.5741715315 -0.26271718458 -0.75216474395 -0.59205923258 -0.28933382637 
-0.72727350824 -0.61060051019 -0.31343302503 -0.67710871244 -0.64866769291 -0.34749678519 -0.48970392565 -0.82227400872 -0.28992329982 
-0.46613497471 -0.87087112789 -0.15588990975 -0.46625054668 -0.87091318683 -0.1553082378 -0.46958866708 -0.8710969425 -0.14379360388 
-0.48873101284 -0.86798704107 -0.087980075198 -0.53393395474 -0.84388024456 0.052732009473 -0.56627686199 -0.78950768232 0.23666037932 
-0.56182923117 -0.76440697171 0.31627503316 -0.5811804103 -0.77727671439 0.24097767521 -0.65093302119 -0.75746118061 0.050386127048 
-0.75102324866 -0.63047877868 -0.19611371599 -0.83465614026 -0.38947452929 -0.38943384364 -0.87519958698 -0.14337840441 -0.46202631537 
-0.88660129564 0.0012613229493 -0.46253275737 -0.88849855528 0.040935166427 -0.45704992004 -0.88600979903 -0.0072745893952 -0.46360944378 
-0.87722308369 -0.12238961405 -0.46422025357 -0.86386899923 -0.24180437079 -0.44188346703 -0.84911262988 -0.33404022132 -0.40917584523 
-0.82727115378 -0.42507923769 -0.36732829978 -0.77819551547 -0.55122115673 -0.30094347654 -0.65692974722 -0.72909900369 -0.19198424427 
-0.42966477995 -0.90171544123 -0.047931617226 -0.18266071173 -0.98000551512 0.078893946098 -0.028048384623 -0.98762853204 0.15428276256 
0.034899215457 -0.98173004313 0.18705124209 0.046022802299 -0.98002312353 0.19348534575 0.035082772309 -0.981814432 0.18657336413 
0.021067439239 -0.98393006461 0.17730705277 0.014857800726 -0.98477566591 0.17319391901 0.019729225994 -0.98412805177 0.17635967614 
0.028287166091 -0.98291723276 0.18186134769 0.028074386171 -0.98294885999 0.18172332675 0.0062377881152 -0.98590230968 0.16720563914 
-0.053581183808 -0.99060894639 0.12578939574 -0.17607244207 -0.98376665863 0.034664917728 -0.3835164827 -0.91247305803 -0.14250623098 
-0.61094615229 -0.68526496937 -0.39642996956 -0.70761981385 -0.40162348408 -0.5813542604 -0.71124822752 -0.1596604561 -0.68456884066 
-0.71124822752 -0.1596604561 -0.68456884066 
