# vtk DataFile Version 4.2
vtk output
ASCII
DATASET POLYDATA
POINTS 64 float
0 0 0 -0.765609 -0.0282471 0.686972 -1.58753 0.0406513 1.2542 
-2.46946 0.128777 1.74401 -3.39315 0.17748 2.16002 -4.34573 0.130026 2.50444 
-5.30059 -0.0750595 2.77519 -6.20057 -0.495354 2.97273 -6.97124 -1.1373 3.11343 
-7.5935 -1.92949 3.2281 -8.12724 -2.78692 3.32379 -8.64142 -3.66075 3.33167 
-9.11838 -4.51046 3.06551 -9.38953 -5.24656 2.43028 -9.37051 -5.8816 1.64195 
-9.1046 -6.48852 0.875466 -8.65962 -7.08204 0.184277 -8.10596 -7.65912 -0.439674 
-7.48843 -8.22982 -1.00718 -6.8219 -8.81739 -1.49629 -6.09481 -9.47341 -1.75169 
-5.65157 -10.0406 -1.127 -5.81973 -10.2355 -0.151219 -6.28985 -10.2711 0.744312 
-6.97275 -10.1522 1.48184 -7.74776 -9.84518 2.05763 -8.48649 -9.36035 2.55447 
-9.10546 -8.74558 3.07052 -9.52508 -8.06768 3.69418 -9.58695 -7.47418 4.50458 
-9.10514 -7.37543 5.36565 -8.43759 -7.87589 5.93099 -7.91633 -8.67666 6.2634 
-7.61366 -9.61781 6.48423 -7.49701 -10.6065 6.67711 -7.45426 -11.5928 6.9105 
-7.29369 -12.5324 7.25163 -6.81678 -13.284 7.72573 -6.08161 -13.7283 8.26013 
-5.2499 -13.9206 8.8061 -4.39776 -13.9201 9.35526 -3.55997 -13.7526 9.90123 
-2.75007 -13.4534 10.4335 -1.94651 -13.104 10.9451 -1.10278 -12.824 11.4328 
-0.203104 -12.7247 11.8881 0.71019 -12.8454 12.3104 1.58045 -13.1538 12.7289 
2.35582 -13.6161 13.1897 2.95908 -14.2225 13.7314 3.27128 -14.9599 14.3482 
3.21538 -15.7656 14.9562 2.8559 -16.5629 15.4666 2.3165 -17.3246 15.8625 
1.68998 -18.0592 16.1737 1.03587 -18.7884 16.438 0.40024 -19.5427 16.6751 
-0.165793 -20.3628 16.8625 -0.59074 -21.2798 16.9254 -0.811969 -22.2585 16.7921 
-0.853158 -23.2226 16.4826 -0.794207 -24.1419 16.0624 -0.707892 -25.0148 15.5804 
-0.663954 -25.8886 15.0368 
LINES 1 65
64 0 1 2 3 4 5 6 7 8 9 10 11 12 13 14 15 16 17 18 19 20 21 22 23 24 25 26 27 28 29 30 31 32 33 34 35 36 37 38 39 40 41 42 43 44 45 46 47 48 49 50 51 52 53 54 55 56 57 58 59 60 61 62 63 

POINT_DATA 64
SCALARS MaximumInscribedSphereRadius float
LOOKUP_TABLE default
0.93 1.39746 1.45724 1.27435 1.24968 1.11171 0.966041 1.18903 1.24 
1.24 1.24 1.24 1.45098 1.55 1.18674 0.718944 0.857648 1.17085 
1.54378 1.84825 1.77353 2.06292 1.70077 1.72428 1.86 1.86 1.86 
2.04627 2.32693 1.92353 1.86 1.86 1.74899 1.62041 1.84233 1.84222 
1.59992 1.57542 1.74942 1.8593 1.86 1.86 1.97628 2.1075 1.93054 
2.02255 2.23563 2.43035 2.32713 2.16764 2.07448 1.92305 1.86 1.93245 
2.31632 2.48 2.48 2.48 2.15368 1.94599 2.14388 1.96762 1.66611 
1.24 
TEXTURE_COORDINATES TCoords 2 float
0 0 0.015873 0 0.031746 0 0.047619 0 0.0634921 
0 0.0793651 0 0.0952381 0 0.111111 0 0.126984 0 
0.142857 0 0.15873 0 0.174603 0 0.190476 0 0.206349 
0 0.222222 0 0.238095 0 0.253968 0 0.269841 0 
0.285714 0 0.301587 0 0.31746 0 0.333333 0 0.349206 
0 0.365079 0 0.380952 0 0.396825 0 0.412698 0 
0.428571 0 0.444444 0 0.460317 0 0.47619 0 0.492063 
0 0.507937 0 0.52381 0 0.539683 0 0.555556 0 
0.571429 0 0.587302 0 0.603175 0 0.619048 0 0.634921 
0 0.650794 0 0.666667 0 0.68254 0 0.698413 0 
0.714286 0 0.730159 0 0.746032 0 0.761905 0 0.777778 
0 0.793651 0 0.809524 0 0.825397 0 0.84127 0 
0.857143 0 0.873016 0 0.888889 0 0.904762 0 0.920635 
0 0.936508 0 0.952381 0 0.968254 0 0.984127 0 
1 0 
FIELD FieldData 4
Curvature 1 64 float
0.141427 0.093384 0.0619904 0.0544324 0.0714927 0.102518 0.137757 0.15655 0.125063 
0.0651205 0.0685467 0.181245 0.269207 0.214637 0.157621 0.124196 0.0815285 0.0486405 
0.0696497 0.199866 0.649921 0.479712 0.211307 0.180533 0.161124 0.122704 0.105708 
0.139784 0.249113 0.468353 0.431927 0.244925 0.167839 0.114067 0.0622555 0.11131 
0.240788 0.244345 0.15982 0.111107 0.0970457 0.0808201 0.036494 0.0511889 0.113141 
0.134165 0.113266 0.106801 0.139722 0.195198 0.221043 0.188359 0.128282 0.0727433 
0.0319698 0.0299763 0.0685361 0.127519 0.171354 0.152887 0.0953774 0.0487224 0.0468695 
0.106315 
Torsion 1 64 float
-0.092431 -0.170316 -0.302088 -0.332678 -0.190855 -0.117862 -0.0952694 -0.0872403 -0.0714903 
0.233558 0.30105 -0.0559216 -0.191014 -0.275854 -0.186563 -0.031561 -0.0215532 -0.146772 
-0.119326 -0.0342061 -0.0517477 -0.120609 -0.0411988 0.105798 0.255061 0.356081 0.374396 
0.243142 0.124477 0.115053 0.159312 0.202289 0.187139 0.209233 0.611392 0.295301 
0.0562137 -0.0282683 -0.0644165 -0.0569486 -0.0238724 0.0371906 0.441242 0.480657 0.0687017 
0.0918034 0.181232 0.199583 0.0815582 -0.00908859 -0.0530255 -0.0671477 -0.0653798 -0.0742598 
-0.393152 -0.40194 0.0480167 0.0736683 0.0508894 0.0432313 0.0925125 0.373363 0.447156 
0.123468 
Abscissas 1 64 double
0 1.0290216899 2.0300454973 3.0427055975 4.0569244028 5.070968358 6.0844394585 7.0971751394 8.110004523 
9.123869291 10.138374781 11.152288953 12.162406926 13.171804458 14.184277392 15.197469449 16.211380069 17.225715458 
18.240163517 19.254426664 20.26647908 21.219581488 22.228745747 23.24080123 24.252946088 25.266077622 26.279799807 
27.293394052 28.305609455 29.311998324 30.303630728 31.311446368 32.32309866 33.336084137 34.350143634 35.364582904 
36.377005883 37.385528135 38.397190297 39.410503929 40.424268919 41.43818791 42.452470999 43.467125148 44.48109352 
45.494293874 46.507709866 47.521418617 48.534955405 49.547418404 50.558195503 51.569106754 52.581738266 53.595580214 
54.609981513 55.624598351 56.639097912 57.653039238 58.665672002 59.677878525 60.691278777 61.703776224 62.704640371 
63.734668778 
ParallelTransportNormals 3 64 double
0.66784889088 0 0.74429688898 0.56814249044 0.0026360035516 0.82292597604 0.48628028311 0.010176486029 0.87374362681 
0.41129510387 0.015860173556 0.91136424794 0.33927848011 0.015907795546 0.94055146323 0.27141232197 0.0069209320326 0.96243828487 
0.21914422208 -0.010704228575 0.97563375783 0.19864871032 -0.023735608402 0.97978329787 0.2038198324 -0.01841208784 0.97883526241 
0.20419456758 -0.017877357802 0.97876707068 0.16250272145 -0.086756661143 0.98288664009 0.031387302919 -0.31476962233 0.94864899835 
-0.11470122714 -0.62446412221 0.77258539241 -0.14197420215 -0.77253784982 0.61889304126 -0.13587856072 -0.79911605287 0.58561980054 
-0.13903903453 -0.79377863956 0.59210102031 -0.14471757829 -0.78712211305 0.59957952073 -0.1558786995 -0.77618404472 0.61093384239 
-0.18924366711 -0.74608765525 0.63838863175 -0.31955538744 -0.62980321541 0.70797758736 -0.84505010355 -0.077744861728 0.52900478161 
-0.96421316491 0.23700879428 -0.11882678171 -0.85540413208 0.27636814388 -0.43806896702 -0.68609945403 0.26413753648 -0.67786348257 
-0.5252500252 0.21715490159 -0.8227734559 -0.46238559004 0.1842723712 -0.86731958316 -0.49440716245 0.210206941 -0.84343025774 
-0.58478218009 0.32270967783 -0.74423670003 -0.67743554761 0.56784450883 -0.467582819 -0.51077422575 0.83853894838 0.189636817 
-0.087658718718 0.6922511937 0.71631294407 0.13191732023 0.45207251398 0.88217246768 0.21007817517 0.2868654891 0.93465252981 
0.22631350192 0.21216397142 0.95066747503 0.22458345366 0.23359767493 0.94604143599 0.21068017097 0.36521415664 0.90677035976 
0.12745176845 0.58575610836 0.80040354087 -0.033911049243 0.74508124594 0.66611108509 -0.18332307299 0.80580772157 0.56308664233 
-0.31018799276 0.82026163038 0.48057701452 -0.4259776298 0.80875156553 0.40554156898 -0.5167587881 0.7830396012 0.34613485503 
-0.54454635595 0.77186935922 0.32815691144 -0.47773471463 0.79739569845 0.36868637422 -0.32119854243 0.83144557089 0.45335390038 
-0.14047710647 0.8293147465 0.54083568096 -0.0076336609248 0.79735646229 0.60346035435 0.070277771679 0.76086728218 0.64509070193 
0.11767513605 0.72412027224 0.67956044152 0.15355850377 0.67142900739 0.72498474049 0.16768422431 0.58639090512 0.79248199179 
0.14206339932 0.48745519542 0.86151344913 0.094782307291 0.40544086406 0.90919415967 0.052531736744 0.35121661592 0.93481939717 
0.025516663248 0.32033745298 0.94695977534 0.0046290059396 0.29631176945 0.95508005297 -0.034418841218 0.24515048902 0.96887387265 
-0.10727081628 0.11743106045 0.98727043813 -0.17897537766 -0.092945353992 0.97945340643 -0.20575681227 -0.29114133249 0.93429163472 
-0.20455980683 -0.41774675983 0.8852360872 -0.19879929031 -0.48872840875 0.84948418741 -0.19607665469 -0.52506906708 0.82816448866 
-0.19607665469 -0.52506906708 0.82816448866 
