# vtk DataFile Version 4.2
vtk output
ASCII
DATASET POLYDATA
POINTS 64 float
0 0 0 -0.755269 0.184443 0.674631 -1.59319 0.427356 1.16362 
-2.50085 0.666167 1.54368 -3.44948 0.849485 1.85228 -4.42171 0.926265 2.13034 
-5.38834 0.822905 2.41578 -6.27679 0.450751 2.72525 -7.00295 -0.189411 3.0216 
-7.59565 -0.981162 3.24533 -8.1654 -1.81392 3.34545 -8.78363 -2.61167 3.25801 
-9.41769 -3.31685 2.90522 -9.91039 -3.91246 2.2543 -10.0558 -4.43901 1.40554 
-9.78542 -4.93923 0.570098 -9.25057 -5.40443 -0.154524 -8.6281 -5.81699 -0.841216 
-8.02587 -6.18006 -1.5723 -7.4652 -6.53565 -2.3395 -6.90276 -6.96076 -3.06834 
-6.29546 -7.53908 -3.63464 -5.65934 -8.29957 -3.80165 -5.14224 -9.01443 -3.32936 
-4.84359 -9.37882 -2.43794 -4.69932 -9.40047 -1.43667 -4.66651 -9.1723 -0.450082 
-4.75874 -8.79577 0.48661 -5.0232 -8.38873 1.37629 -5.49888 -8.08781 2.21782 
-6.15277 -8.02294 2.98713 -6.87454 -8.26243 3.65418 -7.52994 -8.80528 4.201 
-7.99369 -9.59389 4.63268 -8.17737 -10.5254 4.9824 -8.05864 -11.4765 5.30818 
-7.67555 -12.3352 5.68341 -7.09489 -13.0018 6.17568 -6.40277 -13.4032 6.79555 
-5.66792 -13.5569 7.47623 -4.90676 -13.5385 8.14601 -4.10866 -13.4149 8.75961 
-3.2687 -13.2338 9.29867 -2.39616 -13.0334 9.77595 -1.50519 -12.8566 10.2279 
-0.605445 -12.7598 10.6859 0.290904 -12.8017 11.1579 1.15891 -13.0152 11.6361 
1.96455 -13.3949 12.1203 2.6627 -13.9237 12.6304 3.16085 -14.6004 13.1941 
3.26698 -15.4017 13.7955 2.90403 -16.1886 14.3142 2.29135 -16.898 14.7004 
1.61898 -17.5983 14.9945 0.999158 -18.3667 15.2262 0.492402 -19.2287 15.3937 
0.0683857 -20.1466 15.4738 -0.36278 -21.0639 15.4404 -0.847191 -21.9405 15.2817 
-1.35387 -22.7733 15.0019 -1.77396 -23.6058 14.6069 -1.8614 -24.4752 14.127 
-1.39186 -25.277 13.6983 
LINES 1 65
64 0 1 2 3 4 5 6 7 8 9 10 11 12 13 14 15 16 17 18 19 20 21 22 23 24 25 26 27 28 29 30 31 32 33 34 35 36 37 38 39 40 41 42 43 44 45 46 47 48 49 50 51 52 53 54 55 56 57 58 59 60 61 62 63 

POINT_DATA 64
SCALARS MaximumInscribedSphereRadius float
LOOKUP_TABLE default
0.9796 1.20104 1.11757 0.93 0.93 1.09015 1.24911 1.27321 1.24826 
1.24 1.24 1.24289 1.29112 1.21167 1.3725 1.62072 1.24538 1.24 
1.04548 1.04475 1.31128 1.77008 1.84727 1.65174 1.72419 1.74814 1.59027 
1.82536 1.65942 1.68575 1.87713 1.8633 1.86 1.96474 2.11703 1.95193 
1.59219 1.35754 1.57228 1.97807 2.04531 1.87804 1.86 1.86 1.86608 
1.87945 1.86939 1.96834 2.14325 2.16714 2.02965 1.8639 1.85409 1.82301 
2.15269 2.50964 2.54191 2.43156 2.40352 2.45341 2.24207 2.17 2.17 
2.17 
TEXTURE_COORDINATES TCoords 2 float
0 0 0.015873 0 0.031746 0 0.047619 0 0.0634921 
0 0.0793651 0 0.0952381 0 0.111111 0 0.126984 0 
0.142857 0 0.15873 0 0.174603 0 0.190476 0 0.206349 
0 0.222222 0 0.238095 0 0.253968 0 0.269841 0 
0.285714 0 0.301587 0 0.31746 0 0.333333 0 0.349206 
0 0.365079 0 0.380952 0 0.396825 0 0.412698 0 
0.428571 0 0.444444 0 0.460317 0 0.47619 0 0.492063 
0 0.507937 0 0.52381 0 0.539683 0 0.555556 0 
0.571429 0 0.587302 0 0.603175 0 0.619048 0 0.634921 
0 0.650794 0 0.666667 0 0.68254 0 0.698413 0 
0.714286 0 0.730159 0 0.746032 0 0.761905 0 0.777778 
0 0.793651 0 0.809524 0 0.825397 0 0.84127 0 
0.857143 0 0.873016 0 0.888889 0 0.904762 0 0.920635 
0 0.936508 0 0.952381 0 0.968254 0 0.984127 0 
1 0 
FIELD FieldData 4
Curvature 1 64 float
0.16801 0.12007 0.0811163 0.0589235 0.0665035 0.109169 0.169277 0.189461 0.132032 
0.0813012 0.115707 0.170111 0.212059 0.244167 0.251512 0.172585 0.066921 0.04905 
0.0417746 0.0470307 0.133141 0.264497 0.400432 0.356563 0.230417 0.159889 0.116998 
0.106066 0.142568 0.180131 0.192873 0.195229 0.194825 0.191256 0.178534 0.166791 
0.175872 0.187241 0.151853 0.102267 0.0724155 0.0606318 0.0430667 0.0228863 0.0470852 
0.0815562 0.103356 0.104518 0.107293 0.151486 0.253045 0.289915 0.180174 0.066601 
0.0651193 0.096235 0.0796513 0.0685765 0.0838135 0.0776042 0.0872689 0.212073 0.356058 
0.289589 
Torsion 1 64 float
0.0828438 0.139029 0.227642 0.352978 0.299746 0.126741 0.0186123 -0.0700508 -0.257413 
-0.578551 -0.0938663 0.127571 0.254377 0.284713 0.1639 -0.031801 -0.566437 -0.539785 
-0.56363 -0.603083 -0.0681211 -0.0482921 -0.0884008 -0.103011 -0.0693534 0.0428019 0.268947 
0.41676 0.26662 0.180405 0.149729 0.143696 0.154285 0.168854 0.195063 0.229663 
0.187231 0.0581745 -0.0653381 -0.195072 -0.269524 -0.186696 -0.241085 -0.942198 -0.175605 
0.00270501 -0.0164808 -0.0927119 -0.145051 -0.0887398 -0.015873 0.0320591 0.110949 0.574387 
0.462407 -0.0202733 -0.37606 -0.484534 -0.0535492 0.274668 0.519885 0.19978 0.0649381 
0.0181195 
Abscissas 1 64 double
0 1.0293577869 2.0294720347 3.0420543582 4.0563218439 5.0704439615 6.0836235045 7.0953615645 8.1077543416 
9.1217652453 10.135729845 11.148774839 12.160590729 13.171135679 14.180488411 15.191076642 16.204759363 17.219264397 
18.233653181 19.248242385 20.262276592 21.274187013 22.279615465 23.280352648 24.28861956 25.300461444 26.313621618 
27.327363979 28.34084849 29.353269927 30.36501015 31.376574893 32.38813183 33.399723545 34.411530478 35.423864195 
36.436248691 37.448103531 38.460225594 39.473612838 40.487668332 41.501939129 42.516294014 43.530829935 44.545395596 
45.559631969 46.573526072 47.587277503 48.601022281 49.614552829 50.626399845 51.633885123 52.643833307 53.657626203 
54.672020746 55.686072092 56.699928208 57.714199572 58.728328433 59.742363788 60.756547023 61.769245001 62.766143448 
63.789439078 
ParallelTransportNormals 3 64 double
0.66617162496 0 0.74579847552 0.51249507878 0.041272489758 0.85769771821 0.40128340766 0.071972539417 0.91312188689 
0.32372682016 0.089611518328 0.94189740508 0.2806820091 0.095439912698 0.95504389053 0.27252546416 0.095327741517 0.95741448343 
0.28978009023 0.099752544483 0.95188073264 0.29608149341 0.1037028835 0.94951643546 0.26676522556 0.071878881173 0.96107738548 
0.20112237403 -0.019856309818 0.97936485419 0.087738021931 -0.17547243383 0.98056690974 -0.08542637743 -0.38328538462 0.91967094549 
-0.27190145161 -0.59856753084 0.75351609912 -0.36476856929 -0.76192722932 0.53517360555 -0.35426492801 -0.84840421639 0.3933276578 
-0.32230901259 -0.88673870001 0.33137799914 -0.28713946869 -0.91341422118 0.28848810387 -0.25604067003 -0.93310973541 0.25248642928 
-0.25295530073 -0.93501645544 0.24851125505 -0.29346721787 -0.90685500137 0.30247478991 -0.39456677741 -0.8201190167 0.41439335975 
-0.58991921256 -0.60970369241 0.52939279378 -0.83444019677 -0.29682762024 0.464330617 -0.95476087862 -0.13760751126 0.26362063177 
-0.98386642769 -0.11221554484 0.13933601098 -0.9908661939 -0.12036928814 0.060789968411 -0.98785985927 -0.15098017278 -0.036577122153 
-0.95858791136 -0.21528065274 -0.18644960915 -0.87281219411 -0.29730827321 -0.38704865908 -0.72964600065 -0.34365746902 -0.5911990001 
-0.5815220547 -0.3248524613 -0.74585721039 -0.4780292379 -0.2660603684 -0.83707820906 -0.4386031221 -0.21915515691 -0.87154937811 
-0.44512493302 -0.23648164149 -0.86367831236 -0.44867364475 -0.33921888925 -0.82681467433 -0.40101345863 -0.51110651208 -0.76023571299 
-0.27285958049 -0.71391461345 -0.64488260485 -0.080556180262 -0.87528509226 -0.47685082477 0.095587648098 -0.94382654638 -0.31631385028 
0.21029184569 -0.9542048459 -0.21276854017 0.2716589132 -0.94861663547 -0.16225878649 0.29646302913 -0.94400278802 -0.14480472563 
0.29614242243 -0.9440742106 -0.14499500169 0.26922428965 -0.94983178198 -0.15917872909 0.20177199901 -0.96013718085 -0.19345452789 
0.08787923261 -0.96361699218 -0.25242728231 -0.051600463659 -0.94342559292 -0.32754471875 -0.18129358698 -0.89745761161 -0.40212245732 
-0.28674960696 -0.83374575259 -0.47185027598 -0.37888619581 -0.74087825417 -0.55456709524 -0.44697053885 -0.57408770335 -0.68603254024 
-0.41258811844 -0.36098581745 -0.83633742241 -0.32234826267 -0.22250612786 -0.92009924498 -0.25847783266 -0.15243914139 -0.95391378971 
-0.22299847232 -0.11211289251 -0.96835033984 -0.19683596829 -0.074249571588 -0.97762088905 -0.16352281992 -0.010546922967 -0.98648317258 
-0.11634363837 0.090698369324 -0.98905913049 -0.056477194222 0.20799492041 -0.97649804896 0.0057534248915 0.31532866524 -0.94896508417 
0.055628295955 0.40495435992 -0.91264311703 0.076676055055 0.47591149355 -0.87614441326 0.07077408827 0.50224019309 -0.8618270226 
0.07077408827 0.50224019309 -0.8618270226 
