# vtk DataFile Version 4.2
vtk output
ASCII
DATASET POLYDATA
POINTS 64 float
0 0 0 -0.819152 -0.174296 0.305324 -1.97823 -0.33375 0.537669 
-2.92922 -0.360552 0.467121 -3.94171 -0.382324 0.320259 -4.93787 -0.412335 0.108657 
-5.91983 -0.48601 -0.122993 -6.9039 -0.650139 -0.317003 -7.87049 -0.946739 -0.419633 
-8.77722 -1.40169 -0.375036 -9.58367 -1.98738 -0.176831 -10.2828 -2.6525 0.140307 
-10.9091 -3.35353 0.522324 -11.5061 -4.0702 0.921668 -12.1138 -4.79434 1.29085 
-12.7659 -5.52078 1.56911 -13.4808 -6.23753 1.674 -14.2241 -6.91235 1.52375 
-14.9277 -7.51895 1.10801 -15.528 -8.05522 0.487925 -16.0093 -8.54932 -0.257555 
-16.3735 -9.02876 -1.0749 -16.6256 -9.51472 -1.92972 -16.7687 -10.0221 -2.79715 
-16.8049 -10.5606 -3.65687 -16.7366 -11.1353 -4.49075 -16.5675 -11.7473 -5.28279 
-16.3037 -12.3938 -6.01979 -15.9551 -13.0682 -6.69228 -15.5319 -13.7659 -7.29816 
-15.0494 -14.4824 -7.83238 -14.5296 -15.2177 -8.27484 -13.9513 -16.0273 -8.61212 
-13.4789 -16.8996 -8.58156 -13.397 -17.6701 -7.90289 -13.6711 -18.0724 -7.00426 
-14.1018 -18.2242 -6.09146 -14.552 -18.2802 -5.18577 -15.0084 -18.2289 -4.28085 
-15.4382 -18.0774 -3.37314 -15.8071 -17.8284 -2.46111 -16.0842 -17.4865 -1.54617 
-16.2434 -17.0718 -0.633214 -16.2759 -16.6186 0.274504 -16.1892 -16.1659 1.17901 
-16.0008 -15.7538 2.08723 -15.7306 -15.4214 3.00768 -15.397 -15.2118 3.94386 
-15.0203 -15.1738 4.88641 -14.6268 -15.3521 5.807 -14.2511 -15.7607 6.65766 
-13.9186 -16.3628 7.40597 -13.6383 -17.097 8.04924 -13.4033 -17.907 8.61365 
-13.2042 -18.7571 9.13083 -13.0331 -19.6234 9.63031 -12.886 -20.4888 10.1391 
-12.7637 -21.3386 10.6818 -12.6692 -22.155 11.2718 -12.6157 -22.9221 11.9411 
-12.6144 -23.6142 12.6964 -12.6574 -24.1814 13.454 -12.8383 -24.6818 14.53 
-13.0174 -24.964 15.3527 
LINES 1 65
64 0 1 2 3 4 5 6 7 8 9 10 11 12 13 14 15 16 17 18 19 20 21 22 23 24 25 26 27 28 29 30 31 32 33 34 35 36 37 38 39 40 41 42 43 44 45 46 47 48 49 50 51 52 53 54 55 56 57 58 59 60 61 62 63 

POINT_DATA 64
SCALARS MaximumInscribedSphereRadius float
LOOKUP_TABLE default
1.24 1.24 1.24 1.24 1.24 1.25909 1.28585 1.31026 1.29129 
1.52026 1.79776 2.014 1.49986 1.11519 0.848094 0.707976 0.948696 1.02344 
0.945587 0.921162 0.96547 1.06573 1.20616 1.20697 1.09072 1.03559 1.21225 
1.45438 1.58715 1.63393 1.663 1.66946 1.73463 1.86292 1.90636 2.06049 
2.03017 1.74031 1.66963 1.74544 1.88799 2.03276 2.0294 1.8543 1.6331 
1.70771 1.76235 1.71643 1.59148 1.83442 2.01337 2.12278 2.14981 2.01151 
1.91349 1.86 1.86 2.0525 2.29215 2.53669 2.68968 2.76818 2.79821 
2.79 
TEXTURE_COORDINATES TCoords 2 float
0 0 0.015873 0 0.031746 0 0.047619 0 0.0634921 
0 0.0793651 0 0.0952381 0 0.111111 0 0.126984 0 
0.142857 0 0.15873 0 0.174603 0 0.190476 0 0.206349 
0 0.222222 0 0.238095 0 0.253968 0 0.269841 0 
0.285714 0 0.301587 0 0.31746 0 0.333333 0 0.349206 
0 0.365079 0 0.380952 0 0.396825 0 0.412698 0 
0.428571 0 0.444444 0 0.460317 0 0.47619 0 0.492063 
0 0.507937 0 0.52381 0 0.539683 0 0.555556 0 
0.571429 0 0.587302 0 0.603175 0 0.619048 0 0.634921 
0 0.650794 0 0.666667 0 0.68254 0 0.698413 0 
0.714286 0 0.730159 0 0.746032 0 0.761905 0 0.777778 
0 0.793651 0 0.809524 0 0.825397 0 0.84127 0 
0.857143 0 0.873016 0 0.888889 0 0.904762 0 0.920635 
0 0.936508 0 0.952381 0 0.968254 0 0.984127 0 
1 0 
FIELD FieldData 4
Curvature 1 64 float
0.378752 0.330854 0.252709 0.162486 0.0874123 0.0962685 0.149124 0.231101 0.299187 
0.292776 0.239512 0.14938 0.056149 0.0712003 0.152574 0.261283 0.341456 0.362139 
0.327329 0.253388 0.200435 0.166037 0.150105 0.149046 0.150718 0.152494 0.152034 
0.145719 0.139027 0.141111 0.176874 0.309169 0.640108 1.08843 0.778274 0.456321 
0.233828 0.149237 0.141986 0.155144 0.174001 0.18545 0.17519 0.160384 0.148203 
0.156075 0.191534 0.238785 0.290754 0.316275 0.29495 0.243913 0.17171 0.108615 
0.0616986 0.038858 0.0611041 0.094121 0.129136 0.164031 0.196006 0.218305 0.229474 
0.227476 
Torsion 1 64 float
-0.0331327 -0.0649196 -0.138777 -0.364137 -0.945078 -0.749225 -0.439867 -0.151901 -0.090603 
-0.0545726 -0.0195397 0.107923 2.48616 1.73748 0.0400465 -0.0651809 -0.13144 -0.182373 
-0.223495 -0.263998 -0.28876 -0.286838 -0.253888 -0.195245 -0.14435 -0.101062 -0.0665921 
-0.0486753 -0.0689952 -0.118037 -0.173508 -0.162909 -0.144836 -0.122548 -0.0110769 0.0804364 
0.184998 0.306419 0.332905 0.303747 0.267347 0.268945 0.33393 0.427435 0.505255 
0.448199 0.309047 0.18681 0.108501 0.0707477 0.0523944 0.0538485 0.0779295 0.227 
0.850398 1.34701 0.423109 0.133568 0.0162168 -0.024474 -0.0326844 -0.0307752 -0.0248188 
-0.0179709 
Abscissas 1 64 double
0 0.89141002394 2.0842518406 3.038231544 4.0615489611 5.0803771476 6.0919772729 7.108329853 8.124597824 
9.1400425738 10.156250941 11.17199885 12.186706496 13.201349631 14.216226018 15.231301153 16.249050982 17.264163087 
18.281933124 19.298028851 20.313669455 21.328833195 22.343933578 23.358993567 24.37408516 25.389122023 26.404241658 
27.419485975 28.433675154 29.45002819 30.465690393 31.468999789 32.519542858 33.512015154 34.542049599 35.56406319 
36.584724532 37.597685939 38.612482852 39.628168669 40.643002346 41.658283163 42.67357092 43.68865607 44.703834296 
45.718813901 46.734060437 47.749764402 48.765514359 49.782430861 50.798170249 51.814560316 52.830145577 53.84497702 
54.859760198 55.874271072 56.88887618 57.904573301 58.916274924 59.935719049 60.960161465 61.907538621 63.107913472 
63.99591668 
ParallelTransportNormals 3 64 double
0.34925940441 0 0.93702607671 0.19991820868 -0.026003836173 0.97946746262 -0.072537291412 -0.048393448117 0.99619095335 
-0.14231182571 -0.050127754461 0.98855174498 -0.20601049731 -0.051770509835 0.97717935371 -0.22552914911 -0.052795167761 0.97280484845 
-0.1854993817 -0.04795761421 0.98147340597 -0.0973099996 -0.027127789742 0.9948843385 0.035924822698 0.02632951245 0.9990075895 
0.16498379795 0.10471870571 0.9807213361 0.25763283427 0.18169228145 0.94900644759 0.30523883938 0.23076288507 0.9238927112 
0.31792282449 0.24546255534 0.91579103053 0.29869984863 0.22247205088 0.928054194 0.23854004079 0.15320160175 0.95897232398 
0.11879011728 0.02676859154 0.99255848722 -0.064759853451 -0.14838305375 0.98680729159 -0.26049043103 -0.32173395914 0.91029225795 
-0.41118862172 -0.45382300002 0.79054955697 -0.49950221342 -0.53795492384 0.67904494601 -0.54695706364 -0.59259773502 0.59132554061 
-0.5708448814 -0.63001686053 0.52651199115 -0.5814951135 -0.65678659972 0.48009873506 -0.58481318889 -0.67614135084 0.44813659501 
-0.58442163481 -0.68971943564 0.42747918412 -0.58265360612 -0.69855748349 0.41536997668 -0.58092298189 -0.70358869024 0.40925718573 
-0.57995897072 -0.70566786481 0.40703864295 -0.58006732982 -0.70547520828 0.40721815207 -0.58360634582 -0.69994932938 0.4116728913 
-0.5980767036 -0.67899258318 0.42576205632 -0.62884487281 -0.63570018345 0.44770459313 -0.7741811293 -0.40213881062 0.48880257367 
-0.95593169785 0.13017783004 0.26315075835 -0.91147013096 0.39920110843 -0.09930093352 -0.82812866639 0.46469333493 -0.31346932286 
-0.80116836424 0.47104149925 -0.36911943613 -0.77651817399 0.47117197639 -0.41834972706 -0.76557910474 0.46866924369 -0.44072414775 
-0.76668042879 0.46922156704 -0.43821483446 -0.77551392569 0.47730109285 -0.41323336968 -0.78739200789 0.49789915197 -0.36346975167 
-0.79474210385 0.53117818225 -0.2936574996 -0.79226040486 0.57266071946 -0.21067309103 -0.77825335152 0.61669118533 -0.1183794863 
-0.75275084657 0.65809403065 -0.016685616942 -0.71487356487 0.69209715683 0.099786330484 -0.66321152081 0.71010604292 0.23643156826 
-0.59915810442 0.6984481682 0.39138181134 -0.53206305206 0.64724233173 0.54588118913 -0.47718151676 0.56892499832 0.66979261443 
-0.44109748743 0.49023272109 0.75173458465 -0.4219118485 0.43273618929 0.79669930499 -0.41350545398 0.40058811741 0.81764442132 
-0.41181765215 0.39276268483 0.82227957216 -0.41458350984 0.40781491582 0.81351552401 -0.42036477806 0.44462103792 0.79095232853 
-0.4271291303 0.49661912541 0.75559919953 -0.43443965805 0.57476371687 0.6934759212 -0.43774232276 0.6625127902 0.60783094827 
-0.43532414215 0.73235594515 0.52359111992 -0.41250299452 0.85054883483 0.32620232844 -0.3921526977 0.89297494505 0.2209344002 
-0.3921526977 0.89297494505 0.2209344002 
