# vtk DataFile Version 4.2
vtk output
ASCII
DATASET POLYDATA
POINTS 64 float
0 0 0 -0.600297 0.709924 0.47555 -1.27129 1.19492 1.00504 
-2.05746 1.55634 1.5355 -2.94792 1.74786 1.98068 -3.91353 1.7145 2.28379 
-4.86532 1.42327 2.47241 -5.71705 0.90901 2.66511 -6.43609 0.251429 2.94507 
-7.04136 -0.486078 3.28946 -7.56847 -1.29321 3.60487 -8.0319 -2.18424 3.73468 
-8.40489 -3.10089 3.52516 -8.68631 -3.9575 3.0613 -8.90737 -4.77708 2.5057 
-9.05256 -5.60244 1.93416 -9.04512 -6.42725 1.34496 -8.81057 -7.17452 0.702452 
-8.39458 -7.80142 0.0226657 -7.89394 -8.38656 -0.631373 -7.36213 -9.1042 -1.13202 
-7.24217 -9.86637 -0.582775 -7.60212 -9.91981 0.37077 -8.07824 -9.64107 1.21831 
-8.60497 -9.1127 1.90286 -9.11177 -8.40325 2.42011 -9.51433 -7.58326 2.85926 
-9.66962 -6.74536 3.40256 -9.31834 -6.37524 4.24328 -8.81629 -6.81575 5.00189 
-8.48913 -7.61273 5.5329 -8.3175 -8.55153 5.87404 -8.22626 -9.54651 6.04697 
-8.13545 -10.5564 6.06225 -7.98167 -11.5514 5.94062 -7.7404 -12.5159 5.73934 
-7.41733 -13.4576 5.54444 -7.01664 -14.3842 5.44974 -6.5302 -15.2684 5.54134 
-5.9536 -16.04 5.8547 -5.30205 -16.6424 6.34421 -4.60292 -17.0758 6.93715 
-3.88367 -17.3667 7.59031 -3.17203 -17.5301 8.29419 -2.4789 -17.5546 9.03406 
-1.76546 -17.433 9.74434 -0.979895 -17.2107 10.3457 -0.128402 -16.9645 10.8391 
0.750831 -16.7437 11.2948 1.62452 -16.5701 11.7802 2.47433 -16.4572 12.3226 
3.3026 -16.4186 12.907 4.12868 -16.4704 13.4934 4.9636 -16.6333 14.0457 
5.786 -16.9338 14.5573 6.53738 -17.4024 15.0506 7.12388 -18.0585 15.5519 
7.44522 -18.8721 16.0613 7.46284 -19.7575 16.5527 7.22879 -20.6337 17.0053 
6.84706 -21.4748 17.4256 6.44747 -22.3082 17.8457 6.22794 -23.1588 18.2991 
6.53102 -24.0101 18.8076 
LINES 1 65
64 0 1 2 3 4 5 6 7 8 9 10 11 12 13 14 15 16 17 18 19 20 21 22 23 24 25 26 27 28 29 30 31 32 33 34 35 36 37 38 39 40 41 42 43 44 45 46 47 48 49 50 51 52 53 54 55 56 57 58 59 60 61 62 63 

POINT_DATA 64
SCALARS MaximumInscribedSphereRadius float
LOOKUP_TABLE default
1.116 1.116 1.15742 1.22502 1.24 1.19788 1.15021 1.23703 1.42537 
1.66804 1.79473 1.74132 1.56041 1.55 1.40593 1.31696 1.47824 1.3943 
1.18589 1.01485 1.16307 1.5751 2.03483 2.18471 2.23284 2.55754 2.56195 
1.89741 2.07117 1.9253 1.87158 1.96206 2.2991 2.47843 2.46382 2.30411 
2.10879 1.90906 1.70344 1.6658 2.07348 2.17 2.17519 2.17716 2.01527 
1.87673 1.82309 1.66005 1.57005 1.55228 1.55 1.62847 1.80756 1.86 
1.80353 1.50441 1.45718 1.58454 1.78143 1.86 1.92011 2.25405 2.48624 
2.4986 
TEXTURE_COORDINATES TCoords 2 float
0 0 0.015873 0 0.031746 0 0.047619 0 0.0634921 
0 0.0793651 0 0.0952381 0 0.111111 0 0.126984 0 
0.142857 0 0.15873 0 0.174603 0 0.190476 0 0.206349 
0 0.222222 0 0.238095 0 0.253968 0 0.269841 0 
0.285714 0 0.301587 0 0.31746 0 0.333333 0 0.349206 
0 0.365079 0 0.380952 0 0.396825 0 0.412698 0 
0.428571 0 0.444444 0 0.460317 0 0.47619 0 0.492063 
0 0.507937 0 0.52381 0 0.539683 0 0.555556 0 
0.571429 0 0.587302 0 0.603175 0 0.619048 0 0.634921 
0 0.650794 0 0.666667 0 0.68254 0 0.698413 0 
0.714286 0 0.730159 0 0.746032 0 0.761905 0 0.777778 
0 0.793651 0 0.809524 0 0.825397 0 0.84127 0 
0.857143 0 0.873016 0 0.888889 0 0.904762 0 0.920635 
0 0.936508 0 0.952381 0 0.968254 0 0.984127 0 
1 0 
FIELD FieldData 4
Curvature 1 64 float
0.255142 0.154788 0.121678 0.150936 0.194516 0.198537 0.173726 0.154238 0.107783 
0.0747995 0.160246 0.259433 0.198624 0.0868666 0.0518673 0.109322 0.176168 0.155586 
0.066544 0.207846 1.00766 0.71613 0.282026 0.212348 0.172319 0.127073 0.230327 
0.587716 0.621371 0.325671 0.202455 0.133722 0.110127 0.10672 0.0861583 0.0619657 
0.0877135 0.145668 0.185318 0.176637 0.139628 0.106417 0.0986699 0.107916 0.109136 
0.122724 0.103893 0.0526095 0.0423405 0.0602339 0.0613767 0.0627464 0.0799403 0.098765 
0.125356 0.172924 0.214633 0.216488 0.17743 0.108289 0.0436683 0.148344 0.357173 
0.381199 
Torsion 1 64 float
-0.128428 -0.214894 -0.256728 -0.105368 0.0631051 0.26591 0.384698 0.196124 -0.17824 
-0.728135 -0.247763 -0.0674749 0.00919325 0.299251 0.48967 -0.177768 -0.182279 0.0115381 
0.804591 0.229915 -0.00195115 0.0048952 0.012962 -0.0321921 -0.176659 -0.55099 -0.384402 
-0.214955 -0.203755 -0.0894617 0.060799 0.243831 0.332918 0.270048 0.34397 0.673319 
0.290979 0.0154064 -0.0792002 -0.098218 -0.0567232 0.0323302 0.0838412 -0.144059 -0.466472 
-0.371228 -0.23835 -0.489779 -0.493519 0.0161492 0.282959 0.364127 0.0693562 -0.173541 
-0.235224 -0.146732 -0.0742286 -0.0414968 -0.0265897 -0.0359231 -0.209747 -0.0293191 -0.00790744 
-0.0020831 
Abscissas 1 64 double
0 1.0442683165 2.027025848 3.0419523079 4.0557491893 5.0683652869 6.0814283273 7.094858374 8.108667395 
9.1230009843 10.137294204 11.149990076 12.161556557 13.175530918 14.190060473 15.204435722 16.218104107 17.231140646 
18.245123315 19.255467819 20.279419066 21.226500587 22.247121951 23.258413545 24.270948768 25.28471095 26.298264415 
27.308891127 28.292352353 29.303091396 30.315110087 31.328608326 32.342617373 33.356697668 34.370831341 35.385219908 
36.399694716 37.413651631 38.426975079 39.439906442 40.453327781 41.467327473 42.481507442 43.495696243 44.509814469 
45.523856473 46.537840982 47.552285309 48.566911303 49.581348294 50.595804791 51.610222585 52.624597719 53.638828359 
54.652916543 55.666574876 56.679369157 57.691640871 58.70441693 59.718001005 60.732801261 61.748041301 62.736618864 
63.77350815 
ParallelTransportNormals 3 64 double
-0.7636026059 -0.64568650309 0 -0.63441389607 -0.76621747436 -0.10212634553 -0.51320568121 -0.83687862919 -0.19040506502 
-0.33842530568 -0.89450802521 -0.29210221724 -0.091328801152 -0.91554574211 -0.39170785566 0.17516719089 -0.87043954629 -0.46005592213 
0.36211774841 -0.7869485202 -0.49958258861 0.45273381208 -0.71934885379 -0.52684848102 0.50132971331 -0.66815762515 -0.5497580436 
0.55742431236 -0.59164081751 -0.58244251136 0.65171040158 -0.42998421755 -0.62480967112 0.77047550748 -0.17329029727 -0.61346390704 
0.84067854191 0.016915602072 -0.54127022048 0.86542677293 0.099469464208 -0.49106244653 0.87842096332 0.15783124575 -0.45107195552 
0.88799567983 0.27257490488 -0.37036008672 0.8589720912 0.46106758075 -0.22267382539 0.7886241758 0.60969257408 -0.079667273346 
0.74811279308 0.66324772352 -0.02072935302 0.78202664518 0.62047454636 -0.058699774761 0.99044587522 0.13474412497 -0.029342614746 
0.93409565066 -0.078953538288 0.34818336292 0.86184710467 -0.059365079244 0.50368179989 0.79150441197 -0.0027611545996 0.61115721534 
0.74708345004 0.050434890467 0.66281418248 0.76120589858 0.026682074608 0.6479611461 0.83227628364 -0.18467276924 0.52269700209 
0.7522954005 -0.65837060088 -0.024490452706 0.42093528357 -0.63528701383 -0.64747501659 0.29275076581 -0.44404841078 -0.84682819863 
0.24857043336 -0.29034580835 -0.92407361786 0.22898315589 -0.14626581315 -0.96237883716 0.21528551932 0.0045829337686 -0.9765403944 
0.19766872011 0.14898768363 -0.96888066717 0.17859166118 0.24361506853 -0.95328732129 0.17472403204 0.25667903748 -0.95057213527 
0.20221459296 0.18571747635 -0.96157073446 0.26940536817 0.048573475335 -0.96180110475 0.36611225939 -0.10205357178 -0.9249577731 
0.45894589063 -0.20591641594 -0.86427258381 0.52687937627 -0.25801567487 -0.80983086777 0.57885868269 -0.28455950498 -0.76416523972 
0.63437275787 -0.30218494723 -0.71151631165 0.68882242283 -0.30946789189 -0.65555571364 0.69695517598 -0.30890643464 -0.64717099542 
0.63116928054 -0.32399909395 -0.70473394017 0.54334177142 -0.34913387809 -0.76346922309 0.49898930101 -0.36110151032 -0.7877914551 
0.50676163241 -0.35935278929 -0.78361867049 0.53608582309 -0.35447815681 -0.76613133771 0.55028753297 -0.35319600729 -0.75659514372 
0.52675963327 -0.3530082412 -0.77324606071 0.46986430901 -0.34565368994 -0.81225061265 0.40934000876 -0.32873024644 -0.85110350857 
0.37710002148 -0.3129738485 -0.87168970624 0.38402762055 -0.31879831482 -0.86653933616 0.41061126003 -0.36183900157 -0.83694141377 
0.42477965025 -0.43283985826 -0.79511754215 0.4162142306 -0.50258919592 -0.7577399385 0.39977731174 -0.54843598971 -0.73443588298 
0.39552492657 -0.5575496318 -0.72986193252 0.41326492408 -0.50910299682 -0.75500082196 0.40692388601 -0.35728815659 -0.84068907698 
0.40692388601 -0.35728815659 -0.84068907698 
