# vtk DataFile Version 4.2
vtk output
ASCII
DATASET POLYDATA
POINTS 64 float
0 0 0 -0.888425 0.526948 -0.144135 -1.81532 0.799454 -0.287506 
-2.83115 0.869706 -0.404085 -3.82846 0.702108 -0.437966 -4.76917 0.334111 -0.347512 
-5.60274 -0.19308 -0.112179 -6.3101 -0.826557 0.244244 -6.91149 -1.5276 0.663875 
-7.45144 -2.28302 1.07245 -7.98232 -3.09645 1.36464 -8.5434 -3.93885 1.33079 
-9.06507 -4.65385 0.83974 -9.48915 -5.22313 0.1155 -9.83751 -5.7653 -0.668147 
-10.1013 -6.34981 -1.45416 -10.2256 -6.98671 -2.23371 -10.138 -7.62554 -3.01616 
-9.8323 -8.20498 -3.79025 -9.37021 -8.72138 -4.53111 -8.80477 -9.20982 -5.21693 
-8.15661 -9.71045 -5.81741 -7.43159 -10.2603 -6.25632 -6.64675 -10.8963 -6.28137 
-6.25199 -11.3288 -5.46846 -6.39433 -11.379 -4.46276 -6.71647 -11.3151 -3.50486 
-7.12064 -11.2368 -2.57711 -7.55431 -11.2227 -1.66016 -7.97979 -11.3549 -0.749057 
-8.35401 -11.7112 0.123043 -8.64289 -12.3033 0.893528 -8.83676 -13.0694 1.52919 
-8.93757 -13.9363 2.04615 -8.93959 -14.8475 2.49218 -8.82988 -15.7577 2.92629 
-8.59812 -16.6215 3.40499 -8.24921 -17.388 3.96997 -7.81055 -18.023 4.62802 
-7.31271 -18.5361 5.34773 -6.76452 -18.9653 6.08566 -6.15924 -19.3386 6.80926 
-5.49063 -19.6521 7.50485 -4.76396 -19.8788 8.17545 -3.99918 -19.9882 8.83283 
-3.22643 -19.9673 9.48968 -2.47392 -19.8289 10.1558 -1.75817 -19.6031 10.8384 
-1.08457 -19.3263 11.5448 -0.450599 -19.0364 12.282 0.15721 -18.7719 13.0501 
0.776668 -18.5652 13.8265 1.47224 -18.4316 14.5525 2.27921 -18.367 15.1635 
3.16163 -18.3619 15.664 4.06759 -18.4186 16.1172 4.95299 -18.5519 16.5941 
5.76656 -18.7796 17.1553 6.44141 -19.1099 17.8361 6.92906 -19.5264 18.6222 
7.23863 -19.9964 19.4625 7.42241 -20.5135 20.3311 7.531 -21.0348 21.1483 
7.63662 -21.6479 21.986 
LINES 1 65
64 0 1 2 3 4 5 6 7 8 9 10 11 12 13 14 15 16 17 18 19 20 21 22 23 24 25 26 27 28 29 30 31 32 33 34 35 36 37 38 39 40 41 42 43 44 45 46 47 48 49 50 51 52 53 54 55 56 57 58 59 60 61 62 63 

POINT_DATA 64
SCALARS MaximumInscribedSphereRadius float
LOOKUP_TABLE default
0.93 1.28418 1.48658 1.30865 1.24 1.35998 1.73671 1.74419 1.54124 
1.34137 1.37198 1.46232 1.24108 1.28313 1.5581 1.74127 1.58683 1.39453 
1.2772 1.29674 1.43247 1.60872 1.59148 1.55 1.55602 1.65534 1.80506 
1.71194 1.64474 1.8048 1.86 1.78275 1.60199 1.55 1.55 1.56313 
1.69827 1.85033 1.86517 1.72933 1.57706 1.54704 1.4376 1.40293 1.68271 
1.96696 2.14764 1.99967 1.95561 2.33197 2.25012 1.88943 1.57486 1.18074 
1.18292 1.67511 1.58591 1.312 1.24765 1.10403 1.01279 1.15072 1.35801 
1.581 
TEXTURE_COORDINATES TCoords 2 float
0 0 0.015873 0 0.031746 0 0.047619 0 0.0634921 
0 0.0793651 0 0.0952381 0 0.111111 0 0.126984 0 
0.142857 0 0.15873 0 0.174603 0 0.190476 0 0.206349 
0 0.222222 0 0.238095 0 0.253968 0 0.269841 0 
0.285714 0 0.301587 0 0.31746 0 0.333333 0 0.349206 
0 0.365079 0 0.380952 0 0.396825 0 0.412698 0 
0.428571 0 0.444444 0 0.460317 0 0.47619 0 0.492063 
0 0.507937 0 0.52381 0 0.539683 0 0.555556 0 
0.571429 0 0.587302 0 0.603175 0 0.619048 0 0.634921 
0 0.650794 0 0.666667 0 0.68254 0 0.698413 0 
0.714286 0 0.730159 0 0.746032 0 0.761905 0 0.777778 
0 0.793651 0 0.809524 0 0.825397 0 0.84127 0 
0.857143 0 0.873016 0 0.888889 0 0.904762 0 0.920635 
0 0.936508 0 0.952381 0 0.968254 0 0.984127 0 
1 0 
FIELD FieldData 4
Curvature 1 64 float
0.195372 0.204261 0.205652 0.204699 0.206124 0.203119 0.175941 0.120727 0.0843184 
0.147149 0.313808 0.434425 0.269285 0.115869 0.0847487 0.126499 0.181267 0.201233 
0.159557 0.110198 0.105481 0.183465 0.408192 0.950771 0.622889 0.241549 0.0904892 
0.0692621 0.133608 0.203395 0.22849 0.203447 0.157048 0.111514 0.0946039 0.119349 
0.149999 0.154978 0.124647 0.0849169 0.0686797 0.0775229 0.0909479 0.104638 0.110203 
0.101203 0.081114 0.0618663 0.0567291 0.0644913 0.0723805 0.10261 0.157094 0.142243 
0.0876587 0.0765198 0.12521 0.181593 0.196324 0.164349 0.113533 0.0682245 0.062977 
0.118047 
Torsion 1 64 float
-0.0636135 -0.0942037 -0.129593 -0.15619 -0.146662 -0.0873429 0.00890667 0.245401 0.609788 
0.388112 0.105729 -0.00903917 -0.132311 -0.435568 -0.299794 0.217226 0.244108 0.0715047 
-0.0964032 -0.28144 -0.310364 -0.133621 -0.0355695 -0.019676 -0.0425672 -0.11768 -0.664555 
-0.637389 -0.155164 -0.0236789 0.00368385 -0.0290448 -0.145378 -0.398642 -0.546239 -0.3424 
-0.195133 -0.0899989 0.081353 0.329998 0.288587 -0.085747 -0.227802 -0.227348 -0.191449 
-0.175054 -0.211567 -0.326064 -0.37487 -0.333103 -0.491814 -0.432229 -0.117533 0.116311 
0.534165 0.600945 0.220539 0.0789212 0.0202543 -0.0263335 -0.144261 -0.484298 -0.578969 
-0.233052 
Abscissas 1 64 double
0 1.042951597 2.0196548016 3.0445629322 4.0564246205 5.0705935971 6.0845713689 7.0988144341 8.1133199029 
9.1277846861 10.142120428 11.1548366 12.167010167 13.181134018 14.195730117 15.210153061 16.224446093 17.238352016 
18.25246165 19.266892572 20.281113422 21.29665254 22.306914728 23.31740882 24.319264354 25.336227201 26.34886224 
27.363851924 28.378280836 29.39248941 30.406169753 31.419916045 32.434095836 33.448456084 34.462966619 35.477339391 
36.491744069 37.505875797 38.520113236 39.534558566 40.54908519 41.563636567 42.578114858 43.592583883 44.606982753 
45.621394543 46.635860502 47.650368478 48.664940345 49.679546034 50.694125072 51.708644272 52.72291501 53.737161039 
54.75165142 55.766230337 56.780693566 57.794935979 58.808843333 59.823352371 60.834706937 61.86214762 62.837524574 
63.880974786 
ParallelTransportNormals 3 64 double
-0.16014269647 0 0.98709387434 -0.15366971473 -0.0028189350555 0.98811824818 -0.11467764342 -0.0098038303279 0.99335437937 
-0.032980095486 -0.005791257568 0.99943923009 0.085258611172 0.026870415189 0.99599646084 0.21577937161 0.092724314222 0.9720295594 
0.31800746904 0.16972337759 0.93277286878 0.36988476289 0.22262125927 0.90201166129 0.37024450251 0.22308032363 0.90175061828 
0.31039960865 0.13540259039 0.94091350371 0.13554184038 -0.12974666775 0.98223938615 -0.1218489912 -0.49996646186 0.85743009065 
-0.25566193165 -0.68167936684 0.68552915148 -0.28521774275 -0.72420595364 0.62783483173 -0.28371043799 -0.72143167462 0.63169987038 
-0.28327367453 -0.72005704259 0.63346182263 -0.28436361395 -0.75798699441 0.58702048633 -0.26458814639 -0.81924636882 0.50875190413 
-0.23598326253 -0.86007484061 0.45230870913 -0.22418454896 -0.87161286262 0.43592694998 -0.24148408309 -0.85751343328 0.45426440468 
-0.30715557106 -0.80727608661 0.50394521047 -0.5081813282 -0.64939019752 0.56572441085 -0.91339511499 -0.28211987774 0.29345823979 
-0.97545051646 -0.16461976268 -0.14627584785 -0.93801514459 -0.16574265356 -0.30439605996 -0.90841043666 -0.17153884739 -0.38126749456 
-0.89132525706 -0.1734226738 -0.41888406791 -0.88271096675 -0.17223837936 -0.43721309432 -0.87860995091 -0.16973291711 -0.44635780604 
-0.87519372679 -0.16484691685 -0.45482022228 -0.87356283806 -0.16025878713 -0.45957054856 -0.87509131215 -0.16872871371 -0.45359212578 
-0.87743919986 -0.20932424417 -0.43160608354 -0.87255218128 -0.29197443011 -0.3916677458 -0.84963073527 -0.41105607366 -0.33039448845 
-0.8018436435 -0.54521947162 -0.24450459945 -0.73760352225 -0.6595376967 -0.14474484654 -0.67676531624 -0.73412339829 -0.055240771378 
-0.62752039456 -0.77848511646 0.013381998043 -0.58288495058 -0.80953922659 0.069938365723 -0.52875720431 -0.83872130087 0.13023977256 
-0.45618681878 -0.86681776683 0.20129715715 -0.36764482186 -0.88677052763 0.28013446109 -0.27865480831 -0.89189288457 0.35620019687 
-0.20737144907 -0.88444812039 0.41802943013 -0.16248443476 -0.87331399684 0.4592618767 -0.14440250835 -0.86677285674 0.47733921942 
-0.15016675095 -0.86927107159 0.47097531889 -0.17464589115 -0.8801999139 0.44130139844 -0.20597439472 -0.89222818714 0.40187486956 
-0.22475460551 -0.89708791285 0.38041903728 -0.21968824283 -0.89641961272 0.38492720597 -0.21492454687 -0.8962230526 0.38806143732 
-0.2427441414 -0.89542042512 0.37322586203 -0.31459687181 -0.88779918828 0.33591875437 -0.42641230581 -0.8640396652 0.267596716 
-0.55796687202 -0.81471848504 0.15781875638 -0.66746448106 -0.74438209148 0.019658799541 -0.73017636833 -0.6746162086 -0.10833024616 
-0.75875617459 -0.61756968126 -0.20711532127 -0.76922757923 -0.58012461424 -0.26785138287 -0.77433048332 -0.55318732431 -0.3072394617 
-0.77433048332 -0.55318732431 -0.3072394617 
