# vtk DataFile Version 4.2
vtk output
ASCII
DATASET POLYDATA
POINTS 64 float
0 0 0 -0.796869 0.194942 0.335844 -1.90585 0.434772 0.738874 
-2.81409 0.563252 0.952673 -3.82871 0.616164 1.09173 -4.84756 0.486334 1.08608 
-5.74492 0.0451655 0.959118 -6.44459 -0.687676 0.823048 -6.95643 -1.56418 0.792531 
-7.39964 -2.47392 0.875966 -7.84618 -3.36846 1.04882 -8.32865 -4.23188 1.27605 
-8.86403 -5.05918 1.51826 -9.45827 -5.85342 1.73307 -10.1112 -6.61737 1.87635 
-10.8143 -7.34916 1.90581 -11.5481 -8.04134 1.78873 -12.284 -8.68675 1.51937 
-12.9971 -9.28596 1.11487 -13.6701 -9.84804 0.603646 -14.2927 -10.387 0.0104291 
-14.8534 -10.9175 -0.648616 -15.332 -11.4526 -1.36626 -15.6919 -12.0019 -2.14101 
-15.8726 -12.5663 -2.96696 -15.826 -13.1317 -3.80919 -15.5488 -13.6798 -4.61953 
-15.0914 -14.2011 -5.36128 -14.511 -14.7003 -6.02822 -13.8502 -15.1868 -6.6255 
-13.1351 -15.6706 -7.15892 -12.3817 -16.1609 -7.6295 -11.5989 -16.6686 -8.03039 
-10.7962 -17.2042 -8.34242 -9.9844 -17.7838 -8.52409 -9.1848 -18.4315 -8.48877 
-8.54874 -19.0849 -8.06046 -8.22497 -19.6018 -7.23389 -8.22003 -19.8585 -6.25052 
-8.37115 -19.9403 -5.24575 -8.58217 -19.9259 -4.25489 -8.82324 -19.8575 -3.27132 
-9.07465 -19.7675 -2.29238 -9.32744 -19.6802 -1.31374 -9.5768 -19.6174 -0.332181 
-9.81928 -19.6013 0.653001 -10.0521 -19.6553 1.63938 -10.2717 -19.8032 2.61922 
-10.4742 -20.063 3.57937 -10.6559 -20.4416 4.50364 -10.8151 -20.9311 5.37848 
-10.9517 -21.5146 6.1977 -11.0674 -22.1723 6.96196 -11.1637 -22.8863 7.6766 
-11.2418 -23.6428 8.34852 -11.3013 -24.4314 8.98399 -11.3393 -25.2457 9.58807 
-11.3503 -26.0826 10.1639 -11.3297 -26.933 10.7098 -11.2602 -27.8083 11.2287 
-11.1317 -28.7012 11.715 -10.9684 -29.5297 12.1355 -10.6026 -30.5841 12.5821 
-10.2726 -31.3541 12.8747 
LINES 1 65
64 0 1 2 3 4 5 6 7 8 9 10 11 12 13 14 15 16 17 18 19 20 21 22 23 24 25 26 27 28 29 30 31 32 33 34 35 36 37 38 39 40 41 42 43 44 45 46 47 48 49 50 51 52 53 54 55 56 57 58 59 60 61 62 63 

POINT_DATA 64
SCALARS MaximumInscribedSphereRadius float
LOOKUP_TABLE default
1.24 1.24 1.24 1.25433 1.31018 1.45504 1.36341 1.07979 0.955188 
0.949119 1.04425 1.23027 1.32941 1.32087 1.31216 1.4146 1.66717 1.91884 
2.16021 2.39206 2.37652 2.28363 2.16688 2.1267 2.0494 1.92533 1.74135 
1.65471 1.59487 1.54104 1.45589 1.36163 1.4643 1.79494 2.30993 2.21902 
1.99061 1.86 1.86 1.86 1.89136 1.98869 2.10863 2.16411 2.1675 
2.15529 2.04632 1.95891 1.93477 2.06551 2.13777 2.17 2.17 2.17 
2.17 2.17 2.17 2.17 2.21361 2.30644 2.42413 2.39218 2.29358 
2.17 
TEXTURE_COORDINATES TCoords 2 float
0 0 0.015873 0 0.031746 0 0.047619 0 0.0634921 
0 0.0793651 0 0.0952381 0 0.111111 0 0.126984 0 
0.142857 0 0.15873 0 0.174603 0 0.190476 0 0.206349 
0 0.222222 0 0.238095 0 0.253968 0 0.269841 0 
0.285714 0 0.301587 0 0.31746 0 0.333333 0 0.349206 
0 0.365079 0 0.380952 0 0.396825 0 0.412698 0 
0.428571 0 0.444444 0 0.460317 0 0.47619 0 0.492063 
0 0.507937 0 0.52381 0 0.539683 0 0.555556 0 
0.571429 0 0.587302 0 0.603175 0 0.619048 0 0.634921 
0 0.650794 0 0.666667 0 0.68254 0 0.698413 0 
0.714286 0 0.730159 0 0.746032 0 0.761905 0 0.777778 
0 0.793651 0 0.809524 0 0.825397 0 0.84127 0 
0.857143 0 0.873016 0 0.888889 0 0.904762 0 0.920635 
0 0.936508 0 0.952381 0 0.968254 0 0.984127 0 
1 0 
FIELD FieldData 4
Curvature 1 64 float
0.176011 0.211542 0.261 0.328728 0.425506 0.517669 0.494142 0.366845 0.240545 
0.17328 0.130168 0.10133 0.105438 0.134189 0.173244 0.209666 0.211835 0.194361 
0.163897 0.13412 0.128436 0.147264 0.191582 0.260189 0.303665 0.313432 0.278829 
0.219639 0.167233 0.12519 0.101369 0.115267 0.158874 0.236242 0.379884 0.596331 
0.704814 0.605578 0.367758 0.213268 0.112979 0.0491676 0.0256543 0.0359269 0.0690796 
0.10103 0.130612 0.154224 0.16969 0.167704 0.154421 0.134795 0.111556 0.0905534 
0.0739879 0.0628706 0.060296 0.0669886 0.0787941 0.0949918 0.115858 0.138881 0.162136 
0.184515 
Torsion 1 64 float
0.020371 0.0317357 0.0533406 0.0937813 0.17124 0.342612 0.486067 0.567754 0.520889 
0.482334 0.528208 0.675131 0.650233 0.468777 0.26228 0.162345 0.136727 0.147567 
0.191854 0.274396 0.290761 0.23495 0.116495 0.0726396 0.0689585 0.0804003 0.0902192 
0.10552 0.138641 0.18782 0.252166 0.202444 0.132785 0.064637 0.0252898 -0.0266423 
-0.0805675 -0.12716 -0.105184 -0.0781028 -0.0387067 0.0218444 0.226785 0.172782 -0.0253376 
-0.0249116 -0.019516 -0.0139511 -0.00919186 -0.00275059 0.00481914 0.0150137 0.0293072 0.0634693 
0.117895 0.177536 0.211385 0.18174 0.13935 0.0964449 0.0685314 0.0514066 0.0399347 
0.0317031 
Abscissas 1 64 double
0 0.88645008472 2.0905226094 3.0323914633 4.0578622855 5.0849663584 6.092936434 7.1152427885 8.1307084966 
9.1461018421 10.160733738 11.17557647 12.190328376 13.20525789 14.220377206 15.235627493 16.251149119 17.266362548 
18.281834601 19.296828536 20.311725035 21.3266906 22.341778026 23.35740424 24.37396394 25.389443745 26.406254943 
27.421716308 28.437036187 29.451965783 30.466838147 31.481457615 32.496961111 33.51113962 34.525022623 35.554644677 
36.562093488 37.589338363 38.605672362 39.625030954 40.638214116 41.653203406 42.667910419 43.682435231 44.697118703 
45.711830011 46.726751166 47.741731384 48.756812876 49.772011817 50.78704851 51.802062478 52.816975403 53.83175544 
54.846580129 55.861101217 56.875715558 57.891639433 58.902387775 59.922307692 60.947135305 61.89047891 63.092570172 
63.979932718 
ParallelTransportNormals 3 64 double
0.38837152683 0 0.92150287962 0.34352054622 0.010328111003 0.93908836882 0.23305117622 0.029991945129 0.97200186856 
0.13768444705 0.039169158329 0.98970135398 -0.0098237017746 0.033600058014 0.99938707766 -0.13779635624 -0.0047520138084 0.99044918223 
-0.16548955679 -0.025056398518 0.98589319071 -0.11994204793 0.035497633617 0.99214606946 -0.071719966241 0.12568839542 0.98947393786 
-0.032492912883 0.20523462922 0.97817327585 -0.0050591142669 0.25714772488 0.96635886344 0.0068304170402 0.27689700233 0.96087532776 
-0.002819976432 0.26304402529 0.96477970983 -0.039748191378 0.21690634952 0.97538285653 -0.10714943066 0.14256052063 0.98396925636 
-0.20193869735 0.048623627357 0.97819042388 -0.30685138837 -0.046857992336 0.95060325794 -0.4040514402 -0.13034835748 0.90540142444 
-0.4834687756 -0.19688500078 0.85293272858 -0.54578501464 -0.24984326493 0.79981064056 -0.59674438816 -0.29589999113 0.74588157937 
-0.64292587744 -0.34324986578 0.68470858455 -0.68806096669 -0.40161896437 0.60437927957 -0.72717477299 -0.48218535544 0.48858380297 
-0.73853456154 -0.57797855767 0.34714188494 -0.71167473289 -0.67038978274 0.20999193736 -0.66431393112 -0.73932332542 0.10994553838 
-0.61886862266 -0.78401060373 0.04825972577 -0.58482921426 -0.81104260508 0.013589808103 -0.56269830175 -0.8266495557 -0.004597094625 
-0.55093872235 -0.83445001797 -0.012636919443 -0.54902954007 -0.83569032844 -0.013720024684 -0.55765314645 -0.83001571561 -0.0098427687468 
-0.58144566416 -0.81358118681 -0.0025675103158 -0.62948375006 -0.77701145717 0.0018449511147 -0.70846133496 -0.70534390524 -0.023927227224 
-0.76542033132 -0.63603555191 -0.09793106303 -0.77585316724 -0.61139903818 -0.15570189141 -0.77508219589 -0.60960954518 -0.16620406745 
-0.77683061231 -0.60993337948 -0.15657417531 -0.77868789574 -0.60959339717 -0.14846228863 -0.77974726426 -0.60925266024 -0.14424077051 
-0.77906995987 -0.60949083068 -0.14687043591 -0.77618439574 -0.61035338182 -0.15813454117 -0.77078580038 -0.61121943588 -0.17972214982 
-0.76265695073 -0.61057135791 -0.21344084051 -0.75195166575 -0.60579400502 -0.25996598982 -0.73961186505 -0.59387537965 -0.31668015807 
-0.72716247726 -0.5731893058 -0.37774164634 -0.71622447203 -0.54533522413 -0.43546756364 -0.70768645771 -0.51436396205 -0.48436514338 
-0.70155050956 -0.48417774771 -0.52287550255 -0.69746926166 -0.45777070741 -0.55134617844 -0.69489988445 -0.43610643853 -0.57177384066 
-0.69343423831 -0.41964840581 -0.58569972908 -0.69275852064 -0.40853970066 -0.59429028686 -0.69258459321 -0.40268081178 -0.59847702134 
-0.69259152029 -0.40147339132 -0.59927965266 -0.69225739045 -0.40788832367 -0.59532077134 -0.69090975341 -0.41993140051 -0.58847373052 
-0.68895182882 -0.43140714208 -0.58243734026 -0.67751672575 -0.47345305653 -0.56286169668 -0.66846637143 -0.49680703568 -0.55347581661 
-0.66846637143 -0.49680703568 -0.55347581661 
