# vtk DataFile Version 4.2
vtk output
ASCII
DATASET POLYDATA
POINTS 64 float
0 0 0 -0.831503 0.579507 0.258356 -1.67077 0.970056 0.582056 
-2.57244 1.20586 0.984923 -3.47562 1.23154 1.44521 -4.33699 1.02291 1.93631 
-5.11168 0.585059 2.42115 -5.77794 -0.0368354 2.86526 -6.35355 -0.779702 3.24664 
-6.87908 -1.59317 3.54834 -7.39915 -2.4424 3.74087 -7.94425 -3.29668 3.76495 
-8.48647 -4.11758 3.52601 -8.88208 -4.85668 2.96104 -8.96363 -5.4758 2.16566 
-8.73195 -5.98431 1.32072 -8.29606 -6.42515 0.518299 -7.738 -6.83662 -0.222064 
-7.10268 -7.24746 -0.897836 -6.41158 -7.68381 -1.49864 -5.67274 -8.18092 -1.98275 
-4.90493 -8.79982 -2.20486 -4.33543 -9.5067 -1.79768 -4.24563 -9.99099 -0.91414 
-4.45755 -10.2349 0.0456454 -4.8517 -10.279 0.978015 -5.37032 -10.1092 1.83157 
-5.94432 -9.70194 2.56007 -6.47786 -9.07393 3.14981 -6.88041 -8.29907 3.66452 
-7.05297 -7.49761 4.25804 -6.79625 -7.07144 5.11717 -6.27191 -7.39104 5.91964 
-5.77742 -8.06157 6.49565 -5.3434 -8.88519 6.89672 -4.96893 -9.7972 7.13323 
-4.64955 -10.757 7.20342 -4.37205 -11.7294 7.12477 -4.11038 -12.6949 6.95561 
-3.82867 -13.6556 6.79127 -3.49251 -14.6108 6.7399 -3.08004 -15.5266 6.87531 
-2.58247 -16.3494 7.19604 -1.99323 -17.0399 7.64739 -1.30188 -17.5736 8.16205 
-0.503927 -17.9255 8.67852 0.383603 -18.0727 9.14513 1.31529 -18.0212 9.54151 
2.24621 -17.8133 9.88622 3.15547 -17.5057 10.2146 4.04301 -17.1518 10.5558 
4.91953 -16.7959 10.9224 5.79804 -16.4721 11.3132 6.68726 -16.2061 11.7227 
7.58705 -16.0179 12.1517 8.48606 -15.926 12.6124 9.35848 -15.9515 13.1288 
10.1549 -16.1248 13.7314 10.7835 -16.4842 14.4389 11.1203 -17.0412 15.2128 
11.113 -17.7353 15.95 10.8272 -18.4831 16.5737 10.377 -19.2099 17.0537 
9.75964 -19.9687 17.4241 
LINES 1 65
64 0 1 2 3 4 5 6 7 8 9 10 11 12 13 14 15 16 17 18 19 20 21 22 23 24 25 26 27 28 29 30 31 32 33 34 35 36 37 38 39 40 41 42 43 44 45 46 47 48 49 50 51 52 53 54 55 56 57 58 59 60 61 62 63 

POINT_DATA 64
SCALARS MaximumInscribedSphereRadius float
LOOKUP_TABLE default
0.93 1.13396 1.2367 1.20383 0.997202 0.930018 0.944134 0.981666 1.16275 
1.11513 0.935686 0.93 0.93 0.93 0.93 0.93 0.947208 1.12565 
1.235 1.2291 1.06503 1.08328 1.58423 1.89035 1.74616 1.60066 1.55 
1.55 1.551 1.74545 1.3932 1.42493 1.85969 1.67527 1.08845 1.08399 
1.3418 1.74273 1.70627 1.48707 1.26122 1.03349 1.17078 1.50608 1.55 
1.55 1.62728 1.83404 2.05148 1.87769 1.38537 1.45842 1.80417 2.09652 
1.95224 1.8704 1.9139 2.08878 1.98854 1.74478 1.69119 2.04458 2.30326 
2.48 
TEXTURE_COORDINATES TCoords 2 float
0 0 0.015873 0 0.031746 0 0.047619 0 0.0634921 
0 0.0793651 0 0.0952381 0 0.111111 0 0.126984 0 
0.142857 0 0.15873 0 0.174603 0 0.190476 0 0.206349 
0 0.222222 0 0.238095 0 0.253968 0 0.269841 0 
0.285714 0 0.301587 0 0.31746 0 0.333333 0 0.349206 
0 0.365079 0 0.380952 0 0.396825 0 0.412698 0 
0.428571 0 0.444444 0 0.460317 0 0.47619 0 0.492063 
0 0.507937 0 0.52381 0 0.539683 0 0.555556 0 
0.571429 0 0.587302 0 0.603175 0 0.619048 0 0.634921 
0 0.650794 0 0.666667 0 0.68254 0 0.698413 0 
0.714286 0 0.730159 0 0.746032 0 0.761905 0 0.777778 
0 0.793651 0 0.809524 0 0.825397 0 0.84127 0 
0.857143 0 0.873016 0 0.888889 0 0.904762 0 0.920635 
0 0.936508 0 0.952381 0 0.968254 0 0.984127 0 
1 0 
FIELD FieldData 4
Curvature 1 64 float
0.117813 0.124751 0.135912 0.151392 0.165856 0.170118 0.151534 0.114639 0.0822755 
0.0816575 0.127221 0.195858 0.262243 0.289114 0.250499 0.171419 0.110478 0.0738745 
0.0681443 0.111169 0.238407 0.514918 0.527583 0.284799 0.190667 0.178975 0.190456 
0.184087 0.148723 0.201034 0.482147 0.612032 0.319717 0.17616 0.136074 0.125903 
0.108773 0.0678751 0.0358306 0.0903767 0.144101 0.155696 0.143937 0.136497 0.145171 
0.158329 0.149038 0.113961 0.0714873 0.0362928 0.0217344 0.0288769 0.0434442 0.0562912 
0.0694852 0.0921371 0.13124 0.192113 0.25248 0.261377 0.220593 0.171986 0.138006 
0.115911 
Torsion 1 64 float
-0.00919544 -0.0104936 -0.0137252 -0.0219678 -0.0302213 -0.0339552 -0.0587881 -0.132148 -0.315269 
-0.317759 -0.0837666 0.111847 0.231076 0.220589 0.13605 0.102524 0.119937 0.192385 
0.209696 0.0969028 0.0370225 0.0161475 0.00973119 -0.0121701 -0.0586152 -0.104562 -0.146722 
-0.222195 -0.457724 -0.491021 -0.220318 -0.105453 -0.0279405 0.0153565 0.0472518 0.0612869 
0.0741906 0.156541 0.691595 0.0996034 -0.0432041 -0.116602 -0.18947 -0.198955 -0.13823 
-0.0518734 0.0369744 0.114749 0.228641 0.488159 0.862346 0.430048 0.113374 -0.0385805 
-0.12586 -0.135164 -0.0885246 -0.0411234 -0.000984882 0.0262444 0.0372113 0.0387968 0.0351217 
0.0302584 
Abscissas 1 64 double
0 1.0459318221 2.0265843729 3.0419236797 4.0559541982 5.0691983739 6.0825729755 7.0964212484 8.1106345507 
9.1249988074 10.139263137 11.152924027 12.1653329 13.176256763 14.187488486 15.200494721 16.214506252 17.228841246 
18.243281239 19.257670879 20.271261068 21.282152945 22.277042145 23.288597393 24.301311893 25.314530489 26.327622387 
27.34056332 28.353901519 29.367499144 30.379616392 31.372405467 32.382867961 33.395744383 34.409440729 35.423308403 
36.437283591 37.451558384 38.466090908 39.480641452 40.494569341 41.508056993 42.521685686 43.535446465 44.549190407 
45.562750421 46.576210869 47.590020306 48.604249239 49.618746322 50.633335089 51.64790249 52.662471954 53.676946382 
54.6913831 55.705734908 56.719853626 57.733481761 58.745837046 59.757076942 60.769643399 61.784478151 62.764945629 
63.810942237 
ParallelTransportNormals 3 64 double
0.29671699134 0 0.95496545856 0.34774545366 -0.029437033128 0.93712675799 0.39714128532 -0.047296054868 0.91653798759 
0.45212249931 -0.055257518495 0.89024258057 0.50377065833 -0.049899884663 0.86239499379 0.54395615992 -0.034021199913 0.83842367216 
0.5660098617 -0.017802766907 0.82420622295 0.56707939545 -0.016627430058 0.82349528707 0.54772683555 -0.043979860529 0.83550049999 
0.50355242252 -0.11422546881 0.85638046454 0.421993937 -0.24465986256 0.87296200879 0.29441291579 -0.44121545204 0.84773224541 
0.16675353478 -0.65358210734 0.73825719611 0.11904050989 -0.78938400963 0.60224765865 0.1250429645 -0.83455501082 0.53654654127 
0.12771307209 -0.83835287492 0.52995644004 0.11612707008 -0.82841765599 0.54794040811 0.090642334143 -0.81085708516 0.57818228502 
0.046013508791 -0.78235245982 0.62113395144 -0.039412978464 -0.72658566378 0.68594452423 -0.24016192117 -0.57786856362 0.77999370177 
-0.68344031738 -0.13765851421 0.7169096638 -0.92221780512 0.29181910126 0.25368470995 -0.89948437917 0.42759624509 -0.0899405515 
-0.82377742148 0.46358185768 -0.32631674964 -0.72097031486 0.44942251992 -0.5274667797 -0.60566710991 0.38852420739 -0.69441795213 
-0.51918160016 0.30768610122 -0.79735796802 -0.50213806694 0.28214464702 -0.81746667204 -0.55120001008 0.4166595662 -0.72289235352 
-0.52241553144 0.81567476386 -0.24850893768 -0.18735347859 0.86436133426 0.46666707393 0.022182534681 0.66082105566 0.75021561404 
0.12933976555 0.48839630449 0.8629833572 0.20591668704 0.32400619405 0.92337332873 0.2672856859 0.15845102002 0.95050072928 
0.31242431153 0.012331453403 0.94986261365 0.33626735086 -0.073365604718 0.93890455148 0.33338658359 -0.06315371283 0.94067262873 
0.29596887272 0.052868408067 0.95373337879 0.22130930361 0.23945502121 0.94534834054 0.12432781558 0.42473664852 0.89673930085 
0.025618263055 0.56218370255 0.82661550263 -0.064393717722 0.6482320008 0.75871517861 -0.14672008839 0.69718542988 0.70171624751 
-0.22532563323 0.72046131777 0.65586877392 -0.3033408367 0.72456676592 0.61885970827 -0.37770506333 0.71421151101 0.58927141682 
-0.4402435283 0.69669269777 0.56639643419 -0.48310888573 0.6809117067 0.55042261238 -0.50082108772 0.67378490772 0.5433158715 
-0.4927392524 0.67691490073 0.54680366341 -0.46335976902 0.68671726253 0.56010456684 -0.42209236982 0.69719430989 0.57944639579 
-0.37964388683 0.70380409652 0.6004417648 -0.34583979471 0.70507095819 0.61908786154 -0.32572718107 0.70267459072 0.63257428265 
-0.31883185188 0.70009622765 0.63891433092 -0.31742869886 0.69876391266 0.64106787122 -0.31574683112 0.69238274739 0.64877582396 
-0.31907875559 0.67597466382 0.66426425585 -0.33008922221 0.65400477634 0.6806752955 -0.3505132293 0.62545831586 0.69709566862 
-0.3505132293 0.62545831586 0.69709566862 
