# vtk DataFile Version 4.2
vtk output
ASCII
DATASET POLYDATA
POINTS 64 float
0 0 0 -0.910369 -0.501449 -0.0993952 -1.51181 -1.26499 -0.221373 
-2.02552 -2.14421 -0.280488 -2.48341 -3.04887 -0.253631 -2.91525 -3.96579 -0.207022 
-3.23499 -4.91302 -0.367563 -3.23078 -5.75887 -0.917695 -2.95135 -6.42666 -1.6269 
-2.52601 -6.99343 -2.35271 -2.01096 -7.49289 -3.06992 -1.4481 -7.94287 -3.78412 
-0.885201 -8.37959 -4.5065 -0.360113 -8.84953 -5.23633 0.114162 -9.38386 -5.95643 
0.536501 -10.0032 -6.6409 0.902259 -10.7362 -7.23397 1.18721 -11.6503 -7.54789 
1.22912 -12.4348 -6.96176 1.04941 -12.6221 -5.97222 0.761129 -12.5661 -5.00321 
0.350479 -12.3498 -4.10204 -0.177154 -11.9818 -3.31858 -0.74701 -11.4573 -2.66403 
-1.24731 -10.7949 -2.08155 -1.59813 -10.0523 -1.4866 -1.76471 -9.33467 -0.79113 
-1.73754 -8.86256 0.101181 -1.58276 -9.05839 1.06789 -1.46072 -9.80947 1.73926 
-1.38613 -10.7167 2.18622 -1.33205 -11.6659 2.5403 -1.30826 -12.635 2.83956 
-1.34863 -13.6273 3.04511 -1.44637 -14.6357 3.08761 -1.49854 -15.6449 2.99793 
-1.37195 -16.6475 2.92159 -1.00622 -17.5892 2.99542 -0.465295 -18.4067 3.25315 
0.157816 -19.0902 3.66866 0.801639 -19.6432 4.22358 1.42282 -20.0497 4.91402 
2.00543 -20.2756 5.71229 2.6327 -20.3092 6.50805 3.409 -20.2067 7.15132 
4.28817 -20.0455 7.63096 5.18815 -19.8438 8.05372 6.0435 -19.5713 8.52565 
6.79222 -19.1971 9.0979 7.43574 -18.7409 9.73585 8.0654 -18.2668 10.3747 
8.76994 -17.853 10.9756 9.55039 -17.5591 11.5529 10.3501 -17.4131 12.1592 
11.0877 -17.4455 12.8539 11.6115 -17.7315 13.6705 11.7155 -18.316 14.4856 
11.493 -19.0513 15.1471 11.1588 -19.8211 15.7171 10.8002 -20.5869 16.2776 
10.4588 -21.3306 16.8768 10.179 -22.0505 17.5457 10.0103 -22.7095 18.2427 
10.016 -23.3796 19.0486 
LINES 1 65
64 0 1 2 3 4 5 6 7 8 9 10 11 12 13 14 15 16 17 18 19 20 21 22 23 24 25 26 27 28 29 30 31 32 33 34 35 36 37 38 39 40 41 42 43 44 45 46 47 48 49 50 51 52 53 54 55 56 57 58 59 60 61 62 63 

POINT_DATA 64
SCALARS MaximumInscribedSphereRadius float
LOOKUP_TABLE default
1.55 1.11384 0.93 0.9976 1.1876 1.23923 1.05912 1.07735 1.23852 
1.24126 1.2612 1.26721 1.25326 1.28801 1.5033 1.81671 1.55484 1.23295 
1.0805 1.04915 1.23739 1.24 1.24 1.25613 1.44466 1.4398 1.26158 
1.26685 1.24978 1.24 1.32882 1.47027 1.35639 1.24032 1.29474 1.46625 
1.33851 1.24 1.24 1.24 1.25342 1.382 1.75308 1.51714 1.30869 
1.24375 1.24 1.24 1.24 1.27062 1.46331 1.67702 1.73109 1.39095 
1.39246 1.43025 1.32515 1.48999 1.33957 1.24374 1.28526 1.87395 1.94694 
1.55 
TEXTURE_COORDINATES TCoords 2 float
0 0 0.015873 0 0.031746 0 0.047619 0 0.0634921 
0 0.0793651 0 0.0952381 0 0.111111 0 0.126984 0 
0.142857 0 0.15873 0 0.174603 0 0.190476 0 0.206349 
0 0.222222 0 0.238095 0 0.253968 0 0.269841 0 
0.285714 0 0.301587 0 0.31746 0 0.333333 0 0.349206 
0 0.365079 0 0.380952 0 0.396825 0 0.412698 0 
0.428571 0 0.444444 0 0.460317 0 0.47619 0 0.492063 
0 0.507937 0 0.52381 0 0.539683 0 0.555556 0 
0.571429 0 0.587302 0 0.603175 0 0.619048 0 0.634921 
0 0.650794 0 0.666667 0 0.68254 0 0.698413 0 
0.714286 0 0.730159 0 0.746032 0 0.761905 0 0.777778 
0 0.793651 0 0.809524 0 0.825397 0 0.84127 0 
0.857143 0 0.873016 0 0.888889 0 0.904762 0 0.920635 
0 0.936508 0 0.952381 0 0.968254 0 0.984127 0 
1 0 
FIELD FieldData 4
Curvature 1 64 float
0.404164 0.286243 0.144243 0.0803831 0.07609 0.221609 0.428607 0.313309 0.155277 
0.0872453 0.0625234 0.0287135 0.0511737 0.0790714 0.0840134 0.128874 0.300018 0.828454 
0.627023 0.233351 0.159396 0.170505 0.159821 0.133506 0.134096 0.172268 0.301199 
0.554927 0.510103 0.235647 0.0789215 0.0660709 0.115784 0.148026 0.121144 0.149795 
0.230246 0.222517 0.170694 0.147454 0.165219 0.182424 0.167055 0.21454 0.183624 
0.0804801 0.0795998 0.14406 0.114365 0.0296 0.0862488 0.114105 0.117989 0.164436 
0.284668 0.405781 0.314669 0.135337 0.0437738 0.0391706 0.0703921 0.10422 0.1373 
0.159809 
Torsion 1 64 float
0.0737172 0.208987 0.456332 0.346683 -0.208129 -0.0537364 0.119354 0.137408 0.0964498 
-0.0315163 -0.160982 -0.59922 -0.352021 -0.13227 -0.154528 -0.143545 -0.104326 -0.0770141 
0.0587452 0.181865 0.141376 -0.077659 -0.365443 -0.580201 -0.540754 -0.450441 -0.307782 
-0.181452 -0.0698252 0.00603167 -0.0526021 -0.16221 0.0494167 0.269655 0.755341 0.678853 
0.189261 0.122533 0.134272 0.119995 0.0476005 -0.175652 -0.694612 -0.358881 -0.0213749 
0.773815 0.389437 0.000459508 -0.111388 -3.00835 -0.239665 -0.344446 -0.415598 -0.228614 
-0.0633175 0.0411689 0.0726964 -0.0243761 -0.482459 -0.404078 -0.24084 -0.174498 -0.103911 
-0.0574635 
Abscissas 1 64 double
0 1.0440795814 2.0236737085 3.0436838687 4.0579787249 5.0725725006 6.0851197004 7.0941415648 8.1075497583 
9.1219178435 10.136376681 11.150958087 12.165557491 13.180059035 14.194449786 15.209561411 16.220897698 17.228529121 
18.208705349 19.231723674 20.244256156 21.257926198 22.271647085 23.2856843 24.299763882 25.313910788 26.327035077 
27.336908731 28.33532367 29.350091261 30.364192887 31.378726821 32.393259916 33.407429466 34.421446161 35.435965279 
36.449403535 37.462324152 38.475898325 39.489845291 40.503873246 41.517685631 42.531441085 43.545260993 44.55864363 
45.573029958 46.587610426 47.601808092 48.615750214 49.630253088 50.644832395 51.659075171 52.673350985 53.68747619 
54.701237718 55.712671517 56.721058656 57.734840973 58.74932683 59.763823469 60.778064995 61.799814015 62.773748548 
63.821861483 
ParallelTransportNormals 3 64 double
-0.1085362365 0 0.99409249337 -0.15272577352 -0.037463156321 0.98755827677 -0.12351074565 0.0054448569655 0.99232829711 
-0.086557080862 0.073306318093 0.99354620199 -0.079435799452 0.08788592633 0.99295821549 -0.16008345976 -0.11217853786 0.98070855077 
-0.23364924494 -0.53094373672 0.8145592543 -0.19248233507 -0.75114977091 0.63144641288 -0.15296581213 -0.82038115269 0.55097751735 
-0.12354005058 -0.85374481161 0.50582373664 -0.099097874932 -0.87527398671 0.47336567194 -0.090631635868 -0.88194239055 0.46256191621 
-0.10611604155 -0.86903861399 0.48323004161 -0.13824200855 -0.83675471379 0.5298402552 -0.18065686248 -0.78218225495 0.59628350478 
-0.2400792724 -0.68018633509 0.69260991367 -0.35068362843 -0.40009987521 0.84672373453 -0.52093248038 0.49287131215 0.69692698366 
-0.46866533734 0.87961930769 0.081379820099 -0.40777624403 0.89651914312 -0.17312411972 -0.33712245253 0.86899919685 -0.36220001087 
-0.23825327054 0.80743027789 -0.5397144851 -0.12714589997 0.71707747947 -0.68529833544 -0.054079278434 0.63604027373 -0.76975853476 
-0.040191121536 0.61311435715 -0.7889711394 -0.066169430076 0.6864440765 -0.72416582104 -0.088984075305 0.88151779542 -0.46368977852 
-0.023573704152 0.97907914702 0.20210963444 0.067017255894 0.6709694117 0.73845022579 0.093667549796 0.44618522835 0.89002535476 
0.10014376226 0.35275108453 0.93034289337 0.10245571134 0.2957970142 0.94974046645 0.10162694754 0.19782260348 0.97495547646 
0.090262685222 0.033201832013 0.9953643986 0.080931589595 -0.092373435251 0.99242996038 0.07994140893 -0.065640104526 0.99463598759 
0.039665014625 0.093400744879 0.9948381715 -0.051039018405 0.26941058372 0.96167195861 -0.15628795147 0.40513098994 0.9008012862 
-0.26521170884 0.51143870411 0.81736968468 -0.38433722776 0.60179353556 0.70009244812 -0.50219269376 0.66370738011 0.55434196298 
-0.56387926608 0.67693852082 0.47306914115 -0.51943152233 0.67912133435 0.51863774144 -0.43941730224 0.69186582031 0.57291720272 
-0.42755232901 0.69428593947 0.57893526427 -0.51023805159 0.6719478024 0.53678979271 -0.6490598982 0.615978552 0.44642095832 
-0.74981371184 0.55588691582 0.35884416444 -0.76259592569 0.546547092 0.34602562094 -0.69551289219 0.59118938143 0.4083588276 
-0.59880544073 0.63727735121 0.48508723111 -0.52795174355 0.65700183918 0.53815939999 -0.50010503299 0.65905901231 0.56172606693 
-0.50534959569 0.66038430949 0.55544068082 -0.51002280203 0.66687402333 0.54328241129 -0.51106541971 0.65517936608 0.5563740963 
-0.51553315352 0.64309960173 0.56625830668 -0.51224382306 0.65039045363 0.56089083035 -0.50296113059 0.67040795402 0.54551193966 
-0.49607676055 0.68662314557 0.53146637111 -0.49569967697 0.68778816264 0.53031054447 -0.49863448923 0.66476862395 0.55627899724 
-0.49863448923 0.66476862395 0.55627899724 
