# vtk DataFile Version 4.2
vtk output
ASCII
DATASET POLYDATA
POINTS 64 float
0 0 0 -0.857483 0.139298 0.180151 -2.03073 0.222111 0.431262 
-2.94136 0.0819331 0.64387 -3.88251 -0.237242 0.897638 -4.71833 -0.745565 1.18451 
-5.43198 -1.38636 1.51088 -6.06053 -2.0922 1.88297 -6.6379 -2.81679 2.29656 
-7.20198 -3.53345 2.74099 -7.78099 -4.23122 3.19656 -8.39528 -4.90975 3.63453 
-9.05994 -5.57538 4.01553 -9.78247 -6.23765 4.28407 -10.5466 -6.90065 4.37031 
-11.3081 -7.55876 4.22563 -12.0063 -8.19905 3.85937 -12.6113 -8.82038 3.32992 
-13.1178 -9.43022 2.69579 -13.5323 -10.039 1.99738 -13.8578 -10.6543 1.25874 
-14.0913 -11.2799 0.49438 -14.2226 -11.9154 -0.286144 -14.2361 -12.5542 -1.07506 
-14.1146 -13.1826 -1.86331 -13.8502 -13.7819 -2.63898 -13.4495 -14.3353 -3.39012 
-12.9346 -14.8347 -4.10822 -12.3332 -15.2855 -4.79047 -11.6707 -15.701 -5.437 
-10.9653 -16.1012 -6.04661 -10.2273 -16.5119 -6.6118 -9.47215 -16.9537 -7.11608 
-8.69393 -17.502 -7.49469 -7.96157 -18.2262 -7.57785 -7.58252 -19.0026 -7.09558 
-7.55163 -19.6487 -6.27445 -7.70589 -20.1159 -5.39253 -7.92825 -20.5053 -4.4824 
-8.18544 -20.8388 -3.55846 -8.46046 -21.1275 -2.6257 -8.74012 -21.3832 -1.68442 
-9.01849 -21.6119 -0.735905 -9.29236 -21.821 0.218394 -9.56067 -22.0198 1.17648 
-9.82388 -22.2195 2.13578 -10.0828 -22.4333 3.09326 -10.3371 -22.6742 4.0455 
-10.5843 -22.954 4.98899 -10.8187 -23.2811 5.92051 -11.0312 -23.6596 6.83773 
-11.211 -24.0881 7.73981 -11.3479 -24.5601 8.62757 -11.436 -25.065 9.50332 
-11.476 -25.5915 10.3699 -11.4752 -26.1312 11.229 -11.445 -26.6822 12.0804 
-11.3968 -27.2512 12.9204 -11.34 -27.8436 13.7378 -11.2791 -28.4901 14.5239 
-11.2172 -29.2032 15.257 -11.1606 -29.9115 15.8805 -11.0882 -30.9464 16.4851 
-11.0348 -31.7526 16.8535 
LINES 1 65
64 0 1 2 3 4 5 6 7 8 9 10 11 12 13 14 15 16 17 18 19 20 21 22 23 24 25 26 27 28 29 30 31 32 33 34 35 36 37 38 39 40 41 42 43 44 45 46 47 48 49 50 51 52 53 54 55 56 57 58 59 60 61 62 63 

POINT_DATA 64
SCALARS MaximumInscribedSphereRadius float
LOOKUP_TABLE default
0.62 0.720275 0.833188 1.0068 1.33211 1.50048 1.47647 1.31965 1.29985 
1.33825 1.48913 1.77064 1.83437 1.71694 1.60178 1.70678 1.84765 1.99904 
2.0936 1.92467 1.69233 1.65042 1.85195 1.9879 1.90495 1.75439 1.64737 
1.60996 1.58439 1.56686 1.5547 1.64309 1.7549 1.85837 1.84396 1.55623 
1.50746 1.86601 2.04457 2.01139 1.93718 1.97566 2.1099 2.22898 2.3184 
2.35058 2.12915 1.9299 1.82899 1.85128 2.13506 2.47635 2.72874 2.60939 
2.47321 2.33204 2.18752 2.05005 1.96152 1.94354 2.08103 2.002 1.80867 
1.55 
TEXTURE_COORDINATES TCoords 2 float
0 0 0.015873 0 0.031746 0 0.047619 0 0.0634921 
0 0.0793651 0 0.0952381 0 0.111111 0 0.126984 0 
0.142857 0 0.15873 0 0.174603 0 0.190476 0 0.206349 
0 0.222222 0 0.238095 0 0.253968 0 0.269841 0 
0.285714 0 0.301587 0 0.31746 0 0.333333 0 0.349206 
0 0.365079 0 0.380952 0 0.396825 0 0.412698 0 
0.428571 0 0.444444 0 0.460317 0 0.47619 0 0.492063 
0 0.507937 0 0.52381 0 0.539683 0 0.555556 0 
0.571429 0 0.587302 0 0.603175 0 0.619048 0 0.634921 
0 0.650794 0 0.666667 0 0.68254 0 0.698413 0 
0.714286 0 0.730159 0 0.746032 0 0.761905 0 0.777778 
0 0.793651 0 0.809524 0 0.825397 0 0.84127 0 
0.857143 0 0.873016 0 0.888889 0 0.904762 0 0.920635 
0 0.936508 0 0.952381 0 0.968254 0 0.984127 0 
1 0 
FIELD FieldData 4
Curvature 1 64 float
0.206081 0.243855 0.279521 0.302673 0.293713 0.234454 0.167395 0.102672 0.0596281 
0.0482296 0.064694 0.109558 0.179195 0.250619 0.303338 0.309738 0.25923 0.206023 
0.159094 0.133542 0.130049 0.139108 0.157909 0.179839 0.192036 0.192186 0.176632 
0.143158 0.108685 0.0832479 0.0897007 0.16002 0.301037 0.528992 0.935345 0.72141 
0.403995 0.200082 0.118979 0.0719105 0.0482604 0.0422024 0.0377098 0.0309989 0.0246536 
0.026369 0.0390547 0.0535212 0.0670392 0.0760721 0.0813222 0.0828746 0.0802371 0.0707647 
0.0579054 0.0445787 0.0368807 0.0510656 0.0761154 0.109298 0.146229 0.178194 0.201416 
0.212714 
Torsion 1 64 float
-0.0207111 -0.0338914 -0.0573358 -0.0938673 -0.15044 -0.237831 -0.357366 -0.539744 -0.926891 
-1.09738 -0.937793 -0.404475 -0.276219 -0.208399 -0.180104 -0.17355 -0.183248 -0.199018 
-0.211101 -0.191935 -0.120154 -0.0422759 0.0257435 0.0546529 0.060178 0.048498 0.0219907 
-0.0549591 -0.225884 -0.413938 -0.448028 -0.246711 -0.0882317 -0.0220615 0.0183014 0.0374034 
0.0525805 0.0737963 0.137964 0.222994 0.261133 0.180077 0.140973 0.184469 0.260138 
0.230447 0.0802361 -0.0528246 -0.134447 -0.189745 -0.234238 -0.25648 -0.24442 -0.176544 
-0.00055852 0.286726 0.710487 0.434315 0.159409 0.025273 -0.00417098 -0.0114732 -0.00990214 
-0.00644378 
Abscissas 1 64 double
0 0.88720655058 2.0898799039 3.0354479783 4.0611351555 5.0805873629 6.093717326 7.1094614951 8.1240763321 
9.1386233615 10.153354561 11.168033341 12.182921347 13.199171354 14.214504801 15.231324653 16.247002167 17.263070144 
18.278238372 19.293226055 20.308180936 21.323140933 22.338186531 23.353389456 24.368764578 25.384014503 26.399407659 
27.414390162 28.429460084 29.444126609 30.45870742 31.4749546 32.484774243 33.509277551 34.542588344 35.532062557 
36.577364246 37.58724248 38.601842506 39.61724096 40.631649543 41.646341591 42.660971813 43.675572181 44.690185795 
45.704787235 46.719438852 47.734062883 48.748739951 49.763464742 50.778211741 51.792948014 52.807661676 53.822365006 
54.837136848 55.851696706 56.866287359 57.8820054 58.893097005 59.912717935 60.937304024 61.882632956 63.08338202 
63.971373592 
ParallelTransportNormals 3 64 double
0.20560420404 0 0.97863522892 0.20926202262 -0.00042541698807 0.97785951185 0.22731327812 0.00031382728621 0.97382163413 
0.25787041299 0.0077787882636 0.96614819803 0.30758653141 0.030950876399 0.95101659762 0.36147111752 0.070936898034 0.92968090638 
0.40633542129 0.11594295973 0.9063381022 0.43929183358 0.15503619087 0.8848652239 0.45834654029 0.17909558944 0.87054191102 
0.4618099863 0.18338117628 0.86781500375 0.44555459296 0.16463293311 0.87998698969 0.40174677234 0.1185912496 0.90803945203 
0.31743803645 0.037883561838 0.94752199381 0.18226067161 -0.082617637182 0.97977312354 0.013084731329 -0.22911475121 0.97331147152 
-0.14373726273 -0.36860992757 0.91840422506 -0.25215645846 -0.47356869822 0.84388968978 -0.31641605904 -0.54474932536 0.77661383589 
-0.35210642951 -0.59197340928 0.72497485819 -0.37249856039 -0.62570538185 0.68537405672 -0.3848585718 -0.65314282648 0.65214134046 
-0.39256380232 -0.67977916065 0.61951106032 -0.39603217089 -0.71030028552 0.58192097746 -0.39285114904 -0.74762834041 0.53546226694 
-0.37946150115 -0.79022500622 0.48119996746 -0.35475860402 -0.83303891 0.42449088011 -0.32287076027 -0.86970372928 0.37332277649 
-0.29201147939 -0.89597142965 0.33461095792 -0.26895245108 -0.91177623942 0.31036860066 -0.25962287243 -0.91733960037 0.30180129508 
-0.2698235376 -0.91160883974 0.31010414681 -0.30096047999 -0.8938301025 0.3324011693 -0.39725582097 -0.83169348794 0.38790946731 
-0.60136974651 -0.65987354436 0.45046790501 -0.91194691447 -0.23731240438 0.33471726563 -0.99597335767 0.048337920521 0.075501763279 
-0.98371822836 0.15584182079 -0.089508514099 -0.96964146644 0.18787888796 -0.15651501528 -0.95983312188 0.20266540873 -0.19402863252 
-0.95350157178 0.2100671652 -0.21611695613 -0.95093721411 0.21258401852 -0.22478089308 -0.95015486513 0.21326313789 -0.2274303548 
-0.95053317697 0.21296322387 -0.22612683334 -0.95157316872 0.21218080386 -0.22245856027 -0.95294481197 0.21115243129 -0.21751054252 
-0.95463638958 0.20981279114 -0.2113006303 -0.95687734379 0.20782735758 -0.20296191363 -0.96006982547 0.20451265693 -0.19089395846 
-0.96467453655 0.19870993683 -0.17296646939 -0.97094370235 0.18881173472 -0.14703215871 -0.97837315386 0.17352860704 -0.11257794786 
-0.98574801036 0.15255897811 -0.070898647921 -0.99146444571 0.12773938878 -0.026094088347 -0.99458967409 0.1025767999 0.016412809341 
-0.99539068464 0.080787632844 0.051679234739 -0.99493018522 0.064585319573 0.07708866989 -0.9941717003 0.053748498851 0.093454423133 
-0.99356068321 0.046990992028 0.10309711657 -0.99300073269 0.041097195819 0.11072743734 -0.99243697352 0.034856057686 0.11770262882 
-0.99196077723 0.029134628052 0.12314621346 -0.99057106317 0.010502420786 0.1365967348 -0.98982046953 -0.00052772678589 0.14232062253 
-0.98982046953 -0.00052772678589 0.14232062253 
