# vtk DataFile Version 4.2
vtk output
ASCII
DATASET POLYDATA
POINTS 64 float
0 0 0 -0.805043 0.431547 0.508578 -1.67817 0.675705 0.865381 
-2.67825 0.672995 1.0761 -3.63653 0.350238 1.11603 -4.4949 -0.189872 1.09659 
-5.26931 -0.845096 1.10464 -5.99438 -1.55086 1.17799 -6.69888 -2.26867 1.31141 
-7.40428 -2.98256 1.46042 -8.11979 -3.69616 1.54987 -8.8281 -4.41776 1.47363 
-9.4484 -5.1395 1.12685 -9.85746 -5.83492 0.514267 -9.99946 -6.49007 -0.246089 
-9.90078 -7.10839 -1.04368 -9.61215 -7.69782 -1.81693 -9.17843 -8.2661 -2.53652 
-8.63349 -8.82159 -3.18739 -8.0015 -9.37562 -3.75522 -7.29725 -9.94545 -4.21028 
-6.52743 -10.5668 -4.46305 -5.86596 -11.2205 -4.13413 -5.73292 -11.6025 -3.21124 
-5.92263 -11.7528 -2.22437 -6.21717 -11.8295 -1.25651 -6.56062 -11.8888 -0.303771 
-6.92552 -11.9714 0.639346 -7.29073 -12.1223 1.57371 -7.63073 -12.3943 2.48978 
-7.91071 -12.8324 3.36034 -8.09826 -13.4327 4.15598 -8.18633 -14.1378 4.87991 
-8.18517 -14.892 5.55839 -8.10413 -15.6623 6.21363 -7.94558 -16.4308 6.85671 
-7.70423 -17.1879 7.48738 -7.36795 -17.9262 8.09654 -6.92235 -18.6342 8.67022 
-6.35886 -19.2933 9.1965 -5.68277 -19.8791 9.67461 -4.91252 -20.3682 10.1178 
-4.07445 -20.7433 10.549 -3.19711 -20.9947 10.9918 -2.30857 -21.1204 11.4647 
-1.43223 -21.1288 11.9756 -0.582212 -21.0384 12.5219 0.239706 -20.8754 13.0939 
1.04267 -20.6693 13.6789 1.8412 -20.4497 14.2651 2.64895 -20.2451 14.8439 
3.47423 -20.0844 15.4117 4.31671 -19.9996 15.9705 5.16447 -20.0273 16.5268 
5.9886 -20.2092 17.0892 6.73479 -20.5868 17.6624 7.32067 -21.1802 18.2383 
7.67038 -21.9514 18.7951 7.77441 -22.8138 19.318 7.68729 -23.6941 19.8148 
7.47381 -24.5547 20.303 7.17713 -25.3934 20.8152 6.85589 -26.1545 21.3304 
6.51205 -26.9039 21.9734 
LINES 1 65
64 0 1 2 3 4 5 6 7 8 9 10 11 12 13 14 15 16 17 18 19 20 21 22 23 24 25 26 27 28 29 30 31 32 33 34 35 36 37 38 39 40 41 42 43 44 45 46 47 48 49 50 51 52 53 54 55 56 57 58 59 60 61 62 63 

POINT_DATA 64
SCALARS MaximumInscribedSphereRadius float
LOOKUP_TABLE default
1.64 1.64 1.51633 1.04143 1.01046 1.33399 1.86464 2.20572 2.2989 
2.05732 1.74595 1.55932 1.65408 1.86157 2.12468 2.58571 2.68517 2.26573 
2.18742 2.35084 2.55715 2.73951 2.60103 2.59852 3.18001 2.85923 2.57047 
2.74252 2.99251 3.24549 2.7894 2.57634 2.74682 2.42127 2.11046 2.34202 
2.46 2.48616 2.6778 2.75533 2.28173 2.05 2.10581 2.44294 2.83729 
3.09333 2.81427 2.18312 2.05 2.11308 2.3512 2.58924 2.83895 3.28156 
3.63684 3.42062 3.56163 3.60697 3.04554 3.05485 3.19274 3.02735 3.17185 
3.69 
TEXTURE_COORDINATES TCoords 2 float
0 0 0.015873 0 0.031746 0 0.047619 0 0.0634921 
0 0.0793651 0 0.0952381 0 0.111111 0 0.126984 0 
0.142857 0 0.15873 0 0.174603 0 0.190476 0 0.206349 
0 0.222222 0 0.238095 0 0.253968 0 0.269841 0 
0.285714 0 0.301587 0 0.31746 0 0.333333 0 0.349206 
0 0.365079 0 0.380952 0 0.396825 0 0.412698 0 
0.428571 0 0.444444 0 0.460317 0 0.47619 0 0.492063 
0 0.507937 0 0.52381 0 0.539683 0 0.555556 0 
0.571429 0 0.587302 0 0.603175 0 0.619048 0 0.634921 
0 0.650794 0 0.666667 0 0.68254 0 0.698413 0 
0.714286 0 0.730159 0 0.746032 0 0.761905 0 0.777778 
0 0.793651 0 0.809524 0 0.825397 0 0.84127 0 
0.857143 0 0.873016 0 0.888889 0 0.904762 0 0.920635 
0 0.936508 0 0.952381 0 0.968254 0 0.984127 0 
1 0 
FIELD FieldData 4
Curvature 1 64 float
0.191962 0.252499 0.308975 0.295669 0.207004 0.126715 0.0855493 0.0547649 0.0273641 
0.0633972 0.146811 0.237041 0.280276 0.259602 0.213181 0.168176 0.132977 0.108258 
0.101583 0.130993 0.237526 0.548464 0.743234 0.379 0.148629 0.0620821 0.0336501 
0.06464 0.112189 0.154846 0.166279 0.135895 0.0976798 0.072958 0.0641412 0.068519 
0.08088 0.0970488 0.111211 0.116745 0.11378 0.108869 0.106448 0.105811 0.101297 
0.0880431 0.066941 0.0407705 0.0150303 0.0171724 0.0397248 0.0643104 0.0938091 0.131084 
0.176597 0.221445 0.241746 0.21861 0.162564 0.107439 0.0718667 0.0694742 0.11167 
0.214278 
Torsion 1 64 float
-0.0185936 -0.0380694 -0.0834269 -0.164333 -0.274146 -0.376035 -0.377754 -0.346697 -0.620415 
-0.235974 -0.0979046 -0.144131 -0.188213 -0.179542 -0.137855 -0.107094 -0.102826 -0.126002 
-0.157914 -0.138474 -0.092097 -0.06397 -0.0370468 -0.0233586 -0.0482347 -0.327759 -0.758115 
-0.251252 -0.0780755 -0.0602146 -0.0948744 -0.156995 -0.207407 -0.209664 -0.122956 -0.0104794 
0.0261642 0.00529465 -0.0528561 -0.121131 -0.182566 -0.217021 -0.204842 -0.159563 -0.103175 
-0.0586404 -0.0136139 0.0584382 0.411784 0.333935 0.155835 0.147504 0.135111 0.115268 
0.0963913 0.085949 0.0852888 0.0938779 0.118555 0.183191 0.327707 0.373894 0.221236 
0.119446 
Abscissas 1 64 double
0 1.045456163 2.0197622 3.0418043031 4.0537661288 5.0681113824 6.0825539779 7.0970536682 8.111633714 
9.1262429218 10.140728454 11.154741313 12.167626589 13.180640442 14.194310397 15.2083167 16.222540958 17.23687084 
18.251346642 19.265639541 20.279421719 21.300495298 22.286930444 23.294575947 24.310692255 25.325280664 26.33976873 
27.35438423 28.36887187 29.383154124 30.397153696 31.411342001 32.425736834 33.440209243 34.454738214 35.469273032 
36.483766333 37.498284908 38.512646581 39.526996477 40.541318578 41.555675608 42.570069045 43.584465354 44.598831043 
45.613257738 46.627726171 47.642271223 48.65689118 49.671536315 50.686095734 51.700644338 52.715149524 53.729513631 
54.743697895 55.75757149 56.771002491 57.784448023 58.798342514 59.812899158 60.825098256 61.851638939 62.825239256 
63.870837768 
ParallelTransportNormals 3 64 double
0.53409043262 0 0.84542735335 0.39125643984 0.056868128302 0.9185229525 0.2052785186 0.08146578157 0.97530715994 
0.024341379718 0.05124543392 0.99838940436 -0.036649887186 0.022286444064 0.99907962655 -0.019248409758 0.035025716357 0.99920102978 
0.026404714516 0.076462243457 0.99672278813 0.067761179313 0.11764520778 0.99074115069 0.078613248512 0.12866507072 0.98856727476 
0.037411394011 0.087272432354 0.99548174777 -0.077831281677 -0.028891614295 0.99654782435 -0.26032591568 -0.22715268692 0.9384199883 
-0.42054545347 -0.44773059585 0.78910001591 -0.48836121052 -0.61391270408 0.62017297574 -0.49185529495 -0.71653427215 0.49462814887 
-0.47245814133 -0.77702383282 0.41595344442 -0.45032847556 -0.81249143865 0.37021875456 -0.433599339 -0.8317012394 0.34679195724 
-0.42776664876 -0.83719982063 0.34075233609 -0.44130849909 -0.82581041109 0.35111817607 -0.50204801436 -0.77672724326 0.3803190514 
-0.73985982642 -0.56450501563 0.3659802243 -0.96013430074 -0.27858316441 0.023098594129 -0.95322141515 -0.21194335973 -0.2155201753 
-0.93235030755 -0.20216365251 -0.29975450225 -0.91789207609 -0.19908163719 -0.34327924258 -0.90838276871 -0.19717670373 -0.36873037983 
-0.90235473706 -0.19524881085 -0.38423148018 -0.89962821955 -0.19361372051 -0.39138573532 -0.90085143217 -0.19501480398 -0.38786070101 
-0.90603368899 -0.20652439544 -0.36939224208 -0.91169510315 -0.23333695594 -0.33818028311 -0.9140044511 -0.27211138144 -0.30091736319 
-0.91153890463 -0.31783916408 -0.26091203712 -0.90360660333 -0.36878545754 -0.2179274942 -0.88875417992 -0.42544653885 -0.17062019299 
-0.86380504069 -0.49003642637 -0.11706900743 -0.82372742608 -0.56416990528 -0.056439751034 -0.76362205461 -0.64559967922 0.0090781005601 
-0.68265299493 -0.7269161713 0.074684459063 -0.58577808323 -0.79891243975 0.1363926348 -0.48182699807 -0.85476866558 0.19290741889 
-0.37936497876 -0.892189685 0.2451117681 -0.28543169063 -0.9122488387 0.29382104464 -0.20593315272 -0.91828949264 0.33813598495 
-0.14424753738 -0.91535961297 0.37591146152 -0.10134023253 -0.90885664923 0.40461061333 -0.076077383887 -0.90311808622 0.42259904638 
-0.067250417875 -0.90077174718 0.42905435644 -0.074833186815 -0.90277426558 0.42355474209 -0.10155010987 -0.90875068006 0.4047959692 
-0.15314139664 -0.91634506069 0.36994518835 -0.23664271266 -0.91916554488 0.31485699555 -0.35865148048 -0.903868608 0.23321804181 
-0.51874241437 -0.84682524352 0.11744494231 -0.69443476438 -0.7187463101 -0.034118905858 -0.8305436216 -0.52022587016 -0.19890283215 
-0.88853936446 -0.31145123338 -0.33689156568 -0.89007257575 -0.15402478001 -0.42900719929 -0.87342178607 -0.057641369979 -0.48354095596 
-0.8588334057 -0.0089884565465 -0.51217613075 -0.85283254379 0.0065115438874 -0.52214389975 -0.86780231582 -0.027537772002 -0.49614595814 
-0.86780231582 -0.027537772002 -0.49614595814 
