# vtk DataFile Version 4.2
vtk output
ASCII
DATASET POLYDATA
POINTS 64 float
0 0 0 -0.922027 0.367978 0.19671 -1.81499 0.260744 0.643617 
-2.58481 -0.13247 1.17134 -3.27265 -0.662479 1.69528 -3.93447 -1.27333 2.16105 
-4.62607 -1.97542 2.36196 -5.14008 -2.61687 1.79504 -5.44296 -3.14589 0.984156 
-5.6824 -3.71719 0.180912 -5.83825 -4.37178 -0.577485 -5.80963 -5.09984 -1.2808 
-5.5194 -5.83839 -1.9095 -5.01977 -6.53367 -2.45217 -4.41483 -7.21221 -2.90224 
-3.80905 -7.99073 -3.13072 -3.66729 -8.78701 -2.59668 -3.99854 -9.19527 -1.73231 
-4.48864 -9.37405 -0.863997 -5.08654 -9.30913 -0.0504694 -5.72947 -8.90609 0.615293 
-6.28512 -8.20241 1.08457 -6.70157 -7.366 1.47847 -6.98535 -6.50265 1.92771 
-7.10657 -5.69921 2.53078 -6.96854 -5.17242 3.37364 -6.56929 -5.20119 4.29601 
-6.07889 -5.58926 5.09269 -5.53976 -6.11876 5.76899 -4.91164 -6.74386 6.26185 
-4.33711 -7.49589 6.04279 -4.25885 -8.17552 5.29583 -4.37429 -8.90373 4.59994 
-4.54655 -9.73018 4.03914 -4.7235 -10.6704 3.71159 -4.85429 -11.6409 3.91176 
-4.86745 -12.3922 4.58944 -4.75264 -13.0316 5.36816 -4.4853 -13.6693 6.10916 
-4.02735 -14.3058 6.75054 -3.37398 -14.8596 7.29134 -2.57356 -15.2366 7.78458 
-1.70104 -15.3958 8.27443 -0.813698 -15.3633 8.76375 0.0705397 -15.2 9.23308 
0.958083 -14.968 9.66627 1.85585 -14.7111 10.063 2.76098 -14.4449 10.4361 
3.67023 -14.172 10.7942 4.58768 -13.91 11.1392 5.52378 -13.7135 11.4765 
6.47537 -13.6983 11.8223 7.34586 -14.0452 12.1932 7.91269 -14.7833 12.5802 
8.12353 -15.6881 12.9802 8.04317 -16.6086 13.3942 7.6894 -17.4759 13.7773 
7.0537 -18.2273 14.0038 6.21618 -18.7837 13.9155 5.35301 -19.1707 13.5526 
4.52972 -19.5238 13.0765 3.74762 -19.9808 12.6236 3.0446 -20.6427 12.3441 
2.48813 -21.4956 12.3509 
LINES 1 65
64 0 1 2 3 4 5 6 7 8 9 10 11 12 13 14 15 16 17 18 19 20 21 22 23 24 25 26 27 28 29 30 31 32 33 34 35 36 37 38 39 40 41 42 43 44 45 46 47 48 49 50 51 52 53 54 55 56 57 58 59 60 61 62 63 

POINT_DATA 64
SCALARS MaximumInscribedSphereRadius float
LOOKUP_TABLE default
1.116 1.2435 1.25464 1.54189 1.94406 1.3907 1.14485 1.73753 1.80572 
1.92198 1.85506 2.05998 2.04112 1.79767 1.63345 1.90368 2.08482 2.47075 
2.46652 2.26067 1.99697 1.98537 2.11648 1.88571 1.93326 2.1049 2.17 
2.4343 2.67707 2.25723 2.51212 2.73655 2.42584 2.3934 2.21271 1.97366 
2.1881 2.44673 2.69306 2.17303 1.55342 1.55 1.57293 1.77316 2.01732 
2.194 2.28784 2.41601 2.07301 2.16184 2.4944 2.45383 2.20328 2.18502 
1.97672 2.10306 2.28959 1.91733 2.222 2.20644 2.83549 2.94534 2.80527 
3.2364 
TEXTURE_COORDINATES TCoords 2 float
0 0 0.015873 0 0.031746 0 0.047619 0 0.0634921 
0 0.0793651 0 0.0952381 0 0.111111 0 0.126984 0 
0.142857 0 0.15873 0 0.174603 0 0.190476 0 0.206349 
0 0.222222 0 0.238095 0 0.253968 0 0.269841 0 
0.285714 0 0.301587 0 0.31746 0 0.333333 0 0.349206 
0 0.365079 0 0.380952 0 0.396825 0 0.412698 0 
0.428571 0 0.444444 0 0.460317 0 0.47619 0 0.492063 
0 0.507937 0 0.52381 0 0.539683 0 0.555556 0 
0.571429 0 0.587302 0 0.603175 0 0.619048 0 0.634921 
0 0.650794 0 0.666667 0 0.68254 0 0.698413 0 
0.714286 0 0.730159 0 0.746032 0 0.761905 0 0.777778 
0 0.793651 0 0.809524 0 0.825397 0 0.84127 0 
0.857143 0 0.873016 0 0.888889 0 0.904762 0 0.920635 
0 0.936508 0 0.952381 0 0.968254 0 0.984127 0 
1 0 
FIELD FieldData 4
Curvature 1 64 float
0.293884 0.304858 0.179293 0.0862544 0.0754883 0.214477 0.583549 0.238819 0.0811365 
0.0687157 0.113194 0.151152 0.130353 0.0734373 0.161112 0.606272 0.421022 0.158464 
0.143658 0.209051 0.210578 0.119721 0.0808688 0.130952 0.256094 0.371694 0.221384 
0.100376 0.146576 0.471292 0.494079 0.157279 0.0960316 0.151065 0.322964 0.320667 
0.130116 0.0874493 0.118096 0.12872 0.128341 0.124904 0.104141 0.0710709 0.0416959 
0.0251518 0.014259 0.0146392 0.0163147 0.0357863 0.101121 0.209229 0.281647 0.218395 
0.156497 0.150671 0.189534 0.241136 0.182017 0.0717544 0.0643451 0.15526 0.216553 
0.198023 
Torsion 1 64 float
0.00922031 0.0230415 0.04816 0.159617 0.248488 0.0538741 -0.0338003 -0.101244 -0.146287 
0.157387 0.185252 0.089183 -0.00909411 -0.357887 -0.192813 -0.0385541 -0.0147025 0.00427436 
0.0453114 0.068096 0.134435 0.348507 0.405117 0.144264 0.0649694 0.0325352 -0.0307971 
-0.192184 -0.0604085 0.12653 0.292489 0.269505 0.233326 0.0438074 0.00416731 0.0982429 
0.334194 0.246226 -0.0566651 -0.235572 -0.244918 -0.130675 -0.00577114 0.113366 0.269841 
0.239363 -0.0814391 0.0315487 0.278303 0.207224 0.0718705 0.0604956 0.0883653 0.108503 
0.0416199 -0.0884859 -0.164843 -0.139103 -0.123233 -0.56517 -0.679985 -0.101225 -0.0397764 
-0.016396 
Abscissas 1 64 double
0 1.0120456577 2.0163404261 3.0291245221 4.043297318 5.0572432572 6.0630294416 7.0615595817 8.0760206577 
9.0903758163 10.104251144 11.116942001 12.129341488 13.143015551 14.157378555 15.169932466 16.139136817 17.150837134 
18.163816897 19.175511846 20.184986563 21.196981476 22.210968031 23.224734128 24.236614985 25.240095413 26.245577703 
27.258390547 28.272497486 29.286497028 30.257899007 31.270801161 32.284645157 33.298148109 34.309391814 35.308913882 
36.320781454 37.334890859 38.348406114 39.361430845 40.374372601 41.38733222 42.400539363 43.414376609 44.428681221 
45.443181424 46.457764041 47.472321308 48.486937182 49.501522635 50.515754488 51.528341566 52.536140899 53.544038304 
54.555529955 55.568039639 56.580031573 57.589991577 58.599356854 59.612533274 60.627007355 61.639750164 62.644970809 
63.663372817 
ParallelTransportNormals 3 64 double
0.20864954408 0 0.97799047427 0.45059947273 -0.034517474184 0.89205866352 0.56543371404 -4.9665502414e-05 0.8247937394 
0.59628751325 0.019489149083 0.80253434481 0.57474187657 0.0012765593516 0.81833376181 0.41574948434 -0.15299016895 0.89651903185 
-0.029002415306 -0.64880810333 0.76039917475 -0.13820265885 -0.80507358141 0.57685054703 -0.13037058715 -0.78918286772 0.600161571 
-0.11459597293 -0.74025878522 0.66248373104 -0.11023112898 -0.69278277354 0.71267182271 -0.11523750051 -0.6697577327 0.73358359985 
-0.11913291095 -0.66268509343 0.73936176292 -0.14331796162 -0.63260358658 0.76109964139 -0.28204368988 -0.46564183337 0.83882598911 
-0.65714924361 0.33564630516 0.67490475584 -0.58937820252 0.79397087586 0.14914282645 -0.47655314746 0.87463963403 -0.088896615383 
-0.33082236813 0.88986880896 -0.31414974708 -0.10282822213 0.80381942895 -0.58591866533 0.10801997414 0.60921435726 -0.78561412417 
0.18220150662 0.49171572634 -0.8514800382 0.17887974796 0.49977924464 -0.84748023127 0.15261607689 0.60790504129 -0.7792045905 
0.15555217452 0.82602579792 -0.54174246849 0.29107061914 0.95184239438 -0.096301354817 0.42820723631 0.88776521056 0.16885346813 
0.49138859241 0.83145857731 0.25925640874 0.53926868822 0.78409736331 0.30721426848 0.78881769067 0.49750480881 0.36090942921 
0.99699326551 0.047616738648 0.061131617993 0.99348574715 -0.08551767059 -0.075317980766 0.98527089785 -0.12990773363 -0.11119909442 
0.98253481207 -0.14375051172 -0.11815724038 0.98045509181 -0.15667572515 -0.11899802557 0.98230540267 -0.13463727835 -0.13018793789 
0.97744263324 -0.068009868978 -0.19995138523 0.94815802845 0.029844251598 -0.31639480673 0.87230016325 0.16310402172 -0.46096583744 
0.7458770416 0.29851049843 -0.59544850419 0.60888601512 0.38622021476 -0.69288654649 0.50126851756 0.42071495011 -0.75612750516 
0.42481048358 0.42622211205 -0.79866811896 0.36392670839 0.41949410961 -0.831614119 0.31213561787 0.40793925349 -0.857995875 
0.27341016079 0.39733445917 -0.87599783763 0.25028006811 0.39062338591 -0.88587429011 0.2353533584 0.38618827167 -0.89188980009 
0.22700873107 0.38374477403 -0.8951016615 0.23964194891 0.38686968297 -0.89045133765 0.30825772992 0.39455936359 -0.86562121078 
0.48385390689 0.36250690754 -0.79653884951 0.71092622192 0.19110000013 -0.67680477018 0.82726381776 -0.054429333165 -0.55917083572 
0.84339936184 -0.27989762717 -0.45862275866 0.79341939383 -0.4856864866 -0.36687096128 0.68237517234 -0.66728158304 -0.29849524805 
0.55096674777 -0.7839250276 -0.28617685782 0.49275509337 -0.81622779362 -0.30160339334 0.5142538553 -0.80679297949 -0.29090902454 
0.59133124968 -0.76789361866 -0.24630619882 0.71178449885 -0.67706326989 -0.18694425842 0.82583830228 -0.5401062762 -0.16209968812 
0.82583830228 -0.5401062762 -0.16209968812 
