# vtk DataFile Version 4.2
vtk output
ASCII
DATASET POLYDATA
POINTS 64 float
0 0 0 -0.935958 -0.210351 0.419633 -1.85194 -0.390575 0.693313 
-2.83413 -0.582663 0.916295 -3.81112 -0.788966 1.08705 -4.78328 -1.03619 1.23932 
-5.72952 -1.36546 1.39898 -6.60327 -1.84836 1.57585 -7.32629 -2.54959 1.68387 
-7.8464 -3.39706 1.49925 -8.17693 -4.16092 0.923067 -8.37278 -4.71763 0.0991395 
-8.46688 -5.08443 -0.841539 -8.45997 -5.31034 -1.8303 -8.33784 -5.45268 -2.82716 
-8.09175 -5.58029 -3.80293 -7.73365 -5.76513 -4.73374 -7.30058 -6.06604 -5.60008 
-6.84314 -6.51633 -6.38506 -6.41236 -7.12928 -7.07 -6.06652 -7.90984 -7.60759 
-5.93227 -8.88934 -7.82042 -6.2985 -9.5966 -7.22259 -6.80442 -9.68877 -6.34474 
-7.27106 -9.59908 -5.45025 -7.68039 -9.44972 -4.5338 -8.01266 -9.32049 -3.58405 
-8.24075 -9.29117 -2.59631 -8.33274 -9.4608 -1.60146 -8.28571 -9.8953 -0.687613 
-8.14927 -10.5554 0.0694625 -7.98287 -11.3515 0.675542 -7.82027 -12.2177 1.17801 
-7.67471 -13.12 1.61835 -7.54858 -14.0426 2.0213 -7.43513 -14.9778 2.39795 
-7.31462 -15.9218 2.74972 -7.15189 -16.8696 3.07309 -6.90118 -17.8081 3.36512 
-6.52087 -18.7107 3.62851 -5.99431 -19.5424 3.87276 -5.33349 -20.2742 4.11024 
-4.56518 -20.8906 4.35225 -3.7162 -21.3838 4.60681 -2.80867 -21.7452 4.87986 
-1.86318 -21.9604 5.17723 -0.905742 -22.0157 5.50717 0.0308773 -21.9122 5.88219 
0.915634 -21.6776 6.3192 1.73207 -21.3677 6.83541 2.48326 -21.0515 7.43941 
3.1854 -20.7918 8.12395 3.85616 -20.6417 8.86988 4.50407 -20.6501 9.65001 
5.11828 -20.8638 10.4278 5.65822 -21.3115 11.1594 6.06725 -21.9736 11.8089 
6.31506 -22.7852 12.3638 6.41657 -23.6765 12.8372 6.41732 -24.6 13.2571 
6.37724 -25.531 13.6561 6.39164 -26.459 14.0828 6.55832 -27.3049 14.5505 
7.13622 -27.9492 15.1315 
LINES 1 65
64 0 1 2 3 4 5 6 7 8 9 10 11 12 13 14 15 16 17 18 19 20 21 22 23 24 25 26 27 28 29 30 31 32 33 34 35 36 37 38 39 40 41 42 43 44 45 46 47 48 49 50 51 52 53 54 55 56 57 58 59 60 61 62 63 

POINT_DATA 64
SCALARS MaximumInscribedSphereRadius float
LOOKUP_TABLE default
1.24 1.05461 0.873286 0.692569 0.735486 0.92935 1.14829 1.39829 1.40268 
1.12531 1.1646 1.64303 1.41727 1.24 1.27723 1.44331 1.44639 1.27726 
1.42309 1.6307 1.80486 1.58867 1.55458 1.57233 1.5657 1.58582 1.76514 
1.81822 1.74774 1.68382 1.92944 2.00457 1.49856 1.55281 2.01098 1.87022 
1.65464 1.76809 1.86 1.82898 1.67412 1.56159 1.55059 1.59722 1.71399 
1.97928 2.05113 1.70465 1.69275 1.88711 2.08011 2.06732 1.9081 1.87482 
2.17756 2.78968 2.75475 2.57308 2.40948 2.41105 2.40569 2.08508 1.78089 
1.581 
TEXTURE_COORDINATES TCoords 2 float
0 0 0.015873 0 0.031746 0 0.047619 0 0.0634921 
0 0.0793651 0 0.0952381 0 0.111111 0 0.126984 0 
0.142857 0 0.15873 0 0.174603 0 0.190476 0 0.206349 
0 0.222222 0 0.238095 0 0.253968 0 0.269841 0 
0.285714 0 0.301587 0 0.31746 0 0.333333 0 0.349206 
0 0.365079 0 0.380952 0 0.396825 0 0.412698 0 
0.428571 0 0.444444 0 0.460317 0 0.47619 0 0.492063 
0 0.507937 0 0.52381 0 0.539683 0 0.555556 0 
0.571429 0 0.587302 0 0.603175 0 0.619048 0 0.634921 
0 0.650794 0 0.666667 0 0.68254 0 0.698413 0 
0.714286 0 0.730159 0 0.746032 0 0.761905 0 0.777778 
0 0.793651 0 0.809524 0 0.825397 0 0.84127 0 
0.857143 0 0.873016 0 0.888889 0 0.904762 0 0.920635 
0 0.936508 0 0.952381 0 0.968254 0 0.984127 0 
1 0 
FIELD FieldData 4
Curvature 1 64 float
0.142226 0.0967768 0.0625297 0.0455732 0.0591128 0.10574 0.175062 0.245226 0.319541 
0.373301 0.29709 0.207896 0.147847 0.115159 0.103152 0.108358 0.122402 0.136703 
0.155249 0.210043 0.394262 0.97488 0.613095 0.22036 0.0869408 0.0682358 0.12635 
0.198968 0.248985 0.236052 0.173923 0.108533 0.0622711 0.036865 0.0275194 0.0294122 
0.0461968 0.0766971 0.109797 0.13016 0.133903 0.126555 0.116924 0.114786 0.121778 
0.130884 0.133584 0.122947 0.103777 0.0893352 0.0879986 0.103052 0.130596 0.165883 
0.199045 0.211307 0.192079 0.150794 0.096654 0.038978 0.0580995 0.182198 0.356476 
0.415109 
Torsion 1 64 float
0.0406082 0.0778724 0.180099 0.338405 0.244928 0.0841801 -0.061615 -0.333018 -0.473153 
-0.246991 -0.0736595 0.0425812 0.18254 0.351072 0.460346 0.426283 0.321611 0.220024 
0.138489 0.0605476 0.00175483 -0.0253601 -0.054167 -0.146801 -0.50377 -0.570849 -0.225727 
-0.143118 -0.12076 -0.107562 -0.100284 -0.114799 -0.14667 -0.111312 0.16437 0.402656 
0.291083 0.166116 0.121271 0.103222 0.0905511 0.0805239 0.0687914 0.0591477 0.0613757 
0.0861988 0.133022 0.228915 0.377635 0.47623 0.429954 0.289679 0.156918 0.051173 
-0.044461 -0.090678 -0.0869068 -0.0679037 -0.0512072 -0.0534954 -0.0235211 -0.0110125 -0.00577931 
-0.00223098 
Abscissas 1 64 double
0 1.047070595 2.0199038117 3.0452408255 4.0582697576 5.072863616 6.0873980343 7.1012593362 8.1142500022 
9.1255875491 10.137872041 11.151350826 12.16538897 13.179652815 14.194002971 15.208385567 16.222687411 17.23690725 
18.250911894 19.266009287 20.274910802 21.286217069 22.282078736 23.299463196 24.312334935 25.327095954 26.341556099 
27.35571349 28.369105215 29.382080083 30.395742386 31.410038189 32.424541056 33.439051884 34.453678811 35.468240963 
36.482834277 37.497415626 38.511771661 39.526017816 40.540242084 41.554446773 42.568753399 43.583058027 44.59734401 
45.61158829 46.625790588 47.639993548 48.654295842 49.668731036 50.683169328 51.697585384 52.711912579 53.726043336 
54.739886954 55.753400196 56.767072636 57.780985008 58.795296602 59.809776214 60.823466529 61.844966899 62.825819371 
63.86824577 
ParallelTransportNormals 3 64 double
0.40910916443 0 0.91248544732 0.29068634484 -0.02491449947 0.95649397104 0.2281482856 -0.037181836155 0.97291616845 
0.18153252636 -0.046663148863 0.98227719734 0.16696173627 -0.050053229101 0.98469205992 0.18162923429 -0.045645511942 0.98230713552 
0.21468217988 -0.030894526812 0.97619521094 0.1924170905 -0.047407809533 0.98016741574 0.040697194584 -0.23646132398 0.97078822645 
-0.13037257555 -0.56048524721 0.81783817421 -0.21925464033 -0.78345748059 0.58148239767 -0.25346082018 -0.89240229579 0.37333062438 
-0.26069330216 -0.94156268668 0.21330426452 -0.25373282422 -0.96142724082 0.10619470098 -0.24594142684 -0.96713931057 0.064454390992 
-0.25499495893 -0.96245737967 0.093023455365 -0.293124698 -0.93904694516 0.17963503612 -0.35756084355 -0.88469012616 0.29912141988 
-0.43735324689 -0.78918435735 0.43117303667 -0.52717210932 -0.62790657899 0.57255820246 -0.63132802679 -0.24631173876 0.73536076176 
-0.49950383538 0.69537805895 0.51666746905 -0.19018736158 0.98172608929 -0.0065309346844 -0.10865039241 0.98190017484 -0.15513587229 
-0.08776982542 0.9762035948 -0.19830027546 -0.099685674555 0.98067993547 -0.16831408278 -0.13111229155 0.98957129848 -0.059650752081 
-0.16510265532 0.97466089902 0.15092132096 -0.17167737403 0.8862519108 0.43021439986 -0.14590717815 0.73248957586 0.66495873303 
-0.11550342786 0.58629365415 0.80182211821 -0.095648616668 0.48597610324 0.86872237752 -0.085172548875 0.42585504441 0.90077362199 
-0.079802725445 0.38978692784 0.91744082964 -0.076540174949 0.36448770588 0.92805727942 -0.073489827401 0.339986887 0.93755435146 
-0.069219198434 0.31146281031 0.94773393965 -0.062596661795 0.28124855304 0.95759120158 -0.054758054522 0.25837846355 0.96449060391 
-0.05114188386 0.25146290334 0.96651482966 -0.057947955362 0.26042488775 0.96375355372 -0.07764757487 0.27900908733 0.95714407657 
-0.10935161422 0.30076078515 0.94740971844 -0.15290450905 0.32195064504 0.93432756208 -0.21086442349 0.33998576941 0.916485609 
-0.28692571004 0.35079770604 0.89141158078 -0.38134622983 0.34839495862 0.85626865282 -0.48688339927 0.32880469566 0.80921692248 
-0.58823353412 0.29636596026 0.75242841981 -0.66943699141 0.26393378166 0.69440123375 -0.72174011794 0.24320799849 0.64802860401 
-0.74570536105 0.23605464342 0.62305835988 -0.74630803063 0.23598988993 0.62236090435 -0.73095059099 0.23328702813 0.64131770289 
-0.71388328293 0.22350573111 0.66363834015 -0.70967872312 0.2185887144 0.6697574814 -0.71563321565 0.23194777984 0.65883937958 
-0.72120136241 0.25908941681 0.64244942911 -0.72269488 0.28559265006 0.62940364524 -0.72242277525 0.29841785085 0.62374042685 
-0.72268682197 0.27945720146 0.63216092089 -0.71690341162 0.22380490659 0.66027332386 -0.65271433247 0.092602962572 0.75192332821 
-0.65271433247 0.092602962572 0.75192332821 
