# vtk DataFile Version 4.2
vtk output
ASCII
DATASET POLYDATA
POINTS 64 float
0 0 0 -0.665716 0.596232 0.539387 -1.37889 0.736946 1.19718 
-2.11617 0.574811 1.87765 -2.82817 0.194502 2.49148 -3.5246 -0.325511 3.01402 
-4.21624 -0.943739 3.4239 -4.90737 -1.63854 3.68433 -5.57813 -2.3963 3.71063 
-6.08671 -3.15501 3.29139 -6.10395 -3.64948 2.41506 -5.74338 -3.87552 1.49453 
-5.23315 -4.02275 0.63027 -4.65889 -4.18594 -0.18997 -4.06259 -4.41944 -0.976723 
-3.47776 -4.76819 -1.72844 -2.95101 -5.28489 -2.42309 -2.58626 -6.04658 -2.97851 
-2.68287 -7.02832 -3.07925 -3.27491 -7.67845 -2.58113 -3.97059 -7.9198 -1.88552 
-4.65469 -7.91624 -1.13729 -5.29203 -7.74081 -0.36822 -5.855 -7.43619 0.418509 
-6.30561 -7.04102 1.23667 -6.57396 -6.61875 2.11776 -6.52295 -6.33846 3.0864 
-6.09489 -6.50559 3.98148 -5.56359 -7.09556 4.61018 -5.10904 -7.903 5.02038 
-4.77411 -8.82778 5.26588 -4.56954 -9.81468 5.37722 -4.48795 -10.8256 5.38937 
-4.49508 -11.8397 5.3609 -4.52791 -12.8536 5.37297 -4.50026 -13.8586 5.50469 
-4.32842 -14.8176 5.78426 -3.97557 -15.6875 6.1668 -3.4553 -16.4507 6.58498 
-2.79944 -17.1064 6.99541 -2.03921 -17.6558 7.3812 -1.19968 -18.0954 7.74276 
-0.301419 -18.4124 8.09105 0.633678 -18.5853 8.44345 1.57673 -18.5915 8.81608 
2.4946 -18.4288 9.21537 3.36857 -18.1311 9.63546 4.20618 -17.7554 10.0673 
5.03192 -17.3622 10.5067 5.87262 -17.0135 10.9548 6.74302 -16.7731 11.4166 
7.63276 -16.7004 11.8973 8.50242 -16.8336 12.4008 9.29372 -17.1807 12.9306 
9.93892 -17.728 13.4883 10.3628 -18.446 14.0634 10.506 -19.277 14.6245 
10.371 -20.1426 15.1339 10.0335 -20.9883 15.5803 9.59461 -21.8079 15.9861 
9.1514 -22.6257 16.3917 8.82853 -23.474 16.8508 8.79389 -24.3004 17.3741 
9.21476 -25.0489 17.9693 
LINES 1 65
64 0 1 2 3 4 5 6 7 8 9 10 11 12 13 14 15 16 17 18 19 20 21 22 23 24 25 26 27 28 29 30 31 32 33 34 35 36 37 38 39 40 41 42 43 44 45 46 47 48 49 50 51 52 53 54 55 56 57 58 59 60 61 62 63 

POINT_DATA 64
SCALARS MaximumInscribedSphereRadius float
LOOKUP_TABLE default
0.62 0.824596 0.736767 0.62 0.726237 1.12281 1.08242 0.931767 1.06073 
1.35837 0.757202 0.915723 0.925806 0.894415 1.03897 1.25913 0.814741 0.669457 
1.06736 1.25641 1.62968 1.75608 1.54904 1.34456 1.24 1.40738 1.91281 
1.81072 1.07175 1.22392 1.64509 1.86633 1.82194 1.61048 1.55 1.39144 
1.24345 1.24 1.26942 1.45324 1.57096 1.5202 1.35624 1.56463 1.87855 
1.69891 1.41333 1.33854 1.58867 1.98349 2.17 2.11142 1.93866 1.9306 
1.92039 1.86 1.88554 2.06123 2.17 2.22154 2.41176 2.31444 2.07462 
1.86 
TEXTURE_COORDINATES TCoords 2 float
0 0 0.015873 0 0.031746 0 0.047619 0 0.0634921 
0 0.0793651 0 0.0952381 0 0.111111 0 0.126984 0 
0.142857 0 0.15873 0 0.174603 0 0.190476 0 0.206349 
0 0.222222 0 0.238095 0 0.253968 0 0.269841 0 
0.285714 0 0.301587 0 0.31746 0 0.333333 0 0.349206 
0 0.365079 0 0.380952 0 0.396825 0 0.412698 0 
0.428571 0 0.444444 0 0.460317 0 0.47619 0 0.492063 
0 0.507937 0 0.52381 0 0.539683 0 0.555556 0 
0.571429 0 0.587302 0 0.603175 0 0.619048 0 0.634921 
0 0.650794 0 0.666667 0 0.68254 0 0.698413 0 
0.714286 0 0.730159 0 0.746032 0 0.761905 0 0.777778 
0 0.793651 0 0.809524 0 0.825397 0 0.84127 0 
0.857143 0 0.873016 0 0.888889 0 0.904762 0 0.920635 
0 0.936508 0 0.952381 0 0.968254 0 0.984127 0 
1 0 
FIELD FieldData 4
Curvature 1 64 float
0.320797 0.326792 0.24951 0.169575 0.12479 0.108972 0.128752 0.206534 0.383995 
0.58265 0.381671 0.177005 0.0866954 0.0651812 0.0899377 0.15013 0.271512 0.539948 
0.679128 0.373942 0.199725 0.1358 0.109888 0.116217 0.170886 0.295062 0.464211 
0.393526 0.244726 0.174511 0.143876 0.117926 0.0770152 0.0573311 0.105166 0.1567 
0.169171 0.15335 0.130993 0.111998 0.0996556 0.0994076 0.109637 0.124268 0.126268 
0.105284 0.0652289 0.0233 0.0353489 0.0829746 0.124044 0.152116 0.167127 0.182028 
0.205085 0.221743 0.209178 0.159309 0.0837603 0.0331915 0.101182 0.240248 0.340735 
0.299236 
Torsion 1 64 float
-0.0345701 -0.0627827 -0.0916295 -0.121877 -0.154442 -0.158028 -0.0938194 -0.0176425 0.0384228 
0.0996228 0.110962 0.158461 0.318425 0.36075 0.163485 0.0655498 0.029023 0.0086313 
0.00230929 -0.0087429 -0.0355555 -0.0952853 -0.184864 -0.259674 -0.254132 -0.234505 -0.233503 
-0.192314 -0.134967 -0.0890519 -0.069167 -0.0985913 -0.350782 -0.670811 -0.286381 -0.189179 
-0.178125 -0.13817 -0.0735315 -0.00219991 0.068588 0.126301 0.129761 0.0974197 0.0578079 
0.0287209 0.0440588 1.04386 0.546982 -0.0280804 -0.0602212 -0.0864454 -0.105964 -0.0989417 
-0.0665498 -0.0324566 -0.0140106 -0.00380173 -0.0135302 -0.0706217 -0.0125781 -0.00302808 -0.00147792 
-0.000548079 
Abscissas 1 64 double
0 1.043843235 2.0242050742 3.0405262862 4.0546103511 5.06874847 6.0829344236 7.0969527718 8.1092820281 
9.1142978127 10.12065362 11.134793823 12.149168823 13.163663487 14.178097234 15.192361164 16.205763035 17.216557242 
18.208169802 19.218765868 20.231728786 21.245559708 22.259683377 23.273917645 24.288115088 25.301348917 26.311016269 
27.317165257 28.329888421 29.343219127 30.356957855 31.370968544 32.385248068 33.399772756 34.41427575 35.428248111 
36.441840825 37.455530058 38.469448517 39.483621193 40.497832184 41.512122498 42.526354884 43.540498297 44.55451935 
45.56861445 46.582973758 47.597481889 48.612136809 49.626612941 50.640835875 51.65473659 52.66842469 53.681994192 
54.695330206 55.708215064 56.721083547 57.734480626 58.748576637 59.762992871 60.777756457 61.794924478 62.773688024 
63.818507358 
ParallelTransportNormals 3 64 double
0.62953240373 0 0.77697422908 0.67524051222 -0.023929265617 0.73720936029 0.68086446193 -0.023867337702 0.7320204469 
0.66206876777 -0.030905539774 0.74880557847 0.62502323399 -0.054586346482 0.77869524703 0.57117217101 -0.098745044176 0.8148691719 
0.4940433414 -0.17198417887 0.85225736667 0.37370504465 -0.30034053797 0.87757626498 0.17056435263 -0.56168259474 0.8095804249 
0.040909529552 -0.87053824714 0.49039735996 0.083179379778 -0.95975104794 0.26825196504 0.10369087661 -0.96854372308 0.22621065093 
0.086775515767 -0.9637019414 0.25248480746 0.042272694109 -0.94862035205 0.31358004881 -0.026758198654 -0.91459026686 0.40349552981 
-0.1239707224 -0.83889493572 0.52998730815 -0.25784344941 -0.64683225387 0.71772194543 -0.34620314204 -0.061989133433 0.93610935888 
-0.053557021393 0.63759242116 0.76850995435 0.22366961312 0.82963555366 0.51154349988 0.38234852129 0.85699410882 0.34550065951 
0.49397670832 0.84187617013 0.21732815233 0.58158852958 0.80683747588 0.1037693104 0.65175924831 0.75839042099 -0.007338364339 
0.70081176937 0.70261128326 -0.12328928803 0.71322651454 0.66239023922 -0.22923156402 0.71596371471 0.66303144535 -0.21859840278 
0.79022817124 0.60451009928 -0.10053346326 0.87399109436 0.48578726617 -0.012259649396 0.93611762482 0.34947979568 0.03934037246 
0.97559212455 0.20960976851 0.065450373972 0.99399948897 0.081106669769 0.073394305237 0.99731511199 -0.0090522235168 0.072667906618 
0.99687444532 -0.03141601737 0.072487061734 0.99704765305 0.036299813457 0.06766314425 0.98179124176 0.18647980191 0.036211063013 
0.93058460468 0.36497302048 -0.028407531519 0.84748688144 0.52040511186 -0.10461598981 0.74860555177 0.6396997698 -0.17428118765 
0.64448284881 0.72830893941 -0.23282600021 0.53768972985 0.79433077789 -0.28271605846 0.42507949988 0.8433587418 -0.32871484817 
0.30336259422 0.87588286541 -0.37523371718 0.17385919579 0.88823159546 -0.42522654299 0.051449347864 0.87793758008 -0.47600269966 
-0.041643648755 0.85401903522 -0.5185723614 -0.093322399584 0.83368684768 -0.54429511273 -0.10268081732 0.82936083593 -0.54919691694 
-0.06767216032 0.84494660368 -0.53055227418 0.016404824923 0.87389201634 -0.48584321082 0.15037608595 0.89772129679 -0.41410567016 
0.32106776957 0.89184974717 -0.31862127332 0.50473474461 0.83873712233 -0.20435967607 0.68039149682 0.72936461455 -0.071376957691 
0.82712969451 0.55568078147 0.084115025828 0.91084487677 0.32700846192 0.25184732735 0.91198645178 0.092905433217 0.39956137482 
0.86365986653 -0.082150352514 0.49733585687 0.82206727898 -0.17136549433 0.54299102771 0.82036715346 -0.17452135817 0.54455489077 
0.86995985532 -0.066687532056 0.48859249197 0.92166250738 0.17926008651 0.34409888675 0.83657959559 0.54067028439 0.088375470675 
0.83657959559 0.54067028439 0.088375470675 
