# vtk DataFile Version 4.2
vtk output
ASCII
DATASET POLYDATA
POINTS 64 float
0 0 0 -0.96359 0.0079379 0.411225 -1.89415 0.0516038 0.690588 
-2.89241 0.0812727 0.919818 -3.89008 0.0480033 1.09364 -4.88169 -0.106071 1.24073 
-5.83014 -0.435968 1.38135 -6.68856 -0.9571 1.52104 -7.44004 -1.62835 1.63672 
-8.10925 -2.38958 1.67656 -8.73133 -3.18298 1.56723 -9.31692 -3.94327 1.24111 
-9.8395 -4.62802 0.706204 -10.271 -5.25115 0.0321979 -10.5963 -5.85074 -0.718545 
-10.8019 -6.45721 -1.50523 -10.8716 -7.08552 -2.29841 -10.7889 -7.73868 -3.06987 
-10.5383 -8.4125 -3.78501 -10.1055 -9.09814 -4.3938 -9.47492 -9.779 -4.80012 
-8.66899 -10.377 -4.7521 -8.01791 -10.652 -4.04165 -7.74829 -10.6156 -3.06343 
-7.70908 -10.4524 -2.0634 -7.79913 -10.2463 -1.07423 -7.96246 -10.0508 -0.0921542 
-8.15253 -9.92635 0.896482 -8.3084 -9.97047 1.89724 -8.34858 -10.3068 2.85072 
-8.25474 -10.9305 3.64388 -8.10345 -11.7108 4.27407 -7.95948 -12.5649 4.80219 
-7.8536 -13.4588 5.27031 -7.79549 -14.3764 5.69904 -7.77855 -15.3108 6.09409 
-7.78161 -16.2599 6.45246 -7.77281 -17.2237 6.76937 -7.71376 -18.1978 7.04666 
-7.56573 -19.17 7.29568 -7.29295 -20.1172 7.5348 -6.86591 -21.0023 7.78503 
-6.26979 -21.7729 8.06562 -5.51962 -22.3731 8.38904 -4.66544 -22.7749 8.75906 
-3.76707 -22.9939 9.17557 -2.86789 -23.0679 9.63913 -1.9916 -23.0314 10.1489 
-1.14648 -22.9051 10.6957 -0.327397 -22.6966 11.2568 0.480894 -22.415 11.8014 
1.29629 -22.0857 12.3075 2.13286 -21.7516 12.7742 2.99657 -21.4674 13.2242 
3.88087 -21.2984 13.6913 4.75604 -21.3204 14.2024 5.55279 -21.6076 14.7582 
6.17553 -22.1768 15.3185 6.57485 -22.9536 15.8326 6.77727 -23.8385 16.2847 
6.83725 -24.7647 16.6917 6.80498 -25.7007 17.1017 6.71965 -26.5849 17.5155 
6.71059 -27.3109 18.2641 
LINES 1 65
64 0 1 2 3 4 5 6 7 8 9 10 11 12 13 14 15 16 17 18 19 20 21 22 23 24 25 26 27 28 29 30 31 32 33 34 35 36 37 38 39 40 41 42 43 44 45 46 47 48 49 50 51 52 53 54 55 56 57 58 59 60 61 62 63 

POINT_DATA 64
SCALARS MaximumInscribedSphereRadius float
LOOKUP_TABLE default
0.93 0.93 0.981444 1.14768 1.22029 1.05509 0.9796 0.974246 0.947477 
0.93 0.947725 1.04042 1.2824 1.67064 1.83131 1.8562 1.86 1.79401 
1.48673 1.26362 1.26402 1.73973 1.78971 1.66404 1.82356 1.73376 1.62147 
1.74303 1.76971 1.5895 1.55 1.65791 1.8215 1.86 1.82389 1.6823 
1.66375 2.17549 2.3069 1.999 1.96401 2.09538 2.01648 1.90792 2.08827 
2.27621 2.44865 2.21847 1.91231 2.05978 2.24736 2.43101 2.48 2.4164 
2.13808 1.81982 1.65374 1.78325 2.12614 2.32829 2.4663 2.48 2.48 
2.48 
TEXTURE_COORDINATES TCoords 2 float
0 0 0.015873 0 0.031746 0 0.047619 0 0.0634921 
0 0.0793651 0 0.0952381 0 0.111111 0 0.126984 0 
0.142857 0 0.15873 0 0.174603 0 0.190476 0 0.206349 
0 0.222222 0 0.238095 0 0.253968 0 0.269841 0 
0.285714 0 0.301587 0 0.31746 0 0.333333 0 0.349206 
0 0.365079 0 0.380952 0 0.396825 0 0.412698 0 
0.428571 0 0.444444 0 0.460317 0 0.47619 0 0.492063 
0 0.507937 0 0.52381 0 0.539683 0 0.555556 0 
0.571429 0 0.587302 0 0.603175 0 0.619048 0 0.634921 
0 0.650794 0 0.666667 0 0.68254 0 0.698413 0 
0.714286 0 0.730159 0 0.746032 0 0.761905 0 0.777778 
0 0.793651 0 0.809524 0 0.825397 0 0.84127 0 
0.857143 0 0.873016 0 0.888889 0 0.904762 0 0.920635 
0 0.936508 0 0.952381 0 0.968254 0 0.984127 0 
1 0 
FIELD FieldData 4
Curvature 1 64 float
0.122159 0.0861866 0.0639225 0.069725 0.103179 0.145965 0.166354 0.145982 0.111789 
0.128614 0.175748 0.183727 0.146818 0.114501 0.104388 0.109435 0.121879 0.140773 
0.172297 0.240065 0.410017 0.625588 0.467299 0.235669 0.118199 0.0638846 0.0791649 
0.158256 0.262402 0.286392 0.199804 0.114678 0.071049 0.0536117 0.0437344 0.0351625 
0.0365049 0.0516166 0.073626 0.100375 0.131698 0.162956 0.183901 0.180879 0.152389 
0.119666 0.0957221 0.0812851 0.0699134 0.0607706 0.0535954 0.0452235 0.0510039 0.0937901 
0.156678 0.223699 0.262295 0.246123 0.189493 0.123733 0.07986 0.114053 0.327563 
1.14303 
Torsion 1 64 float
0.12131 0.260069 0.472982 0.434421 0.21994 0.101168 -0.0061432 -0.182892 -0.490423 
-0.411697 -0.130652 0.0756778 0.198904 0.271383 0.215369 0.118932 0.0710731 0.0624521 
0.0747719 0.0920283 0.096568 0.0821899 0.0579566 0.0610115 0.160202 0.526029 0.486643 
0.161233 0.0451788 -0.0429276 -0.13208 -0.219693 -0.25357 -0.127525 0.132432 0.473107 
0.584138 0.400738 0.258666 0.176386 0.120581 0.0891812 0.0779744 0.0864241 0.113729 
0.136031 0.0993095 -0.040082 -0.250219 -0.373129 -0.417017 -0.568901 -0.648117 -0.254916 
-0.0855001 -0.0296876 -0.0103644 -0.0109187 -0.033316 -0.0980014 -0.333037 -0.35275 -0.143938 
-0.08503 
Abscissas 1 64 double
0 1.0476997383 2.0202696846 3.0449402171 4.0581856144 5.0724167881 6.0864008064 7.1002925724 8.11453161 
9.128878839 10.142989306 11.156552862 12.170503922 13.184785648 14.199153983 15.213525928 16.227806822 17.242009948 
18.256041603 19.26996542 20.283029159 21.287734481 22.289867257 23.305216362 24.31923389 25.333651848 26.348230348 
27.36263459 28.376419042 29.388276665 30.401642665 31.415987902 32.430446053 33.445041547 34.459524367 35.474144549 
36.488653412 37.503257191 38.517775605 39.532220004 40.546506247 41.560596571 42.574457183 43.588161488 44.602055631 
45.616210411 46.630552004 47.644988756 48.65946877 49.673964876 50.688470684 51.703087512 52.7176222 53.732149231 
54.746412308 55.760132935 56.773151699 57.785935004 58.7994309 59.813539049 60.826995687 61.849364895 62.829323661 
63.872185017 
ParallelTransportNormals 3 64 double
0.39251398032 0 0.91974603846 0.28765699433 0.0029321538499 0.95772900973 0.22395308953 0.00536850142 0.97458513886 
0.17146952389 0.0052645467334 0.98517535846 0.14628854253 0.0028938335751 0.98923773081 0.14572231721 0.0027525752293 0.98932170177 
0.15609318607 0.0076372764911 0.98771280708 0.14964568419 0.0028620531368 0.98873554495 0.10597685913 -0.041168885881 0.99351599291 
0.016356997421 -0.14906616709 0.98869192697 -0.11370539116 -0.31639422588 0.94178860571 -0.23805732329 -0.47854736555 0.84517520654 
-0.31691615477 -0.58664849818 0.74525679496 -0.35557193083 -0.6491022121 0.67248414126 -0.37169695243 -0.68573384596 0.62578787785 
-0.37701992309 -0.70960906232 0.59524025087 -0.37684889185 -0.72646144074 0.57466397819 -0.37425213284 -0.73679957602 0.56308234375 
-0.37438788553 -0.73652953246 0.56334532836 -0.39366350729 -0.71176130736 0.58174297105 -0.49645744663 -0.62031930233 0.60723468844 
-0.73148406459 -0.47954548147 0.48473414822 -0.8582177929 -0.44651124756 0.25315988181 -0.88059362494 -0.4609861177 0.10975730953 
-0.87829008771 -0.47772697858 0.019582026525 -0.86975063239 -0.49126211285 -0.046854817603 -0.85980303812 -0.50026792682 -0.10232661937 
-0.85070506655 -0.50237925323 -0.15464790869 -0.8452466635 -0.49177314088 -0.20908671826 -0.84690430839 -0.46206783267 -0.26314712698 
-0.85494611143 -0.41600517737 -0.3098497038 -0.86482361753 -0.36132882655 -0.34859946883 -0.87311876489 -0.30329497169 -0.38167496977 
-0.87821724028 -0.24697421402 -0.40955856295 -0.88019094633 -0.19827108024 -0.43122207357 -0.88043603206 -0.16501006449 -0.44452679567 
-0.88046507952 -0.15532911835 -0.44794431433 -0.87964365784 -0.17878942247 -0.44075092472 -0.87297414241 -0.24147381678 -0.42380012091 
-0.85023595378 -0.34518494357 -0.39742443009 -0.79645385959 -0.48599617312 -0.35981796683 -0.69526235807 -0.6497420192 -0.3073199667 
-0.5419267676 -0.80586628993 -0.23852652121 -0.36220030491 -0.91811765808 -0.16084435035 -0.19768078026 -0.97639726581 -0.087009703154 
-0.069555367618 -0.99728255988 -0.02428058045 0.025448953287 -0.99928945861 0.027801595063 0.1004915052 -0.9921925048 0.073861294392 
0.16781685798 -0.97864816599 0.11868137753 0.22743717816 -0.96069296 0.15918971888 0.267175826 -0.94574163222 0.18490495692 
0.27212511075 -0.94375408642 0.18781945711 0.22968360378 -0.959187751 0.16493726229 0.12905972912 -0.98527518532 0.11214452954 
-0.036766191709 -0.9991247345 0.019950239783 -0.25987004561 -0.95785185179 -0.12242299383 -0.48364261967 -0.82283940881 -0.29837078234 
-0.63276276054 -0.6264815521 -0.45511773614 -0.69817012471 -0.44588109468 -0.56013259714 -0.71655117916 -0.31899100168 -0.62032181043 
-0.71746303263 -0.25859309804 -0.64682022731 -0.71611703641 -0.23796963665 -0.65616068322 -0.73094371356 -0.48545239424 -0.47964284685 
-0.73094371356 -0.48545239424 -0.47964284685 
