# vtk DataFile Version 4.2
vtk output
ASCII
DATASET POLYDATA
POINTS 64 float
0 0 0 -0.891701 0.545197 -0.00547144 -1.85712 0.648823 0.11586 
-2.79135 0.303128 0.296253 -3.56946 -0.332319 0.429124 -4.22132 -1.10859 0.445009 
-4.76331 -1.94991 0.284963 -5.16669 -2.79276 -0.105671 -5.3749 -3.55976 -0.73284 
-5.36767 -4.19764 -1.51995 -5.18895 -4.72474 -2.36772 -4.90196 -5.20309 -3.21505 
-4.55455 -5.69563 -4.03109 -4.18438 -6.2621 -4.78666 -3.83439 -6.97038 -5.42099 
-3.58549 -7.885 -5.76843 -3.59622 -8.84331 -5.4918 -3.85593 -9.38408 -4.67984 
-4.18216 -9.53728 -3.73296 -4.49701 -9.47882 -2.77071 -4.76484 -9.31302 -1.80641 
-4.9459 -9.12812 -0.825689 -4.96518 -9.06869 0.185526 -4.74255 -9.37264 1.12058 
-4.39217 -10.0224 1.81413 -4.05 -10.8208 2.33753 -3.74988 -11.6853 2.77534 
-3.49452 -12.5867 3.16456 -3.27611 -13.5112 3.5209 -3.07795 -14.4489 3.85378 
-2.87467 -15.3901 4.17364 -2.63355 -16.3215 4.49554 -2.32061 -17.2235 4.83815 
-1.90924 -18.0693 5.21768 -1.38834 -18.8303 5.63973 -0.762513 -19.4844 6.09686 
-0.0460376 -20.0209 6.57367 0.744397 -20.4374 7.05366 1.59311 -20.7332 7.52366 
2.4838 -20.9062 7.97697 3.39696 -20.9567 8.41564 4.3112 -20.8988 8.85137 
5.21001 -20.769 9.30366 6.08641 -20.6219 9.79316 6.93884 -20.5147 10.3326 
7.76279 -20.4965 10.9238 8.54499 -20.609 11.5593 9.26038 -20.8865 12.2219 
9.87053 -21.3526 12.8835 10.3285 -22.0082 13.5058 10.6006 -22.817 14.0523 
10.6939 -23.7169 14.5099 10.6494 -24.6572 14.8874 10.5154 -25.6137 15.1978 
10.3335 -26.5806 15.4451 10.1339 -27.5597 15.6204 9.93463 -28.5508 15.7033 
9.74031 -29.5458 15.6716 9.54389 -30.5285 15.5148 9.33302 -31.4816 15.2398 
9.09687 -32.3947 14.8646 8.82889 -33.2639 14.4084 8.54092 -34.0564 13.913 
8.19173 -34.8527 13.3287 
LINES 1 65
64 0 1 2 3 4 5 6 7 8 9 10 11 12 13 14 15 16 17 18 19 20 21 22 23 24 25 26 27 28 29 30 31 32 33 34 35 36 37 38 39 40 41 42 43 44 45 46 47 48 49 50 51 52 53 54 55 56 57 58 59 60 61 62 63 

POINT_DATA 64
SCALARS MaximumInscribedSphereRadius float
LOOKUP_TABLE default
0.62 0.950351 1.21442 1.24 1.24 1.24 1.24065 1.25577 1.3361 
1.71156 1.85925 1.83978 1.70985 1.55487 1.57223 1.72966 1.87515 1.86119 
1.87409 2.01435 2.20621 2.40412 2.36568 2.22281 2.23636 2.40837 2.37617 
2.20792 2.43501 2.6885 2.4924 2.21331 2.17811 2.17 2.17081 2.18118 
2.16925 2.04927 1.92886 1.83946 1.70559 1.59598 1.70934 1.94904 2.33643 
2.36103 2.22594 2.35095 2.41713 2.22977 2.12801 2.06067 1.94011 1.92108 
2.0961 2.3289 2.57214 2.57141 2.4292 2.05041 2.05579 2.37339 2.35633 
2.17 
TEXTURE_COORDINATES TCoords 2 float
0 0 0.015873 0 0.031746 0 0.047619 0 0.0634921 
0 0.0793651 0 0.0952381 0 0.111111 0 0.126984 0 
0.142857 0 0.15873 0 0.174603 0 0.190476 0 0.206349 
0 0.222222 0 0.238095 0 0.253968 0 0.269841 0 
0.285714 0 0.301587 0 0.31746 0 0.333333 0 0.349206 
0 0.365079 0 0.380952 0 0.396825 0 0.412698 0 
0.428571 0 0.444444 0 0.460317 0 0.47619 0 0.492063 
0 0.507937 0 0.52381 0 0.539683 0 0.555556 0 
0.571429 0 0.587302 0 0.603175 0 0.619048 0 0.634921 
0 0.650794 0 0.666667 0 0.68254 0 0.698413 0 
0.714286 0 0.730159 0 0.746032 0 0.761905 0 0.777778 
0 0.793651 0 0.809524 0 0.825397 0 0.84127 0 
0.857143 0 0.873016 0 0.888889 0 0.904762 0 0.920635 
0 0.936508 0 0.952381 0 0.968254 0 0.984127 0 
1 0 
FIELD FieldData 4
Curvature 1 64 float
0.255606 0.351287 0.353655 0.236487 0.158793 0.151587 0.192291 0.226016 0.215006 
0.159092 0.092102 0.0548247 0.0742286 0.148742 0.288181 0.517198 0.543457 0.314743 
0.160589 0.0859707 0.0839564 0.183982 0.340361 0.344843 0.199907 0.105941 0.0621101 
0.0392407 0.0261682 0.0218252 0.0339728 0.0591714 0.0847874 0.102754 0.108484 0.105817 
0.0991942 0.0945952 0.0927387 0.0891001 0.0773926 0.0547258 0.0373794 0.0495855 0.0754043 
0.101803 0.127543 0.153074 0.174566 0.178967 0.157148 0.11872 0.0809717 0.055378 
0.0540532 0.0675112 0.0821359 0.0889933 0.087112 0.07866 0.0689121 0.0604513 0.0544363 
0.0511595 
Torsion 1 64 float
-0.0183799 -0.0472711 -0.107639 -0.203051 -0.285511 -0.203217 -0.0552456 0.0253243 0.064746 
0.118327 0.259947 0.608367 0.356752 0.0916213 0.0172781 -0.0178141 -0.0297965 -0.0463201 
-0.116076 -0.384016 -0.465852 -0.223331 -0.159239 -0.133665 -0.118982 -0.112662 -0.0855447 
0.000984839 0.184013 0.367795 0.21249 0.0967737 0.0461864 0.0104797 -0.0154234 -0.0324389 
-0.0338919 -0.0144781 0.0281392 0.0802688 0.150961 0.377778 0.765287 0.397649 0.159528 
0.0746922 0.038063 0.0150055 -0.00126577 -0.017052 -0.018462 0.0148861 0.107751 0.264204 
0.240783 0.0729138 -0.0333494 -0.0823566 -0.100579 -0.0934605 -0.0820258 -0.0786 -0.0862502 
-0.0958489 
Abscissas 1 64 double
0 1.0451795825 2.0236956114 3.0360355211 4.0493976488 5.0631879581 6.0766903356 7.0894618607 8.1018756383 
9.1150316833 10.129176184 11.143646745 12.158146627 13.172444901 14.185621779 15.195174341 16.192670112 17.202204501 
18.215357057 19.229493824 20.243938048 21.25822794 22.271371298 23.279476078 24.292375911 25.306511056 26.32096173 
27.335468498 28.350052367 29.364625315 30.379262753 31.393790743 32.408144839 33.422367009 34.436558083 35.450695453 
36.464854207 37.479077833 38.493331832 39.507603839 40.521922614 41.536342628 42.55087416 43.565430824 44.579887971 
45.594158023 46.608235015 47.622053372 48.635585808 49.64889944 50.662239538 51.676104959 52.690328939 53.704823047 
54.719288593 55.733786466 56.748114075 57.762406093 58.776736909 59.790882292 60.805915433 61.823483171 62.80144158 
63.849025828 
ParallelTransportNormals 3 64 double
-0.006135842776 0 0.99998117554 0.12003227935 -0.043034932052 0.99183680439 0.20125098122 -0.033014546739 0.97898318794 
0.1965032913 -0.03573436285 0.97985178054 0.13678678557 -0.094686300822 0.9860648456 0.047270877442 -0.21597695453 0.97525351538 
-0.054952197478 -0.39809637555 0.91569620059 -0.13367721776 -0.60532930377 0.78466988947 -0.15695480722 -0.7679845471 0.62093874409 
-0.14327417214 -0.85373658426 0.50060598907 -0.13035148257 -0.88163743174 0.45356799925 -0.1361607126 -0.87274693499 0.46879958172 
-0.16753856843 -0.82643907088 0.53752143233 -0.23321970249 -0.71016847759 0.66428104279 -0.34258102179 -0.41365892289 0.84351913969 
-0.42706568 0.25518812344 0.867464078 -0.32375749622 0.83197883449 0.45054667084 -0.20294285062 0.97524013832 0.087868492631 
-0.13816418644 0.98482354013 -0.10503928971 -0.11003884536 0.97399965544 -0.19803061309 -0.1087704906 0.97300872239 -0.20352642708 
-0.12314242286 0.99053929062 -0.060562838635 -0.082648303882 0.94181106915 0.32582382952 0.039233121385 0.73902061608 0.67253943468 
0.11585413544 0.57881296922 0.80718855664 0.15099383666 0.4878371436 0.85977658878 0.16897455327 0.43067566965 0.88654727337 
0.17941670665 0.39043197059 0.90297980139 0.18548281647 0.36331452768 0.91301625329 0.1878634629 0.35217214485 0.91688717937 
0.18517909916 0.36348338631 0.91301069496 0.17361258668 0.4017568175 0.89913854846 0.14787233238 0.46386876112 0.87347555534 
0.10565976718 0.53662340562 0.83718058634 0.050812252719 0.60430680199 0.79512980327 -0.009105464078 0.65745297805 0.75344055649 
-0.068443837674 0.69498000253 0.71576409323 -0.12665661611 0.72027671909 0.68202606221 -0.18756733565 0.73669326762 0.64969340773 
-0.25490632705 0.74503676145 0.61639515614 -0.32496482904 0.74475324946 0.58287259097 -0.38513164781 0.738524472 0.55340330512 
-0.4213664612 0.73287252826 0.53417989731 -0.4277037181 0.73194036723 0.53040817145 -0.40686505174 0.73349909072 0.54446295887 
-0.36388697573 0.73097544804 0.57728776468 -0.30466799437 0.71555283535 0.62861876605 -0.23712233086 0.6776593346 0.69609685133 
-0.17394653759 0.61131221292 0.77203625588 -0.13067167416 0.52451043479 0.84131665701 -0.11282186071 0.4410521291 0.89036186305 
-0.1110635681 0.37478131201 0.92043677241 -0.11609987012 0.32126041433 0.93984709732 -0.12487444767 0.26783526873 0.95533797221 
-0.13783656158 0.201716625 0.96969659455 -0.15571907288 0.11338664361 0.98127215358 -0.1775315809 0.0033182484789 0.98410950966 
-0.20092096492 -0.11506515603 0.9728261796 -0.22387035079 -0.2241404627 0.94849518661 -0.24527805346 -0.31351553495 0.91735853724 
-0.2648845775 -0.38283996732 0.88502526519 -0.28166940835 -0.43292709438 0.85629228383 -0.29884795849 -0.47590128283 0.82716858421 
-0.29884795849 -0.47590128283 0.82716858421 
