# vtk DataFile Version 4.2
vtk output
ASCII
DATASET POLYDATA
POINTS 64 float
0 0 0 -0.868915 0.102108 0.568093 -1.7525 -0.0150052 0.966442 
-2.6864 -0.366408 1.194 -3.54957 -0.895034 1.22017 -4.36047 -1.49903 1.13376 
-5.1509 -2.12062 0.998704 -5.94784 -2.7307 0.850096 -6.7612 -3.31621 0.691863 
-7.58637 -3.87293 0.495714 -8.39406 -4.40414 0.188381 -9.09414 -4.91564 -0.336415 
-9.54951 -5.4048 -1.09775 -9.71679 -5.87418 -1.98066 -9.6604 -6.34327 -2.8781 
-9.44963 -6.83327 -3.74095 -9.1307 -7.36316 -4.545 -8.73418 -7.95509 -5.26714 
-8.28614 -8.64453 -5.86149 -7.84517 -9.50721 -6.16339 -7.66721 -10.3979 -5.78214 
-7.82501 -10.9562 -4.93883 -8.07127 -11.3326 -4.0311 -8.30599 -11.6661 -3.10194 
-8.46886 -12.019 -2.16484 -8.5072 -12.4309 -1.23879 -8.39165 -12.9194 -0.357542 
-8.13884 -13.4804 0.448803 -7.80163 -14.1018 1.17635 -7.44189 -14.7739 1.84587 
-7.10598 -15.49 2.48127 -6.8159 -16.2433 3.09581 -6.57031 -17.0267 3.69195 
-6.34962 -17.8333 4.26647 -6.12259 -18.6561 4.81489 -5.85482 -19.4858 5.33391 
-5.51819 -20.3086 5.8227 -5.0945 -21.1073 6.28275 -4.5738 -21.8614 6.71796 
-3.95234 -22.5467 7.13411 -3.2314 -23.135 7.5379 -2.41913 -23.5943 7.93537 
-1.53444 -23.8936 8.33083 -0.607772 -24.0135 8.72519 0.325725 -23.9581 9.118 
1.23916 -23.756 9.51026 2.12105 -23.4494 9.90711 2.97298 -23.0822 10.3179 
3.80322 -22.6976 10.7563 4.62094 -22.3397 11.2386 5.43027 -22.0594 11.7821 
6.22307 -21.9172 12.3985 6.97227 -21.9749 13.0792 7.63669 -22.2678 13.7867 
8.18533 -22.7773 14.4705 8.61829 -23.4447 15.0997 8.95454 -24.2134 15.6699 
9.21245 -25.0459 16.1891 9.40254 -25.9201 16.6676 9.52768 -26.8226 17.1149 
9.58658 -27.74 17.5372 9.56866 -28.6812 17.9485 9.48148 -29.5752 18.3286 
9.28407 -30.518 18.7301 
LINES 1 65
64 0 1 2 3 4 5 6 7 8 9 10 11 12 13 14 15 16 17 18 19 20 21 22 23 24 25 26 27 28 29 30 31 32 33 34 35 36 37 38 39 40 41 42 43 44 45 46 47 48 49 50 51 52 53 54 55 56 57 58 59 60 61 62 63 

POINT_DATA 64
SCALARS MaximumInscribedSphereRadius float
LOOKUP_TABLE default
0.93 1.23007 1.46039 1.36029 1.26793 1.24235 1.24005 1.30325 1.63358 
1.72864 1.56832 1.44298 1.44814 1.53504 1.55 1.43273 1.13953 1.075 
1.41753 1.38527 1.24 1.36342 1.50475 1.35425 1.31612 1.4622 1.39867 
1.32516 1.48796 1.67332 1.79269 1.69636 1.69348 1.99184 2.07159 1.90002 
1.72412 1.62368 1.72274 1.74403 1.44052 1.3934 1.70987 1.78262 1.67891 
1.60463 1.55 1.55054 1.66299 2.00382 1.86712 1.3434 1.6195 1.92695 
2.02189 1.97676 1.87585 1.86 1.86 1.86 1.86 1.86088 1.98544 
2.17 
TEXTURE_COORDINATES TCoords 2 float
0 0 0.015873 0 0.031746 0 0.047619 0 0.0634921 
0 0.0793651 0 0.0952381 0 0.111111 0 0.126984 0 
0.142857 0 0.15873 0 0.174603 0 0.190476 0 0.206349 
0 0.222222 0 0.238095 0 0.253968 0 0.269841 0 
0.285714 0 0.301587 0 0.31746 0 0.333333 0 0.349206 
0 0.365079 0 0.380952 0 0.396825 0 0.412698 0 
0.428571 0 0.444444 0 0.460317 0 0.47619 0 0.492063 
0 0.507937 0 0.52381 0 0.539683 0 0.555556 0 
0.571429 0 0.587302 0 0.603175 0 0.619048 0 0.634921 
0 0.650794 0 0.666667 0 0.68254 0 0.698413 0 
0.714286 0 0.730159 0 0.746032 0 0.761905 0 0.777778 
0 0.793651 0 0.809524 0 0.825397 0 0.84127 0 
0.857143 0 0.873016 0 0.888889 0 0.904762 0 0.920635 
0 0.936508 0 0.952381 0 0.968254 0 0.984127 0 
1 0 
FIELD FieldData 4
Curvature 1 64 float
0.212303 0.265275 0.282728 0.223908 0.130127 0.055905 0.0211839 0.0286783 0.0553526 
0.116772 0.216913 0.295227 0.27879 0.208414 0.147448 0.111879 0.112699 0.166718 
0.335974 0.667717 0.605788 0.23872 0.0747663 0.0633342 0.117758 0.149604 0.14428 
0.110693 0.0685086 0.0514261 0.0526182 0.0475651 0.0352576 0.0300006 0.0444224 0.0644696 
0.0800685 0.0919683 0.103271 0.116828 0.132768 0.147475 0.154109 0.146886 0.124965 
0.0932693 0.0587682 0.0360459 0.0499239 0.0905139 0.138997 0.184932 0.212622 0.208676 
0.174664 0.132805 0.0982926 0.0754041 0.0643983 0.0618767 0.065022 0.0724279 0.0839473 
0.10015 
Torsion 1 64 float
0.00428791 0.00907616 0.0193348 0.0374345 0.0805053 0.261842 0.76501 -0.160498 -0.356453 
-0.246933 -0.170764 -0.157559 -0.153205 -0.157997 -0.189009 -0.243458 -0.241033 -0.156533 
-0.0943903 -0.0585245 -0.00471548 0.0879268 0.535392 0.418656 0.0928122 0.0682693 0.106836 
0.226579 0.521451 0.541559 0.188034 -0.0857519 -0.459272 -0.739841 -0.357438 -0.173086 
-0.127595 -0.118078 -0.114596 -0.106256 -0.0925382 -0.0769724 -0.0646022 -0.0592427 -0.0684784 
-0.11263 -0.291781 -0.782704 -0.536779 -0.161834 -0.072851 -0.0507837 -0.0442826 -0.0331792 
-0.0189457 -0.000251873 0.0312063 0.0758337 0.111882 0.121829 0.113951 0.101167 0.0887406 
0.0770463 
Abscissas 1 64 double
0 1.0431534006 2.0194320151 3.0428750066 4.0553931774 5.0702016411 6.0847921776 7.0993836429 8.1139839183 
9.1285366281 10.14293347 11.156419955 12.169469939 13.183289572 14.197500448 15.211914042 16.226308425 17.240751526 
18.255305352 19.270103186 20.255166633 21.278773596 22.291835768 23.306554377 24.321059927 25.335308298 26.349498975 
27.363809715 28.378291265 29.392879167 30.407456661 31.421984209 32.436583784 33.451168305 34.465715639 35.480351358 
36.4948634 37.509299896 38.523796821 39.538207136 40.55255342 41.566812009 42.581033873 43.595237925 44.609528545 
45.623961859 46.638468715 47.653047168 48.667645704 49.682224865 50.696609106 51.710858868 52.724752966 53.738558403 
54.752550009 55.766832926 56.781274356 57.795741429 58.810295823 59.825305105 60.836952372 61.864252586 62.839604301 
63.883178064 
ParallelTransportNormals 3 64 double
0.54721984582 0 0.83698891292 0.41118553021 -0.0017277856123 0.91155003949 0.25156219172 -0.042417158458 0.96691118949 
0.10111283131 -0.11618770773 0.98806710901 0.021614832079 -0.16996756452 0.98521257911 -0.01301472762 -0.1964715533 0.9804231462 
-0.024938386669 -0.20572334074 0.97829238162 -0.035938877535 -0.2138908116 0.97619624963 -0.069981559356 -0.23762217407 0.96883346543 
-0.16151696326 -0.2986096439 0.94060860678 -0.33108520244 -0.41587860859 0.84701096312 -0.49943527067 -0.56168159789 0.65960457321 
-0.5724557972 -0.67407432198 0.46681706127 -0.57982794502 -0.73644084564 0.3485031349 -0.57172129515 -0.76554486072 0.2950861347 
-0.56811655277 -0.77248545755 0.2837424895 -0.5775702605 -0.75766208544 0.30390912864 -0.61184359576 -0.70566245227 0.35733446208 
-0.71447715573 -0.52647750895 0.4608077978 -0.90106262948 0.0055881773239 0.43365298342 -0.90838638602 0.40624908669 0.098974002943 
-0.87654817027 0.47974199485 -0.038870600447 -0.87429510813 0.48306748631 -0.047474915203 -0.88832893165 0.45883890585 0.018400208381 
-0.90187514283 0.40734516126 0.14384417384 -0.89520171965 0.3295253677 0.30004485193 -0.86468288433 0.24257221812 0.43986614844 
-0.82948082709 0.17202679041 0.53138342171 -0.80973144513 0.13537306082 0.57097208441 -0.80765432095 0.13122806846 0.57486841268 
-0.81378479769 0.14561830194 0.56262741951 -0.81937557887 0.16165676096 0.54999159301 -0.82045417184 0.16533473108 0.54728363635 
-0.81563281751 0.14778824117 0.55937620862 -0.80344205293 0.10707420475 0.58567566303 -0.78218800709 0.048963595893 0.62111551892 
-0.7508057861 -0.017963548098 0.66027871577 -0.70937441429 -0.08608682892 0.6995548572 -0.65883506947 -0.14977833017 0.7372264259 
-0.60038329499 -0.20523408171 0.77292876179 -0.53576139694 -0.24938808611 0.80670025911 -0.46900737006 -0.27922932504 0.8378920401 
-0.40623677043 -0.29375620822 0.86526237436 -0.3555796052 -0.29551288623 0.88669909126 -0.32246233416 -0.29089585687 0.90077613395 
-0.30838633826 -0.28690750186 0.9069630377 -0.31217609258 -0.28838027993 0.90519771397 -0.33403813976 -0.29815092823 0.89416136417 
-0.37520687723 -0.31669974609 0.8711607602 -0.43942466687 -0.34188843554 0.83067337732 -0.52953806954 -0.36565190681 0.76543328642 
-0.63980177095 -0.37169185777 0.67268035259 -0.75133122697 -0.34402997011 0.56315607698 -0.84005364316 -0.28534490206 0.46139805319 
-0.89646649177 -0.21771048866 0.38594037396 -0.92878420228 -0.15737487045 0.33554888727 -0.94780598963 -0.10611322766 0.30067222843 
-0.96011886499 -0.05920648704 0.27325145375 -0.96862587911 -0.011261702595 0.24826816224 -0.9738468064 0.040397558067 0.22358540868 
-0.97526584408 0.10383802036 0.19512611024 -0.97162690907 0.16626916604 0.16821329912 -0.95790074597 0.25595488082 0.13005098943 
-0.95790074597 0.25595488082 0.13005098943 
