# vtk DataFile Version 4.2
vtk output
ASCII
DATASET POLYDATA
POINTS 64 float
0 0 0 -0.904103 0.037236 0.495416 -1.82339 0.149137 0.845562 
-2.80516 0.288867 1.10292 -3.7978 0.407288 1.25639 -4.80917 0.451396 1.33584 
-5.81953 0.368173 1.36539 -6.80314 0.120816 1.38412 -7.73001 -0.288898 1.42957 
-8.58531 -0.826711 1.52148 -9.36996 -1.45429 1.66214 -10.0906 -2.14351 1.84908 
-10.7521 -2.8756 2.08554 -11.3514 -3.63372 2.39439 -11.8662 -4.37444 2.85866 
-12.2252 -4.891 3.64702 -12.4822 -5.00442 4.62653 -12.8271 -5.01851 5.57605 
-13.1285 -5.10765 6.55391 -12.8988 -5.32941 7.48462 -12.1424 -5.63758 8.10489 
-11.3099 -6.01954 8.53647 -10.528 -6.52762 8.93722 -9.87882 -7.19245 9.34359 
-9.43793 -8.00945 9.75174 -9.22741 -8.93075 10.12 -9.19785 -9.906 10.3975 
-9.26665 -10.9083 10.5383 -9.34351 -11.9191 10.502 -9.34082 -12.9068 10.2717 
-9.20188 -13.8319 9.87972 -8.92386 -14.6792 9.39603 -8.53785 -15.4683 8.88837 
-8.08277 -16.2401 8.4125 -7.60893 -17.053 8.0326 -7.2168 -17.973 7.8622 
-7.01698 -18.9575 7.99047 -6.94335 -19.9128 8.32476 -6.85806 -20.8296 8.7508 
-6.65702 -21.7022 9.22763 -6.26135 -22.4755 9.75078 -5.64739 -23.0636 10.3033 
-4.87709 -23.4408 10.845 -4.02542 -23.6591 11.3512 -3.13322 -23.7829 11.8182 
-2.21732 -23.8579 12.2482 -1.28355 -23.904 12.6423 -0.33406 -23.9208 12.9995 
0.628715 -23.8933 13.3184 1.59805 -23.7995 13.6029 2.56126 -23.623 13.8683 
3.50408 -23.3645 14.1395 4.41677 -23.0415 14.4429 5.29564 -22.6814 14.7997 
6.13991 -22.3157 15.2273 6.94658 -21.9785 15.742 7.70616 -21.7114 16.3591 
8.39822 -21.5667 17.0865 8.99291 -21.5993 17.9072 9.47044 -21.8449 18.7683 
9.84046 -22.2947 19.5955 10.1459 -22.9392 20.3299 10.4145 -23.6981 20.9065 
10.7038 -24.601 21.313 
LINES 1 65
64 0 1 2 3 4 5 6 7 8 9 10 11 12 13 14 15 16 17 18 19 20 21 22 23 24 25 26 27 28 29 30 31 32 33 34 35 36 37 38 39 40 41 42 43 44 45 46 47 48 49 50 51 52 53 54 55 56 57 58 59 60 61 62 63 

POINT_DATA 64
SCALARS MaximumInscribedSphereRadius float
LOOKUP_TABLE default
0.93 1.18684 1.42418 1.46645 1.32976 1.18968 1.04711 1.1077 1.48374 
1.86359 1.82784 1.65227 1.56088 1.56811 1.4266 0.959825 0.729041 0.77514 
0.914915 0.937057 0.958255 1.00852 1.10778 1.22172 1.25362 1.27068 1.41361 
1.66337 1.85759 1.86 1.86 1.86 1.86131 1.94366 2.0932 2.06204 
1.89977 1.60932 1.31121 1.24 1.24728 1.296 1.3392 1.24882 1.05134 
1.05923 1.28842 1.51314 1.60202 1.65418 1.739 1.83603 1.9959 2.24348 
2.41394 2.34486 2.23724 2.2688 2.41303 2.5205 2.59982 2.61029 2.54807 
2.48 
TEXTURE_COORDINATES TCoords 2 float
0 0 0.015873 0 0.031746 0 0.047619 0 0.0634921 
0 0.0793651 0 0.0952381 0 0.111111 0 0.126984 0 
0.142857 0 0.15873 0 0.174603 0 0.190476 0 0.206349 
0 0.222222 0 0.238095 0 0.253968 0 0.269841 0 
0.285714 0 0.301587 0 0.31746 0 0.333333 0 0.349206 
0 0.365079 0 0.380952 0 0.396825 0 0.412698 0 
0.428571 0 0.444444 0 0.460317 0 0.47619 0 0.492063 
0 0.507937 0 0.52381 0 0.539683 0 0.555556 0 
0.571429 0 0.587302 0 0.603175 0 0.619048 0 0.634921 
0 0.650794 0 0.666667 0 0.68254 0 0.698413 0 
0.714286 0 0.730159 0 0.746032 0 0.761905 0 0.777778 
0 0.793651 0 0.809524 0 0.825397 0 0.84127 0 
0.857143 0 0.873016 0 0.888889 0 0.904762 0 0.920635 
0 0.936508 0 0.952381 0 0.968254 0 0.984127 0 
1 0 
FIELD FieldData 4
Curvature 1 64 float
0.168395 0.13941 0.110619 0.0954607 0.102152 0.126006 0.151473 0.160144 0.145601 
0.117772 0.091405 0.0862514 0.127812 0.248294 0.489012 0.479031 0.1814 0.158088 
0.519067 0.630038 0.288038 0.157039 0.188114 0.235314 0.23419 0.190808 0.155839 
0.163212 0.192658 0.200528 0.168209 0.1155 0.087531 0.136275 0.260234 0.341523 
0.232769 0.111363 0.12099 0.20254 0.262359 0.242236 0.174515 0.108697 0.0637398 
0.0457328 0.0474181 0.0578858 0.0701234 0.0780267 0.0797579 0.075444 0.0700855 0.0726937 
0.0911042 0.123727 0.165342 0.204013 0.222243 0.214703 0.199545 0.194311 0.1985 
0.201746 
Torsion 1 64 float
0.0973106 0.173232 0.306674 0.440689 0.43254 0.331111 0.244774 0.173297 0.110615 
0.0775368 0.0921861 0.14126 0.138114 0.123931 0.181614 0.541244 1.09876 1.1462 
0.218185 -0.104317 -0.387549 -0.426243 -0.172028 0.000636636 0.123903 0.297356 0.493341 
0.462625 0.314776 0.230733 0.227688 0.387993 0.621863 0.447396 0.186428 0.0142852 
-0.222126 -0.75953 -0.27428 0.0185384 0.0274262 -0.0211559 -0.0609487 -0.13472 -0.201888 
-0.10635 0.0950111 0.192455 0.241789 0.282395 0.318477 0.351688 0.396959 0.374287 
0.266633 0.17099 0.121774 0.114621 0.146785 0.207963 0.245416 0.227477 0.169083 
0.110538 
Abscissas 1 64 double
0 1.0316131634 2.0216700754 3.0461846227 4.057575131 5.0730191216 6.0872316643 7.101640475 8.1160462167 
9.1305551049 10.145107261 11.159648106 12.174266929 13.188808682 14.203319477 15.211895682 16.230891785 17.241209639 
18.268340657 19.252292608 20.27788725 21.290414072 22.305359127 23.319543471 24.333673687 25.347935566 26.362328573 
27.376805659 28.391172698 29.405370659 30.41964951 31.434129245 32.44872325 33.463231055 34.477949122 35.492445238 
36.50517584 37.519950923 38.534497918 39.549000321 40.563019177 41.576965653 42.59140168 43.605913648 44.620525283 
45.635117897 46.64969446 47.664290834 48.678879038 49.693447182 50.708022696 51.722557326 52.737142686 53.751731594 
54.766310433 55.780872408 56.795327125 57.809721215 58.823756397 59.838569479 60.850250311 61.873976524 62.864199475 
63.895783826 
ParallelTransportNormals 3 64 double
0.4805474025 0 0.87696875312 0.35700953086 0.010206529975 0.93404497837 0.25662464257 0.023476172919 0.96622598916 
0.15694223463 0.036502093579 0.98693299274 0.080096426741 0.042740249991 0.99587038989 0.025778035655 0.041687259937 0.99879811035 
0.0092331898215 0.038944428281 0.99919871883 0.028778054304 0.045666492247 0.99854213485 0.065877550165 0.065391021429 0.99568276208 
0.10371942445 0.092282397134 0.99031623241 0.13801130877 0.12228030059 0.98285319694 0.172711262 0.15796355186 0.97222339833 
0.21998717063 0.21384170995 0.95177590211 0.31283413952 0.33875225564 0.88734531635 0.49738245311 0.60429250317 0.62244780179 
0.6273415858 0.73752483305 0.24999931071 0.6304745577 0.73818591642 0.2399653827 0.62391843204 0.73714560268 0.25950366204 
0.63120788775 0.77507529365 0.028894491193 0.49718110415 0.84766130353 -0.18515200291 0.48921822395 0.85112124507 -0.19041574396 
0.58872154603 0.79627507574 -0.13911486263 0.73186169141 0.6789477399 -0.058381770515 0.86967911673 0.49159861933 0.044598558292 
0.95121430355 0.27402631471 0.14177774001 0.97477443948 0.0879185867 0.20514656773 0.97234965901 -0.03429434723 0.23099791853 
0.96889369827 -0.082057635476 0.2334770779 0.96998273729 -0.052711086822 0.23739214537 0.96368012841 0.032413349741 0.26508486351 
0.94075356236 0.12987232037 0.31323460106 0.90784483153 0.21097174276 0.36236540345 0.87597893581 0.27010851297 0.39962769579 
0.85621747354 0.30382073175 0.41783322147 0.86260906555 0.29103025513 0.41377166484 0.88079147648 0.23251307528 0.41248520553 
0.88340563215 0.2139771409 0.41690319291 0.87901140926 0.2657410358 0.39587958307 0.86034680344 0.38238323985 0.33702586799 
0.79543510655 0.56141227436 0.22825260012 0.65296597374 0.75351738815 0.076465566729 0.47495528199 0.87766124397 -0.064251233103 
0.33166054868 0.93027189903 -0.15682944344 0.24033457127 0.94818784986 -0.20779580176 0.18788890459 0.95395424915 -0.23381413572 
0.15253841626 0.9562686713 -0.24956413976 0.11627101882 0.95747996472 -0.26403251191 0.066001685096 0.95719867411 -0.28180574131 
-0.0031562411896 0.952856849 -0.30340379605 -0.082726050062 0.94172764472 -0.32604515609 -0.15415923439 0.92542489986 -0.34615557943 
-0.20216942712 0.91037901213 -0.36102295913 -0.2207583204 0.90329129688 -0.36787307181 -0.20956867686 0.9080044591 -0.36277937087 
-0.16970080622 0.92497849841 -0.34002413716 -0.099648871988 0.95200630204 -0.28940301171 0.0010888607003 0.98058330637 -0.19609995833 
0.12282843109 0.99118614843 -0.049630592083 0.24309270284 0.95999262463 0.1389967571 0.33812576895 0.88196888494 0.32833192102 
0.4116873476 0.76298601319 0.49836319237 0.46426924067 0.63412331974 0.61833784255 0.51484098381 0.48363968185 0.7078357292 
0.51484098381 0.48363968185 0.7078357292 
