# vtk DataFile Version 4.2
vtk output
ASCII
DATASET POLYDATA
POINTS 64 float
0 0 0 -0.805072 0.507433 0.415296 -1.63352 0.847707 0.816521 
-2.54441 1.094 1.22092 -3.47447 1.24804 1.58674 -4.42926 1.35746 1.91445 
-5.39862 1.43658 2.2028 -6.37853 1.47731 2.46266 -7.36092 1.44425 2.71381 
-8.32126 1.26891 2.98936 -9.18022 0.859531 3.337 -9.83782 0.223704 3.77511 
-10.3236 -0.510733 4.27904 -10.7464 -1.2541 4.82498 -11.2027 -1.96841 5.38263 
-11.768 -2.64059 5.88969 -12.501 -3.26549 6.2055 -13.3296 -3.83761 6.10432 
-13.999 -4.39906 5.58979 -14.3798 -5.04882 4.91164 -14.4699 -5.8296 4.27184 
-14.3214 -6.69812 3.76994 -14.0097 -7.58282 3.38341 -13.587 -8.4301 3.0191 
-13.0852 -9.18875 2.57028 -12.5473 -9.81059 1.97722 -12.0165 -10.3098 1.2666 
-11.5214 -10.7355 0.51355 -11.0034 -11.3738 -0.210581 -10.9035 -12.0073 0.231114 
-11.1641 -12.0566 1.25329 -11.4632 -11.7988 2.18312 -11.7755 -11.3607 3.04295 
-12.0843 -10.818 3.84271 -12.3771 -10.2737 4.64799 -12.6214 -9.90708 5.56049 
-12.7609 -9.89895 6.56255 -12.7928 -10.2168 7.52552 -12.7585 -10.7344 8.3972 
-12.6891 -11.3846 9.17268 -12.6045 -12.1383 9.84645 -12.5197 -12.9763 10.4118 
-12.4401 -13.8739 10.8778 -12.3574 -14.8007 11.2824 -12.253 -15.7316 11.6722 
-12.1032 -16.6492 12.0783 -11.8793 -17.5395 12.5102 -11.5483 -18.3861 12.9605 
-11.0839 -19.1666 13.4123 -10.4823 -19.8555 13.8508 -9.76416 -20.4329 14.2751 
-8.96068 -20.8831 14.7003 -8.10462 -21.1892 15.1502 -7.23049 -21.3416 15.6417 
-6.36534 -21.361 16.1712 -5.51295 -21.2989 16.7179 -4.65762 -21.2081 17.2561 
-3.78266 -21.1214 17.7624 -2.8829 -21.0485 18.2253 -1.9661 -20.9889 18.6568 
-1.05101 -20.9477 19.0891 -0.171084 -20.9714 19.6072 0.559309 -21.1197 20.256 
0.917575 -21.5323 21.136 
LINES 1 65
64 0 1 2 3 4 5 6 7 8 9 10 11 12 13 14 15 16 17 18 19 20 21 22 23 24 25 26 27 28 29 30 31 32 33 34 35 36 37 38 39 40 41 42 43 44 45 46 47 48 49 50 51 52 53 54 55 56 57 58 59 60 61 62 63 

POINT_DATA 64
SCALARS MaximumInscribedSphereRadius float
LOOKUP_TABLE default
1.55 1.23305 0.995856 1.11099 1.22148 1.24 1.18682 1.04977 1.00937 
1.33749 1.50641 1.40578 1.28273 1.17608 1.29188 1.51832 1.46564 1.42052 
1.49476 1.4163 1.26417 1.17691 1.15688 1.26368 1.40757 1.64534 1.80265 
1.67444 1.56026 1.39121 1.18546 1.0178 0.93 0.938976 1.02923 1.26499 
1.61287 1.831 1.86 1.86 1.84626 1.67839 1.39109 1.34978 1.50214 
1.55 1.55 1.55 1.55 1.55 1.55 1.55 1.47731 1.27818 
1.22236 1.42529 1.55 1.55076 1.55811 1.57101 1.47962 1.29487 1.48767 
1.81 
TEXTURE_COORDINATES TCoords 2 float
0 0 0.015873 0 0.031746 0 0.047619 0 0.0634921 
0 0.0793651 0 0.0952381 0 0.111111 0 0.126984 0 
0.142857 0 0.15873 0 0.174603 0 0.190476 0 0.206349 
0 0.222222 0 0.238095 0 0.253968 0 0.269841 0 
0.285714 0 0.301587 0 0.31746 0 0.333333 0 0.349206 
0 0.365079 0 0.380952 0 0.396825 0 0.412698 0 
0.428571 0 0.444444 0 0.460317 0 0.47619 0 0.492063 
0 0.507937 0 0.52381 0 0.539683 0 0.555556 0 
0.571429 0 0.587302 0 0.603175 0 0.619048 0 0.634921 
0 0.650794 0 0.666667 0 0.68254 0 0.698413 0 
0.714286 0 0.730159 0 0.746032 0 0.761905 0 0.777778 
0 0.793651 0 0.809524 0 0.825397 0 0.84127 0 
0.857143 0 0.873016 0 0.888889 0 0.904762 0 0.920635 
0 0.936508 0 0.952381 0 0.968254 0 0.984127 0 
1 0 
FIELD FieldData 4
Curvature 1 64 float
0.150562 0.139692 0.114659 0.0860542 0.0649672 0.050791 0.0444862 0.0713098 0.140491 
0.243644 0.284599 0.200909 0.0966685 0.0599764 0.125695 0.252094 0.410005 0.407478 
0.315172 0.288249 0.257433 0.1798 0.110338 0.132306 0.184469 0.153731 0.10684 
0.284993 1.838 1.19366 0.302456 0.177591 0.112698 0.097809 0.216596 0.340126 
0.31269 0.214251 0.149787 0.126246 0.121018 0.102317 0.0603257 0.0312678 0.0444281 
0.0726176 0.10234 0.131031 0.145359 0.141797 0.134487 0.136927 0.140691 0.121055 
0.0741518 0.0277355 0.0361197 0.0476219 0.0352767 0.0322904 0.0998107 0.246698 0.443896 
0.452624 
Torsion 1 64 float
0.0465322 0.082112 0.143355 0.21848 0.204828 -0.0145025 -0.442683 -0.331735 -0.156558 
-0.116031 -0.122782 -0.183871 -0.559404 -0.749176 -0.382253 -0.251594 -0.309831 -0.469175 
-0.527103 -0.326043 -0.0861506 0.218945 0.8232 0.528556 0.178704 0.142024 0.23711 
0.123745 0.102257 0.064499 0.0224302 0.0190224 0.0788955 0.208922 0.0577634 0.00808166 
0.0180335 0.0434725 0.0762067 0.088629 0.0655058 -0.0147881 -0.374353 -0.835563 -0.335319 
0.0879767 0.116851 0.0609238 -0.0147184 -0.108735 -0.194054 -0.201721 -0.134343 -0.0477251 
0.119535 1.16065 0.355107 0.0171752 0.426336 0.750614 0.14821 -0.00555283 -0.0113246 
-0.00457889 
Abscissas 1 64 double
0 1.0383159178 2.0196894271 3.0462951648 4.0575142608 5.0728911978 6.0873196909 7.1019179259 8.1164420497 
9.1308018684 10.143844588 11.158070758 12.172627305 13.187223148 14.201827485 15.215977296 16.22964703 17.24164332 
18.255577499 19.269029137 20.282478371 21.29652158 22.311044109 23.325579113 24.339872789 25.353648383 26.371459922 
27.36816902 28.463667596 29.242382506 30.298406518 31.308606949 32.322890687 33.337531802 34.35265278 35.365938911 
36.377694994 37.39226738 38.406620349 39.420990047 40.435478715 41.449903047 42.46438711 43.479029092 44.493631227 
45.508199352 46.522743573 47.537172269 48.551552974 49.565844997 50.580313433 51.594737779 52.609107065 53.623454671 
54.637964939 55.652512088 56.667151878 57.681750915 58.696225732 59.711246097 60.724148244 61.745549142 62.733682833 
63.769536597 
ParallelTransportNormals 3 64 double
0.45844673489 0 0.88872188635 0.43916516846 0.0099464300499 0.89835128059 0.41015162775 0.019776643512 0.911802899 
0.36996868285 0.028498937456 0.92860701283 0.32796751199 0.034371964139 0.94406349318 0.28777931992 0.038309538814 0.95693021807 
0.25768020542 0.04016021846 0.96539529137 0.24621544784 0.04020501503 0.96838087033 0.26836008253 0.042580639981 0.96237713772 
0.34641829444 0.06767581307 0.93563579966 0.4515660221 0.140128373 0.88116523238 0.51993304493 0.22205867259 0.82483912051 
0.54884241808 0.26907966352 0.79143422645 0.54828721269 0.268159051 0.79213121121 0.50414922416 0.2082579023 0.83813018434 
0.35326508526 0.057521539798 0.93375320722 0.01804919356 -0.19941049195 0.97974980598 -0.29157877689 -0.43369124218 0.85258062571 
-0.38910661473 -0.54618079254 0.7418103425 -0.3921881374 -0.55554210149 0.73318581434 -0.39381784291 -0.50946255587 0.76508523105 
-0.40109766223 -0.4817264443 0.77914074352 -0.38490380036 -0.51991746789 0.76258435012 -0.32124124412 -0.630502619 0.70659076594 
-0.21920361397 -0.76598122486 0.60433644502 -0.13414480295 -0.85522483611 0.50059529716 -0.093547971666 -0.89180818871 0.44263634232 
-0.1829202761 -0.79873192112 0.57320806936 -0.676090514 0.34669292569 0.65015815935 -0.61667210185 0.77806764387 -0.11969235712 
-0.54131720883 0.74912358259 -0.3818239613 -0.49055145774 0.69136936996 -0.53044100671 -0.45952813254 0.6423803598 -0.61333626075 
-0.46236343666 0.64750329263 -0.60577185348 -0.5158462801 0.73820148133 -0.43469666235 -0.58532470177 0.80600666202 -0.08802416865 
-0.61302251871 0.75607346981 0.22925160808 -0.61277076883 0.66867648475 0.4211694951 -0.60512508358 0.58257547595 0.54261353471 
-0.59574764463 0.49708857289 0.63086265908 -0.58661750548 0.4113007751 0.69764717062 -0.57934333009 0.33450618881 0.74328118201 
-0.57482911388 0.28376230572 0.76749621738 -0.57255720682 0.26120472584 0.77714241688 -0.57133985854 0.25235239795 0.7809539252 
-0.5685580343 0.23889442624 0.78719198087 -0.55882844578 0.20844009133 0.8026602622 -0.5356823352 0.16109175524 0.82891126313 
-0.49929690734 0.11093767707 0.85929938329 -0.46185444335 0.075010815578 0.88377816827 -0.44023352819 0.06040953839 0.89584883118 
-0.44646689907 0.063250246834 0.89256188262 -0.47928125863 0.071946012626 0.87470752049 -0.51927782194 0.075896991627 0.85122863574 
-0.542221621 0.075326605099 0.83685220695 -0.53679219382 0.075812724609 0.84030147652 -0.50513629913 0.079060105326 0.85941073943 
-0.46120909197 0.083010423561 0.88339993381 -0.42883231375 0.085372085982 0.89934112194 -0.42872774036 0.08537783903 0.89939043204 
-0.50386779494 0.084633997068 0.85962452952 -0.64928966669 0.10037705879 0.75388817128 -0.86702694438 0.21042696217 0.45164673287 
-0.86702694438 0.21042696217 0.45164673287 
