# vtk DataFile Version 4.2
vtk output
ASCII
DATASET POLYDATA
POINTS 64 float
0 0 0 -0.885337 0.553059 0.0236862 -1.80455 0.788084 0.25876 
-2.77201 0.842683 0.585578 -3.71737 0.740922 0.93571 -4.65262 0.533985 1.27004 
-5.57396 0.243238 1.57969 -6.47357 -0.116159 1.88109 -7.34054 -0.528761 2.20881 
-8.16476 -0.976404 2.59544 -8.94683 -1.44603 3.03949 -9.71124 -1.94927 3.4773 
-10.4952 -2.53382 3.74729 -11.2307 -3.21048 3.60444 -11.7602 -3.89144 3.07353 
-12.0625 -4.55513 2.36934 -12.1655 -5.22067 1.61106 -12.0956 -5.90051 0.86166 
-11.8808 -6.60356 0.162804 -11.5482 -7.34093 -0.44953 -11.1232 -8.12835 -0.923314 
-10.6318 -8.98943 -1.15396 -10.2362 -9.78951 -0.705168 -10.269 -9.93827 0.289953 
-10.487 -9.72292 1.25302 -10.7568 -9.37837 2.16951 -11.0341 -8.99217 3.0656 
-11.2921 -8.62278 3.97464 -11.5009 -8.33584 4.9249 -11.6227 -8.21979 5.92468 
-11.6233 -8.36741 6.92685 -11.509 -8.79596 7.83792 -11.3254 -9.42911 8.60838 
-11.1146 -10.1806 9.25628 -10.897 -10.995 9.82072 -10.6776 -11.8413 10.3356 
-10.4523 -12.7012 10.8247 -10.2114 -13.5639 11.3013 -9.94034 -14.4218 11.7702 
-9.6199 -15.2675 12.2301 -9.22606 -16.0882 12.6778 -8.73277 -16.8606 13.1126 
-8.12056 -17.5479 13.5386 -7.38813 -18.1049 13.9649 -6.56009 -18.4934 14.4028 
-5.67844 -18.6993 14.8598 -4.78303 -18.7366 15.3347 -3.89905 -18.6362 15.8221 
-3.03596 -18.4353 16.316 -2.19084 -18.1731 16.8124 -1.35424 -17.8892 17.3113 
-0.51621 -17.6222 17.8171 0.327741 -17.4096 18.3385 1.1716 -17.2874 18.8881 
1.99487 -17.2881 19.4805 2.76128 -17.4341 20.1284 3.42197 -17.7329 20.8373 
3.92312 -18.1718 21.6016 4.22762 -18.7091 22.4058 4.3334 -19.2827 23.2355 
4.26817 -19.8287 24.086 4.08314 -20.2832 24.9844 3.8556 -20.5855 25.885 
3.70434 -20.5936 26.9184 
LINES 1 65
64 0 1 2 3 4 5 6 7 8 9 10 11 12 13 14 15 16 17 18 19 20 21 22 23 24 25 26 27 28 29 30 31 32 33 34 35 36 37 38 39 40 41 42 43 44 45 46 47 48 49 50 51 52 53 54 55 56 57 58 59 60 61 62 63 

POINT_DATA 64
SCALARS MaximumInscribedSphereRadius float
LOOKUP_TABLE default
1.2772 1.05729 1.04759 1.20764 1.24 1.15794 1.04875 1.16316 1.30434 
1.38737 1.38513 1.34936 1.22847 1.28719 1.40755 0.865385 0.910001 1.31137 
1.81907 2.04294 1.69082 1.55 1.76431 1.67893 1.65755 1.78726 1.68075 
1.49111 1.35155 1.58012 1.83402 1.86 1.85312 1.75601 1.65068 1.90314 
2.19115 2.1569 1.94209 1.65135 1.74336 1.94978 2.12542 2.12601 1.94165 
1.64059 1.89708 2.02242 1.68616 1.55363 1.58296 1.92832 2.07536 1.90394 
2.32963 2.63195 2.06624 1.86 1.86 1.82862 1.46962 1.35811 1.52586 
1.55 
TEXTURE_COORDINATES TCoords 2 float
0 0 0.015873 0 0.031746 0 0.047619 0 0.0634921 
0 0.0793651 0 0.0952381 0 0.111111 0 0.126984 0 
0.142857 0 0.15873 0 0.174603 0 0.190476 0 0.206349 
0 0.222222 0 0.238095 0 0.253968 0 0.269841 0 
0.285714 0 0.301587 0 0.31746 0 0.333333 0 0.349206 
0 0.365079 0 0.380952 0 0.396825 0 0.412698 0 
0.428571 0 0.444444 0 0.460317 0 0.47619 0 0.492063 
0 0.507937 0 0.52381 0 0.539683 0 0.555556 0 
0.571429 0 0.587302 0 0.603175 0 0.619048 0 0.634921 
0 0.650794 0 0.666667 0 0.68254 0 0.698413 0 
0.714286 0 0.730159 0 0.746032 0 0.761905 0 0.777778 
0 0.793651 0 0.809524 0 0.825397 0 0.84127 0 
0.857143 0 0.873016 0 0.888889 0 0.904762 0 0.920635 
0 0.936508 0 0.952381 0 0.968254 0 0.984127 0 
1 0 
FIELD FieldData 4
Curvature 1 64 float
0.332302 0.285908 0.193908 0.12336 0.0867284 0.0716711 0.0623979 0.0617193 0.0717858 
0.0715566 0.073154 0.18008 0.355804 0.380547 0.261002 0.187314 0.1494 0.126827 
0.120312 0.154016 0.268619 0.609595 0.902592 0.379275 0.157737 0.0505926 0.035329 
0.0969951 0.171735 0.23775 0.257289 0.215063 0.148206 0.0907459 0.0494613 0.0240534 
0.0177856 0.0276093 0.0431898 0.0642171 0.0901715 0.118415 0.142718 0.155963 0.154293 
0.13795 0.112434 0.0836212 0.0518834 0.0188867 0.0151787 0.0467354 0.0775854 0.107421 
0.135178 0.158424 0.176925 0.179881 0.164052 0.141866 0.128439 0.155489 0.250223 
0.396679 
Torsion 1 64 float
0.0426721 0.0827207 0.143352 0.207038 0.178066 -0.0204632 -0.284883 -0.399553 -0.234848 
0.0423822 0.416585 0.137694 -0.0233201 -0.131854 -0.184353 -0.179028 -0.171635 -0.192094 
-0.220505 -0.185904 -0.117232 -0.055466 0.0176034 0.0259525 0.0401907 0.469444 0.360145 
0.0572263 0.0396313 0.045233 0.052973 0.0574459 0.0548281 0.0334936 -0.0459367 -0.361508 
-0.539539 -0.148818 -0.041212 -0.0533735 -0.085896 -0.110437 -0.12105 -0.121182 -0.0983667 
-0.0588893 -0.0378248 -0.0186845 -0.0211135 -0.305479 -0.546252 0.0288302 0.0793954 0.0989526 
0.105507 0.104414 0.107936 0.134686 0.185622 0.284184 0.413492 0.410163 0.274918 
0.149023 
Abscissas 1 64 double
0 1.0441536613 2.0216244191 3.0442533818 4.0574923198 5.0720324452 6.0865689357 7.1011163386 8.1156497054 
9.1301471066 10.144722284 11.159242226 12.173730762 13.183302097 14.196190117 15.209971986 16.224142166 17.238374997 
18.252681759 19.267221368 20.279706572 21.297611925 22.296631474 23.303344502 24.313986679 25.329594893 26.344002587 
27.358579938 28.372939979 29.386775796 30.399759373 31.413055645 32.427055359 33.44142647 34.455915929 35.470540017 
36.485136714 37.49974609 38.514306245 39.528899187 40.543341664 41.557731998 42.571959798 43.586077617 44.600148084 
45.614323232 46.62856177 47.642987649 48.657493626 49.672082729 50.686675828 51.701277792 52.715826372 53.73026792 
54.744521934 55.758660402 56.772726716 57.786601036 58.800577418 59.814780483 60.827559262 61.851242769 62.828095691 
63.872538084 
ParallelTransportNormals 3 64 double
0.02674431106 0 0.99964230694 0.22617765078 -0.085884089306 0.97029252985 0.31341203204 -0.099471677646 0.94439307681 
0.35492675195 -0.098432393987 0.92969783509 0.35423926266 -0.098545218797 0.92994805481 0.345415874 -0.10091044806 0.93300855058 
0.35138200339 -0.098780328712 0.93100651682 0.38680232273 -0.083301569116 0.91839251506 0.44733177046 -0.052512465817 0.89282513857 
0.50302073331 -0.020711443074 0.86402614427 0.50616805867 -0.018731508445 0.8622314231 0.39003245896 -0.10032132456 0.91531978717 
0.11795487849 -0.32621374362 0.93790790599 -0.10133372057 -0.56149414044 0.82125258437 -0.17364395539 -0.67837409284 0.71390221103 
-0.18797609767 -0.72537363057 0.66219187762 -0.18823949632 -0.73607793794 0.6501962483 -0.19139502064 -0.72075012236 0.66624860765 
-0.20739482199 -0.67864759681 0.70457421692 -0.2492073195 -0.59450088975 0.7645027168 -0.34529532313 -0.42163656017 0.8384472261 
-0.63256414314 0.11671533687 0.76566319942 -0.81085726131 0.58212963997 0.060295804565 -0.76470841493 0.56998979893 -0.30055393734 
-0.73439305036 0.53520426938 -0.41740057214 -0.72473987914 0.52231037853 -0.44938177095 -0.73217486647 0.53280504728 -0.42430972945 
-0.75433496249 0.56396247065 -0.33604329493 -0.78333144176 0.59930667829 -0.16499502328 -0.7987449471 0.59531557294 0.087211685543 
-0.78359320687 0.51852851042 0.34221319381 -0.75288270412 0.40907610737 0.51558158638 -0.72738061653 0.31954484669 0.60729608071 
-0.71157563603 0.26177447207 0.65202318976 -0.70266462753 0.22791065902 0.67403201165 -0.69734543264 0.20750228736 0.68604092321 
-0.69280810284 0.19073693369 0.69543968449 -0.68650647276 0.16955838718 0.70707765924 -0.67552563896 0.13793207076 0.72432027099 
-0.65642093911 0.09336161205 0.74859545824 -0.62597023342 0.038678711983 0.77888717033 -0.58383820887 -0.016951564861 0.81169303946 
-0.53630844237 -0.060934129527 0.84181962825 -0.49665939468 -0.084957677928 0.86377754002 -0.47515734202 -0.092433332258 0.8750323305 
-0.46953720281 -0.093202495636 0.87797956126 -0.47258478784 -0.093310547396 0.87633142135 -0.47785314524 -0.094219116956 0.87337227434 
-0.48200198066 -0.095343871082 0.87096706992 -0.48544467726 -0.096461808995 0.86892956258 -0.49108380755 -0.098316902086 0.86554634811 
-0.50411877138 -0.10203368692 0.85758579225 -0.53161274942 -0.10748742433 0.84013947548 -0.58052382707 -0.11105172437 0.80663473811 
-0.65358640357 -0.10430892134 0.74962954984 -0.74516841859 -0.075764033836 0.66255855523 -0.8401988329 -0.015423328268 0.54205907625 
-0.91491360949 0.075106412205 0.39660069845 -0.9530370167 0.17832575601 0.24478637533 -0.95646934836 0.27337411458 0.10214195572 
-0.9390631584 0.34317432998 -0.019793023686 -0.91944865773 0.37889884026 -0.10511819367 -0.91436623867 0.38316678293 -0.13083423878 
-0.91436623867 0.38316678293 -0.13083423878 
