# vtk DataFile Version 4.2
vtk output
ASCII
DATASET POLYDATA
POINTS 64 float
0 0 0 -1.03149 0.12702 0.11463 -1.99991 0.0926968 0.210229 
-2.99554 -0.122507 0.327855 -3.89652 -0.549987 0.499243 -4.67384 -1.14695 0.759942 
-5.33216 -1.83479 1.10991 -5.92106 -2.55102 1.52164 -6.49146 -3.26431 1.96359 
-7.08205 -3.9605 2.40606 -7.72085 -4.63408 2.81524 -8.42747 -5.28834 3.1379 
-9.15145 -5.99776 3.13409 -9.30859 -6.78063 2.56837 -9.03231 -7.57194 1.98293 
-8.75053 -8.40834 1.48327 -8.48493 -9.25401 0.989936 -8.18663 -10.0646 0.457565 
-7.78639 -10.7995 -0.115244 -7.2262 -11.4424 -0.66416 -6.46195 -11.9967 -1.03391 
-5.57432 -12.4336 -0.882006 -4.99151 -12.6373 -0.0850519 -4.81766 -12.6533 0.915227 
-4.85596 -12.5967 1.92707 -5.01067 -12.5287 2.92739 -5.23448 -12.5009 3.91655 
-5.49982 -12.5771 4.89263 -5.7806 -12.8392 5.831 -6.03865 -13.3425 6.67202 
-6.2383 -14.0419 7.37867 -6.36907 -14.8435 7.98646 -6.43109 -15.6829 8.55294 
-6.41814 -16.5248 9.11893 -6.31439 -17.3479 9.70273 -6.09599 -18.1381 10.3001 
-5.73527 -18.8825 10.887 -5.21118 -19.5615 11.4281 -4.52517 -20.1452 11.8938 
-3.70669 -20.6041 12.2785 -2.79883 -20.9205 12.6015 -1.84187 -21.0871 12.8935 
-0.869706 -21.1025 13.1825 0.0886792 -20.9743 13.489 1.0132 -20.7271 13.8255 
1.89976 -20.4047 14.1988 2.7606 -20.0654 14.6151 3.61319 -19.7744 15.0815 
4.46298 -19.5914 15.6042 5.29307 -19.5475 16.1854 6.07103 -19.6311 16.8309 
6.75742 -19.8085 17.5563 7.29946 -20.057 18.3765 7.63633 -20.3848 19.2747 
7.74511 -20.8302 20.1788 7.67482 -21.4261 20.996 7.51161 -22.1625 21.6738 
7.32579 -22.997 22.2197 7.15416 -23.887 22.6756 7.00717 -24.7994 23.0949 
6.87892 -25.7044 23.5307 6.74738 -26.5764 24.0534 6.60296 -27.3285 24.6574 
6.39449 -27.942 25.4769 
LINES 1 65
64 0 1 2 3 4 5 6 7 8 9 10 11 12 13 14 15 16 17 18 19 20 21 22 23 24 25 26 27 28 29 30 31 32 33 34 35 36 37 38 39 40 41 42 43 44 45 46 47 48 49 50 51 52 53 54 55 56 57 58 59 60 61 62 63 

POINT_DATA 64
SCALARS MaximumInscribedSphereRadius float
LOOKUP_TABLE default
1.55 1.41177 1.25632 1.08381 0.995145 1.14403 1.15509 1.00499 1.04021 
1.2068 1.38345 1.49155 1.5843 1.63726 1.02578 1.20211 1.4973 1.83959 
1.80137 1.59277 1.85726 1.98783 2.06188 2.15762 2.16994 2.10757 1.94017 
1.76484 1.58223 1.71353 1.82169 1.6476 1.63314 1.78526 1.67508 1.3954 
1.50113 1.72688 1.4997 1.26257 1.34551 1.43003 1.51763 1.44108 1.32195 
1.7732 2.29281 2.30931 2.22926 2.39474 2.39333 2.16604 1.81931 1.63406 
1.84254 2.19096 2.25802 1.81959 1.72073 2.03854 2.18681 2.17408 2.17 
2.17 
TEXTURE_COORDINATES TCoords 2 float
0 0 0.015873 0 0.031746 0 0.047619 0 0.0634921 
0 0.0793651 0 0.0952381 0 0.111111 0 0.126984 0 
0.142857 0 0.15873 0 0.174603 0 0.190476 0 0.206349 
0 0.222222 0 0.238095 0 0.253968 0 0.269841 0 
0.285714 0 0.301587 0 0.31746 0 0.333333 0 0.349206 
0 0.365079 0 0.380952 0 0.396825 0 0.412698 0 
0.428571 0 0.444444 0 0.460317 0 0.47619 0 0.492063 
0 0.507937 0 0.52381 0 0.539683 0 0.555556 0 
0.571429 0 0.587302 0 0.603175 0 0.619048 0 0.634921 
0 0.650794 0 0.666667 0 0.68254 0 0.698413 0 
0.714286 0 0.730159 0 0.746032 0 0.761905 0 0.777778 
0 0.793651 0 0.809524 0 0.825397 0 0.84127 0 
0.857143 0 0.873016 0 0.888889 0 0.904762 0 0.920635 
0 0.936508 0 0.952381 0 0.968254 0 0.984127 0 
1 0 
FIELD FieldData 4
Curvature 1 64 float
0.134011 0.157117 0.181716 0.198418 0.189947 0.148408 0.0897234 0.0392265 0.0291317 
0.0698489 0.149004 0.380545 0.795417 0.5208 0.189346 0.0783275 0.057364 0.112088 
0.16264 0.250525 0.467582 0.643695 0.435007 0.216003 0.104093 0.0686707 0.100869 
0.164872 0.218304 0.207568 0.139161 0.0817024 0.0637656 0.0774534 0.0997625 0.12399 
0.148858 0.164758 0.163529 0.147372 0.131858 0.124178 0.118478 0.104541 0.0760148 
0.0493587 0.0629541 0.101818 0.126221 0.124724 0.127032 0.155553 0.193628 0.212584 
0.208132 0.186582 0.145824 0.0953135 0.0436976 0.02585 0.0727118 0.132643 0.194491 
0.23367 
Torsion 1 64 float
0.0492319 0.0747844 0.111199 0.150162 0.173339 0.170056 0.186043 0.748795 0.779131 
0.20174 0.122858 0.179606 0.461126 0.371891 0.132826 0.166716 0.44865 0.309534 
0.345764 0.32422 0.240391 0.105804 0.0396367 0.0731491 0.246028 0.579002 0.32187 
0.122376 0.0737851 0.0922776 0.196808 0.40592 0.381068 0.0831698 -0.085736 -0.109243 
-0.062473 0.0198412 0.0971287 0.164864 0.19288 0.174425 0.141225 0.141132 0.287176 
0.727656 0.551177 0.109502 -0.0670991 -0.221163 -0.260478 -0.0992001 0.10244 0.274937 
0.309957 0.239434 0.180384 0.191386 0.47675 1.7263 0.253631 0.0945141 0.048575 
0.0259491 
Abscissas 1 64 double
0 1.0455838905 2.0193161956 3.0447075655 4.0565761174 5.0707533162 6.0851430903 7.0996923222 8.1143145934 
9.12883758 10.143334381 11.158951482 12.172577564 13.151157017 14.173527935 15.187739644 16.202175092 17.216796912 
18.230888261 19.245009112 20.258933369 21.259854726 22.267970074 23.28337036 24.297518685 25.312013391 26.326558 
27.340926954 28.354865627 29.368381886 30.382470107 31.396902369 32.411465861 33.426012852 34.440449714 35.454828616 
36.469077971 37.483228361 38.497226756 39.511372194 40.525595108 41.539889131 42.554216867 43.568554109 44.582989102 
45.5975256 46.612156461 47.626611312 48.640932574 49.655215415 50.669553388 51.683854049 52.697898879 53.711654213 
54.725366206 55.739196749 56.753265344 57.767624983 58.782218854 59.79705604 60.80967295 61.834809204 62.810169419 
63.854880252 
ParallelTransportNormals 3 64 double
0.11045056405 0 0.99388161916 0.098220252452 0.0005323699818 0.99516455855 0.1167205142 0.002839574468 0.99316074146 
0.17625199702 0.02306329495 0.98407485385 0.2637630093 0.076465911755 0.96155189109 0.34127230266 0.14583048835 0.9285831595 
0.38797454092 0.19840566667 0.90006163513 0.4076665276 0.22268762667 0.88556096526 0.40543138296 0.21997409083 0.88726365477 
0.37906204713 0.19059375078 0.90553077617 0.31336843547 0.12575621691 0.94126807954 0.084930384246 -0.092002061832 0.99213025881 
-0.18302514639 -0.55141151089 0.81390855841 -0.17792213019 -0.62466050352 0.76035713381 -0.2029475516 -0.55166284674 0.80899962598 
-0.20654258724 -0.54061552182 0.81552131623 -0.19076353609 -0.58696131764 0.78681998252 -0.15813048332 -0.65915686821 0.73519179357 
-0.12593481384 -0.70534382286 0.69758907261 -0.15011295139 -0.68348898463 0.71435909018 -0.39254355093 -0.53820123982 0.74582101477 
-0.79384746776 -0.36327456508 0.48768615759 -0.9333735383 -0.32271681333 0.15705953135 -0.94512333599 -0.32624338923 -0.017525146332 
-0.93510234049 -0.33271314265 -0.12200646506 -0.92048831273 -0.33641185462 -0.19881732871 -0.90241296555 -0.33462303385 -0.27143740498 
-0.87927227936 -0.32028671284 -0.35255734333 -0.85485090977 -0.28559392846 -0.43320437452 -0.84032760318 -0.2474341023 -0.48231305637 
-0.83789004424 -0.23636151238 -0.49200966375 -0.84054988798 -0.25900116009 -0.4758090845 -0.84203296441 -0.30981697971 -0.44158116573 
-0.83691061919 -0.38289634089 -0.39111508231 -0.81902501272 -0.47246507158 -0.32553768548 -0.78087671302 -0.57355173375 -0.24752771112 
-0.71421109281 -0.68079604383 -0.16254003081 -0.61420068648 -0.78515208445 -0.079332975551 -0.48648158759 -0.87366165458 -0.007139905798 
-0.34478606055 -0.9372976769 0.050947397723 -0.19984332496 -0.9748391735 0.098748322938 -0.057735097117 -0.98824640675 0.14154751182 
0.073007347445 -0.98060739477 0.18187650905 0.17744959901 -0.9597847702 0.21754271928 0.23996351698 -0.94012373617 0.24204311849 
0.2498590727 -0.93637651819 0.24651462424 0.20359089308 -0.9533965243 0.22267872756 0.10816746092 -0.97996517986 0.16723649921 
-0.010037097133 -0.99593079776 0.089560609372 -0.11476628793 -0.99334547096 0.0096682200922 -0.18953381531 -0.98001911514 -0.060327993673 
-0.24453825351 -0.96094826257 -0.12953562922 -0.29491629029 -0.92791372927 -0.22803616547 -0.33348959681 -0.86098826022 -0.38403633236 
-0.33772424462 -0.74645663248 -0.57336273896 -0.31288952281 -0.60475025117 -0.73237782614 -0.28505336108 -0.47946635628 -0.82997385172 
-0.26811762995 -0.39776149099 -0.8774387345 -0.26278972905 -0.36762240189 -0.89207361127 -0.26578843434 -0.38742413888 -0.88275650367 
-0.27683158655 -0.46297523906 -0.84203218508 -0.29397074224 -0.56354189235 -0.77201148843 -0.33211940661 -0.71261122252 -0.61796597422 
-0.33211940661 -0.71261122252 -0.61796597422 
