# vtk DataFile Version 4.2
vtk output
ASCII
DATASET POLYDATA
POINTS 64 float
0 0 0 -0.837391 0.588796 -0.161568 -1.70105 1.05829 -0.119126 
-2.63703 1.3718 0.151915 -3.54215 1.44808 0.598247 -4.41901 1.35156 1.10022 
-5.2765 1.14842 1.60283 -6.12064 0.886006 2.10086 -6.94838 0.590685 2.60784 
-7.75701 0.275938 3.13363 -8.5466 -0.0558152 3.67764 -9.32226 -0.416538 4.22276 
-10.0994 -0.845274 4.71727 -10.8796 -1.44287 4.95999 -11.4851 -2.18813 4.66647 
-11.8005 -2.90067 4.01052 -11.9318 -3.57164 3.26214 -11.9279 -4.23993 2.49882 
-11.7943 -4.92837 1.76574 -11.5171 -5.65806 1.11698 -11.0426 -6.47166 0.733985 
-10.5032 -7.10344 1.19936 -10.2973 -7.12608 2.22596 -10.1914 -6.96305 3.21249 
-10.0916 -6.72407 4.19549 -9.96647 -6.45731 5.16597 -9.80305 -6.19885 6.13344 
-9.60292 -5.99629 7.10721 -9.3952 -5.93026 8.09795 -9.25794 -6.11047 9.08559 
-9.27077 -6.56659 9.99104 -9.42522 -7.20999 10.76 -9.67215 -7.97092 11.3835 
-9.97362 -8.8274 11.8356 -10.2878 -9.76602 12.0561 -10.5546 -10.7417 11.9885 
-10.7247 -11.6869 11.6628 -10.7922 -12.578 11.1827 -10.7736 -13.4418 10.6508 
-10.683 -14.3239 10.1577 -10.5284 -15.2662 9.81533 -10.3263 -16.2568 9.75154 
-10.1084 -17.2177 9.99104 -9.89234 -18.1039 10.4353 -9.67015 -18.924 10.9897 
-9.41915 -19.6926 11.6026 -9.10379 -20.4119 12.2447 -8.6713 -21.0628 12.8916 
-8.0613 -21.5926 13.5043 -7.26098 -21.9316 14.0255 -6.34298 -22.0695 14.4347 
-5.38631 -22.0624 14.7724 -4.42736 -21.9626 15.0883 -3.48199 -21.8018 15.4197 
-2.56048 -21.6015 15.7939 -1.67185 -21.3835 16.2322 -0.823459 -21.1747 16.7479 
-0.0188605 -21.0065 17.3426 0.743469 -20.9066 18.0042 1.47145 -20.8922 18.712 
2.17154 -20.9657 19.4375 2.87137 -21.128 20.171 3.54213 -21.3495 20.8553 
4.26464 -21.6494 21.5352 
LINES 1 65
64 0 1 2 3 4 5 6 7 8 9 10 11 12 13 14 15 16 17 18 19 20 21 22 23 24 25 26 27 28 29 30 31 32 33 34 35 36 37 38 39 40 41 42 43 44 45 46 47 48 49 50 51 52 53 54 55 56 57 58 59 60 61 62 63 

POINT_DATA 64
SCALARS MaximumInscribedSphereRadius float
LOOKUP_TABLE default
1.2772 1.25866 1.24568 1.28875 1.41843 1.47552 1.3613 1.34299 1.38143 
1.46933 1.58071 1.82669 1.83328 1.27951 1.42761 1.50544 1.30859 1.25712 
1.26759 1.43787 1.44234 1.59425 2.10172 2.46262 2.67428 2.7096 2.55738 
2.25458 1.89288 1.84124 1.72054 1.63456 1.76149 1.66327 1.32041 1.53701 
1.84161 1.672 1.60177 1.75468 1.6505 1.3683 1.41443 1.53397 1.55 
1.59665 1.75069 1.78633 1.6033 1.42813 1.34656 1.43605 1.58599 1.74493 
1.76667 1.44556 1.24 1.24536 1.28939 1.3953 1.63345 1.923 2.09522 
2.2382 
TEXTURE_COORDINATES TCoords 2 float
0 0 0.015873 0 0.031746 0 0.047619 0 0.0634921 
0 0.0793651 0 0.0952381 0 0.111111 0 0.126984 0 
0.142857 0 0.15873 0 0.174603 0 0.190476 0 0.206349 
0 0.222222 0 0.238095 0 0.253968 0 0.269841 0 
0.285714 0 0.301587 0 0.31746 0 0.333333 0 0.349206 
0 0.365079 0 0.380952 0 0.396825 0 0.412698 0 
0.428571 0 0.444444 0 0.460317 0 0.47619 0 0.492063 
0 0.507937 0 0.52381 0 0.539683 0 0.555556 0 
0.571429 0 0.587302 0 0.603175 0 0.619048 0 0.634921 
0 0.650794 0 0.666667 0 0.68254 0 0.698413 0 
0.714286 0 0.730159 0 0.746032 0 0.761905 0 0.777778 
0 0.793651 0 0.809524 0 0.825397 0 0.84127 0 
0.857143 0 0.873016 0 0.888889 0 0.904762 0 0.920635 
0 0.936508 0 0.952381 0 0.968254 0 0.984127 0 
1 0 
FIELD FieldData 4
Curvature 1 64 float
0.213442 0.270585 0.303298 0.259209 0.179712 0.12628 0.091014 0.0623463 0.0398823 
0.0286214 0.0572185 0.14088 0.326801 0.540875 0.452032 0.237989 0.136897 0.121079 
0.175122 0.356866 0.855339 0.936895 0.292001 0.109455 0.0437904 0.0486301 0.087519 
0.148566 0.2374 0.293342 0.254886 0.194629 0.182382 0.21914 0.263406 0.251525 
0.176986 0.0975212 0.0852897 0.165499 0.256352 0.27324 0.205941 0.125492 0.0741872 
0.0786765 0.131829 0.201958 0.252998 0.232735 0.158171 0.0931921 0.0599382 0.0568512 
0.0681948 0.0805219 0.089395 0.0930451 0.0913127 0.0852059 0.0769503 0.0703177 0.0682627 
0.0710323 
Torsion 1 64 float
0.0199528 0.0444188 0.105591 0.197815 0.221862 0.0998242 -0.0557932 -0.138662 -0.136905 
0.19059 0.230085 0.123296 0.0656887 -0.000203251 -0.0887505 -0.172537 -0.265226 -0.253512 
-0.162302 -0.125753 -0.0886052 0.0332589 0.103653 0.242568 0.736646 0.488236 0.263688 
0.235105 0.198003 0.113519 0.00613255 -0.0863807 -0.134883 -0.134897 -0.115227 -0.115632 
-0.193417 -0.587062 -0.908853 -0.272089 -0.0936714 -0.0287707 0.0273122 0.144307 0.432564 
0.385284 0.13727 0.043137 -0.00466708 -0.0613353 -0.150155 -0.312406 -0.498068 -0.431584 
-0.304543 -0.269754 -0.256035 -0.235749 -0.221884 -0.221367 -0.238112 -0.253449 -0.237864 
-0.191927 
Abscissas 1 64 double
0 1.0363439053 2.0202813198 3.0439072148 4.0559711176 5.0709473116 6.0854284477 7.1000548158 8.1146468392 
9.1292419489 10.143864993 11.158224282 12.174246147 13.186543606 14.190633634 15.209192025 16.222855143 17.237391634 
18.251888935 19.266865263 20.283615511 21.235808725 22.283097913 23.28860046 24.30514354 25.319367319 26.334013133 
27.348562798 28.362995091 29.376281428 30.390209203 31.404663699 32.418932466 33.433248514 34.447317414 35.461074852 
36.475184028 37.489635137 38.504235819 39.518857291 40.5332769 41.546292906 42.560279077 43.574873855 44.589413343 
45.604003673 46.618467236 47.632960789 48.64695779 49.660409044 50.674896627 51.689445164 52.704008105 53.71860517 
54.733162395 55.747704444 56.76225371 57.776816572 58.791134493 59.80658729 60.817467444 61.844173336 62.827661854 
63.864109385 
ParallelTransportNormals 3 64 double
-0.1894480837 0 0.98189073913 -0.011233952183 -0.11050551642 0.99381201903 0.20780310853 -0.20625763227 0.95617762849 
0.41134138935 -0.24920503262 0.87675259516 0.50170499737 -0.24819128429 0.82866952521 0.53271592794 -0.24283275503 0.81070709458 
0.54743518114 -0.238805709 0.80205146705 0.56694281844 -0.23229800174 0.7903249199 0.59096303995 -0.22334283528 0.77516492654 
0.61361438563 -0.21418008618 0.76000281344 0.62547902982 -0.20893106142 0.75174716151 0.60680754653 -0.21842316938 0.76424859866 
0.48469242001 -0.29892460265 0.82202027951 0.25180585582 -0.5248275152 0.81311124101 0.13883254103 -0.70329264925 0.69721228838 
0.12391611129 -0.74953406353 0.65026416553 0.12422908066 -0.74624556283 0.65397606644 0.12081225721 -0.7125318892 0.69116040496 
0.099719229867 -0.63971076576 0.76211955188 -0.0035706080602 -0.42761142664 0.90395559546 -0.46750635047 0.22965112107 0.85363819904 
-0.81932817368 0.54552629388 0.17635874378 -0.84605629922 0.53308658771 0.0027255366155 -0.85063092836 0.52415682277 -0.04106883068 
-0.84992372435 0.52574681912 -0.034927710685 -0.84476352102 0.53513972069 -0.00026999817372 -0.83399237203 0.5487985302 0.057244184388 
-0.81800988386 0.55932348405 0.13422768006 -0.8042751798 0.55477157085 0.213002205 -0.8011761325 0.5389313588 0.26013418695 
-0.80307750538 0.5264315108 0.27917088815 -0.80863932531 0.50697230717 0.29846527658 -0.8235803613 0.46290635574 0.3277698801 
-0.8550115466 0.37125969149 0.36210702377 -0.90079605641 0.22039951993 0.37415306542 -0.93910867015 0.051959832141 0.33966907646 
-0.95611951886 -0.079500009787 0.28198442173 -0.95847995214 -0.16419982698 0.23314072611 -0.95545377456 -0.21258275655 0.20473557652 
-0.95335454658 -0.2282016676 0.19758316584 -0.95703735495 -0.20824661738 0.20177424904 -0.96537777539 -0.16949249674 0.19828778159 
-0.971716387 -0.14251262439 0.18830139437 -0.97286274125 -0.13804937312 0.1856891415 -0.96727404464 -0.15681306529 0.19947577577 
-0.94958852649 -0.20327478501 0.23866502078 -0.90433990403 -0.286178818 0.31665599963 -0.79870603166 -0.4058093322 0.44428308644 
-0.60958787214 -0.5223009157 0.5963257328 -0.40280713649 -0.57970491205 0.70829981345 -0.26503021264 -0.58931826626 0.76319261491 
-0.19800405516 -0.58557796116 0.78606160417 -0.17870090531 -0.582936388 0.79262295827 -0.19246387513 -0.58559849608 0.78742114409 
-0.23335129456 -0.59504706897 0.76906837085 -0.29623737149 -0.6104986737 0.73453031874 -0.37333285183 -0.62808192381 0.68274129707 
-0.45300032998 -0.64171252459 0.61886649353 -0.52478092025 -0.64721998832 0.55291163168 -0.58159018966 -0.64486100258 0.49589024858 
-0.62274448023 -0.63794934044 0.45300105008 -0.64605505211 -0.63139714534 0.42889452607 -0.65550314293 -0.62787191183 0.4196337593 
-0.65550314293 -0.62787191183 0.4196337593 
