# vtk DataFile Version 4.2
vtk output
ASCII
DATASET POLYDATA
POINTS 64 float
0 0 0 -0.00992067 1.03659 0.135459 -0.267267 1.94777 0.36857 
-0.696189 2.81833 0.694272 -1.2512 3.56497 1.09476 -1.89304 4.19618 1.56223 
-2.5983 4.70143 2.08775 -3.35202 5.06309 2.662 -4.14356 5.24567 3.26892 
-4.95697 5.18893 3.87095 -5.74858 4.83274 4.3928 -6.4601 4.2148 4.76621 
-7.10064 3.46877 5.01616 -7.73873 2.70443 5.21112 -8.43753 1.99099 5.38929 
-9.22272 1.36821 5.54591 -10.0794 0.835417 5.652 -10.9777 0.364393 5.67139 
-11.8782 -0.0877162 5.5564 -12.6929 -0.588823 5.22001 -13.1528 -1.19848 4.56683 
-13.0688 -1.81868 3.76971 -12.6737 -2.38271 3.02497 -12.1483 -2.92212 2.34513 
-11.5638 -3.46789 1.72085 -10.955 -4.0504 1.15539 -10.342 -4.70875 0.688836 
-9.74473 -5.49812 0.475578 -9.27998 -6.28168 0.8942 -9.0572 -6.69152 1.79642 
-8.96444 -6.80016 2.79891 -8.95618 -6.69861 3.80802 -9.03343 -6.42948 4.78276 
-9.2115 -6.03548 5.70022 -9.50572 -5.57607 6.55538 -9.92188 -5.13053 7.36607 
-10.4477 -4.79958 8.16754 -11.0365 -4.70885 8.98723 -11.5841 -4.96113 9.80054 
-11.978 -5.53837 10.5337 -12.1818 -6.32832 11.1353 -12.2247 -7.22827 11.6007 
-12.1496 -8.17836 11.9478 -11.9979 -9.14811 12.2042 -11.8055 -10.1238 12.4051 
-11.6004 -11.1 12.591 -11.3982 -12.07 12.8087 -11.1893 -13.0157 13.1107 
-10.9189 -13.8919 13.5435 -10.4809 -14.6082 14.1107 -9.7957 -15.0424 14.7161 
-8.93561 -15.2016 15.2286 -8.00456 -15.2161 15.6309 -7.04422 -15.1776 15.9558 
-6.06939 -15.1322 16.2334 -5.08746 -15.1021 16.487 -4.10416 -15.0926 16.7369 
-3.12472 -15.0976 17.0016 -2.15453 -15.1056 17.2984 -1.20039 -15.1124 17.6435 
-0.273607 -15.132 18.0515 0.619931 -15.2046 18.5488 1.41029 -15.3502 19.0987 
2.14474 -15.6491 19.781 
LINES 1 65
64 0 1 2 3 4 5 6 7 8 9 10 11 12 13 14 15 16 17 18 19 20 21 22 23 24 25 26 27 28 29 30 31 32 33 34 35 36 37 38 39 40 41 42 43 44 45 46 47 48 49 50 51 52 53 54 55 56 57 58 59 60 61 62 63 

POINT_DATA 64
SCALARS MaximumInscribedSphereRadius float
LOOKUP_TABLE default
0.62 0.808708 0.878423 0.740485 0.920737 1.20391 0.962553 0.842602 1.12949 
1.08333 0.93 0.93716 0.964271 0.96134 0.936143 0.957738 1.13271 1.55683 
1.57432 1.27209 1.16567 1.1979 1.23799 1.24 1.24 1.24 1.24 
1.24 1.24 1.24 1.24 1.3009 1.37176 1.30183 1.25487 1.26893 
1.38891 1.50002 1.32187 1.25667 1.27172 1.2558 1.31471 1.48608 1.54897 
1.54781 1.39919 1.26251 1.24 1.24 1.15255 1.03713 1.27164 1.51841 
1.55 1.55 1.54455 1.3539 1.01635 1.12035 1.18589 0.998947 0.806691 
0.62 
TEXTURE_COORDINATES TCoords 2 float
0 0 0.015873 0 0.031746 0 0.047619 0 0.0634921 
0 0.0793651 0 0.0952381 0 0.111111 0 0.126984 0 
0.142857 0 0.15873 0 0.174603 0 0.190476 0 0.206349 
0 0.222222 0 0.238095 0 0.253968 0 0.269841 0 
0.285714 0 0.301587 0 0.31746 0 0.333333 0 0.349206 
0 0.365079 0 0.380952 0 0.396825 0 0.412698 0 
0.428571 0 0.444444 0 0.460317 0 0.47619 0 0.492063 
0 0.507937 0 0.52381 0 0.539683 0 0.555556 0 
0.571429 0 0.587302 0 0.603175 0 0.619048 0 0.634921 
0 0.650794 0 0.666667 0 0.68254 0 0.698413 0 
0.714286 0 0.730159 0 0.746032 0 0.761905 0 0.777778 
0 0.793651 0 0.809524 0 0.825397 0 0.84127 0 
0.857143 0 0.873016 0 0.888889 0 0.904762 0 0.920635 
0 0.936508 0 0.952381 0 0.968254 0 0.984127 0 
1 0 
FIELD FieldData 4
Curvature 1 64 float
0.239942 0.212869 0.177088 0.147148 0.128122 0.121842 0.131451 0.158757 0.205191 
0.259553 0.255293 0.166564 0.0766016 0.0763935 0.107025 0.103186 0.0941978 0.118897 
0.211361 0.410353 0.473237 0.294199 0.147983 0.0730541 0.0673199 0.137165 0.291634 
0.58539 0.572664 0.310357 0.195816 0.155649 0.137361 0.119583 0.11031 0.135355 
0.206291 0.280475 0.296977 0.256703 0.196095 0.143657 0.0982414 0.0555356 0.0234429 
0.0415655 0.0888991 0.149443 0.229348 0.314523 0.295112 0.183037 0.0961041 0.044972 
0.0245192 0.0261098 0.0294156 0.0347991 0.0439827 0.057932 0.0827315 0.116598 0.149892 
0.169716 
Torsion 1 64 float
-0.0390113 -0.0539211 -0.06732 -0.0713527 -0.0533476 -0.0194319 0.00982353 0.0468241 0.0693482 
0.0737639 0.0671318 0.137409 0.571371 0.225027 -0.102749 -0.269754 -0.399282 -0.374983 
-0.231069 -0.137098 -0.0856111 -0.0756278 -0.119321 -0.31833 -0.370075 -0.058296 0.0516278 
0.133203 0.121934 0.0529911 -0.020656 -0.104539 -0.198163 -0.347177 -0.522892 -0.464106 
-0.265976 -0.153677 -0.0841256 -0.0314033 0.00336875 0.023307 0.0391883 0.0293161 -0.225598 
-0.00369851 0.156937 0.233241 0.252733 0.209194 0.148959 0.137116 0.191695 0.39423 
0.585071 0.337279 0.267176 0.172247 -0.0564931 -0.240687 -0.215044 -0.133533 -0.0762484 
-0.0429393 
Abscissas 1 64 double
0 1.0454503091 2.0205487099 3.0442335548 4.0571002921 5.071453625 6.0857713745 7.0999976349 8.1140108353 
9.1275668823 10.140406834 11.154086253 12.16864357 13.183229193 14.197656157 15.212007732 16.226415908 17.240902359 
18.255064352 19.268968976 20.273873556 21.287335183 22.301668053 23.316158638 24.330668825 25.345410147 26.358754257 
27.371332905 28.373931495 29.389608785 30.402225727 31.41646637 32.430624437 33.444861972 34.459219566 35.473572977 
36.487657808 37.500974523 38.513389195 39.526249879 40.53989555 41.553970635 42.568262904 43.582742947 44.597311501 
45.611999329 46.62648283 47.640974396 48.654955773 49.668190678 50.68038524 51.694168181 52.708519742 53.723061959 
54.737663789 55.752259585 56.766862946 57.781453135 58.796058152 59.810712022 60.823517852 61.848694618 62.82247931 
63.868563718 
ParallelTransportNormals 3 64 double
-0.99995420605 -0.0095700475628 0 -0.9643885762 -0.26010611153 -0.047952944058 -0.90661325916 -0.41110742888 -0.095095111508 
-0.83044941696 -0.53615484609 -0.15130018796 -0.7579141856 -0.61966909849 -0.20390266216 -0.68267211389 -0.68314571771 -0.2593659833 
-0.59809269202 -0.73340143281 -0.32312144792 -0.48943598323 -0.77166886529 -0.40617678498 -0.33310014177 -0.78392147942 -0.52393836436 
-0.11727734323 -0.72838137737 -0.6750604372 0.093662417708 -0.59169633951 -0.80070143831 0.21385648443 -0.47045119662 -0.85611977881 
0.24879916724 -0.42917547899 -0.86827840156 0.23424579216 -0.44526248408 -0.86421654065 0.20385342269 -0.47262836986 -0.85736002126 
0.19281630122 -0.48039648772 -0.85559399751 0.22402076847 -0.46254803647 -0.85782516241 0.31714416188 -0.41475783287 -0.85287485639 
0.51715630307 -0.30360036479 -0.8002350759 0.8303405235 -0.0302144617 -0.55643661035 0.93700081139 0.31661259703 -0.14760061943 
0.86498175726 0.4946814577 0.08424259616 0.80637381686 0.5649380424 0.1749464939 0.7773271101 0.59333781489 0.20907606589 
0.77187986971 0.59848823881 0.21450709719 0.78437109969 0.58580164336 0.20395688907 0.80690040396 0.55885112577 0.19130383506 
0.79683264659 0.5737711638 0.18932613375 0.75427265952 0.64762743195 0.10794194961 0.73723119185 0.67562205166 0.0050013068822 
0.73326007279 0.6759071718 -0.07402135338 0.73505731117 0.66625097404 -0.12569959783 0.73709294755 0.66096388651 -0.1407861051 
0.72933840008 0.67497620099 -0.11168091268 0.69698585288 0.71618998427 -0.035813786836 0.62410595723 0.77626402866 0.08891519532 
0.50062183251 0.82296911184 0.26851372734 0.35031422774 0.80158091585 0.48450797433 0.23379217179 0.69893023224 0.67589773699 
0.17620116346 0.56721970132 0.80449671251 0.15872826801 0.44754833693 0.88006012468 0.16042771384 0.34986878956 0.92295979258 
0.16908642802 0.27657136795 0.94600108789 0.17699580831 0.23185383086 0.95651256393 0.17935478647 0.22027024851 0.95880805076 
0.17315314996 0.24990350722 0.95266270198 0.15563626516 0.33153101322 0.93051842552 0.11944671318 0.46908771904 0.87503668184 
0.044805604876 0.63686190635 0.76967484694 -0.080143149543 0.76481712034 0.63924318378 -0.18611551991 0.80552950129 0.56256842766 
-0.22246128097 0.80905506723 0.5440044822 -0.21717164016 0.80912217455 0.54603826364 -0.19517144633 0.81007599284 0.55288786599 
-0.16945734712 0.81106814385 0.55986844306 -0.15130938157 0.81143383519 0.56451802642 -0.14861323346 0.81144001709 0.56522491586 
-0.16479569581 0.81154792453 0.56056430928 -0.19349975517 0.81176868856 0.55098951081 -0.22060953653 0.81214935991 0.54013410334 
-0.23155281128 0.81270164758 0.53469554665 -0.22520976278 0.81187133647 0.53865155321 -0.1955865298 0.80335359584 0.56246680739 
-0.1955865298 0.80335359584 0.56246680739 
