# vtk DataFile Version 4.2
vtk output
ASCII
DATASET POLYDATA
POINTS 64 float
0 0 0 -0.747295 -0.173273 0.714876 -1.51404 -0.35911 1.28582 
-2.36083 -0.561185 1.82004 -3.2316 -0.756907 2.30245 -4.117 -0.936078 2.76393 
-5.0074 -1.09315 3.22436 -5.89779 -1.22829 3.69165 -6.7893 -1.34523 4.16169 
-7.68789 -1.45004 4.621 -8.59991 -1.55464 5.05303 -9.52737 -1.68186 5.4441 
-10.4645 -1.86733 5.78549 -11.3941 -2.15731 6.06911 -12.2818 -2.60181 6.27451 
-13.0774 -3.22637 6.33461 -13.7564 -3.94223 6.10903 -14.3536 -4.55616 5.56822 
-14.9232 -5.00126 4.85695 -15.4784 -5.33547 4.07647 -15.9917 -5.62069 3.24915 
-16.3925 -5.90706 2.36272 -16.548 -6.23455 1.41716 -16.3605 -6.60902 0.495306 
-15.9211 -7.01793 -0.321795 -15.3591 -7.47346 -1.03281 -14.7522 -8.00587 -1.64688 
-14.1563 -8.66182 -2.13771 -13.6647 -9.51459 -2.37388 -13.5268 -10.4424 -2.02603 
-13.7333 -11.0602 -1.24915 -14.0324 -11.4591 -0.366545 -14.3272 -11.7749 0.551492 
-14.5653 -12.0932 1.48486 -14.7069 -12.4822 2.41073 -14.7455 -12.982 3.2923 
-14.7232 -13.5908 4.10333 -14.6985 -14.2826 4.8449 -14.7095 -15.0319 5.52869 
-14.7617 -15.8209 6.16443 -14.8333 -16.6399 6.75888 -14.8885 -17.4852 7.31728 
-14.8866 -18.3523 7.84378 -14.7883 -19.2298 8.34319 -14.559 -20.0941 8.82165 
-14.1683 -20.9091 9.28121 -13.6007 -21.6292 9.7138 -12.875 -22.2196 10.1046 
-12.0364 -22.6765 10.446 -11.1273 -23.0153 10.742 -10.1766 -23.2508 11.0062 
-9.20396 -23.3903 11.2583 -8.22631 -23.4387 11.5247 -7.2615 -23.4081 11.8366 
-6.32721 -23.3265 12.2233 -5.43595 -23.2382 12.6997 -4.58984 -23.1926 13.2574 
-3.78273 -23.2306 13.8707 -3.00634 -23.3766 14.5069 -2.2578 -23.6387 15.1392 
-1.54884 -24.0156 15.7591 -0.921712 -24.506 16.3906 -0.463357 -25.0821 17.0573 
-0.605344 -25.6232 17.9255 
LINES 1 65
64 0 1 2 3 4 5 6 7 8 9 10 11 12 13 14 15 16 17 18 19 20 21 22 23 24 25 26 27 28 29 30 31 32 33 34 35 36 37 38 39 40 41 42 43 44 45 46 47 48 49 50 51 52 53 54 55 56 57 58 59 60 61 62 63 

POINT_DATA 64
SCALARS MaximumInscribedSphereRadius float
LOOKUP_TABLE default
1.24 1.05516 1.01407 1.18491 1.10251 1.00512 1.14492 1.14165 1.0013 
1.10063 1.14007 0.779808 1.12649 1.85904 1.80478 1.29068 1.24282 1.6526 
1.84942 2.11166 1.8866 1.37235 1.24902 1.25694 1.27442 1.2772 1.43557 
1.80372 2.12752 1.54525 1.02996 1.25398 1.62219 1.77666 1.57898 1.55 
1.55 1.59545 1.77807 1.6569 1.30814 1.24032 1.31006 1.50668 1.70716 
1.75605 1.3693 1.55047 1.89035 1.93795 1.82686 1.6107 1.56574 1.62633 
1.7883 1.97459 2.15073 2.22804 2.41671 2.75035 2.30581 1.94147 2.00932 
1.55 
TEXTURE_COORDINATES TCoords 2 float
0 0 0.015873 0 0.031746 0 0.047619 0 0.0634921 
0 0.0793651 0 0.0952381 0 0.111111 0 0.126984 0 
0.142857 0 0.15873 0 0.174603 0 0.190476 0 0.206349 
0 0.222222 0 0.238095 0 0.253968 0 0.269841 0 
0.285714 0 0.301587 0 0.31746 0 0.333333 0 0.349206 
0 0.365079 0 0.380952 0 0.396825 0 0.412698 0 
0.428571 0 0.444444 0 0.460317 0 0.47619 0 0.492063 
0 0.507937 0 0.52381 0 0.539683 0 0.555556 0 
0.571429 0 0.587302 0 0.603175 0 0.619048 0 0.634921 
0 0.650794 0 0.666667 0 0.68254 0 0.698413 0 
0.714286 0 0.730159 0 0.746032 0 0.761905 0 0.777778 
0 0.793651 0 0.809524 0 0.825397 0 0.84127 0 
0.857143 0 0.873016 0 0.888889 0 0.904762 0 0.920635 
0 0.936508 0 0.952381 0 0.968254 0 0.984127 0 
1 0 
FIELD FieldData 4
Curvature 1 64 float
0.10711 0.0885784 0.0653651 0.04134 0.0236101 0.0178426 0.0176386 0.0152944 0.0159626 
0.02365 0.0375248 0.0615684 0.0978744 0.146513 0.204855 0.259355 0.273411 0.209003 
0.120431 0.0596521 0.0998076 0.198094 0.27494 0.22175 0.140527 0.0979892 0.142234 
0.290553 0.576963 0.514234 0.226471 0.076766 0.0499572 0.100566 0.124234 0.10963 
0.0855675 0.0732577 0.0618329 0.0448147 0.0375499 0.0518795 0.0762504 0.100958 0.12804 
0.15184 0.157333 0.139037 0.110721 0.0876473 0.0741303 0.0700445 0.0709459 0.0737299 
0.0765481 0.0780552 0.0815153 0.0861523 0.0896589 0.0931853 0.111762 0.204641 0.469715 
0.64748 
Torsion 1 64 float
-0.0253929 -0.0465118 -0.0951683 -0.222995 -0.530343 -0.509441 -0.104366 0.334495 0.544234 
0.417912 0.336752 0.234737 0.121894 0.0157259 -0.173594 -0.404761 -0.360875 -0.16721 
0.0667657 0.606032 0.330037 0.0818357 0.0527134 0.118456 0.244282 0.370707 0.168342 
0.0222307 -0.0511001 -0.0751811 -0.118625 -0.510082 -0.925037 -0.215127 -0.178346 -0.267159 
-0.322471 -0.209655 0.00809455 0.322731 0.551201 0.311414 0.17788 0.126989 0.0757584 
0.0320982 0.00475202 0.000101488 0.0293993 0.0998033 0.191943 0.268011 0.320164 0.35539 
0.368861 0.36476 0.312063 0.22233 0.0886921 -0.0915282 -0.259827 -0.258093 -0.185773 
-0.0744203 
Abscissas 1 64 double
0 1.048580503 2.0224441001 3.0438542657 4.0583821424 5.0727782373 6.0874108581 7.1020126943 8.1166076725 
9.1312083675 10.145787717 11.160333852 12.174808557 13.18904935 14.202844602 15.216090189 16.228208108 17.241140612 
18.255272568 19.269714856 20.284251815 21.298355639 22.31103212 23.323553277 24.337424163 25.351767931 26.366100205 
27.379156333 28.391412821 29.391836045 30.405671036 31.419364119 32.433971856 33.448457853 34.46266028 35.476788734 
36.491138054 37.505595328 38.520060657 39.534659483 40.549183388 41.563772237 42.578202174 43.592636611 44.606795886 
45.620731423 46.63455985 47.648432765 48.66261301 49.676942097 50.691383511 51.705801441 52.720253203 53.734687117 
54.749129283 55.763574442 56.777975535 57.792375642 58.806697041 59.821000896 60.835374328 61.851531125 62.844742671 
63.877564433 
ParallelTransportNormals 3 64 double
0.69125903347 0 0.72260704995 0.60045843574 -0.021554292413 0.79936542296 0.53938936553 -0.036238699061 0.84127633334 
0.49215855566 -0.047176525043 0.86922628329 0.46981978561 -0.051945209184 0.88123269588 0.46600458864 -0.052667612417 0.88321336379 
0.47025060713 -0.051970878926 0.88100135882 0.47107334386 -0.051854488891 0.8805685758 0.45940982341 -0.053299316661 0.88662381933 
0.43269673714 -0.056388877291 0.8997743207 0.39491272038 -0.061150604065 0.91668126789 0.3533674541 -0.068117746174 0.93300129423 
0.31320078045 -0.078348332354 0.9464495813 0.26972975926 -0.095918484144 0.95814691012 0.18892700653 -0.14723923739 0.97088989756 
0.010423751502 -0.30951305363 0.95083805931 -0.20116930531 -0.52999250137 0.8237953988 -0.33673748871 -0.65304901329 0.67833240372 
-0.40491660617 -0.70028737013 0.58791167813 -0.44588893067 -0.72403984981 0.52625978128 -0.48176932629 -0.7464765942 0.45898911813 
-0.51332909644 -0.78131429158 0.35502283942 -0.51122204335 -0.82749800578 0.23216173851 -0.48761582397 -0.85700355705 0.16666046745 
-0.48656357502 -0.85791190594 0.16505468519 -0.52085318359 -0.82893073457 0.20392596313 -0.59948321961 -0.75123918105 0.27615133941 
-0.75265523322 -0.53872030829 0.37853735527 -0.93876864052 -0.010410894896 0.34439084315 -0.92192218135 0.38279984091 0.059361379111 
-0.87804103923 0.47103699676 -0.08466452094 -0.86868147288 0.48230088055 -0.11304140523 -0.88220420945 0.46621000835 -0.066060282645 
-0.90398168373 0.42564122992 0.040579044731 -0.91650279471 0.36388164569 0.16617092171 -0.91735664118 0.30583452932 0.25479802502 
-0.9163195642 0.27713615832 0.28905709821 -0.91632007266 0.27718964513 0.28900419559 -0.91592474894 0.28681229362 0.28075 
-0.91607082966 0.28491489575 0.28220158968 -0.91808537889 0.25847336299 0.30051748316 -0.91983892434 0.20213129226 0.33621316744 
-0.91496420476 0.11725713534 0.3861233847 -0.89474800185 0.0097763860705 0.446464372 -0.84848252722 -0.11553193216 0.51645887895 
-0.76609002491 -0.24751466408 0.59316318564 -0.65290636583 -0.36220426955 0.66522277815 -0.53412348857 -0.44173189761 0.72082246746 
-0.42949725991 -0.48936722596 0.75898077834 -0.34558555594 -0.51527912582 0.78425636498 -0.28325647552 -0.52743159742 0.80098793944 
-0.24715934444 -0.53090939985 0.81058464556 -0.24537576891 -0.53092574267 0.81111564391 -0.28336713762 -0.53317028776 0.79714020697 
-0.35460718209 -0.53980047899 0.76345870176 -0.44019590709 -0.54639678871 0.71251534206 -0.52273750907 -0.5467761818 0.65404992441 
-0.59228357689 -0.53869485606 0.59917277692 -0.64932512055 -0.52342941947 0.55172323738 -0.70544464119 -0.49882556604 0.5035086026 
-0.78364760477 -0.44806993969 0.43026708064 -0.88546192013 -0.34776631517 0.30824629444 -0.98654883765 -0.0033541517121 -0.16343237319 
-0.98654883765 -0.0033541517121 -0.16343237319 
