# vtk DataFile Version 4.2
vtk output
ASCII
DATASET POLYDATA
POINTS 64 float
0 0 0 -0.340626 0.490764 0.779096 -0.652198 1.07907 1.612 
-0.885741 1.66254 2.37447 -1.1016 2.27207 3.16992 -1.29658 2.86444 3.96565 
-1.49613 3.43424 4.78251 -1.71811 3.97102 5.61401 -1.98547 4.47569 6.45277 
-2.32058 4.95302 7.28305 -2.74445 5.4075 8.08518 -3.27356 5.83805 8.83645 
-3.91649 6.23403 9.51446 -4.67086 6.57439 10.1018 -5.52121 6.83212 10.592 
-6.44177 6.98122 10.9922 -7.40204 7.00289 11.3198 -8.37133 6.88628 11.5967 
-9.32104 6.62892 11.8449 -10.2268 6.23872 12.0839 -11.0718 5.73194 12.3266 
-11.8484 5.12866 12.5768 -12.5577 4.44845 12.8292 -13.2071 3.70711 13.0704 
-13.8087 2.91629 13.2765 -14.3778 2.08693 13.4063 -14.9337 1.23502 13.379 
-15.4732 0.44112 13.0581 -15.9541 -0.186421 12.4202 -16.3544 -0.651342 11.6106 
-16.7028 -1.06102 10.7505 -17.0163 -1.48536 9.88383 -17.297 -1.96707 9.03605 
-17.5378 -2.52725 8.225 -17.7271 -3.16716 7.4606 -17.8529 -3.87316 6.74274 
-17.906 -4.62495 6.06334 -17.8803 -5.40151 5.41076 -17.7735 -6.18433 4.77411 
-17.5872 -6.95972 4.14673 -17.3264 -7.72083 3.52853 -16.9982 -8.46908 2.92686 
-16.6107 -9.21541 2.35917 -16.1714 -9.98253 1.86137 -15.6925 -10.8057 1.50912 
-15.227 -11.7141 1.50975 -14.9348 -12.5359 2.01094 -14.8448 -13.1589 2.81566 
-14.8715 -13.6398 3.70721 -14.9519 -14.0598 4.62781 -15.0505 -14.4648 5.55275 
-15.1384 -14.8928 6.4685 -15.1897 -15.3734 7.36066 -15.1803 -15.925 8.21228 
-15.093 -16.5473 9.00904 -14.9233 -17.2206 9.74894 -14.6779 -17.9172 10.4448 
-14.3705 -18.6113 11.1176 -14.0205 -19.2864 11.7906 -13.6515 -19.9306 12.4783 
-13.3065 -20.5661 13.2011 -13.0239 -21.1809 13.9302 -12.9363 -21.9043 14.6978 
-13.1089 -22.6404 15.3298 
LINES 1 65
64 0 1 2 3 4 5 6 7 8 9 10 11 12 13 14 15 16 17 18 19 20 21 22 23 24 25 26 27 28 29 30 31 32 33 34 35 36 37 38 39 40 41 42 43 44 45 46 47 48 49 50 51 52 53 54 55 56 57 58 59 60 61 62 63 

POINT_DATA 64
SCALARS MaximumInscribedSphereRadius float
LOOKUP_TABLE default
0.62 1.08294 1.39278 1.09049 0.826394 0.941442 1.13892 1.10775 0.966915 
0.93 0.933793 1.02502 1.0863 1.01803 0.996234 1.09333 1.15749 1.0852 
0.972539 0.951882 0.983256 1.09936 1.25136 1.47127 1.73177 1.66777 1.47169 
1.46389 1.57304 1.53231 1.425 1.29109 1.41442 1.5304 1.55 1.55 
1.55 1.57194 1.65389 1.77326 1.81518 1.72424 1.59561 1.37394 1.36877 
1.55416 1.77995 1.98085 2.08185 2.03433 1.94556 2.01887 2.1616 2.31675 
2.4897 2.78017 2.98525 2.94864 2.83702 2.79981 2.7566 2.55545 2.17432 
1.55 
TEXTURE_COORDINATES TCoords 2 float
0 0 0.015873 0 0.031746 0 0.047619 0 0.0634921 
0 0.0793651 0 0.0952381 0 0.111111 0 0.126984 0 
0.142857 0 0.15873 0 0.174603 0 0.190476 0 0.206349 
0 0.222222 0 0.238095 0 0.253968 0 0.269841 0 
0.285714 0 0.301587 0 0.31746 0 0.333333 0 0.349206 
0 0.365079 0 0.380952 0 0.396825 0 0.412698 0 
0.428571 0 0.444444 0 0.460317 0 0.47619 0 0.492063 
0 0.507937 0 0.52381 0 0.539683 0 0.555556 0 
0.571429 0 0.587302 0 0.603175 0 0.619048 0 0.634921 
0 0.650794 0 0.666667 0 0.68254 0 0.698413 0 
0.714286 0 0.730159 0 0.746032 0 0.761905 0 0.777778 
0 0.793651 0 0.809524 0 0.825397 0 0.84127 0 
0.857143 0 0.873016 0 0.888889 0 0.904762 0 0.920635 
0 0.936508 0 0.952381 0 0.968254 0 0.984127 0 
1 0 
FIELD FieldData 4
Curvature 1 64 float
0.124136 0.093507 0.062959 0.0377042 0.028078 0.0342498 0.047376 0.0619999 0.0805719 
0.104291 0.12976 0.152002 0.167439 0.173491 0.171907 0.16635 0.161829 0.15874 
0.153418 0.14377 0.129277 0.110981 0.0962816 0.0992115 0.137452 0.226607 0.352688 
0.395428 0.293038 0.154676 0.0875966 0.0872728 0.108469 0.117322 0.11361 0.104854 
0.0969862 0.0918148 0.087865 0.0832717 0.0800451 0.0886305 0.130306 0.234778 0.437055 
0.596972 0.475093 0.270707 0.132673 0.0545121 0.0332824 0.0747274 0.112472 0.130384 
0.122344 0.0988132 0.0733394 0.0577029 0.0576561 0.0768186 0.124109 0.213707 0.343047 
0.43236 
Torsion 1 64 float
-0.0664244 -0.124236 -0.277228 -0.743408 -0.970483 -0.751024 -0.489289 -0.414068 -0.302673 
-0.170712 -0.0570683 0.0356769 0.10752 0.169981 0.210966 0.229978 0.227517 0.205667 
0.167232 0.110735 0.0321973 -0.0715945 -0.224942 -0.345629 -0.300183 -0.202393 -0.116031 
-0.0242049 0.0881307 0.230575 0.390898 0.192102 -0.001917 -0.105772 -0.1844 -0.242473 
-0.260479 -0.2197 -0.123749 0.0146505 0.184509 0.324004 0.267975 0.164366 0.105928 
0.0694425 0.0464981 0.0390552 0.0652725 0.319509 0.592779 0.0909415 0.073263 0.107844 
0.173193 0.292103 0.471934 0.572946 0.530271 0.426355 0.333726 0.218999 0.137107 
0.0707938 
Abscissas 1 64 double
0 0.98176675304 2.0480266129 3.0361258286 4.0612417132 5.0722342129 6.0879862589 7.1022840892 8.1170215426 
9.1316679818 10.1463751 11.161134359 12.175952882 13.190786579 14.20558538 15.220386448 16.23523127 17.250019301 
18.264803262 19.279583108 20.294351395 21.309069987 22.32371171 23.338346095 24.353134391 25.367314486 26.38491967 
27.39700394 28.412872035 29.428669426 30.443061871 31.457686255 32.472362888 33.487048589 34.501754249 35.516438356 
36.531126615 37.545802246 38.560463319 39.575127405 40.589758284 41.604450699 42.619062108 43.633587603 44.648986615 
45.669712011 46.67565833 47.697325284 48.710655949 49.725726582 50.740251607 51.754898804 52.769569607 53.784265813 
54.799009386 55.81369347 56.828431574 57.842793014 58.858267395 59.870238647 60.892649977 61.88735069 62.945741589 
63.931163705 
ParallelTransportNormals 3 64 double
0 -0.84612408448 0.5329859601 -0.016164733336 -0.81952794537 0.5728111802 -0.026244952847 -0.79774433332 0.60242441942 
-0.026547002737 -0.79694340158 0.60347035663 -0.02389496143 -0.80470385522 0.59319536091 -0.017990099722 -0.8220991227 0.56906009241 
-0.010641172532 -0.84139002024 0.54032360609 -0.0031674699885 -0.85729653358 0.51481319005 0.0024831030661 -0.86650666535 0.49915932636 
0.0045253809675 -0.86901400775 0.49476678876 0.0022754543367 -0.86692450005 0.49843428204 -0.0016148774091 -0.86418100247 0.50317848437 
0.00017445213395 -0.86512393294 0.50155812247 0.018007356014 -0.87177035567 0.48958368244 0.060717044435 -0.88158202245 0.46810957927 
0.13045407527 -0.88791390927 0.44112427271 0.22391903639 -0.88331498733 0.41184329338 0.33339062488 -0.86198141673 0.38188837173 
0.44712773344 -0.8222870743 0.35202380237 0.55326547676 -0.76790866244 0.3228213103 0.64363011455 -0.70604972438 0.29535413041 
0.71473457631 -0.64463091224 0.27130328491 0.76708003909 -0.58986404582 0.25228678341 0.80175324806 -0.54739830269 0.23988919823 
0.81819988451 -0.52463677563 0.23517058201 0.81036313297 -0.53634800831 0.23588642754 0.76289478768 -0.60766403946 0.22076222067 
0.69822877443 -0.6977553205 0.16004402916 0.66151972997 -0.74326498809 0.099743693176 0.65723455322 -0.74827076054 0.090186534313 
0.66795025029 -0.73476869253 0.11814157445 0.68710280743 -0.7055645241 0.17340252121 0.70973113116 -0.6603560383 0.24538057002 
0.73080989228 -0.60154088988 0.32259178407 0.74633188701 -0.53524041455 0.39560891429 0.75451449184 -0.46856336788 0.45951741195 
0.75562612488 -0.40655845486 0.51355562716 0.75098474831 -0.35193464245 0.55871631017 0.74210728873 -0.30473935612 0.59700142115 
0.72983960383 -0.26258042845 0.63117800285 0.71373047618 -0.22129938948 0.66454148673 0.69129196174 -0.17444170986 0.70120290466 
0.65570107519 -0.1092930119 0.74706836203 0.59257087094 4.6591142019e-05 0.80551831807 0.46288294257 0.23779177219 0.8539288346 
0.31611568198 0.57337063207 0.75585514081 0.26206968377 0.77705877752 0.57227540321 0.25808386594 0.84706003026 0.46463106146 
0.26075202491 0.8695150101 0.41946636183 0.2616317223 0.87356935199 0.41039667294 0.25972326954 0.86504533761 0.42923232304 
0.25660187119 0.84467114789 0.46977242535 0.25530771147 0.81279009136 0.52363177888 0.25843164379 0.77486598953 0.57688454977 
0.26481926866 0.74266466994 0.61507718456 0.26973650336 0.72643690157 0.63208515787 0.26867051431 0.729118592 0.62944597349 
0.26055825197 0.74601513069 0.61283833277 0.24758215393 0.76982304589 0.58828186703 0.24023031292 0.78299791252 0.573762726 
0.23871965819 0.786010863 0.57026296393 0.25799282782 0.71763479066 0.64686939024 0.25015498771 0.59627615331 0.76280877756 
0.25015498771 0.59627615331 0.76280877756 
