# vtk DataFile Version 4.2
vtk output
ASCII
DATASET POLYDATA
POINTS 64 float
0 0 0 -0.922912 0.29402 0.388226 -1.77788 0.511702 0.826924 
-2.65863 0.651859 1.30956 -3.54979 0.664671 1.7944 -4.44485 0.49053 2.23669 
-5.30523 0.0784912 2.57653 -6.07568 -0.549507 2.77262 -6.75017 -1.30387 2.83861 
-7.37733 -2.10075 2.81029 -8.02089 -2.87771 2.70503 -8.72962 -3.57644 2.51109 
-9.5091 -4.14247 2.19589 -10.3091 -4.55819 1.7327 -11.0567 -4.86106 1.11858 
-11.6874 -5.11836 0.367711 -12.1431 -5.39623 -0.493737 -12.3718 -5.74108 -1.41843 
-12.3503 -6.16617 -2.33772 -12.102 -6.65553 -3.18971 -11.6726 -7.18646 -3.93897 
-11.1006 -7.74368 -4.56352 -10.4105 -8.31831 -5.03371 -9.6199 -8.90039 -5.28224 
-8.78323 -9.44559 -5.1391 -8.16155 -9.79519 -4.43453 -7.9426 -9.90942 -3.45358 
-8.00414 -9.9303 -2.44219 -8.25724 -9.9572 -1.46077 -8.65951 -10.063 -0.536212 
-9.17152 -10.3076 0.30371 -9.73276 -10.7189 1.04092 -10.2736 -11.2807 1.68914 
-10.7414 -11.9546 2.28547 -11.1018 -12.7062 2.86319 -11.325 -13.5095 3.4404 
-11.3774 -14.3397 4.01987 -11.2216 -15.1638 4.58881 -10.8316 -15.9331 5.12021 
-10.2171 -16.5924 5.58291 -9.42743 -17.1037 5.95971 -8.52492 -17.4586 6.25512 
-7.56031 -17.6678 6.48774 -6.56761 -17.7453 6.68065 -5.56961 -17.7034 6.85693 
-4.58303 -17.555 7.04009 -3.62054 -17.318 7.25573 -2.69093 -17.0198 7.5313 
-1.79853 -16.6968 7.8894 -0.940335 -16.3885 8.3338 -0.102485 -16.1307 8.84434 
0.734387 -15.9566 9.39051 1.58407 -15.9049 9.94173 2.44152 -16.0234 10.4692 
3.26883 -16.3618 10.9462 3.99043 -16.9443 11.353 4.51541 -17.7435 11.6856 
4.78055 -18.6827 11.9559 4.78434 -19.6693 12.1865 4.5809 -20.6385 12.4041 
4.24757 -21.5679 12.6385 3.87049 -22.4641 12.9268 3.56507 -23.324 13.3127 
3.59509 -24.1565 13.9283 
LINES 1 65
64 0 1 2 3 4 5 6 7 8 9 10 11 12 13 14 15 16 17 18 19 20 21 22 23 24 25 26 27 28 29 30 31 32 33 34 35 36 37 38 39 40 41 42 43 44 45 46 47 48 49 50 51 52 53 54 55 56 57 58 59 60 61 62 63 

POINT_DATA 64
SCALARS MaximumInscribedSphereRadius float
LOOKUP_TABLE default
0.93 1.13591 1.14173 0.969555 0.93 0.93 0.984406 1.21718 1.44685 
1.55 1.52863 1.43947 1.5556 1.62608 1.57139 1.62664 1.50597 1.43979 
1.54101 1.5502 1.56195 1.54116 1.33637 1.48161 1.73995 1.83075 1.94148 
1.84269 1.63338 1.69732 1.84855 1.86 1.86 1.86 1.89823 2.04089 
2.2548 2.2949 1.92444 1.86 1.86 1.88864 2.09896 1.89355 1.62564 
1.71552 1.8119 1.94702 2.18217 2.40293 2.16728 1.93668 2.13214 2.1904 
2.32083 2.40292 2.1293 2.01599 2.05447 2.15091 1.94247 2.38608 2.90776 
2.48 
TEXTURE_COORDINATES TCoords 2 float
0 0 0.015873 0 0.031746 0 0.047619 0 0.0634921 
0 0.0793651 0 0.0952381 0 0.111111 0 0.126984 0 
0.142857 0 0.15873 0 0.174603 0 0.190476 0 0.206349 
0 0.222222 0 0.238095 0 0.253968 0 0.269841 0 
0.285714 0 0.301587 0 0.31746 0 0.333333 0 0.349206 
0 0.365079 0 0.380952 0 0.396825 0 0.412698 0 
0.428571 0 0.444444 0 0.460317 0 0.47619 0 0.492063 
0 0.507937 0 0.52381 0 0.539683 0 0.555556 0 
0.571429 0 0.587302 0 0.603175 0 0.619048 0 0.634921 
0 0.650794 0 0.666667 0 0.68254 0 0.698413 0 
0.714286 0 0.730159 0 0.746032 0 0.761905 0 0.777778 
0 0.793651 0 0.809524 0 0.825397 0 0.84127 0 
0.857143 0 0.873016 0 0.888889 0 0.904762 0 0.920635 
0 0.936508 0 0.952381 0 0.968254 0 0.984127 0 
1 0 
FIELD FieldData 4
Curvature 1 64 float
0.0959221 0.0637495 0.0607164 0.0890461 0.133122 0.176618 0.185236 0.138121 0.0764623 
0.0557608 0.0908011 0.128773 0.141555 0.130494 0.122588 0.137309 0.162081 0.174431 
0.164055 0.141281 0.125105 0.129239 0.169758 0.28204 0.451373 0.376363 0.206431 
0.130676 0.117702 0.130335 0.134551 0.118382 0.097263 0.0889986 0.0959909 0.113536 
0.137558 0.160709 0.171174 0.162182 0.138602 0.112483 0.0919889 0.0793812 0.0723788 
0.0670029 0.0637798 0.0636153 0.0628581 0.0577368 0.0612257 0.0802395 0.112832 0.15004 
0.181518 0.199993 0.199824 0.179754 0.139314 0.0911095 0.0596649 0.105049 0.259693 
0.409399 
Torsion 1 64 float
-0.166197 -0.293142 -0.294287 -0.1561 -0.0742622 -0.0411967 -0.0355298 -0.0865465 -0.337289 
-0.592353 -0.10868 0.0814786 0.18316 0.275103 0.308987 0.222724 0.119206 0.0627781 
0.0334538 0.0318263 0.0396356 0.0478657 0.0441326 0.0367215 0.0449929 0.0898186 0.1601 
0.256868 0.264628 0.2047 0.190145 0.231779 0.268125 0.216251 0.123073 0.054014 
0.0217939 0.0136076 0.0175686 0.0277206 0.044929 0.0714479 0.103134 0.13136 0.160966 
0.213095 0.274244 0.285221 0.275638 0.349634 0.314731 0.152692 0.0246765 -0.0418134 
-0.0834053 -0.102337 -0.0982722 -0.0900465 -0.106808 -0.217369 -0.627822 -0.324055 -0.115669 
-0.0441823 
Abscissas 1 64 double
0 1.043519885 2.0288176112 3.0428698117 4.0574634119 5.070912031 6.0835922395 7.0967189333 8.1107975754 
9.1252673465 10.139622682 11.153592182 12.167164999 13.180756806 14.194551139 15.208350966 16.221744741 17.234800656 
18.247844611 19.261260959 20.274997748 21.288772935 22.302438069 23.315173075 24.324008538 25.326568107 26.338126413 
27.351602029 28.365489841 29.379305247 30.392938893 31.406663016 32.420721877 33.434915409 34.449090021 35.463131554 
36.476918304 37.490381884 38.50345021 39.516553259 40.529956305 41.543733168 42.557809664 43.57204533 44.58635962 
45.600711608 46.615136087 47.629550775 48.643918622 49.658334319 50.672782477 51.687162114 52.701300937 53.71495173 
54.728108029 55.740777328 56.753174339 57.765822795 58.779021559 59.792967679 60.807775872 61.821916247 62.81268759 
63.848506647 
ParallelTransportNormals 3 64 double
0.38774433702 0 0.9217669603 0.45268658085 -0.018631817595 0.89147502203 0.47751298236 -0.023767121539 0.87830317978 
0.47750569213 -0.023766492032 0.8783071603 0.44699691664 -0.026523802588 0.89414218355 0.38627543089 -0.046803304489 0.92119527907 
0.31538451515 -0.092010294908 0.94449283387 0.25786900424 -0.14703078819 0.95492697311 0.21243625191 -0.20117465752 0.95624243581 
0.16230083047 -0.26326939491 0.95097195865 0.086015739313 -0.34651409526 0.9340927547 -0.034813548042 -0.44919818736 0.89275360842 
-0.18941726125 -0.54529461153 0.81656284986 -0.33740107912 -0.61400813757 0.71355064207 -0.44897122498 -0.65935260569 0.60305802417 
-0.51935316114 -0.69402474351 0.49859998938 -0.55417894104 -0.72571421167 0.40770649282 -0.56221038031 -0.75555867073 0.33622995607 
-0.55470240466 -0.78100951178 0.28693097562 -0.54186088184 -0.80034335312 0.25658780532 -0.52995081929 -0.81328519849 0.24024844442 
-0.5229191337 -0.81959117784 0.2341492704 -0.52691254797 -0.81647164712 0.23608730639 -0.55851329413 -0.79458301838 0.23811914494 
-0.63739284817 -0.74619562948 0.1921521263 -0.69720541008 -0.71318899521 0.072567715084 -0.70750640408 -0.7043564305 -0.057590858621 
-0.6856499276 -0.70103706854 -0.19603878523 -0.63143768329 -0.69005997176 -0.35369999646 -0.54385941677 -0.65649456107 -0.52271581771 
-0.44369702444 -0.59528248985 -0.6699042527 -0.36801068411 -0.52845586113 -0.76505067755 -0.33249945109 -0.48495093785 -0.80886754349 
-0.32561608418 -0.47310325398 -0.81862535802 -0.3312631551 -0.48814914171 -0.807449774 -0.33737646878 -0.52438601076 -0.78179052823 
-0.33405849922 -0.57745315384 -0.74495152474 -0.31196030167 -0.64196043079 -0.70040529373 -0.26592583217 -0.7074310024 -0.6548471796 
-0.19998867716 -0.76240223846 -0.61542453298 -0.12365430768 -0.80147835291 -0.58510004445 -0.043448384483 -0.82571146334 -0.56241694249 
0.040333325424 -0.83798402192 -0.54420217004 0.12848495855 -0.83956060152 -0.52785377881 0.21989017 -0.8307959099 -0.51129880622 
0.31055446747 -0.81286858507 -0.49274799456 0.39299561823 -0.78954923939 -0.47134535389 0.45785764517 -0.76743498895 -0.44878715945 
0.49460682231 -0.7541824904 -0.43194080903 0.49505738761 -0.75403210181 -0.43168712329 0.45653035286 -0.76396791151 -0.45599678409 
0.37666803308 -0.77465935078 -0.5079607102 0.2538314433 -0.76984988123 -0.58557728675 0.094964408007 -0.72676058197 -0.68029465507 
-0.070504765913 -0.62837344807 -0.77471019598 -0.19954528156 -0.48533978423 -0.85125024197 -0.2676509675 -0.33550319024 -0.90321678955 
-0.28388725333 -0.21926703886 -0.93345058416 -0.27729780997 -0.15469089007 -0.94824925685 -0.27364923865 -0.14178414801 -0.95132189587 
-0.28886647584 -0.18088811502 -0.94012533684 -0.32987414442 -0.28650629659 -0.89949829953 -0.3755279974 -0.55976288533 -0.73867735539 
-0.3755279974 -0.55976288533 -0.73867735539 
