# vtk DataFile Version 4.2
vtk output
ASCII
DATASET POLYDATA
POINTS 64 float
0 0 0 -0.822663 0.186108 -0.237622 -1.98039 0.361835 -0.566771 
-2.89067 0.334124 -0.812496 -3.8674 0.16143 -1.05845 -4.80231 -0.198566 -1.2641 
-5.65001 -0.732062 -1.41074 -6.41963 -1.38977 -1.50005 -7.12239 -2.12105 -1.53782 
-7.78751 -2.88725 -1.53483 -8.44403 -3.66019 -1.50113 -9.11557 -4.41878 -1.4456 
-9.82107 -5.14509 -1.37853 -10.5742 -5.82233 -1.31507 -11.3829 -6.43469 -1.27952 
-12.2455 -6.96971 -1.30881 -13.1406 -7.42665 -1.45232 -14.0286 -7.82716 -1.739 
-14.8672 -8.20958 -2.16525 -15.633 -8.61297 -2.6957 -16.3216 -9.05748 -3.29449 
-16.9367 -9.54819 -3.93555 -17.4817 -10.0811 -4.60558 -17.9552 -10.6491 -5.3007 
-18.3497 -11.2446 -6.02175 -18.6506 -11.8595 -6.77124 -18.8352 -12.4847 -7.54983 
-18.8746 -13.1094 -8.34945 -18.7443 -13.7231 -9.14839 -18.4335 -14.3187 -9.91051 
-17.9531 -14.8972 -10.5937 -17.3287 -15.465 -11.1593 -16.5936 -16.0303 -11.5743 
-15.7849 -16.6 -11.808 -14.9445 -17.1728 -11.8229 -14.1306 -17.7334 -11.5828 
-13.4185 -18.2524 -11.0722 -12.8776 -18.699 -10.3372 -12.5236 -19.0703 -9.45847 
-12.3261 -19.3901 -8.51539 -12.2389 -19.6953 -7.55135 -12.224 -20.0218 -6.59052 
-12.2511 -20.4037 -5.6507 -12.2955 -20.8715 -4.75076 -12.3372 -21.4436 -3.91338 
-12.3642 -22.1156 -3.15289 -12.3711 -22.8649 -2.46831 -12.3568 -23.6615 -1.8399 
-12.3183 -24.4796 -1.24088 -12.2492 -25.2976 -0.644582 -12.1395 -26.0972 -0.0293782 
-11.9781 -26.8636 0.615831 -11.7589 -27.5908 1.28885 -11.4837 -28.2835 1.97748 
-11.1625 -28.9561 2.66602 -10.8087 -29.6243 3.34238 -10.4371 -30.2994 4.00263 
-10.0612 -30.9844 4.65113 -9.693 -31.6709 5.29542 -9.34211 -32.3426 5.97997 
-9.0224 -32.967 6.72111 -8.75756 -33.4904 7.46918 -8.54508 -33.8986 8.58709 
-8.44136 -34.0884 9.43986 
LINES 1 65
64 0 1 2 3 4 5 6 7 8 9 10 11 12 13 14 15 16 17 18 19 20 21 22 23 24 25 26 27 28 29 30 31 32 33 34 35 36 37 38 39 40 41 42 43 44 45 46 47 48 49 50 51 52 53 54 55 56 57 58 59 60 61 62 63 

POINT_DATA 64
SCALARS MaximumInscribedSphereRadius float
LOOKUP_TABLE default
0.9796 1.04926 1.12599 1.1982 1.23304 1.24 1.29171 1.42024 1.58183 
1.54639 1.37368 1.17411 1.08573 1.0335 0.993319 1.13511 1.1948 1.15946 
0.965818 1.07053 1.28079 1.5352 1.55673 1.57131 1.56088 1.4602 1.35096 
1.27602 1.25826 1.25078 1.28155 1.33592 1.37988 1.3888 1.41962 1.4974 
1.69735 1.81649 1.87198 1.88169 1.9637 2.06436 2.16534 2.05473 1.95623 
1.8848 1.8848 1.91018 1.97205 2.07704 2.09854 2.03421 1.90109 1.71659 
1.48865 1.31565 1.24 1.24 1.24 1.24 1.24 1.24 1.24 
1.24 
TEXTURE_COORDINATES TCoords 2 float
0 0 0.015873 0 0.031746 0 0.047619 0 0.0634921 
0 0.0793651 0 0.0952381 0 0.111111 0 0.126984 0 
0.142857 0 0.15873 0 0.174603 0 0.190476 0 0.206349 
0 0.222222 0 0.238095 0 0.253968 0 0.269841 0 
0.285714 0 0.301587 0 0.31746 0 0.333333 0 0.349206 
0 0.365079 0 0.380952 0 0.396825 0 0.412698 0 
0.428571 0 0.444444 0 0.460317 0 0.47619 0 0.492063 
0 0.507937 0 0.52381 0 0.539683 0 0.555556 0 
0.571429 0 0.587302 0 0.603175 0 0.619048 0 0.634921 
0 0.650794 0 0.666667 0 0.68254 0 0.698413 0 
0.714286 0 0.730159 0 0.746032 0 0.761905 0 0.777778 
0 0.793651 0 0.809524 0 0.825397 0 0.84127 0 
0.857143 0 0.873016 0 0.888889 0 0.904762 0 0.920635 
0 0.936508 0 0.952381 0 0.968254 0 0.984127 0 
1 0 
FIELD FieldData 4
Curvature 1 64 float
0.176673 0.206448 0.238558 0.268909 0.28586 0.264895 0.221337 0.158302 0.0999104 
0.0608716 0.0451171 0.0713364 0.104962 0.140862 0.177361 0.205616 0.214683 0.208541 
0.193499 0.173649 0.152156 0.13004 0.120012 0.122942 0.138257 0.168467 0.203425 
0.233681 0.254613 0.256463 0.256069 0.257064 0.26967 0.307115 0.353129 0.402162 
0.392788 0.335802 0.248689 0.16108 0.115696 0.106284 0.134147 0.165034 0.170265 
0.152173 0.107562 0.0664019 0.0505572 0.0698734 0.0947208 0.101503 0.0929159 0.0700718 
0.0525795 0.0382125 0.0265564 0.0231515 0.0545128 0.113139 0.187776 0.255621 0.300598 
0.313499 
Torsion 1 64 float
-0.0106761 -0.01542 -0.0226154 -0.0326146 -0.0472977 -0.0688231 -0.10484 -0.160386 -0.410668 
-0.887701 -1.24677 -0.529296 -0.32111 -0.293058 -0.34252 -0.41475 -0.46772 -0.482601 
-0.394982 -0.263893 -0.130756 -0.0116406 0.0782069 0.112219 0.0993 0.0498962 -0.0183637 
-0.0941413 -0.173836 -0.215871 -0.241333 -0.244828 -0.203636 -0.147341 -0.100881 -0.0751472 
-0.0839637 -0.125416 -0.22108 -0.437496 -0.766659 -0.799665 -0.386359 -0.202428 -0.108536 
-0.104688 -0.223961 -0.958408 -1.1483 -0.360734 -0.0739494 0.128094 0.287564 0.493911 
0.623599 0.705411 0.743943 1.2772 0.923702 0.144969 0.0647032 0.0320351 0.0166943 
0.00907095 
Abscissas 1 64 double
0 0.8762846702 2.0926525041 3.0359226503 4.0578413429 5.0805562854 6.0928392289 7.1091418393 8.1240645213 
9.1386857616 10.153373174 11.168020057 12.182788367 13.197621251 14.212631187 15.228102431 16.243284439 17.25873346 
18.274206179 19.289366692 20.304407459 21.319347551 22.334216291 23.349114159 24.364084041 25.379159273 26.394616855 
27.410094248 28.425923941 29.44187855 30.457848678 31.473809743 32.489762867 33.506212086 34.523361642 35.54039352 
36.55880354 37.574800134 38.592319501 39.607542946 40.622493071 41.63739155 42.652203789 43.667437939 44.68244657 
45.697660395 46.712622308 47.72735176 48.742041255 49.756668473 50.771494044 51.786241726 52.801043369 53.815824895 
54.830539973 55.844999749 56.859778899 57.875198756 58.886121123 59.907353299 60.927830951 61.878460352 63.087385025 
63.967157703 
ParallelTransportNormals 3 64 double
-0.27750062317 0 0.96072545721 -0.2735727666 -0.00074138558523 0.96185102366 -0.26057235102 -0.0015219672715 0.96545312341 
-0.2442183773 0.0001669576793 0.96972024642 -0.21760892698 0.0075807631195 0.97600660189 -0.18501438236 0.023938387219 0.98244421314 
-0.15430685819 0.046548550269 0.98692584624 -0.12771205101 0.071638773009 0.98922066205 -0.10576031034 0.095670517134 0.98977871714 
-0.087243518969 0.11723457996 0.98926468736 -0.071380878728 0.13552749978 0.9881989005 -0.059202513222 0.14865980263 0.98711464659 
-0.054557895902 0.1531290437 0.98669900779 -0.065625910507 0.14399014084 0.98740066802 -0.10575412199 0.11644072031 0.98755132744 
-0.19166871923 0.067955387335 0.97910426789 -0.31143711964 0.010361173059 0.95021027494 -0.43586206949 -0.046059586575 0.89883411754 
-0.533091139 -0.093681399793 0.8408552984 -0.60017507461 -0.13279083981 0.78876896027 -0.64540519118 -0.16523718972 0.74575385372 
-0.67918594803 -0.19504390847 0.70757637169 -0.70863959855 -0.22688072369 0.66809808905 -0.73694762918 -0.26482571652 0.62191280073 
-0.76452776766 -0.312830774 0.56359045354 -0.78865228941 -0.37444873037 0.48766352615 -0.80229520873 -0.45057484467 0.39154145043 
-0.79604931316 -0.53569649136 0.28166426852 -0.76523369904 -0.62018156429 0.17260420959 -0.71623052044 -0.69289981808 0.083088408897 
-0.66183788099 -0.74933554804 0.021606844624 -0.61409308892 -0.7891292923 -0.012831140764 -0.58086594328 -0.81355812747 -0.026794200152 
-0.56331470422 -0.82571773647 -0.029440850597 -0.56115897597 -0.82719467744 -0.029147371977 -0.57230564513 -0.8193088928 -0.034629275671 
-0.59142083214 -0.80457708674 -0.05363870621 -0.60996818192 -0.7876271035 -0.087076764231 -0.62323816532 -0.7709941415 -0.13092831269 
-0.63082466903 -0.75433869171 -0.18175086006 -0.63391457647 -0.73522096446 -0.24000508986 -0.63348516882 -0.71028947902 -0.30689639438 
-0.63055722302 -0.67549287461 -0.38223940777 -0.62667160479 -0.62856272742 -0.46064259188 -0.62369338481 -0.57463108591 -0.52991100843 
-0.62250363315 -0.5247456023 -0.58063007119 -0.62266284198 -0.49149482341 -0.60887094181 -0.6230064267 -0.48098763374 -0.61685807807 
-0.62209514104 -0.49484392993 -0.60673480245 -0.61811402347 -0.53086173096 -0.57975932644 -0.60928745503 -0.58184768219 -0.53872262981 
-0.59577770803 -0.63486460448 -0.4919307437 -0.58065112204 -0.6783076114 -0.45026998433 -0.56897172147 -0.7050444816 -0.42330067225 
-0.56356095254 -0.71579219456 -0.41235977857 -0.56410779704 -0.71477954165 -0.41336739126 -0.56755508492 -0.70850709131 -0.41940306048 
-0.57017021824 -0.70368684709 -0.42394662808 -0.56406368133 -0.7152199665 -0.4126651947 -0.55129931178 -0.73989032973 -0.38552739047 
-0.5365891966 -0.76878050063 -0.34792035863 -0.50036863091 -0.83958999423 -0.21147074216 -0.48814388778 -0.86262781133 -0.13262278816 
-0.48814388778 -0.86262781133 -0.13262278816 
