# vtk DataFile Version 4.2
vtk output
ASCII
DATASET POLYDATA
POINTS 64 float
0 0 0 -0.777931 -0.224151 0.637565 -1.74876 -0.362801 0.795369 
-2.74439 -0.448918 0.632408 -3.71882 -0.542745 0.366119 -4.70298 -0.737482 0.236126 
-5.56102 -1.11965 0.591263 -6.17967 -1.5587 1.26466 -6.74724 -2.00237 1.97913 
-7.38953 -2.48137 2.59987 -8.1485 -3.06334 2.91977 -8.79424 -3.78504 2.664 
-8.98285 -4.51454 1.99513 -8.78333 -5.1405 1.22512 -8.37553 -5.658 0.454429 
-7.87161 -6.11054 -0.300894 -7.33381 -6.57343 -1.0231 -6.82403 -7.24412 -1.56598 
-6.82472 -8.04659 -1.06764 -7.2072 -8.36043 -0.185095 -7.71077 -8.34731 0.693487 
-8.2206 -8.01762 1.5034 -8.61161 -7.47813 2.2673 -8.8182 -6.93183 3.09487 
-8.82438 -6.64342 4.06174 -8.69238 -6.83664 5.04207 -8.53681 -7.42349 5.85101 
-8.40562 -8.22948 6.45018 -8.29457 -9.16389 6.82505 -8.17448 -10.1631 6.93644 
-8.00107 -11.1485 6.77822 -7.73436 -12.0688 6.44662 -7.34921 -12.9349 6.08621 
-6.82954 -13.7737 5.85779 -6.19602 -14.5539 5.95578 -5.53618 -15.1538 6.43191 
-4.86902 -15.5189 7.1012 -4.12658 -15.6676 7.77435 -3.2784 -15.6344 8.32753 
-2.36056 -15.4831 8.73091 -1.41618 -15.2729 9.03608 -0.472256 -15.0304 9.31821 
0.451564 -14.7601 9.63865 1.34679 -14.4725 10.0195 2.22179 -14.1961 10.4522 
3.08894 -13.9743 10.9296 3.94455 -13.8672 11.4629 4.74259 -13.9559 12.08 
5.39168 -14.297 12.7774 5.82811 -14.8644 13.4934 6.05354 -15.5932 14.1599 
6.09139 -16.4294 14.731 5.97366 -17.3237 15.1939 5.74625 -18.2337 15.5803 
5.45915 -19.1362 15.9441 5.1528 -20.0299 16.3141 4.85466 -20.9292 16.677 
4.57896 -21.856 16.9835 4.32406 -22.8213 17.1597 4.07412 -23.8035 17.1451 
3.80293 -24.7593 16.9426 3.47957 -25.658 16.6068 3.07857 -26.4746 16.2074 
2.52216 -27.2374 15.7796 
LINES 1 65
64 0 1 2 3 4 5 6 7 8 9 10 11 12 13 14 15 16 17 18 19 20 21 22 23 24 25 26 27 28 29 30 31 32 33 34 35 36 37 38 39 40 41 42 43 44 45 46 47 48 49 50 51 52 53 54 55 56 57 58 59 60 61 62 63 

POINT_DATA 64
SCALARS MaximumInscribedSphereRadius float
LOOKUP_TABLE default
0.93 1.11667 1.32645 1.52067 1.35003 1.24 1.24 1.24 1.24 
1.43057 1.44329 1.14833 1.01941 1.49754 1.37242 1.30306 1.54044 2.0905 
2.09427 1.67096 1.06108 1.14569 1.24 1.33379 1.53044 1.57037 1.78697 
1.71774 1.55308 1.55212 1.70828 1.85006 1.87577 2.04214 1.92748 1.6146 
1.83581 1.87693 1.84751 1.71652 1.46005 1.4808 1.62894 1.84094 1.66833 
1.5594 1.62857 2.01613 2.18306 2.01666 1.64768 1.95636 1.97617 1.86027 
1.86167 2.01705 2.23141 2.4213 2.30663 2.26093 2.45592 2.48 2.37761 
2.17 
TEXTURE_COORDINATES TCoords 2 float
0 0 0.015873 0 0.031746 0 0.047619 0 0.0634921 
0 0.0793651 0 0.0952381 0 0.111111 0 0.126984 0 
0.142857 0 0.15873 0 0.174603 0 0.190476 0 0.206349 
0 0.222222 0 0.238095 0 0.253968 0 0.269841 0 
0.285714 0 0.301587 0 0.31746 0 0.333333 0 0.349206 
0 0.365079 0 0.380952 0 0.396825 0 0.412698 0 
0.428571 0 0.444444 0 0.460317 0 0.47619 0 0.492063 
0 0.507937 0 0.52381 0 0.539683 0 0.555556 0 
0.571429 0 0.587302 0 0.603175 0 0.619048 0 0.634921 
0 0.650794 0 0.666667 0 0.68254 0 0.698413 0 
0.714286 0 0.730159 0 0.746032 0 0.761905 0 0.777778 
0 0.793651 0 0.809524 0 0.825397 0 0.84127 0 
0.857143 0 0.873016 0 0.888889 0 0.904762 0 0.920635 
0 0.936508 0 0.952381 0 0.968254 0 0.984127 0 
1 0 
FIELD FieldData 4
Curvature 1 64 float
0.295513 0.33681 0.210998 0.0712982 0.14815 0.393543 0.275967 0.0795604 0.0807698 
0.225267 0.406026 0.401799 0.273825 0.15638 0.0741095 0.064346 0.246847 0.900805 
0.436892 0.220985 0.204151 0.156964 0.131466 0.227691 0.321656 0.279508 0.19254 
0.1591 0.168065 0.172631 0.131343 0.0858737 0.126369 0.231456 0.266829 0.191149 
0.14528 0.153395 0.131166 0.0751301 0.0261899 0.0339237 0.0436571 0.0350648 0.0437658 
0.0801998 0.140312 0.191019 0.194787 0.167 0.146163 0.123804 0.0849477 0.0401841 
0.0148685 0.00893006 0.042401 0.0864254 0.121371 0.119815 0.0973709 0.082777 0.0951465 
0.127836 
Torsion 1 64 float
0.00507019 0.0164352 0.0568174 0.505463 0.202446 0.0526992 0.0280808 -0.0644527 0.0238429 
0.118524 0.21469 0.166958 0.0199735 -0.028766 0.0918964 0.26018 0.0296041 -0.0163933 
0.0424564 -0.0574509 -0.177759 -0.461923 -0.697838 -0.299564 -0.144452 -0.0717723 -0.0102523 
0.0618219 0.105854 0.149664 0.295131 0.648587 0.372445 0.108981 -0.056007 -0.30733 
-0.422991 -0.20431 -0.0833668 0.0286139 0.770272 0.394927 0.174558 0.437164 0.302333 
0.0176389 -0.0517869 -0.0228018 0.0181206 0.0513878 0.041726 -0.00614578 -0.117189 -0.359847 
-0.610205 -1.31535 -0.192447 -0.123933 -0.105722 -0.143197 -0.235351 -0.315873 -0.244308 
-0.138924 
Abscissas 1 64 double
0 1.0304898948 2.0237848618 3.0363319376 4.0508403585 5.0624684937 6.0666632223 7.0810379878 8.0956544523 
9.1092103318 10.117704726 11.119327745 12.126865158 13.139065449 14.153003968 15.16751895 16.179980312 17.182187557 
18.126804363 19.138571203 20.151320559 21.163536516 22.177184303 23.190098592 24.199086016 25.206957396 26.218381624 
27.231216901 28.244124417 29.256671004 30.269645947 31.283571009 32.297654894 33.310481176 34.320263945 35.331188797 
36.344277957 37.357421285 38.370594435 39.384516441 40.398994819 41.41358607 42.428074833 43.442564924 44.457085195 
45.471508477 46.485386443 47.498079664 48.510025072 49.522482335 50.535492818 51.548813169 52.562672262 53.577127825 
54.591663971 55.606281704 56.620837542 57.63519144 58.649008028 59.662614195 60.676569594 61.688985788 62.682542881 
63.719108485 
ParallelTransportNormals 3 64 double
0.63387840311 0 0.77343271852 0.17292114374 -0.095024194241 0.98034110419 -0.14899365302 -0.13190618326 0.98000084193 
-0.24832369118 -0.14097845371 0.95836340706 -0.10660890341 -0.12008902562 0.98702237444 0.37094783588 0.029680069072 0.92817929117 
0.65845697783 0.18938346907 0.72840120125 0.69461008975 0.21628648106 0.68610274837 0.62143754289 0.1604839356 0.76685088948 
0.39534184976 -0.010711217408 0.91847160634 0.02552617789 -0.3541466667 0.93484145859 -0.14387802587 -0.64831552844 0.74765372283 
-0.14286256888 -0.78578882843 0.6017692278 -0.10829594972 -0.85089519748 0.51405189444 -0.082611047557 -0.87822442651 0.47105973241 
-0.093729716435 -0.86845391119 0.48682907102 -0.23667951459 -0.71360339977 0.65935801748 -0.61464054436 0.41652293834 0.66986987025 
-0.4636012842 0.87898061416 0.11165540387 -0.31081403268 0.93086650808 -0.19204734109 -0.153611264 0.87767561862 -0.45397036032 
-0.070448625037 0.79745690213 -0.59924909718 -0.083880832354 0.82186490285 -0.56347323576 -0.11688502319 0.9515021075 -0.28457271616 
-0.085314677226 0.97530551685 0.2037168492 -0.023254698589 0.80708521565 0.58997684164 0.019686304649 0.59854925959 0.80084407549 
0.050519266071 0.37702766383 0.92482319633 0.081235975079 0.12006388661 0.9894369002 0.11923809876 -0.13691205313 0.9833805802 
0.15565565225 -0.29461653274 0.94285333778 0.16351720674 -0.31616120152 0.93450747335 0.10271962952 -0.20161561714 0.97406356088 
-0.082319365391 0.058113754069 0.99491020382 -0.33675282165 0.32963421983 0.88200840032 -0.49916792911 0.44777460413 0.74184181767 
-0.54242026814 0.46354029852 0.70065015832 -0.49754300732 0.4602815259 0.73524953096 -0.41904721712 0.46848032136 0.77776964348 
-0.36464514878 0.47904061321 0.79846979052 -0.36211391462 0.47964744575 0.79925705541 -0.4086311977 0.46687583122 0.78424964296 
-0.46803151411 0.44865778633 0.76134925794 -0.50582858119 0.43661550886 0.74397872541 -0.51717410748 0.43337106557 0.73805180175 
-0.51508666417 0.4337695527 0.739276473 -0.52052714721 0.43370939172 0.73549143608 -0.54012675462 0.43953199304 0.71768705996 
-0.55571991046 0.4525808363 0.69738509285 -0.55890270517 0.45881332576 0.69073735838 -0.55755929007 0.45082869472 0.69705173845 
-0.5581424807 0.43818820697 0.704604901 -0.55806913512 0.4385716731 0.7044243948 -0.55289497246 0.45679913564 0.69687997468 
-0.54742236455 0.47336314412 0.6901130984 -0.55095917385 0.46287247962 0.69440122146 -0.56889544648 0.40579451478 0.71532425007 
-0.60017535237 0.29424970517 0.74377863469 -0.63732310715 0.15094619564 0.75566824938 -0.66915427177 0.032570004547 0.7424094257 
-0.68728467098 -0.023976664199 0.72599235575 -0.68537811994 -0.019468487388 0.72792706414 -0.6466703363 0.044652710739 0.76146149711 
-0.6466703363 0.044652710739 0.76146149711 
