# vtk DataFile Version 4.2
vtk output
ASCII
DATASET POLYDATA
POINTS 64 float
0 0 0 -0.935766 0.348623 0.291506 -1.84913 0.49545 0.612564 
-2.80761 0.436395 0.972748 -3.70292 0.118675 1.3193 -4.5053 -0.426757 1.61558 
-5.1899 -1.14326 1.83126 -5.76487 -1.9696 1.95585 -6.2487 -2.86068 1.98714 
-6.65813 -3.7865 1.92114 -7.00037 -4.72492 1.74409 -7.26579 -5.65111 1.42693 
-7.41722 -6.52121 0.928627 -7.39536 -7.26619 0.241789 -7.17795 -7.85256 -0.556424 
-6.80462 -8.33124 -1.36915 -6.32852 -8.78321 -2.14267 -5.7948 -9.27832 -2.84911 
-5.24628 -9.87543 -3.45928 -4.74205 -10.6271 -3.91292 -4.38554 -11.5626 -4.07726 
-4.40503 -12.4688 -3.64397 -4.76686 -12.8083 -2.76051 -5.1672 -12.7512 -1.8327 
-5.52421 -12.5215 -0.910776 -5.80937 -12.2167 0.0138159 -5.99805 -11.9042 0.96036 
-6.05476 -11.6592 1.94291 -5.93803 -11.5899 2.94747 -5.64712 -11.8022 3.89456 
-5.26067 -12.2929 4.69314 -4.86399 -12.9741 5.33135 -4.4984 -13.7681 5.846 
-4.17461 -14.628 6.27622 -3.88802 -15.5258 6.65192 -3.62778 -16.4448 6.99425 
-3.37925 -17.3739 7.31727 -3.12607 -18.3052 7.63039 -2.85184 -19.2319 7.93932 
-2.54217 -20.1476 8.24755 -2.18491 -21.0447 8.55874 -1.76971 -21.9133 8.87885 
-1.28851 -22.7401 9.21673 -0.73706 -23.5088 9.58312 -0.117056 -24.2012 9.98967 
0.56286 -24.7993 10.4469 1.28904 -25.2868 10.9608 2.04754 -25.6515 11.5271 
2.82841 -25.889 12.1296 3.62727 -26.0048 12.7441 4.44463 -26.0153 13.3449 
5.28339 -25.9452 13.9114 6.14637 -25.8256 14.4313 7.03473 -25.692 14.9028 
7.94696 -25.5839 15.3335 8.87753 -25.5433 15.7356 9.81321 -25.6117 16.1215 
10.7295 -25.8219 16.5025 11.5935 -26.1843 16.8909 12.3733 -26.684 17.3057 
13.0393 -27.2895 17.7679 13.556 -27.9811 18.321 13.8816 -28.6729 18.9342 
13.9804 -29.3803 19.69 
LINES 1 65
64 0 1 2 3 4 5 6 7 8 9 10 11 12 13 14 15 16 17 18 19 20 21 22 23 24 25 26 27 28 29 30 31 32 33 34 35 36 37 38 39 40 41 42 43 44 45 46 47 48 49 50 51 52 53 54 55 56 57 58 59 60 61 62 63 

POINT_DATA 64
SCALARS MaximumInscribedSphereRadius float
LOOKUP_TABLE default
0.62 0.62 0.641034 0.755989 0.955274 1.24895 1.54018 1.68709 1.77312 
1.57477 1.38533 1.34941 1.40061 1.4856 1.49687 1.33972 1.30456 1.45898 
1.61837 1.79296 1.42606 1.0142 1.26178 1.59328 1.77516 1.68442 1.57066 
1.55 1.49783 1.35415 1.55911 1.98844 2.05334 1.90461 1.86135 1.85775 
1.77228 1.61998 1.46485 1.30793 1.42904 1.73394 1.67186 1.38542 1.3386 
1.49014 1.59 1.65051 1.74774 1.85737 1.87521 1.88265 1.98193 2.12426 
2.17998 2.19272 2.1948 2.19352 2.18277 2.17272 2.17 2.10557 1.84802 
1.55 
TEXTURE_COORDINATES TCoords 2 float
0 0 0.015873 0 0.031746 0 0.047619 0 0.0634921 
0 0.0793651 0 0.0952381 0 0.111111 0 0.126984 0 
0.142857 0 0.15873 0 0.174603 0 0.190476 0 0.206349 
0 0.222222 0 0.238095 0 0.253968 0 0.269841 0 
0.285714 0 0.301587 0 0.31746 0 0.333333 0 0.349206 
0 0.365079 0 0.380952 0 0.396825 0 0.412698 0 
0.428571 0 0.444444 0 0.460317 0 0.47619 0 0.492063 
0 0.507937 0 0.52381 0 0.539683 0 0.555556 0 
0.571429 0 0.587302 0 0.603175 0 0.619048 0 0.634921 
0 0.650794 0 0.666667 0 0.68254 0 0.698413 0 
0.714286 0 0.730159 0 0.746032 0 0.761905 0 0.777778 
0 0.793651 0 0.809524 0 0.825397 0 0.84127 0 
0.857143 0 0.873016 0 0.888889 0 0.904762 0 0.920635 
0 0.936508 0 0.952381 0 0.968254 0 0.984127 0 
1 0 
FIELD FieldData 4
Curvature 1 64 float
0.152988 0.180275 0.207496 0.224114 0.219124 0.194191 0.159943 0.128077 0.109788 
0.114228 0.146747 0.202176 0.25143 0.241811 0.173696 0.110876 0.0909034 0.126334 
0.208127 0.354456 0.648005 0.776847 0.390493 0.188527 0.101458 0.0927152 0.14494 
0.227733 0.300043 0.290137 0.225863 0.15779 0.105003 0.0668799 0.0409807 0.0255477 
0.0214042 0.025833 0.0339228 0.04419 0.0560436 0.0689249 0.0822435 0.0947194 0.105609 
0.113991 0.117917 0.115496 0.106534 0.0931989 0.0784039 0.0629812 0.0502726 0.0491886 
0.06728 0.0962861 0.124449 0.139747 0.141076 0.143305 0.159367 0.18828 0.216582 
0.226986 
Torsion 1 64 float
0.0318223 0.0419663 0.0545256 0.0687019 0.0814442 0.0910193 0.103764 0.126992 0.148496 
0.120551 0.0498993 -0.0205324 -0.0952029 -0.172184 -0.284646 -0.502118 -0.599954 -0.317068 
-0.117568 -0.0164759 0.0634391 0.111038 0.122702 0.218672 0.477779 0.516691 0.286391 
0.17521 0.146368 0.136603 0.124241 0.114215 0.101262 0.0768456 0.000527175 -0.174823 
-0.297701 -0.174824 -0.0873066 -0.0820189 -0.0974695 -0.102406 -0.101902 -0.104148 -0.0947769 
-0.0565549 0.00872693 0.0764289 0.142495 0.199891 0.258306 0.355694 0.539717 0.601719 
0.374642 0.190715 0.125979 0.138783 0.189357 0.218241 0.190469 0.13379 0.0863759 
0.0532622 
Abscissas 1 64 double
0 1.0402748278 2.0194940666 3.0451177233 4.0563665518 5.0708081028 6.0849931921 7.0993655057 8.1138083726 
9.1282695101 10.142718413 11.157049148 12.171105827 13.184624112 14.198646271 15.213058995 16.227593936 17.242014415 
18.256766332 19.269211276 20.28373957 21.288387534 22.301641357 23.313750014 24.328719001 25.343159507 26.357655525 
27.371877087 28.385567953 29.398819975 30.412654098 31.426902862 32.441277657 33.455850368 34.470408548 35.485039076 
36.499601003 37.514227171 38.528825733 39.543423849 40.557949804 41.572506785 42.587059295 43.601572971 44.616021178 
45.630450916 46.644890517 47.659298519 48.673778675 49.688272421 50.702742304 51.717313252 52.731874667 53.746440722 
54.761010453 55.775551713 56.789993898 57.804357268 58.818597986 59.833411964 60.845249324 61.870533913 62.85064487 
63.890554463 
ParallelTransportNormals 3 64 double
0.29741890763 0 0.95474708346 0.33035992923 -0.0087206222567 0.94381474236 0.35228131008 -0.00980494283 0.93584279752 
0.3632966209 -0.0075547391135 0.93164289895 0.35376915261 -0.012396332505 0.93525061754 0.33065658157 -0.032011495513 0.94320808373 
0.30218228555 -0.066889049916 0.95090047918 0.27278546155 -0.11457177434 0.95522845461 0.24287028868 -0.17541948696 0.95406604932 
0.21081177792 -0.25492883567 0.94369999631 0.17540905378 -0.36356320543 0.91490625722 0.1413378541 -0.51038762349 0.84825001314 
0.12852342992 -0.67017186518 0.730993433 0.14779542299 -0.77743025366 0.61135808954 0.16793849284 -0.81374888804 0.55642556541 
0.16076095379 -0.80588498572 0.56982918978 0.12030979714 -0.76794705428 0.62911276774 0.046014017424 -0.69296707696 0.71949936793 
-0.067025530389 -0.54811532539 0.83371288124 -0.2194940634 -0.24934204444 0.94321307296 -0.33979859965 0.41163776654 0.84563068821 
-0.17877764274 0.94070886453 0.288280049 -0.02678679467 0.99697834459 -0.072915348516 0.036782609367 0.97292767113 -0.22816394633 
0.06026961437 0.95337734473 -0.29570122105 0.061807497046 0.95137386478 -0.3017740922 0.053780878457 0.96961051812 -0.2386693534 
0.058713363113 0.99541638715 -0.075491437798 0.11295430481 0.976382247 0.18417120506 0.21058263555 0.875065753 0.43579224585 
0.30120419339 0.73946104327 0.60205763792 0.36356668136 0.61877354865 0.69637530377 0.40212627101 0.52626562211 0.74922557161 
0.42461765521 0.46149758019 0.77892222356 0.43709829527 0.4200317486 0.79531026049 0.44320777719 0.39783912156 0.80330000597 
0.4448568431 0.39172418406 0.80539093164 0.44286050948 0.39875701454 0.8030363706 0.43732309445 0.41622940964 0.79718353571 
0.42730149054 0.44346933823 0.78787586727 0.41061429791 0.48161319413 0.77423809619 0.38401623698 0.53191924536 0.75471414863 
0.34409713491 0.59359633039 0.72748921524 0.28810139967 0.66343693673 0.69054255082 0.21531478793 0.73569594247 0.64217678433 
0.12768536987 0.80335174407 0.58165489908 0.031111798372 0.85878451724 0.51139144396 -0.06537482555 0.89653026431 0.43813196341 
-0.15256577168 0.91603020562 0.37096138304 -0.22229653017 0.92147931686 0.31852805414 -0.26952386219 0.91977980215 0.28524025533 
-0.29080208646 0.91740781389 0.27165612367 -0.28425904633 0.91835377593 0.2753600131 -0.24799015843 0.92322227102 0.29353282546 
-0.18052664855 0.92866598567 0.32402101202 -0.082862153501 0.92721089948 0.36525855419 0.036214540505 0.90929738209 0.41456818254 
0.15570235804 0.87086552447 0.46620812305 0.2524230403 0.8201428022 0.51346703178 0.31710154348 0.77068852466 0.55270770673 
0.35339854042 0.73093117429 0.58382282422 0.3674333324 0.70776185102 0.60337874381 0.36917476826 0.70211181012 0.60889161315 
0.36917476826 0.70211181012 0.60889161315 
