# vtk DataFile Version 4.2
vtk output
ASCII
DATASET POLYDATA
POINTS 64 float
0 0 0 -0.918162 0.0432309 0.4974 -1.86057 0.0234412 0.744999 
-2.87215 -0.119281 0.820256 -3.82807 -0.45009 0.781873 -4.69308 -0.979277 0.779609 
-5.44667 -1.6465 0.903242 -6.10506 -2.37508 1.15742 -6.69559 -3.12592 1.49895 
-7.23427 -3.9018 1.86982 -7.70702 -4.74286 2.18305 -7.99888 -5.70638 2.23513 
-7.91908 -6.63063 1.8337 -7.5992 -7.37797 1.22488 -7.20575 -8.07492 0.601727 
-6.8025 -8.81627 0.0389128 -6.46444 -9.68742 -0.35781 -6.38306 -10.689 -0.337819 
-6.72576 -11.446 0.225287 -7.30063 -11.7214 1.0133 -7.90361 -11.6114 1.81998 
-8.42399 -11.2271 2.60054 -8.8087 -10.6908 3.37067 -9.04149 -10.1214 4.17714 
-9.11061 -9.65245 5.07308 -8.99054 -9.47413 6.06152 -8.69051 -9.74315 6.98869 
-8.29951 -10.3533 7.69756 -7.89031 -11.1232 8.21573 -7.49583 -11.9669 8.61792 
-7.1356 -12.853 8.95623 -6.82292 -13.7678 9.2639 -6.56341 -14.702 9.56266 
-6.34854 -15.6457 9.86693 -6.14845 -16.5875 10.1871 -5.90783 -17.5098 10.5346 
-5.53863 -18.3706 10.9241 -4.93933 -19.0616 11.3581 -4.12694 -19.4734 11.8015 
-3.22885 -19.6623 12.2337 -2.31689 -19.744 12.6707 -1.41173 -19.7796 13.1276 
-0.519 -19.7868 13.6097 0.360201 -19.7583 14.1152 1.22484 -19.6699 14.6385 
2.0694 -19.4902 15.171 2.88191 -19.1981 15.7034 3.65449 -18.8032 16.2291 
4.39774 -18.3473 16.7479 5.1403 -17.886 17.2629 5.91288 -17.475 17.7762 
6.7326 -17.1645 18.2867 7.59488 -16.9992 18.7945 8.4697 -17.0168 19.307 
9.29403 -17.2489 19.8497 9.94894 -17.7235 20.4597 10.2568 -18.4066 21.1385 
10.1562 -19.1483 21.8211 9.77469 -19.8297 22.4681 9.25365 -20.4373 23.0917 
8.68303 -21.001 23.7107 8.13963 -21.5864 24.3488 7.71548 -22.2107 24.9781 
7.69832 -23.0547 25.5871 
LINES 1 65
64 0 1 2 3 4 5 6 7 8 9 10 11 12 13 14 15 16 17 18 19 20 21 22 23 24 25 26 27 28 29 30 31 32 33 34 35 36 37 38 39 40 41 42 43 44 45 46 47 48 49 50 51 52 53 54 55 56 57 58 59 60 61 62 63 

POINT_DATA 64
SCALARS MaximumInscribedSphereRadius float
LOOKUP_TABLE default
0.93 0.93 0.897245 0.756815 0.75815 1.07803 1.24 1.24656 1.33703 
1.49526 1.48637 1.37652 1.29118 1.46761 1.7995 1.87517 1.86311 1.87106 
2.11149 2.25051 1.96529 1.78183 1.72387 1.83641 2.13431 2.60248 2.42629 
2.19191 2.17 2.33629 2.62644 2.71072 2.55712 2.31809 2.01336 2.06304 
2.36277 2.35083 2.30949 2.4355 2.39131 2.2413 2.2795 2.43937 2.66214 
2.86956 2.89952 2.85925 2.83017 2.78166 2.62185 2.41113 2.10732 1.95352 
2.09798 2.07796 1.94498 2.05013 2.22513 2.38427 2.48 2.48 2.70242 
3.1 
TEXTURE_COORDINATES TCoords 2 float
0 0 0.015873 0 0.031746 0 0.047619 0 0.0634921 
0 0.0793651 0 0.0952381 0 0.111111 0 0.126984 0 
0.142857 0 0.15873 0 0.174603 0 0.190476 0 0.206349 
0 0.222222 0 0.238095 0 0.253968 0 0.269841 0 
0.285714 0 0.301587 0 0.31746 0 0.333333 0 0.349206 
0 0.365079 0 0.380952 0 0.396825 0 0.412698 0 
0.428571 0 0.444444 0 0.460317 0 0.47619 0 0.492063 
0 0.507937 0 0.52381 0 0.539683 0 0.555556 0 
0.571429 0 0.587302 0 0.603175 0 0.619048 0 0.634921 
0 0.650794 0 0.666667 0 0.68254 0 0.698413 0 
0.714286 0 0.730159 0 0.746032 0 0.761905 0 0.777778 
0 0.793651 0 0.809524 0 0.825397 0 0.84127 0 
0.857143 0 0.873016 0 0.888889 0 0.904762 0 0.920635 
0 0.936508 0 0.952381 0 0.968254 0 0.984127 0 
1 0 
FIELD FieldData 4
Curvature 1 64 float
0.208072 0.225501 0.212922 0.187924 0.187506 0.189163 0.152778 0.0975112 0.0638287 
0.126656 0.312328 0.512414 0.340302 0.118359 0.0710106 0.205467 0.44613 0.61731 
0.479351 0.318861 0.238476 0.170265 0.137793 0.183408 0.30239 0.406569 0.353447 
0.22476 0.125052 0.0707702 0.052248 0.0472162 0.0394196 0.030144 0.0611191 0.142214 
0.247003 0.291452 0.21024 0.107155 0.0529326 0.0344121 0.0379805 0.0555244 0.0795846 
0.0959018 0.0900987 0.0586752 0.0209569 0.0490521 0.0904152 0.123146 0.15043 0.184993 
0.255493 0.34005 0.341041 0.24867 0.140633 0.0576057 0.046058 0.157361 0.360892 
0.531647 
Torsion 1 64 float
-0.0573881 -0.13208 -0.300219 -0.512758 -0.472798 -0.27289 -0.132525 0.0810083 0.517323 
0.261502 0.0416425 -0.022596 -0.089663 -0.448119 -0.569169 -0.102376 -0.0546831 -0.0432523 
0.00962158 0.112678 0.22624 0.399698 0.588497 0.403058 0.160514 0.047741 0.00775273 
0.038509 0.133827 0.294896 0.354627 0.268935 0.271055 0.558593 0.219262 0.0621974 
0.0130466 -0.0247492 -0.0760878 -0.166757 -0.238516 -0.0531927 0.204679 0.179286 0.078338 
0.0155468 -0.00863041 0.0178167 0.38182 0.058929 0.0510161 0.0864267 0.157152 0.21883 
0.194701 0.145492 0.116751 0.110136 0.123511 0.373813 0.849198 0.0787952 0.0354237 
0.0154583 
Abscissas 1 64 double
0 1.04513018 2.0197222349 3.0440890247 4.056359173 5.0704037339 6.0844893618 7.0988428102 8.1133027309 
9.1280491694 10.142439166 11.150539136 12.161356876 13.176985915 14.191313741 15.205695647 16.220868451 17.225948199 
18.229731358 19.243282186 20.25640505 21.270187597 22.284446019 23.298744528 24.312352026 25.323899662 26.334856384 
27.348592473 28.362836687 29.37733164 30.391921376 31.406460562 32.421020388 33.435574672 34.45023261 35.464772841 
36.479166786 37.491588324 38.504584622 39.519003195 40.533554752 41.548118316 42.562731384 43.577293706 44.59181738 
45.606277608 46.620647048 47.635134757 48.649737927 49.664339911 50.678872974 51.69325084 52.707505298 53.721543961 
54.735405808 55.748446106 56.759473071 57.772478865 58.786611489 59.801272254 60.81444768 61.836773314 62.8194592 
63.860378764 
ParallelTransportNormals 3 64 double
0.47632923211 0 0.87926700304 0.25405574851 0.002536314894 0.96718625081 0.075871123043 -0.012016873451 0.99704521835 
-0.027334317611 -0.036918791475 0.99894436177 0.0093675270434 -0.019589358315 0.99976422544 0.11256046603 0.0566868024 0.9920265863 
0.20708548704 0.15012747598 0.96673540434 0.26500780942 0.21873966608 0.93910799136 0.28466954367 0.24532258259 0.92670388009 
0.25971544559 0.20542854129 0.94358200584 0.17309673046 0.00080325140186 0.98490450131 0.12959131606 -0.38558371295 0.91352684203 
0.17498384143 -0.57574870097 0.79868272084 0.18456039998 -0.59513678939 0.78214427101 0.15531873195 -0.54234620296 0.82567347519 
0.083439507051 -0.38600454066 0.91871559433 -0.0070469324294 0.019382620889 0.99978730476 0.075309338852 0.57297789503 0.81610344644 
0.29127633611 0.81681982703 0.49795930175 0.47935161254 0.84321715855 0.24332458791 0.62694464569 0.77828669295 0.034788429511 
0.71718183757 0.68650988611 -0.11980979982 0.75563136936 0.61766214673 -0.21797868275 0.76188614637 0.59614704103 -0.25325521801 
0.76324042766 0.61327928654 -0.2033533041 0.79039888397 0.60740802808 -0.079530444788 0.83184157062 0.55470064479 0.018622461016 
0.86226730734 0.50222866251 0.065279868606 0.88475771991 0.45707357593 0.091035835017 0.90513816447 0.41036162552 0.11103260567 
0.92418691323 0.3593816081 0.12931902092 0.9401155834 0.30790908124 0.14620084656 0.95027988032 0.2676722691 0.15912166862 
0.95249828491 0.25759227271 0.16245995901 0.94220149176 0.30114506428 0.14686047524 0.89875663028 0.42817464985 0.094355650337 
0.76203409736 0.64716725281 -0.021876502416 0.51881843802 0.83718704078 -0.17304706622 0.32230199355 0.90622167862 -0.27364885191 
0.23385233706 0.91944510195 -0.31612305981 0.20337738566 0.92141234758 -0.33111467006 0.19001469269 0.92173046743 -0.33809371774 
0.17070532786 0.92149835091 -0.34885595927 0.13127282562 0.91885494037 -0.3721196633 0.066502464219 0.90869510977 -0.41212937257 
-0.01432257733 0.88568230085 -0.46407081975 -0.087491281113 0.85397027831 -0.51291328652 -0.13039020224 0.82989224916 -0.54247327118 
-0.13517731605 0.82693713255 -0.54580406011 -0.10223170194 0.84590459163 -0.52344445835 -0.033659421862 0.87697554258 -0.47935471316 
0.071134285249 0.90661870111 -0.41591158226 0.21323934012 0.91869978339 -0.33244502075 0.39548454315 0.89191586011 -0.21926713072 
0.61511209244 0.786970482 -0.04811002175 0.80192725535 0.56221001195 0.20207072918 0.83994074152 0.30140095264 0.45128374277 
0.78397822326 0.13615254806 0.60567369854 0.7339019048 0.064630901168 0.67617367647 0.7144015277 0.043709190659 0.69836950383 
0.73145397145 0.061295183203 0.67913031752 0.77023928168 0.1099366672 0.62820806917 0.83300679063 0.31249793872 0.4565574718 
0.83300679063 0.31249793872 0.4565574718 
