# vtk DataFile Version 4.2
vtk output
ASCII
DATASET POLYDATA
POINTS 64 float
0 0 0 -0.964282 0.0922126 -0.393884 -1.88887 0.0187751 -0.71388 
-2.81636 -0.328809 -0.922136 -3.52199 -1.04499 -0.864963 -3.90063 -1.93258 -0.557469 
-4.1136 -2.82823 -0.131645 -4.29516 -3.71065 0.335054 -4.53078 -4.59414 0.774179 
-4.8916 -5.49653 1.05907 -5.35293 -6.39212 0.985832 -5.73625 -7.22076 0.547407 
-5.94846 -8.01511 -0.0458324 -5.99413 -8.82213 -0.658161 -5.89119 -9.64981 -1.23507 
-5.65664 -10.4827 -1.76417 -5.30418 -11.2946 -2.25953 -4.84189 -12.0508 -2.75217 
-4.27123 -12.6922 -3.29165 -3.60262 -13.0728 -3.96045 -3.17001 -12.608 -4.67765 
-3.52577 -11.6714 -4.66029 -4.08075 -10.9292 -4.2608 -4.65843 -10.3239 -3.68773 
-5.20444 -9.82574 -2.99338 -5.67554 -9.4358 -2.1848 -6.0019 -9.19395 -1.25695 
-6.0591 -9.19337 -0.248576 -5.77398 -9.51029 0.666693 -5.30385 -10.0842 1.35599 
-4.8304 -10.8324 1.8491 -4.44348 -11.6981 2.20839 -4.15979 -12.6307 2.48864 
-3.95189 -13.5936 2.73114 -3.7706 -14.5644 2.96406 -3.56108 -15.5277 3.20355 
-3.27803 -16.4681 3.45747 -2.89281 -17.3654 3.73166 -2.3906 -18.1926 4.03503 
-1.76992 -18.915 4.38281 -1.04491 -19.4928 4.79288 -0.245862 -19.891 5.27294 
0.588333 -20.0988 5.81031 1.42733 -20.1399 6.37855 2.25881 -20.0596 6.95404 
3.08458 -19.9058 7.52305 3.91131 -19.7204 8.08124 4.74352 -19.5344 8.63101 
5.5802 -19.367 9.17996 6.41594 -19.2263 9.73774 7.24525 -19.1174 10.312 
8.06632 -19.0537 10.9045 8.87984 -19.0683 11.5102 9.67857 -19.2202 12.1161 
10.4242 -19.5868 12.6956 11.042 -20.1983 13.2154 11.4892 -20.9849 13.6723 
11.7843 -21.8592 14.0932 11.9572 -22.7713 14.5017 12.0237 -23.6983 14.908 
11.9848 -24.6297 15.3095 11.8327 -25.5579 15.6921 11.5731 -26.4437 16.0266 
11.1506 -27.3572 16.3095 
LINES 1 65
64 0 1 2 3 4 5 6 7 8 9 10 11 12 13 14 15 16 17 18 19 20 21 22 23 24 25 26 27 28 29 30 31 32 33 34 35 36 37 38 39 40 41 42 43 44 45 46 47 48 49 50 51 52 53 54 55 56 57 58 59 60 61 62 63 

POINT_DATA 64
SCALARS MaximumInscribedSphereRadius float
LOOKUP_TABLE default
0.9796 1.2151 1.50318 1.18863 1.17144 1.54596 1.55 1.41722 1.32111 
1.51946 1.36861 1.50141 1.63481 1.56936 1.87086 2.13425 2.1684 1.9437 
1.3462 1.27635 1.8205 1.58904 1.35853 1.40852 1.79119 1.87284 1.86122 
1.88264 2.3044 2.07688 2.09393 2.3762 2.04028 1.86 1.87893 2.05511 
2.17 2.12682 1.81952 1.80148 2.54516 2.10204 1.6728 1.60969 1.78024 
1.97828 2.05337 2.14611 2.21979 2.19098 2.14004 2.11382 2.32359 2.56871 
2.74646 2.18421 2.0722 2.35507 3.14209 3.02199 2.55465 2.48 2.48 
2.48 
TEXTURE_COORDINATES TCoords 2 float
0 0 0.015873 0 0.031746 0 0.047619 0 0.0634921 
0 0.0793651 0 0.0952381 0 0.111111 0 0.126984 0 
0.142857 0 0.15873 0 0.174603 0 0.190476 0 0.206349 
0 0.222222 0 0.238095 0 0.253968 0 0.269841 0 
0.285714 0 0.301587 0 0.31746 0 0.333333 0 0.349206 
0 0.365079 0 0.380952 0 0.396825 0 0.412698 0 
0.428571 0 0.444444 0 0.460317 0 0.47619 0 0.492063 
0 0.507937 0 0.52381 0 0.539683 0 0.555556 0 
0.571429 0 0.587302 0 0.603175 0 0.619048 0 0.634921 
0 0.650794 0 0.666667 0 0.68254 0 0.698413 0 
0.714286 0 0.730159 0 0.746032 0 0.761905 0 0.777778 
0 0.793651 0 0.809524 0 0.825397 0 0.84127 0 
0.857143 0 0.873016 0 0.888889 0 0.904762 0 0.920635 
0 0.936508 0 0.952381 0 0.968254 0 0.984127 0 
1 0 
FIELD FieldData 4
Curvature 1 64 float
0.135243 0.187418 0.275288 0.378664 0.313737 0.151824 0.0425629 0.0550642 0.163501 
0.278865 0.27532 0.184282 0.134556 0.115197 0.099727 0.0853747 0.0863699 0.131725 
0.248466 0.67035 1.00319 0.380396 0.172166 0.113454 0.124173 0.180925 0.27279 
0.343224 0.273495 0.186935 0.142019 0.104179 0.0637106 0.0207938 0.0206958 0.0536936 
0.0770359 0.0950472 0.112018 0.128931 0.141269 0.138205 0.11625 0.083918 0.0505948 
0.0224862 0.00921544 0.0136009 0.0195047 0.0246213 0.0339514 0.0574424 0.0996782 0.156999 
0.199069 0.176167 0.12682 0.0906645 0.0733286 0.0712057 0.0780836 0.0892933 0.102718 
0.116006 
Torsion 1 64 float
-0.00504741 -0.00889774 -0.0174478 -0.0385919 -0.0671457 -0.128918 -1.0446 -0.322257 -0.152092 
-0.227546 -0.294822 -0.335185 -0.235702 -0.0829902 0.049593 0.186383 0.27251 0.201126 
0.115159 0.0586436 -0.0262781 -0.0625257 -0.0981758 -0.131667 -0.094226 -0.0418252 -0.0120971 
0.0615296 0.195345 0.273563 0.217377 0.141229 0.102468 0.0857225 0.0531853 0.00795525 
-0.0303777 -0.0623524 -0.0937092 -0.0886382 -0.0543049 -0.0125936 0.0217048 0.0552254 0.117085 
0.340183 1.07959 0.453375 0.239938 0.0489045 -0.126918 -0.120094 -0.0442396 0.0155111 
0.0652499 0.100729 0.120195 0.106969 0.0546845 -0.0334857 -0.0707018 -0.074139 -0.0630778 
-0.0504993 
Abscissas 1 64 double
0 1.0456995274 2.0268486097 3.0389864256 4.0460106033 5.0587972789 6.0731300553 7.0877418905 8.1020900884 
9.114839756 10.124924039 11.137739332 12.1516221 13.165680102 14.179817291 15.194049601 16.208342369 17.222367089 
18.236311975 19.255718369 20.213615056 21.21565573 22.22484139 23.238996875 24.253103681 25.266903639 26.2797747 
27.289769916 28.299447675 29.312129788 30.325597278 31.339615258 32.353894758 33.368392328 34.383069322 35.397565451 
36.411933836 37.426193672 38.440347563 39.454279237 40.468009189 41.481665614 42.495484314 43.509635208 44.524029491 
45.538584959 46.55319405 47.567795564 48.58239071 49.59697206 50.611560823 51.626090198 52.640436812 53.654418367 
54.667423526 55.680241755 56.693891385 57.708110754 58.722355987 59.736668884 60.751667273 61.76708444 62.748881988 
63.794358067 
ParallelTransportNormals 3 64 double
-0.37814347306 0 0.92574700312 -0.32703560152 -0.00036550643456 0.94501194794 -0.22692795531 0.022161533272 0.97365937039 
-0.055677996513 0.13384489112 0.98943696405 0.059501882979 0.30401198567 0.95080820279 0.094364275996 0.40907199591 0.90760976503 
0.1030855693 0.44837679634 0.88788040518 0.096890340705 0.422153027 0.90133183882 0.050199624373 0.28237220778 0.95799057093 
-0.094007376833 -0.032945137566 0.99502624639 -0.2533677466 -0.35823266933 0.89859564856 -0.31057738106 -0.51412347356 0.79951156609 
-0.31821346936 -0.56153895591 0.76381554639 -0.31797167994 -0.5684412194 0.75879416895 -0.3175416287 -0.57055726147 0.7573847935 
-0.31070759853 -0.58970619549 0.74545784 -0.28488583631 -0.63940264674 0.71414586438 -0.21523924738 -0.73363506375 0.64455539686 
-0.034318111119 -0.88297081257 0.46817177552 0.51346570033 -0.82763625548 -0.22665216348 0.58588060912 0.23690685781 -0.77499616294 
0.36808491728 0.63885500477 -0.67555738213 0.24903910708 0.7805233952 -0.57337836783 0.16914472309 0.8589793092 -0.48326453317 
0.1016151008 0.91794310845 -0.38347727566 0.035841877191 0.97005088043 -0.24024289629 -0.011456847166 0.99993361797 -0.0012248695533 
0.026574577353 0.94715223471 0.3196817732 0.14552330384 0.80685928657 0.57253913379 0.2635158119 0.64154069984 0.72040609889 
0.34573439418 0.48732063833 0.80186428037 0.38888067362 0.37162293208 0.84301139852 0.4062451029 0.30466942341 0.86147632516 
0.41030421519 0.2845017562 0.86643476484 0.40661876444 0.30274075283 0.861979824 0.39480862492 0.34838446921 0.85014964053 
0.3711606793 0.41341421063 0.83146162905 0.32926165799 0.49483386365 0.80419289226 0.25968360258 0.59085051724 0.76384559489 
0.15394453622 0.69301319913 0.70429666022 0.01519248931 0.78186863216 0.62325807681 -0.13337360865 0.83699429942 0.5307089817 
-0.2605824804 0.85591962749 0.44665239524 -0.34947441659 0.85383444345 0.38579058481 -0.39966064606 0.84674539972 0.35113187842 
-0.41778407578 0.84302529667 0.33876956061 -0.41404784889 0.84386175295 0.34126488354 -0.39959703871 0.84692181338 0.35077863201 
-0.38404663183 0.84978658611 0.36106916602 -0.36899547455 0.85204284929 0.37130219865 -0.34597313846 0.85445054878 0.38757818198 
-0.29889915048 0.85586433062 0.42208476093 -0.20990272257 0.84667211923 0.48896540734 -0.070170376142 0.79974861816 0.59621998127 
0.080604032863 0.69158237326 0.71778604813 0.17540317908 0.56714743498 0.804722009 0.21374136232 0.48137176475 0.85005638292 
0.22626979808 0.43354976602 0.87225946762 0.23005661743 0.40445938792 0.88514775959 0.2304639381 0.37706876532 0.89705379964 
0.22657622728 0.33921287893 0.91301579176 0.21516693827 0.28918185343 0.93277920448 0.18582505768 0.21123397354 0.95960890803 
0.18582505768 0.21123397354 0.95960890803 
