# vtk DataFile Version 4.2
vtk output
ASCII
DATASET POLYDATA
POINTS 64 float
0 0 0 -0.779082 0.561999 0.362196 -1.54924 0.885572 0.91331 
-2.32086 1.00121 1.55758 -3.08539 0.882957 2.21112 -3.82626 0.480579 2.76961 
-4.48566 -0.211332 3.09664 -5.02095 -1.06927 3.1443 -5.4698 -1.9633 2.98053 
-5.88297 -2.83319 2.66296 -6.27643 -3.64899 2.20719 -6.62074 -4.38798 1.60492 
-6.83548 -5.03215 0.853335 -6.81257 -5.57838 0.00155455 -6.52097 -6.05533 -0.843116 
-6.0367 -6.51475 -1.60612 -5.4421 -6.9998 -2.26912 -4.7839 -7.54494 -2.81463 
-4.09486 -8.19634 -3.16767 -3.51445 -8.99529 -3.03891 -3.47524 -9.60852 -2.25544 
-3.82675 -9.91011 -1.35599 -4.33754 -10.0633 -0.493628 -4.93849 -10.1297 0.320699 
-5.61132 -10.1066 1.07899 -6.35287 -9.91477 1.74124 -7.10559 -9.43941 2.21918 
-7.75732 -8.73087 2.53556 -8.23854 -7.94876 2.95735 -8.23158 -7.54989 3.84994 
-7.79814 -7.73774 4.74489 -7.2382 -8.12333 5.49701 -6.59917 -8.58901 6.13183 
-5.88037 -9.09728 6.63451 -5.07896 -9.64008 6.9317 -4.26075 -10.2259 6.86363 
-3.65748 -10.8566 6.35952 -3.41639 -11.5529 5.66724 -3.48514 -12.3497 5.04769 
-3.75437 -13.243 4.65628 -4.10118 -14.1898 4.57517 -4.40174 -15.124 4.82065 
-4.55414 -15.9745 5.34698 -4.50001 -16.6816 6.06883 -4.22172 -17.2111 6.88545 
-3.73309 -17.5557 7.70271 -3.07798 -17.7242 8.457 -2.3169 -17.7374 9.12645 
-1.4936 -17.6363 9.70994 -0.629497 -17.4785 10.2174 0.26299 -17.324 10.6744 
1.16907 -17.2181 11.1183 2.07471 -17.1852 11.5741 2.97302 -17.2341 12.0428 
3.8623 -17.3665 12.5126 4.73902 -17.5854 12.9734 5.58719 -17.9076 13.4266 
6.35813 -18.3773 13.8869 6.90938 -19.0696 14.373 6.98623 -19.9533 14.8469 
6.619 -20.8115 15.2365 6.04297 -21.5786 15.559 5.38502 -22.2757 15.8467 
4.66982 -22.9577 16.1378 
LINES 1 65
64 0 1 2 3 4 5 6 7 8 9 10 11 12 13 14 15 16 17 18 19 20 21 22 23 24 25 26 27 28 29 30 31 32 33 34 35 36 37 38 39 40 41 42 43 44 45 46 47 48 49 50 51 52 53 54 55 56 57 58 59 60 61 62 63 

POINT_DATA 64
SCALARS MaximumInscribedSphereRadius float
LOOKUP_TABLE default
0.9796 0.941628 1.10996 1.1822 1.01712 1.38092 0.896194 1.17737 1.4386 
1.26063 1.28542 1.57946 1.36454 1.13639 1.54756 1.56281 1.92912 2.27911 
2.29523 1.70744 1.75948 1.61014 1.84592 2.0786 2.01483 1.98561 2.16909 
2.24545 2.47996 2.25581 1.96457 1.77166 1.57333 1.78247 2.17545 2.4986 
2.09678 1.32613 1.39404 1.51965 1.91954 1.94327 1.57507 1.62147 2.02967 
1.95733 2.04823 2.08385 1.86219 1.69114 2.35645 2.03797 2.01046 2.32765 
2.67186 2.30287 2.44397 2.88781 2.73505 2.15648 1.89293 2.43759 2.885 
3.1 
TEXTURE_COORDINATES TCoords 2 float
0 0 0.015873 0 0.031746 0 0.047619 0 0.0634921 
0 0.0793651 0 0.0952381 0 0.111111 0 0.126984 0 
0.142857 0 0.15873 0 0.174603 0 0.190476 0 0.206349 
0 0.222222 0 0.238095 0 0.253968 0 0.269841 0 
0.285714 0 0.301587 0 0.31746 0 0.333333 0 0.349206 
0 0.365079 0 0.380952 0 0.396825 0 0.412698 0 
0.428571 0 0.444444 0 0.460317 0 0.47619 0 0.492063 
0 0.507937 0 0.52381 0 0.539683 0 0.555556 0 
0.571429 0 0.587302 0 0.603175 0 0.619048 0 0.634921 
0 0.650794 0 0.666667 0 0.68254 0 0.698413 0 
0.714286 0 0.730159 0 0.746032 0 0.761905 0 0.777778 
0 0.793651 0 0.809524 0 0.825397 0 0.84127 0 
0.857143 0 0.873016 0 0.888889 0 0.904762 0 0.920635 
0 0.936508 0 0.952381 0 0.968254 0 0.984127 0 
1 0 
FIELD FieldData 4
Curvature 1 64 float
0.224933 0.169441 0.134194 0.136768 0.178389 0.224886 0.208438 0.138582 0.0930219 
0.0862398 0.103642 0.132853 0.163814 0.16772 0.133594 0.0933429 0.0850655 0.14183 
0.32683 0.570065 0.320916 0.137735 0.0768046 0.0807122 0.132699 0.207428 0.181411 
0.146031 0.541777 0.474584 0.196709 0.103131 0.0908105 0.138666 0.229708 0.304283 
0.248013 0.200552 0.187499 0.189207 0.192248 0.191307 0.185532 0.175127 0.162342 
0.145078 0.119208 0.0907402 0.0616221 0.0363654 0.0332615 0.0447432 0.0506755 0.0508486 
0.051123 0.0620845 0.10122 0.193913 0.311349 0.282595 0.154856 0.0737608 0.0334691 
0.0651316 
Torsion 1 64 float
0.05623 0.0942798 0.141003 0.15166 0.111983 0.0790295 0.0808198 0.130746 0.157136 
0.0192898 -0.113162 -0.185041 -0.202822 -0.183061 -0.167153 -0.197614 -0.175758 -0.0715278 
-0.0350144 -0.0514118 -0.0498257 -0.0449745 -0.0158448 0.0655304 0.086945 0.0815364 0.27328 
0.770266 0.0992559 -0.0125438 -0.0566608 -0.102705 -0.0668193 0.0302858 0.105112 0.212156 
0.324865 0.307335 0.230942 0.183357 0.153622 0.121324 0.0939052 0.0887839 0.0728332 
0.00782099 -0.0205617 0.071243 0.219689 0.516036 0.479189 0.100447 -0.0431447 -0.0752037 
-0.00846734 0.0908825 0.0985032 0.0699254 0.0496607 0.0289107 0.0219792 0.0494046 0.181244 
0.066808 
Abscissas 1 64 double
0 1.0266438556 2.0274282725 3.0392846203 4.0520059862 5.0632960173 6.0734929728 7.0858487621 8.0995433204 
9.1135791128 10.12751543 11.141115314 12.1540063 13.166143843 14.179050559 15.19283533 16.206931732 17.220828273 
18.232625882 19.228505568 20.224202945 21.235897859 22.249821883 23.264059522 24.278080803 25.290637025 26.301073064 
27.314422519 28.324954934 29.302637245 30.314612242 31.328464735 32.342473465 33.356227989 34.36875608 35.377361839 
36.385252632 37.396296724 38.407958112 39.419724594 40.431300967 41.442896324 42.454627247 43.466550667 44.478816677 
45.49144866 46.504618789 47.51831505 48.532467557 49.546908174 50.561429363 51.575945531 52.590351183 53.60476359 
54.619189816 55.63353263 56.647730201 57.661062228 58.670739253 59.676430559 60.687940914 61.699997316 62.700805899 
63.731036935 
ParallelTransportNormals 3 64 double
0.42157024667 0 0.90679574719 0.55831642023 -0.077903744407 0.82596233661 0.62912093456 -0.09812667874 0.77108884353 
0.6553645109 -0.09808371083 0.74891718068 0.63444998931 -0.10531970793 0.76575516335 0.56688825546 -0.15812735573 0.80847600162 
0.48916403282 -0.25893485061 0.83286931276 0.42873212566 -0.36650815367 0.82574847122 0.37787776076 -0.47056909063 0.79735382915 
0.32731144716 -0.57624217399 0.74887393697 0.27745159129 -0.68131803682 0.67736721739 0.24168490853 -0.76981433928 0.59074045741 
0.23433117165 -0.81546752609 0.52924627149 0.23273318936 -0.81026707291 0.53786850915 0.20427416523 -0.77591692944 0.59684586287 
0.15040605267 -0.72875885292 0.66804831682 0.069652481071 -0.66235433185 0.7459458901 -0.07412616567 -0.53464986255 0.84181639093 
-0.40867974472 -0.15185345267 0.89995632959 -0.71061827521 0.53634324971 0.45536533182 -0.62956552391 0.77681333429 0.014432421028 
-0.5382209366 0.8250159356 -0.17224090517 -0.4685212865 0.83878392255 -0.27736138046 -0.39123718233 0.84141045065 -0.37277596584 
-0.24869695979 0.81973846794 -0.51592505887 -0.00030056174982 0.70878126319 -0.70542826043 0.19526171489 0.54399322429 -0.81605406354 
0.18814614295 0.5533579636 -0.81141604188 0.045850057969 0.91189507956 -0.40785430739 0.17394673133 0.97730642863 0.12089118753 
0.26682149531 0.92370418449 0.27491247552 0.31677631169 0.88823627454 0.33269969783 0.35434620791 0.86128804913 0.36417257086 
0.41083586337 0.82223172688 0.39388942697 0.55246420141 0.72353377937 0.4138625089 0.79887433974 0.51263900178 0.31464431214 
0.96398871859 0.25333809006 0.08090465097 0.99155793346 0.014622752691 -0.12883726051 0.95269164126 -0.17973706798 -0.24509839468 
0.90933511216 -0.30924105599 -0.27835161772 0.89219450165 -0.35904481016 -0.27399962686 0.89791769267 -0.3364953936 -0.2837510657 
0.90193947363 -0.27276143038 -0.33482292036 0.88170012308 -0.19746074417 -0.42850221408 0.82501190467 -0.13284448491 -0.549279255 
0.74095642461 -0.095130990173 -0.66478091995 0.65727894392 -0.084392426033 -0.7489074097 0.58317072816 -0.088502725169 -0.80751419149 
0.51726078553 -0.098615064224 -0.85012725451 0.46780743185 -0.10740726117 -0.87727982249 0.44763544521 -0.11032780757 -0.88738395471 
0.45001714761 -0.11014534557 -0.88620120159 0.45504082983 -0.11018990407 -0.88362663395 0.45145617529 -0.10982634206 -0.88550860887 
0.44131162838 -0.10780832982 -0.89085431507 0.4368489667 -0.10640836822 -0.89321903219 0.45619524424 -0.11587150452 -0.8823036289 
0.52064105703 -0.17254594476 -0.83615835024 0.58803642897 -0.34194504735 -0.7329984603 0.55699309031 -0.52899767136 -0.64025007696 
0.50023920568 -0.62679572377 -0.59740091879 0.46085657494 -0.6734960107 -0.57793973812 0.43557301839 -0.69890850746 -0.56727686702 
0.43557301839 -0.69890850746 -0.56727686702 
