# vtk DataFile Version 4.2
vtk output
ASCII
DATASET POLYDATA
POINTS 64 float
0 0 0 -0.952496 0.081613 0.413259 -1.91324 0.132956 0.590018 
-2.93737 0.114586 0.652663 -3.93894 -0.0274396 0.649935 -4.90723 -0.330442 0.66808 
-5.80014 -0.802585 0.758164 -6.59059 -1.41335 0.93401 -7.27632 -2.12192 1.17224 
-7.86518 -2.90742 1.42766 -8.34879 -3.77823 1.62118 -8.66188 -4.74155 1.59926 
-8.73109 -5.68901 1.25061 -8.62942 -6.5283 0.689961 -8.46579 -7.30434 0.0573188 
-8.29943 -8.07998 -0.576076 -8.17589 -8.90415 -1.15 -8.16701 -9.83861 -1.56245 
-8.49636 -10.7668 -1.39469 -9.04194 -11.1902 -0.658552 -9.56295 -11.2907 0.204644 
-10.0184 -11.2512 1.11102 -10.3665 -11.1551 2.05833 -10.5104 -11.0826 3.06088 
-10.2491 -11.1925 4.03043 -9.61376 -11.5684 4.72204 -8.87697 -12.099 5.17387 
-8.15333 -12.7184 5.52327 -7.4822 -13.4108 5.83844 -6.8906 -14.1723 6.15358 
-6.40277 -14.9974 6.4856 -6.03042 -15.8722 6.83953 -5.75929 -16.7753 7.214 
-5.544 -17.6845 7.60939 -5.31354 -18.577 8.03338 -4.97742 -19.4137 8.49804 
-4.45651 -20.1228 9.00142 -3.74479 -20.6311 9.51402 -2.90574 -20.9231 10.003 
-2.00701 -21.0357 10.4596 -1.0896 -21.0114 10.8919 -0.175374 -20.8796 11.3115 
0.722711 -20.661 11.7297 1.59678 -20.3741 12.1576 2.44281 -20.0399 12.6069 
3.25917 -19.6802 13.0902 4.04498 -19.3146 13.6176 4.80172 -18.9575 14.1913 
5.53792 -18.6214 14.8033 6.26833 -18.321 15.4401 7.00789 -18.0736 16.0891 
7.76481 -17.8988 16.7417 8.53629 -17.8173 17.3954 9.30456 -17.8544 18.0569 
10.023 -18.0493 18.7452 10.5625 -18.4758 19.4918 10.6413 -19.1436 20.2433 
10.2483 -19.8427 20.8626 9.64904 -20.4749 21.3821 8.98906 -21.0612 21.8828 
8.34071 -21.6221 22.4225 7.78602 -22.1686 23.0844 7.44767 -22.6533 23.8702 
7.53321 -23.0136 24.8412 
LINES 1 65
64 0 1 2 3 4 5 6 7 8 9 10 11 12 13 14 15 16 17 18 19 20 21 22 23 24 25 26 27 28 29 30 31 32 33 34 35 36 37 38 39 40 41 42 43 44 45 46 47 48 49 50 51 52 53 54 55 56 57 58 59 60 61 62 63 

POINT_DATA 64
SCALARS MaximumInscribedSphereRadius float
LOOKUP_TABLE default
0.62 0.77841 0.90816 0.93 0.993471 1.14913 1.40515 1.70831 1.66146 
1.36439 1.24 1.24 1.24 1.46344 1.78734 2.10149 2.32899 2.11537 
2.01551 2.17 2.16025 2.01976 1.69929 1.8054 2.07447 1.93085 2.05836 
2.35518 2.57413 2.72977 2.55486 2.11151 1.86 1.87732 2.07809 2.44449 
2.0981 1.4926 1.82867 2.22169 2.53565 2.60618 2.23807 1.91639 1.92303 
2.10813 2.56348 2.90055 3.08737 2.85037 2.36491 2.08535 1.94999 1.86153 
1.80757 1.6699 1.91786 2.6344 2.65595 2.50227 2.35031 2.20779 2.17 
2.17 
TEXTURE_COORDINATES TCoords 2 float
0 0 0.015873 0 0.031746 0 0.047619 0 0.0634921 
0 0.0793651 0 0.0952381 0 0.111111 0 0.126984 0 
0.142857 0 0.15873 0 0.174603 0 0.190476 0 0.206349 
0 0.222222 0 0.238095 0 0.253968 0 0.269841 0 
0.285714 0 0.301587 0 0.31746 0 0.333333 0 0.349206 
0 0.365079 0 0.380952 0 0.396825 0 0.412698 0 
0.428571 0 0.444444 0 0.460317 0 0.47619 0 0.492063 
0 0.507937 0 0.52381 0 0.539683 0 0.555556 0 
0.571429 0 0.587302 0 0.603175 0 0.619048 0 0.634921 
0 0.650794 0 0.666667 0 0.68254 0 0.698413 0 
0.714286 0 0.730159 0 0.746032 0 0.761905 0 0.777778 
0 0.793651 0 0.809524 0 0.825397 0 0.84127 0 
0.857143 0 0.873016 0 0.888889 0 0.904762 0 0.920635 
0 0.936508 0 0.952381 0 0.968254 0 0.984127 0 
1 0 
FIELD FieldData 4
Curvature 1 64 float
0.226816 0.189489 0.140003 0.121302 0.144039 0.170796 0.168388 0.135162 0.110969 
0.151686 0.274069 0.360571 0.278568 0.139918 0.0490187 0.0910982 0.25645 0.629397 
0.741489 0.326376 0.152184 0.120188 0.2147 0.406182 0.491291 0.2932 0.146082 
0.0912519 0.0908016 0.105989 0.110739 0.0936399 0.0566527 0.0489377 0.117199 0.197869 
0.237339 0.220483 0.169912 0.122907 0.0928211 0.0760132 0.0651593 0.0554158 0.0481612 
0.0472886 0.0480888 0.0463093 0.0460554 0.0527574 0.0649588 0.0805541 0.107052 0.164158 
0.286295 0.46679 0.448288 0.241955 0.101058 0.0562697 0.126737 0.255922 0.396347 
0.398786 
Torsion 1 64 float
0.0885698 0.200152 0.429926 0.545944 0.339805 0.153829 0.0404679 -0.0876321 -0.311122 
-0.342153 -0.156949 -0.0677728 -0.0314317 -0.00234318 0.0342492 0.0175602 0.00935647 0.0180483 
-0.00636774 -0.0781257 -0.289517 -0.48179 -0.272539 -0.168265 -0.144654 -0.168481 -0.28684 
-0.37392 -0.239476 -0.100207 -0.0496183 -0.0714259 -0.369744 -0.86459 -0.156703 -0.0340434 
-0.00436483 0.0143362 0.046331 0.0844268 0.119172 0.145866 0.185491 0.269913 0.348508 
0.270348 0.203057 0.277219 0.333847 0.219753 0.0479005 -0.0801012 -0.158448 -0.18081 
-0.161225 -0.133152 -0.0939145 -0.0903562 -0.387157 -0.825821 -0.185212 -0.0443931 -0.0177673 
-0.00743771 
Abscissas 1 64 double
0 1.0414856202 2.0197027754 3.0459114915 4.0575048641 5.0722584986 6.08632083 7.1006023715 8.1150237598 
9.1294228208 10.144134065 11.157292937 12.169235436 13.183666837 14.198186088 15.213312671 16.225195693 17.246669539 
18.245744928 19.255113125 20.268355158 21.28349674 22.297303918 23.312719964 24.322859977 25.334434221 26.348606427 
27.363196133 28.377673742 29.392162116 30.406561119 31.421049015 32.43560662 33.450164933 34.464775858 35.479149498 
36.492836869 37.506578351 38.520664449 39.535000809 40.549453649 41.563970305 42.578482437 43.59307916 44.607636628 
45.62223324 46.636783344 47.651331164 48.665972277 49.680493882 50.695065888 51.709644083 52.724112983 53.738606927 
54.752459648 55.767534147 56.775957932 57.789230769 58.803463471 59.81836318 60.831401664 61.853386662 62.836694382 
63.875913079 
ParallelTransportNormals 3 64 double
0.39802153581 0 0.91737607176 0.18169565516 0.014923816229 0.98324156167 0.060741576936 0.017036450598 0.99800812631 
-0.0044037555885 0.011849286186 0.99992009748 0.013744824424 0.015946967329 0.99977836246 0.077922480816 0.042677788694 0.99604552774 
0.15016162631 0.089148386358 0.98463396813 0.19954073802 0.13328049799 0.97078308737 0.21555769692 0.15205554723 0.96457969596 
0.18937649656 0.11162255248 0.97553931152 0.11488566711 -0.05990200619 0.99157099249 0.057175277375 -0.34845485746 0.93558014086 
0.060800804244 -0.5493390944 0.83338455803 0.072563442837 -0.62095906749 0.78047702289 0.072665581553 -0.62143934517 0.78008515787 
0.062268661917 -0.56404766841 0.82339106232 0.050080774568 -0.40288960819 0.91387738763 0.14230608363 0.126927979 0.98165078654 
0.4438483923 0.59423369388 0.67073461348 0.59831414432 0.67019216169 0.43916130422 0.670861558 0.67473368256 0.30769989863 
0.71902180246 0.666603632 0.1965890266 0.75330492068 0.65485793933 0.06076821347 0.7421237558 0.65843303849 -0.12537250456 
0.67739118723 0.69350199182 -0.24534907133 0.66354717905 0.70264692694 -0.25688993213 0.6954824541 0.67750029285 -0.23936898134 
0.74830648237 0.62781833068 -0.21419979484 0.81159563853 0.55494756859 -0.18260809303 0.87613098313 0.46008972516 -0.14391645217 
0.92949881581 0.35462427412 -0.1013586484 0.96278874869 0.2626465976 -0.063675663889 0.97619665999 0.21269147834 -0.042454870916 
0.97248302989 0.22770180591 -0.049281275985 0.94112870608 0.32339260475 -0.098458020443 0.85188235367 0.48434754329 -0.19925840714 
0.69422381544 0.64005940633 -0.32920700243 0.5145200614 0.73280384137 -0.44527254182 0.3640265407 0.76784468991 -0.52716146469 
0.25343378736 0.77322218988 -0.58129059901 0.17339120669 0.76640079023 -0.61851864821 0.1164160914 0.75538494108 -0.64485725897 
0.079749509266 0.74492598996 -0.66236340876 0.064007423615 0.73924177155 -0.67039141769 0.068728129979 0.74121224207 -0.66774310656 
0.089890480705 0.75079241094 -0.65439319767 0.11935592057 0.76459726385 -0.63336023584 0.15038343042 0.77900391166 -0.60871810345 
0.18158485215 0.79254512951 -0.58215046093 0.21549007085 0.80518030276 -0.55249317589 0.25676221754 0.81682434695 -0.51659573157 
0.31111426998 0.82593855118 -0.47014191548 0.38814437692 0.82815981656 -0.40434547221 0.50523644272 0.80988368102 -0.29803449493 
0.68964176726 0.71881915236 -0.087711225334 0.84874603989 0.43633200471 0.29873824904 0.77508151469 0.11472066174 0.62135965057 
0.67027800384 -0.025909662516 0.74165766157 0.63608847038 -0.058994026103 0.76935762993 0.658967085 -0.038933298355 0.75116348365 
0.74798506025 0.042984544968 0.66232218635 0.86097398458 0.17391451154 0.47799324321 0.92432346598 0.37709946361 0.058498929714 
0.92432346598 0.37709946361 0.058498929714 
