# vtk DataFile Version 4.2
vtk output
ASCII
DATASET POLYDATA
POINTS 64 float
0 0 0 -0.728577 0.368181 0.644514 -1.60343 0.463588 1.09192 
-2.55208 0.396438 1.44338 -3.50275 0.253487 1.76894 -4.43664 0.107515 2.13733 
-5.34147 0.00612263 2.5844 -6.21181 -0.041803 3.10336 -7.06455 -0.0852071 3.6514 
-7.93518 -0.282761 4.13104 -8.69986 -0.910727 4.27542 -9.14148 -1.7862 4.02863 
-9.36407 -2.66758 3.58064 -9.44609 -3.49816 3.00496 -9.4115 -4.25601 2.33213 
-9.26915 -4.92692 1.58516 -9.03639 -5.50277 0.783367 -8.74444 -5.98979 -0.0572108 
-8.41307 -6.40973 -0.919227 -8.03548 -6.79368 -1.77904 -7.59303 -7.17967 -2.60625 
-7.0686 -7.61454 -3.35742 -6.46085 -8.16241 -3.95427 -5.84102 -8.9139 -4.21441 
-5.55682 -9.78567 -3.83424 -5.80876 -10.3978 -3.07316 -6.36554 -10.7133 -2.28963 
-7.08396 -10.7433 -1.5773 -7.82932 -10.4646 -0.951615 -8.45587 -9.92294 -0.368453 
-8.89769 -9.24263 0.239388 -9.17043 -8.54087 0.918495 -9.30593 -7.89798 1.69063 
-9.30813 -7.38899 2.56669 -9.13897 -7.14897 3.53385 -8.78641 -7.34247 4.45862 
-8.35898 -7.91199 5.17724 -7.95075 -8.69677 5.67071 -7.59519 -9.60999 5.92606 
-7.30102 -10.5748 5.85637 -7.05945 -11.4295 5.37598 -6.83806 -12.0572 4.61209 
-6.60092 -12.5602 3.76355 -6.32481 -13.1131 2.95963 -6.02141 -13.8916 2.3938 
-5.7706 -14.8601 2.2518 -5.60523 -15.8428 2.43379 -5.49692 -16.7687 2.83169 
-5.39442 -17.5935 3.4118 -5.19847 -18.2496 4.1576 -4.7296 -18.5959 4.97931 
-3.94867 -18.5572 5.61793 -3.05728 -18.3447 6.05237 -2.1521 -18.1236 6.45373 
-1.27223 -17.9622 6.93155 -0.446203 -17.8811 7.51442 0.346566 -17.8509 8.1469 
1.16776 -17.8214 8.74162 2.05328 -17.7622 9.2324 2.98643 -17.6813 9.62206 
3.93309 -17.6074 9.9798 4.83463 -17.5871 10.4407 5.29762 -17.7437 11.2717 
4.89837 -18.0411 12.1883 
LINES 1 65
64 0 1 2 3 4 5 6 7 8 9 10 11 12 13 14 15 16 17 18 19 20 21 22 23 24 25 26 27 28 29 30 31 32 33 34 35 36 37 38 39 40 41 42 43 44 45 46 47 48 49 50 51 52 53 54 55 56 57 58 59 60 61 62 63 

POINT_DATA 64
SCALARS MaximumInscribedSphereRadius float
LOOKUP_TABLE default
1.24 0.810558 0.620604 0.758995 1.25613 1.03031 0.686849 0.692884 1.07296 
0.854965 0.859063 1.13817 1.07949 0.93 0.93 0.93 0.93 0.93 
0.93 0.9525 1.23352 1.55 1.56508 1.65618 1.07 1.38631 1.34568 
1.24 1.34259 1.59013 1.77339 1.89764 1.92382 1.82265 1.61687 1.78644 
1.86 1.7622 1.53916 1.32871 1.43015 1.55 1.57444 1.61212 1.15661 
1.27327 1.496 1.42074 1.47982 1.64158 1.90787 2.04313 1.39221 1.24142 
1.3468 1.52395 1.35669 1.62097 1.67252 1.25288 1.26472 1.39398 1.59014 
1.6678 
TEXTURE_COORDINATES TCoords 2 float
0 0 0.015873 0 0.031746 0 0.047619 0 0.0634921 
0 0.0793651 0 0.0952381 0 0.111111 0 0.126984 0 
0.142857 0 0.15873 0 0.174603 0 0.190476 0 0.206349 
0 0.222222 0 0.238095 0 0.253968 0 0.269841 0 
0.285714 0 0.301587 0 0.31746 0 0.333333 0 0.349206 
0 0.365079 0 0.380952 0 0.396825 0 0.412698 0 
0.428571 0 0.444444 0 0.460317 0 0.47619 0 0.492063 
0 0.507937 0 0.52381 0 0.539683 0 0.555556 0 
0.571429 0 0.587302 0 0.603175 0 0.619048 0 0.634921 
0 0.650794 0 0.666667 0 0.68254 0 0.698413 0 
0.714286 0 0.730159 0 0.746032 0 0.761905 0 0.777778 
0 0.793651 0 0.809524 0 0.825397 0 0.84127 0 
0.857143 0 0.873016 0 0.888889 0 0.904762 0 0.920635 
0 0.936508 0 0.952381 0 0.968254 0 0.984127 0 
1 0 
FIELD FieldData 4
Curvature 1 64 float
0.254989 0.234608 0.1444 0.0578239 0.0330987 0.0642131 0.0699787 0.0667428 0.154536 
0.400857 0.400149 0.218626 0.134306 0.110727 0.104833 0.0955877 0.0750777 0.0602085 
0.0511383 0.0527369 0.0807301 0.14604 0.277202 0.516926 0.489565 0.285032 0.220898 
0.215099 0.197011 0.158166 0.125175 0.116032 0.143466 0.223541 0.322441 0.300472 
0.210614 0.179127 0.225382 0.293124 0.246282 0.103313 0.0682671 0.22233 0.323178 
0.231368 0.152993 0.140822 0.186799 0.296947 0.369757 0.214331 0.0519271 0.0711858 
0.0980897 0.0543602 0.0374875 0.0929955 0.082847 0.026748 0.110514 0.426121 0.696674 
0.32669 
Torsion 1 64 float
0.0145489 0.0375966 0.0935983 0.599313 0.801679 0.14072 0.00634543 -0.137281 -0.0631735 
-0.0048033 -0.0366735 -0.0683688 -0.0554443 -0.00814053 0.000196771 -0.0567744 -0.0861595 0.0854591 
0.294166 0.350334 0.219247 0.146407 0.121155 0.11645 0.0904446 0.0209144 -0.102935 
-0.240126 -0.31813 -0.341751 -0.330146 -0.239894 -0.111432 -0.0462693 -0.0431621 -0.0573069 
-0.0400933 0.0354194 0.106726 0.123122 0.115278 0.568446 1.04669 0.0925937 0.0479903 
0.00459431 -0.0950531 -0.206633 -0.247834 -0.221248 -0.160556 -0.0872284 -0.781012 -0.0995393 
-0.0052728 0.346995 1.65884 0.00924655 -0.0659225 -0.756998 -0.173889 -0.0353192 -0.0124871 
-0.00205269 
Abscissas 1 64 double
0 1.040086554 2.0273263519 3.0412148274 4.0562014009 5.0706812466 6.0850131371 7.0994630701 8.1140551599 
9.1275042908 10.127465071 11.13859685 12.152042104 13.165944398 14.179962978 15.194037796 16.208262764 17.222656391 
18.237165064 19.251694747 20.266104004 21.280202121 22.292996069 23.301261759 24.293875302 25.302547714 26.314211137 
27.326358056 28.338641227 29.351576222 30.365231862 31.379155491 32.392989572 33.40618111 34.416934794 35.425369532 
36.437033514 37.449971692 38.462689806 39.473753539 40.483527239 41.496715057 42.511241442 43.525254755 44.534351776 
45.544828017 46.557827293 47.571407773 48.584980421 49.597442963 50.604900412 51.614447243 52.628582431 53.643139385 
54.657305596 55.671522236 56.686128455 57.700486219 58.714643707 59.729113145 60.74380738 61.756533811 62.720611071 
63.763684913 
ParallelTransportNormals 3 64 double
0.66257594999 0 0.74899473329 0.45954004399 0.057664789143 0.8862830925 0.34307775303 0.059608793634 0.93741370115 
0.31583555505 0.056595873611 0.94712449512 0.35768302737 0.063011565678 0.93171476028 0.43514963117 0.073433081075 0.89735855771 
0.50728553855 0.079500894049 0.85810313496 0.53595391359 0.081020429905 0.84035057711 0.4687750062 0.071624283682 0.88040897062 
0.22592469294 -0.051450492547 0.97278511498 0.035802685088 -0.28783548175 0.95701039868 -0.024770810553 -0.44799292316 0.89369387809 
-0.045769776159 -0.56599945424 0.82313409928 -0.048707467872 -0.66436902691 0.74581591473 -0.038468129265 -0.74705147665 0.66365223895 
-0.018151070708 -0.81458129661 0.57976534032 0.0063835388443 -0.86428025735 0.50297006589 0.027162165637 -0.89451434686 0.44621328984 
0.037487308518 -0.90622203795 0.42113693692 0.030302385865 -0.89947610456 0.43591800002 -0.00724677269 -0.86759779525 0.49721378698 
-0.10433560147 -0.78332180445 0.61279770964 -0.33262803459 -0.54160092974 0.77202786447 -0.68441609002 0.092270715644 0.72322937631 
-0.69820733786 0.6527849641 0.29390186116 -0.52725667832 0.84907355057 -0.032779580477 -0.31603270096 0.90631516458 -0.28056399338 
-0.086957979883 0.86739795735 -0.48995825672 0.075988122821 0.76997391665 -0.63353450804 0.13141050487 0.70658990301 -0.69531430891 
0.12714244142 0.71484472272 -0.68762767686 0.10941456219 0.77323703691 -0.62460622662 0.098983526391 0.8605176287 -0.49971158902 
0.12081718389 0.95830389979 -0.25895336207 0.22449184286 0.96744554218 0.11684406448 0.37298486081 0.82227542878 0.4298202099 
0.49024963149 0.63225394147 0.5999252056 0.58504121645 0.42151721028 0.69285641838 0.67738135897 0.15458340068 0.71920683169 
0.76369057031 -0.13855177012 0.6305395466 0.81635878416 -0.3072268156 0.48905011942 0.83134316928 -0.34418070197 0.4363578569 
0.81409019411 -0.3086867277 0.49190411666 0.7531507661 -0.16863937625 0.63586530358 0.67798539968 0.068266435461 0.73189855282 
0.64076632254 0.24271646716 0.72835927705 0.62261241192 0.36931252455 0.68990002445 0.60608037707 0.5066052058 0.6132028555 
0.57004920781 0.68534894905 0.45314536157 0.43254808997 0.89230045386 0.1292364109 0.13288278295 0.96616861627 -0.22104382131 
-0.056547115064 0.93775467022 -0.34266397863 -0.072805784876 0.93383067421 -0.35022791092 -0.002632146108 0.94886703806 -0.31566503747 
0.088380369008 0.96180493869 -0.25907560726 0.13937658531 0.96531145225 -0.2207894192 0.1302552827 0.96497405918 -0.227724892 
0.079696666995 0.96234635263 -0.25988062422 0.034522236459 0.95886642807 -0.28175057819 0.032014549931 0.958659924 -0.2827476237 
0.10609897556 0.9624339062 -0.2499279568 0.34812675461 0.93728732249 -0.017327372022 0.37314190434 0.82243481767 0.4293787255 
0.37314190434 0.82243481767 0.4293787255 
