# vtk DataFile Version 4.2
vtk output
ASCII
DATASET POLYDATA
POINTS 64 float
0 0 0 -0.979908 -0.298802 0.0942659 -1.93328 -0.578876 0.109607 
-2.91708 -0.859721 0.086611 -3.89266 -1.13277 0.0774272 -4.83939 -1.43848 0.264235 
-5.56482 -1.8917 0.803796 -6.08412 -2.54677 1.38062 -6.63936 -3.30411 1.76428 
-7.24749 -4.08434 1.98942 -7.87405 -4.87535 2.09504 -8.46895 -5.69716 2.09887 
-8.95892 -6.57968 1.99688 -9.24429 -7.52919 1.78344 -9.26196 -8.49895 1.48748 
-9.04441 -9.43759 1.17019 -8.65834 -10.3327 0.889168 -8.14966 -11.1916 0.706676 
-7.55613 -12.012 0.769416 -7.05874 -12.6334 1.37695 -6.90709 -12.887 2.35723 
-6.89486 -13.0827 3.34938 -6.87239 -13.4092 4.31055 -6.7726 -13.9522 5.16042 
-6.59808 -14.6957 5.82775 -6.41088 -15.5618 6.32215 -6.27327 -16.4905 6.70668 
-6.21938 -17.4478 7.03835 -6.25184 -18.41 7.35849 -6.34241 -19.3631 7.69437 
-6.44105 -20.3043 8.0601 -6.49051 -21.2363 8.458 -6.44194 -22.1579 8.87953 
-6.26736 -23.0596 9.31038 -5.95909 -23.9267 9.73745 -5.52039 -24.7413 10.1535 
-4.95568 -25.4812 10.5571 -4.27073 -26.1183 10.9497 -3.47881 -26.6225 11.334 
-2.60619 -26.9752 11.7125 -1.68633 -27.179 12.0887 -0.748037 -27.2555 12.467 
0.190652 -27.232 12.8513 1.1211 -27.133 13.2435 2.04032 -26.9766 13.6435 
2.94809 -26.7762 14.0499 3.84526 -26.5436 14.4628 4.73248 -26.2935 14.8867 
5.60903 -26.0442 15.3327 6.47158 -25.8173 15.8163 7.31426 -25.6351 16.3512 
8.13 -25.5233 16.944 8.91009 -25.5168 17.5926 9.63585 -25.6658 18.2856 
10.2637 -26.0247 18.9966 10.7283 -26.6083 19.6833 10.9846 -27.3614 20.3126 
11.0366 -28.197 20.8857 10.916 -29.0431 21.4318 10.6658 -29.8466 21.9996 
10.3525 -30.5539 22.6527 10.1362 -31.1214 23.4744 10.1903 -31.5449 24.3718 
10.5439 -31.9384 25.2541 
LINES 1 65
64 0 1 2 3 4 5 6 7 8 9 10 11 12 13 14 15 16 17 18 19 20 21 22 23 24 25 26 27 28 29 30 31 32 33 34 35 36 37 38 39 40 41 42 43 44 45 46 47 48 49 50 51 52 53 54 55 56 57 58 59 60 61 62 63 

POINT_DATA 64
SCALARS MaximumInscribedSphereRadius float
LOOKUP_TABLE default
0.93 1.03547 1.14506 1.1606 0.877962 1.00001 1.66239 1.64337 1.65331 
1.79956 1.72071 1.48938 1.3795 1.44896 1.49517 1.17244 0.819356 0.865287 
1.17106 1.57292 1.68908 1.20605 1.08738 1.4166 1.64884 1.78914 1.8129 
1.70179 1.57293 1.55 1.55 1.63148 1.76376 1.83497 1.7522 1.69715 
1.74891 1.83805 1.95279 2.08942 2.22472 2.35819 2.42218 2.33818 2.2061 
2.36901 2.63389 2.7291 2.59421 2.43051 2.13311 1.8622 1.7021 1.65192 
1.88203 2.26854 2.19479 1.76684 1.88292 2.44354 2.57351 2.26411 2.1841 
2.17 
TEXTURE_COORDINATES TCoords 2 float
0 0 0.015873 0 0.031746 0 0.047619 0 0.0634921 
0 0.0793651 0 0.0952381 0 0.111111 0 0.126984 0 
0.142857 0 0.15873 0 0.174603 0 0.190476 0 0.206349 
0 0.222222 0 0.238095 0 0.253968 0 0.269841 0 
0.285714 0 0.301587 0 0.31746 0 0.333333 0 0.349206 
0 0.365079 0 0.380952 0 0.396825 0 0.412698 0 
0.428571 0 0.444444 0 0.460317 0 0.47619 0 0.492063 
0 0.507937 0 0.52381 0 0.539683 0 0.555556 0 
0.571429 0 0.587302 0 0.603175 0 0.619048 0 0.634921 
0 0.650794 0 0.666667 0 0.68254 0 0.698413 0 
0.714286 0 0.730159 0 0.746032 0 0.761905 0 0.777778 
0 0.793651 0 0.809524 0 0.825397 0 0.84127 0 
0.857143 0 0.873016 0 0.888889 0 0.904762 0 0.920635 
0 0.936508 0 0.952381 0 0.968254 0 0.984127 0 
1 0 
FIELD FieldData 4
Curvature 1 64 float
0.107944 0.103864 0.116039 0.173599 0.330761 0.49096 0.385593 0.288712 0.209937 
0.134756 0.109772 0.15273 0.227002 0.263068 0.224071 0.163129 0.15657 0.288378 
0.60254 0.639215 0.222178 0.140856 0.233706 0.262002 0.205607 0.135676 0.0998239 
0.0820046 0.0576119 0.0350986 0.0573054 0.0951966 0.119305 0.128027 0.130399 0.135773 
0.146885 0.157715 0.15842 0.144241 0.119659 0.0931073 0.0707365 0.0546795 0.0434595 
0.0336366 0.0235963 0.0234291 0.0424298 0.0656611 0.0879999 0.11595 0.159583 0.215441 
0.256952 0.25376 0.211605 0.164208 0.144732 0.177181 0.254861 0.325418 0.330755 
0.27545 
Torsion 1 64 float
0.00700404 0.0117443 0.0154835 0.0170303 0.0632673 0.439235 0.815151 0.325396 0.0312177 
-0.230457 -0.430554 -0.298648 -0.147165 -0.113585 -0.162495 -0.295524 -0.401542 -0.24266 
-0.154808 -0.205404 -0.546472 -0.698632 -0.0749972 0.0832581 0.256295 0.441038 0.470639 
0.394626 0.546585 1.39446 0.565414 0.180114 0.077599 0.0179598 -0.0313435 -0.0689642 
-0.0834112 -0.0827462 -0.0806802 -0.0823302 -0.0856088 -0.084391 -0.0676871 -0.0344216 -0.025062 
-0.12358 -0.532089 -0.725793 -0.228533 -0.118396 -0.136261 -0.150868 -0.10077 -0.0259695 
0.0494238 0.114538 0.191935 0.31653 0.458018 0.490636 0.507542 0.499275 0.266504 
0.101311 
Abscissas 1 64 double
0 1.0287800329 2.0225581698 3.0459178492 4.0590300621 5.0712816622 6.0826090848 7.098244454 8.112665668 
9.1271946505 10.141802927 11.156343281 12.170894279 13.185075029 14.199145467 15.213564259 16.228081379 17.242856407 
18.257386312 19.258701467 20.282546892 21.293887443 22.309247112 23.32269951 24.336888253 25.351582788 26.366118276 
27.380678762 28.39525866 29.409861124 30.424428056 31.439018455 32.453608815 33.468091164 34.482625971 35.497085717 
36.511600931 37.526089881 38.540506343 39.554964925 40.569461795 41.584033937 42.598615593 43.613186948 44.627793467 
45.642371251 46.657015278 47.671608842 48.68620531 49.700772292 50.715377925 51.729943349 52.744470161 53.758954272 
54.773115635 55.787018786 56.801350465 57.815932154 58.830158531 59.845346416 60.857755128 61.879534281 62.873317809 
63.902069498 
ParallelTransportNormals 3 64 double
0.095756671281 0 0.99540477189 0.022523237365 -0.021920989434 0.99950596497 -0.014076286687 -0.032520815297 0.99937193013 
-0.0013171452354 -0.028914133648 0.99958103123 0.18505376991 0.027199151194 0.98235192697 0.514039771 0.17653572448 0.83940350953 
0.57678683261 0.23236355055 0.78315013254 0.47340301532 0.09646937883 0.8755473968 0.37890984065 -0.028417879699 0.92499716582 
0.30835048367 -0.11821021491 0.94389953084 0.25914906232 -0.18317600794 0.94830813221 0.22624956022 -0.23486109483 0.94533137187 
0.20968414127 -0.27400522566 0.93859133664 0.20731515019 -0.28900967096 0.93460892281 0.20536187848 -0.27035660085 0.94060289562 
0.18853156247 -0.21922664673 0.95728549938 0.14065239914 -0.12536550394 0.98208980905 0.0056518509371 0.080315463407 0.99675347149 
-0.32404612968 0.51591388472 0.79298610921 -0.53212250023 0.79608254117 0.2882676402 -0.54197491243 0.82321468004 0.16905852497 
-0.53996960103 0.79303445887 0.28200917895 -0.52516831338 0.68780686134 0.5011187126 -0.48863642237 0.5164666644 0.70320454442 
-0.45468425132 0.36538614961 0.81225315837 -0.44048952488 0.28694932639 0.85066389517 -0.43896981207 0.27198243809 0.85634750975 
-0.439248252 0.29692152113 0.84787887307 -0.43676176689 0.33563064846 0.83462040881 -0.43378026008 0.36548037487 0.82356467964 
-0.43316653146 0.3732429174 0.82040019541 -0.43317484872 0.35591623656 0.82805989094 -0.42884468872 0.32053666035 0.84459959882 
-0.41719531062 0.27786170202 0.86529818406 -0.39919453944 0.23733577088 0.88561586003 -0.3778297281 0.20423692067 0.9030680909 
-0.35683584623 0.18110383809 0.91644398556 -0.34114673937 0.16897964154 0.9246971304 -0.33520611258 0.16592140703 0.92741951067 
-0.34110902202 0.16775406084 0.92493416532 -0.35652348457 0.17007935399 0.91867514296 -0.37697687813 0.17065689239 0.91036512369 
-0.39805447393 0.16927548339 0.90160881013 -0.41713393854 0.16664102665 0.89343720851 -0.43296117395 0.163550058 0.88645135252 
-0.44665614738 0.16026467691 0.88023492281 -0.46133199064 0.15629468485 0.87335260113 -0.48198064716 0.15044816123 0.86316858524 
-0.51226602951 0.14215542693 0.84698013531 -0.55146906171 0.13275021688 0.82356496641 -0.59441513793 0.125136876 0.79436226374 
-0.6351420675 0.12211782393 0.76268066133 -0.67152556083 0.12556090829 0.73026562254 -0.70655011483 0.13870381184 0.69393673186 
-0.74300191501 0.17015374834 0.64729889249 -0.77469078378 0.22890638084 0.58945403412 -0.79080881114 0.31195689676 0.5265969225 
-0.78681003618 0.40994251795 0.4613860628 -0.76340787162 0.51407157209 0.39107395761 -0.72726581568 0.61094861399 0.31277184081 
-0.70978490135 0.6530127141 0.2641586437 -0.71610134641 0.61358576855 0.33273317583 -0.67631630881 0.53278264904 0.50866383725 
-0.67631630881 0.53278264904 0.50866383725 
