# vtk DataFile Version 4.2
vtk output
ASCII
DATASET POLYDATA
POINTS 64 float
0 0 0 -1.00527 -0.0850277 0.260027 -1.95467 -0.0119449 0.480805 
-2.94632 0.135172 0.704235 -3.91592 0.321727 0.923798 -4.88723 0.503173 1.15682 
-5.85967 0.631882 1.41541 -6.82904 0.635173 1.71401 -7.75772 0.411629 2.05284 
-8.57099 -0.0898939 2.39076 -9.24893 -0.791333 2.66911 -9.84912 -1.58765 2.85565 
-10.4278 -2.41749 2.93035 -11.0133 -3.2435 2.86836 -11.6038 -4.03637 2.64163 
-12.1666 -4.77148 2.22769 -12.641 -5.42941 1.61925 -12.9503 -6.00202 0.841847 
-13.0368 -6.50064 -0.0367344 -12.8976 -6.95473 -0.932781 -12.5717 -7.39864 -1.78455 
-12.104 -7.86006 -2.5574 -11.5271 -8.35934 -3.22572 -10.8597 -8.91372 -3.7519 
-10.1188 -9.52828 -4.06145 -9.35071 -10.1658 -3.89244 -8.97925 -10.4885 -3.01279 
-9.03184 -10.5144 -2.00199 -9.26375 -10.458 -1.01603 -9.59777 -10.3936 -0.0601948 
-9.99172 -10.3687 0.874409 -10.4106 -10.4268 1.79656 -10.8042 -10.6164 2.71196 
-11.0993 -10.9771 3.61253 -11.2327 -11.5013 4.47017 -11.2079 -12.1388 5.25878 
-11.0742 -12.8501 5.96957 -10.8821 -13.6219 6.59941 -10.6735 -14.4525 7.14316 
-10.4817 -15.3404 7.59493 -10.3259 -16.275 7.95746 -10.2017 -17.2385 8.24992 
-10.0832 -18.2137 8.50383 -9.93381 -19.1861 8.75161 -9.71255 -20.1391 9.02 
-9.37828 -21.0461 9.32746 -8.8977 -21.8654 9.68292 -8.26207 -22.5472 10.0822 
-7.49904 -23.0593 10.5111 -6.65709 -23.4065 10.9578 -5.78079 -23.6212 11.4217 
-4.90097 -23.7434 11.9118 -4.03855 -23.8087 12.4422 -3.21017 -23.8457 13.0268 
-2.43041 -23.8767 13.6751 -1.71169 -23.9201 14.3898 -1.06314 -23.9936 15.1664 
-0.48916 -24.1173 15.9937 0.0106237 -24.3167 16.8537 0.438946 -24.6256 17.7202 
0.795913 -25.0769 18.5526 1.07722 -25.717 19.3023 1.26902 -26.4749 19.8899 
1.37744 -27.4166 20.3217 
LINES 1 65
64 0 1 2 3 4 5 6 7 8 9 10 11 12 13 14 15 16 17 18 19 20 21 22 23 24 25 26 27 28 29 30 31 32 33 34 35 36 37 38 39 40 41 42 43 44 45 46 47 48 49 50 51 52 53 54 55 56 57 58 59 60 61 62 63 

POINT_DATA 64
SCALARS MaximumInscribedSphereRadius float
LOOKUP_TABLE default
0.62 0.952803 1.13518 0.898542 0.794575 1.14413 1.53241 1.55 1.55 
1.55 1.55 1.47461 1.31564 1.2861 1.35332 1.31873 1.36454 1.67905 
1.64946 1.33355 1.45609 1.62578 1.6678 1.65015 1.58784 1.85101 2.06518 
1.85906 1.68309 1.68085 1.95795 2.18092 2.16743 2.04252 1.89237 1.86 
1.86 1.86 1.74413 1.64944 1.96086 2.27719 2.04547 1.63265 1.8677 
2.12614 1.82054 1.69679 1.98426 2.16068 2.18926 2.37191 2.62535 2.5095 
2.11723 2.16768 2.4504 2.63397 2.72112 2.38863 2.25845 2.42189 2.20396 
1.86 
TEXTURE_COORDINATES TCoords 2 float
0 0 0.015873 0 0.031746 0 0.047619 0 0.0634921 
0 0.0793651 0 0.0952381 0 0.111111 0 0.126984 0 
0.142857 0 0.15873 0 0.174603 0 0.190476 0 0.206349 
0 0.222222 0 0.238095 0 0.253968 0 0.269841 0 
0.285714 0 0.301587 0 0.31746 0 0.333333 0 0.349206 
0 0.365079 0 0.380952 0 0.396825 0 0.412698 0 
0.428571 0 0.444444 0 0.460317 0 0.47619 0 0.492063 
0 0.507937 0 0.52381 0 0.539683 0 0.555556 0 
0.571429 0 0.587302 0 0.603175 0 0.619048 0 0.634921 
0 0.650794 0 0.666667 0 0.68254 0 0.698413 0 
0.714286 0 0.730159 0 0.746032 0 0.761905 0 0.777778 
0 0.793651 0 0.809524 0 0.825397 0 0.84127 0 
0.857143 0 0.873016 0 0.888889 0 0.904762 0 0.920635 
0 0.936508 0 0.952381 0 0.968254 0 0.984127 0 
1 0 
FIELD FieldData 4
Curvature 1 64 float
0.202225 0.131477 0.0753726 0.0339974 0.0315298 0.0726862 0.135608 0.214278 0.260825 
0.221867 0.146694 0.108144 0.116837 0.144925 0.17177 0.196468 0.215541 0.219747 
0.202777 0.171551 0.14371 0.1342 0.154488 0.228991 0.450418 0.902011 0.495664 
0.218807 0.10724 0.069212 0.0857813 0.130525 0.179034 0.201502 0.178854 0.13678 
0.104961 0.0928816 0.0951188 0.093463 0.0726344 0.0387188 0.0323303 0.0677182 0.112317 
0.15374 0.180922 0.182254 0.157634 0.119465 0.0829128 0.0615611 0.0603813 0.0693962 
0.0784927 0.0848115 0.0892249 0.0963877 0.113875 0.143514 0.178324 0.203388 0.207647 
0.192414 
Torsion 1 64 float
-0.013281 -0.0252068 -0.0708305 -0.430917 -0.415114 -0.0983637 -0.0509022 -0.0620644 -0.103524 
-0.194819 -0.352601 -0.39165 -0.173445 0.0161468 0.108992 0.168423 0.20924 0.223098 
0.216181 0.208267 0.203345 0.177227 0.112175 0.0300133 -0.00709375 0.0401908 0.0884413 
0.145268 0.322713 0.534377 0.403405 0.245381 0.183254 0.116045 -0.000128804 -0.133936 
-0.250969 -0.279559 -0.199051 -0.0908726 0.0597498 0.75694 0.783551 0.164319 0.0211038 
0.00292663 0.00568376 0.0242627 0.0625711 0.134772 0.274871 0.436365 0.375489 0.223738 
0.156641 0.155622 0.193622 0.237289 0.225366 0.165598 0.0938421 0.0405562 0.0209255 
0.0138855 
Abscissas 1 64 double
0 1.0418308538 2.0192991605 3.0463990967 4.0579003443 5.0731169895 6.0875502384 7.1018730402 8.1153937038 
9.128864261 10.143309316 11.15777765 12.17221603 13.186585409 14.200853212 15.214992114 16.228957516 17.242813701 
18.256721732 19.270858809 20.285145473 21.29951668 22.313787712 23.328492121 24.339649008 25.352051362 26.359970915 
27.37246929 28.386905285 29.401467899 30.416012773 31.430506806 32.444817751 33.458827237 34.472793246 35.48715352 
36.501572555 37.516104884 38.53053843 39.545057546 40.559541824 41.574082395 42.588737561 43.603269642 44.617763051 
45.632119996 46.646299695 47.6603511 48.674459465 49.688840454 50.70333615 51.717838344 52.732410139 53.746973986 
54.761508346 55.77602185 56.790480747 57.804965827 58.819433735 59.834175156 60.84609842 61.871236386 62.849231581 
63.89086687 
ParallelTransportNormals 3 64 double
0.25042197085 0 0.96813678606 0.22649498629 -8.4604794518e-05 0.97401232745 0.21989417765 0.00065838161575 0.97552350929 
0.22094303638 0.00047976015909 0.97528659609 0.23296718038 -0.0018001070583 0.97248293172 0.25630094641 -0.0055231203994 0.9665812537 
0.29435028452 -0.008109498076 0.95566319697 0.34326616314 -0.0024308534313 0.939235025 0.37746123335 0.011802618359 0.92595016903 
0.37272404151 0.0079815882551 0.9279079066 0.33714464893 -0.033711472793 0.94084909646 0.28148603665 -0.11048811285 0.95318308215 
0.20611249185 -0.21769427915 0.95400568213 0.11092068185 -0.34873505644 0.93063444099 0.0026418634567 -0.49219095927 0.8704832452 
-0.1031204824 -0.63423837243 0.76622963467 -0.18077923463 -0.75617650446 0.62890059821 -0.21205150812 -0.84081349925 0.49806306567 
-0.20961250346 -0.88492733938 0.41589205621 -0.20283137947 -0.89802050763 0.39040824707 -0.20973034753 -0.89015018905 0.40453160849 
-0.23684001444 -0.86521801489 0.44193279385 -0.29107725868 -0.81929029265 0.49400146341 -0.38512818774 -0.74122464542 0.54978387029 
-0.59558000994 -0.56660293952 0.56942564106 -0.91351277092 -0.29869118971 0.27618470371 -0.96981204461 -0.23720938285 -0.056535889567 
-0.94806042151 -0.239536624 -0.20929319849 -0.92016328656 -0.24549138045 -0.30501394752 -0.89490915712 -0.24858929241 -0.37059541848 
-0.87609497912 -0.24782079665 -0.41357277511 -0.87084712644 -0.24622080933 -0.42544164749 -0.88347074177 -0.25630828565 -0.39215495808 
-0.90123545251 -0.29299481351 -0.31926274194 -0.90589518385 -0.34282527822 -0.24864582138 -0.90171253264 -0.37841920976 -0.20907752189 
-0.89967354968 -0.38770109871 -0.20068722447 -0.90459850747 -0.36800615971 -0.2151116145 -0.91553702793 -0.32105865317 -0.24230825762 
-0.92731917431 -0.25928361893 -0.26990952913 -0.93490918532 -0.20783158708 -0.28766446882 -0.9371320145 -0.1900755186 -0.29266855764 
-0.93352838704 -0.21627423308 -0.28591993056 -0.91961050693 -0.28857251464 -0.26653783848 -0.88502438199 -0.40437033441 -0.23068696524 
-0.81476806137 -0.55320895598 -0.17353056556 -0.69954022934 -0.70816709259 -0.095618180832 -0.55365999548 -0.83269157024 -0.009238953184 
-0.41117962455 -0.90897755133 0.068491806264 -0.29931287914 -0.94556067107 0.12777643646 -0.22648686019 -0.95953190107 0.16733867752 
-0.18927628471 -0.96353654643 0.18913437483 -0.18058071493 -0.96406265533 0.19486867883 -0.192637553 -0.96355284221 0.18562514226 
-0.21891975983 -0.96224792063 0.16171913304 -0.25509925405 -0.95915455284 0.12225757381 -0.29878891251 -0.95210720038 0.064938930892 
-0.34921209978 -0.93693465398 -0.01429557781 -0.40690157433 -0.90534079628 -0.12161065499 -0.46936771474 -0.84484695829 -0.25676363726 
-0.5362934101 -0.7306255405 -0.42258217882 -0.58558761006 -0.58402293651 -0.56214265145 -0.62124606452 -0.38458718385 -0.68274887428 
-0.62124606452 -0.38458718385 -0.68274887428 
