# vtk DataFile Version 4.2
vtk output
ASCII
DATASET POLYDATA
POINTS 64 float
0 0 0 -0.950928 0.385507 -0.208357 -1.89917 0.607094 -0.241124 
-2.91605 0.717751 -0.238358 -3.9267 0.646582 -0.232734 -4.87642 0.297459 -0.267433 
-5.59664 -0.408947 -0.318851 -6.03779 -1.32024 -0.263229 -6.42644 -2.22211 -0.0118281 
-6.95295 -2.98726 0.39412 -7.62856 -3.61844 0.810483 -8.38761 -4.24101 1.06246 
-8.9803 -5.02947 0.874611 -9.07769 -5.87764 0.326321 -8.88461 -6.67872 -0.263878 
-8.57958 -7.43988 -0.861345 -8.23394 -8.12939 -1.52004 -7.87383 -8.69385 -2.28179 
-7.49789 -9.11673 -3.12349 -7.08452 -9.46214 -3.98327 -6.55795 -9.98926 -4.68367 
-6.31014 -10.6674 -4.20875 -6.52123 -10.8356 -3.20986 -6.87864 -10.6557 -2.27845 
-7.29935 -10.1661 -1.49915 -7.69297 -9.48031 -0.863567 -8.01318 -8.73169 -0.258346 
-8.24297 -8.02842 0.435066 -8.35567 -7.49897 1.29152 -8.31513 -7.39961 2.29461 
-8.21131 -7.90932 3.1593 -8.19061 -8.71399 3.77518 -8.25443 -9.58587 4.29003 
-8.35088 -10.4589 4.79796 -8.41728 -11.3165 5.33593 -8.39983 -12.158 5.90207 
-8.27647 -12.9859 6.47515 -8.05785 -13.7999 7.03976 -7.76033 -14.5927 7.59852 
-7.39006 -15.3514 8.16117 -6.94623 -16.0638 8.73094 -6.42806 -16.7212 9.30405 
-5.83685 -17.3138 9.87713 -5.17546 -17.8221 10.4543 -4.448 -18.2108 11.0445 
-3.66613 -18.4361 11.6497 -2.85419 -18.4749 12.2559 -2.03705 -18.349 12.8435 
-1.22499 -18.1088 13.4021 -0.415924 -17.8038 13.9329 0.394462 -17.4681 14.4428 
1.20671 -17.1222 14.9428 2.01754 -16.7809 15.4483 2.82271 -16.4645 15.9783 
3.61704 -16.205 16.5535 4.38923 -16.0503 17.1926 5.11255 -16.0664 17.9028 
5.73485 -16.3225 18.6602 6.18887 -16.8418 19.402 6.43618 -17.5642 20.0683 
6.47678 -18.3947 20.6475 6.30155 -19.2487 21.1776 5.92943 -20.0034 21.6772 
5.23262 -20.5119 22.2659 
LINES 1 65
64 0 1 2 3 4 5 6 7 8 9 10 11 12 13 14 15 16 17 18 19 20 21 22 23 24 25 26 27 28 29 30 31 32 33 34 35 36 37 38 39 40 41 42 43 44 45 46 47 48 49 50 51 52 53 54 55 56 57 58 59 60 61 62 63 

POINT_DATA 64
SCALARS MaximumInscribedSphereRadius float
LOOKUP_TABLE default
0.6944 0.851245 0.93 0.93 1.099 1.26777 1.28589 1.4665 1.40983 
1.31455 1.48966 1.3499 1.08405 1.15942 1.50089 1.55057 1.58218 1.64094 
1.60514 1.57538 1.62358 1.56908 1.55 1.55 1.55 1.63876 1.82647 
2.03273 1.84769 1.27676 1.26767 1.45796 1.54867 1.55 1.55 1.62574 
1.81879 1.86 1.81642 1.64482 1.97955 2.47241 1.89915 1.76851 2.17775 
1.99992 1.76034 1.59184 1.84013 2.08215 1.72337 1.67548 1.86885 1.86998 
1.93673 2.12088 2.182 2.13354 1.92625 2.0001 2.13693 1.9545 1.87165 
1.8848 
TEXTURE_COORDINATES TCoords 2 float
0 0 0.015873 0 0.031746 0 0.047619 0 0.0634921 
0 0.0793651 0 0.0952381 0 0.111111 0 0.126984 0 
0.142857 0 0.15873 0 0.174603 0 0.190476 0 0.206349 
0 0.222222 0 0.238095 0 0.253968 0 0.269841 0 
0.285714 0 0.301587 0 0.31746 0 0.333333 0 0.349206 
0 0.365079 0 0.380952 0 0.396825 0 0.412698 0 
0.428571 0 0.444444 0 0.460317 0 0.47619 0 0.492063 
0 0.507937 0 0.52381 0 0.539683 0 0.555556 0 
0.571429 0 0.587302 0 0.603175 0 0.619048 0 0.634921 
0 0.650794 0 0.666667 0 0.68254 0 0.698413 0 
0.714286 0 0.730159 0 0.746032 0 0.761905 0 0.777778 
0 0.793651 0 0.809524 0 0.825397 0 0.84127 0 
0.857143 0 0.873016 0 0.888889 0 0.904762 0 0.920635 
0 0.936508 0 0.952381 0 0.968254 0 0.984127 0 
1 0 
FIELD FieldData 4
Curvature 1 64 float
0.403394 0.185251 0.118975 0.145183 0.241957 0.346172 0.292873 0.177792 0.206687 
0.166231 0.183911 0.433564 0.535269 0.275928 0.110042 0.0778161 0.128876 0.126312 
0.087695 0.254386 1.14143 0.767808 0.297964 0.275962 0.195064 0.0844283 0.112228 
0.22548 0.394671 0.535406 0.339878 0.143748 0.0385935 0.0386865 0.0727313 0.0839787 
0.0751309 0.0630941 0.0625942 0.0679265 0.0721642 0.0757154 0.085478 0.107521 0.13628 
0.148117 0.129665 0.0922164 0.0540532 0.0289387 0.0115471 0.00886165 0.0282697 0.0572237 
0.0973114 0.150095 0.207886 0.244355 0.234932 0.195181 0.168954 0.20056 0.301072 
0.392703 
Torsion 1 64 float
-0.122633 -0.22107 -0.311541 -0.183434 -0.0227128 0.145945 0.49267 1.07201 0.474069 
0.606823 0.684312 0.327581 0.235755 0.0942814 -0.336826 -0.610138 -0.0262698 0.152381 
0.520375 0.196542 0.0312335 -0.0260192 -0.0548381 -0.107531 -0.271195 -1.27697 -0.483513 
-0.131661 -0.122867 -0.204528 -0.218923 -0.271044 -1.49897 -0.615603 -0.25041 -0.153727 
-0.0182544 0.152451 0.131244 0.0276384 -0.00855051 0.0458548 0.11835 0.108583 0.0509725 
0.00220593 -0.0337453 -0.0764788 -0.140782 -0.177772 -0.0922442 0.0287875 0.0787195 0.0715675 
0.0568827 0.048135 0.0347768 0.00407842 -0.0529036 -0.147205 -0.303651 -0.320412 -0.197547 
-0.0947518 
Abscissas 1 64 double
0 1.0470397743 2.021379292 3.0442660865 4.0574345821 5.0698864524 6.0800202163 7.0940033813 8.10771967 
9.1213574395 10.135356964 11.148887232 12.152997236 13.16763944 14.181219357 15.195800272 16.210083345 17.224261495 
18.238469278 19.253065029 20.27565548 21.139850906 22.174563771 23.188284971 24.200220426 25.214719919 26.22924387 
27.243252058 28.256431386 29.265245281 30.274339719 31.287863792 32.302416598 33.31704845 34.331591357 35.345959109 
36.360383413 37.374866288 38.389391848 39.403936852 40.418400826 41.432861616 42.447318812 43.461680936 44.475891232 
45.489965861 46.503982912 47.518301311 48.532781903 49.54735693 50.561959196 51.576549419 52.591173825 53.605721324 
54.620193851 55.634422217 56.648243783 57.661407179 58.674360706 59.687759804 60.701095536 61.721404122 62.699998709 
63.744356317 
ParallelTransportNormals 3 64 double
-0.21403165932 0 0.97682672405 -0.046837736834 -0.052929356457 0.99749922789 -0.0038427917064 -0.060263752594 0.99817509139 
0.0098163131135 -0.060523933357 0.99811847668 -0.012450868569 -0.065299057966 0.99778805811 -0.0092098639589 -0.063249379153 0.99795525673 
0.059341268252 0.032170483777 0.99771923599 0.14038695619 0.20926162724 0.96772985584 0.21218933786 0.34005286619 0.91615486305 
0.22604212965 0.35614428915 0.90667866465 0.10999698655 0.25473393798 0.96073476246 -0.2071237875 -0.076668559264 0.97530593594 
-0.3747237715 -0.47259931028 0.79764151534 -0.36688491367 -0.6074885613 0.70452331971 -0.34977555528 -0.66115590052 0.66372429226 
-0.31737299269 -0.73339627221 0.60116910385 -0.26272974272 -0.83048519434 0.49118980473 -0.20474589605 -0.90826509723 0.36487481579 
-0.17223575321 -0.93991038661 0.2947936744 -0.26321765182 -0.85548258934 0.44594395063 -0.83658317717 0.074403478712 0.54276395425 
-0.87189019262 0.47860399585 -0.10366150279 -0.78621594925 0.47630915067 -0.39369286777 -0.68557047276 0.38968386929 -0.61493057242 
-0.6267773736 0.30484442048 -0.71709134931 -0.62854537763 0.30839713847 -0.7140181463 -0.66447438725 0.40324563377 -0.62917942396 
-0.7069650835 0.55619439038 -0.43686172964 -0.72232307163 0.69044395201 -0.039198588398 -0.68615534664 0.5876502112 0.42878674134 
-0.6720536569 0.43908946764 0.59627537401 -0.67274717568 0.41209810036 0.61448058822 -0.67140596483 0.42670042698 0.60592142726 
-0.67104101153 0.43057885789 0.60357750785 -0.67181143009 0.40383309418 0.6209575142 -0.66760234381 0.35393040388 0.65501174016 
-0.6569074023 0.30258186991 0.69059168603 -0.64448694547 0.26391549769 0.71762468408 -0.63308431864 0.23742333239 0.73677296824 
-0.62106575401 0.21570557249 0.75349083285 -0.60617717474 0.19450559032 0.77117884318 -0.5890539366 0.17521188783 0.7888702391 
-0.57480478093 0.16268851431 0.80195505555 -0.56933182315 0.1591538112 0.8065552303 -0.57459950058 0.16129667638 0.80238319781 
-0.58523679342 0.16305927176 0.7942981616 -0.59244132249 0.16267418827 0.78901862328 -0.59142612266 0.1629023086 0.78973285311 
-0.58383614772 0.16545487623 0.79483333885 -0.57415426476 0.16928530221 0.80105515834 -0.56842230233 0.17169305972 0.80462263171 
-0.57192451321 0.17021024652 0.80245300371 -0.58657458069 0.16424778958 0.79306552372 -0.61214189576 0.15504232235 0.77539936661 
-0.64794907435 0.145574902 0.74764292611 -0.69195098794 0.14149791713 0.70794220791 -0.73818256411 0.15085280642 0.65751800952 
-0.77807659491 0.17959465051 0.60194897953 -0.80563128417 0.22837508101 0.54662881038 -0.8190436176 0.30071888707 0.4886058774 
-0.80952685237 0.42044553235 0.40974605504 -0.755678788 0.57732742834 0.30926139406 -0.53851929886 0.83815568789 0.086556384061 
-0.53851929886 0.83815568789 0.086556384061 
