# vtk DataFile Version 4.2
vtk output
ASCII
DATASET POLYDATA
POINTS 64 float
0 0 0 -0.762105 -0.0847142 0.702735 -1.63158 -0.266594 1.1159 
-2.60761 -0.559004 1.18744 -3.51232 -0.913625 0.901659 -4.32223 -1.29458 0.423854 
-5.06249 -1.7033 -0.136796 -5.77002 -2.16795 -0.696086 -6.47493 -2.73454 -1.15522 
-7.17803 -3.42708 -1.38407 -7.84652 -4.18887 -1.34004 -8.48203 -4.9544 -1.14137 
-9.11749 -5.71296 -0.917272 -9.77597 -6.4712 -0.773941 -10.4505 -7.22653 -0.825787 
-11.0676 -7.9536 -1.16862 -11.5114 -8.61841 -1.79167 -11.7218 -9.21416 -2.58476 
-11.7251 -9.76722 -3.43506 -11.5781 -10.313 -4.27753 -11.3314 -10.8806 -5.08136 
-11.0218 -11.4933 -5.82835 -10.6771 -12.1738 -6.49746 -10.3248 -12.9479 -7.04694 
-10.01 -13.8729 -7.35718 -9.93762 -14.7866 -7.01136 -10.1784 -15.1765 -6.10715 
-10.5012 -15.1631 -5.14415 -10.8186 -14.9718 -4.19998 -11.1097 -14.6779 -3.27362 
-11.3652 -14.3301 -2.3554 -11.5811 -13.9736 -1.43037 -11.7571 -13.6663 -0.479622 
-11.895 -13.4902 0.509757 -11.9967 -13.5373 1.51742 -12.0636 -13.8397 2.4829 
-12.0965 -14.3394 3.36498 -12.0925 -14.958 4.16899 -12.0437 -15.6403 4.91824 
-11.9378 -16.3514 5.6341 -11.762 -17.0677 6.33081 -11.5068 -17.7715 7.01551 
-11.1666 -18.4489 7.68975 -10.7361 -19.0855 8.35206 -10.2024 -19.6589 8.99655 
-9.54111 -20.1292 9.60526 -8.73237 -20.4305 10.1368 -7.79607 -20.5098 10.5185 
-6.80625 -20.3831 10.6933 -5.81296 -20.2185 10.821 -4.82483 -20.1547 11.0432 
-3.82351 -20.1837 11.1958 -2.81114 -20.2341 11.2628 -1.82123 -20.1585 11.4619 
-0.90913 -19.9272 11.8415 -0.0979928 -19.5933 12.3507 0.627653 -19.2045 12.9436 
1.29827 -18.7988 13.5879 1.94615 -18.4077 14.2636 2.60522 -18.0683 14.9567 
3.30737 -17.8335 15.6476 4.09748 -17.813 16.2973 4.90033 -18.0658 16.8006 
5.70764 -18.6412 17.1133 
LINES 1 65
64 0 1 2 3 4 5 6 7 8 9 10 11 12 13 14 15 16 17 18 19 20 21 22 23 24 25 26 27 28 29 30 31 32 33 34 35 36 37 38 39 40 41 42 43 44 45 46 47 48 49 50 51 52 53 54 55 56 57 58 59 60 61 62 63 

POINT_DATA 64
SCALARS MaximumInscribedSphereRadius float
LOOKUP_TABLE default
0.62 0.62 0.653856 0.811929 1.12189 1.55777 1.50531 1.3144 1.31058 
1.2741 1.32006 1.46765 1.3769 1.22303 1.1319 0.840978 0.708735 0.919441 
1.12716 1.24877 1.25142 1.24006 1.25103 1.37563 1.56531 1.61104 1.71173 
2.07592 2.02916 1.82963 1.4976 1.32851 1.47932 1.68204 1.84496 1.86315 
2.00029 2.10808 1.9619 1.86551 1.86 1.86 1.86 1.86821 1.96999 
2.14128 2.178 2.06088 1.88602 2.28725 2.66231 1.99902 1.7139 2.0981 
2.07494 1.84938 1.90202 1.96427 1.99134 2.09553 1.99529 1.28466 1.4672 
2.17 
TEXTURE_COORDINATES TCoords 2 float
0 0 0.015873 0 0.031746 0 0.047619 0 0.0634921 
0 0.0793651 0 0.0952381 0 0.111111 0 0.126984 0 
0.142857 0 0.15873 0 0.174603 0 0.190476 0 0.206349 
0 0.222222 0 0.238095 0 0.253968 0 0.269841 0 
0.285714 0 0.301587 0 0.31746 0 0.333333 0 0.349206 
0 0.365079 0 0.380952 0 0.396825 0 0.412698 0 
0.428571 0 0.444444 0 0.460317 0 0.47619 0 0.492063 
0 0.507937 0 0.52381 0 0.539683 0 0.555556 0 
0.571429 0 0.587302 0 0.603175 0 0.619048 0 0.634921 
0 0.650794 0 0.666667 0 0.68254 0 0.698413 0 
0.714286 0 0.730159 0 0.746032 0 0.761905 0 0.777778 
0 0.793651 0 0.809524 0 0.825397 0 0.84127 0 
0.857143 0 0.873016 0 0.888889 0 0.904762 0 0.920635 
0 0.936508 0 0.952381 0 0.968254 0 0.984127 0 
1 0 
FIELD FieldData 4
Curvature 1 64 float
0.2394 0.318794 0.36658 0.307021 0.190557 0.0975019 0.0770017 0.145858 0.235349 
0.251257 0.154429 0.0568374 0.0768327 0.174738 0.26645 0.292198 0.262598 0.201956 
0.143867 0.102336 0.0835341 0.0968001 0.156601 0.304237 0.661419 0.764574 0.402863 
0.191753 0.103739 0.058554 0.0467068 0.0783811 0.138259 0.202167 0.228405 0.193222 
0.134104 0.0873588 0.0643651 0.0631294 0.0704778 0.0777875 0.0869876 0.107526 0.14786 
0.204738 0.260651 0.2955 0.0535523 0.15916 0.109022 0.135892 0.159369 0.214025 
0.167534 0.114266 0.0667327 0.0384023 0.055082 0.111495 0.197496 0.294939 0.329761 
0.278503 
Torsion 1 64 float
0.00108071 0.00234267 0.00605969 0.020183 0.0879218 0.432096 0.64686 0.223521 0.107727 
0.0702594 0.0904966 0.559341 0.335092 0.110113 0.151342 0.190034 0.195126 0.205268 
0.241782 0.311721 0.3501 0.242341 0.111038 0.0513717 0.0153737 -0.0279201 -0.0594092 
-0.0887102 -0.153329 -0.395527 -0.659107 -0.366229 -0.158241 -0.0746143 -0.018683 0.0359824 
0.118714 0.268613 0.373179 0.282815 0.144202 0.0767835 0.0578002 0.0406827 0.0152564 
0.00641104 -0.101388 -0.0745791 -2.07132 0.0240666 2.63452 0.106175 0.397072 0.0408033 
0.0496726 0.0944978 0.249306 0.778738 0.526606 0.146946 0.0513871 0.0207801 0.00925751 
0.00427626 
Abscissas 1 64 double
0 1.0401043206 2.0197840604 3.0411831667 4.0540637747 5.0686465709 6.0832230914 7.0977690838 8.1120304925 
9.1251118211 10.139577936 11.154161102 12.168775345 13.183205612 14.197208089 15.210607477 16.224077883 17.238068819 
18.252413928 19.266928987 20.281410733 21.295929488 22.310624634 23.323182669 24.348352402 25.327984063 26.341686687 
27.357437035 28.371732639 29.386256709 30.400836817 31.415423293 32.429982906 33.444329209 34.458205995 35.472145045 
36.486466672 37.500919311 38.515458429 39.530019509 40.544610594 41.559143032 42.573641413 43.588158621 44.602549111 
45.616953186 46.630548886 47.64476877 48.657858796 49.672760493 50.687572896 51.700869452 52.716705042 53.729265045 
54.743919154 55.758176404 56.772699257 57.787314095 58.801847652 59.816713618 60.829377549 61.852512033 62.833219407 
63.872745998 
ParallelTransportNormals 3 64 double
0.67789118419 0 0.73516225583 0.43565618243 -0.039933233266 0.89922690551 0.10929305482 -0.12350075912 0.98630755379 
-0.2087151428 -0.23296655201 0.94982344402 -0.37400233121 -0.30386972348 0.87623367169 -0.44212972583 -0.33857463675 0.83059528104 
-0.43819080806 -0.33619850728 0.83364223708 -0.35774444283 -0.27746277983 0.89164640942 -0.19066670655 -0.12804267929 0.97326834907 
-0.0084850721842 0.065119272305 0.99784141221 0.089520801191 0.17990923913 0.97960129228 0.10567754364 0.19928367822 0.97422701275 
0.054636027468 0.13945122148 0.9887205173 -0.071914413893 -0.0042404738863 0.99740179239 -0.26112729896 -0.22140121965 0.9395711967 
-0.43227894847 -0.445947755 0.78375092378 -0.51844968732 -0.61197501726 0.59724073871 -0.5360729884 -0.70669931719 0.46173783275 
-0.53030992232 -0.75077210873 0.39384340422 -0.52622943954 -0.7623116473 0.376780479 -0.53237702509 -0.74926831207 0.39391839215 
-0.55238821947 -0.70971688366 0.43722900182 -0.59149964195 -0.62808902866 0.50560097473 -0.66902297735 -0.43081473172 0.60564587236 
-0.79175527972 0.1603626706 0.58941275089 -0.72731691353 0.67910094435 0.099156516043 -0.63048665837 0.74386796135 -0.22169129369 
-0.58877823944 0.7305235279 -0.34594155567 -0.56932178028 0.71500997918 -0.4057504654 -0.56358773235 0.70827832917 -0.42510078378 
-0.56795172409 0.71479838948 -0.40803688741 -0.58097271428 0.73685334788 -0.34571353601 -0.60123031974 0.76804920383 -0.22050515443 
-0.62450054001 0.7805732105 -0.026543145559 -0.64283590867 0.74256576886 0.18803742563 -0.65186786483 0.6699833629 0.35523313504 
-0.65372357621 0.59818242964 0.46349030927 -0.65133884313 0.53942498058 0.53364632647 -0.64603088835 0.49161524982 0.58391655007 
-0.63796191009 0.4507288715 0.62437815919 -0.62694846008 0.41444098475 0.65967742008 -0.6126754261 0.3813306774 0.69225409838 
-0.59465101942 0.35059999384 0.72351213496 -0.57015212792 0.31985601873 0.75671571829 -0.53107155216 0.28572316495 0.79769999342 
-0.46466943431 0.25087393967 0.84920232172 -0.35124242966 0.22613007182 0.90856697399 -0.19771264659 0.22991734907 0.95291538028 
-0.16217144508 0.23513741184 0.95833752924 -0.22759719715 0.22759583533 0.94678384629 -0.14016290915 0.22912218489 0.9632535405 
-0.053142312705 0.22569204361 0.97274816682 -0.20857526303 0.22371999608 0.95207443144 -0.41791177855 0.18996150052 0.88840552321 
-0.56734185015 0.14094795726 0.81133032633 -0.66042960965 0.09717250116 0.74457386183 -0.71222166402 0.067701908266 0.69868215443 
-0.73602101926 0.05331936446 0.67485561758 -0.7364969889 0.053053325232 0.6743571235 -0.71071827976 0.0639249619 0.70056628955 
-0.63444137002 0.077034970217 0.76912272192 -0.51670820757 0.059441363467 0.85409563431 -0.37040385594 -0.014964065949 0.92875026796 
-0.37040385594 -0.014964065949 0.92875026796 
