# vtk DataFile Version 4.2
vtk output
ASCII
DATASET POLYDATA
POINTS 64 float
0 0 0 -0.999005 0.306751 -0.00332831 -1.96945 0.20099 -0.0574251 
-2.92564 -0.153582 -0.064377 -3.78797 -0.678833 0.0254972 -4.56972 -1.29652 0.215311 
-5.29361 -1.95998 0.470599 -5.99941 -2.64187 0.727987 -6.73319 -3.32596 0.876848 
-7.48058 -3.99435 0.739329 -8.07678 -4.63451 0.231446 -8.38754 -5.26998 -0.493852 
-8.43285 -5.92462 -1.2665 -8.28466 -6.59053 -2.01741 -8.01453 -7.24869 -2.73909 
-7.67712 -7.88307 -3.44939 -7.21235 -8.52697 -4.1835 -7.56959 -8.63296 -4.66618 
-8.0189 -8.23936 -3.71902 -8.39982 -7.99896 -2.83629 -8.67915 -7.84741 -1.8712 
-8.88602 -7.76465 -0.880981 -9.03407 -7.71118 0.12111 -9.11526 -7.65679 1.13092 
-9.09136 -7.61941 2.14431 -8.90473 -7.69612 3.13763 -8.5321 -8.00984 4.02489 
-8.04199 -8.56854 4.71347 -7.52509 -9.28704 5.208 -7.03161 -10.1019 5.55605 
-6.58704 -10.9815 5.79611 -6.20579 -11.9082 5.95449 -5.89175 -12.8676 6.05429 
-5.63701 -13.8472 6.12383 -5.42169 -14.8353 6.20581 -5.2159 -15.8169 6.35833 
-4.98277 -16.7636 6.63738 -4.68546 -17.6369 7.05843 -4.29376 -18.4087 7.58702 
-3.7834 -19.0606 8.17265 -3.13677 -19.5676 8.76659 -2.3545 -19.8899 9.32475 
-1.47369 -19.9946 9.8153 -0.554728 -19.8976 10.2329 0.361723 -19.6583 10.596 
1.26479 -19.3349 10.9265 2.15662 -18.9662 11.2397 3.04138 -18.5785 11.55 
3.92215 -18.1969 11.8786 4.7993 -17.8546 12.2563 5.66452 -17.5974 12.7189 
6.48952 -17.487 13.2976 7.20315 -17.6063 14.0062 7.68579 -18.0132 14.797 
7.88038 -18.6406 15.5682 7.84431 -19.3726 16.269 7.64976 -20.1461 16.8955 
7.34179 -20.9419 17.4439 6.94658 -21.7546 17.9046 6.48271 -22.5762 18.2773 
5.97219 -23.3955 18.5899 5.45648 -24.2043 18.9166 5.00701 -24.9875 19.3693 
5.13784 -25.3972 20.2936 
LINES 1 65
64 0 1 2 3 4 5 6 7 8 9 10 11 12 13 14 15 16 17 18 19 20 21 22 23 24 25 26 27 28 29 30 31 32 33 34 35 36 37 38 39 40 41 42 43 44 45 46 47 48 49 50 51 52 53 54 55 56 57 58 59 60 61 62 63 

POINT_DATA 64
SCALARS MaximumInscribedSphereRadius float
LOOKUP_TABLE default
0.93 0.93 0.93 0.93 0.790239 0.715426 0.968079 1.17977 1.01335 
0.93 1.15546 1.64295 1.36092 1.0073 0.93 0.950717 1.15933 0.857817 
0.756829 0.914645 0.93 0.93 0.937512 1.09144 1.24 1.24 1.24 
1.24 1.25467 1.36563 1.53377 1.39328 1.30515 1.43902 1.40522 1.09463 
1.19311 1.47928 1.35955 1.17542 0.990343 1.33141 1.81571 1.73319 1.72509 
1.82602 1.60808 1.31849 1.2601 1.2772 1.2772 1.28882 1.31243 1.26701 
1.24 1.26228 1.58191 1.8689 1.8675 1.77023 1.58404 1.25872 1.22507 
1.86 
TEXTURE_COORDINATES TCoords 2 float
0 0 0.015873 0 0.031746 0 0.047619 0 0.0634921 
0 0.0793651 0 0.0952381 0 0.111111 0 0.126984 0 
0.142857 0 0.15873 0 0.174603 0 0.190476 0 0.206349 
0 0.222222 0 0.238095 0 0.253968 0 0.269841 0 
0.285714 0 0.301587 0 0.31746 0 0.333333 0 0.349206 
0 0.365079 0 0.380952 0 0.396825 0 0.412698 0 
0.428571 0 0.444444 0 0.460317 0 0.47619 0 0.492063 
0 0.507937 0 0.52381 0 0.539683 0 0.555556 0 
0.571429 0 0.587302 0 0.603175 0 0.619048 0 0.634921 
0 0.650794 0 0.666667 0 0.68254 0 0.698413 0 
0.714286 0 0.730159 0 0.746032 0 0.761905 0 0.777778 
0 0.793651 0 0.809524 0 0.825397 0 0.84127 0 
0.857143 0 0.873016 0 0.888889 0 0.904762 0 0.920635 
0 0.936508 0 0.952381 0 0.968254 0 0.984127 0 
1 0 
FIELD FieldData 4
Curvature 1 64 float
0.332647 0.299802 0.223168 0.167164 0.125913 0.0769913 0.0470644 0.115265 0.244745 
0.318689 0.292842 0.231355 0.168726 0.106383 0.0632487 0.128192 0.585786 0.789633 
0.199599 0.114941 0.0808097 0.0586719 0.0602792 0.0869741 0.157545 0.248785 0.269593 
0.207192 0.143463 0.105677 0.0877074 0.0751102 0.0566796 0.0388293 0.0567833 0.103974 
0.133448 0.135614 0.136833 0.153799 0.179785 0.193725 0.169981 0.119318 0.0714448 
0.0383671 0.0180535 0.0180708 0.0482296 0.0943244 0.153109 0.228471 0.300817 0.285957 
0.208051 0.140846 0.106713 0.0960328 0.0863243 0.0595143 0.0442996 0.200493 0.687083 
0.677803 
Torsion 1 64 float
-0.0916085 -0.17314 -0.239709 -0.208375 -0.106289 0.0479203 0.368856 0.0669723 -0.129342 
-0.278706 -0.30085 -0.16943 -0.0414017 0.0745905 0.28619 0.114153 0.0420138 0.0504096 
0.0286972 0.00941142 -0.0867569 -0.280157 -0.117517 0.309638 0.297619 0.16034 0.0927023 
0.090221 0.11916 0.142893 0.131993 0.125469 0.269807 0.799058 0.467747 0.193699 
0.184226 0.223162 0.208423 0.121256 0.0226899 -0.039302 -0.0539913 -0.0447643 -0.0261271 
-0.0383455 -0.594124 -0.845136 -0.122036 -0.0384876 -0.0236455 -0.0130768 0.00268988 0.0237468 
0.0276709 -0.0233532 -0.0997528 -0.0900605 -0.00179643 0.130877 0.535276 0.0859125 0.032813 
0.00725836 
Abscissas 1 64 double
0 1.0450446358 2.0227333936 3.0425712074 4.0562668945 5.0705149548 6.0850928591 7.0996746877 8.1138598468 
9.1259113371 10.137447324 11.150586345 12.164288337 13.178813769 14.192207611 15.202558712 16.284009527 16.893792127 
18.013574773 19.004586733 20.020653047 21.035629917 22.050008705 23.064536425 24.078897129 25.092504466 26.104682229 
27.117843117 28.131740667 29.14596877 30.160348832 31.174848566 32.189259678 33.203825708 34.218431651 35.232901948 
36.247031107 37.261097269 38.275253555 39.289355533 40.303231192 41.316821809 42.330442915 43.344489159 44.358879825 
45.373448024 46.388038897 47.402630791 48.417201256 49.43170512 50.445980941 51.45974011 52.472466181 53.484332949 
54.497370502 55.511394568 56.52562004 57.539960308 58.554316403 59.56876552 60.583458032 61.596792493 62.606922777 
63.626383388 
ParallelTransportNormals 3 64 double
-0.0033316065044 0 0.99999445018 -0.056203614812 0.0050294531603 0.99840665977 -0.012924198846 0.015250719296 0.99980017036 
0.070047302433 0.055423165022 0.99600283544 0.15051956877 0.11136422254 0.98231454706 0.20032407591 0.15374229734 0.96759163422 
0.20228439426 0.15558697244 0.96688867914 0.12442926072 0.081712522719 0.98885814084 -0.084611969853 -0.1091622152 0.99041628891 
-0.34606711104 -0.36380464142 0.86480271596 -0.47779946611 -0.54903923656 0.6857576736 -0.50405526859 -0.64414908947 0.57532620029 
-0.50013371924 -0.69452394644 0.51720668084 -0.48965951111 -0.72767152153 0.48034125362 -0.47633415436 -0.75601568037 0.44893882037 
-0.45361858207 -0.79240028554 0.40783816579 -0.44455556202 -0.74773516984 0.49321645153 0.20654575926 -0.86493554117 0.45741158595 
0.25315116116 -0.90017792841 0.3543927014 0.29717897257 -0.92633824556 0.23147810497 0.31871226865 -0.93671480879 0.14487186342 
0.32698005642 -0.93988820863 0.098459118361 0.32940578699 -0.94102951587 0.077170446117 0.33082644426 -0.9433055062 0.026992327733 
0.3141793332 -0.94019313504 -0.13163667958 0.23158210558 -0.88251932168 -0.4093035246 0.091186151544 -0.7405580389 -0.66577689716 
-0.033230766975 -0.58276452595 -0.81196134355 -0.12027989521 -0.45065998473 -0.88455543917 -0.18007120364 -0.34265586918 -0.92204192797 
-0.2214677764 -0.25211048915 -0.94201503453 -0.24798144061 -0.18018699664 -0.95186020578 -0.26102406528 -0.13572440669 -0.9557433352 
-0.2609220791 -0.13615132646 -0.95571046083 -0.2474413596 -0.19920610065 -0.94820340804 -0.21879204292 -0.32506889527 -0.92003274685 
-0.1750071697 -0.47529904116 -0.86224318613 -0.12185652778 -0.60220424874 -0.78898734428 -0.063662749334 -0.69404960287 -0.71710682823 
0.0017934449545 -0.75961204938 -0.65037398317 0.08407561605 -0.80736455204 -0.5840323372 0.18917720946 -0.83434988635 -0.5177569416 
0.2983635636 -0.83481958611 -0.46266126114 0.38298303537 -0.81931600856 -0.42666763732 0.43623208645 -0.80284854636 -0.40636901746 
0.46610175011 -0.79133100909 -0.39565691274 0.48093051638 -0.78501752825 -0.39045271001 0.48459901222 -0.78341904192 -0.38912517539 
0.47611040494 -0.78691458778 -0.39253574848 0.45235266272 -0.79508881103 -0.40399362757 0.40953277366 -0.80440070303 -0.43037473934 
0.34584342202 -0.80402745233 -0.48366536297 0.27833191033 -0.77432195503 -0.56829293295 0.24363008944 -0.72134317164 -0.6483119683 
0.23853582936 -0.67768945261 -0.6955844046 0.24328145751 -0.64670777716 -0.72289915161 0.25390390804 -0.61353492644 -0.74773504634 
0.27235518971 -0.57132817107 -0.77421364724 0.29518040728 -0.52790570508 -0.79635676283 0.31076112414 -0.50166719349 -0.80731502569 
0.30163980945 -0.51613792128 -0.80163275356 0.256915248 -0.58991420221 -0.76550361813 0.17608046679 -0.89045634734 -0.41962264322 
0.17608046679 -0.89045634734 -0.41962264322 
