# vtk DataFile Version 4.2
vtk output
ASCII
DATASET POLYDATA
POINTS 64 float
0 0 0 -0.982182 0.359632 0.00483245 -1.95843 0.437442 -0.014829 
-2.96679 0.313134 -0.0422093 -3.93763 0.0192569 -0.0656175 -4.86279 -0.396232 -0.0805705 
-5.74407 -0.898445 -0.0972039 -6.57805 -1.47005 -0.174741 -7.29246 -2.1091 -0.494656 
-7.69533 -2.75319 -1.16191 -7.82966 -3.3704 -1.95537 -7.83523 -4.00362 -2.74786 
-7.77611 -4.68286 -3.49903 -7.68671 -5.43004 -4.17925 -7.60057 -6.27224 -4.73558 
-7.58781 -7.24666 -5.00369 -7.78835 -8.12662 -4.58361 -8.09747 -8.54496 -3.71263 
-8.38391 -8.71412 -2.75491 -8.614 -8.78034 -1.76919 -8.76002 -8.82082 -0.766156 
-8.78458 -8.90388 0.244257 -8.64692 -9.11018 1.22679 -8.35191 -9.50852 2.11023 
-7.99135 -10.0997 2.85044 -7.66822 -10.8382 3.46555 -7.43658 -11.6721 3.99433 
-7.29726 -12.5567 4.47087 -7.21926 -13.4631 4.92004 -7.15834 -14.3761 5.35833 
-7.06389 -15.2868 5.79538 -6.87971 -16.1821 6.23501 -6.55247 -17.0355 6.67418 
-6.0551 -17.8083 7.10219 -5.40252 -18.4706 7.50659 -4.63282 -19.015 7.88029 
-3.78196 -19.4486 8.22205 -2.87541 -19.7793 8.53461 -1.9312 -20.0103 8.82458 
-0.964956 -20.1404 9.10464 0.00609741 -20.1702 9.3965 0.962632 -20.1117 9.72915 
1.88684 -19.9954 10.1309 2.76592 -19.8674 10.6205 3.59305 -19.7796 11.201 
4.36709 -19.7821 11.8564 5.08838 -19.9189 12.5559 5.74836 -20.2296 13.26 
6.31903 -20.7394 13.9244 6.75655 -21.4374 14.5146 7.02835 -22.2719 15.0219 
7.13683 -23.1802 15.4594 7.1125 -24.1195 15.8414 6.99418 -25.0707 16.1734 
6.82051 -26.0314 16.4495 6.63016 -27.0072 16.6509 6.46465 -28.0035 16.7446 
6.3677 -29.011 16.6858 6.36906 -29.9936 16.4375 6.45393 -30.9075 16.007 
6.56306 -31.7469 15.4471 6.62925 -32.5423 14.8162 6.60274 -33.2966 14.1929 
6.4004 -34.1191 13.5778 
LINES 1 65
64 0 1 2 3 4 5 6 7 8 9 10 11 12 13 14 15 16 17 18 19 20 21 22 23 24 25 26 27 28 29 30 31 32 33 34 35 36 37 38 39 40 41 42 43 44 45 46 47 48 49 50 51 52 53 54 55 56 57 58 59 60 61 62 63 

POINT_DATA 64
SCALARS MaximumInscribedSphereRadius float
LOOKUP_TABLE default
1.24 1.24 1.26805 1.35368 1.51077 1.73228 1.47119 1.38621 1.55 
1.55 1.55 1.55 1.59292 2.03752 2.42882 2.48 2.30785 2.67078 
2.99759 2.63654 2.37712 2.27085 2.57243 2.55917 2.38727 2.90261 2.84579 
2.49336 2.2867 2.17254 2.17 2.2977 2.41121 2.10261 2.00875 2.38918 
2.23676 1.93429 1.98179 2.0131 1.83908 2.00891 2.41509 2.48797 2.417 
2.22457 2.17 2.28446 2.6514 2.73307 2.59371 2.34365 2.04648 1.71325 
2.03157 2.71357 2.96681 3.16505 3.35216 2.80928 2.12888 1.71325 1.55 
1.55 
TEXTURE_COORDINATES TCoords 2 float
0 0 0.015873 0 0.031746 0 0.047619 0 0.0634921 
0 0.0793651 0 0.0952381 0 0.111111 0 0.126984 0 
0.142857 0 0.15873 0 0.174603 0 0.190476 0 0.206349 
0 0.222222 0 0.238095 0 0.253968 0 0.269841 0 
0.285714 0 0.301587 0 0.31746 0 0.333333 0 0.349206 
0 0.365079 0 0.380952 0 0.396825 0 0.412698 0 
0.428571 0 0.444444 0 0.460317 0 0.47619 0 0.492063 
0 0.507937 0 0.52381 0 0.539683 0 0.555556 0 
0.571429 0 0.587302 0 0.603175 0 0.619048 0 0.634921 
0 0.650794 0 0.666667 0 0.68254 0 0.698413 0 
0.714286 0 0.730159 0 0.746032 0 0.761905 0 0.777778 
0 0.793651 0 0.809524 0 0.825397 0 0.84127 0 
0.857143 0 0.873016 0 0.888889 0 0.904762 0 0.920635 
0 0.936508 0 0.952381 0 0.968254 0 0.984127 0 
1 0 
FIELD FieldData 4
Curvature 1 64 float
0.194194 0.18395 0.155252 0.120801 0.0927709 0.0821995 0.122169 0.238897 0.361895 
0.261763 0.143709 0.0862513 0.0741366 0.123982 0.271922 0.591258 0.505618 0.220613 
0.0964144 0.0677051 0.101839 0.158988 0.196909 0.178778 0.144663 0.120189 0.0915669 
0.0562885 0.0203241 0.0245849 0.0661092 0.106774 0.133583 0.136524 0.120221 0.100054 
0.0848094 0.0764451 0.0735121 0.0726298 0.0710556 0.0691233 0.0716184 0.0799677 0.0915039 
0.106601 0.130207 0.156554 0.172205 0.164037 0.138893 0.106977 0.0771857 0.0552889 
0.0574105 0.0839865 0.123594 0.154921 0.153023 0.10865 0.0692824 0.0760903 0.117415 
0.157546 
Torsion 1 64 float
-0.0176542 -0.028501 -0.0402888 -0.0388711 -0.0117733 0.105173 0.186577 0.0856424 -0.0823402 
-0.133353 -0.158206 -0.231838 -0.249462 -0.130253 -0.0682514 -0.0313636 0.0325757 0.104097 
0.308092 0.489303 0.242955 0.15327 0.176057 0.263692 0.285275 0.201348 0.108318 
0.0347538 -0.357547 -0.664052 -0.0216314 -0.0117405 -0.013154 -0.0110291 -0.00802466 -0.0112547 
-0.0339204 -0.0758249 -0.137038 -0.210171 -0.284154 -0.349817 -0.357876 -0.30934 -0.258413 
-0.197684 -0.112394 -0.0200749 0.0570491 0.0974065 0.0766988 0.0117188 -0.10099 -0.317386 
-0.364573 -0.185365 -0.063474 0.00986404 0.0975573 0.273369 0.620849 0.488664 0.189878 
0.0768301 
Abscissas 1 64 double
0 1.0459636942 2.0255050051 3.0418670781 4.0564812729 5.070767211 6.0852369794 7.0992719982 8.1097728994 
9.1209030636 10.135088042 11.14950376 12.163958482 13.178339631 14.191367099 15.202079798 16.197576149 17.212056123 
18.2259055 19.240287377 20.254702234 21.268820902 22.282172212 23.295173907 24.308785108 25.322764898 26.336991333 
27.351396196 28.365989671 29.380571624 30.395120661 31.409398083 32.423422995 33.437222895 34.451146495 35.46527692 
36.479561288 37.493902955 38.508287493 39.522677518 40.537081187 41.551495723 42.565936329 43.580270104 44.59458455 
45.608829486 46.62286747 47.636705228 48.650109067 49.663500959 50.677215966 51.691209936 52.70550665 53.719906211 
54.734469173 55.748855782 56.763146868 57.777006995 58.79049605 59.804272938 60.81915821 61.836545739 62.815409161 
63.862210345 
ParallelTransportNormals 3 64 double
0.0049200567894 0 0.99998789645 -0.019706407847 0.0053849793517 0.99979130797 -0.027784827631 0.0052108335041 0.99960034542 
-0.025806773105 0.0056289292758 0.99965110194 -0.019711154524 0.0079096049982 0.99977442883 -0.022553517174 0.0064656525904 0.99972472921 
-0.074725435881 -0.026196596761 0.99685999396 -0.26662945843 -0.17627733567 0.94754157314 -0.50410557503 -0.44898274558 0.73776152204 
-0.56845760451 -0.59996685369 0.56293492195 -0.57276154667 -0.63843160017 0.51414910538 -0.57311537085 -0.62975947003 0.52434891208 
-0.57764716713 -0.5862353162 0.56802456316 -0.58864904376 -0.48661652036 0.64552046086 -0.60320910644 -0.21892371325 0.7669492693 
-0.5338107898 0.46028799507 0.70935252328 -0.36911155866 0.88209765086 0.2926779657 -0.29933864717 0.9509179777 0.07843069548 
-0.27837181464 0.96047328252 -0.00045428425555 -0.2781314763 0.96054146494 -0.0017251144236 -0.284349623 0.95603737116 0.07167870561 
-0.27511447052 0.93241877192 0.23432298623 -0.2224325695 0.85879848811 0.46150721429 -0.14262936413 0.73834664283 0.65916697392 
-0.080221682361 0.61697618765 0.78288240851 -0.047903249368 0.52537766276 0.84951962318 -0.035858163593 0.46957929739 0.88216181938 
-0.032456490674 0.44154583649 0.89665146545 -0.03163890175 0.43083806196 0.90187446148 -0.031549192244 0.4297850762 0.90237987386 
-0.032379024304 0.4351635787 0.89976900289 -0.035676066403 0.44643673858 0.89410371699 -0.043742024101 0.46234302402 0.88562156899 
-0.056943029139 0.47881766569 0.87606571355 -0.072881922782 0.4923408878 0.86734576469 -0.089449441804 0.50233943363 0.86003133128 
-0.10796030603 0.51038988495 0.85313934246 -0.13280733334 0.51793089876 0.84505017385 -0.17092857894 0.52513628716 0.83367577679 
-0.22914102904 0.529941047 0.81649058508 -0.30746223941 0.52877494106 0.79111568879 -0.39462172825 0.52067415852 0.75708131152 
-0.4740372695 0.50991527866 0.71782663346 -0.53174136552 0.50261694684 0.68163577147 -0.55822814219 0.50120597641 0.6611912813 
-0.55186396506 0.50061305278 0.66695782135 -0.51788658275 0.48960467849 0.70148467283 -0.46994472396 0.45763863242 0.75479721684 
-0.43032597892 0.41017574026 0.80409913193 -0.41237420648 0.37139259411 0.83187442254 -0.40899122957 0.35588962689 0.84027897011 
-0.40885346587 0.35286561557 0.84162028302 -0.40939924278 0.34563233521 0.84435214743 -0.41335201662 0.31974987613 0.8525843812 
-0.42426667853 0.26168669623 0.86690129686 -0.44322216009 0.15663904061 0.88262014919 -0.46464999468 -0.0069651559384 0.88546703442 
-0.47470066622 -0.21625008272 0.85316773217 -0.46579591579 -0.41212511682 0.78306261111 -0.4522157146 -0.53486929774 0.71373369109 
-0.44755843078 -0.57828526138 0.68211260618 -0.44800371308 -0.56008305517 0.69684980044 -0.43499131551 -0.46818849476 0.76914373741 
-0.43499131551 -0.46818849476 0.76914373741 
