# vtk DataFile Version 4.2
vtk output
ASCII
DATASET POLYDATA
POINTS 64 float
0 0 0 -0.703398 0.118174 0.592277 -1.63138 0.181402 1.26613 
-2.47567 0.0912373 1.70678 -3.4197 -0.127293 2.06001 -4.35 -0.493851 2.22743 
-5.24206 -0.977926 2.22677 -6.07579 -1.54099 2.08864 -6.85037 -2.15107 1.84831 
-7.57777 -2.78639 1.53679 -8.26902 -3.43384 1.17272 -8.93219 -4.08414 0.764214 
-9.5703 -4.72846 0.308969 -10.1805 -5.3548 -0.206203 -10.7521 -5.94222 -0.804601 
-11.269 -6.4622 -1.50673 -11.7214 -6.89559 -2.305 -12.1196 -7.25849 -3.16517 
-12.4813 -7.5884 -4.0539 -12.8179 -7.92494 -4.94994 -13.1277 -8.298 -5.84127 
-13.3979 -8.72701 -6.72032 -13.607 -9.22286 -7.58078 -13.7272 -9.78755 -8.41556 
-13.7281 -10.4132 -9.21491 -13.5826 -11.0821 -9.96487 -13.2761 -11.7681 -10.6477 
-12.8164 -12.4464 -11.247 -12.229 -13.1021 -11.7527 -11.547 -13.7341 -12.1597 
-10.8009 -14.3507 -12.4651 -10.0167 -14.9639 -12.6631 -9.21702 -15.5839 -12.7425 
-8.42505 -16.2164 -12.6855 -7.66922 -16.8578 -12.4657 -6.98985 -17.49 -12.0515 
-6.44746 -18.0725 -11.4193 -6.10218 -18.5579 -10.5968 -5.97568 -18.9257 -9.65747 
-6.04227 -19.1947 -8.68052 -6.25853 -19.4035 -7.71107 -6.58502 -19.5924 -6.7689 
-6.98896 -19.7984 -5.86103 -7.4416 -20.0551 -4.98984 -7.91471 -20.3922 -4.1577 
-8.37817 -20.8314 -3.3687 -8.80164 -21.3805 -2.62761 -9.16185 -22.0306 -1.93642 
-9.44694 -22.7611 -1.29199 -9.65622 -23.5479 -0.686228 -9.79591 -24.3706 -0.108822 
-9.87458 -25.2139 0.449932 -9.89841 -26.0677 0.997729 -9.86939 -26.9246 1.54036 
-9.78562 -27.778 2.08279 -9.64189 -28.62 2.63057 -9.43132 -29.4393 3.1909 
-9.14588 -30.218 3.77639 -8.78211 -30.9305 4.40036 -8.34145 -31.5397 5.07967 
-7.82328 -31.9944 5.84562 -7.30641 -32.2742 6.60392 -6.6825 -32.3149 7.56487 
-6.19362 -32.2171 8.34761 
LINES 1 65
64 0 1 2 3 4 5 6 7 8 9 10 11 12 13 14 15 16 17 18 19 20 21 22 23 24 25 26 27 28 29 30 31 32 33 34 35 36 37 38 39 40 41 42 43 44 45 46 47 48 49 50 51 52 53 54 55 56 57 58 59 60 61 62 63 

POINT_DATA 64
SCALARS MaximumInscribedSphereRadius float
LOOKUP_TABLE default
1.24 1.14245 1.03416 1.04922 1.23125 1.51578 1.49962 1.43519 1.4246 
1.49964 1.57112 1.47518 1.36402 1.25923 1.18708 1.25192 1.45566 1.66368 
1.83442 1.93887 1.89583 1.76853 1.55588 1.34129 1.24 1.24 1.24972 
1.26373 1.3443 1.59651 1.87163 2.0304 2.14101 2.16777 1.95437 1.66548 
1.67706 1.76661 1.77097 1.63024 1.56805 1.55 1.588 1.68394 1.81521 
1.85088 1.86 1.86 1.85695 1.83243 1.61221 1.39258 1.30772 1.43969 
1.531 1.39035 1.24764 1.2329 1.42298 1.45069 1.3415 1.32494 1.44038 
1.581 
TEXTURE_COORDINATES TCoords 2 float
0 0 0.015873 0 0.031746 0 0.047619 0 0.0634921 
0 0.0793651 0 0.0952381 0 0.111111 0 0.126984 0 
0.142857 0 0.15873 0 0.174603 0 0.190476 0 0.206349 
0 0.222222 0 0.238095 0 0.253968 0 0.269841 0 
0.285714 0 0.301587 0 0.31746 0 0.333333 0 0.349206 
0 0.365079 0 0.380952 0 0.396825 0 0.412698 0 
0.428571 0 0.444444 0 0.460317 0 0.47619 0 0.492063 
0 0.507937 0 0.52381 0 0.539683 0 0.555556 0 
0.571429 0 0.587302 0 0.603175 0 0.619048 0 0.634921 
0 0.650794 0 0.666667 0 0.68254 0 0.698413 0 
0.714286 0 0.730159 0 0.746032 0 0.761905 0 0.777778 
0 0.793651 0 0.809524 0 0.825397 0 0.84127 0 
0.857143 0 0.873016 0 0.888889 0 0.904762 0 0.920635 
0 0.936508 0 0.952381 0 0.968254 0 0.984127 0 
1 0 
FIELD FieldData 4
Curvature 1 64 float
0.179839 0.211723 0.245379 0.271931 0.281462 0.260672 0.211811 0.160712 0.114999 
0.081316 0.0684175 0.0836512 0.113141 0.14938 0.181311 0.180591 0.141927 0.101346 
0.074785 0.0719901 0.0900299 0.114865 0.142708 0.171287 0.198245 0.215848 0.214877 
0.199599 0.175872 0.151845 0.142552 0.15022 0.173908 0.212919 0.266887 0.328259 
0.354415 0.33507 0.276037 0.205165 0.148604 0.113108 0.102471 0.11516 0.139507 
0.155586 0.158162 0.148275 0.129074 0.10629 0.0858877 0.0722052 0.0665257 0.0689436 
0.07974 0.0962413 0.118035 0.145853 0.180595 0.22106 0.250945 0.261581 0.251446 
0.225095 
Torsion 1 64 float
-0.00189937 -0.00268501 -0.00386083 -0.00552897 -0.00781852 -0.010939 -0.016814 -0.0302126 -0.0613394 
-0.112557 -0.172 -0.135021 -0.094546 -0.0675899 -0.0558054 -0.0342135 0.0544957 0.224529 
0.314472 0.171724 -0.0567089 -0.147241 -0.171983 -0.159137 -0.125748 -0.0779889 -0.0116389 
0.0647153 0.148116 0.237175 0.258493 0.20929 0.130658 0.0540927 0.00602936 0.00512709 
0.039349 0.0866849 0.140629 0.2207 0.383395 0.564792 0.609891 0.461376 0.300265 
0.220492 0.172925 0.15264 0.154761 0.154562 0.169262 0.179715 0.179608 0.168125 
0.163709 0.176741 0.193821 0.203098 0.192161 0.145148 0.104974 0.0731024 0.0496694 
0.0334903 
Abscissas 1 64 double
0 0.92710617479 2.0756818841 3.0323050697 4.0636727079 5.0775032455 6.0924419598 7.1079350487 8.1227899326 
9.1375743114 10.152249049 11.166922006 12.181604643 13.196517651 14.211342237 15.226502266 16.241257267 17.256221355 
18.270868133 19.285484767 20.30018611 21.314970011 22.329850284 23.344827844 24.359913712 25.375314245 26.390594683 
27.405767178 28.421008106 29.435994619 30.450947388 31.465929146 32.480913443 33.496059622 34.511433401 35.527692295 
36.544142342 37.5596902 38.57636123 39.591854466 40.606841579 41.621712732 42.636518837 43.651284493 44.666137813 
45.681131582 46.696046702 47.71099676 48.725983682 49.740773142 50.755537604 51.770204918 52.78490858 53.799585948 
54.814247432 55.828982347 56.843655368 57.858863854 58.873419214 59.886714621 60.917215594 61.876622452 63.023071204 
63.95110744 
ParallelTransportNormals 3 64 double
0.64409873986 0 0.76494235947 0.5878563575 0.0065522532831 0.80893879306 0.46238164334 0.0036424194644 0.88667352993 
0.35343054454 -0.014909294175 0.93534194984 0.20065021492 -0.06270746486 0.9776539598 0.067116097817 -0.12503249238 0.98987994487 
-0.035952277569 -0.18756831315 0.98159337897 -0.10931833637 -0.24108476959 0.96432755597 -0.15880010368 -0.28211374111 0.94614711549 
-0.19468727083 -0.31456364806 0.92905682167 -0.2248686404 -0.34348220677 0.91184103231 -0.2566825325 -0.37513326651 0.89072392461 
-0.29750629778 -0.41668792032 0.85898846316 -0.35455364908 -0.47527805646 0.80523442485 -0.42616627412 -0.54813423887 0.71967434509 
-0.49433887294 -0.61518608189 0.61414588116 -0.53913074019 -0.65711812208 0.52681478587 -0.55995965362 -0.67610809432 0.47887684337 
-0.56439437257 -0.68034054895 0.46754222233 -0.56064961604 -0.67622966919 0.47789689531 -0.55458730246 -0.66784627065 0.49640133233 
-0.54992782033 -0.65885540213 0.51331174886 -0.54838081331 -0.65387320605 0.52127566028 -0.54879955027 -0.65798892851 0.51562546832 
-0.54693518936 -0.6746824 0.49564660573 -0.5373828652 -0.70331555259 0.4653674781 -0.51908125982 -0.73590312901 0.4347427175 
-0.49749841293 -0.7633997037 0.41196628687 -0.48233753557 -0.77877897724 0.40106583798 -0.48083351297 -0.78009395611 0.40031556608 
-0.49724081774 -0.76690850387 0.40571284902 -0.53244590155 -0.73949803052 0.41187865298 -0.58638993479 -0.69704846549 0.41263819642 
-0.65787234074 -0.63821589173 0.39985554745 -0.74370107648 -0.56205279773 0.36194662785 -0.83561091484 -0.47067460888 0.28323102151 
-0.91153273144 -0.37933255333 0.15879198186 -0.95186605531 -0.30640421134 0.0082141351442 -0.9563765667 -0.25837512751 -0.13633105354 
-0.93861096517 -0.22836976423 -0.25856663909 -0.91060028303 -0.20784526568 -0.35722187795 -0.87992879266 -0.1912629893 -0.43490664375 
-0.85139481429 -0.17584973436 -0.4941697493 -0.82848740362 -0.1611564146 -0.53631821904 -0.8140813405 -0.1492156934 -0.56125417405 
-0.80944260731 -0.14404674907 -0.56925670796 -0.81259368037 -0.14886855803 -0.56349770457 -0.8197354065 -0.16414799771 -0.54871604513 
-0.82735943575 -0.18754776 -0.52943573907 -0.83344083281 -0.21559614307 -0.50881694282 -0.83736053687 -0.2455023585 -0.48842187018 
-0.83925316159 -0.27683838666 -0.46798999821 -0.839149525 -0.31098845179 -0.44622220647 -0.83657629142 -0.35000770482 -0.42146733587 
-0.83033926468 -0.39648841603 -0.39157839762 -0.81838096606 -0.45256019783 -0.35417772618 -0.79702561029 -0.52136415128 -0.30484356367 
-0.76266367834 -0.60028742145 -0.24083007577 -0.70995780022 -0.6868751839 -0.15544260566 -0.62979878184 -0.77598748942 -0.034596396569 
-0.55623894565 -0.82774637721 0.073716825524 -0.43971830325 -0.8629450903 0.24894494355 -0.37910931688 -0.85899022495 0.34411033013 
-0.37910931688 -0.85899022495 0.34411033013 
