# vtk DataFile Version 4.2
vtk output
ASCII
DATASET POLYDATA
POINTS 64 float
0 0 0 -0.892234 0.046237 0.521421 -1.80946 0.167131 0.888714 
-2.74761 0.291553 1.24932 -3.67387 0.368082 1.65591 -4.56303 0.323836 2.14059 
-5.36304 0.0519096 2.69776 -5.9958 -0.501383 3.2611 -6.46128 -1.24478 3.76935 
-6.84592 -2.06862 4.21934 -7.24645 -2.91777 4.60322 -7.74495 -3.7729 4.81586 
-8.25721 -4.61126 4.5984 -8.47606 -5.39003 3.99324 -8.368 -6.115 3.29457 
-8.03825 -6.77837 2.60259 -7.56154 -7.37014 1.93131 -6.97605 -7.88528 1.28829 
-6.27925 -8.41685 1.29765 -6.50741 -8.42853 2.33317 -6.81167 -8.35731 3.29586 
-7.15391 -8.19375 4.23551 -7.4909 -7.90783 5.14818 -7.72886 -7.49841 6.04449 
-7.70004 -7.11775 6.98001 -7.41504 -7.11056 7.94726 -7.16809 -7.5096 8.843 
-7.10779 -8.16997 9.60706 -7.25091 -9.00374 10.1616 -7.53169 -9.94345 10.408 
-7.80835 -10.9127 10.3173 -7.94489 -11.8676 10.0067 -7.87169 -12.8212 9.67235 
-7.575 -13.7744 9.50744 -7.10797 -14.6684 9.59699 -6.53618 -15.459 9.87152 
-5.87538 -16.1293 10.2483 -5.11951 -16.6421 10.6873 -4.28482 -16.9481 11.1733 
-3.41914 -17.0449 11.6918 -2.55661 -16.9887 12.2224 -1.69918 -16.8428 12.7447 
-0.837439 -16.6465 13.2428 0.0295855 -16.4163 13.7168 0.890087 -16.1622 14.1905 
1.73545 -15.9113 14.6922 2.56995 -15.7113 15.2332 3.39975 -15.6238 15.8094 
4.20889 -15.7276 16.4102 4.92889 -16.1047 17.0127 5.45808 -16.7552 17.579 
5.75607 -17.5752 18.0936 5.84118 -18.4664 18.5687 5.73232 -19.372 19.0109 
5.43794 -20.2607 19.3996 4.96631 -21.1131 19.6784 4.35238 -21.9132 19.774 
3.67618 -22.66 19.6623 3.01883 -23.3865 19.4 2.42442 -24.1372 19.0651 
1.90942 -24.9376 18.7138 1.47512 -25.7878 18.3767 1.11709 -26.6629 18.0687 
0.805767 -27.6072 17.7762 
LINES 1 65
64 0 1 2 3 4 5 6 7 8 9 10 11 12 13 14 15 16 17 18 19 20 21 22 23 24 25 26 27 28 29 30 31 32 33 34 35 36 37 38 39 40 41 42 43 44 45 46 47 48 49 50 51 52 53 54 55 56 57 58 59 60 61 62 63 

POINT_DATA 64
SCALARS MaximumInscribedSphereRadius float
LOOKUP_TABLE default
1.24 1.24 1.25933 1.19833 0.988548 0.93 0.93 0.973047 1.19189 
1.40805 1.46317 1.3539 1.68905 1.84765 1.42044 1.12531 0.999835 1.26369 
1.74063 1.60583 1.55 1.55 1.55 1.34759 1.44548 1.56493 1.65289 
1.84346 1.86 1.86 1.86 1.82929 1.6228 1.55 1.55 1.56137 
1.74531 1.75619 1.62065 1.79297 2.01435 2.0637 1.71117 1.39623 1.56742 
2.11398 1.93239 2.00912 2.16029 2.17274 2.18884 1.94016 1.70674 1.85608 
1.87064 1.95304 2.1855 2.39785 2.35692 2.29791 2.5119 3.22302 3.35981 
2.48 
TEXTURE_COORDINATES TCoords 2 float
0 0 0.015873 0 0.031746 0 0.047619 0 0.0634921 
0 0.0793651 0 0.0952381 0 0.111111 0 0.126984 0 
0.142857 0 0.15873 0 0.174603 0 0.190476 0 0.206349 
0 0.222222 0 0.238095 0 0.253968 0 0.269841 0 
0.285714 0 0.301587 0 0.31746 0 0.333333 0 0.349206 
0 0.365079 0 0.380952 0 0.396825 0 0.412698 0 
0.428571 0 0.444444 0 0.460317 0 0.47619 0 0.492063 
0 0.507937 0 0.52381 0 0.539683 0 0.555556 0 
0.571429 0 0.587302 0 0.603175 0 0.619048 0 0.634921 
0 0.650794 0 0.666667 0 0.68254 0 0.698413 0 
0.714286 0 0.730159 0 0.746032 0 0.761905 0 0.777778 
0 0.793651 0 0.809524 0 0.825397 0 0.84127 0 
0.857143 0 0.873016 0 0.888889 0 0.904762 0 0.920635 
0 0.936508 0 0.952381 0 0.968254 0 0.984127 0 
1 0 
FIELD FieldData 4
Curvature 1 64 float
0.272253 0.117614 0.036566 0.0417486 0.0949206 0.161788 0.206307 0.165228 0.0795601 
0.0592164 0.156129 0.2992 0.330777 0.240463 0.15495 0.10178 0.12513 0.475693 
1.60268 0.177917 0.0732719 0.0827759 0.122289 0.197882 0.313444 0.272837 0.217585 
0.207695 0.218859 0.213362 0.164376 0.134833 0.177039 0.196074 0.147483 0.109581 
0.11945 0.142488 0.131927 0.0942758 0.0543917 0.0343423 0.0268821 0.0171687 0.0226152 
0.0403577 0.0721232 0.119863 0.179026 0.208803 0.182133 0.140936 0.119815 0.118359 
0.131888 0.149081 0.139246 0.0974175 0.0629734 0.0592811 0.0592777 0.0527243 0.0448427 
0.0408456 
Torsion 1 64 float
-0.00231588 -0.00890853 -0.0906855 0.0254156 0.109534 0.105589 0.0671819 0.0567526 0.212436 
0.505355 -0.0516726 -0.285741 -0.351708 -0.134456 0.012275 0.0295328 -0.0606881 -0.10062 
-0.0264043 0.042331 0.172278 0.229359 0.321227 0.474442 0.449182 0.294111 0.11182 
-0.0582071 -0.16938 -0.2444 -0.406589 -0.559903 -0.282272 -0.0591011 0.0944856 0.174193 
0.0698479 -0.0289282 -0.0372386 0.0212367 0.171757 0.250387 -0.125498 -0.834929 -0.652323 
-0.356971 -0.139438 -0.0157501 0.037719 0.0662678 0.0937929 0.0952553 0.0397701 -0.0745509 
-0.15381 -0.171535 -0.191795 -0.309995 -0.469601 -0.275927 -0.105951 -0.0489481 -0.0502327 
-0.0680164 
Abscissas 1 64 double
0 1.0344560382 2.0298569998 3.0425973619 4.0570576521 5.070703194 6.0828291114 7.0946936695 8.1084138278 
9.122884771 10.137204127 11.149609905 12.155863446 13.166109293 14.178728776 15.192450235 16.206383707 17.217147204 
18.093608343 19.1540304 20.166166003 21.179488299 22.193529365 23.207245792 24.217656929 25.226046201 26.23726751 
27.248954976 28.260474232 29.27171344 30.283747177 31.297133142 32.310296888 33.322131574 34.334738073 35.348325307 
36.362189651 37.375611789 38.388794626 39.402508095 40.416733101 41.431263259 42.445775156 43.460368383 44.474972385 
45.48951287 46.50394458 47.517961316 48.531096622 49.542832675 50.554706298 51.56762767 52.581138561 53.594796151 
54.60846994 55.621756864 56.634777218 57.648400754 58.662655134 59.677067086 60.691599543 61.704069181 62.698478827 
63.734905872 
ParallelTransportNormals 3 64 double
0.50455759261 0 0.86337803756 0.37310429529 0.012242800088 0.92770862812 0.36036161473 0.013927579572 0.93270870542 
0.40257153353 0.0093771890455 0.91534049878 0.47828779934 0.0080327642636 0.87816641686 0.56573694007 0.024410651945 0.82422438371 
0.63242865705 0.062824713803 0.77206673874 0.66033564553 0.095765414884 0.74483945959 0.66128278175 0.097511411121 0.74377187851 
0.63754053312 0.046922972216 0.768986543 0.55152969651 -0.11611052965 0.82603470797 0.36133633282 -0.4347495096 0.82488115416 
0.26984618476 -0.6369690803 0.7221173224 0.26908722834 -0.64723517181 0.713217145 0.26378650821 -0.63042101178 0.73005891954 
0.26033538614 -0.62504969603 0.73589290269 0.25970019086 -0.62438794194 0.73667870122 -0.20260956926 -0.2489108161 0.94709702147 
-0.86822999645 0.45993340525 -0.18611269706 -0.8381171591 0.45646822922 -0.29865763565 -0.8125813277 0.44719659755 -0.37380046684 
-0.79250326572 0.43391127466 -0.42855522345 -0.79753587398 0.43999801646 -0.41272057766 -0.82264112339 0.5350319422 -0.19236008662 
-0.75493307563 0.61856338801 0.21784257237 -0.69017657528 0.57093596985 0.44462165182 -0.67796584397 0.52884119576 0.51057742222 
-0.68049681579 0.4831892539 0.55086498219 -0.70770167802 0.36937584102 0.60226225434 -0.76843581061 0.16139311078 0.61924039659 
-0.81789160324 -0.068856994333 0.57123728842 -0.8236654042 -0.24289165222 0.51242457708 -0.80573985237 -0.33526196908 0.48824451086 
-0.79320204522 -0.36558996397 0.48700564032 -0.7774023611 -0.39121349966 0.49254194404 -0.73756985002 -0.4384250701 0.51358949975 
-0.66295333809 -0.50073663904 0.55655699604 -0.56125588434 -0.55308732301 0.61569980138 -0.46661553692 -0.57550987729 0.67160875653 
-0.40031120305 -0.57706907926 0.71185828539 -0.35373226236 -0.57159627416 0.74037232926 -0.31340381158 -0.56356888032 0.76430894802 
-0.28048930718 -0.55544863288 0.78281706982 -0.2706878032 -0.55270085697 0.7881940598 -0.29384037171 -0.55955488932 0.77495558698 
-0.34460125191 -0.57317981073 0.74344796842 -0.41951477813 -0.58611971621 0.69316017572 -0.5305317814 -0.58500994772 0.61343246571 
-0.68913928494 -0.5351078229 0.48861709325 -0.85230373441 -0.40089050952 0.33595407975 -0.95430334022 -0.21960021762 0.20268418601 
-0.99413115833 -0.041731398711 0.099808468526 -0.99191369715 0.12612705486 0.014113236119 -0.95520013733 0.28949238328 -0.061537449286 
-0.88484326616 0.44940218062 -0.1228416639 -0.7926517588 0.58973820388 -0.15463518409 -0.72091331636 0.67575659137 -0.15374335599 
-0.70573119815 0.69252971716 -0.14948600874 -0.73641602293 0.65631879557 -0.16412519536 -0.78416839964 0.58955516277 -0.19366112429 
-0.82838818863 0.51265876955 -0.22572991593 -0.86118013572 0.44118298603 -0.25244077855 -0.88500015013 0.37658086318 -0.27379113894 
-0.88500015013 0.37658086318 -0.27379113894 
