# vtk DataFile Version 4.2
vtk output
ASCII
DATASET POLYDATA
POINTS 64 float
0 0 0 -1.01409 0.219974 0.128202 -1.94297 0.374187 0.376496 
-2.90772 0.465001 0.714193 -3.84221 0.451146 1.10306 -4.76311 0.313355 1.50598 
-5.66606 0.0392874 1.87808 -6.55022 -0.367172 2.16396 -7.41084 -0.886979 2.29577 
-8.2253 -1.48312 2.20221 -8.93861 -2.11202 1.85163 -9.49007 -2.75046 1.28942 
-9.84878 -3.40844 0.606333 -10.0147 -4.10703 -0.109846 -10.0127 -4.85087 -0.799374 
-9.8806 -5.63265 -1.43212 -9.65729 -6.44432 -1.99822 -9.37389 -7.2836 -2.49257 
-9.05331 -8.1555 -2.90074 -8.71581 -9.07108 -3.17543 -8.39443 -10.0306 -3.16352 
-8.19431 -10.811 -2.56758 -8.14503 -11.1627 -1.61352 -8.13322 -11.3157 -0.61173 
-8.11049 -11.4297 0.396334 -8.05718 -11.5991 1.39516 -7.9692 -11.9066 2.35761 
-7.86322 -12.4128 3.22942 -7.77301 -13.1105 3.95955 -7.72211 -13.9353 4.54764 
-7.71175 -14.8287 5.02829 -7.73022 -15.756 5.43933 -7.7605 -16.6986 5.81367 
-7.78449 -17.6447 6.17916 -7.78548 -18.5859 6.55802 -7.74917 -19.5151 6.96394 
-7.66258 -20.4266 7.40078 -7.51087 -21.3156 7.86546 -7.27577 -22.175 8.35068 
-6.93559 -22.9918 8.84673 -6.47013 -23.745 9.34162 -5.86922 -24.4054 9.82255 
-5.14064 -24.9442 10.278 -4.30914 -25.3421 10.7011 -3.40722 -25.5941 11.0906 
-2.46578 -25.7073 11.4509 -1.50926 -25.6954 11.7885 -0.554757 -25.575 12.1104 
0.387307 -25.3656 12.4233 1.31276 -25.0901 12.7347 2.22332 -24.7764 13.0539 
3.12514 -24.4594 13.394 4.02494 -24.1827 13.7723 4.92179 -23.9976 14.2085 
5.79723 -23.9537 14.7186 6.6131 -24.0851 15.3062 7.3263 -24.3937 15.9576 
7.90959 -24.8553 16.6469 8.35292 -25.4436 17.344 8.65273 -26.1413 18.0164 
8.80564 -26.9344 18.627 8.79802 -27.8251 19.1327 8.65109 -28.7236 19.4812 
8.32905 -29.7044 19.6439 
LINES 1 65
64 0 1 2 3 4 5 6 7 8 9 10 11 12 13 14 15 16 17 18 19 20 21 22 23 24 25 26 27 28 29 30 31 32 33 34 35 36 37 38 39 40 41 42 43 44 45 46 47 48 49 50 51 52 53 54 55 56 57 58 59 60 61 62 63 

POINT_DATA 64
SCALARS MaximumInscribedSphereRadius float
LOOKUP_TABLE default
1.24 1.58512 1.75913 1.51511 1.35363 1.46955 1.50273 1.37519 1.10939 
1.06995 1.45724 1.14738 0.936973 1.07596 1.19249 1.28413 1.23855 1.17307 
1.38778 1.80538 1.81956 1.25659 0.831426 1.15664 1.52115 1.81036 1.6605 
1.81332 2.3556 2.06596 1.6229 1.55 1.59111 1.72735 1.89025 2.05411 
2.05327 1.74211 1.48667 1.32183 1.438 1.71518 1.61194 1.3257 1.68574 
2.00535 1.95541 1.87441 1.86 1.89232 2.05293 2.21652 2.38512 2.31502 
2.0061 1.97081 2.07117 2.13596 2.1008 1.94568 1.96909 2.18398 2.60772 
3.1 
TEXTURE_COORDINATES TCoords 2 float
0 0 0.015873 0 0.031746 0 0.047619 0 0.0634921 
0 0.0793651 0 0.0952381 0 0.111111 0 0.126984 0 
0.142857 0 0.15873 0 0.174603 0 0.190476 0 0.206349 
0 0.222222 0 0.238095 0 0.253968 0 0.269841 0 
0.285714 0 0.301587 0 0.31746 0 0.333333 0 0.349206 
0 0.365079 0 0.380952 0 0.396825 0 0.412698 0 
0.428571 0 0.444444 0 0.460317 0 0.47619 0 0.492063 
0 0.507937 0 0.52381 0 0.539683 0 0.555556 0 
0.571429 0 0.587302 0 0.603175 0 0.619048 0 0.634921 
0 0.650794 0 0.666667 0 0.68254 0 0.698413 0 
0.714286 0 0.730159 0 0.746032 0 0.761905 0 0.777778 
0 0.793651 0 0.809524 0 0.825397 0 0.84127 0 
0.857143 0 0.873016 0 0.888889 0 0.904762 0 0.920635 
0 0.936508 0 0.952381 0 0.968254 0 0.984127 0 
1 0 
FIELD FieldData 4
Curvature 1 64 float
0.133696 0.10958 0.0958149 0.0955422 0.105712 0.118987 0.135818 0.165287 0.204307 
0.23022 0.221007 0.194504 0.175739 0.158825 0.134735 0.103871 0.0816846 0.0898165 
0.148675 0.290091 0.565964 0.510693 0.219211 0.0673178 0.0540326 0.122938 0.180353 
0.196327 0.164028 0.115898 0.0725627 0.0361142 0.0139598 0.0230441 0.0395958 0.0504158 
0.0607221 0.0743765 0.0930719 0.115134 0.134492 0.145309 0.145064 0.135712 0.121074 
0.105031 0.0896319 0.0738433 0.0558797 0.0354108 0.0273941 0.052727 0.0946236 0.135607 
0.165623 0.175363 0.167089 0.154589 0.147984 0.152739 0.167878 0.187693 0.202064 
0.201933 
Torsion 1 64 float
0.146877 0.219426 0.281604 0.284561 0.248217 0.236804 0.244903 0.214393 0.124048 
-0.0297084 -0.151021 -0.259082 -0.227056 -0.147738 -0.106433 -0.123276 -0.185964 -0.179782 
-0.0909368 -0.0267003 0.0258655 0.0645715 0.0929646 0.459121 0.380561 0.133186 0.110026 
0.106186 0.0862374 0.0562839 -0.0018434 -0.225897 -1.24504 -0.453906 0.0027839 0.0890798 
0.111548 0.0986372 0.0602102 0.0203999 -0.0102046 -0.0298974 -0.042849 -0.0527492 -0.0608643 
-0.0643401 -0.0644152 -0.0718572 -0.114285 -0.360746 -0.757734 -0.283977 -0.0573285 0.00588642 
0.0290566 0.0348515 0.00673696 -0.0379631 -0.0752023 -0.0874573 -0.0779278 -0.0592708 -0.0418556 
-0.0281457 
Abscissas 1 64 double
0 1.0455633524 2.0193445296 3.0455165945 4.0577818837 5.0723694355 6.0867114958 7.1009479486 8.114969636 
9.1286176547 10.142142738 11.155944478 12.169955411 13.18409033 14.198364013 15.212759162 16.227227019 17.241666804 
18.256351264 19.270080852 20.282061182 21.284167569 22.302181179 23.315656262 24.330400413 25.344891242 26.359093767 
27.372761673 28.386671761 29.400937439 30.415479504 31.429964412 32.444629083 33.45915384 34.473744299 35.488389179 
36.502863182 37.517389705 38.531923484 39.546296283 40.560633609 41.57478955 42.588974097 43.603237213 44.61747321 
45.631839626 46.646258493 47.660749484 48.675263725 49.689824923 50.704426033 51.719037318 52.733588575 53.747921948 
54.762083813 55.776077912 56.79008455 57.804203742 58.818395424 59.83268995 60.845223316 61.869496276 62.844351873 
63.889410312 
ParallelTransportNormals 3 64 double
0.12542245449 0 0.99210342601 0.25432856407 -0.02470882053 0.96680218022 0.3273156831 -0.034221750124 0.94429514211 
0.3843964437 -0.036513504658 0.92244573719 0.40496750078 -0.034833765667 0.91366729835 0.39059216862 -0.038080111933 0.91977587645 
0.33210349452 -0.060352691807 0.94131016223 0.22049868232 -0.11960214971 0.9680266819 0.056084841166 -0.22913754801 0.97177696756 
-0.12321313154 -0.37290827625 0.91965098908 -0.25534936563 -0.50531050279 0.82429242216 -0.31766046864 -0.59406261633 0.73904088827 
-0.33352012483 -0.63507099919 0.69674181181 -0.33421849036 -0.64121587589 0.69075335773 -0.33553302207 -0.62625994789 0.70371590061 
-0.34159947999 -0.59906124646 0.7241791341 -0.35343724858 -0.56049178079 0.74895331963 -0.37392908826 -0.50243454965 0.77957460212 
-0.41241753366 -0.39789211086 0.81950817326 -0.49740809197 -0.15600851768 0.85337361833 -0.64887542414 0.34966506819 0.67579214558 
-0.71389087375 0.64426616598 0.2743737009 -0.71891738093 0.68581312625 0.11321729227 -0.71924649286 0.68835794158 0.094062887335 
-0.71699107104 0.67995214165 0.15358674787 -0.70840679156 0.65097714108 0.27274269828 -0.69247953375 0.58415661197 0.42335936039 
-0.67690557002 0.48859144653 0.55052452048 -0.66903421821 0.40366949164 0.6240546101 -0.66701280395 0.34697873393 0.65931758475 
-0.66716447275 0.31293258739 0.67599168786 -0.66767890759 0.2932000023 0.68427964679 -0.66797630246 0.28285006054 0.68833385985 
-0.66803425506 0.27847174495 0.69006066496 -0.66798442495 0.27583289399 0.69116786862 -0.66754624108 0.26927035027 0.69417252501 
-0.66544960993 0.2534289211 0.70210440719 -0.65912930562 0.22486080618 0.71762537324 -0.6445727028 0.18244775619 0.74245460943 
-0.6170315904 0.12877684789 0.77633017454 -0.57400096552 0.071735670469 0.8157063719 -0.51841573322 0.021597670986 0.85485593415 
-0.45883930667 -0.014173424482 0.88840621604 -0.40435985048 -0.034598998779 0.91394530504 -0.36161093013 -0.043068483286 0.93133379675 
-0.33199813735 -0.044649049486 0.94222274393 -0.31433668279 -0.043426389152 0.948317773 -0.30649837049 -0.042063366166 0.95094133474 
-0.30730228237 -0.042272101458 0.95067259174 -0.31655975483 -0.045242943115 0.94749300669 -0.33629886714 -0.052112055103 0.94031239791 
-0.37019066573 -0.063280633867 0.92679794582 -0.42320413167 -0.076906592725 0.90276444266 -0.49831130646 -0.086610802097 0.86266123758 
-0.59110140997 -0.081809513043 0.80243774008 -0.68613661442 -0.05446255776 0.72543116569 -0.76571574987 -0.0071880665853 0.64313896018 
-0.82265213042 0.051038923868 0.56624950381 -0.85851745909 0.11310276549 0.5001555127 -0.87729237074 0.17494908423 0.44693502232 
-0.88274082515 0.23767180023 0.40531561897 -0.87803492099 0.29096937869 0.37998881324 -0.86481958645 0.34454165558 0.36520970752 
-0.86481958645 0.34454165558 0.36520970752 
