# vtk DataFile Version 4.2
vtk output
ASCII
DATASET POLYDATA
POINTS 64 float
0 0 0 -0.895053 -0.424327 0.336805 -1.73577 -0.689578 0.749802 
-2.60576 -0.896214 1.25199 -3.43807 -1.05295 1.80728 -4.24532 -1.20345 2.40336 
-5.03125 -1.37851 3.02071 -5.80602 -1.60595 3.63494 -6.58397 -1.90867 4.21138 
-7.38213 -2.30039 4.69949 -8.2142 -2.7818 5.02196 -9.0684 -3.32421 5.0713 
-9.8763 -3.85381 4.76819 -10.5412 -4.30188 4.14896 -11.0038 -4.66581 3.32374 
-11.2418 -4.98918 2.39281 -11.2539 -5.32595 1.43655 -11.0724 -5.71727 0.518743 
-10.7625 -6.17968 -0.329206 -10.3915 -6.71268 -1.10859 -10.0123 -7.31243 -1.8337 
-9.66664 -7.97953 -2.51527 -9.39718 -8.72229 -3.15161 -9.27242 -9.55942 -3.71054 
-9.46168 -10.495 -4.03812 -10.0889 -11.2249 -3.78874 -10.7985 -11.5105 -3.11665 
-11.4158 -11.5768 -2.31528 -11.9342 -11.5451 -1.44399 -12.3414 -11.4751 -0.517554 
-12.6108 -11.4173 0.458534 -12.7001 -11.4352 1.46829 -12.5712 -11.6126 2.45754 
-12.2488 -12.0158 3.32919 -11.8347 -12.636 4.01569 -11.4267 -13.4084 4.53095 
-11.0698 -14.2707 4.92858 -10.7723 -15.1827 5.2586 -10.5271 -16.1204 5.55855 
-10.3188 -17.068 5.85525 -10.1258 -18.0146 6.16551 -9.9201 -18.952 6.49454 
-9.66856 -19.8732 6.83732 -9.33708 -20.7668 7.18461 -8.89601 -21.6133 7.52793 
-8.33032 -22.3841 7.86637 -7.64688 -23.0498 8.21066 -6.8699 -23.5897 8.57615 
-6.03108 -23.9974 8.97489 -5.16014 -24.2791 9.41201 -4.2802 -24.4505 9.88682 
-3.40621 -24.5324 10.3954 -2.54619 -24.5471 10.9334 -1.70414 -24.516 11.4985 
-0.882362 -24.4585 12.0908 -0.082695 -24.3917 12.7116 0.69379 -24.3324 13.362 
1.44777 -24.3027 14.0402 2.18277 -24.3441 14.7382 2.89869 -24.5369 15.4301 
3.56215 -24.9903 16.0443 4.09882 -25.745 16.4779 4.46615 -26.6162 16.7096 
4.73018 -27.6245 16.8025 
LINES 1 65
64 0 1 2 3 4 5 6 7 8 9 10 11 12 13 14 15 16 17 18 19 20 21 22 23 24 25 26 27 28 29 30 31 32 33 34 35 36 37 38 39 40 41 42 43 44 45 46 47 48 49 50 51 52 53 54 55 56 57 58 59 60 61 62 63 

POINT_DATA 64
SCALARS MaximumInscribedSphereRadius float
LOOKUP_TABLE default
0.93 0.93 0.93 0.950398 1.09815 1.19455 1.02463 1.0411 1.21022 
1.24 1.29558 1.36065 1.35591 1.4967 1.24411 1.2267 1.60249 1.66677 
1.61736 1.50076 1.35038 1.54722 1.83542 1.82413 1.37197 1.047 1.18049 
1.26208 1.23022 1.16013 1.06186 0.944706 1.13787 1.24 1.24 1.24 
1.70774 2.16533 2.18775 2.18659 2.17176 2.0003 1.74496 1.3887 1.55516 
1.83456 1.63144 1.55 1.50081 1.35116 1.37296 1.54504 1.73098 2.07557 
2.63252 2.49438 2.20591 2.17633 2.34603 2.46055 2.36036 2.12649 1.96874 
1.86 
TEXTURE_COORDINATES TCoords 2 float
0 0 0.015873 0 0.031746 0 0.047619 0 0.0634921 
0 0.0793651 0 0.0952381 0 0.111111 0 0.126984 0 
0.142857 0 0.15873 0 0.174603 0 0.190476 0 0.206349 
0 0.222222 0 0.238095 0 0.253968 0 0.269841 0 
0.285714 0 0.301587 0 0.31746 0 0.333333 0 0.349206 
0 0.365079 0 0.380952 0 0.396825 0 0.412698 0 
0.428571 0 0.444444 0 0.460317 0 0.47619 0 0.492063 
0 0.507937 0 0.52381 0 0.539683 0 0.555556 0 
0.571429 0 0.587302 0 0.603175 0 0.619048 0 0.634921 
0 0.650794 0 0.666667 0 0.68254 0 0.698413 0 
0.714286 0 0.730159 0 0.746032 0 0.761905 0 0.777778 
0 0.793651 0 0.809524 0 0.825397 0 0.84127 0 
0.857143 0 0.873016 0 0.888889 0 0.904762 0 0.920635 
0 0.936508 0 0.952381 0 0.968254 0 0.984127 0 
1 0 
FIELD FieldData 4
Curvature 1 64 float
0.158779 0.127607 0.094274 0.0652421 0.0425552 0.0328608 0.0457235 0.0737469 0.112251 
0.165728 0.236014 0.290894 0.28883 0.243148 0.203353 0.185703 0.170243 0.142663 
0.107506 0.0786211 0.0726431 0.103092 0.179219 0.357839 0.648414 0.545301 0.263067 
0.139747 0.107206 0.123982 0.171729 0.230021 0.264226 0.247008 0.194554 0.136055 
0.0889477 0.0553882 0.0322722 0.021993 0.026625 0.0449626 0.0705811 0.0972062 0.118196 
0.128611 0.128452 0.121623 0.110256 0.0951835 0.0776753 0.0603479 0.0458967 0.0371042 
0.035689 0.0406911 0.0515732 0.076814 0.13274 0.22787 0.307973 0.295758 0.232482 
0.176319 
Torsion 1 64 float
0.0616127 0.0985466 0.159122 0.262523 0.476927 0.731281 0.483017 0.275686 0.195751 
0.144978 0.108804 0.0527534 -0.0384721 -0.149438 -0.239643 -0.25932 -0.227076 -0.206665 
-0.234173 -0.32961 -0.318711 -0.141714 -0.0284196 0.0255196 0.0680537 0.0897891 0.124007 
0.21332 0.298451 0.255242 0.191417 0.179849 0.201482 0.208612 0.188201 0.174239 
0.190418 0.269452 0.482621 0.677488 0.513422 0.253152 0.096519 0.00555882 -0.0780341 
-0.129743 -0.134083 -0.117496 -0.0968133 -0.0801916 -0.0779031 -0.107015 -0.179953 -0.258841 
-0.251317 -0.21514 -0.226504 -0.225908 -0.143849 -0.0659961 -0.0230328 -0.00768543 -0.00316853 
-0.00159933 
Abscissas 1 64 double
0 1.0462365481 2.0197506108 3.0453109396 4.0580562267 5.0727550726 6.0873748903 7.1019070789 8.1163671331 
9.1306430057 10.144587089 11.157652347 12.170101664 13.183168232 14.196791856 15.210617571 16.224517869 17.238639645 
18.252976188 19.267455831 20.281989162 21.29640545 22.31091529 23.325190329 24.334367432 25.328524754 26.346760832 
27.360491162 28.374833247 29.389227397 30.403458481 31.417313513 32.43057644 33.443634123 34.457245695 35.471424524 
36.48584519 37.500322175 38.514902343 39.529480032 40.544153317 41.558692592 42.57327596 43.587677837 44.602061328 
45.616299573 46.630589313 47.64487356 48.659187196 49.673566444 50.688020309 51.702525116 52.717066623 53.731637067 
54.746252813 55.760807944 56.775433988 57.78998945 58.804456302 59.818575955 60.830006447 61.852551282 62.826000528 
63.872429016 
ParallelTransportNormals 3 64 double
0.35218673853 0 0.93592975228 0.43261289432 0.031721666112 0.90102154223 0.49080640794 0.047833044676 0.86995463661 
0.54620299078 0.059649403546 0.83552632605 0.58459219301 0.066843164096 0.80856908133 0.6062811413 0.071275229601 0.79204988438 
0.6067071916 0.071385107401 0.79171367937 0.57857974281 0.061781237823 0.81328258303 0.51011901367 0.031616873593 0.85952252164 
0.38013990467 -0.037999189547 0.92414810202 0.16370883042 -0.16940808481 0.97185406294 -0.11821686696 -0.35124351565 0.92879102336 
-0.36942582828 -0.51799972482 0.77149260689 -0.52502132864 -0.6300537025 0.57217561678 -0.59562902646 -0.69931915604 0.39519461135 
-0.61228561995 -0.74328295735 0.26951208677 -0.606658628 -0.76747084503 0.20725301231 -0.60452959245 -0.77116977881 0.19960246517 
-0.614880491 -0.75603773741 0.22434108274 -0.63590981881 -0.72428496091 0.26651453569 -0.66474084851 -0.6738962104 0.32246472973 
-0.69958841365 -0.5940259478 0.39712620768 -0.73592589917 -0.44839151445 0.50730476117 -0.72285610512 -0.093490316642 0.6846448802 
-0.39099096812 0.58012271546 0.71455139623 0.035245179159 0.90584342393 0.42214389569 0.20342193339 0.95038990925 0.23532644861 
0.27545882973 0.95258640363 0.12923458029 0.30898845951 0.94890236524 0.064112659654 0.32028892579 0.94676784991 0.032336394324 
0.31801762087 0.94702043222 0.044912067073 0.31964129304 0.93902361501 0.12674420792 0.35686360471 0.89113699783 0.28021994707 
0.43476235258 0.78289593751 0.44503443441 0.51494390963 0.647076655 0.56224956425 0.57126687273 0.52670805212 0.6294702439 
0.60399270006 0.43797749865 0.66585924109 0.6205833874 0.38143140939 0.68511775573 0.62695246505 0.3549537184 0.69349727063 
0.62691987129 0.35510756615 0.69344797313 0.62222376216 0.37729830642 0.68591805471 0.61243068222 0.41710550763 0.67152934037 
0.59441214598 0.47319206891 0.65020263505 0.56245024986 0.54518335037 0.62163078343 0.50916698814 0.6307787246 0.58554861351 
0.42996136025 0.72186563218 0.54225753823 0.32817952735 0.80588816398 0.49279048791 0.21509847374 0.87220564792 0.43930621932 
0.10354407674 0.91718626671 0.38477003044 0.0040223149624 0.94294117221 0.33293507887 -0.077630778223 0.95473348188 0.28715403678 
-0.13978766247 0.95819620908 0.24963860745 -0.18377436393 0.95777241573 0.22113114398 -0.21209374672 0.95626439662 0.20143149297 
-0.22731692809 0.95509738414 0.19004210325 -0.23017635729 0.95486861425 0.18773591577 -0.21688698399 0.9556414189 0.19927246337 
-0.17350702033 0.95530041414 0.23936673252 -0.072233717081 0.9389515891 0.33638103907 0.11097841478 0.85307189455 0.5098550129 
0.32798388616 0.6350486771 0.69938526445 0.45603003995 0.40327585155 0.79335060989 0.52065679775 0.21252262086 0.82689215414 
0.52065679775 0.21252262086 0.82689215414 
