# vtk DataFile Version 4.2
vtk output
ASCII
DATASET POLYDATA
POINTS 64 float
0 0 0 -0.723504 0.104329 0.742544 -1.39605 0.277598 1.44476 
-2.09334 0.497132 2.14684 -2.82148 0.723242 2.81684 -3.59356 0.915379 3.44627 
-4.40061 1.06101 4.04355 -5.22072 1.18391 4.62812 -6.04084 1.30821 5.2124 
-6.86587 1.42918 5.79041 -7.71848 1.50482 6.33471 -8.62162 1.45167 6.79147 
-9.54668 1.17434 7.09477 -10.4164 0.679083 7.25564 -11.2232 0.0753492 7.37322 
-12.0202 -0.53921 7.50159 -12.8651 -1.09355 7.58731 -13.7716 -1.53192 7.48316 
-14.6546 -1.84357 7.09819 -15.4256 -2.09419 6.48996 -16.0358 -2.37742 5.73228 
-16.3659 -2.80243 4.87739 -16.2295 -3.40497 4.08139 -15.7526 -4.05698 3.46911 
-15.1784 -4.7183 2.95723 -14.6313 -5.43734 2.49659 -14.2315 -6.31776 2.18983 
-14.2125 -7.23657 2.54405 -14.4524 -7.72167 3.39764 -14.8128 -7.89421 4.32765 
-15.3613 -7.75938 5.16439 -16.029 -7.30993 5.77833 -16.572 -6.67061 6.34623 
-16.8256 -5.99645 7.05541 -16.7356 -5.46975 7.91347 -16.3722 -5.21005 8.82071 
-15.8085 -5.30117 9.65317 -15.1353 -5.84425 10.1589 -14.5829 -6.68674 10.1126 
-14.2091 -7.57167 9.78796 -13.9179 -8.4914 9.4752 -13.6382 -9.46074 9.39597 
-13.3507 -10.3974 9.65035 -13.0654 -11.2393 10.1377 -12.777 -12.0045 10.738 
-12.4581 -12.7187 11.384 -12.0614 -13.3866 12.0362 -11.5273 -13.977 12.6637 
-10.8255 -14.4129 13.2499 -10.0071 -14.6262 13.8078 -9.15456 -14.6346 14.3566 
-8.30612 -14.5058 14.8974 -7.46139 -14.2979 15.4193 -6.60892 -14.0491 15.91 
-5.74159 -13.7907 16.3686 -4.85913 -13.5585 16.8121 -3.96491 -13.3934 17.2617 
-3.06728 -13.3339 17.7301 -2.18433 -13.4143 18.2222 -1.35442 -13.6742 18.7425 
-0.66813 -14.1738 19.2935 -0.328144 -14.9534 19.8321 -0.476524 -15.8398 20.2362 
-1.00207 -16.6996 20.4935 
LINES 1 65
64 0 1 2 3 4 5 6 7 8 9 10 11 12 13 14 15 16 17 18 19 20 21 22 23 24 25 26 27 28 29 30 31 32 33 34 35 36 37 38 39 40 41 42 43 44 45 46 47 48 49 50 51 52 53 54 55 56 57 58 59 60 61 62 63 

POINT_DATA 64
SCALARS MaximumInscribedSphereRadius float
LOOKUP_TABLE default
0.93 1.13982 1.12117 0.951148 0.93 0.93 0.810674 0.69478 0.848575 
0.779015 0.683128 0.871989 0.743445 1.15491 1.38828 1.00519 1.21994 1.44153 
1.36656 1.01215 1.78051 2.12931 1.92758 1.55 1.55076 1.70884 1.99276 
2.17916 2.04022 1.84376 1.91815 2.12753 1.87439 1.65658 1.56467 1.72348 
2.14115 2.19084 2.1948 2.23276 1.99665 1.67175 1.91484 1.50684 1.33792 
1.55083 1.76613 1.86 1.63621 1.13647 1.61325 2.00583 2.0573 1.6218 
1.93284 2.06646 1.97675 2.34175 2.56451 2.60147 2.37817 1.78799 1.68467 
1.86 
TEXTURE_COORDINATES TCoords 2 float
0 0 0.015873 0 0.031746 0 0.047619 0 0.0634921 
0 0.0793651 0 0.0952381 0 0.111111 0 0.126984 0 
0.142857 0 0.15873 0 0.174603 0 0.190476 0 0.206349 
0 0.222222 0 0.238095 0 0.253968 0 0.269841 0 
0.285714 0 0.301587 0 0.31746 0 0.333333 0 0.349206 
0 0.365079 0 0.380952 0 0.396825 0 0.412698 0 
0.428571 0 0.444444 0 0.460317 0 0.47619 0 0.492063 
0 0.507937 0 0.52381 0 0.539683 0 0.555556 0 
0.571429 0 0.587302 0 0.603175 0 0.619048 0 0.634921 
0 0.650794 0 0.666667 0 0.68254 0 0.698413 0 
0.714286 0 0.730159 0 0.746032 0 0.761905 0 0.777778 
0 0.793651 0 0.809524 0 0.825397 0 0.84127 0 
0.857143 0 0.873016 0 0.888889 0 0.904762 0 0.920635 
0 0.936508 0 0.952381 0 0.968254 0 0.984127 0 
1 0 
FIELD FieldData 4
Curvature 1 64 float
0.0711575 0.056668 0.0411726 0.0364574 0.0463542 0.0468543 0.0328163 0.021617 0.00952745 
0.045594 0.114804 0.183406 0.179056 0.0935341 0.0281843 0.0600866 0.153506 0.207209 
0.170424 0.139654 0.220296 0.350827 0.272367 0.0993659 0.0678279 0.214617 0.574625 
0.498173 0.223349 0.241172 0.274955 0.169512 0.217203 0.267093 0.247454 0.266073 
0.378881 0.436594 0.223089 0.0825124 0.162679 0.222063 0.169025 0.0914092 0.0470268 
0.0630387 0.108214 0.15326 0.166772 0.137023 0.0902265 0.0523957 0.034127 0.0251859 
0.0231777 0.0451719 0.0698016 0.0912821 0.12211 0.181988 0.293152 0.375967 0.298863 
0.204913 
Torsion 1 64 float
-0.0574344 -0.128932 -0.297731 -0.444152 -0.257176 -0.0980766 -0.0186282 -0.0072256 -0.463179 
-0.0872027 -0.0447082 -0.0654814 -0.134273 -0.268262 -0.997059 -0.609546 -0.222765 -0.169012 
-0.229894 -0.325888 -0.156593 -0.0303492 -0.0190048 -0.216848 -0.656596 0.0775173 0.180645 
0.0412182 -0.206608 -0.166461 0.23566 0.805991 0.341345 0.148357 0.0975755 0.0385769 
-0.0151063 0.010391 0.14893 0.877428 0.204228 0.0496743 0.0227954 0.122605 0.494385 
0.272222 0.00492889 -0.143017 -0.18575 -0.111485 0.0117233 0.209964 0.369103 0.504699 
0.775722 0.187148 0.0418927 0.0355885 0.0561117 0.0579264 0.0400885 0.0220257 0.0100144 
0.00445116 
Abscissas 1 64 double
0 1.0419760903 2.0296235446 3.0431939451 4.0581882971 5.0726863324 6.0872214513 7.1018182052 8.1164269913 
9.1310223057 10.145383179 11.158850758 12.171095437 13.184787064 14.199304483 15.213883574 16.228031954 17.240334988 
18.252766443 19.266272476 20.279506901 21.289673016 22.297281818 23.310907822 24.325338752 25.339501595 26.353938197 
27.338846499 28.349534617 29.36174853 30.371285702 31.383584628 32.39654604 33.407357767 34.41818896 35.429420054 
36.438899585 37.440847075 38.44934991 39.463361397 40.477520671 41.489513854 42.501786713 43.515543145 44.529972176 
45.544415288 46.558725188 47.572427946 48.58542472 49.598601554 50.612542354 51.626891781 52.641372352 53.655962322 
54.670529656 55.685095357 56.699505327 57.713743587 58.727758912 59.741174291 60.753200053 61.759904703 62.745307728 
63.785335692 
ParallelTransportNormals 3 64 double
0 -0.99027335323 0.13913549469 -0.051515290756 -0.97995159837 0.19246048858 -0.081303661297 -0.97142076369 0.22300541367 
-0.088946045131 -0.96903145046 0.23036199571 -0.068897199841 -0.97462072545 0.21299675438 -0.037498250271 -0.9813368238 0.18860519472 
-0.021372078396 -0.98399814174 0.17689231562 -0.02251024697 -0.98382660772 0.17770338976 -0.02069434948 -0.98409733385 0.17642046765 
0.011316768465 -0.98784874988 0.15500573573 0.10856191782 -0.98909123929 0.099563197806 0.29386797422 -0.95558037327 0.022533618053 
0.49067112832 -0.87088274463 -0.028374089266 0.59424298035 -0.802993163 -0.045576973046 0.60516957115 -0.79469301047 -0.047252611183 
0.54534117502 -0.83728522771 -0.039451872997 0.43876902916 -0.89768295851 -0.040583802656 0.35649926209 -0.9321644196 -0.063069572336 
0.35414030199 -0.9329663548 -0.06448586912 0.42017687172 -0.90744185567 0.00082161189265 0.53648687631 -0.81977021124 0.20039618837 
0.57776241715 -0.60008979311 0.55324753008 0.47592860558 -0.39146098887 0.78755968446 0.40969621668 -0.30870202332 0.85840088003 
0.38201839427 -0.27462934773 0.88240618074 0.32403097082 -0.17668307495 0.92940143155 0.20175604965 0.35594678509 0.91246719536 
0.27065127102 0.80230874899 0.53202308294 0.34877031869 0.88793317077 0.29988989489 0.43146203971 0.89132604559 0.13920628128 
0.55397319495 0.83250528429 -0.0069750206653 0.68999960448 0.71018925219 -0.13975611577 0.77177062165 0.57530470278 -0.27091438966 
0.78344227069 0.48963334382 -0.38272365632 0.76857150464 0.46383590892 -0.44062919995 0.75710925676 0.46175580833 -0.46213325655 
0.74029482176 0.47039727267 -0.48030197037 0.71683525966 0.49689166042 -0.489127681 0.72285983157 0.48566211265 -0.4915343083 
0.74956919675 0.41317968022 -0.51713496414 0.79188909024 0.27313901831 -0.54617464738 0.83944936763 0.11331826899 -0.53149198405 
0.87200338667 0.012233433042 -0.48934694926 0.88646556684 -0.028280055283 -0.46192968868 0.88514036899 -0.025051831477 -0.46464925796 
0.86255261743 0.018573406278 -0.50562635488 0.80220990333 0.10014241753 -0.58858369601 0.69588181647 0.18842917519 -0.69299563018 
0.5885417156 0.2342703454 -0.77378036565 0.5268091615 0.24246391708 -0.81466763546 0.49556026101 0.24025255349 -0.83468481372 
0.46841793599 0.23485518263 -0.85172042387 0.43558038511 0.22601895059 -0.87131232178 0.40498686642 0.21699636548 -0.88819942321 
0.39320660969 0.2136934613 -0.89427270264 0.40631754142 0.21662527793 -0.88768211906 0.43966009038 0.22080444053 -0.87060002526 
0.49010317138 0.22021192263 -0.84338934694 0.56520868662 0.20528799466 -0.79899685846 0.68203791444 0.14674899046 -0.71644191465 
0.82438840651 -0.030943915976 -0.56517805095 0.85730613925 -0.3253820141 -0.39893950482 0.76754736618 -0.56161595756 -0.30896368214 
0.76754736618 -0.56161595756 -0.30896368214 
