# vtk DataFile Version 4.2
vtk output
ASCII
DATASET POLYDATA
POINTS 64 float
0 0 0 -0.884956 0.214088 0.518713 -1.76459 0.32419 0.929306 
-2.72147 0.289403 1.27285 -3.66646 0.00752243 1.50469 -4.5025 -0.54911 1.63475 
-5.20303 -1.27699 1.72432 -5.83576 -2.06345 1.82681 -6.47417 -2.84183 1.95289 
-7.16389 -3.57702 2.06645 -7.91561 -4.25723 2.09225 -8.69355 -4.88747 1.93455 
-9.39524 -5.46841 1.49362 -9.85763 -5.97913 0.753512 -10.0002 -6.40668 -0.153073 
-9.8734 -6.77231 -1.08986 -9.56023 -7.11183 -1.99273 -9.13119 -7.46459 -2.84151 
-8.6382 -7.8702 -3.62982 -8.11755 -8.36309 -4.3473 -7.59382 -8.96785 -4.97041 
-7.08142 -9.69879 -5.4507 -6.58922 -10.556 -5.67418 -6.17393 -11.406 -5.34543 
-5.99338 -11.8196 -4.44773 -6.01079 -11.8578 -3.436 -6.15205 -11.7562 -2.4366 
-6.40174 -11.6482 -1.45941 -6.75901 -11.6427 -0.510538 -7.20614 -11.82 0.381583 
-7.70357 -12.191 1.18325 -8.21608 -12.7124 1.8861 -8.72232 -13.339 2.50251 
-9.20503 -14.0416 3.05241 -9.64096 -14.8044 3.55966 -9.99783 -15.6187 4.04811 
-10.2337 -16.4761 4.53572 -10.2991 -17.36 5.02796 -10.1428 -18.2347 5.51526 
-9.73515 -19.0409 5.97375 -9.09726 -19.716 6.3787 -8.29762 -20.2346 6.72432 
-7.40715 -20.6158 7.02508 -6.4723 -20.896 7.30189 -5.51734 -21.1064 7.57224 
-4.55318 -21.261 7.84754 -3.58365 -21.3502 8.13257 -2.61284 -21.3416 8.42637 
-1.65401 -21.1991 8.72444 -0.72661 -20.9196 9.02546 0.164465 -20.5497 9.33923 
1.03435 -20.1584 9.68496 1.90143 -19.8133 10.0826 2.77195 -19.5797 10.5474 
3.62944 -19.5245 11.0851 4.42531 -19.7112 11.6832 5.07979 -20.1763 12.2998 
5.52347 -20.8836 12.8729 5.76421 -21.7331 13.3711 5.86872 -22.6401 13.8128 
5.90667 -23.5612 14.2377 5.94034 -24.4709 14.6931 6.02209 -25.3048 15.2004 
6.27565 -26.0422 15.8971 
LINES 1 65
64 0 1 2 3 4 5 6 7 8 9 10 11 12 13 14 15 16 17 18 19 20 21 22 23 24 25 26 27 28 29 30 31 32 33 34 35 36 37 38 39 40 41 42 43 44 45 46 47 48 49 50 51 52 53 54 55 56 57 58 59 60 61 62 63 

POINT_DATA 64
SCALARS MaximumInscribedSphereRadius float
LOOKUP_TABLE default
1.24 1.24 1.24 1.23176 1.09437 0.938107 0.950449 1.09574 1.24567 
1.26925 1.32137 1.41112 1.59937 1.37842 1.14475 1.22448 1.24 1.29631 
1.47424 1.66048 1.81888 1.82997 1.6616 1.37973 1.31334 1.49971 1.55 
1.61 1.81458 1.85992 1.79274 1.59437 1.69636 1.83682 1.86 1.77547 
1.59056 1.71176 1.91488 2.12097 2.17 2.05373 1.7122 1.56037 1.58358 
1.74071 1.86608 1.86544 1.86 2.04801 2.71676 2.91296 2.54533 2.14882 
2.06863 2.57325 2.37376 2.27306 2.42723 2.14791 1.93115 2.06601 1.84504 
1.24 
TEXTURE_COORDINATES TCoords 2 float
0 0 0.015873 0 0.031746 0 0.047619 0 0.0634921 
0 0.0793651 0 0.0952381 0 0.111111 0 0.126984 0 
0.142857 0 0.15873 0 0.174603 0 0.190476 0 0.206349 
0 0.222222 0 0.238095 0 0.253968 0 0.269841 0 
0.285714 0 0.301587 0 0.31746 0 0.333333 0 0.349206 
0 0.365079 0 0.380952 0 0.396825 0 0.412698 0 
0.428571 0 0.444444 0 0.460317 0 0.47619 0 0.492063 
0 0.507937 0 0.52381 0 0.539683 0 0.555556 0 
0.571429 0 0.587302 0 0.603175 0 0.619048 0 0.634921 
0 0.650794 0 0.666667 0 0.68254 0 0.698413 0 
0.714286 0 0.730159 0 0.746032 0 0.761905 0 0.777778 
0 0.793651 0 0.809524 0 0.825397 0 0.84127 0 
0.857143 0 0.873016 0 0.888889 0 0.904762 0 0.920635 
0 0.936508 0 0.952381 0 0.968254 0 0.984127 0 
1 0 
FIELD FieldData 4
Curvature 1 64 float
0.0969697 0.121649 0.158902 0.2078 0.227106 0.167636 0.0836777 0.0409754 0.0508394 
0.0899563 0.143647 0.21876 0.282274 0.269176 0.202918 0.140234 0.0937314 0.0752734 
0.0824709 0.104231 0.140141 0.216392 0.424652 0.584541 0.332871 0.149161 0.079909 
0.110579 0.152575 0.159805 0.132088 0.100275 0.0753607 0.0627256 0.0680167 0.0925422 
0.124473 0.159432 0.187334 0.194562 0.168385 0.124255 0.0811594 0.0518957 0.0411912 
0.0507931 0.0738354 0.0982242 0.101436 0.0739365 0.0368828 0.0508872 0.094176 0.140435 
0.186094 0.225806 0.233316 0.190416 0.120209 0.0547835 0.0279313 0.0871194 0.177633 
0.272257 
Torsion 1 64 float
-0.0615021 -0.0761868 -0.091998 -0.108002 -0.125079 -0.159588 -0.29179 -0.583286 -0.542787 
-0.377837 -0.260954 -0.183378 -0.142883 -0.114807 -0.113498 -0.156019 -0.286967 -0.365045 
-0.216366 -0.0550938 0.0456509 0.0921326 0.0907975 0.0383568 -0.074334 -0.29152 -0.705149 
-0.358041 -0.139366 -0.0544287 -0.0307361 -0.0542778 -0.155498 -0.295973 -0.274182 -0.133523 
-0.0528885 -0.0246275 -0.0216216 -0.0287894 -0.0412381 -0.0568388 -0.0863673 -0.136942 -0.109657 
0.00557358 0.0293193 0.00368921 -0.0521919 -0.208079 -0.830983 -0.490027 -0.105255 -0.0325942 
-0.0125163 -0.00653516 9.39851e-05 0.0158619 0.0534552 0.401999 1.0023 0.14064 0.0428444 
0.0186585 
Abscissas 1 64 double
0 1.0478759317 2.0248432052 3.0421200467 4.0551414639 5.0679189144 6.082105549 7.0966846978 8.1112481092 
9.1257003434 10.139817693 11.153357426 12.165424275 13.176561764 14.188995477 15.202569969 16.216731497 17.231099446 
18.245491828 19.25978654 20.273834672 21.287494093 22.300910793 23.302431129 24.307183965 25.319784478 26.334219082 
27.348570802 28.362488919 29.3760176 30.389796451 31.403957689 32.418288421 33.432707957 34.447203476 35.461611641 
36.475778319 37.489610655 38.503015286 39.516104614 40.529341091 41.543158092 42.557410354 43.571845739 44.586392665 
45.600934802 46.615423712 47.629753268 48.643906444 49.658206725 50.672746857 51.687313566 52.701729142 53.715836255 
54.729471928 55.742383385 56.754735617 57.767439443 58.781249539 59.79548296 60.810570687 61.828449456 62.807952741 
63.853630785 
ParallelTransportNormals 3 64 double
0.5056800916 0 0.8627210702 0.42443786348 0.014759701915 0.90533676124 0.33725435179 0.018477266173 0.94123222046 
0.23774046878 0.0018805639318 0.97132689296 0.17240141025 -0.028882655431 0.98460324292 0.16365650983 -0.036191924468 0.98585328087 
0.18050097835 -0.017060013838 0.98342684158 0.19410927553 -0.00030748935522 0.98097986452 0.17973324843 -0.016690708346 0.98357377947 
0.11055538676 -0.084617942891 0.99026123331 -0.031274226905 -0.20612052551 0.97802671318 -0.24485703558 -0.38095430786 0.89158221576 
-0.45289499876 -0.57606248692 0.6804690524 -0.5464212746 -0.72107722789 0.42599462682 -0.54803889875 -0.80166717371 0.23871134882 
-0.52322341496 -0.84144482821 0.13493650029 -0.50794524309 -0.85569542144 0.098878590999 -0.51635370594 -0.84877946188 0.11380806412 
-0.54989151606 -0.81905116132 0.16362920191 -0.60367741003 -0.76252117197 0.23266939402 -0.67299247564 -0.67316364868 0.30648300087 
-0.76147087961 -0.53328842592 0.36846377608 -0.88714796052 -0.29674659062 0.35342602777 -0.98354683738 -0.092329084852 0.15527703876 
-0.99851973867 -0.050924670271 -0.019105220151 -0.98943730147 -0.054549088527 -0.13430645331 -0.96849275861 -0.065777938919 -0.24019791686 
-0.93354870824 -0.072310861038 -0.35108111415 -0.88723078763 -0.06241670529 -0.45708389206 -0.84162770574 -0.035945932535 -0.53886055234 
-0.80631244551 -0.0047416412829 -0.5914708421 -0.7831498564 0.021359401188 -0.62146607181 -0.77289540101 0.035141858944 -0.63355958587 
-0.77792638446 0.027116538739 -0.62777004841 -0.79765305646 -0.012125527052 -0.60299467088 -0.82527446801 -0.0900281254 -0.55750963139 
-0.84606595167 -0.21021183909 -0.48988099385 -0.83768336837 -0.37230298708 -0.39959612131 -0.77494965309 -0.55927189462 -0.29439426466 
-0.65260318379 -0.73261385788 -0.19335464761 -0.50464088098 -0.85548779984 -0.11609567422 -0.37375322705 -0.92517441532 -0.06603655434 
-0.2772651564 -0.96013717391 -0.035505497171 -0.21074574808 -0.97740590194 -0.016246000142 -0.1579783885 -0.98744178748 -0.0012430233598 
-0.096439790345 -0.99520056564 0.016589182781 -0.0044730235698 -0.9990204536 0.044024145168 0.12132786329 -0.98916887073 0.082610500378 
0.24945482209 -0.96050409834 0.12330518563 0.33297762801 -0.93067759686 0.15154243613 0.35191557951 -0.92249140306 0.15863491473 
0.30978336559 -0.94035362035 0.14060346757 0.21193940638 -0.97293910452 0.092039051001 0.061329631309 -0.9981066808 0.0046615519325 
-0.1334499703 -0.98260446552 -0.12914940873 -0.34362590889 -0.88813585443 -0.30518181271 -0.5089474663 -0.71165015067 -0.4842794024 
-0.59049435701 -0.52620061262 -0.61190630787 -0.61502964006 -0.40138563579 -0.67869589157 -0.61904616891 -0.34985433914 -0.70312430063 
-0.61825736419 -0.37001682298 -0.69343015678 -0.61266651956 -0.45373485841 -0.64712009247 -0.56959557809 -0.65941894894 -0.49063991604 
-0.56959557809 -0.65941894894 -0.49063991604 
