# vtk DataFile Version 4.2
vtk output
ASCII
DATASET POLYDATA
POINTS 64 float
0 0 0 -0.974492 0.371114 -0.0616585 -1.91543 0.624039 -0.0491006 
-2.92539 0.778365 0.0496388 -3.91392 0.772059 0.264638 -4.85246 0.590885 0.603754 
-5.69878 0.252665 1.04856 -6.45207 -0.18822 1.56552 -7.14615 -0.672722 2.1249 
-7.82551 -1.15783 2.70152 -8.53514 -1.61591 3.2637 -9.32389 -2.03107 3.74802 
-10.2316 -2.42723 3.96387 -11.0039 -2.87061 3.52625 -11.2708 -3.34136 2.66182 
-11.2261 -3.83176 1.77634 -11.001 -4.35248 0.935453 -10.6356 -4.90793 0.169487 
-10.1436 -5.50225 -0.489169 -9.5293 -6.13972 -0.981991 -8.80315 -6.81314 -1.19371 
-8.09945 -7.38162 -0.760838 -7.90784 -7.41069 0.233272 -8.01922 -7.12639 1.19702 
-8.19283 -6.7436 2.12121 -8.34754 -6.34687 3.04196 -8.43812 -6.01177 3.99511 
-8.43687 -5.83195 4.99301 -8.34063 -5.9132 5.99843 -8.18151 -6.31167 6.9161 
-8.00693 -6.98875 7.64959 -7.84908 -7.85574 8.15051 -7.71738 -8.82572 8.41468 
-7.61129 -9.83297 8.4662 -7.53045 -10.8373 8.34947 -7.47883 -11.8248 8.12237 
-7.46438 -12.8019 7.84941 -7.49534 -13.7852 7.60179 -7.57061 -14.7861 7.4554 
-7.66523 -15.7958 7.46985 -7.72607 -16.7906 7.65787 -7.68592 -17.7485 7.98849 
-7.47466 -18.6451 8.41234 -7.03203 -19.4326 8.87198 -6.34487 -20.0386 9.30475 
-5.47612 -20.4143 9.66749 -4.51768 -20.5758 9.95697 -3.53194 -20.5781 10.1965 
-2.54662 -20.4768 10.416 -1.57159 -20.3162 10.6459 -0.612521 -20.13 10.9195 
0.318985 -19.9447 11.2761 1.19672 -19.7803 11.757 1.98537 -19.6454 12.3803 
2.67877 -19.5364 13.1127 3.32362 -19.4525 13.8916 3.98863 -19.4108 14.6566 
4.71434 -19.4468 15.3644 5.48794 -19.6 16.0023 6.25528 -19.9005 16.5939 
6.93509 -20.3681 17.181 7.40908 -21.0189 17.8119 7.5934 -21.7439 18.4387 
7.46521 -22.5408 19.1006 
LINES 1 65
64 0 1 2 3 4 5 6 7 8 9 10 11 12 13 14 15 16 17 18 19 20 21 22 23 24 25 26 27 28 29 30 31 32 33 34 35 36 37 38 39 40 41 42 43 44 45 46 47 48 49 50 51 52 53 54 55 56 57 58 59 60 61 62 63 

POINT_DATA 64
SCALARS MaximumInscribedSphereRadius float
LOOKUP_TABLE default
1.24 1.24 1.24 1.24 1.24 1.24 1.23999 1.22067 1.14961 
1.15629 1.22773 1.41251 1.54734 1.23046 0.90135 1.1605 1.17075 1.06135 
1.23183 1.48825 1.55 1.70034 1.81358 1.61817 1.25596 1.34436 1.54955 
1.54205 1.45138 1.26579 1.05841 1.08261 1.40728 1.55 1.56727 1.68252 
1.84543 1.86 1.86 1.85972 1.66433 1.29765 1.56098 1.76916 1.43492 
1.62458 2.134 2.05906 1.85406 1.5261 1.33747 1.44528 1.72251 2.09053 
2.17 2.1764 2.191 2.1948 2.15325 2.02788 2.04228 2.07894 1.84111 
1.55 
TEXTURE_COORDINATES TCoords 2 float
0 0 0.015873 0 0.031746 0 0.047619 0 0.0634921 
0 0.0793651 0 0.0952381 0 0.111111 0 0.126984 0 
0.142857 0 0.15873 0 0.174603 0 0.190476 0 0.206349 
0 0.222222 0 0.238095 0 0.253968 0 0.269841 0 
0.285714 0 0.301587 0 0.31746 0 0.333333 0 0.349206 
0 0.365079 0 0.380952 0 0.396825 0 0.412698 0 
0.428571 0 0.444444 0 0.460317 0 0.47619 0 0.492063 
0 0.507937 0 0.52381 0 0.539683 0 0.555556 0 
0.571429 0 0.587302 0 0.603175 0 0.619048 0 0.634921 
0 0.650794 0 0.666667 0 0.68254 0 0.698413 0 
0.714286 0 0.730159 0 0.746032 0 0.761905 0 0.777778 
0 0.793651 0 0.809524 0 0.825397 0 0.84127 0 
0.857143 0 0.873016 0 0.888889 0 0.904762 0 0.920635 
0 0.936508 0 0.952381 0 0.968254 0 0.984127 0 
1 0 
FIELD FieldData 4
Curvature 1 64 float
0.088751 0.109272 0.135637 0.165187 0.184682 0.176006 0.13447 0.0770057 0.0288151 
0.0496643 0.130696 0.288985 0.596632 0.602826 0.314905 0.179857 0.13612 0.141923 
0.187497 0.2976 0.583385 0.919552 0.414771 0.155912 0.054659 0.080764 0.158548 
0.232368 0.276594 0.276141 0.25016 0.215922 0.18065 0.140807 0.095127 0.053283 
0.0532775 0.0982012 0.135749 0.147148 0.148651 0.169182 0.213813 0.252496 0.24971 
0.205786 0.146072 0.0902629 0.0519707 0.0510265 0.0854358 0.127845 0.152303 0.125319 
0.062763 0.0468774 0.0955189 0.122592 0.129297 0.158591 0.221352 0.277973 0.279458 
0.23526 
Torsion 1 64 float
0.0204659 0.0191403 0.0161557 0.0100902 0.00862611 0.0209768 0.0660867 0.195163 1.32558 
0.807047 0.172128 0.210097 0.259655 0.22115 0.136807 0.11559 0.109418 0.0948906 
0.0747507 0.0525183 0.0236959 -0.0411919 -0.0802368 -0.172444 -0.721484 -0.385298 -0.149406 
-0.123404 -0.0960716 -0.0597975 -0.0171517 0.012997 0.0083663 -0.0368677 -0.173373 -0.707487 
-0.676131 -0.261126 -0.219543 -0.291723 -0.35396 -0.284097 -0.14916 -0.0482747 0.00939912 
0.042058 0.0752749 0.165839 0.487565 0.546533 0.170901 0.0271759 -0.0237518 0.0116146 
0.840673 1.2931 -0.0332964 -0.258828 -0.398461 -0.365955 -0.215948 -0.107003 -0.0500786 
-0.0234814 
Abscissas 1 64 double
0 1.0445870215 2.0190063157 3.0454493504 4.0571092874 5.0713483994 6.0854997497 7.0999322742 8.114523372 
9.1290923185 10.143714657 11.1581355 12.171778194 13.164020233 14.183863571 15.197058894 16.211410953 17.225682101 
18.240131693 19.253347665 20.266072968 21.268939597 22.281764468 23.292725569 24.308006727 25.322457396 26.33684975 
27.350822666 28.364100761 29.377123968 30.390496133 31.404157411 32.418056453 33.432187447 34.446505435 35.461095966 
36.475709659 37.490181711 38.504527297 39.518753816 40.532992062 41.547140049 42.56112675 43.574707787 44.587977979 
45.601613617 46.615757408 47.630185048 48.644728154 49.659287026 50.673851653 51.688347834 52.70260164 53.716835125 
54.731278569 55.745948358 56.760444565 57.774807366 58.789126608 59.803573077 60.816231292 61.839091074 62.815041031 
63.85887675 
ParallelTransportNormals 3 64 double
-0.063146180978 0 0.99800428848 0.0072171557133 -0.022787062298 0.99971429041 0.091101823862 -0.040424488828 0.99502076279 
0.21256697777 -0.049350798994 0.97589947157 0.34580388613 -0.036404317866 0.93760034022 0.4657068256 -0.0015120474134 0.88493777539 
0.54963590608 0.039365309912 0.83447632868 0.59627927123 0.069186893169 0.79979010029 0.61130729887 0.079796260897 0.78736011017 
0.59259994026 0.067093086752 0.80269784384 0.51479973966 0.021752404059 0.85703445728 0.26955713943 -0.095528917131 0.95823440482 
-0.2857202738 -0.37341943739 0.88256549271 -0.57778949444 -0.6285301124 0.52068147453 -0.59743772065 -0.71391770885 0.36522551243 
-0.58819897743 -0.74855413635 0.30608604656 -0.5784949487 -0.76623931996 0.27967999369 -0.57285570107 -0.77380160665 0.27030985796 
-0.57729510859 -0.76885885594 0.27492984057 -0.60427042836 -0.74247877307 0.28910641806 -0.70070201839 -0.65875102751 0.27397767278 
-0.78865244507 -0.59995532987 0.13446532282 -0.79057330346 -0.60609429777 0.087427421738 -0.7925129338 -0.60155343092 0.10028319653 
-0.79629378253 -0.59257638911 0.12152956415 -0.79756088734 -0.58879592137 0.13120973273 -0.79650725582 -0.59487024027 0.10819236882 
-0.80040010623 -0.59880131245 0.028225133202 -0.81794167393 -0.56584593431 -0.10387394608 -0.84536061734 -0.47747483787 -0.23954791974 
-0.87191733652 -0.35412724502 -0.33816276053 -0.89186927573 -0.2275499935 -0.39088386442 -0.90525490188 -0.11624985004 -0.40865576588 
-0.91360638746 -0.026379512577 -0.40574313316 -0.91819220952 0.042576466386 -0.39384046376 -0.91988272686 0.09284382793 -0.38104565663 
-0.91962953305 0.12290232785 -0.37306372077 -0.91958704903 0.12369583683 -0.37290615336 -0.92318329841 0.081135498006 -0.37569885347 
-0.93043132723 -0.012320459682 -0.36625913174 -0.93191749935 -0.15261443076 -0.32899636764 -0.90727856298 -0.33435067269 -0.25505928102 
-0.82462979526 -0.54719555438 -0.14339709214 -0.65737600076 -0.75347815614 -0.011289900208 -0.43115976516 -0.89621824531 0.10437487094 
-0.21634302951 -0.95938206265 0.18105731534 -0.056814084568 -0.97282440448 0.22446567188 0.04424544131 -0.96774886288 0.24800096638 
0.096919645358 -0.96071167757 0.2600762483 0.11081094639 -0.95822083985 0.26369254112 0.092687344172 -0.96178214871 0.25765122677 
0.051046816524 -0.96983060631 0.23837537116 0.0037295367372 -0.97832930816 0.20702138864 -0.030710421289 -0.98399710086 0.17551802053 
-0.053065231585 -0.98721942949 0.15027268293 -0.077579387379 -0.98956995447 0.12137851482 -0.12180277775 -0.98975101852 0.074545319566 
-0.19866671642 -0.98005135645 0.0055564836634 -0.30812708857 -0.94782358894 -0.081781058506 -0.44019312244 -0.87771017148 -0.1893538218 
-0.57761526863 -0.74473248026 -0.33426656174 -0.654122069 -0.58296813178 -0.4819465491 -0.66156264479 -0.41329625664 -0.62571644637 
-0.66156264479 -0.41329625664 -0.62571644637 
