# vtk DataFile Version 4.2
vtk output
ASCII
DATASET POLYDATA
POINTS 64 float
0 0 0 -0.863691 0.111826 0.581646 -1.71297 0.217271 1.04357 
-2.63643 0.301169 1.48145 -3.57519 0.331685 1.86072 -4.53404 0.276236 2.18721 
-5.49506 0.0843627 2.44858 -6.41492 -0.303104 2.62525 -7.2276 -0.903775 2.7032 
-7.90714 -1.65652 2.69306 -8.49291 -2.48132 2.61719 -9.04327 -3.32367 2.48716 
-9.60832 -4.14447 2.2969 -10.2208 -4.90492 2.02228 -10.8829 -5.56323 1.62644 
-11.5552 -6.0896 1.07962 -12.1709 -6.48989 0.380374 -12.6676 -6.80413 -0.446023 
-13.0045 -7.08455 -1.36049 -13.1599 -7.37428 -2.31981 -13.1274 -7.70027 -3.2795 
-12.913 -8.07627 -4.19655 -12.5303 -8.50985 -5.02954 -11.9934 -9.01163 -5.72796 
-11.3191 -9.60096 -6.20174 -10.5777 -10.2835 -6.28376 -9.97752 -10.9683 -5.84753 
-9.69358 -11.5138 -5.04408 -9.70588 -11.8694 -4.0955 -9.91612 -12.0442 -3.11907 
-10.2327 -12.0674 -2.15574 -10.5859 -11.9713 -1.20964 -10.918 -11.7905 -0.268197 
-11.1739 -11.5687 0.688027 -11.2954 -11.3715 1.67539 -11.2282 -11.3049 2.68443 
-10.9672 -11.4882 3.64545 -10.5927 -11.9482 4.467 -10.1984 -12.6079 5.1284 
-9.82842 -13.3865 5.66293 -9.49111 -14.2335 6.10788 -9.17907 -15.1202 6.48965 
-8.87644 -16.029 6.82403 -8.55776 -16.9463 7.11812 -8.18241 -17.8543 7.3708 
-7.68729 -18.7163 7.57151 -6.99886 -19.4485 7.70099 -6.11361 -19.9382 7.75236 
-5.12796 -20.1762 7.75848 -4.11597 -20.2456 7.761 -3.10192 -20.223 7.78441 
-2.09117 -20.1561 7.84168 -1.08453 -20.0767 7.94027 -0.0833993 -20.0007 8.08628 
0.909423 -19.937 8.28519 1.88942 -19.8869 8.54286 2.85049 -19.8501 8.86576 
3.78455 -19.8287 9.26108 4.68047 -19.8302 9.73701 5.52176 -19.8701 10.3024 
6.28168 -19.9733 10.9646 6.9146 -20.1837 11.7394 7.34725 -20.5036 12.553 
7.51125 -21.0138 13.451 
LINES 1 65
64 0 1 2 3 4 5 6 7 8 9 10 11 12 13 14 15 16 17 18 19 20 21 22 23 24 25 26 27 28 29 30 31 32 33 34 35 36 37 38 39 40 41 42 43 44 45 46 47 48 49 50 51 52 53 54 55 56 57 58 59 60 61 62 63 

POINT_DATA 64
SCALARS MaximumInscribedSphereRadius float
LOOKUP_TABLE default
0.9796 0.954368 1.10105 1.46057 1.54966 1.52404 1.34038 1.24201 1.2775 
1.63957 1.84667 1.8037 1.58235 1.38038 1.90283 1.86326 1.48099 1.89014 
1.97611 1.67438 1.7132 1.93641 2.27783 2.25518 1.92822 1.88127 1.93255 
1.79194 1.7284 1.99861 1.83677 1.63551 1.75223 1.85311 1.87431 2.04984 
1.94007 1.59231 1.54742 1.46704 1.30842 1.56274 2.05646 1.89449 1.66012 
1.7692 1.7242 1.64635 2.02689 2.12852 2.05098 1.78788 1.48752 1.12644 
1.02997 1.19933 1.50593 1.71014 1.46677 1.37497 1.64979 1.63068 1.6616 
1.86 
TEXTURE_COORDINATES TCoords 2 float
0 0 0.015873 0 0.031746 0 0.047619 0 0.0634921 
0 0.0793651 0 0.0952381 0 0.111111 0 0.126984 0 
0.142857 0 0.15873 0 0.174603 0 0.190476 0 0.206349 
0 0.222222 0 0.238095 0 0.253968 0 0.269841 0 
0.285714 0 0.301587 0 0.31746 0 0.333333 0 0.349206 
0 0.365079 0 0.380952 0 0.396825 0 0.412698 0 
0.428571 0 0.444444 0 0.460317 0 0.47619 0 0.492063 
0 0.507937 0 0.52381 0 0.539683 0 0.555556 0 
0.571429 0 0.587302 0 0.603175 0 0.619048 0 0.634921 
0 0.650794 0 0.666667 0 0.68254 0 0.698413 0 
0.714286 0 0.730159 0 0.746032 0 0.761905 0 0.777778 
0 0.793651 0 0.809524 0 0.825397 0 0.84127 0 
0.857143 0 0.873016 0 0.888889 0 0.904762 0 0.920635 
0 0.936508 0 0.952381 0 0.968254 0 0.984127 0 
1 0 
FIELD FieldData 4
Curvature 1 64 float
0.187188 0.102287 0.0660515 0.0620901 0.0841609 0.126298 0.176936 0.206153 0.179868 
0.115207 0.0610956 0.0552048 0.0939144 0.136527 0.161353 0.164179 0.155797 0.148871 
0.150069 0.15234 0.153248 0.154787 0.17502 0.233795 0.340565 0.444148 0.40852 
0.311872 0.223328 0.153306 0.102736 0.0727526 0.0786368 0.122909 0.192253 0.257075 
0.267067 0.217444 0.153979 0.102507 0.0651409 0.0434232 0.0464826 0.0797601 0.134757 
0.207857 0.265682 0.230064 0.15531 0.0882544 0.0542695 0.0343661 0.0384926 0.0448689 
0.0501534 0.0558497 0.0636655 0.0747426 0.0912849 0.116645 0.155583 0.204881 0.248172 
0.256056 
Torsion 1 64 float
0.0820563 0.133476 0.2142 0.220504 0.143543 0.0907597 0.0585056 0.0248855 -0.0259617 
-0.147766 -0.555559 -0.534553 -0.0644002 0.0990154 0.176182 0.245139 0.284933 0.26715 
0.194374 0.130917 0.0978385 0.0937686 0.104053 0.10758 0.105673 0.0950587 0.0527728 
-0.0203831 -0.0916299 -0.152338 -0.291293 -0.543882 -0.540931 -0.330389 -0.240552 -0.201885 
-0.156752 -0.113381 -0.0774607 -0.036222 0.0513215 0.267619 0.335902 0.174328 0.0959443 
0.0707276 0.0702531 0.0878863 0.115528 0.192577 0.438079 -0.0514917 0.404869 0.00808558 
-0.025329 -0.0193307 0.0171677 0.0593511 0.0856887 0.0888284 0.0714521 0.049148 0.0313182 
0.0195036 
Abscissas 1 64 double
0 1.0472722899 2.019777993 3.0452320798 4.0581720751 5.0725997392 6.0868428246 7.1004921622 8.1140655383 
9.1282164562 10.142700726 11.157273119 12.171764925 13.186078563 14.200197599 15.214132534 16.228166274 17.242261435 
18.256355721 19.270450011 20.284516524 21.2985796 22.312642232 23.326464905 24.339606636 25.350676921 26.360361849 
27.372154422 28.385271657 29.399259353 30.413540564 31.42798159 32.442522926 33.456941024 34.471108505 35.48457425 
36.497135169 37.510443965 38.524409425 39.538720339 40.553198585 41.567769751 42.5823195 43.596956065 44.61144952 
45.625585335 46.638906216 47.651878559 48.66587411 49.68024409 50.69481626 51.709395333 52.723963434 53.73853605 
54.753089577 55.76763296 56.782164489 57.796661237 58.811148564 59.825557896 60.838789273 61.861125307 62.836557035 
63.882312331 
ParallelTransportNormals 3 64 double
0.55858491585 0 0.82944734118 0.47874499546 0.010118938894 0.87789568651 0.42953801129 0.015396349181 0.90291752076 
0.37505277658 0.018734141861 0.92681413817 0.32134154227 0.018030201094 0.94679170099 0.26052885882 0.010195771061 0.96541222282 
0.19292079033 -0.010630748662 0.98115674377 0.12956732213 -0.046764168632 0.99046727435 0.083385977381 -0.088647393131 0.99256658138 
0.051868231969 -0.12794185019 0.99042443906 0.024487185678 -0.168120538 0.98546225825 -0.0098688525604 -0.21934762401 0.97559685608 
-0.064442659376 -0.29263172445 0.95405126566 -0.15323455156 -0.39146665711 0.90734394172 -0.2758362084 -0.50031126468 0.82073322375 
-0.40480493248 -0.59309906915 0.69596441059 -0.50726564969 -0.65891287854 0.55544160731 -0.56949783152 -0.7033070452 0.42547787259 
-0.59747761727 -0.7357114143 0.31898152255 -0.60264499855 -0.76160018855 0.23829426874 -0.59520953723 -0.78274082407 0.18177571104 
-0.5835377996 -0.79856596812 0.14756703901 -0.57645253446 -0.80577257474 0.13576830743 -0.58958012112 -0.79394671018 0.14847189021 
-0.65635847496 -0.73395122062 0.17466870958 -0.78715110997 -0.60063746331 0.14009913537 -0.88707845729 -0.46161867832 8.0203307153e-05 
-0.91113565429 -0.3818605797 -0.15496553535 -0.89934781606 -0.35375066748 -0.25697075906 -0.88763013384 -0.34934608037 -0.30011674667 
-0.888937498 -0.34920380286 -0.29638965689 -0.90459829047 -0.34287605352 -0.2532547034 -0.929422513 -0.32587879027 -0.17313811358 
-0.95196191584 -0.30085398024 -0.057056054563 -0.95574750196 -0.28244400107 0.082292762468 -0.93628464882 -0.28936933724 0.19908903298 
-0.91912359878 -0.30673940821 0.24723014705 -0.92043985816 -0.30482247184 0.24469108722 -0.93076520729 -0.28539156271 0.22853399053 
-0.9409219412 -0.26204799482 0.21446852678 -0.94743941824 -0.2446470087 0.2061707785 -0.94879901452 -0.24067551771 0.20458671809 
-0.94233077555 -0.25968641356 0.21112952439 -0.92053769618 -0.31700191883 0.22829834292 -0.86242658272 -0.43516063178 0.25856452575 
-0.72118798631 -0.6253852711 0.29796166044 -0.47194862506 -0.81889906341 0.32660192781 -0.22318076265 -0.91567880188 0.3342494263 
-0.065294529026 -0.93997708844 0.33493237779 0.013234460546 -0.94179135412 0.33593733694 0.043146404488 -0.94046918544 0.33712920227 
0.041187591932 -0.94061123689 0.33697786769 0.022696566473 -0.94204242266 0.33472517053 -0.0055152300214 -0.94401899035 0.32984500618 
-0.036488921147 -0.94580567477 0.32267659384 -0.06888569679 -0.94725606279 0.31298676055 -0.10495164518 -0.94836366989 0.29931839537 
-0.14936167094 -0.94884658603 0.27817485048 -0.20818534589 -0.94744465801 0.2429145565 -0.28683942179 -0.94041330024 0.18260879182 
-0.39353713721 -0.9164366163 0.072611637716 -0.4939559368 -0.86599671178 -0.077828193395 -0.57979493628 -0.74935177578 -0.31985895016 
-0.57979493628 -0.74935177578 -0.31985895016 
