# vtk DataFile Version 4.2
vtk output
ASCII
DATASET POLYDATA
POINTS 64 float
0 0 0 -0.679435 0.567826 -0.552059 -1.4322 1.17885 -0.679716 
-2.23126 1.78681 -0.495079 -2.98508 2.29405 -0.0470417 -3.68698 2.67008 0.58078 
-4.32639 2.87087 1.34159 -4.89005 2.83822 2.18334 -5.36518 2.53151 3.02423 
-5.76437 1.98488 3.7791 -6.13332 1.29479 4.42461 -6.52643 0.557116 4.99964 
-6.98704 -0.155231 5.55602 -7.54275 -0.794658 6.11389 -8.20684 -1.34118 6.65158 
-8.98159 -1.80026 7.11817 -9.85528 -2.19529 7.44842 -10.7916 -2.56106 7.58071 
-11.7258 -2.94067 7.47579 -12.5668 -3.38178 7.12194 -13.1862 -3.92334 6.53159 
-13.4479 -4.55634 5.7864 -13.3264 -5.21924 5.03011 -12.9166 -5.86307 4.3626 
-12.3175 -6.47564 3.8202 -11.5851 -7.05632 3.42677 -10.7509 -7.59694 3.22746 
-9.85398 -8.06052 3.31598 -9.01951 -8.34377 3.80998 -8.42955 -8.36536 4.63184 
-8.08633 -8.19401 5.57025 -7.9012 -7.92156 6.52966 -7.81297 -7.60817 7.49053 
-7.78745 -7.30491 8.45837 -7.80779 -7.07576 9.44636 -7.87149 -7.01333 10.4564 
-7.9878 -7.21083 11.4434 -8.15969 -7.67454 12.3282 -8.37154 -8.33238 13.0703 
-8.59953 -9.12124 13.6655 -8.81644 -10.0053 14.1127 -8.99331 -10.9597 14.4069 
-9.10484 -11.9578 14.5484 -9.13358 -12.9717 14.5553 -9.06684 -13.9797 14.4633 
-8.88808 -14.9678 14.3195 -8.56864 -15.9205 14.181 -8.07004 -16.8011 14.1193 
-7.38125 -17.5397 14.2021 -6.55801 -18.0823 14.4377 -5.67264 -18.442 14.7773 
-4.76328 -18.6619 15.1694 -3.84228 -18.777 15.5789 -2.91255 -18.8095 15.9837 
-1.97533 -18.7748 16.3706 -1.0336 -18.6892 16.7383 -0.0915345 -18.5743 17.0971 
0.846154 -18.4573 17.4665 1.77282 -18.3667 17.8695 2.67722 -18.3274 18.3279 
3.53978 -18.3565 18.8572 4.34283 -18.4726 19.4845 5.02068 -18.6602 20.1584 
5.60568 -18.9556 20.9729 
LINES 1 65
64 0 1 2 3 4 5 6 7 8 9 10 11 12 13 14 15 16 17 18 19 20 21 22 23 24 25 26 27 28 29 30 31 32 33 34 35 36 37 38 39 40 41 42 43 44 45 46 47 48 49 50 51 52 53 54 55 56 57 58 59 60 61 62 63 

POINT_DATA 64
SCALARS MaximumInscribedSphereRadius float
LOOKUP_TABLE default
1.116 0.863978 0.75662 0.869263 0.752334 0.69216 0.906997 1.13186 0.96785 
0.729475 0.923326 1.1616 1.2772 1.33795 1.50893 1.66226 1.7546 1.78446 
1.90995 1.88696 1.68603 1.37816 1.2772 1.39739 1.66447 1.71863 1.61097 
1.34566 1.26044 1.22568 1.14481 1.22242 1.30947 1.37065 1.21673 1.16674 
1.23377 1.24 1.24 1.36544 1.49205 1.33011 1.56665 2.09802 1.6238 
1.38936 1.74459 1.86 1.75514 1.57975 1.55884 1.55 1.50542 1.28193 
1.21539 1.41598 1.25581 1.02787 1.16325 1.24 1.24569 1.26679 1.26256 
1.24 
TEXTURE_COORDINATES TCoords 2 float
0 0 0.015873 0 0.031746 0 0.047619 0 0.0634921 
0 0.0793651 0 0.0952381 0 0.111111 0 0.126984 0 
0.142857 0 0.15873 0 0.174603 0 0.190476 0 0.206349 
0 0.222222 0 0.238095 0 0.253968 0 0.269841 0 
0.285714 0 0.301587 0 0.31746 0 0.333333 0 0.349206 
0 0.365079 0 0.380952 0 0.396825 0 0.412698 0 
0.428571 0 0.444444 0 0.460317 0 0.47619 0 0.492063 
0 0.507937 0 0.52381 0 0.539683 0 0.555556 0 
0.571429 0 0.587302 0 0.603175 0 0.619048 0 0.634921 
0 0.650794 0 0.666667 0 0.68254 0 0.698413 0 
0.714286 0 0.730159 0 0.746032 0 0.761905 0 0.777778 
0 0.793651 0 0.809524 0 0.825397 0 0.84127 0 
0.857143 0 0.873016 0 0.888889 0 0.904762 0 0.920635 
0 0.936508 0 0.952381 0 0.968254 0 0.984127 0 
1 0 
FIELD FieldData 4
Curvature 1 64 float
0.321261 0.339747 0.287767 0.223646 0.188698 0.189063 0.218778 0.240451 0.219171 
0.15322 0.0792752 0.0655115 0.0981103 0.118376 0.129761 0.148478 0.172878 0.195794 
0.224743 0.280359 0.332792 0.321988 0.257335 0.191941 0.1633 0.187118 0.264617 
0.379935 0.408196 0.283747 0.164097 0.0892451 0.0624698 0.0939334 0.160088 0.224198 
0.240268 0.207209 0.168068 0.14691 0.142871 0.14103 0.130602 0.112707 0.103754 
0.125954 0.178323 0.231622 0.236377 0.187264 0.1322 0.0922423 0.0690961 0.0575806 
0.0461241 0.0281291 0.0190825 0.0379715 0.0652218 0.0890717 0.111723 0.131868 0.146112 
0.150941 
Torsion 1 64 float
-0.0200889 -0.0395325 -0.067362 -0.0999117 -0.128562 -0.141479 -0.137874 -0.142881 -0.168584 
-0.258335 -0.674146 -0.774723 -0.058485 0.176221 0.299414 0.291373 0.258139 0.242355 
0.221981 0.165025 0.111624 0.0881923 0.0869735 0.104257 0.110608 0.080372 0.0380797 
0.000185711 -0.0228438 -0.014777 0.037071 0.24512 0.502849 0.283104 0.0759098 -0.00769709 
-0.0268621 0.00674139 0.0541827 0.106176 0.109491 0.104958 0.135595 0.231964 0.344489 
0.306563 0.182035 0.0803866 0.011958 -0.0365334 -0.0865531 -0.138093 -0.166633 -0.121645 
-0.0130586 0.292883 0.565833 0.18215 -0.00222414 -0.0302512 -0.0345056 -0.035921 -0.0291051 
-0.0205269 
Abscissas 1 64 double
0 1.0434689303 2.0213757727 3.0422593176 4.055311287 5.0693242442 6.0832243583 7.096793252 8.1101615713 
9.1240578939 10.138469823 11.153042655 12.16751699 13.181863918 14.196167401 15.210415522 16.224539605 17.238435024 
18.252259654 19.265704088 20.278352651 21.290520741 22.303522778 23.317437062 24.331518099 25.345612043 26.359458089 
27.372970887 28.383221488 29.395137211 30.40892898 31.423310683 32.43783933 33.452399563 34.466818942 35.480789643 
36.494053825 37.507682884 38.521757017 39.535927198 40.55012646 41.564382939 42.578614319 43.592944839 44.607332825 
45.62171708 46.636044836 47.649881685 48.66320143 49.676930586 50.6911258 51.705539042 52.720023919 53.734576316 
54.749109201 55.763696058 56.77830227 57.792898345 58.807456057 59.822155618 60.834586087 61.860195493 62.83426593 
63.879683616 
ParallelTransportNormals 3 64 double
-0.63060504117 0 0.77610391189 -0.34490089071 -0.23505349211 0.90873166085 -0.11068960605 -0.41915834014 0.90114044244 
0.10037890628 -0.57070135913 0.81499940727 0.26294269016 -0.66934353439 0.69486716333 0.41236383577 -0.73360004896 0.5401731529 
0.55888426965 -0.75407317463 0.34499568178 0.69093678282 -0.71092943037 0.13109426831 0.78259225267 -0.62148189256 -0.036188717646 
0.8265478485 -0.55071532316 -0.11632406021 0.83190140718 -0.54068512119 -0.12489855264 0.80386084285 -0.58831105059 -0.087737409878 
0.74464922498 -0.66706577573 -0.022820661199 0.65991316085 -0.74945004172 0.053284661024 0.55975707534 -0.81944856587 0.12319117055 
0.45906012307 -0.87162247408 0.1718664193 0.38051178741 -0.90463835976 0.19193805693 0.35080321235 -0.91647688325 0.19237262976 
0.38703196297 -0.89972701218 0.20173637054 0.48108241218 -0.83643630765 0.26255288218 0.57409612235 -0.71242905185 0.40355729256 
0.59090428107 -0.55724322992 0.58336276306 0.53499061524 -0.41968923532 0.73324347072 0.44560118939 -0.30836914527 0.84044515006 
0.33132336681 -0.20595672553 0.9207641684 0.17381606138 -0.093221617997 0.9803559082 -0.072610047814 0.049724269253 0.99612011224 
-0.44429718479 0.20999733933 0.87091970299 -0.77611104082 0.28104846841 0.56450279957 -0.92166076365 0.25772367787 0.29003438177 
-0.96773845165 0.21902556013 0.12453952471 -0.98144420029 0.1896536032 0.028262917691 -0.98475295586 0.17171666918 -0.027838848002 
-0.98483328681 0.16345567716 -0.058186242263 -0.98425001871 0.16143249555 -0.072051717881 -0.98322621143 0.1622011439 -0.083408669109 
-0.9803630459 0.16876978722 -0.10200518196 -0.97639234936 0.1803746974 -0.11884001282 -0.97432340185 0.1871797533 -0.12513052611 
-0.97652361205 0.17890649328 -0.11997542153 -0.98294918928 0.14890718596 -0.10787743634 -0.99061030603 0.097040523527 -0.096303470273 
-0.99545186389 0.027596494791 -0.091181248966 -0.99385911594 -0.057156078884 -0.094748299808 -0.98097874571 -0.16188288666 -0.10711970624 
-0.94586234375 -0.29868191375 -0.12701787703 -0.86514480672 -0.479565731 -0.14676911481 -0.71559367684 -0.68349019762 -0.14410704153 
-0.52634882203 -0.84385241802 -0.10425935998 -0.360009183 -0.93169954391 -0.048263319662 -0.23598093889 -0.97175495771 0.002301879736 
-0.14275331462 -0.98881810357 0.043130606478 -0.067893169918 -0.99478849268 0.076068208303 -0.005496235887 -0.99471490689 0.10252826637 
0.042567176866 -0.99163766804 0.12183091059 0.070136381206 -0.98870339058 0.13246317784 0.071031989628 -0.98859290221 0.13281012815 
0.044052322588 -0.99159716336 0.12163247301 -0.0063812019409 -0.99517512755 0.097906821861 -0.071371544594 -0.99554743458 0.061574411218 
-0.14898686851 -0.98880903661 0.0077202414213 -0.21743749021 -0.97465532581 -0.052611155805 -0.28882120484 -0.94763878918 -0.13624623617 
-0.28882120484 -0.94763878918 -0.13624623617 
