# vtk DataFile Version 4.2
vtk output
ASCII
DATASET POLYDATA
POINTS 64 float
0 0 0 -0.982575 0.213528 -0.282055 -1.94807 0.248048 -0.414145 
-2.96143 0.0967223 -0.409394 -3.90006 -0.250695 -0.259126 -4.75707 -0.736463 -0.0163134 
-5.547 -1.3037 0.272685 -6.30272 -1.91045 0.572904 -7.05343 -2.53089 0.857333 
-7.81746 -3.1529 1.09961 -8.59687 -3.7798 1.26911 -9.36745 -4.43698 1.32618 
-10.057 -5.17265 1.21967 -10.5285 -6.01422 0.912543 -10.6921 -6.89946 0.447091 
-10.6097 -7.75456 -0.0921312 -10.3753 -8.56489 -0.65559 -10.0449 -9.34166 -1.21877 
-9.64188 -10.1058 -1.74802 -9.17766 -10.8799 -2.21975 -8.57232 -11.672 -2.0833 
-8.34758 -11.6462 -1.12034 -8.29168 -11.31 -0.171243 -8.26748 -10.8831 0.752373 
-8.23927 -10.4355 1.66149 -8.18997 -10.0181 2.58508 -8.10171 -9.71487 3.54882 
-7.96014 -9.67747 4.55094 -7.79333 -10.0537 5.47484 -7.67318 -10.7637 6.18844 
-7.63581 -11.6334 6.70876 -7.68148 -12.5686 7.09926 -7.79687 -13.5286 7.40622 
-7.95793 -14.4976 7.66025 -8.12836 -15.4725 7.8836 -8.25865 -16.4562 8.09473 
-8.28558 -17.4468 8.31141 -8.14084 -18.4212 8.55221 -7.77845 -19.3249 8.83463 
-7.20395 -20.089 9.17189 -6.47226 -20.6667 9.57059 -5.65493 -21.0518 10.0312 
-4.80956 -21.2709 10.5471 -3.96879 -21.3667 11.1067 -3.14244 -21.3817 11.6951 
-2.32594 -21.3485 12.2964 -1.50943 -21.2854 12.8954 -0.685327 -21.1976 13.4807 
0.147479 -21.0856 14.0492 0.984321 -20.9561 14.6081 1.81812 -20.8294 15.1722 
2.64001 -20.7431 15.7607 3.43274 -20.7556 16.3934 4.15604 -20.9402 17.0795 
4.742 -21.3443 17.8011 5.13977 -21.9334 18.5241 5.35188 -22.6228 19.2372 
5.40191 -23.3441 19.9485 5.30908 -24.0528 20.6683 5.08705 -24.7177 21.402 
4.74972 -25.3137 22.1468 4.29868 -25.8411 22.9036 3.79244 -26.2825 23.6098 
3.16759 -26.785 24.2791 
LINES 1 65
64 0 1 2 3 4 5 6 7 8 9 10 11 12 13 14 15 16 17 18 19 20 21 22 23 24 25 26 27 28 29 30 31 32 33 34 35 36 37 38 39 40 41 42 43 44 45 46 47 48 49 50 51 52 53 54 55 56 57 58 59 60 61 62 63 

POINT_DATA 64
SCALARS MaximumInscribedSphereRadius float
LOOKUP_TABLE default
1.24 1.24 1.24 1.24 1.30676 1.47114 1.55 1.55 1.55 
1.52818 1.39948 1.27093 1.30469 1.66407 1.96574 1.88841 1.68007 1.39963 
1.24 1.25937 1.40566 1.56991 1.75858 1.77917 1.61211 1.78656 2.17025 
1.78398 1.55 1.55 1.55 1.61831 1.76322 1.70974 1.39081 1.24651 
1.24 1.27121 1.37018 1.67096 1.85753 1.86478 1.86 1.86178 1.87266 
1.92758 2.06589 2.10672 1.94479 1.86 1.86 1.86 1.86 1.86414 
1.94614 2.15784 2.463 2.68059 2.24058 1.96261 2.31762 2.48 2.60048 
3.1 
TEXTURE_COORDINATES TCoords 2 float
0 0 0.015873 0 0.031746 0 0.047619 0 0.0634921 
0 0.0793651 0 0.0952381 0 0.111111 0 0.126984 0 
0.142857 0 0.15873 0 0.174603 0 0.190476 0 0.206349 
0 0.222222 0 0.238095 0 0.253968 0 0.269841 0 
0.285714 0 0.301587 0 0.31746 0 0.333333 0 0.349206 
0 0.365079 0 0.380952 0 0.396825 0 0.412698 0 
0.428571 0 0.444444 0 0.460317 0 0.47619 0 0.492063 
0 0.507937 0 0.52381 0 0.539683 0 0.555556 0 
0.571429 0 0.587302 0 0.603175 0 0.619048 0 0.634921 
0 0.650794 0 0.666667 0 0.68254 0 0.698413 0 
0.714286 0 0.730159 0 0.746032 0 0.761905 0 0.777778 
0 0.793651 0 0.809524 0 0.825397 0 0.84127 0 
0.857143 0 0.873016 0 0.888889 0 0.904762 0 0.920635 
0 0.936508 0 0.952381 0 0.968254 0 0.984127 0 
1 0 
FIELD FieldData 4
Curvature 1 64 float
0.175676 0.206922 0.222787 0.204965 0.156288 0.0979871 0.0476138 0.0225392 0.0393595 
0.0693473 0.107792 0.173391 0.263582 0.297195 0.234367 0.148412 0.084946 0.083069 
0.186972 0.590626 1.31581 0.373459 0.138488 0.0408615 0.0479334 0.131696 0.249036 
0.360254 0.340552 0.240006 0.155594 0.10007 0.0602117 0.0325035 0.0450965 0.0940541 
0.150489 0.195791 0.215649 0.208499 0.182587 0.147303 0.108466 0.071948 0.0422031 
0.0255255 0.0247309 0.0272024 0.0183333 0.0120383 0.0454659 0.10006 0.165567 0.219578 
0.221963 0.180359 0.139998 0.118981 0.114121 0.118205 0.12325 0.132106 0.192958 
0.483079 
Torsion 1 64 float
0.0107193 0.0182396 0.030058 0.0422561 0.0507829 0.0748535 0.34685 0.971582 0.198033 
-0.151887 -0.249781 -0.233684 -0.147024 -0.0583085 -0.016072 -0.0329066 -0.151669 -0.277729 
-0.12041 -0.0329245 0.0815853 0.0554054 0.0687309 1.53045 1.30237 0.0719279 0.0549591 
0.083892 0.113574 0.125154 0.12242 0.0870235 -0.0873019 -0.638117 -0.603433 -0.133998 
-0.0743836 -0.0798468 -0.0992676 -0.118016 -0.123323 -0.110475 -0.0912255 -0.0207856 0.180627 
0.447339 0.222431 -0.0482908 -0.543741 -1.64924 -0.136325 -0.0468619 -0.0083679 0.0320653 
0.10028 0.165811 0.201837 0.188275 0.134609 0.0769554 -0.0241927 -0.15117 -0.209614 
-0.186817 
Abscissas 1 64 double
0 1.0443193271 2.0194193679 3.0440268904 4.0561065635 5.0706975589 6.0852255445 7.0998141073 8.1144131341 
9.1289752905 10.143477295 11.157841547 12.171761957 13.184125259 14.197564775 15.2118362 16.226263946 17.241008882 
18.254143015 19.272602934 20.278822297 21.267996654 22.276431157 23.294221156 24.307944348 25.322671876 26.336837938 
27.349599213 28.361017142 29.374801759 30.388955698 31.40343813 32.41790326 33.432512726 34.447087522 35.461590713 
36.475969722 37.49006479 38.503850175 39.517578542 40.531515695 41.545661457 42.559963491 43.574469861 44.589011011 
45.603573407 46.618201796 47.632810271 48.64735576 49.661970816 50.676605294 51.691141302 52.70548155 53.719372023 
54.732955061 55.746852478 56.761139173 57.775399687 58.789788174 59.80453177 60.816328826 61.843138339 62.81773031 
63.86219522 
ParallelTransportNormals 3 64 double
-0.27591406921 0 0.96118230654 -0.13613691077 -0.017362804858 0.99053787133 0.0060759866266 -0.0092942446426 0.9999383478 
0.14822608405 0.027122215215 0.98858151583 0.23614772618 0.067907574721 0.96934143248 0.28035442543 0.096172141361 0.95506665493 
0.2927563763 0.10559193526 0.95033891183 0.2817908998 0.09665908012 0.95459463178 0.24929606339 0.070005526246 0.96589373074 
0.19338246153 0.024761768331 0.98081092898 0.11077860333 -0.043671044957 0.99288515996 0.0032391023544 -0.14625785471 0.98924119817 
-0.10245546594 -0.2898678955 0.95156685559 -0.15652145163 -0.43683132909 0.88582132798 -0.16122374036 -0.53748919606 0.82771508967 
-0.15059291589 -0.59337818828 0.79071113521 -0.14120223392 -0.61976697279 0.77197851562 -0.14410287634 -0.61367326746 0.77629857776 
-0.16171135423 -0.5824355178 0.79662934011 -0.43588164261 -0.18124894374 0.8815645263 -0.93684200969 0.27880513467 0.2111746807 
-0.97181791344 0.23432043823 -0.025765778697 -0.97387411015 0.214777836 -0.073754313401 -0.97391510781 0.2140938332 -0.075187720871 
-0.97285691862 0.22590487666 -0.050163757749 -0.96844645857 0.24900695991 0.010343635943 -0.95505311379 0.26884324384 0.12488738959 
-0.93220776154 0.24372313947 0.2675588171 -0.91852407891 0.19195477186 0.34563981546 -0.9168546371 0.17521460825 0.35871634405 
-0.91678129641 0.19118923545 0.35065471736 -0.91443586641 0.21878785274 0.34049804952 -0.91150899419 0.23921106664 0.33455854362 
-0.91201391267 0.23625015692 0.33528567887 -0.91826683464 0.19552442021 0.34431994062 -0.92549311836 0.10477615562 0.36398412751 
-0.91692912891 -0.038036455903 0.39723318163 -0.87050092881 -0.20996597637 0.44513191496 -0.78265919366 -0.3663357771 0.50323223764 
-0.67916631432 -0.47265302238 0.56154451108 -0.59196175291 -0.52685676797 0.60992067446 -0.53468537005 -0.54767061599 0.64355920585 
-0.5042924377 -0.55334694891 0.66294516471 -0.48940897478 -0.55433614296 0.67319409981 -0.47885617613 -0.55421923956 0.68083610148 
-0.46446469588 -0.55337056911 0.69141417365 -0.4432092565 -0.55141553852 0.70675770872 -0.41980425724 -0.54859320668 0.72305593089 
-0.4050134544 -0.54645386069 0.73304316373 -0.410347355 -0.54727183994 0.7294577311 -0.44639537479 -0.55190930794 0.70436303507 
-0.52405262829 -0.5554583212 0.64562752125 -0.64788909538 -0.53935485501 0.53789967509 -0.79460586982 -0.47337994016 0.38014858134 
-0.91029367353 -0.35658546102 0.21026706095 -0.97104709751 -0.22923640799 0.067217584526 -0.99215566466 -0.11564000139 -0.047481861288 
-0.98923236554 -0.017948395986 -0.14524869039 -0.97003097524 0.065825489898 -0.23389508749 -0.93884367792 0.13610075334 -0.31630544315 
-0.8964137527 0.19665351323 -0.39720244171 -0.85376257669 0.23965326762 -0.46222913578 -0.79809434099 0.28617338808 -0.53023599919 
-0.79809434099 0.28617338808 -0.53023599919 
