# vtk DataFile Version 4.2
vtk output
ASCII
DATASET POLYDATA
POINTS 64 float
0 0 0 -0.891056 0.430161 -0.342377 -1.82586 0.600228 -0.572448 
-2.83024 0.502339 -0.684376 -3.77054 0.127413 -0.643236 -4.59141 -0.440646 -0.467584 
-5.29444 -1.11455 -0.184684 -5.9085 -1.83228 0.185117 -6.46765 -2.55505 0.625762 
-7.00192 -3.26176 1.12064 -7.53514 -3.94244 1.64935 -8.09054 -4.59707 2.18303 
-8.7392 -5.29266 2.66848 -8.89783 -5.87962 2.07695 -8.46681 -6.04055 1.17759 
-7.95274 -6.20122 0.314525 -7.40024 -6.4144 -0.508802 -6.8381 -6.72795 -1.29262 
-6.30204 -7.19629 -2.01437 -5.87204 -7.90001 -2.60111 -5.7296 -8.86272 -2.85636 
-6.0107 -9.78843 -2.58696 -6.53716 -10.3562 -1.93829 -7.09619 -10.5696 -1.12147 
-7.58051 -10.5199 -0.232652 -7.92888 -10.2963 0.692727 -8.09032 -9.9927 1.64633 
-7.99478 -9.74596 2.62403 -7.59397 -9.80445 3.54714 -7.05939 -10.3176 4.23292 
-6.61165 -11.1079 4.68133 -6.2957 -12.0188 4.99552 -6.09377 -12.9827 5.23873 
-5.9688 -13.9681 5.44518 -5.86942 -14.9594 5.63696 -5.72504 -15.9448 5.83039 
-5.44758 -16.8978 6.03751 -4.96855 -17.7623 6.26093 -4.29197 -18.4803 6.49315 
-3.47342 -19.0312 6.72631 -2.56568 -19.4191 6.95824 -1.60605 -19.6507 7.19041 
-0.623297 -19.7316 7.42751 0.358233 -19.6712 7.67577 1.31978 -19.4893 7.94276 
2.25304 -19.2208 8.23626 3.16293 -18.9135 8.56341 4.06116 -18.6172 8.93035 
4.95706 -18.3765 9.34092 5.8516 -18.2322 9.79677 6.73426 -18.2231 10.296 
7.57936 -18.3883 10.8311 8.34161 -18.7623 11.3843 8.95874 -19.356 11.9256 
9.38038 -20.1306 12.4246 9.60116 -21.0124 12.8734 9.65313 -21.9362 13.2886 
9.57893 -22.8624 13.6955 9.41924 -23.7704 14.1189 9.21674 -24.6493 14.5833 
9.03315 -25.4909 15.1194 8.9798 -26.2698 15.769 9.19843 -26.8784 16.5047 
9.80622 -27.2265 17.2795 
LINES 1 65
64 0 1 2 3 4 5 6 7 8 9 10 11 12 13 14 15 16 17 18 19 20 21 22 23 24 25 26 27 28 29 30 31 32 33 34 35 36 37 38 39 40 41 42 43 44 45 46 47 48 49 50 51 52 53 54 55 56 57 58 59 60 61 62 63 

POINT_DATA 64
SCALARS MaximumInscribedSphereRadius float
LOOKUP_TABLE default
0.8742 0.905961 0.848908 0.691989 1.02776 1.36154 1.52168 1.35195 1.14962 
0.980639 0.93 0.943518 1.03373 1.116 1.12392 1.19247 1.24972 1.04608 
1.03052 1.2104 1.24 1.24784 1.42658 1.5552 1.54155 1.27605 1.17544 
1.20235 1.05998 1.44319 1.55 1.3841 1.09075 1.36355 1.83386 1.6351 
1.55 1.45049 1.06404 1.10696 1.24 1.26047 1.48639 1.71488 1.84408 
2.03855 2.08948 1.89739 1.53458 1.34477 1.5178 1.581 1.65217 1.84413 
2.05906 1.85945 1.39075 1.51175 1.63406 1.53425 1.34059 1.38256 1.54017 
1.55 
TEXTURE_COORDINATES TCoords 2 float
0 0 0.015873 0 0.031746 0 0.047619 0 0.0634921 
0 0.0793651 0 0.0952381 0 0.111111 0 0.126984 0 
0.142857 0 0.15873 0 0.174603 0 0.190476 0 0.206349 
0 0.222222 0 0.238095 0 0.253968 0 0.269841 0 
0.285714 0 0.301587 0 0.31746 0 0.333333 0 0.349206 
0 0.365079 0 0.380952 0 0.396825 0 0.412698 0 
0.428571 0 0.444444 0 0.460317 0 0.47619 0 0.492063 
0 0.507937 0 0.52381 0 0.539683 0 0.555556 0 
0.571429 0 0.587302 0 0.603175 0 0.619048 0 0.634921 
0 0.650794 0 0.666667 0 0.68254 0 0.698413 0 
0.714286 0 0.730159 0 0.746032 0 0.761905 0 0.777778 
0 0.793651 0 0.809524 0 0.825397 0 0.84127 0 
0.857143 0 0.873016 0 0.888889 0 0.904762 0 0.920635 
0 0.936508 0 0.952381 0 0.968254 0 0.984127 0 
1 0 
FIELD FieldData 4
Curvature 1 64 float
0.175662 0.21454 0.241538 0.232875 0.19044 0.14159 0.100358 0.0684474 0.0445437 
0.0434941 0.0823318 0.216501 1.48458 0.631364 0.192089 0.0861804 0.0777848 0.130101 
0.227685 0.386925 0.503427 0.428828 0.293921 0.207057 0.161124 0.154355 0.205035 
0.330236 0.399967 0.29131 0.179291 0.110835 0.0639819 0.0327575 0.0514667 0.10978 
0.16246 0.178821 0.158604 0.13365 0.117785 0.109004 0.101693 0.0891423 0.0685071 
0.0425427 0.0341093 0.0510388 0.0761462 0.102515 0.131481 0.162866 0.190436 0.194748 
0.169033 0.128918 0.0915831 0.0644479 0.053557 0.0764142 0.143747 0.263932 0.3392 
0.282771 
Torsion 1 64 float
-0.00473568 -0.00807024 -0.0139103 -0.0266082 -0.0538759 -0.0989986 -0.158368 -0.222068 -0.305366 
-0.26767 -0.102629 -0.0633402 -0.161645 -0.0857482 -0.093464 -0.190562 -0.194715 -0.0944916 
-0.0490883 -0.018658 0.0182999 0.0616597 0.103668 0.163019 0.254499 0.341511 0.32698 
0.282038 0.235396 0.180285 0.14341 0.102476 0.042596 -0.148464 -0.0711495 -0.0120942 
-0.00628367 -0.0118894 -0.0205174 -0.0295167 -0.0420228 -0.0547426 -0.0673791 -0.093509 -0.173088 
-0.477929 -0.659792 -0.251215 -0.0903465 -0.0369417 -0.0151013 -0.00268576 0.0120855 0.038602 
0.0742833 0.119331 0.181686 0.300052 0.452009 0.369457 0.189444 0.092064 0.042857 
0.0167908 
Abscissas 1 64 double
0 1.0470154237 2.0246216929 3.0399488773 4.053075757 5.0666695906 6.0807848155 7.0951611631 8.1096623694 
9.1244471706 10.137947518 11.148800572 12.216633246 13.064921526 14.075131943 15.092463742 16.106647956 17.120889318 
18.134607988 19.146727586 20.152834488 21.157092383 22.167189139 23.179734975 24.193161584 25.206909669 26.220613007 
27.233483013 28.241551241 29.251201309 30.2641751 31.278215864 32.292627551 33.307147517 34.321707933 35.336239504 
36.350188175 37.363473081 38.376987697 39.390830648 40.404856916 41.418972881 42.433154629 43.447394395 44.461763158 
45.476262441 46.490836272 47.505358664 48.519824801 49.534134093 50.548235348 51.562048792 52.575425018 53.588507173 
54.601810752 55.615584 56.629732712 57.644090428 58.658600466 59.673065484 60.687659074 61.70329277 62.68280678 
63.727266184 
ParallelTransportNormals 3 64 double
-0.35867166215 0 0.93346378546 -0.24512161332 -0.036743409797 0.96879580744 -0.10658558797 -0.042265907253 0.99340480446 
0.045777594014 -0.0051965884995 0.9989381399 0.16860750021 0.060566213439 0.98382073807 0.25756768133 0.13306483565 0.95705414635 
0.32201171157 0.20115536922 0.92511889779 0.36896106649 0.2588009088 0.89268685496 0.40177844242 0.30170455458 0.86460883927 
0.42127443408 0.32704272117 0.8459142449 0.42307289627 0.32924861519 0.84415915196 0.3722284223 0.27215833999 0.88734200825 
-0.18616220305 -0.67202016749 0.71675137157 -0.097557406952 -0.98672800205 0.12980909952 -0.095883286423 -0.98729785779 0.12668597158 
-0.12345989401 -0.97763025383 0.17028429569 -0.17978407278 -0.95101405508 0.25149543576 -0.26988961561 -0.88685757052 0.37502432588 
-0.40843959085 -0.71872238615 0.56268573136 -0.55579695149 -0.28890876131 0.77950078662 -0.50660286377 0.37917786829 0.77432401656 
-0.26745805617 0.82214350046 0.50253980225 -0.055621665417 0.97468028977 0.21657461318 0.083212883363 0.99647776637 -0.010376761025 
0.15878068833 0.97167853803 -0.17501289023 0.18446328037 0.94511952815 -0.2696708655 0.18404474363 0.94862025727 -0.2573851974 
0.24015688944 0.96978887619 -0.042827608664 0.43673752948 0.84971502115 0.29537216045 0.6073358309 0.6234584571 0.49238474872 
0.69058336676 0.43803960577 0.57551361176 0.72670951073 0.30726365877 0.61439590739 0.74025308341 0.22650460087 0.6330253062 
0.74347593106 0.19810884325 0.63874597937 0.73924895708 0.23238615189 0.63206617997 0.71564178212 0.34085326225 0.60965227245 
0.64692866176 0.50592254181 0.57054858538 0.52877248766 0.66773125809 0.5239605169 0.3910361305 0.78463081356 0.48108755031 
0.25373266515 0.85930134214 0.44409564064 0.11885256768 0.90404831426 0.41057363852 -0.015055396223 0.92559242181 0.37822216186 
-0.14460863405 0.92694476698 0.34621054566 -0.26024365707 0.91252564787 0.31554743055 -0.34766024294 0.89174682901 0.28968939994 
-0.39467727746 0.8770587538 0.27385724209 -0.39981780273 0.87534270741 0.27188392596 -0.36851164486 0.88471292088 0.28545089811 
-0.30581277175 0.89819486583 0.31579191193 -0.21542528025 0.90599593566 0.36436700345 -0.099569601469 0.89552693761 0.43372502635 
0.035809851065 0.85010839674 0.5253887783 0.17128097806 0.75506436352 0.63288279602 0.27266098404 0.62152817116 0.7344104576 
0.3228026226 0.49225555991 0.80838291087 0.33647949816 0.40172566489 0.85170302189 0.33593224051 0.35615605795 0.87195320526 
0.33503860133 0.34914779752 0.87512567732 0.34062190351 0.37669346052 0.86143993154 0.35607479909 0.44555475266 0.82139618932 
0.37549123968 0.57831492 0.72426388992 0.35193494968 0.7699185722 0.53232244305 0.20610331245 0.94282732572 0.26191231068 
0.20610331245 0.94282732572 0.26191231068 
