# vtk DataFile Version 4.2
vtk output
ASCII
DATASET POLYDATA
POINTS 64 float
0 0 0 -0.980323 0.1544 0.270087 -1.90308 0.304103 0.608349 
-2.83948 0.428757 1.00222 -3.75486 0.4954 1.42751 -4.66473 0.473447 1.87795 
-5.55282 0.320792 2.34346 -6.3929 -0.00365278 2.81042 -7.14846 -0.513394 3.25543 
-7.80608 -1.17674 3.6513 -8.39254 -1.9398 3.9725 -8.95811 -2.75475 4.18577 
-9.54612 -3.57941 4.24212 -10.156 -4.3792 4.11076 -10.748 -5.14708 3.81233 
-11.2715 -5.91204 3.3998 -11.6636 -6.71445 2.9187 -11.8438 -7.56344 2.39383 
-11.7519 -8.40819 1.84014 -11.4152 -9.17758 1.27121 -10.919 -9.85109 0.697052 
-10.3354 -10.4515 0.125429 -9.70326 -11.0115 -0.443427 -9.06403 -11.5664 -0.973736 
-8.38012 -12.1871 -1.52768 -8.08485 -12.9923 -1.35741 -8.41182 -13.2396 -0.432979 
-8.78023 -13.0984 0.508949 -9.06045 -12.8847 1.45869 -9.24848 -12.6171 2.41936 
-9.33204 -12.3462 3.39349 -9.31129 -12.1293 4.38433 -9.20665 -12.0561 5.39075 
-9.07803 -12.2469 6.37791 -9.0098 -12.7426 7.26018 -9.02364 -13.4346 8.00212 
-9.07809 -14.2165 8.64622 -9.12676 -15.0421 9.23406 -9.13025 -15.8928 9.78683 
-9.05558 -16.7599 10.3084 -8.87833 -17.6337 10.7924 -8.58904 -18.5015 11.2311 
-8.19733 -19.3499 11.6261 -7.72051 -20.1681 11.9903 -7.16947 -20.9447 12.3405 
-6.54592 -21.6647 12.6898 -5.84619 -22.3086 13.0436 -5.06828 -22.8548 13.3982 
-4.21806 -23.2876 13.7433 -3.31023 -23.6026 14.0687 -2.36381 -23.8082 14.3709 
-1.39681 -23.9205 14.6566 -0.42417 -23.9585 14.9428 0.541676 -23.9407 15.253 
1.48922 -23.8839 15.6112 2.40721 -23.8038 16.0358 3.28499 -23.7145 16.5366 
4.11392 -23.6285 17.1154 4.88927 -23.5566 17.7654 5.61436 -23.5119 18.4749 
6.2953 -23.5092 19.223 6.95752 -23.576 20.0003 7.59047 -23.7241 20.7526 
8.24955 -24.0015 21.4918 
LINES 1 65
64 0 1 2 3 4 5 6 7 8 9 10 11 12 13 14 15 16 17 18 19 20 21 22 23 24 25 26 27 28 29 30 31 32 33 34 35 36 37 38 39 40 41 42 43 44 45 46 47 48 49 50 51 52 53 54 55 56 57 58 59 60 61 62 63 

POINT_DATA 64
SCALARS MaximumInscribedSphereRadius float
LOOKUP_TABLE default
0.98 0.953392 0.9184 0.805892 0.704121 0.655315 0.735954 1.11687 1.41654 
1.36409 1.26124 1.24 1.41607 1.75521 1.75734 1.60262 1.41875 1.25324 
1.47974 1.65509 1.6089 1.56483 1.55 1.56592 1.68952 1.83871 1.74423 
1.58344 1.43528 1.29238 1.33412 1.4845 1.55 1.57363 1.72259 1.85168 
1.86 1.86 1.86 1.91083 2.04101 2.09733 1.99215 1.8008 1.51758 
1.30512 1.54679 1.7909 1.54021 1.35714 1.57603 1.6562 1.20399 0.821018 
0.92441 1.12908 1.08894 0.996717 1.08136 1.22384 1.31309 1.38876 1.46902 
1.55 
TEXTURE_COORDINATES TCoords 2 float
0 0 0.015873 0 0.031746 0 0.047619 0 0.0634921 
0 0.0793651 0 0.0952381 0 0.111111 0 0.126984 0 
0.142857 0 0.15873 0 0.174603 0 0.190476 0 0.206349 
0 0.222222 0 0.238095 0 0.253968 0 0.269841 0 
0.285714 0 0.301587 0 0.31746 0 0.333333 0 0.349206 
0 0.365079 0 0.380952 0 0.396825 0 0.412698 0 
0.428571 0 0.444444 0 0.460317 0 0.47619 0 0.492063 
0 0.507937 0 0.52381 0 0.539683 0 0.555556 0 
0.571429 0 0.587302 0 0.603175 0 0.619048 0 0.634921 
0 0.650794 0 0.666667 0 0.68254 0 0.698413 0 
0.714286 0 0.730159 0 0.746032 0 0.761905 0 0.777778 
0 0.793651 0 0.809524 0 0.825397 0 0.84127 0 
0.857143 0 0.873016 0 0.888889 0 0.904762 0 0.920635 
0 0.936508 0 0.952381 0 0.968254 0 0.984127 0 
1 0 
FIELD FieldData 4
Curvature 1 64 float
0.159291 0.0940967 0.0626523 0.0627254 0.0885443 0.12781 0.168345 0.190041 0.174993 
0.135552 0.120893 0.154143 0.178221 0.160381 0.127081 0.142297 0.20698 0.261058 
0.252498 0.191303 0.117838 0.0641315 0.0757315 0.216765 0.940055 1.13336 0.418159 
0.165078 0.105681 0.101545 0.126096 0.180102 0.263451 0.31306 0.251345 0.150113 
0.0809823 0.0623285 0.0800565 0.101995 0.112215 0.104831 0.0890865 0.080401 0.085598 
0.10065 0.117039 0.126336 0.123781 0.110589 0.0906608 0.0701802 0.0585332 0.061323 
0.071611 0.0807885 0.0854468 0.0839123 0.0766257 0.0685111 0.0694492 0.0861536 0.114991 
0.147449 
Torsion 1 64 float
-0.13159 -0.234396 -0.393745 -0.356471 -0.162672 -0.059701 -0.027838 -0.0436948 -0.135578 
-0.375431 -0.504995 -0.256715 0.0330934 0.254568 0.566926 0.378342 0.0332194 -0.0994156 
-0.112956 -0.0668629 0.00270937 0.167929 0.273029 0.0538727 -0.0356818 -0.145189 -0.17422 
-0.237184 -0.341347 -0.386699 -0.386074 -0.352477 -0.282499 -0.179696 -0.045178 0.133702 
0.428043 0.48597 0.176352 0.045202 0.0256109 0.074942 0.168572 0.209724 0.136557 
0.0367164 -0.0218853 -0.040284 -0.0272972 0.0172538 0.117106 0.303373 0.460928 0.399086 
0.24291 0.15213 0.111863 0.123018 0.214088 0.368895 0.438285 0.325503 0.194029 
0.114074 
Abscissas 1 64 double
0 1.0285035578 2.0226426845 3.0461258741 4.0576758778 5.0731766169 6.0874287144 7.1018497566 8.1161183387 
9.1306157617 10.145192281 11.159833519 12.174227466 13.188561431 14.203038751 15.217630745 16.232057285 17.246327611 
18.260537021 19.274937858 20.289575141 21.303396348 22.321628932 23.320506647 24.397472584 25.271842465 26.283098823 
27.304319203 28.317334096 29.332150224 30.346693724 31.361208125 32.375697796 33.389321467 34.403606787 35.418264243 
36.432758257 37.447420529 38.461943873 39.476572577 40.491067848 41.505574043 42.520090461 43.534710003 44.549299812 
45.563806734 46.578401913 47.592906193 48.607442923 49.62197011 50.636518002 51.651074296 52.665659385 53.680252766 
54.694833139 55.709430271 56.723960701 57.738618735 58.752934297 59.768386429 60.77998952 61.803313916 62.797554707 
63.826026505 
ParallelTransportNormals 3 64 double
0.26561192805 0 0.96408002971 0.34239911534 -0.012273309169 0.93947443376 0.38554247384 -0.018649137504 0.92250160462 
0.41991621001 -0.022194017407 0.90729146483 0.44399434484 -0.022785828211 0.89573982148 0.46692909413 -0.02055748916 0.88405577352 
0.48997464028 -0.014195458646 0.87162109935 0.50949123085 -0.0039921509018 0.86046658762 0.51519106455 0.00073920102841 0.8570750379 
0.49854316991 -0.018348428619 0.86667066577 0.45239928314 -0.081554590912 0.88807867744 0.36853385229 -0.20075430921 0.90767863644 
0.26080307707 -0.34684705525 0.90093222567 0.16851105817 -0.46722797378 0.86792974588 0.12015831748 -0.53367065547 0.83711266281 
0.11048323515 -0.55023317527 0.82766956425 0.11409021843 -0.53982472867 0.83401000257 0.11429648154 -0.53586788428 0.83652969159 
0.1196199422 -0.55591763897 0.82258534397 0.1353367097 -0.58314589513 0.80101488126 0.15049109533 -0.60102364167 0.78493503705 
0.15920076877 -0.60933827963 0.77676378404 0.14154866098 -0.59386016365 0.79201899132 0.12575197368 -0.57983666482 0.80496949212 
-0.3077908968 0.087477167387 0.94742414421 -0.31827177345 0.93785445812 0.1383188115 -0.18611789328 0.9583862856 -0.21646213845 
-0.16990358729 0.94950237293 -0.26377644859 -0.16245635557 0.9418496875 -0.29415488893 -0.16481371639 0.94652402737 -0.27736024317 
-0.16704682355 0.96386734951 -0.2074972079 -0.15749401104 0.9859682455 -0.055337648609 -0.1271284997 0.97064529118 0.2041716515 
-0.096690801188 0.86452186453 0.4932066856 -0.090488780664 0.72913141653 0.67836506248 -0.094763395992 0.6368762331 0.76511996608 
-0.098345132842 0.58104214771 0.80790980773 -0.099546199432 0.54244055078 0.83417552293 -0.098067337816 0.50674860577 0.85649789714 
-0.092466249829 0.46804314312 0.87885471429 -0.08169298566 0.42782638069 0.90016156554 -0.068616347708 0.39487168062 0.91617037317 
-0.059258920781 0.37691583057 0.92434995374 -0.058428787882 0.37562782053 0.92492692533 -0.067687092825 0.38742420402 0.91941336927 
-0.086034061777 0.40633444443 0.90966502598 -0.11031723214 0.42589213489 0.89802338374 -0.13557040319 0.44107699159 0.88717064495 
-0.15844538236 0.45080703969 0.87844639778 -0.17907449052 0.45659890462 0.87146415138 -0.20193237966 0.46039656822 0.86444104138 
-0.23353705662 0.46284557265 0.85512245852 -0.27871396588 0.46331636108 0.84122320152 -0.3378356736 0.46101128611 0.82057032101 
-0.40608342676 0.45600301562 0.79193276246 -0.47675554672 0.44933632958 0.75551374018 -0.54381958353 0.44244801356 0.71309187056 
-0.60136140084 0.43678456308 0.66901697365 -0.64376399058 0.4334890646 0.6305990448 -0.66748775843 0.43269056436 0.60600244872 
-0.66756378888 0.43269416985 0.60591611892 -0.64765355749 0.42937146769 0.62943229358 -0.59734231085 0.41288223161 0.68753939996 
-0.59734231085 0.41288223161 0.68753939996 
