# vtk DataFile Version 4.2
vtk output
ASCII
DATASET POLYDATA
POINTS 64 float
0 0 0 -0.913126 0.423508 0.273572 -1.78676 0.797287 0.537393 
-2.71803 1.08416 0.815957 -3.68571 1.18026 1.10223 -4.64043 1.00311 1.3895 
-5.51796 0.580974 1.67079 -6.32047 0.0233511 1.94282 -7.09972 -0.579686 2.18451 
-7.89816 -1.19044 2.31773 -8.66871 -1.83261 2.18731 -9.2591 -2.53412 1.75857 
-9.62691 -3.29717 1.20207 -9.79257 -4.12136 0.635828 -9.74594 -4.98042 0.100227 
-9.47133 -5.8123 -0.409168 -8.98096 -6.54003 -0.915922 -8.30406 -7.10222 -1.41157 
-7.42577 -7.451 -1.75762 -6.85768 -7.43103 -1.03178 -6.96413 -7.28256 -0.0238945 
-7.16387 -7.04886 0.944356 -7.37901 -6.70044 1.87204 -7.58392 -6.27753 2.77118 
-7.78828 -5.95544 3.71 -8.00485 -6.04742 4.68915 -8.20094 -6.61028 5.505 
-8.35901 -7.43058 6.07705 -8.47933 -8.38409 6.39645 -8.55922 -9.39281 6.43571 
-8.59424 -10.3817 6.21699 -8.57881 -11.3309 5.85935 -8.49151 -12.2822 5.51859 
-8.284 -13.2606 5.36147 -7.90871 -14.1861 5.51789 -7.37189 -14.9237 5.95556 
-6.71008 -15.4103 6.5476 -5.9584 -15.6436 7.18557 -5.1465 -15.6617 7.79222 
-4.29148 -15.5328 8.32214 -3.39967 -15.3327 8.76211 -2.48065 -15.1127 9.13126 
-1.55366 -14.8844 9.4748 -0.643276 -14.6394 9.84944 0.220948 -14.3841 10.3148 
1.00436 -14.1682 10.9207 1.67951 -14.0763 11.6707 2.24462 -14.1737 12.5062 
2.71377 -14.4832 13.3494 3.08283 -15.0136 14.1295 3.31541 -15.75 14.7847 
3.3821 -16.6167 15.306 3.28489 -17.5231 15.7499 3.02973 -18.4068 16.1767 
2.61875 -19.2308 16.6013 2.06859 -19.9925 16.9827 1.43059 -20.7385 17.2365 
0.811713 -21.5394 17.2733 0.35087 -22.4223 17.0901 0.110619 -23.3607 16.792 
0.0649932 -24.3258 16.483 0.154068 -25.301 16.2213 0.311285 -26.2581 16.0404 
0.480154 -27.2853 15.9869 
LINES 1 65
64 0 1 2 3 4 5 6 7 8 9 10 11 12 13 14 15 16 17 18 19 20 21 22 23 24 25 26 27 28 29 30 31 32 33 34 35 36 37 38 39 40 41 42 43 44 45 46 47 48 49 50 51 52 53 54 55 56 57 58 59 60 61 62 63 

POINT_DATA 64
SCALARS MaximumInscribedSphereRadius float
LOOKUP_TABLE default
1.55 1.37058 1.289 1.48712 1.67448 1.82878 1.87463 1.83957 1.70483 
1.47025 1.42281 1.72854 1.47516 1.33705 1.58725 1.96703 2.37276 1.78828 
1.39188 1.55 1.89549 2.3807 2.29284 2.17594 2.14244 1.94007 1.99437 
2.15189 2.17 1.94796 1.44932 1.35989 1.57121 1.93338 2.2532 2.44957 
2.32102 2.22882 2.40174 2.39791 2.22537 2.18163 2.19061 2.17879 2.24873 
2.44391 2.31602 2.1764 2.18047 2.32623 2.53021 2.70196 2.46122 1.92671 
2.1829 2.42784 2.24424 2.82853 3.53071 3.29933 3.1 3.1 2.85908 
2.48 
TEXTURE_COORDINATES TCoords 2 float
0 0 0.015873 0 0.031746 0 0.047619 0 0.0634921 
0 0.0793651 0 0.0952381 0 0.111111 0 0.126984 0 
0.142857 0 0.15873 0 0.174603 0 0.190476 0 0.206349 
0 0.222222 0 0.238095 0 0.253968 0 0.269841 0 
0.285714 0 0.301587 0 0.31746 0 0.333333 0 0.349206 
0 0.365079 0 0.380952 0 0.396825 0 0.412698 0 
0.428571 0 0.444444 0 0.460317 0 0.47619 0 0.492063 
0 0.507937 0 0.52381 0 0.539683 0 0.555556 0 
0.571429 0 0.587302 0 0.603175 0 0.619048 0 0.634921 
0 0.650794 0 0.666667 0 0.68254 0 0.698413 0 
0.714286 0 0.730159 0 0.746032 0 0.761905 0 0.777778 
0 0.793651 0 0.809524 0 0.825397 0 0.84127 0 
0.857143 0 0.873016 0 0.888889 0 0.904762 0 0.920635 
0 0.936508 0 0.952381 0 0.968254 0 0.984127 0 
1 0 
FIELD FieldData 4
Curvature 1 64 float
0.0723986 0.0330906 0.0691274 0.133067 0.187251 0.171256 0.102913 0.0481577 0.0917786 
0.191852 0.251447 0.189817 0.145233 0.14486 0.153373 0.158314 0.171108 0.278486 
0.952927 0.565952 0.122273 0.0841865 0.0724501 0.104774 0.286904 0.346702 0.245869 
0.189764 0.189868 0.175844 0.102578 0.0591474 0.150869 0.243469 0.250565 0.211671 
0.179978 0.149166 0.113179 0.0797248 0.0519454 0.0186863 0.026908 0.0698001 0.11333 
0.147475 0.155944 0.152172 0.164259 0.185184 0.16834 0.124936 0.106364 0.110706 
0.107552 0.10754 0.153585 0.194741 0.174351 0.135107 0.0965418 0.0720981 0.0962632 
0.178788 
Torsion 1 64 float
0.0196395 0.06724 0.0099089 -0.0121289 -0.0297934 -0.0347404 0.0216651 0.509121 0.0186542 
-0.194403 -0.243917 -0.248204 -0.149472 0.0506343 0.163788 0.159752 0.00721728 -0.188224 
-0.262015 0.0563683 0.301233 0.231945 0.12552 0.106149 0.0266727 0.0112346 0.0129422 
0.0197101 0.0105976 -0.0285423 -0.357962 -0.882801 -0.110336 0.0485236 0.114139 0.130803 
0.124038 0.14424 0.215378 0.299716 0.165199 -0.668168 -0.577578 -0.186583 -0.216959 
-0.220972 -0.198859 -0.149884 -0.053709 0.048456 0.152169 0.290702 0.237556 -0.00632924 
-0.285128 -0.53473 -0.385022 -0.267178 -0.235328 -0.213752 -0.251773 -0.388309 -0.306444 
-0.155312 
Abscissas 1 64 double
0 1.043072256 2.0292510327 3.042738995 4.0564410919 5.0690597239 6.0826582444 7.0970376376 8.1115811754 
9.1256198804 10.137123005 11.149296401 12.162815835 13.176404596 14.189828189 15.203198158 16.216535611 17.226445535 
18.232821135 19.1547586 20.17906721 21.194951413 22.208992627 23.223533507 24.236888481 25.243912518 26.254295725 
27.266777611 28.279533799 29.292173276 30.305567394 31.320025946 32.334279252 33.346709015 34.357579983 35.369402653 
36.381965108 37.395107772 38.40878095 39.422925631 40.437291935 41.451820981 42.466439676 43.480924426 44.495134202 
45.508772145 46.522070304 47.535429152 48.548778764 49.561738318 50.574489484 51.588081189 52.602013788 53.616010866 
54.629996448 55.644062215 56.657952964 57.670772342 58.683418192 59.696916557 60.711302799 61.724928644 62.711580785 
63.753941696 
ParallelTransportNormals 3 64 double
0.28699580289 0 0.9579318395 0.28877612225 -0.00079351557618 0.95739632418 0.28658013938 1.207900592e-05 0.95805627369 
0.28373451783 0.0005860044175 0.95890269579 0.28800321736 0.00076630127683 0.95762913467 0.30279795667 0.0056042576434 0.95303829395 
0.31358570809 0.011894972305 0.94948539395 0.29662447704 -0.00055074451843 0.95499403993 0.21256431048 -0.065222087718 0.9749679447 
0.018466012114 -0.2202284959 0.9752735083 -0.16969974398 -0.40599700012 0.89798019621 -0.23024862571 -0.49852597299 0.83573765298 
-0.23660285192 -0.51743150374 0.82236471799 -0.23701237193 -0.52322353931 0.81857330977 -0.22959540412 -0.56226411011 0.79444636124 
-0.18955283435 -0.64390077056 0.74125671711 -0.11196326702 -0.72960117281 0.67464535533 -0.05105917348 -0.76525369294 0.64170066717 
-0.59148671029 -0.64732245391 0.48074641154 -0.72321118724 -0.69016398896 0.025283334411 -0.72207577996 -0.6915806653 0.017965282569 
-0.736023554 -0.67200765363 0.081700926679 -0.74827235293 -0.64951609323 0.13497159138 -0.73420570607 -0.67511981217 0.07179986347 
-0.67123899407 -0.70934464386 -0.21510088116 -0.59459883811 -0.58788195829 -0.54849523684 -0.54775338453 -0.40498396147 -0.73208894315 
-0.51752047081 -0.21235513365 -0.8289015982 -0.49530097788 0.00541722141 -0.8687045499 -0.4838012568 0.20530119219 -0.85075717124 
-0.48282377498 0.30187936853 -0.82204017491 -0.48036349866 0.25636749565 -0.83876493509 -0.44854732109 0.048185716717 -0.89245920772 
-0.3447970734 -0.29066457745 -0.89254080108 -0.17804668782 -0.59475110217 -0.78394547222 -0.0025960315406 -0.77396490611 -0.63322317135 
0.15547803209 -0.8544826716 -0.49566717207 0.27799952834 -0.87418688547 -0.39813760374 0.34818321861 -0.86952316179 -0.35028262501 
0.3631706956 -0.86670045944 -0.34196104962 0.3483226194 -0.8701450949 -0.34859556314 0.34430422743 -0.87112095188 -0.35014694938 
0.37212301614 -0.86395491089 -0.33927330104 0.42128443256 -0.85009515619 -0.3160026144 0.45757031681 -0.83971802055 -0.29240904764 
0.44862356998 -0.84160594823 -0.30072632136 0.39705798033 -0.84137748116 -0.36664546152 0.32687169328 -0.81376458794 -0.48056434694 
0.25331660494 -0.7400557589 -0.62301538616 0.19483583352 -0.61691499887 -0.76253188927 0.17261233565 -0.4979018823 -0.84988157833 
0.17346876853 -0.44810143771 -0.87699127012 0.16957585496 -0.46787839548 -0.86737179828 0.15247085056 -0.51172832333 -0.84550976507 
0.14467537609 -0.52458948774 -0.83897252929 0.19473075202 -0.46107284406 -0.86573192542 0.32919070937 -0.2955819769 -0.89680810199 
0.47606285669 -0.066534249395 -0.87689072873 0.5487354263 0.12222699335 -0.82701269278 0.5645301457 0.22736353226 -0.79348064802 
0.56375998649 0.26171663755 -0.78337671606 0.5662903764 0.24194056575 -0.7878959146 0.58343624591 0.13760335103 -0.80041705675 
0.58343624591 0.13760335103 -0.80041705675 
