# vtk DataFile Version 4.2
vtk output
ASCII
DATASET POLYDATA
POINTS 64 float
0 0 0 -0.635772 0.153178 0.81955 -1.32718 0.308656 1.48853 
-2.13377 0.461457 2.09425 -3.01823 0.581607 2.57606 -3.97094 0.643916 2.91722 
-4.96785 0.622138 3.10119 -5.97355 0.496165 3.13091 -6.95489 0.258997 3.03474 
-7.89202 -0.083195 2.85166 -8.77859 -0.515314 2.61438 -9.61623 -1.01837 2.3415 
-10.4091 -1.57156 2.03388 -11.1578 -2.15278 1.67236 -11.85 -2.74074 1.22059 
-12.4499 -3.31786 0.641661 -12.9006 -3.87537 -0.0750469 -13.1488 -4.41387 -0.897123 
-13.1756 -4.94184 -1.76214 -13.002 -5.47263 -2.60845 -12.664 -6.02121 -3.39154 
-12.1937 -6.60332 -4.07591 -11.6176 -7.23853 -4.61695 -10.9687 -7.95095 -4.92399 
-10.3694 -8.73078 -4.71548 -10.2743 -9.16271 -3.81805 -10.5693 -9.17222 -2.84882 
-10.9847 -9.00966 -1.9381 -11.4416 -8.76136 -1.06696 -11.8965 -8.47892 -0.205175 
-12.3081 -8.22196 0.685672 -12.6095 -8.10673 1.64666 -12.6882 -8.34876 2.62184 
-12.5551 -8.9698 3.40994 -12.3468 -9.76803 3.99944 -12.1279 -10.6395 4.47043 
-11.9149 -11.5462 4.87255 -11.7049 -12.4701 5.23549 -11.4849 -13.3993 5.57842 
-11.2355 -14.3235 5.91466 -10.932 -15.2302 6.25378 -10.5474 -16.1011 6.60402 
-10.056 -16.9074 6.97412 -9.44075 -17.6068 7.37472 -8.70571 -18.1487 7.81492 
-7.88296 -18.4967 8.2942 -7.01875 -18.6537 8.8009 -6.14759 -18.6593 9.32043 
-5.28318 -18.5654 9.84314 -4.42593 -18.4209 10.3663 -3.57176 -18.272 10.8932 
-2.71922 -18.165 11.4326 -1.87638 -18.1504 11.9968 -1.07017 -18.285 12.5968 
-0.355972 -18.623 13.2312 0.193056 -19.1833 13.8723 0.539035 -19.92 14.4762 
0.708023 -20.7608 15.0174 0.754462 -21.654 15.4959 0.734334 -22.573 15.9252 
0.708667 -23.5035 16.329 0.769548 -24.4266 16.748 1.08401 -25.2342 17.2321 
1.91782 -25.4966 17.7801 
LINES 1 65
64 0 1 2 3 4 5 6 7 8 9 10 11 12 13 14 15 16 17 18 19 20 21 22 23 24 25 26 27 28 29 30 31 32 33 34 35 36 37 38 39 40 41 42 43 44 45 46 47 48 49 50 51 52 53 54 55 56 57 58 59 60 61 62 63 

POINT_DATA 64
SCALARS MaximumInscribedSphereRadius float
LOOKUP_TABLE default
1.55 1.40302 1.28938 1.25394 1.24 1.24 1.24 1.26085 1.39175 
1.54862 1.55 1.55 1.55 1.55 1.54957 1.48049 1.40089 1.3888 
1.35911 1.27951 1.24 1.24 1.37377 1.69925 2.43129 2.43958 2.12925 
1.96746 2.30876 2.4786 2.48314 3.06128 2.96364 2.14016 1.95181 1.862 
1.86109 2.02624 2.33793 2.30526 2.0023 1.97003 2.14489 1.8545 1.69747 
1.99022 2.08672 1.92762 1.87513 1.84554 1.72494 1.56161 2.18168 2.65765 
2.59241 2.23116 1.68975 1.68009 1.8635 2.14666 2.46593 2.11253 2.07637 
2.48 
TEXTURE_COORDINATES TCoords 2 float
0 0 0.015873 0 0.031746 0 0.047619 0 0.0634921 
0 0.0793651 0 0.0952381 0 0.111111 0 0.126984 0 
0.142857 0 0.15873 0 0.174603 0 0.190476 0 0.206349 
0 0.222222 0 0.238095 0 0.253968 0 0.269841 0 
0.285714 0 0.301587 0 0.31746 0 0.333333 0 0.349206 
0 0.365079 0 0.380952 0 0.396825 0 0.412698 0 
0.428571 0 0.444444 0 0.460317 0 0.47619 0 0.492063 
0 0.507937 0 0.52381 0 0.539683 0 0.555556 0 
0.571429 0 0.587302 0 0.603175 0 0.619048 0 0.634921 
0 0.650794 0 0.666667 0 0.68254 0 0.698413 0 
0.714286 0 0.730159 0 0.746032 0 0.761905 0 0.777778 
0 0.793651 0 0.809524 0 0.825397 0 0.84127 0 
0.857143 0 0.873016 0 0.888889 0 0.904762 0 0.920635 
0 0.936508 0 0.952381 0 0.968254 0 0.984127 0 
1 0 
FIELD FieldData 4
Curvature 1 64 float
0.101742 0.0974757 0.100029 0.109051 0.123614 0.136233 0.138544 0.125545 0.106421 
0.0865313 0.0690344 0.05563 0.0550679 0.0808193 0.118231 0.152033 0.170042 0.169426 
0.152192 0.131793 0.124718 0.141772 0.219656 0.430449 0.827522 0.475544 0.20469 
0.0876794 0.0377856 0.0749366 0.174914 0.330491 0.367069 0.233445 0.131611 0.0721722 
0.0351812 0.018707 0.0267194 0.0467873 0.070729 0.0972255 0.12551 0.150028 0.15998 
0.148506 0.116428 0.0788604 0.0421728 0.0149882 0.0335699 0.0744756 0.121241 0.170071 
0.208011 0.203163 0.163768 0.113919 0.0657328 0.0388838 0.0931157 0.274381 0.576874 
0.475967 
Torsion 1 64 float
0.0952217 0.102914 0.101056 0.0913526 0.0818351 0.084467 0.102101 0.123094 0.120847 
0.0846811 -0.00161763 -0.192551 -0.331522 -0.142866 0.0166481 0.105193 0.130925 0.141495 
0.148097 0.16165 0.171034 0.156679 0.111807 0.0696165 0.0279539 -0.00842187 -0.0321621 
-0.101815 -0.472221 -0.250446 -0.0896752 -0.0978161 -0.10458 -0.0834409 -0.0673404 -0.0337936 
0.103039 0.579322 0.351172 0.0856785 0.0502701 0.0540049 0.0675789 0.0693283 0.0570101 
0.0366071 0.0145843 0.00432152 0.0227417 0.353522 0.119739 -0.0301131 -0.037242 -0.0319018 
-0.0190216 0.00129264 0.0222125 0.0485418 0.179983 0.464623 0.144496 0.0595261 0.0332355 
0.00988101 
Abscissas 1 64 double
0 1.0484901958 2.0230428149 3.0432546259 4.0575752969 5.0714437468 6.0854205563 7.0994147496 8.1135771562 
9.1278883089 10.142301932 11.156781722 12.171321723 13.185750318 14.200114557 15.214069808 16.227785212 17.241389734 
18.255157661 19.269117888 20.28322564 21.297324327 22.311280207 23.322658914 24.328030184 25.328524354 26.34169865 
27.355796469 28.370338178 29.384921652 30.399343358 31.41305823 32.420901432 33.433081365 34.447019595 35.461518339 
36.47600089 37.490603111 38.505202583 39.519797768 40.534302476 41.548725404 42.56290838 43.576896903 44.590659984 
45.604430921 46.618458833 47.632787131 48.647305459 49.661925686 50.676520163 51.691027735 52.705381947 53.719330085 
54.7326347 55.745737792 56.759208864 57.773308245 58.787667786 59.802195283 60.816859538 61.832427923 62.825129937 
63.856826126 
ParallelTransportNormals 3 64 double
0 -0.98297795974 0.18372351693 -0.020302454439 -0.97826225258 0.20637532683 -0.026278784699 -0.97702994634 0.21147555282 
-0.019897980208 -0.97805937273 0.20737389853 0.005974446123 -0.98062869613 0.19578474485 0.055131362803 -0.98165074348 0.18254410606 
0.12745862651 -0.97631452573 0.1748263292 0.21468255462 -0.96037435472 0.1777427904 0.30361920674 -0.93351672482 0.19068796967 
0.3827173716 -0.89993328575 0.20891982834 0.44578483701 -0.86572693861 0.22758019873 0.48976993027 -0.83723340276 0.24323989128 
0.51376236306 -0.81957780417 0.25365420797 0.52194823493 -0.81293559007 0.25827459505 0.52607069487 -0.80921834274 0.26156318123 
0.53979635537 -0.79439464705 0.27849064522 0.56214233682 -0.7593513282 0.32769124724 0.57601529944 -0.70555433628 0.4127946867 
0.5669922256 -0.64046916588 0.51799523518 0.53256346063 -0.56783006308 0.62765052367 0.47262842762 -0.48399002075 0.73646183148 
0.37960969509 -0.37577786719 0.84539190553 0.22492630113 -0.20561009842 0.95243511406 -0.10083271024 0.18394007144 0.97775191877 
-0.44608274821 0.78706084084 0.4260814647 -0.38941332187 0.91452496692 -0.10955067149 -0.31577435314 0.89866691012 -0.30444103298 
-0.27234500434 0.87821207477 -0.3931561399 -0.25767354433 0.86967212992 -0.42104005866 -0.27686628176 0.88161969823 -0.38221953079 
-0.3406505994 0.91491278772 -0.21654505301 -0.41965750396 0.88829548718 0.18659771389 -0.40680471162 0.68285587677 0.60680950731 
-0.36073651988 0.49132508069 0.79276025904 -0.33283678006 0.38228035582 0.86202169775 -0.31794423336 0.32096644088 0.89212779819 
-0.30982035583 0.28580911244 0.90682109501 -0.30506671016 0.26532308222 0.91462449365 -0.30192829835 0.25293122841 0.9191654347 
-0.29943898046 0.24468802317 0.92220608776 -0.29767382403 0.2401280356 0.92397446989 -0.29855898591 0.24182274443 0.92324660422 
-0.30778711032 0.25437823267 0.91681994386 -0.33399340344 0.27846870434 0.90050185295 -0.37990751169 0.30469753527 0.87340122198 
-0.43489987677 0.32116058843 0.84125975395 -0.48273479605 0.32564321493 0.81297208639 -0.5150621091 0.32399867032 0.79355899931 
-0.53216461465 0.32163049993 0.78316961408 -0.53713916984 0.3207776797 0.78011742221 -0.53480460975 0.32112771479 0.78157598491 
-0.53059332682 0.32142974704 0.78431730776 -0.53023513753 0.32140367553 0.7845701857 -0.53803253382 0.32382777238 0.77823940172 
-0.55188571898 0.33367936363 0.76425142163 -0.56287691 0.3496062167 0.74896266759 -0.56699845714 0.36223015698 0.73979866381 
-0.56743204481 0.36571989131 0.73774645754 -0.56733007913 0.35869836049 0.74126383123 -0.56777244014 0.34083281013 0.74931131832 
-0.56717029468 0.3091022116 0.76339614855 -0.55585631689 0.25737125289 0.790432662 -0.49389073482 0.19855040921 0.84655163875 
-0.49389073482 0.19855040921 0.84655163875 
