# vtk DataFile Version 4.2
vtk output
ASCII
DATASET POLYDATA
POINTS 64 float
0 0 0 -0.620457 0.700852 0.46701 -1.32871 1.1861 0.926817 
-2.16019 1.54045 1.40911 -3.04871 1.7166 1.86186 -3.97688 1.73325 2.27056 
-4.92212 1.59444 2.61101 -5.86272 1.30402 2.85467 -6.77255 0.870643 2.96706 
-7.6205 0.317279 2.91385 -8.37694 -0.314295 2.67517 -9.02467 -0.974528 2.25936 
-9.54764 -1.63576 1.6957 -9.91717 -2.3016 1.02595 -10.1132 -2.97826 0.296429 
-10.1364 -3.6608 -0.453412 -10.0069 -4.33824 -1.19718 -9.75457 -5.0026 -1.9211 
-9.40851 -5.65247 -2.61906 -8.99247 -6.29221 -3.28759 -8.52418 -6.93094 -3.92173 
-8.01697 -7.58273 -4.51063 -7.48084 -8.27352 -5.02597 -6.93266 -9.05212 -5.37893 
-6.51844 -9.92562 -5.19361 -6.53238 -10.4785 -4.3372 -6.75117 -10.7402 -3.38259 
-7.02458 -10.9202 -2.42225 -7.3155 -11.0843 -1.4642 -7.60254 -11.2772 -0.510381 
-7.8674 -11.5385 0.433404 -8.0912 -11.9047 1.35252 -8.25497 -12.4 2.2223 
-8.34665 -13.0222 3.01796 -8.36622 -13.7417 3.73277 -8.32026 -14.521 4.38063 
-8.21286 -15.3304 4.98284 -8.04154 -16.1477 5.55897 -7.79622 -16.9552 6.12206 
-7.46036 -17.7352 6.67689 -7.01676 -18.4687 7.21931 -6.4547 -19.1344 7.73869 
-5.77608 -19.7118 8.22333 -4.9989 -20.1881 8.66825 -4.14908 -20.56 9.07881 
-3.25229 -20.83 9.46866 -2.33083 -21.0046 9.85546 -1.40394 -21.0941 10.2581 
-0.487973 -21.1158 10.6938 0.404986 -21.0949 11.1749 1.26751 -21.063 11.7082 
2.09497 -21.0544 12.2951 2.88473 -21.1028 12.93 3.63575 -21.2364 13.5988 
4.3477 -21.4738 14.2813 5.01999 -21.822 14.9564 5.65048 -22.2777 15.6075 
6.23403 -22.8319 16.2251 6.76118 -23.4746 16.8066 7.21706 -24.1971 17.3538 
7.58073 -24.9894 17.8692 7.82083 -25.8556 18.3616 7.91703 -26.7178 18.8038 
7.81347 -27.6615 19.2434 
LINES 1 65
64 0 1 2 3 4 5 6 7 8 9 10 11 12 13 14 15 16 17 18 19 20 21 22 23 24 25 26 27 28 29 30 31 32 33 34 35 36 37 38 39 40 41 42 43 44 45 46 47 48 49 50 51 52 53 54 55 56 57 58 59 60 61 62 63 

POINT_DATA 64
SCALARS MaximumInscribedSphereRadius float
LOOKUP_TABLE default
1.116 1.20259 1.22058 1.07838 1.0668 1.22371 1.25878 1.16917 0.986963 
1.35439 1.56288 1.50863 1.54957 1.83791 1.71487 1.44193 1.17655 1.116 
1.18306 1.46566 1.58946 1.40055 1.36622 1.51202 1.3577 1.6287 2.04069 
2.0407 1.86029 1.68162 1.701 2.02861 2.17 2.17 2.17 2.17 
2.16773 2.03663 1.89405 1.86 1.86 1.86094 1.87167 1.87843 1.86769 
1.92224 2.02666 1.98688 1.98845 2.27351 2.40258 2.21633 2.0291 1.96288 
2.27065 2.52847 2.61595 2.56018 2.46294 2.68291 2.72786 2.33574 2.18491 
2.17 
TEXTURE_COORDINATES TCoords 2 float
0 0 0.015873 0 0.031746 0 0.047619 0 0.0634921 
0 0.0793651 0 0.0952381 0 0.111111 0 0.126984 0 
0.142857 0 0.15873 0 0.174603 0 0.190476 0 0.206349 
0 0.222222 0 0.238095 0 0.253968 0 0.269841 0 
0.285714 0 0.301587 0 0.31746 0 0.333333 0 0.349206 
0 0.365079 0 0.380952 0 0.396825 0 0.412698 0 
0.428571 0 0.444444 0 0.460317 0 0.47619 0 0.492063 
0 0.507937 0 0.52381 0 0.539683 0 0.555556 0 
0.571429 0 0.587302 0 0.603175 0 0.619048 0 0.634921 
0 0.650794 0 0.666667 0 0.68254 0 0.698413 0 
0.714286 0 0.730159 0 0.746032 0 0.761905 0 0.777778 
0 0.793651 0 0.809524 0 0.825397 0 0.84127 0 
0.857143 0 0.873016 0 0.888889 0 0.904762 0 0.920635 
0 0.936508 0 0.952381 0 0.968254 0 0.984127 0 
1 0 
FIELD FieldData 4
Curvature 1 64 float
0.172899 0.168713 0.158085 0.146467 0.139285 0.141303 0.153061 0.169462 0.183196 
0.185746 0.170187 0.156548 0.157506 0.161963 0.158485 0.142759 0.118995 0.0924719 
0.0672568 0.0513288 0.0613263 0.110875 0.222921 0.523682 0.789697 0.367942 0.144227 
0.053083 0.0289149 0.0608463 0.0969924 0.124119 0.13286 0.117852 0.0916197 0.0677696 
0.0553646 0.0609487 0.0771175 0.0956729 0.111783 0.120934 0.117892 0.106333 0.0920376 
0.0793824 0.0698991 0.0617205 0.0540723 0.0499448 0.0555389 0.067576 0.0801247 0.0899033 
0.0951949 0.0948967 0.0917311 0.0888914 0.089722 0.0971453 0.111622 0.131038 0.151702 
0.167646 
Torsion 1 64 float
0.0154436 0.0220664 0.0309106 0.0423111 0.0553629 0.0674746 0.0762852 0.0835964 0.0956998 
0.094401 0.0705189 -0.0862773 -0.168694 -0.114108 -0.0522752 -0.020397 -0.0159679 -0.0347401 
-0.0911125 -0.213567 -0.218992 -0.109387 -0.0490008 -0.0234198 -0.0123784 -0.0102161 -0.021824 
-0.0958445 -0.300999 -0.0523719 -0.0137546 -0.0107606 -0.0228765 -0.0585056 -0.12426 -0.224238 
-0.298957 -0.196159 -0.0751481 -0.0143715 -0.00167383 -0.0141186 -0.0464113 -0.0913161 -0.142455 
-0.194981 -0.243626 -0.294776 -0.370195 -0.439603 -0.379791 -0.276337 -0.199702 -0.145323 
-0.097966 -0.0452759 0.0117909 0.0665547 0.106845 0.11718 0.105024 0.0861354 0.0663441 
0.0489743 
Abscissas 1 64 double
0 1.0460682131 2.0199831988 3.0444487296 4.0571082211 5.0714121162 6.0856375148 7.0997588726 8.1137795668 
9.1277135901 10.141644023 11.155724631 12.169844016 13.183974358 14.198123091 15.21235213 16.226692517 17.241140525 
18.255653455 19.27019238 20.284788148 21.299133163 22.314121686 23.329651016 24.313990374 25.333455469 26.34717943 
27.361775907 28.376380685 29.390960966 30.405435573 31.419813845 32.434042279 33.448247899 34.462652756 35.477119652 
36.49167421 37.506195614 38.520744697 39.535160426 40.549567658 41.563876366 42.578169963 43.592480649 44.606907631 
45.621361019 46.635849973 47.650371597 48.664916424 49.679445824 50.694026876 51.708529329 52.723005454 53.737486914 
54.751901905 55.76628705 56.780738259 57.795182183 58.809625009 59.824149417 60.836885327 61.86177966 62.835526796 
63.881731365 
ParallelTransportNormals 3 64 double
-0.74874597164 -0.66285705092 0 -0.60558684944 -0.78952223725 -0.099595204125 -0.47259482792 -0.86247487784 -0.18108344406 
-0.31613098108 -0.91062984712 -0.26610991026 -0.16529481438 -0.92664867983 -0.33763863598 -0.0094646064224 -0.91648691999 -0.39995268058 
0.15466459299 -0.87912931826 -0.45078875923 0.3268866433 -0.8117638296 -0.48392624167 0.49784783187 -0.71579303482 -0.48968139397 
0.64975400484 -0.60360118911 -0.46204473562 0.76692659053 -0.4958056227 -0.40743145343 0.85677202179 -0.39438994165 -0.3322623611 
0.93052233432 -0.28472956318 -0.23034161842 0.97994973915 -0.16740148827 -0.10805207289 0.99847417375 -0.052556136341 0.016946294198 
0.9905617796 0.048681056078 0.12813085329 0.96731088249 0.13038911887 0.21750479145 0.93869604413 0.19323559575 0.28549910905 
0.9105012095 0.24094636084 0.33605416036 0.88497352628 0.27785163426 0.37365803499 0.86233392912 0.30780215782 0.40204231907 
0.84076186764 0.33556128449 0.42487422406 0.81443154861 0.37124206914 0.44596028829 0.76372155006 0.45856066224 0.45436935748 
0.73317619641 0.56582530488 0.37721928554 0.73921753579 0.58689689005 0.33031723423 0.74148675549 0.58893354612 0.3214882108 
0.74029282827 0.58820554874 0.32554686428 0.73595583825 0.58552663598 0.33989345787 0.72867055929 0.57953097963 0.36494254298 
0.71917164556 0.5673330378 0.40115504291 0.70972713527 0.54633905282 0.44474828028 0.70333645066 0.51838207202 0.48641326522 
0.70121437848 0.49279140727 0.5152232762 0.70144599571 0.47963593501 0.52718391947 0.70110325537 0.48318653073 0.5243901237 
0.6973995856 0.50480226548 0.50873223878 0.68728214483 0.54425801885 0.48106804334 0.66656136285 0.60085647947 0.44121133331 
0.63073261746 0.67042615421 0.39077504657 0.57614807903 0.74637029545 0.33314377242 0.50249080764 0.8201711165 0.273536703 
0.416019936 0.8827584229 0.21832310837 0.32481463464 0.93030670223 0.17036693608 0.23412996002 0.96363443706 0.12880929134 
0.147963823 0.98470399033 0.092004122225 0.070547866784 0.99576560754 0.058939403853 0.0089678385608 0.99948145015 0.030925857759 
-0.029541096255 0.99949845641 0.011408736434 -0.040200247351 0.99917785405 0.0052493895767 -0.022455352527 0.99960310315 0.017011564166 
0.021078978568 0.99853167991 0.049901511715 0.084258792725 0.99106871886 0.10335981013 0.15894278938 0.97212912182 0.1723431467 
0.23675231515 0.93921185358 0.24865525403 0.31095372477 0.89342500653 0.32419059016 0.37809023306 0.83757746764 0.39434979571 
0.437459858 0.7736002769 0.45844463594 0.48950009083 0.70132890071 0.51819632776 0.53378773979 0.61945914247 0.57562228905 
0.57015010702 0.51972338226 0.63625188518 0.58938783499 0.4197631565 0.69023247708 0.58937352788 0.28708249363 0.75513077443 
0.58937352788 0.28708249363 0.75513077443 
