# vtk DataFile Version 4.2
vtk output
ASCII
DATASET POLYDATA
POINTS 64 float
0 0 0 -0.998927 0.277719 -0.0748548 -1.95624 0.392658 0.104695 
-2.91647 0.335197 0.456845 -3.78797 0.0812608 0.904121 -4.58812 -0.337627 1.36678 
-5.32465 -0.887645 1.7957 -6.0196 -1.53066 2.1601 -6.69798 -2.23251 2.43654 
-7.37931 -2.96705 2.5957 -8.05569 -3.72295 2.59378 -8.66161 -4.5062 2.37498 
-9.06023 -5.31558 1.91468 -9.15444 -6.11634 1.30067 -9.00785 -6.88526 0.655465 
-8.72852 -7.6341 0.0308697 -8.3845 -8.38335 -0.563844 -8.01304 -9.1471 -1.09698 
-7.63529 -9.98461 -1.64249 -7.24814 -10.6982 -1.28072 -7.15114 -10.4029 -0.328478 
-7.07731 -9.93759 0.568829 -6.98949 -9.45039 1.45604 -6.88501 -9.00572 2.36147 
-6.77537 -8.67487 3.31422 -6.68095 -8.62686 4.32306 -6.62176 -9.04621 5.23976 
-6.57075 -9.80721 5.90779 -6.49331 -10.7011 6.38082 -6.38313 -11.6441 6.73853 
-6.25032 -12.6074 7.02794 -6.11314 -13.5811 7.27797 -5.99156 -14.5616 7.50876 
-5.89986 -15.546 7.73654 -5.8372 -16.5294 7.97817 -5.78258 -17.504 8.25519 
-5.69196 -18.455 8.59675 -5.4995 -19.3479 9.03768 -5.13931 -20.1132 9.59632 
-4.60031 -20.6795 10.2417 -3.93198 -21.0347 10.9168 -3.19208 -21.2201 11.5856 
-2.41894 -21.2881 12.2389 -1.63319 -21.2813 12.8807 -0.844201 -21.2284 13.5164 
-0.0548828 -21.146 14.1486 0.734585 -21.0389 14.7768 1.52439 -20.9011 15.3986 
2.31346 -20.7202 16.0102 3.09935 -20.4852 16.6072 3.88006 -20.1944 17.1863 
4.65751 -19.8618 17.747 5.4391 -19.5152 18.2932 6.23532 -19.1926 18.833 
7.05443 -18.9441 19.3776 7.89204 -18.8348 19.9391 8.71508 -18.9336 20.5231 
9.4609 -19.2705 21.1218 10.0735 -19.8092 21.7242 10.5251 -20.4844 22.3321 
10.8043 -21.23 22.9572 10.8739 -21.9908 23.6387 10.726 -22.6595 24.3425 
10.2709 -23.1612 25.1305 
LINES 1 65
64 0 1 2 3 4 5 6 7 8 9 10 11 12 13 14 15 16 17 18 19 20 21 22 23 24 25 26 27 28 29 30 31 32 33 34 35 36 37 38 39 40 41 42 43 44 45 46 47 48 49 50 51 52 53 54 55 56 57 58 59 60 61 62 63 

POINT_DATA 64
SCALARS MaximumInscribedSphereRadius float
LOOKUP_TABLE default
1.55 1.36514 1.24 1.24 1.24 1.24 1.24 1.24 1.24143 
1.26202 1.26911 1.13091 1.16441 1.4887 1.31483 1.01804 1.05265 1.18777 
1.24 1.27476 1.48756 1.55 1.56839 1.67843 1.77603 1.64662 1.55578 
1.58115 1.75325 1.79151 1.63176 1.55034 1.55 1.45681 1.29957 1.34583 
1.47873 1.41918 1.39997 1.65429 1.94329 2.19827 1.96395 1.67623 1.85191 
2.06665 2.00547 1.95907 2.09786 2.33788 2.62405 2.59043 2.27572 2.04948 
1.90885 2.0157 2.23016 2.6125 2.68783 2.3384 2.28486 2.44811 2.34863 
2.17 
TEXTURE_COORDINATES TCoords 2 float
0 0 0.015873 0 0.031746 0 0.047619 0 0.0634921 
0 0.0793651 0 0.0952381 0 0.111111 0 0.126984 0 
0.142857 0 0.15873 0 0.174603 0 0.190476 0 0.206349 
0 0.222222 0 0.238095 0 0.253968 0 0.269841 0 
0.285714 0 0.301587 0 0.31746 0 0.333333 0 0.349206 
0 0.365079 0 0.380952 0 0.396825 0 0.412698 0 
0.428571 0 0.444444 0 0.460317 0 0.47619 0 0.492063 
0 0.507937 0 0.52381 0 0.539683 0 0.555556 0 
0.571429 0 0.587302 0 0.603175 0 0.619048 0 0.634921 
0 0.650794 0 0.666667 0 0.68254 0 0.698413 0 
0.714286 0 0.730159 0 0.746032 0 0.761905 0 0.777778 
0 0.793651 0 0.809524 0 0.825397 0 0.84127 0 
0.857143 0 0.873016 0 0.888889 0 0.904762 0 0.920635 
0 0.936508 0 0.952381 0 0.968254 0 0.984127 0 
1 0 
FIELD FieldData 4
Curvature 1 64 float
0.245409 0.251474 0.231459 0.198607 0.165068 0.135046 0.107202 0.0919458 0.108897 
0.151497 0.21088 0.281773 0.306195 0.239733 0.144114 0.0709245 0.0696043 0.198613 
0.845011 1.03176 0.258496 0.0829882 0.0466637 0.142089 0.288616 0.432265 0.383156 
0.229193 0.131056 0.0733268 0.0380813 0.0248114 0.0279503 0.0301634 0.0356381 0.0730887 
0.140879 0.213032 0.2437 0.218249 0.164894 0.110206 0.0671166 0.0402381 0.0274161 
0.0247197 0.0288656 0.038604 0.0493519 0.0533567 0.0426818 0.0231156 0.0277286 0.0703694 
0.126686 0.185198 0.221384 0.211887 0.185134 0.166851 0.179334 0.228917 0.293611 
0.321014 
Torsion 1 64 float
0.105243 0.163097 0.212913 0.22906 0.221007 0.225541 0.293737 0.371006 0.193256 
-0.0640709 -0.210017 -0.242956 -0.197756 -0.130181 -0.12879 -0.310923 -0.375846 -0.0380462 
0.0587283 0.0948737 0.0453688 0.208461 0.697003 0.0847237 0.0211171 -0.0441379 -0.103863 
-0.112976 -0.0750309 0.0407268 0.410031 0.701984 0.488119 0.548709 0.719231 0.327306 
0.128562 0.0624893 0.0360429 0.0211182 0.00185885 -0.0286226 -0.0609792 -0.0605237 -0.0100099 
0.0325782 0.0139403 -0.00429187 0.00185264 0.0333991 0.157227 0.92056 1.19771 0.18549 
0.0963498 0.0847888 0.0957249 0.127717 0.180105 0.244605 0.237582 0.166474 0.101013 
0.0559552 
Abscissas 1 64 double
0 1.0395124937 2.0202761763 3.0446555091 4.0566098992 5.0713809479 6.0857616904 7.100262234 8.114763079 
9.1292046923 10.143540843 11.157687112 12.170539777 13.183999555 14.198403862 15.212753547 16.229321762 17.232083261 
18.300585692 19.189390776 20.191077408 21.20454879 22.220530774 23.234656359 24.249158933 25.263544654 26.273345186 
27.287242089 28.301536929 29.316103344 30.330668707 31.345275055 32.359880707 33.374442449 34.389029841 35.403706285 
36.418239123 37.43250283 38.446158728 39.459930705 40.474125459 41.488580436 42.503060844 43.517632918 44.532234749 
45.546872055 46.561448618 47.576049726 48.590649311 49.605172063 50.619779959 51.634391185 52.648959267 53.663563567 
54.678099109 55.692406359 56.706414449 57.720411887 58.734493414 59.749077155 60.761312759 61.78508371 62.767106119 
63.806222363 
ParallelTransportNormals 3 64 double
-0.074725694971 0 0.9972041268 0.17828325596 -0.050202990898 0.98269768513 0.34670902847 -0.055581081653 0.93632451262 
0.46447724605 -0.035477267652 0.88487414437 0.50757807508 -0.01813651265 0.86141486207 0.5117869137 -0.015482669631 0.8589728994 
0.48896377946 -0.034503950061 0.87162142 0.44444871435 -0.078096350427 0.89239357929 0.37588203526 -0.15052983889 0.91435959183 
0.28145089951 -0.25419267944 0.9252953436 0.17164998243 -0.38598810104 0.90639366138 0.084746643581 -0.52378696915 0.84762327561 
0.057818981854 -0.61174698926 0.78893763155 0.058596825835 -0.63510675858 0.770198557 0.056330939472 -0.62703236685 0.77695381856 
0.048134043278 -0.60733063238 0.79298967008 0.027272237416 -0.56322362686 0.82585432808 0.0165991219 -0.54043962773 0.84121904278 
-0.37584943132 0.24865859139 0.89269597843 -0.7712440285 0.62596292615 -0.11555545673 -0.78226802455 0.57698217277 -0.23483677323 
-0.78258611535 0.57510770256 -0.23834869943 -0.77867546561 0.59405605629 -0.20189581779 -0.77019752096 0.62476327596 -0.12832235857 
-0.7527724953 0.65711361846 0.039182429075 -0.73016699378 0.60228230102 0.32266420791 -0.71443860497 0.43393968992 0.54888416378 
-0.70281694979 0.28420790677 0.65213050904 -0.69255123178 0.18369967942 0.69758671084 -0.68462677116 0.12153088914 0.718690773 
-0.68035549228 0.090887268343 0.72722479921 -0.67985315047 0.087093496652 0.72815823599 -0.68169578606 0.10406930618 0.72419640622 
-0.68394050426 0.13268521406 0.71737021168 -0.68576686639 0.16317640718 0.70929349716 -0.68752908613 0.18653953577 0.70178825676 
-0.68898970798 0.19605310391 0.69775093174 -0.68669476736 0.18916803159 0.70190152607 -0.67587258048 0.17314125827 0.71639260161 
-0.65824905537 0.15968906437 0.73566812071 -0.64125522478 0.15316506405 0.75188576249 -0.63019718251 0.15131308852 0.76154833097 
-0.62611210627 0.15115270693 0.76494214786 -0.62632206403 0.1511447473 0.76477182053 -0.62752966522 0.15104122663 0.76380171977 
-0.62797652752 0.15098759032 0.76344497408 -0.6276211333 0.15104270165 0.76372626988 -0.62699373876 0.15116934318 0.76421638378 
-0.62623869024 0.15136872964 0.76479579662 -0.62471570417 0.15187988798 0.76593915463 -0.62039368944 0.15360907566 0.76910072291 
-0.61163108149 0.15742653775 0.77532206558 -0.59807275459 0.16317705544 0.7846542097 -0.58077277189 0.16929343703 0.79626799484 
-0.56390315772 0.17293658092 0.8075309082 -0.55606537661 0.17298599282 0.81293735505 -0.56668073262 0.17593406838 0.80493487368 
-0.59547124275 0.19449140817 0.77947873044 -0.63394899015 0.23837892693 0.73572016764 -0.67172042118 0.31183722939 0.67197412013 
-0.70126602186 0.43899860584 0.56169937748 -0.69250280652 0.59003802605 0.41508431768 -0.5913234303 0.79009350068 0.16152046611 
-0.5913234303 0.79009350068 0.16152046611 
