# vtk DataFile Version 4.2
vtk output
ASCII
DATASET POLYDATA
POINTS 64 float
0 0 0 -1.01696 0.115449 0.129632 -1.99161 -0.00575101 0.256125 
-2.96362 -0.305817 0.371247 -3.87492 -0.737155 0.455639 -4.75384 -1.24339 0.501786 
-5.61115 -1.78563 0.499042 -6.46282 -2.33302 0.431959 -7.31322 -2.86311 0.273502 
-8.14734 -3.36163 -0.0178818 -8.91848 -3.82386 -0.487479 -9.55002 -4.26423 -1.14764 
-9.97843 -4.70871 -1.95234 -10.1922 -5.17805 -2.82581 -10.2163 -5.68153 -3.70614 
-10.0834 -6.22091 -4.55499 -9.81912 -6.79599 -5.34786 -9.43919 -7.40804 -6.06218 
-8.94969 -8.06056 -6.66531 -8.35124 -8.7578 -7.09476 -7.65597 -9.48971 -7.20695 
-6.99949 -10.1448 -6.81161 -6.56691 -10.5958 -6.01304 -6.35733 -10.8814 -5.06213 
-6.29913 -11.0846 -4.06991 -6.34793 -11.2584 -3.07153 -6.47691 -11.4405 -2.08181 
-6.66694 -11.6644 -1.11067 -6.89885 -11.9648 -0.169763 -7.14772 -12.3773 0.72303 
-7.37917 -12.9295 1.54189 -7.55313 -13.623 2.26143 -7.63747 -14.4287 2.87198 
-7.61773 -15.302 3.38788 -7.49358 -16.202 3.8393 -7.26711 -17.0986 4.2566 
-6.93709 -17.9677 4.66285 -6.49967 -18.7853 5.07453 -5.95181 -19.5244 5.50195 
-5.29743 -20.1578 5.94895 -4.55125 -20.6646 6.41311 -3.73684 -21.0378 6.88916 
-2.87937 -21.2841 7.37224 -1.99975 -21.4183 7.85962 -1.11268 -21.4579 8.35042 
-0.227282 -21.4191 8.84432 0.651653 -21.317 9.34073 1.52265 -21.1662 9.83877 
2.38707 -20.9832 10.3375 3.24813 -20.7867 10.8369 4.1098 -20.5983 11.3383 
4.97498 -20.4438 11.8453 5.84293 -20.3526 12.3627 6.70621 -20.357 12.8956 
7.54743 -20.4895 13.4469 8.33743 -20.7767 14.0148 9.03878 -21.2291 14.5912 
9.61772 -21.8325 15.1655 10.0579 -22.5506 15.7306 10.3603 -23.342 16.2901 
10.5359 -24.1654 16.8508 10.5867 -24.9969 17.4465 10.5254 -25.7669 18.0661 
10.3145 -26.4455 18.8142 
LINES 1 65
64 0 1 2 3 4 5 6 7 8 9 10 11 12 13 14 15 16 17 18 19 20 21 22 23 24 25 26 27 28 29 30 31 32 33 34 35 36 37 38 39 40 41 42 43 44 45 46 47 48 49 50 51 52 53 54 55 56 57 58 59 60 61 62 63 

POINT_DATA 64
SCALARS MaximumInscribedSphereRadius float
LOOKUP_TABLE default
0.62 0.959827 1.20597 1.07057 1.06547 1.25412 1.51527 1.65796 1.44835 
1.39501 1.49031 1.37683 1.41186 1.54644 1.55 1.52257 1.36635 1.34314 
1.63609 1.78971 1.69584 1.60988 1.5708 1.57362 1.72254 1.86 1.86 
1.86 1.85549 1.79301 1.68494 1.83273 2.05196 1.98857 1.94144 2.06754 
2.0898 1.94263 1.94463 2.08632 1.94303 1.69743 1.82831 2.0197 1.85505 
1.61491 1.55 1.64622 1.9348 2.18273 2.23466 2.2419 2.19745 2.17637 
2.18752 2.18514 2.17374 2.17 2.22676 2.37178 2.38993 2.24363 2.18293 
2.1948 
TEXTURE_COORDINATES TCoords 2 float
0 0 0.015873 0 0.031746 0 0.047619 0 0.0634921 
0 0.0793651 0 0.0952381 0 0.111111 0 0.126984 0 
0.142857 0 0.15873 0 0.174603 0 0.190476 0 0.206349 
0 0.222222 0 0.238095 0 0.253968 0 0.269841 0 
0.285714 0 0.301587 0 0.31746 0 0.333333 0 0.349206 
0 0.365079 0 0.380952 0 0.396825 0 0.412698 0 
0.428571 0 0.444444 0 0.460317 0 0.47619 0 0.492063 
0 0.507937 0 0.52381 0 0.539683 0 0.555556 0 
0.571429 0 0.587302 0 0.603175 0 0.619048 0 0.634921 
0 0.650794 0 0.666667 0 0.68254 0 0.698413 0 
0.714286 0 0.730159 0 0.746032 0 0.761905 0 0.777778 
0 0.793651 0 0.809524 0 0.825397 0 0.84127 0 
0.857143 0 0.873016 0 0.888889 0 0.904762 0 0.920635 
0 0.936508 0 0.952381 0 0.968254 0 0.984127 0 
1 0 
FIELD FieldData 4
Curvature 1 64 float
0.225965 0.214129 0.175722 0.127964 0.0859548 0.0622085 0.0677248 0.096604 0.136488 
0.181372 0.219251 0.236275 0.223404 0.192951 0.160751 0.137891 0.133231 0.154196 
0.214049 0.334631 0.486863 0.471057 0.313115 0.185853 0.112566 0.0753887 0.0710278 
0.0903744 0.120571 0.150137 0.167373 0.16578 0.147007 0.120545 0.10217 0.0992155 
0.109193 0.125328 0.139415 0.144207 0.137844 0.123161 0.104956 0.08732 0.0719205 
0.058326 0.0449544 0.0300815 0.0129157 0.0102713 0.0321848 0.0600102 0.0904904 0.121902 
0.15068 0.171442 0.177445 0.165706 0.143176 0.122037 0.11515 0.136468 0.200383 
0.324792 
Torsion 1 64 float
-0.027246 -0.0464381 -0.0789531 -0.143072 -0.290129 -0.458976 -0.3495 -0.0792858 0.0658563 
0.166333 0.224601 0.208571 0.166083 0.127886 0.109242 0.106347 0.105097 0.0952859 
0.0809999 0.0730071 0.0754418 0.0846782 0.099659 0.139857 0.236721 0.407794 0.446261 
0.312467 0.214763 0.170437 0.157346 0.16362 0.195721 0.250247 0.272437 0.228903 
0.155038 0.0945514 0.0582785 0.0429029 0.0399401 0.0434072 0.0484661 0.0498796 0.0428247 
0.0280372 0.0126956 0.0106535 0.173516 0.215962 -0.0129916 -0.0390662 -0.0413645 -0.0427894 
-0.0456881 -0.050675 -0.0638979 -0.0910325 -0.138411 -0.211462 -0.279973 -0.268678 -0.197674 
-0.136892 
Abscissas 1 64 double
0 1.0316688506 2.0219378011 3.0457033583 4.0574553438 5.072789706 6.0871919423 7.1018239763 8.1163604431 
9.1308467355 10.145161837 11.1593518 12.173570576 13.187931073 14.202354039 15.216819058 16.231315683 17.245813478 
18.260287979 19.274542794 20.290258795 21.29842715 22.312449308 23.327200977 24.341685074 25.35625406 26.370819133 
27.385390732 28.399948808 29.414429995 30.428838721 31.443206966 32.457621754 33.472114135 34.48660537 35.501159851 
36.515696551 37.530234345 38.544684542 39.559188124 40.573621506 41.588099402 42.602636057 43.61717067 44.631737511 
45.646317439 46.660897903 47.675501329 48.690115716 49.704727772 50.719306849 51.733927948 52.748500805 53.763022609 
54.777487412 55.791929766 56.80622499 57.820662832 58.834943322 59.85022549 60.861762758 61.88588899 62.876120101 
63.907929847 
ParallelTransportNormals 3 64 double
0.12644694498 0 0.99197337167 0.12870214312 1.2004141221e-05 0.99168329532 0.11829201796 -0.0022248350958 0.99297635853 
0.09711419606 -0.010459753207 0.99521828082 0.067364139919 -0.026037737217 0.99738864486 0.028223258528 -0.049674650847 0.99836660438 
-0.024807982684 -0.083486852525 0.99620003486 -0.10144860848 -0.13200346843 0.98604425061 -0.21399158493 -0.2007249949 0.95599010351 
-0.36444096901 -0.29076913269 0.88466722081 -0.52053979255 -0.39121640746 0.7589387636 -0.63239902874 -0.48459667099 0.60434885201 
-0.68462541177 -0.55891284424 0.46787228824 -0.6979198467 -0.61328181195 0.36985579178 -0.69388068469 -0.65199878029 0.30565861008 
-0.68403155414 -0.67963492508 0.26494754492 -0.6735971258 -0.69886316798 0.24053520439 -0.66561520174 -0.71047271264 0.2284402062 
-0.66504281217 -0.71118284007 0.22789696349 -0.68604426676 -0.68798205538 0.2366938012 -0.7525407145 -0.61975836595 0.22267025141 
-0.82722552743 -0.54391029019 0.14092381982 -0.86430965984 -0.50137421445 0.039908758413 -0.8762596886 -0.4795597249 -0.046812694636 
-0.87662337411 -0.4649803464 -0.12379312346 -0.87011732255 -0.45195582936 -0.19654967135 -0.85837607305 -0.43701289211 -0.26871964822 
-0.84245806183 -0.4172332722 -0.3408530631 -0.82429899747 -0.39030688334 -0.41011181351 -0.80774723694 -0.35706324744 -0.46909512739 
-0.79769686308 -0.32618141336 -0.50723308272 -0.79511725781 -0.31120924341 -0.52051642928 -0.79551037949 -0.32142611136 -0.51366184505 
-0.79260825834 -0.35719183889 -0.49415193923 -0.78142865524 -0.41447735362 -0.46645233423 -0.75779998388 -0.48944916078 -0.43148430266 
-0.71704750473 -0.57901600999 -0.38805068759 -0.65417468574 -0.67835176361 -0.33450615144 -0.56728699077 -0.77754493744 -0.27131041332 
-0.46105932845 -0.86402464059 -0.20220216641 -0.34723705079 -0.92820801784 -0.13362749039 -0.23818736481 -0.96861560977 -0.071067431046 
-0.14154644467 -0.98978430891 -0.017077055741 -0.060056671849 -0.99780099902 0.028042156236 0.0072308979184 -0.99783135716 0.065423977107 
0.061314522598 -0.99351223853 0.095780797721 0.10274361851 -0.9875249427 0.11932408139 0.13005517027 -0.98227169585 0.13501099295 
0.14145957166 -0.97976341663 0.14160804009 0.13450762765 -0.98131664694 0.13756938807 0.10555726412 -0.98706531183 0.1206637235 
0.051601130696 -0.99471447004 0.088771878463 -0.029512401672 -0.99878119037 0.039562000957 -0.13705392275 -0.9901435727 -0.028843156795 
-0.26446589906 -0.9573614318 -0.11626210533 -0.39649546099 -0.89188320504 -0.217567686 -0.51181396743 -0.79678644541 -0.32121304948 
-0.59436518657 -0.68973981335 -0.41350817993 -0.6432251209 -0.59043005489 -0.48749748115 -0.66659555415 -0.51143742477 -0.54229339636 
-0.67407418375 -0.45695882758 -0.58035560193 -0.67386472113 -0.42989352024 -0.60091421923 -0.67591356721 -0.44093602199 -0.5905220353 
-0.67591356721 -0.44093602199 -0.5905220353 
