# vtk DataFile Version 4.2
vtk output
ASCII
DATASET POLYDATA
POINTS 64 float
0 0 0 -0.987381 0.327539 0.100295 -1.94829 0.321299 0.294944 
-2.85682 -0.0271527 0.577176 -3.63693 -0.596167 0.888043 -4.3591 -1.24347 1.18604 
-5.1001 -1.88911 1.4374 -5.90128 -2.48971 1.59833 -6.75991 -3.02855 1.62048 
-7.63085 -3.52621 1.47259 -8.44253 -4.04046 1.14943 -9.10024 -4.63854 0.663811 
-9.48888 -5.34967 0.0577034 -9.55272 -6.1245 -0.590971 -9.34485 -6.89333 -1.21776 
-8.94058 -7.62462 -1.79156 -8.37792 -8.31152 -2.28315 -7.6418 -8.94572 -2.599 
-6.86963 -9.26148 -2.17076 -6.67522 -9.06466 -1.19449 -6.71004 -8.78709 -0.219594 
-6.82793 -8.52532 0.7535 -6.98615 -8.32908 1.73611 -7.16404 -8.26682 2.73232 
-7.33934 -8.46335 3.70966 -7.47655 -9.04025 4.52681 -7.55846 -9.89558 5.06257 
-7.60477 -10.8499 5.40269 -7.62815 -11.8315 5.65826 -7.62319 -12.8188 5.89162 
-7.57124 -13.802 6.1366 -7.44215 -14.7699 6.41104 -7.1975 -15.7044 6.7201 
-6.80017 -16.5744 7.05645 -6.23168 -17.3379 7.40472 -5.50651 -17.9556 7.75122 
-4.66553 -18.4059 8.09448 -3.7568 -18.688 8.44497 -2.82206 -18.8143 8.81747 
-1.89268 -18.8047 9.2235 -0.988642 -18.6836 9.66732 -0.119142 -18.4786 10.148 
0.714846 -18.2189 10.664 1.51735 -17.9366 11.2168 2.29368 -17.6689 11.8126 
3.0453 -17.4598 12.4609 3.76381 -17.3597 13.1695 4.42661 -17.4184 13.9344 
5.0029 -17.6662 14.7305 5.4718 -18.1019 15.5165 5.83424 -18.7001 16.2504 
6.10699 -19.4277 16.902 6.30951 -20.2544 17.4533 6.45206 -21.1569 17.8935 
6.53025 -22.1172 18.2099 6.52668 -23.1165 18.3812 6.42201 -24.1248 18.3849 
6.21528 -25.1036 18.2202 5.93276 -26.0304 17.9206 5.61353 -26.9132 17.5361 
5.29577 -27.78 17.1138 5.01666 -28.6639 16.6974 4.81838 -29.5566 16.3416 
4.75207 -30.5689 16.0887 
LINES 1 65
64 0 1 2 3 4 5 6 7 8 9 10 11 12 13 14 15 16 17 18 19 20 21 22 23 24 25 26 27 28 29 30 31 32 33 34 35 36 37 38 39 40 41 42 43 44 45 46 47 48 49 50 51 52 53 54 55 56 57 58 59 60 61 62 63 

POINT_DATA 64
SCALARS MaximumInscribedSphereRadius float
LOOKUP_TABLE default
1.24 1.09004 0.977131 1.14728 1.25246 1.30886 1.71981 2.02102 1.84014 
2.01474 2.31431 2.22587 1.95191 1.60422 1.42268 1.41974 1.7924 1.69087 
1.68146 1.55923 1.43381 1.88506 2.08343 1.89001 1.86 2.09357 2.42048 
2.08244 1.87916 1.86579 1.86009 1.86 1.86 1.86 1.86 1.83333 
1.77767 1.80237 1.85355 1.86 1.92259 2.1004 2.06245 1.94538 2.18031 
2.36879 1.81726 1.56109 1.67514 2.13225 2.26169 1.91537 2.16915 2.39909 
2.27262 2.25813 2.44861 2.63842 2.69061 2.36151 2.25805 2.43796 2.73946 
3.1 
TEXTURE_COORDINATES TCoords 2 float
0 0 0.015873 0 0.031746 0 0.047619 0 0.0634921 
0 0.0793651 0 0.0952381 0 0.111111 0 0.126984 0 
0.142857 0 0.15873 0 0.174603 0 0.190476 0 0.206349 
0 0.222222 0 0.238095 0 0.253968 0 0.269841 0 
0.285714 0 0.301587 0 0.31746 0 0.333333 0 0.349206 
0 0.365079 0 0.380952 0 0.396825 0 0.412698 0 
0.428571 0 0.444444 0 0.460317 0 0.47619 0 0.492063 
0 0.507937 0 0.52381 0 0.539683 0 0.555556 0 
0.571429 0 0.587302 0 0.603175 0 0.619048 0 0.634921 
0 0.650794 0 0.666667 0 0.68254 0 0.698413 0 
0.714286 0 0.730159 0 0.746032 0 0.761905 0 0.777778 
0 0.793651 0 0.809524 0 0.825397 0 0.84127 0 
0.857143 0 0.873016 0 0.888889 0 0.904762 0 0.920635 
0 0.936508 0 0.952381 0 0.968254 0 0.984127 0 
1 0 
FIELD FieldData 4
Curvature 1 64 float
0.208253 0.270053 0.277327 0.178438 0.0699567 0.0355703 0.0819845 0.114448 0.122382 
0.128712 0.165458 0.220171 0.236761 0.192443 0.140597 0.134989 0.217758 0.660315 
0.765049 0.231505 0.0863523 0.0526922 0.107761 0.19776 0.296877 0.291166 0.177745 
0.0849479 0.033087 0.0342894 0.0602825 0.0899482 0.118588 0.14031 0.147716 0.140785 
0.125393 0.109955 0.0966435 0.082997 0.067624 0.0512002 0.0367868 0.0382677 0.0594884 
0.0920709 0.124627 0.146131 0.149534 0.139782 0.124054 0.109669 0.101291 0.103544 
0.118051 0.135751 0.139312 0.114018 0.073268 0.0323632 0.0313426 0.0741946 0.12548 
0.170582 
Torsion 1 64 float
-0.00144458 -0.0036232 -0.0104715 -0.0529595 -0.442619 -1.08695 -0.00610756 0.138771 0.278612 
0.359539 0.247749 0.107007 0.0237508 0.0114028 0.0411889 0.0954313 0.0983491 0.0902048 
0.0690174 0.0794735 0.256257 0.426551 0.122311 0.0348733 0.00189745 -0.00953501 0.00709783 
0.09356 0.441893 0.303373 -0.00331456 -0.0504741 -0.0454636 -0.0180392 0.0238019 0.0706633 
0.106627 0.12317 0.111466 0.0892292 0.0983588 0.177918 0.39816 0.453924 0.201605 
0.0777136 0.0322841 0.0263505 0.0466454 0.0739234 0.0874405 0.0757907 0.0266517 -0.0208087 
-0.0373813 -0.0246259 -0.0029685 0.0283712 0.101177 0.744925 0.764677 0.11287 0.0424941 
0.0197739 
Abscissas 1 64 double
0 1.0451134312 2.0255588861 3.0387224682 4.0531124487 5.067672774 6.0821253894 7.0962793199 8.1102244634 
9.1241638574 10.137923991 11.150893719 12.162878848 13.175408018 14.188904236 15.202543721 16.217471452 17.239158284 
18.176890082 19.191600109 20.205838512 21.2203993 22.234828303 23.248709847 24.260909309 25.270549805 26.283139641 
27.297315509 28.311909413 29.326425434 30.341017133 31.355321002 32.369550501 33.383405744 34.397015846 35.410666798 
36.424492319 37.438501753 38.452625164 39.466873823 40.481234001 41.495683589 42.510195937 43.524737431 44.539296335 
45.553667141 46.567763203 47.581578059 48.595132081 49.608787531 50.622599742 51.6366889 52.65077937 53.664979595 
54.679080129 55.692962388 56.706686273 57.720546361 58.734713466 59.749152168 60.764362374 61.780517256 62.761751917 
63.807268241 
ParallelTransportNormals 3 64 double
0.10105679297 0 0.99488065847 0.19860822389 -0.015560720952 0.97995542621 0.29576147485 0.0025721140633 0.95525835993 
0.34980788704 0.031930802453 0.93627713099 0.35399083486 0.035317486998 0.93458181233 0.31828897445 0.0037692512584 0.94798624541 
0.23953177951 -0.059873959955 0.96904057476 0.11609927077 -0.14460813969 0.98265428573 -0.031769211204 -0.23322303566 0.97190417885 
-0.17074610624 -0.31680270021 0.93299615023 -0.28056205163 -0.39993932782 0.8725442506 -0.35141711323 -0.48860908052 0.79860326757 
-0.37797185609 -0.57579789264 0.72497866371 -0.37152780391 -0.64492495503 0.66786143271 -0.35292697264 -0.69050958879 0.6313786976 
-0.33652225232 -0.71457327389 0.61330074999 -0.34396788322 -0.70699532957 0.61793502837 -0.56426958204 -0.57037633439 0.59688413947 
-0.79985410479 -0.5372422416 0.26758958293 -0.8108343881 -0.56989397687 0.13329835035 -0.80517766104 -0.58987418776 0.06113408852 
-0.79554399227 -0.60585421429 -0.0071012245436 -0.7796634586 -0.61806592774 -0.10059522995 -0.75167884658 -0.60741006688 -0.25696677267 
-0.7127603039 -0.51101588643 -0.48045344519 -0.68624022058 -0.33778608678 -0.64418546959 -0.67771256394 -0.21746121564 -0.702435976 
-0.67602350428 -0.17054394646 -0.71687305988 -0.67604377472 -0.17271079657 -0.7163349743 -0.67491534162 -0.2117837991 -0.70684998697 
-0.66820637952 -0.28408310459 -0.68760237351 -0.64805429421 -0.38665948645 -0.65614028477 -0.60347678846 -0.51195312528 -0.61132623312 
-0.52510489292 -0.64450029295 -0.55577353645 -0.413529937 -0.76362595323 -0.49585118207 -0.27951539923 -0.85501582413 -0.43682843551 
-0.137200984 -0.91458768449 -0.38040144238 0.002077337853 -0.94544402371 -0.32577796533 0.12901391416 -0.95339131512 -0.2727643859 
0.23620479667 -0.945750235 -0.22307798418 0.31888845807 -0.93054733538 -0.17997724277 0.37572054489 -0.91504403334 -0.14672589818 
0.40587931534 -0.90505557379 -0.12702909005 0.40808283334 -0.90428795822 -0.125426033 0.38107086113 -0.91271699961 -0.14742007131 
0.32511688598 -0.92448481081 -0.19906492669 0.24557003518 -0.92686775072 -0.28392169783 0.15708142442 -0.90497727136 -0.39540051141 
0.076215880397 -0.85209637319 -0.51780586166 0.011950390475 -0.77217408713 -0.6352986442 -0.03509250663 -0.67398703247 -0.73790920582 
-0.068399629166 -0.56506108683 -0.82220889005 -0.091719089761 -0.44820507918 -0.8892130316 -0.10703120945 -0.31898564243 -0.94169659664 
-0.11279945847 -0.16748663975 -0.97940007539 -0.1033867469 0.0070842671957 -0.99461600315 -0.076122438384 0.18106670033 -0.98052038449 
-0.040818488417 0.31857722299 -0.94701763658 -0.01269935554 0.40313891165 -0.91505067853 -1.3025849081e-05 0.43798418645 -0.89898267628 
-0.0037140111664 0.42712907389 -0.90418303477 -0.018044200539 0.37363655316 -0.92739966194 -0.036306465018 0.24445712917 -0.96898016109 
-0.036306465018 0.24445712917 -0.96898016109 
