# vtk DataFile Version 4.2
vtk output
ASCII
DATASET POLYDATA
POINTS 64 float
0 0 0 -1.01193 0.25665 0.0830482 -1.97175 0.378641 0.18139 
-2.99101 0.357558 0.284926 -3.97336 0.122387 0.352018 -4.87594 -0.338799 0.341191 
-5.66868 -0.964413 0.246788 -6.3912 -1.66244 0.105029 -7.10333 -2.36771 -0.0527476 
-7.8388 -3.04449 -0.227083 -8.59838 -3.67802 -0.452702 -9.35282 -4.26376 -0.793878 
-10.0199 -4.80061 -1.33605 -10.4418 -5.28145 -2.12036 -10.5085 -5.7035 -3.03865 
-10.2793 -6.09871 -3.94368 -9.85608 -6.51386 -4.76644 -9.30608 -6.99416 -5.47012 
-8.67542 -7.58988 -5.99481 -8.03464 -8.36591 -6.12732 -7.71785 -9.06664 -5.51149 
-7.79349 -9.39289 -4.55232 -8.00956 -9.53103 -3.57078 -8.27463 -9.60491 -2.5943 
-8.5497 -9.68584 -1.62105 -8.80735 -9.82927 -0.650373 -9.02037 -10.0785 0.309508 
-9.16305 -10.4539 1.24088 -9.22069 -10.9486 2.12444 -9.19335 -11.5421 2.94662 
-9.08921 -12.2145 3.69888 -8.91562 -12.9508 4.37472 -8.67619 -13.7373 4.96896 
-8.3692 -14.5581 5.48005 -7.98706 -15.3928 5.91166 -7.51732 -16.2157 6.27381 
-6.94601 -16.9953 6.58181 -6.26538 -17.6963 6.85393 -5.48137 -18.2874 7.1082 
-4.61407 -18.7502 7.35799 -3.68998 -19.084 7.61006 -2.73296 -19.302 7.86631 
-1.76004 -19.4218 8.12761 -0.78268 -19.4573 8.39733 0.189793 -19.4156 8.68335 
1.14718 -19.2996 8.99824 2.07772 -19.1143 9.35737 2.97165 -18.8762 9.77381 
3.82621 -18.6164 10.2549 4.64678 -18.3768 10.8013 5.44218 -18.2069 11.4075 
6.21568 -18.1615 12.062 6.95267 -18.3025 12.7439 7.60388 -18.6893 13.4171 
8.08048 -19.3369 14.033 8.30942 -20.176 14.5527 8.30822 -21.0962 14.9784 
8.16923 -22.0295 15.3511 7.99377 -22.9581 15.7205 7.87502 -23.8773 16.1327 
7.91141 -24.76 16.6284 8.20015 -25.5326 17.2311 8.6907 -26.0927 17.8584 
9.38994 -26.471 18.5393 
LINES 1 65
64 0 1 2 3 4 5 6 7 8 9 10 11 12 13 14 15 16 17 18 19 20 21 22 23 24 25 26 27 28 29 30 31 32 33 34 35 36 37 38 39 40 41 42 43 44 45 46 47 48 49 50 51 52 53 54 55 56 57 58 59 60 61 62 63 

POINT_DATA 64
SCALARS MaximumInscribedSphereRadius float
LOOKUP_TABLE default
1.23 1.04139 0.911999 1.05349 1.12366 0.941822 1.36864 1.95309 2.51999 
2.13922 1.75479 1.70048 1.92013 2.13794 1.86543 1.87482 2.02857 2.04818 
1.94442 1.95175 2.32576 2.1481 2.52058 2.91861 3.18051 2.97612 2.57105 
2.71762 2.85816 2.87 2.48961 2.17341 2.30675 2.54973 2.79325 2.89111 
2.87455 2.87 2.88474 2.94297 2.82694 2.52568 2.43084 2.36887 2.19369 
2.15216 2.35144 2.84436 3.47114 3.69 3.62366 3.16659 2.76681 2.65551 
3.2285 3.57392 3.31566 3.07006 3.01962 3.43507 3.55661 3.34066 3.28 
3.28 
TEXTURE_COORDINATES TCoords 2 float
0 0 0.015873 0 0.031746 0 0.047619 0 0.0634921 
0 0.0793651 0 0.0952381 0 0.111111 0 0.126984 0 
0.142857 0 0.15873 0 0.174603 0 0.190476 0 0.206349 
0 0.222222 0 0.238095 0 0.253968 0 0.269841 0 
0.285714 0 0.301587 0 0.31746 0 0.333333 0 0.349206 
0 0.365079 0 0.380952 0 0.396825 0 0.412698 0 
0.428571 0 0.444444 0 0.460317 0 0.47619 0 0.492063 
0 0.507937 0 0.52381 0 0.539683 0 0.555556 0 
0.571429 0 0.587302 0 0.603175 0 0.619048 0 0.634921 
0 0.650794 0 0.666667 0 0.68254 0 0.698413 0 
0.714286 0 0.730159 0 0.746032 0 0.761905 0 0.777778 
0 0.793651 0 0.809524 0 0.825397 0 0.84127 0 
0.857143 0 0.873016 0 0.888889 0 0.904762 0 0.920635 
0 0.936508 0 0.952381 0 0.968254 0 0.984127 0 
1 0 
FIELD FieldData 4
Curvature 1 64 float
0.115002 0.137089 0.165649 0.197495 0.213355 0.175021 0.100848 0.0486372 0.0426761 
0.0577991 0.104757 0.187841 0.287169 0.318462 0.248812 0.176078 0.149332 0.196599 
0.383566 0.711975 0.548523 0.219713 0.084108 0.0286302 0.0547509 0.0956586 0.118163 
0.123188 0.116119 0.10557 0.0977313 0.0930061 0.0896887 0.0877416 0.0898709 0.0987496 
0.111619 0.121477 0.122675 0.112777 0.0964402 0.0794636 0.0669274 0.062883 0.0651019 
0.0692245 0.069564 0.063766 0.0625609 0.0774695 0.110172 0.156623 0.211475 0.256403 
0.265132 0.216723 0.125979 0.0384838 0.0611357 0.147467 0.229736 0.265708 0.241933 
0.194902 
Torsion 1 64 float
-0.0355305 -0.0519332 -0.0746305 -0.0946848 -0.0882436 -0.0547004 -0.0507672 -0.170527 0.116078 
0.441262 0.312379 0.224845 0.179427 0.170612 0.196672 0.263362 0.294724 0.173563 
0.052714 -0.00886708 -0.0199688 0.00120096 0.148828 0.524203 0.222083 0.0601349 0.058186 
0.042926 0.0128709 -0.00680554 5.17498e-05 0.0339307 0.0944208 0.168216 0.225575 0.221676 
0.178848 0.129657 0.0843236 0.0518308 0.0341917 0.0426817 0.0794699 0.132411 0.16183 
0.183364 0.239596 0.366281 0.462321 0.357302 0.176879 0.0711354 -0.00892986 -0.0732571 
-0.0917342 -0.0830561 -0.110059 -3.06911 -1.11595 -0.0235442 0.00800848 0.015942 0.0110822 
0.00610906 
Abscissas 1 64 double
0 1.0472671718 2.0197934747 3.0445153879 4.0568485753 5.0704855996 6.0847548154 7.0993346355 8.1139422969 
9.1285061603 10.143013945 11.157248985 12.170735056 13.182835963 14.195669547 15.209475881 16.223575657 17.237653489 
18.251514406 19.266590316 20.251793583 21.267749935 22.28223966 23.296751154 24.31135889 25.325839032 26.340168394 
27.354435139 28.368697494 29.383079025 30.397407699 31.411818984 32.426229908 33.440709515 34.455127125 35.469509752 
36.483923673 37.498176143 38.512435785 39.526728147 40.541077039 41.555510653 42.570007141 43.584522713 44.599042142 
45.613538006 46.628040501 47.642547617 48.657050569 49.6715928 50.68599233 51.700257334 52.714171798 53.727526055 
54.740376544 55.753584462 56.767483258 57.782011979 58.796675099 59.811042238 60.824058906 61.845591115 62.819169801 
63.865914871 
ParallelTransportNormals 3 64 double
0.081794125066 0 0.99664924678 0.10145517659 -0.0037295305616 0.99483312055 0.10113484274 -0.0037125790828 0.99486580017 
0.069976667553 -0.0077222891047 0.99751873779 0.0043430122575 -0.031963861684 0.99947958948 -0.060510249456 -0.073535819023 0.99545516877 
-0.094522579815 -0.10324650236 0.99015435244 -0.10573856452 -0.11421737124 0.98781260778 -0.11779761736 -0.12573036097 0.98504598759 
-0.15642113726 -0.15958121067 0.97471342713 -0.24584258975 -0.23159369195 0.94123630557 -0.40129521722 -0.35435714281 0.84462604978 
-0.57795801746 -0.51947392778 0.62937379069 -0.65709800879 -0.6656827088 0.35367886289 -0.64033115862 -0.75008302473 0.16538277815 
-0.60964574467 -0.7881983878 0.084115203638 -0.60204704789 -0.79518987027 0.07219710764 -0.6346980446 -0.76543256777 0.10616673854 
-0.74671214796 -0.64459008144 0.16408715671 -0.93035249568 -0.36015914061 0.068772285168 -0.96475412607 -0.21642736776 -0.14969525948 
-0.95162612521 -0.19554148993 -0.23700473314 -0.94337045809 -0.1919035161 -0.27060158777 -0.9403109944 -0.19102664217 -0.28164526586 
-0.94127366369 -0.19143208767 -0.27813242504 -0.94557687242 -0.19502217245 -0.26048172794 -0.95156898827 -0.20554482132 -0.22862149283 
-0.95602171134 -0.22488544847 -0.18827910801 -0.95672429715 -0.25011383245 -0.14873362117 -0.95394337739 -0.276888356 -0.11543340526 
-0.94856159031 -0.3041860441 -0.087759671604 -0.94050345426 -0.33389634764 -0.062980009252 -0.92802704539 -0.37059594759 -0.037741842141 
-0.90734401509 -0.42028271882 -0.0094485204438 -0.87255440579 -0.48797674657 0.022967449597 -0.81619939694 -0.57472481514 0.059244673115 
-0.73273537003 -0.67343199156 0.09791950899 -0.62427135411 -0.76911851527 0.13690137291 -0.50216059085 -0.84705231612 0.17417552858 
-0.38197312759 -0.90049790531 0.20784622281 -0.27558434086 -0.93170600444 0.2365949965 -0.18659588718 -0.94728196303 0.26045893612 
-0.11209861709 -0.95321418597 0.2807429709 -0.047149735106 -0.95300764271 0.29925463306 0.010560155013 -0.94829182051 0.31722406323 
0.058310438057 -0.94067121244 0.33427169025 0.087296398221 -0.93394450415 0.34659342468 0.088399111562 -0.93363049547 0.34715946624 
0.057002416625 -0.94299065784 0.3279014238 -0.0090162977099 -0.95972016105 0.28081296061 -0.11107040994 -0.97372448666 0.19880640863 
-0.25263437134 -0.96476173247 0.07355728368 -0.43001653422 -0.89731043139 -0.099598042204 -0.60741195872 -0.73459096806 -0.30236868562 
-0.7204199333 -0.4964828354 -0.48425191157 -0.7487785528 -0.27749055443 -0.60193826185 -0.73928135841 -0.15188619369 -0.65604394462 
-0.73494054488 -0.12618346586 -0.6662883223 -0.74515680403 -0.19034887479 -0.63914680886 -0.75225864885 -0.34591811587 -0.5607562593 
-0.70639762081 -0.58023207596 -0.40538024045 -0.59257204519 -0.77294482052 -0.2267480445 -0.43502150915 -0.89887833263 -0.05266905831 
-0.43502150915 -0.89887833263 -0.05266905831 
