# vtk DataFile Version 4.2
vtk output
ASCII
DATASET POLYDATA
POINTS 64 float
0 0 0 -0.958135 -0.31531 0.106103 -1.92737 -0.594481 0.220959 
-2.89883 -0.854848 0.352641 -3.86494 -1.1218 0.510757 -4.81439 -1.42289 0.703738 
-5.73669 -1.77713 0.934683 -6.62687 -2.18597 1.19896 -7.49094 -2.63358 1.48611 
-8.34212 -3.09836 1.78427 -9.19413 -3.56178 2.08216 -10.0573 -4.01445 2.36411 
-10.9374 -4.46157 2.59821 -11.8303 -4.93373 2.69511 -12.6489 -5.47363 2.43531 
-13.2366 -6.01468 1.80993 -13.6966 -6.5267 1.06445 -14.1141 -7.02853 0.287733 
-14.4975 -7.53492 -0.503447 -14.8264 -8.05886 -1.30766 -15.0618 -8.61298 -2.12434 
-15.1462 -9.20595 -2.9433 -15.0193 -9.83027 -3.73294 -14.6681 -10.4595 -4.44723 
-14.1425 -11.0734 -5.06056 -13.5042 -11.6725 -5.57362 -12.7966 -12.2671 -5.99206 
-12.0458 -12.8684 -6.31475 -11.2679 -13.4845 -6.52643 -10.4756 -14.1154 -6.58649 
-9.69514 -14.7343 -6.39393 -9.06935 -15.1844 -5.73571 -8.88463 -15.2228 -4.73833 
-9.00267 -15.0435 -3.7471 -9.2696 -14.8246 -2.79293 -9.63335 -14.6594 -1.86033 
-10.0715 -14.6219 -0.94597 -10.5616 -14.7675 -0.0696325 -11.0737 -15.1037 0.739221 
-11.5833 -15.5871 1.47137 -12.0788 -16.1647 2.14238 -12.5524 -16.8004 2.77563 
-12.9916 -17.4763 3.39181 -13.374 -18.1876 4.00604 -13.6655 -18.9354 4.62667 
-13.8205 -19.7182 5.25329 -13.7926 -20.5197 5.87475 -13.557 -21.3045 6.4731 
-13.1285 -22.0321 7.0356 -12.5477 -22.6772 7.56096 -11.8581 -23.2331 8.05575 
-11.0947 -23.7047 8.52928 -10.2825 -24.1009 8.99052 -9.43795 -24.4298 9.44656 
-8.57068 -24.6944 9.90184 -7.68645 -24.8924 10.3583 -6.79032 -25.0209 10.8164 
-5.88856 -25.0823 11.2773 -4.98816 -25.0908 11.745 -4.09522 -25.0709 12.2262 
-3.21437 -25.0529 12.7296 -2.35117 -25.0673 13.2622 -1.51257 -25.1432 13.829 
-0.710413 -25.3035 14.4288 
LINES 1 65
64 0 1 2 3 4 5 6 7 8 9 10 11 12 13 14 15 16 17 18 19 20 21 22 23 24 25 26 27 28 29 30 31 32 33 34 35 36 37 38 39 40 41 42 43 44 45 46 47 48 49 50 51 52 53 54 55 56 57 58 59 60 61 62 63 

POINT_DATA 64
SCALARS MaximumInscribedSphereRadius float
LOOKUP_TABLE default
1.116 1.18039 1.2488 1.35987 1.50195 1.5377 1.44567 1.33987 1.21426 
1.11714 1.116 1.12129 1.34137 1.49986 1.26699 1.2401 1.24 1.24 
1.28006 1.41854 1.53738 1.39338 1.24582 1.38114 1.51766 1.63065 1.73426 
1.78232 1.67783 1.56156 1.70163 1.80926 1.6041 1.32762 1.03667 1.2698 
1.76838 1.93421 1.85149 1.76053 1.66102 1.60574 1.73496 1.86828 2.11467 
2.38474 2.27655 1.98115 1.86 1.86 1.86 1.8597 1.83781 1.70072 
1.56238 1.48267 1.40756 1.23266 1.0226 0.93 0.929854 0.885213 0.750732 
0.62 
TEXTURE_COORDINATES TCoords 2 float
0 0 0.015873 0 0.031746 0 0.047619 0 0.0634921 
0 0.0793651 0 0.0952381 0 0.111111 0 0.126984 0 
0.142857 0 0.15873 0 0.174603 0 0.190476 0 0.206349 
0 0.222222 0 0.238095 0 0.253968 0 0.269841 0 
0.285714 0 0.301587 0 0.31746 0 0.333333 0 0.349206 
0 0.365079 0 0.380952 0 0.396825 0 0.412698 0 
0.428571 0 0.444444 0 0.460317 0 0.47619 0 0.492063 
0 0.507937 0 0.52381 0 0.539683 0 0.555556 0 
0.571429 0 0.587302 0 0.603175 0 0.619048 0 0.634921 
0 0.650794 0 0.666667 0 0.68254 0 0.698413 0 
0.714286 0 0.730159 0 0.746032 0 0.761905 0 0.777778 
0 0.793651 0 0.809524 0 0.825397 0 0.84127 0 
0.857143 0 0.873016 0 0.888889 0 0.904762 0 0.920635 
0 0.936508 0 0.952381 0 0.968254 0 0.984127 0 
1 0 
FIELD FieldData 4
Curvature 1 64 float
0.0818382 0.072029 0.059745 0.0520268 0.0585453 0.0714298 0.0745301 0.0596465 0.0328399 
0.00611513 0.0384904 0.106044 0.230916 0.440974 0.482548 0.270484 0.144974 0.0760624 
0.0593203 0.0975471 0.156717 0.215944 0.239488 0.209406 0.160287 0.121091 0.102634 
0.115691 0.170516 0.291112 0.555428 0.765073 0.393333 0.178206 0.112361 0.147525 
0.193911 0.204761 0.169715 0.117846 0.0742652 0.0536683 0.0667998 0.101191 0.143533 
0.184313 0.208798 0.203404 0.17668 0.143597 0.113025 0.0885487 0.0732243 0.0680769 
0.0691665 0.0707754 0.0671487 0.0535974 0.0341864 0.0280536 0.0486915 0.0756579 0.100765 
0.120342 
Torsion 1 64 float
0.0400934 0.0757249 0.154263 0.257686 0.207479 0.102573 0.0335022 -0.0103941 -0.0442117 
-0.834863 -0.143852 -0.100312 -0.0818374 -0.0565248 -0.0118039 0.0123022 -0.0196687 -0.083475 
-0.0985274 -0.0251957 -0.00593186 -0.00572683 -0.0271266 -0.068107 -0.119426 -0.177693 -0.196256 
-0.105456 -0.0113661 0.0354585 0.0525605 -0.0144976 -0.138303 -0.387076 -0.699031 -0.298138 
-0.116617 -0.043917 -0.0267067 -0.0690036 -0.231718 -0.475289 -0.27108 -0.086215 -0.0352137 
-0.0351726 -0.0591959 -0.0817754 -0.0910255 -0.0964783 -0.106548 -0.115387 -0.112933 -0.0780277 
-0.0448612 -0.0370635 -0.0736564 -0.192884 -0.599175 -0.948509 -0.308968 -0.119622 -0.0592369 
-0.0336972 
Abscissas 1 64 double
0 1.0142489533 2.0294064364 3.0437365813 4.0584446796 5.0730148448 6.087637273 7.1022372513 8.1168438844 
9.1314509452 10.146052883 11.160679857 12.175221796 13.189912014 14.204354439 15.21886233 16.233507575 17.248115612 
18.262705297 19.277321504 20.291929134 21.306538462 22.321137047 23.335771267 24.350316592 25.364997789 26.379561506 
27.394150345 28.408801023 29.423385739 30.437897542 31.451532565 32.466600779 33.480809103 34.495505776 35.510073709 
36.524684672 37.539260831 38.553913906 39.568512298 40.583104071 41.597705845 42.612306681 43.62692762 44.641501281 
45.656121949 46.67071085 47.685325694 48.699929337 49.714564736 50.729153724 51.743755285 52.758341372 53.772941077 
54.78756011 55.80216437 56.816765968 57.83134483 58.846004932 59.860545004 60.875252968 61.889641807 62.904665489 
63.919017902 
ParallelTransportNormals 3 64 double
0.11006627124 0 0.9939242506 0.117064857 0.002158719011 0.99312192564 0.13261342381 0.0064813561292 0.99114664498 
0.15790196949 0.013363735477 0.9873643596 0.1919756186 0.023468012614 0.98111906222 0.22948795234 0.036601656492 0.97262305056 
0.26279906629 0.050626128112 0.96352148181 0.28576655928 0.061839184431 0.95630193395 0.29672401839 0.067667766801 0.9525628222 
0.29638363089 0.067482263299 0.95268194456 0.28158027712 0.059575680912 0.95768642351 0.23899199884 0.037593730279 0.97029353081 
0.12035135694 -0.023919959409 0.99244314015 -0.17505806753 -0.19860655616 0.96431846858 -0.45613880867 -0.41465763668 0.78739852144 
-0.54067664786 -0.4996282445 0.67678680524 -0.56166485788 -0.52387770684 0.64037858779 -0.57179270527 -0.53662723709 0.620551618 
-0.58212264597 -0.55156931415 0.59741486149 -0.59454883367 -0.5753088015 0.56172187718 -0.60528438326 -0.61381606043 0.50681422567 
-0.60332608457 -0.66990501396 0.43269493635 -0.57991870237 -0.73127833951 0.35906307079 -0.54718322343 -0.77769034407 0.30949676694 
-0.52322759671 -0.80265671769 0.28631289806 -0.51484465536 -0.81009166442 0.28051109797 -0.52197889076 -0.80424153022 0.28413658454 
-0.54380343683 -0.7868612723 0.29176559126 -0.58066067559 -0.7575904741 0.29814401449 -0.63739376648 -0.71250732723 0.29336409986 
-0.721508055 -0.64856688133 0.24246056796 -0.78097663249 -0.6127171416 0.12105041881 -0.78440078068 -0.61997131328 0.018734619741 
-0.76717905807 -0.63778612995 -0.068301868901 -0.73337770458 -0.65837161736 -0.16942241845 -0.67787725088 -0.67240098485 -0.29725300389 
-0.60068630633 -0.66341140613 -0.44616282634 -0.51721230624 -0.62328248456 -0.58652397624 -0.44954687712 -0.56900151165 -0.68858179254 
-0.40578520821 -0.52280597981 -0.74967477767 -0.38231585369 -0.4934226838 -0.78126093153 -0.37343310381 -0.480659083 -0.79341953777 
-0.37449125823 -0.48244568215 -0.79183486996 -0.38154497695 -0.4977181703 -0.77890952846 -0.39011512436 -0.52709635123 -0.75496995057 
-0.3937004854 -0.57178882691 -0.71976208931 -0.38403905646 -0.62995227208 -0.67503639755 -0.35604230075 -0.69371116446 -0.62609799583 
-0.31247278788 -0.75296811742 -0.57913709171 -0.26071494184 -0.80189833978 -0.53757489874 -0.20732430764 -0.83965396769 -0.50199387049 
-0.15574905035 -0.86806026686 -0.47139538226 -0.10658772082 -0.88957642281 -0.44417659298 -0.057242542389 -0.90668476001 -0.41790673277 
-0.0045656662767 -0.92059759537 -0.39048587951 0.051429968935 -0.93086662457 -0.36172128159 0.10666972028 -0.93670121685 -0.33348523374 
0.15218389036 -0.93846658379 -0.31003311859 0.18004161947 -0.93828946666 -0.29529289192 0.18602923778 -0.93816153401 -0.29196927713 
0.1702711148 -0.9381940078 -0.30132997063 0.13452981753 -0.9362979431 -0.32441931192 0.083866635581 -0.92900370909 -0.36044208402 
0.083866635581 -0.92900370909 -0.36044208402 
