# vtk DataFile Version 4.2
vtk output
ASCII
DATASET POLYDATA
POINTS 64 float
0 0 0 -0.984268 0.0657063 0.330942 -1.92142 0.125279 0.605949 
-2.91356 0.165807 0.870805 -3.89627 0.168384 1.1086 -4.88652 0.124099 1.32853 
-5.87599 0.0258706 1.52946 -6.86065 -0.135264 1.71342 -7.83068 -0.375976 1.88768 
-8.76791 -0.720734 2.06622 -9.64347 -1.19089 2.26916 -10.433 -1.78121 2.5083 
-11.1423 -2.45864 2.76788 -11.8091 -3.18901 2.99319 -12.4852 -3.94196 3.0598 
-13.1659 -4.626 2.75554 -13.7415 -5.1335 2.09166 -14.2015 -5.53626 1.28267 
-14.579 -5.91615 0.42089 -14.878 -6.31438 -0.463005 -15.0736 -6.75179 -1.35716 
-15.1131 -7.23387 -2.24863 -14.9384 -7.74969 -3.10397 -14.5361 -8.27568 -3.87192 
-13.9556 -8.79697 -4.52003 -13.2642 -9.32214 -5.04481 -12.5113 -9.87894 -5.43461 
-11.74 -10.5076 -5.62499 -11.0845 -11.2325 -5.36685 -10.8597 -11.7654 -4.53735 
-10.928 -11.9826 -3.55027 -11.0818 -12.0224 -2.54829 -11.2574 -11.9606 -1.55097 
-11.4364 -11.8566 -0.557671 -11.6271 -11.7833 0.436012 -11.8574 -11.8612 1.42057 
-12.137 -12.2362 2.3191 -12.3967 -12.8986 3.04173 -12.5575 -13.7191 3.61579 
-12.578 -14.6115 4.09745 -12.4353 -15.5221 4.52102 -12.1228 -16.4071 4.9054 
-11.6506 -17.2307 5.26263 -11.0407 -17.9665 5.60273 -10.3192 -18.5976 5.93448 
-9.5122 -19.1159 6.26486 -8.64414 -19.5212 6.59852 -7.73704 -19.8225 6.93864 
-6.80912 -20.0383 7.28748 -5.87299 -20.1937 7.64652 -4.93552 -20.3125 8.01587 
-3.99929 -20.4114 8.39418 -3.06454 -20.4951 8.77973 -2.13113 -20.5563 9.1727 
-1.20112 -20.5813 9.57746 -0.280668 -20.5591 10.0036 0.619742 -20.4886 10.4658 
1.48674 -20.3825 10.9819 2.3047 -20.2681 11.5711 3.0518 -20.1925 12.2534 
3.69004 -20.2298 13.0391 4.14565 -20.5201 13.9064 4.35418 -21.075 14.6867 
4.34187 -21.895 15.3262 
LINES 1 65
64 0 1 2 3 4 5 6 7 8 9 10 11 12 13 14 15 16 17 18 19 20 21 22 23 24 25 26 27 28 29 30 31 32 33 34 35 36 37 38 39 40 41 42 43 44 45 46 47 48 49 50 51 52 53 54 55 56 57 58 59 60 61 62 63 

POINT_DATA 64
SCALARS MaximumInscribedSphereRadius float
LOOKUP_TABLE default
0.93 1.11199 1.24 1.24 1.24 1.24 1.24 1.24 1.26035 
1.2933 1.35578 1.36162 1.3638 1.54815 1.34484 0.962851 1.28582 1.58707 
1.80628 1.91295 1.83782 1.60876 1.56447 1.53936 1.36571 1.28561 1.35143 
1.32535 1.2478 1.33449 1.73449 1.8377 1.64457 1.81563 2.10488 1.94694 
1.72185 1.57704 1.63476 1.63772 1.59448 1.62203 1.67294 1.77907 1.86178 
1.87706 1.8273 1.70933 1.66942 1.66827 1.76359 1.92285 2.24735 2.31476 
2.01925 1.87838 1.881 1.87487 1.86543 1.87386 2.06719 2.50135 2.4113 
2.17 
TEXTURE_COORDINATES TCoords 2 float
0 0 0.015873 0 0.031746 0 0.047619 0 0.0634921 
0 0.0793651 0 0.0952381 0 0.111111 0 0.126984 0 
0.142857 0 0.15873 0 0.174603 0 0.190476 0 0.206349 
0 0.222222 0 0.238095 0 0.253968 0 0.269841 0 
0.285714 0 0.301587 0 0.31746 0 0.333333 0 0.349206 
0 0.365079 0 0.380952 0 0.396825 0 0.412698 0 
0.428571 0 0.444444 0 0.460317 0 0.47619 0 0.492063 
0 0.507937 0 0.52381 0 0.539683 0 0.555556 0 
0.571429 0 0.587302 0 0.603175 0 0.619048 0 0.634921 
0 0.650794 0 0.666667 0 0.68254 0 0.698413 0 
0.714286 0 0.730159 0 0.746032 0 0.761905 0 0.777778 
0 0.793651 0 0.809524 0 0.825397 0 0.84127 0 
0.857143 0 0.873016 0 0.888889 0 0.904762 0 0.920635 
0 0.936508 0 0.952381 0 0.968254 0 0.984127 0 
1 0 
FIELD FieldData 4
Curvature 1 64 float
0.0535793 0.0391252 0.0349871 0.0385376 0.0438271 0.0488624 0.0564516 0.0715137 0.0964088 
0.123309 0.130316 0.104222 0.0870124 0.167475 0.346451 0.387899 0.223469 0.114183 
0.077933 0.0970781 0.143274 0.191843 0.212096 0.190272 0.147031 0.136119 0.216134 
0.449759 0.73167 0.429135 0.20452 0.0985272 0.0481893 0.0733587 0.165413 0.286624 
0.302731 0.221936 0.168303 0.15293 0.151739 0.148406 0.140553 0.131007 0.12103 
0.109877 0.0951754 0.075439 0.0527429 0.0319404 0.0184279 0.0144515 0.0205807 0.0330319 
0.0456706 0.0548858 0.0625914 0.0783365 0.112834 0.174948 0.269465 0.354133 0.342486 
0.265683 
Torsion 1 64 float
0.212289 0.331358 0.334946 0.191675 0.0795145 0.0518058 0.100285 0.148077 0.137427 
0.120482 0.0432191 -0.191888 -0.575621 -0.287202 -0.0397016 0.0689997 0.147376 0.271484 
0.257197 0.0463066 -0.0421008 -0.0185851 0.0269658 0.085533 0.201816 0.256612 0.14523 
0.0232646 -0.10477 -0.145521 -0.141149 -0.131941 0.0154411 0.0469484 0.00881988 0.054481 
0.190385 0.284511 0.291338 0.219094 0.1455 0.11009 0.0984187 0.0904167 0.0778833 
0.0681788 0.065503 0.0761764 0.1039 0.146599 0.128379 -0.0758223 -0.0770629 0.062207 
0.159533 0.257022 0.334894 0.344918 0.276917 0.226743 0.18522 0.125719 0.0656632 
0.030565 
Abscissas 1 64 double
0 1.0404919236 2.0189762398 3.0466595045 4.0577343221 5.0730791631 6.0875113068 7.1020857383 8.1166135573 
9.1310764148 10.145392063 11.159799749 12.174393207 13.188704596 14.2028455 15.21469408 16.229390039 17.243431704 
18.258068505 19.272592262 20.287037771 21.301276536 22.315276948 23.32930726 24.34359099 25.358100762 26.372412749 
27.385508208 28.396347567 29.407578072 30.42057758 31.435073767 32.449618777 33.464261633 34.478729501 35.492860141 
36.505854316 37.519960311 38.534170516 39.548465289 40.562846179 41.577059931 42.591407407 43.60582734 44.62017954 
45.63459198 46.649050123 47.663591558 48.678132737 49.692725717 50.707310641 51.721917335 52.736516706 53.751122504 
54.765703478 55.780257568 56.794820168 57.80936535 58.823910662 59.838507598 60.851456742 61.873251213 62.853184019 
63.893141161 
ParallelTransportNormals 3 64 double
0.318699115 0 0.94785593531 0.28171659518 0.0024094955409 0.95949463486 0.25805932894 0.0036435348502 0.96612220107 
0.23519930835 0.0041389405274 0.97193834914 0.21665121868 0.0037477626813 0.97624187767 0.19877137596 0.0024604334239 0.98004279823 
0.18357504095 0.00046395955742 0.98300558955 0.17702564156 -0.00088247711965 0.98420584405 0.18642133615 0.0020017294707 0.98246785113 
0.21759803364 0.016016962077 0.975907041 0.26000956651 0.043028165312 0.9646468796 0.28691890207 0.065788542293 0.95569315752 
0.27082111439 0.049319774228 0.96136542681 0.1682099527 -0.064020953286 0.98367003073 -0.085472515011 -0.33268101801 0.93915802155 
-0.34401030339 -0.5779138758 0.74004896008 -0.44972121218 -0.67083040085 0.58969263571 -0.48381001318 -0.70268597029 0.52168984876 
-0.49586738267 -0.71655463158 0.49057619059 -0.50267170071 -0.728050838 0.4661149414 -0.50781096104 -0.7481522634 0.42707870307 
-0.5032801269 -0.78158799486 0.36855029527 -0.48210143518 -0.81982768545 0.30896726749 -0.45662323528 -0.84697809594 0.2722559935 
-0.4480526459 -0.85402964279 0.26435240822 -0.4728543106 -0.83544997823 0.28005737773 -0.55327985978 -0.77289648881 0.31066447229 
-0.75819385684 -0.57846797306 0.30086023266 -0.95084233113 -0.3032236099 0.062883254721 -0.96638487974 -0.22882291462 -0.11721918763 
-0.96199444489 -0.22373855548 -0.15654950271 -0.96215995812 -0.22372750219 -0.15554491232 -0.96311500543 -0.22328095655 -0.15018355688 
-0.95986978012 -0.22483726163 -0.16762520992 -0.94473091907 -0.2246709286 -0.23876026553 -0.91067577116 -0.19441321648 -0.36451768281 
-0.88318801996 -0.14154678685 -0.44715034221 -0.88288442202 -0.14047616237 -0.44808653758 -0.88931336926 -0.20121394677 -0.41065152975 
-0.88227737748 -0.30503234986 -0.35852739744 -0.85027095121 -0.43128215025 -0.30172009611 -0.79108197925 -0.56016183955 -0.24578042155 
-0.70962650829 -0.67754691883 -0.19328836362 -0.61298730209 -0.77676238535 -0.14452253869 -0.50862457406 -0.85524139989 -0.099313597109 
-0.40401328311 -0.91292249435 -0.057842773012 -0.30792503145 -0.95117056008 -0.021371491354 -0.22940154049 -0.9732980825 0.0081102300083 
-0.17449417467 -0.98423219528 0.028961504996 -0.14175693289 -0.98902327197 0.041688601407 -0.12434358953 -0.99104647297 0.048637024487 
-0.11114074944 -0.99233501578 0.054027310368 -0.09137644997 -0.99386798721 0.062263700474 -0.059748864065 -0.99533105335 0.075803479382 
-0.019460713809 -0.99539200091 0.093893797197 0.019759983891 -0.99339526081 0.11302830986 0.045492170465 -0.99082409445 0.12727166329 
0.046435234188 -0.99070068209 0.12789029492 0.010533462034 -0.99505922641 0.098722753769 -0.072061122343 -0.99733745153 0.011189389186 
-0.21593607725 -0.95442370594 -0.20602669748 -0.32861956094 -0.8089490941 -0.4874531232 -0.36416295255 -0.56933954722 -0.73704669049 
-0.36416295255 -0.56933954722 -0.73704669049 
