# vtk DataFile Version 4.2
vtk output
ASCII
DATASET POLYDATA
POINTS 64 float
0 0 0 -0.256867 0.565406 0.802176 -0.594938 1.0415 1.63218 
-1.00267 1.43165 2.47523 -1.47208 1.73879 3.32071 -1.99752 1.96416 4.15887 
-2.57567 2.10704 4.98031 -3.20489 2.16478 5.77414 -3.88462 2.13144 6.52666 
-4.61371 1.9974 7.2194 -5.38739 1.75025 7.82748 -6.19289 1.37931 8.32043 
-7.00709 0.884366 8.66903 -7.80158 0.281667 8.856 -8.55382 -0.398577 8.88494 
-9.25478 -1.12379 8.77471 -9.90525 -1.86819 8.54629 -10.5096 -2.613 8.21538 
-11.0699 -3.34411 7.7901 -11.5838 -4.04963 7.27276 -12.0427 -4.71864 6.66348 
-12.433 -5.34276 5.96519 -12.7386 -5.91881 5.18791 -12.9466 -6.45244 4.35042 
-13.0517 -6.95931 3.47779 -13.0575 -7.46061 2.5957 -12.9738 -7.97641 1.726 
-12.8136 -8.52326 0.886524 -12.591 -9.11364 0.0919829 -12.3199 -9.75817 -0.643211 
-12.0145 -10.4689 -1.29977 -11.692 -11.2622 -1.84386 -11.3833 -12.1587 -2.20475 
-11.1639 -13.149 -2.23143 -11.1656 -14.0489 -1.76377 -11.3941 -14.6213 -0.957864 
-11.7367 -14.8959 -0.0432563 -12.1182 -14.963 0.894532 -12.495 -14.8856 1.83338 
-12.8378 -14.7071 2.7715 -13.1223 -14.463 3.7143 -13.3257 -14.1905 4.67024 
-13.4225 -13.9391 5.64842 -13.3831 -13.7818 6.64998 -13.1853 -13.8229 7.64423 
-12.8519 -14.1463 8.54621 -12.4584 -14.726 9.28011 -12.0671 -15.4697 9.84853 
-11.7025 -16.3074 10.2899 -11.3678 -17.1986 10.641 -11.0586 -18.1209 10.9293 
-10.7675 -19.0612 11.1751 -10.4856 -20.011 11.394 -10.2023 -20.9635 11.5986 
-9.90447 -21.9125 11.7991 -9.57715 -22.8508 12.0034 -9.20509 -23.7705 12.2163 
-8.77649 -24.6629 12.4384 -8.28685 -25.5218 12.6664 -7.74056 -26.3459 12.894 
-7.14767 -27.1391 13.1149 -6.52049 -27.9084 13.3241 -5.86926 -28.6625 13.5182 
-5.20413 -29.4076 13.695 
LINES 1 65
64 0 1 2 3 4 5 6 7 8 9 10 11 12 13 14 15 16 17 18 19 20 21 22 23 24 25 26 27 28 29 30 31 32 33 34 35 36 37 38 39 40 41 42 43 44 45 46 47 48 49 50 51 52 53 54 55 56 57 58 59 60 61 62 63 

POINT_DATA 64
SCALARS MaximumInscribedSphereRadius float
LOOKUP_TABLE default
1.116 0.855737 0.643104 0.953218 1.2392 1.24 1.23519 1.08232 0.936126 
1.09406 1.24144 1.26261 1.27711 1.2772 1.26778 1.24832 1.16422 1.0319 
0.980038 0.9796 1.20124 1.52791 1.45705 1.31311 1.20628 1.12862 1.20753 
1.27383 1.25731 1.23388 1.08396 0.95417 1.30999 1.54803 1.56721 1.77591 
1.77006 1.62526 1.67726 1.81076 1.86 1.85904 1.75518 1.5778 1.40747 
1.38388 1.78179 1.93145 1.8831 1.86 1.86055 1.89909 2.0379 2.17083 
2.18265 2.19783 2.34201 2.46712 2.3031 2.08518 1.61389 1.34817 1.92766 
2.48 
TEXTURE_COORDINATES TCoords 2 float
0 0 0.015873 0 0.031746 0 0.047619 0 0.0634921 
0 0.0793651 0 0.0952381 0 0.111111 0 0.126984 0 
0.142857 0 0.15873 0 0.174603 0 0.190476 0 0.206349 
0 0.222222 0 0.238095 0 0.253968 0 0.269841 0 
0.285714 0 0.301587 0 0.31746 0 0.333333 0 0.349206 
0 0.365079 0 0.380952 0 0.396825 0 0.412698 0 
0.428571 0 0.444444 0 0.460317 0 0.47619 0 0.492063 
0 0.507937 0 0.52381 0 0.539683 0 0.555556 0 
0.571429 0 0.587302 0 0.603175 0 0.619048 0 0.634921 
0 0.650794 0 0.666667 0 0.68254 0 0.698413 0 
0.714286 0 0.730159 0 0.746032 0 0.761905 0 0.777778 
0 0.793651 0 0.809524 0 0.825397 0 0.84127 0 
0.857143 0 0.873016 0 0.888889 0 0.904762 0 0.920635 
0 0.936508 0 0.952381 0 0.968254 0 0.984127 0 
1 0 
FIELD FieldData 4
Curvature 1 64 float
0.141615 0.124013 0.110958 0.102288 0.0977033 0.0971984 0.101316 0.110997 0.12683 
0.148292 0.171717 0.188712 0.193837 0.180271 0.154689 0.128936 0.110015 0.102735 
0.105517 0.113555 0.121255 0.124279 0.121284 0.112798 0.103302 0.0961684 0.0918258 
0.0891923 0.0920195 0.108238 0.149188 0.230747 0.381508 0.571839 0.539028 0.355043 
0.229774 0.153258 0.107737 0.0867872 0.0912255 0.122784 0.181688 0.262676 0.330783 
0.319865 0.248241 0.177202 0.12109 0.079236 0.0492631 0.0310155 0.0290782 0.0385947 
0.0502116 0.060493 0.0674311 0.0698685 0.0671869 0.0620205 0.0573371 0.0545175 0.0534548 
0.0533303 
Torsion 1 64 float
0.01192 0.0132428 0.0149577 0.0181964 0.0235718 0.0304855 0.0348341 0.0315273 0.0219261 
0.01095 0.00378843 0.00590804 0.0138477 0.0313706 0.0509244 0.0740771 0.0898291 0.0688882 
0.0330741 -0.0126583 -0.0653643 -0.11267 -0.177058 -0.242535 -0.271372 -0.265743 -0.242754 
-0.226025 -0.208585 -0.173541 -0.126781 -0.0932536 -0.0744467 -0.0570522 -0.0119095 0.0300685 
0.093856 0.177501 0.301407 0.449368 0.46841 0.353602 0.257646 0.202934 0.160018 
0.115333 0.080305 0.060113 0.041116 0.02115 -0.0208723 -0.138869 -0.221072 -0.129071 
-0.0554596 -0.00439225 0.0339343 0.0605156 0.081215 0.0975289 0.0996207 0.0870284 0.0686786 
0.0514033 
Abscissas 1 64 double
0 1.0144707767 2.0292929493 3.0437858401 4.0584370318 5.0730263204 6.0876372789 7.1022394978 8.1168482011 
9.1314552868 10.146061318 11.160667856 12.175267947 13.189870279 14.204480552 15.219088763 16.233691005 17.248325248 
18.262879669 19.27751928 20.292105383 21.306732774 22.321320775 23.335921473 24.350537815 25.36514026 26.379750322 
27.394358158 28.408948988 29.423554635 30.438185291 31.452761869 32.467281088 33.481944768 34.496108418 35.510671753 
36.52520961 37.539848394 38.554443983 39.569058994 40.583650743 41.598268401 42.61286593 43.627468568 44.642035763 
45.656585876 46.671230322 47.685777638 48.700411162 49.715071167 50.729642905 51.744197595 52.758843033 53.773424474 
54.788070245 55.802605733 56.817300236 57.831896224 58.846508205 59.861089945 60.875723375 61.890091197 62.905199035 
63.919511447 
ParallelTransportNormals 3 64 double
0 -0.81736892257 0.57611461049 0.025816608593 -0.86256528391 0.50528668468 0.054495460299 -0.89587448936 0.4409525418 
0.085282249374 -0.9203490202 0.38168654542 0.11806677355 -0.93789736826 0.32620356158 0.15336237854 -0.94967496715 0.27312531486 
0.19186244367 -0.95607223129 0.22161834597 0.23537533372 -0.95688336019 0.17021365184 0.2865987349 -0.95079757924 0.11766532398 
0.34882936007 -0.93501227025 0.063797586397 0.42400087631 -0.90559019308 0.011386794127 0.50889882766 -0.86020412625 -0.03272375877 
0.59408284957 -0.80208127599 -0.06108350466 0.66750175903 -0.74118359593 -0.071332172379 0.72251495581 -0.68797777694 -0.068254795138 
0.76057650542 -0.64658772297 -0.058717083619 0.78586133344 -0.61657991477 -0.047446530936 0.80324583077 -0.59454912764 -0.036158957198 
0.81652608845 -0.57678820007 -0.024505491845 0.82889886712 -0.5593059196 -0.010176266265 0.84241814823 -0.53871926741 0.010640228405 
0.8575564076 -0.51261132788 0.042739142601 0.87242338008 -0.48048992864 0.089481139703 0.88367622228 -0.44309432979 0.15094286697 
0.88820387539 -0.4019340456 0.22258234145 0.88486444397 -0.35833259995 0.29767879266 0.87444192692 -0.31292270725 0.37071646272 
0.85863654043 -0.26596780959 0.43818308469 0.83891884539 -0.21664719523 0.49927864329 0.81578718937 -0.1622683346 0.55512183279 
0.78827293218 -0.096362362739 0.60773355958 0.75405149398 -0.0047471127867 0.65679814962 0.71364560576 0.13961310826 0.68645329731 
0.6914829828 0.3320879646 0.64153633433 0.71171480381 0.46151634947 0.52958917776 0.74418075736 0.50966634934 0.43178144091 
0.77505153743 0.52423465178 0.3528075172 0.80458145818 0.52383343887 0.27972701957 0.83265893454 0.51384871222 0.20649116124 
0.85806239382 0.49673485495 0.13032042124 0.87833943135 0.4752651158 0.05140926995 0.8907332609 0.45363567343 -0.028441760226 
0.89292179674 0.43805285723 -0.10392477655 0.88645016184 0.4348826365 -0.15837677558 0.88325866468 0.43707259723 -0.16976947905 
0.89425254385 0.42341393961 -0.14502766482 0.91256648755 0.39253117278 -0.11463718503 0.92981957963 0.35643651853 -0.091589069165 
0.9429678715 0.32392961449 -0.076688970437 0.95214528116 0.29808201298 -0.067575713787 0.9579009572 0.28022340961 -0.062454758929 
0.96062776879 0.27122874389 -0.060243325901 0.96022276236 0.27259187882 -0.060546793871 0.95594560114 0.28658708057 -0.063528363049 
0.94652450453 0.31502888969 -0.069628736828 0.93034429603 0.3580140492 -0.079280712735 0.90634862411 0.41232224709 -0.092317583005 
0.87571997196 0.470738331 -0.10733105067 0.84245814564 0.52477628501 -0.12195951599 0.81128813867 0.56902857373 -0.13423128672 
0.78579300526 0.60167909655 -0.14321877551 0.76704373627 0.62402166333 -0.14913373306 0.75498247008 0.63775813575 -0.15253206269 
0.75498247008 0.63775813575 -0.15253206269 
