# vtk DataFile Version 4.2
vtk output
ASCII
DATASET POLYDATA
POINTS 64 float
0 0 0 -0.299947 0.0939117 -0.979865 -0.851361 -0.0253643 -1.79694 
-1.6539 -0.413127 -2.29072 -2.50158 -0.959925 -2.39745 -3.31542 -1.55813 -2.30582 
-4.09607 -2.17784 -2.1157 -4.85698 -2.80971 -1.88928 -5.61316 -3.45213 -1.67865 
-6.38077 -4.1059 -1.5599 -7.12856 -4.76786 -1.74551 -7.61643 -5.37472 -2.38342 
-7.76452 -5.93006 -3.22224 -7.70214 -6.49788 -4.06025 -7.50863 -7.10279 -4.85147 
-7.21883 -7.74819 -5.57863 -6.85322 -8.4311 -6.23383 -6.42449 -9.1466 -6.81135 
-5.93959 -9.89193 -7.30016 -5.40154 -10.6673 -7.67077 -4.81185 -11.4771 -7.85009 
-4.2365 -12.2701 -7.61578 -3.9037 -12.8267 -6.84334 -3.86437 -13.1054 -5.86392 
-3.94934 -13.3035 -4.87378 -4.07991 -13.5165 -3.8901 -4.20716 -13.8048 -2.92578 
-4.29183 -14.2122 -2.00054 -4.30172 -14.7624 -1.14836 -4.22352 -15.4448 -0.401838 
-4.0684 -16.2207 0.233105 -3.85655 -17.0501 0.777611 -3.60307 -17.9044 1.26271 
-3.31179 -18.7629 1.7183 -2.97555 -19.6071 2.16956 -2.57805 -20.4159 2.63558 
-2.09875 -21.1634 3.12639 -1.52149 -21.8201 3.64077 -0.84463 -22.3621 4.1673 
-0.0835026 -22.7798 4.69214 0.738661 -23.0783 5.20617 1.60006 -23.2713 5.70625 
2.48367 -23.3752 6.1939 3.37719 -23.4057 6.67356 4.27199 -23.3764 7.15094 
5.16182 -23.2993 7.63225 6.04235 -23.1857 8.12335 6.91127 -23.048 8.62875 
7.76865 -22.9008 9.1509 8.61663 -22.7606 9.69006 9.45837 -22.6449 10.2446 
10.2964 -22.571 10.8117 11.131 -22.556 11.3885 11.9576 -22.6177 11.9734 
12.7656 -22.7759 12.5663 13.5335 -23.053 13.1686 14.2251 -23.4708 13.7821 
14.7877 -24.041 14.4044 15.1631 -24.7521 15.0224 15.3105 -25.5645 15.6127 
15.2311 -26.4178 16.1502 14.9474 -27.2763 16.629 14.5275 -28.0801 17.0356 
13.9708 -28.8658 17.3977 
LINES 1 65
64 0 1 2 3 4 5 6 7 8 9 10 11 12 13 14 15 16 17 18 19 20 21 22 23 24 25 26 27 28 29 30 31 32 33 34 35 36 37 38 39 40 41 42 43 44 45 46 47 48 49 50 51 52 53 54 55 56 57 58 59 60 61 62 63 

POINT_DATA 64
SCALARS MaximumInscribedSphereRadius float
LOOKUP_TABLE default
1.24 1.09229 0.987418 1.37923 1.44247 1.24854 1.07348 1.06987 1.38044 
1.64415 1.32682 1.02588 1.44129 1.41528 1.28686 1.2772 1.25875 1.09958 
0.978408 1.10529 1.30762 1.48211 1.55 1.55 1.55519 1.56946 1.64688 
1.79091 1.75849 1.61353 1.58185 1.58246 1.85547 2.07755 1.71694 1.32073 
1.24 1.35879 1.72497 2.01154 2.14081 2.10213 1.9464 1.98343 2.12492 
2.05239 1.89485 1.73163 1.59152 1.85251 2.13608 2.13313 2.12052 2.2459 
2.37092 2.4457 2.29221 1.98911 2.01412 2.14471 2.17 2.17 2.17 
2.17 
TEXTURE_COORDINATES TCoords 2 float
0 0 0.015873 0 0.031746 0 0.047619 0 0.0634921 
0 0.0793651 0 0.0952381 0 0.111111 0 0.126984 0 
0.142857 0 0.15873 0 0.174603 0 0.190476 0 0.206349 
0 0.222222 0 0.238095 0 0.253968 0 0.269841 0 
0.285714 0 0.301587 0 0.31746 0 0.333333 0 0.349206 
0 0.365079 0 0.380952 0 0.396825 0 0.412698 0 
0.428571 0 0.444444 0 0.460317 0 0.47619 0 0.492063 
0 0.507937 0 0.52381 0 0.539683 0 0.555556 0 
0.571429 0 0.587302 0 0.603175 0 0.619048 0 0.634921 
0 0.650794 0 0.666667 0 0.68254 0 0.698413 0 
0.714286 0 0.730159 0 0.746032 0 0.761905 0 0.777778 
0 0.793651 0 0.809524 0 0.825397 0 0.84127 0 
0.857143 0 0.873016 0 0.888889 0 0.904762 0 0.920635 
0 0.936508 0 0.952381 0 0.968254 0 0.984127 0 
1 0 
FIELD FieldData 4
Curvature 1 64 float
0.279701 0.408191 0.507608 0.390281 0.217124 0.107399 0.0512546 0.0703461 0.170039 
0.354641 0.516857 0.419292 0.268101 0.185594 0.143584 0.116505 0.0987683 0.104724 
0.148174 0.246058 0.440848 0.619 0.455328 0.201585 0.0867998 0.0792292 0.123495 
0.164518 0.178152 0.156151 0.115385 0.0742612 0.0453045 0.0449443 0.0698005 0.100619 
0.127131 0.141281 0.139111 0.125235 0.106377 0.0869029 0.0695483 0.0555582 0.0449463 
0.0365882 0.028718 0.0211935 0.0195326 0.027656 0.0407278 0.0557177 0.0729174 0.0938423 
0.120058 0.152073 0.187124 0.217509 0.23389 0.230489 0.21002 0.182983 0.157124 
0.135128 
Torsion 1 64 float
0.00281126 0.00628391 0.014347 0.0237827 0.0336069 0.0842695 0.225831 0.208226 0.0263683 
-0.0722232 -0.248766 -0.289325 -0.19822 -0.125928 -0.0867175 -0.0563819 -0.0488569 -0.0522879 
-0.0501357 -0.0523506 -0.0651276 -0.0911533 -0.119057 -0.215493 -0.564135 -0.462165 -0.158228 
-0.0617875 -0.0253807 -0.0173964 -0.0451088 -0.155065 -0.528351 -0.544783 -0.164969 -0.0225885 
0.0214006 0.0220181 0.00610447 -0.012076 -0.0318817 -0.0559894 -0.088487 -0.131328 -0.18015 
-0.233414 -0.331544 -0.595046 -0.767226 -0.419783 -0.182675 -0.0636444 0.00407211 0.0479159 
0.0766592 0.0933076 0.0914346 0.0718443 0.0517833 0.0356387 0.0243402 0.0173319 0.0127319 
0.00953667 
Abscissas 1 64 double
0 1.0290398695 2.0219626391 3.0409069693 4.0552740963 5.06946378 6.084156009 7.0988036589 8.1131394624 
9.1283939344 10.144185217 11.150776155 12.16761047 13.181795571 14.196384903 15.210922587 16.225478563 17.240012311 
18.254694469 19.268622228 20.286298931 21.293660353 22.302235241 23.321295315 24.334627261 25.349537831 26.364043723 
27.378545087 28.392955296 29.407391654 30.42190334 31.436434382 32.451028292 33.465635482 34.480212636 35.494775619 
36.509359751 37.523791165 38.538255234 39.55277234 40.567307739 41.581870163 42.596446179 43.611030933 44.62563259 
45.640226778 46.654828816 47.669428463 48.68402627 49.698629174 50.713236981 51.727809411 52.742442319 53.756928677 
54.771533365 55.786037565 56.800557033 57.814906277 58.829062223 59.844038366 60.855636634 61.878747767 62.872595142 
63.901360091 
ParallelTransportNormals 3 64 double
0 0.99543860701 0.09540429589 -0.086712876205 0.99248293767 -0.08636258181 -0.27763935589 0.92130225612 -0.27224720555 
-0.4777354545 0.8079463542 -0.344951481 -0.58067374569 0.73700809563 -0.34588591767 -0.63440845387 0.69596444464 -0.33639174403 
-0.65927335586 0.67577682253 -0.32967306288 -0.6629904326 0.67265463378 -0.32860223666 -0.64065802198 0.69165135855 -0.33343019823 
-0.57819500795 0.7458839287 -0.33067763408 -0.55194241763 0.77286153493 -0.31312076816 -0.57928651697 0.72301453738 -0.37640019925 
-0.58478972588 0.6506667201 -0.48441077182 -0.56936261129 0.57995842001 -0.58264435801 -0.54211616148 0.50947285092 -0.66824208311 
-0.50753451203 0.43938664452 -0.74118020462 -0.46732297635 0.36859559376 -0.80358355137 -0.41902596139 0.29137185248 -0.85995330528 
-0.35275793846 0.19286010819 -0.91562373032 -0.2425929351 0.038003392668 -0.96938352059 -0.0060650012695 -0.28740204844 -0.95779083223 
0.28259629771 -0.71635729671 -0.63794322316 0.36142281506 -0.89287968107 -0.26858783271 0.35873387026 -0.92074376043 -0.15343056395 
0.35856128151 -0.92107298511 -0.15184980575 0.3677771036 -0.90315334156 -0.22148147483 0.38141265802 -0.85839000075 -0.34306120578 
0.38956813529 -0.77579694003 -0.49636254472 0.38322847273 -0.66140140993 -0.64473569207 0.36460077593 -0.54497331199 -0.75503004139 
0.34346992753 -0.45253685836 -0.82294519909 0.32661709239 -0.3915581967 -0.86023453404 0.3161927091 -0.3587825116 -0.87823532159 
0.31226210692 -0.34811731181 -0.88391555807 0.31448930658 -0.3531348352 -0.8811312412 0.32207543889 -0.36660007804 -0.87285267626 
0.33357919566 -0.38188875304 -0.86190829009 0.34647852592 -0.39421809055 -0.85120193148 0.35937906566 -0.40282783517 -0.84176981556 
0.37249827352 -0.40876230485 -0.83316169761 0.38635198971 -0.41280676899 -0.82481677452 0.40159546727 -0.41540033432 -0.81618848492 
0.41887379932 -0.41670706821 -0.80678371299 0.43847283699 -0.41672022199 -0.79629506328 0.4603532978 -0.41541568451 -0.78454104435 
0.4836860338 -0.412902319 -0.77172501299 0.50629500748 -0.40965466383 -0.75884677096 0.52511783006 -0.4065482523 -0.74764281787 
0.53738514875 -0.40448086278 -0.740008401 0.54134523142 -0.40388112402 -0.73744516954 0.53676439242 -0.40439817307 -0.74050395316 
0.52473493324 -0.40503754682 -0.74873081645 0.50792136558 -0.40456480947 -0.76048879106 0.48921164913 -0.40204788822 -0.77396993348 
0.47314171992 -0.39760894799 -0.78615776874 0.46526591088 -0.39385910513 -0.79271851087 0.46955630564 -0.39723895304 -0.78849102089 
0.48274471668 -0.41525472265 -0.77105191384 0.49477087247 -0.45029320096 -0.74326160732 0.49659510764 -0.49523069164 -0.71283929544 
0.48656895292 -0.54264816323 -0.68467775267 0.47008572924 -0.58146318794 -0.66401804812 0.4487758764 -0.61623772612 -0.64718720449 
0.4487758764 -0.61623772612 -0.64718720449 
