# vtk DataFile Version 4.2
vtk output
ASCII
DATASET POLYDATA
POINTS 64 float
0 0 0 -0.897668 0.503574 -0.1831 -1.82002 0.796375 -0.294578 
-2.83842 0.897711 -0.34021 -3.84142 0.766712 -0.301888 -4.8035 0.462678 -0.196675 
-5.71734 0.0485423 -0.0464054 -6.59934 -0.423935 0.121515 -7.47114 -0.921468 0.26932 
-8.34773 -1.42722 0.338638 -9.21827 -1.93662 0.235124 -10.0063 -2.4488 -0.142907 
-10.6057 -2.9659 -0.775788 -11.0009 -3.50045 -1.54173 -11.2405 -4.06794 -2.34767 
-11.3691 -4.68 -3.14641 -11.4125 -5.34707 -3.90942 -11.3815 -6.08448 -4.60573 
-11.2701 -6.91619 -5.17232 -11.0418 -7.87141 -5.42232 -10.6889 -8.69078 -4.96477 
-10.3717 -8.99164 -4.0503 -10.139 -8.94059 -3.06614 -9.98691 -8.68622 -2.09589 
-9.91642 -8.31383 -1.15495 -9.92936 -7.88242 -0.236845 -10.0283 -7.44243 0.67193 
-10.2142 -7.04741 1.58763 -10.4837 -6.76804 2.52457 -10.8158 -6.70329 3.48008 
-11.1505 -6.95291 4.40281 -11.4066 -7.51727 5.20438 -11.5488 -8.28737 5.84845 
-11.5909 -9.16393 6.35705 -11.5563 -10.0943 6.75996 -11.4641 -11.0533 7.0776 
-11.3279 -12.0284 7.3224 -11.16 -13.0121 7.50553 -10.9731 -13.9996 7.64454 
-10.7784 -14.9877 7.76737 -10.5846 -15.9728 7.91378 -10.3947 -16.9441 8.13672 
-10.2014 -17.8711 8.49987 -9.97129 -18.6919 9.04852 -9.63609 -19.3278 9.76293 
-9.12508 -19.7289 10.5406 -8.42628 -19.9074 11.2526 -7.59472 -19.9176 11.8329 
-6.69551 -19.8132 12.2906 -5.77011 -19.6316 12.6646 -4.83922 -19.3987 12.9941 
-3.91268 -19.1355 13.3129 -2.99622 -18.8613 13.651 -2.09587 -18.5951 14.0355 
-1.22108 -18.3535 14.4889 -0.38558 -18.1484 15.0265 0.394113 -17.9864 15.6549 
1.09974 -17.8746 16.375 1.71289 -17.8283 17.1817 2.22461 -17.8815 18.0559 
2.65268 -18.0897 18.9496 3.05112 -18.5251 19.7861 3.43531 -19.1344 20.4427 
3.87822 -19.9517 20.9203 
LINES 1 65
64 0 1 2 3 4 5 6 7 8 9 10 11 12 13 14 15 16 17 18 19 20 21 22 23 24 25 26 27 28 29 30 31 32 33 34 35 36 37 38 39 40 41 42 43 44 45 46 47 48 49 50 51 52 53 54 55 56 57 58 59 60 61 62 63 

POINT_DATA 64
SCALARS MaximumInscribedSphereRadius float
LOOKUP_TABLE default
0.62 0.767646 1.00831 1.48786 1.7256 1.462 1.2555 1.16391 1.19358 
1.33671 1.83881 2.01122 1.6852 1.71387 1.84837 1.86 1.82452 1.66724 
1.47924 1.26729 1.52542 1.84104 2.1401 2.42477 1.96872 1.44114 1.54996 
1.72534 1.49627 1.3893 1.84623 2.21407 2.4372 2.48 2.41161 2.10913 
2.02128 2.39243 2.64895 2.24645 1.86309 1.86 2.07076 2.45773 2.59676 
2.38173 1.98559 1.64692 1.42733 1.2968 1.53532 1.86243 2.18106 2.4963 
2.73596 2.81128 2.43083 2.24739 2.33711 2.72715 2.94218 2.58518 2.20456 
1.86 
TEXTURE_COORDINATES TCoords 2 float
0 0 0.015873 0 0.031746 0 0.047619 0 0.0634921 
0 0.0793651 0 0.0952381 0 0.111111 0 0.126984 0 
0.142857 0 0.15873 0 0.174603 0 0.190476 0 0.206349 
0 0.222222 0 0.238095 0 0.253968 0 0.269841 0 
0.285714 0 0.301587 0 0.31746 0 0.333333 0 0.349206 
0 0.365079 0 0.380952 0 0.396825 0 0.412698 0 
0.428571 0 0.444444 0 0.460317 0 0.47619 0 0.492063 
0 0.507937 0 0.52381 0 0.539683 0 0.555556 0 
0.571429 0 0.587302 0 0.603175 0 0.619048 0 0.634921 
0 0.650794 0 0.666667 0 0.68254 0 0.698413 0 
0.714286 0 0.730159 0 0.746032 0 0.761905 0 0.777778 
0 0.793651 0 0.809524 0 0.825397 0 0.84127 0 
0.857143 0 0.873016 0 0.888889 0 0.904762 0 0.920635 
0 0.936508 0 0.952381 0 0.968254 0 0.984127 0 
1 0 
FIELD FieldData 4
Curvature 1 64 float
0.162395 0.190432 0.20681 0.19615 0.158194 0.109062 0.0589557 0.0374996 0.0801508 
0.158959 0.246255 0.265839 0.217803 0.154689 0.107539 0.0878273 0.108159 0.179163 
0.347102 0.670209 0.604543 0.337595 0.202798 0.130863 0.088109 0.0724818 0.087196 
0.129854 0.194611 0.265904 0.288434 0.242166 0.176273 0.123781 0.0898027 0.0707852 
0.0576119 0.0428317 0.0293005 0.0414579 0.0837619 0.140307 0.193222 0.229822 0.249435 
0.250572 0.220034 0.165761 0.109725 0.0643123 0.0311583 0.0234004 0.043204 0.0668753 
0.0850354 0.0975485 0.10904 0.121738 0.134066 0.150101 0.188032 0.231852 0.241429 
0.213536 
Torsion 1 64 float
-0.00225119 -0.00361648 -0.00653725 -0.0128142 -0.0201844 -0.00436841 0.293369 0.694632 0.178248 
-0.0454614 -0.1232 -0.177203 -0.180655 -0.187369 -0.217173 -0.23493 -0.160846 -0.0807824 
-0.0331929 0.0107286 0.0167814 -0.0240212 -0.0852255 -0.170921 -0.316273 -0.463211 -0.394373 
-0.256403 -0.177623 -0.135177 -0.101306 -0.0678454 -0.0372991 -0.0103811 0.0119718 0.032909 
0.0470055 0.0316934 -0.0497007 -0.0308021 0.0301405 0.0775799 0.170031 0.273069 0.315484 
0.213301 0.082396 -0.00767011 -0.0654294 -0.157315 -0.648259 -0.871184 -0.247626 -0.0546102 
0.00131124 0.0125386 -0.0140429 -0.0783126 -0.227119 -0.385009 -0.335068 -0.194826 -0.0950311 
-0.0444766 
Abscissas 1 64 double
0 1.0454282581 2.0195395847 3.0439856454 4.0562298589 5.0706779104 6.0851691778 7.0997410089 8.1143446639 
9.128740874 10.142666161 11.155694613 12.169208541 13.183405007 14.197797863 15.212263307 16.226684732 17.241367732 
18.253877594 19.267320091 20.269945145 21.2835464 22.29613064 23.310635546 24.325037393 25.339531918 26.354052678 
27.368501318 28.382668026 29.396315949 30.409116838 31.422331422 32.436284471 33.450584192 34.465041084 35.479475039 
36.494018547 37.508608243 38.523207699 39.537770083 40.55237144 41.566859616 42.581045213 43.594791336 44.608255422 
45.621558543 46.635031474 47.649104836 48.66348502 49.677989792 50.692567492 51.70715346 52.721745174 53.736305257 
54.750800385 55.765265697 56.779687281 57.794060775 58.808388636 59.822742968 60.835309147 61.859057275 62.833720835 
63.878829387 
ParallelTransportNormals 3 64 double
-0.19985778839 0 0.97982491519 -0.12946997529 -0.030496700935 0.99111426018 -0.049378264625 -0.0469816494 0.99767455195 
0.044079160353 -0.045545791813 0.99798928274 0.11779024936 -0.029234925976 0.9926080678 0.1668588333 -0.010449777718 0.98592541903 
0.18722955259 -0.00039270892793 0.98231611023 0.17202824989 -0.0088004029998 0.98505270628 0.105613002 -0.046911733509 0.99330014752 
-0.04060571326 -0.13187073922 0.99043489649 -0.26715804241 -0.2714166636 0.9246402409 -0.46430853137 -0.41767003505 0.78100533258 
-0.55826912741 -0.51701271884 0.64887088849 -0.58801420845 -0.56865001878 0.57521860783 -0.59443824476 -0.58922957618 0.54722178294 
-0.5943275411 -0.58840628504 0.54822697637 -0.5941234522 -0.56530943661 0.57222597322 -0.59970478653 -0.50384171372 0.62168938911 
-0.63197623926 -0.33406245926 0.69929128861 -0.75483290837 0.040473574294 0.65466722098 -0.88386680728 0.25666525021 0.39102738564 
-0.93715638186 0.28085854388 0.20701785978 -0.9617294836 0.2613702925 0.082231201985 -0.97335224207 0.22864102032 -0.017569766245 
-0.97601856162 0.1914028218 -0.10369535754 -0.97130605739 0.15469825389 -0.18064604375 -0.96072824589 0.12368969597 -0.24839906734 
-0.94721547249 0.10367995255 -0.30336993278 -0.93790811173 0.098357055997 -0.33264735606 -0.94376119757 0.096733143052 -0.31616056204 
-0.96342333925 0.069646335318 -0.25877568927 -0.97988862497 0.014490097306 -0.19901839043 -0.98646276407 -0.044241436068 -0.15790475116 
-0.9866701561 -0.094169528893 -0.1327181332 -0.98402479126 -0.1335861448 -0.11768581945 -0.98040400115 -0.1642474116 -0.10876939972 
-0.97700871219 -0.18611754443 -0.10399151867 -0.97472095032 -0.19882790084 -0.10191435061 -0.97363952221 -0.20442662214 -0.10117231312 
-0.97323879004 -0.20646195328 -0.10089459549 -0.97197398077 -0.21291092276 -0.099677076962 -0.96697253999 -0.23768693928 -0.09202731014 
-0.95074090811 -0.30468753854 -0.057072142992 -0.90432244507 -0.42429438881 0.046638899766 -0.79661726632 -0.55627882795 0.23654766237 
-0.6226543672 -0.63962524015 0.45075613271 -0.4339169438 -0.66290408695 0.61014281721 -0.28118799021 -0.654593032 0.70174160246 
-0.17745281874 -0.63833316143 0.74902688346 -0.11692374744 -0.62481741252 0.77196634532 -0.092842982112 -0.61838570286 0.78037125983 
-0.10107574998 -0.62078629926 0.77743685494 -0.13875295103 -0.63199316286 0.76245148087 -0.20061118403 -0.64968839866 0.73325311966 
-0.27835253994 -0.66999320955 0.6882070638 -0.36251700196 -0.68912200701 0.627449028 -0.44873389589 -0.70501494687 0.549173757 
-0.53583373465 -0.71545673407 0.44833455196 -0.62151478994 -0.71493120243 0.32030101729 -0.69951296821 -0.69322314942 0.17356057274 
-0.76716133025 -0.64065806483 0.031948980069 -0.81473689241 -0.57686333747 -0.058587422103 -0.8476708179 -0.52020679011 -0.10411090243 
-0.8476708179 -0.52020679011 -0.10411090243 
