# vtk DataFile Version 4.2
vtk output
ASCII
DATASET POLYDATA
POINTS 64 float
0 0 0 -0.987095 0.00201445 0.346064 -1.91843 0.00116659 0.655447 
-2.88337 -0.00794853 0.973231 -3.82612 0.0175202 1.34748 -4.77585 0.0357308 1.70315 
-5.74132 0.0458268 2.01385 -6.71978 0.00772106 2.27618 -7.68676 -0.282257 2.35799 
-8.54079 -0.81359 2.24746 -9.20992 -1.52501 1.97831 -9.71053 -2.32935 1.61667 
-10.1009 -3.1727 1.20995 -10.4229 -4.03172 0.776757 -10.6851 -4.89521 0.313256 
-10.8635 -5.75146 -0.200369 -10.9083 -6.57671 -0.787571 -10.7713 -7.33231 -1.44901 
-10.4463 -7.99052 -2.14816 -9.96846 -8.56262 -2.83582 -9.37695 -9.09114 -3.46775 
-8.69984 -9.64286 -3.98085 -7.98493 -10.3369 -4.16875 -7.67689 -11.0347 -3.54768 
-7.91033 -11.3473 -2.61525 -8.39762 -11.3804 -1.7291 -9.05191 -11.1708 -0.985686 
-9.78649 -10.7652 -0.417022 -10.5214 -10.2382 0.0424035 -11.2106 -9.64308 0.489445 
-11.8097 -9.01831 1.01764 -12.2354 -8.42592 1.71958 -12.3499 -8.00208 2.62823 
-12.1017 -7.87924 3.59997 -11.6158 -8.02338 4.47672 -11.0026 -8.35848 5.21057 
-10.316 -8.85623 5.76462 -9.60546 -9.5215 6.04005 -8.99886 -10.3097 5.87588 
-8.62719 -11.0706 5.32209 -8.43511 -11.7697 4.61292 -8.33273 -12.4673 3.88348 
-8.25957 -13.2305 3.21968 -8.16285 -14.112 2.73014 -7.99407 -15.0936 2.55541 
-7.73316 -16.0499 2.75736 -7.38508 -16.8671 3.24381 -6.94177 -17.4959 3.90305 
-6.39298 -17.907 4.649 -5.7467 -18.1016 5.40512 -5.02568 -18.1179 6.11786 
-4.25927 -18.0142 6.77421 -3.47277 -17.8415 7.39139 -2.68114 -17.6319 7.99033 
-1.88813 -17.4033 8.5805 -1.08708 -17.1694 9.15758 -0.26681 -16.947 9.71172 
0.580696 -16.7583 10.2365 1.45437 -16.6256 10.7347 2.34418 -16.5694 11.2186 
3.23295 -16.6129 11.7065 4.09176 -16.7862 12.2191 4.85256 -17.1059 12.753 
5.49217 -17.6553 13.3688 
LINES 1 65
64 0 1 2 3 4 5 6 7 8 9 10 11 12 13 14 15 16 17 18 19 20 21 22 23 24 25 26 27 28 29 30 31 32 33 34 35 36 37 38 39 40 41 42 43 44 45 46 47 48 49 50 51 52 53 54 55 56 57 58 59 60 61 62 63 

POINT_DATA 64
SCALARS MaximumInscribedSphereRadius float
LOOKUP_TABLE default
0.62 0.812897 0.924967 0.927588 0.903015 0.8742 0.8742 0.956717 1.1325 
0.831047 0.748511 0.866214 0.702596 0.755178 0.946863 1.13835 1.24 1.21909 
1.07254 0.985809 1.16453 1.24 1.24 1.52335 1.6607 1.27054 1.49438 
1.581 1.57722 1.56067 1.55 1.55 1.55 1.55 1.45967 1.18981 
1.02772 1.00865 1.25198 1.64499 1.85117 1.84498 1.70519 1.44962 1.05111 
1.09941 1.17459 0.977857 1.08446 1.22709 1.25025 1.37569 1.59988 2.04716 
2.02762 1.66046 1.56196 1.39811 1.01154 1.23195 1.46092 1.33076 1.35548 
1.55 
TEXTURE_COORDINATES TCoords 2 float
0 0 0.015873 0 0.031746 0 0.047619 0 0.0634921 
0 0.0793651 0 0.0952381 0 0.111111 0 0.126984 0 
0.142857 0 0.15873 0 0.174603 0 0.190476 0 0.206349 
0 0.222222 0 0.238095 0 0.253968 0 0.269841 0 
0.285714 0 0.301587 0 0.31746 0 0.333333 0 0.349206 
0 0.365079 0 0.380952 0 0.396825 0 0.412698 0 
0.428571 0 0.444444 0 0.460317 0 0.47619 0 0.492063 
0 0.507937 0 0.52381 0 0.539683 0 0.555556 0 
0.571429 0 0.587302 0 0.603175 0 0.619048 0 0.634921 
0 0.650794 0 0.666667 0 0.68254 0 0.698413 0 
0.714286 0 0.730159 0 0.746032 0 0.761905 0 0.777778 
0 0.793651 0 0.809524 0 0.825397 0 0.84127 0 
0.857143 0 0.873016 0 0.888889 0 0.904762 0 0.920635 
0 0.936508 0 0.952381 0 0.968254 0 0.984127 0 
1 0 
FIELD FieldData 4
Curvature 1 64 float
0.0665992 0.0372647 0.0430906 0.0670043 0.115661 0.0875238 0.0966052 0.308422 0.234343 
0.209792 0.150548 0.0961424 0.0618902 0.0486835 0.0654438 0.106106 0.143645 0.147611 
0.120905 0.0940824 0.122276 0.296878 0.73726 0.535601 0.273796 0.225204 0.192203 
0.116099 0.0625415 0.0906046 0.179672 0.289205 0.335316 0.261436 0.185352 0.171937 
0.224989 0.328658 0.327616 0.181383 0.070579 0.0693899 0.151424 0.235903 0.26875 
0.224809 0.18582 0.17578 0.162058 0.135612 0.095566 0.0552948 0.0274924 0.0145389 
0.011102 0.0220983 0.0365004 0.0468483 0.0543871 0.0672267 0.0920555 0.129162 0.170317 
0.195683 
Torsion 1 64 float
-0.0141058 0.516937 -0.056938 -0.193137 -0.00645851 0.0943862 -0.183126 -0.00370965 -0.0228078 
-0.0267638 -0.0164741 -0.00292803 0.0462545 0.101431 0.0566764 0.00459686 -0.0256461 -0.0683304 
-0.149983 -0.328511 -0.304129 -0.121061 -0.049577 -0.0124097 -0.0147797 0.00252167 0.070029 
0.232491 0.700947 0.354017 0.112653 0.0589006 0.0342617 0.0226881 0.0207858 0.0195816 
0.0154483 0.0184237 0.041737 0.138735 0.668846 0.638948 0.138094 0.0645442 0.0666345 
0.115568 0.155278 0.133019 0.114994 0.0991128 0.0392055 -0.0485523 -0.133839 0.195451 
0.748231 0.312391 0.195068 0.192929 0.212599 0.186291 0.12817 0.0789659 0.0476076 
0.0276026 
Abscissas 1 64 double
0 1.0460023359 2.027380649 3.0433426926 4.0579798299 5.0722873164 6.0865699737 7.1003020656 8.1131349384 
9.1250135478 10.138075973 11.152155378 12.166575697 13.18109836 14.195591359 15.209890015 16.223719941 17.237229635 
18.250973347 19.2651259 20.27930169 21.292290348 22.306239374 23.289876648 24.300637629 25.312472385 26.324743083 
27.338399041 28.352742647 29.3671441 30.381170063 31.393526957 32.402682613 33.413114073 34.425816043 35.439148378 
36.452136509 37.463725657 38.471780735 39.483605908 40.497784701 41.512284686 42.526413276 43.539353007 44.550567908 
45.562184016 46.574907433 47.588075576 48.601296037 49.614836774 50.628805905 51.643169458 52.657723141 53.672286704 
54.686891768 55.701491406 56.71607276 57.730600886 58.745056038 59.759491698 60.774307066 61.789366895 62.77225763 
63.816360574 
ParallelTransportNormals 3 64 double
0.33084500024 0 0.94368510946 0.31525366843 8.7476320021e-06 0.94900744173 0.31280384765 -3.9426246989e-06 0.94981774719 
0.36895500303 -0.00048596443205 0.92944713113 0.35070844878 -6.4836948829e-05 0.93648469275 0.30634552894 0.00059084325597 0.95192020033 
0.2589628776 -9.2202609112e-05 0.96588727061 0.092647576853 -0.028149654802 0.99530097128 -0.06635197902 -0.099873600913 0.99278531351 
-0.18162037951 -0.19390696048 0.96406126798 -0.24017554312 -0.26977542689 0.93248963937 -0.2653811803 -0.31638708688 0.91075355635 
-0.27830630275 -0.34727444687 0.89551441105 -0.29030534615 -0.38265360747 0.8770969289 -0.30555562491 -0.44217928519 0.84327530489 
-0.31828323271 -0.53807655812 0.78049305018 -0.31132957113 -0.65726612345 0.68634913936 -0.27758479945 -0.76053716501 0.5869666939 
-0.23779278407 -0.82151951352 0.51822802003 -0.22006630184 -0.83976439386 0.49635328709 -0.2571028098 -0.80822836774 0.52977830343 
-0.45113532846 -0.63459010807 0.62751279681 -0.90286932029 -0.016196924401 0.42960988132 -0.93185698684 0.34299585255 -0.11830638701 
-0.80851980827 0.40219116597 -0.42957884683 -0.64034973179 0.3761973317 -0.66964751072 -0.473508951 0.30230839001 -0.82728405681 
-0.38203024909 0.24425472699 -0.89128700042 -0.3749504975 0.238676287 -0.89579336593 -0.43744610653 0.29785439899 -0.84848315297 
-0.55554836401 0.4381414937 -0.70668100777 -0.66392613818 0.642155323 -0.38319528205 -0.63219310297 0.77217458935 0.063861444757 
-0.49786862118 0.76833052028 0.40223755127 -0.35202835896 0.70474541023 0.61596261352 -0.19042334198 0.60119421756 0.77608276852 
0.034740837849 0.41374463649 0.90972987747 0.34535912373 0.070877714803 0.93579026774 0.5692868063 -0.2835665149 0.77168812599 
0.63604764963 -0.45640823591 0.62220166312 0.64613405391 -0.50424849923 0.57292602961 0.64170366569 -0.46737847871 0.608090259 
0.62694877056 -0.32453388774 0.70824642237 0.58682555438 -0.043028488446 0.8085693031 0.50887359295 0.30855000458 0.80364454896 
0.41249981813 0.58924345303 0.69472012574 0.30634659473 0.78321346371 0.54104383756 0.18370339671 0.91176674494 0.36733426855 
0.05449705836 0.97725736719 0.20493440148 -0.059272512577 0.99480926403 0.082712136072 -0.14064697707 0.99002899951 0.0078107598134 
-0.18989994577 0.9812626881 -0.032581398627 -0.21737517181 0.97460686338 -0.053754037351 -0.23176364452 0.97062802711 -0.064551112103 
-0.23495726896 0.96970142694 -0.066889643027 -0.22382350551 0.9728348748 -0.059121440733 -0.19371122009 0.98025738414 -0.039641191376 
-0.14439620892 0.98946602068 -0.010330961324 -0.077567830775 0.99662448038 0.026886367142 0.0082941669673 0.99723853086 0.073800537719 
0.11723176513 0.98372510872 0.13616763093 0.24397137082 0.94492403432 0.21816631175 0.39851844866 0.8500249387 0.34444252012 
0.39851844866 0.8500249387 0.34444252012 
