# vtk DataFile Version 4.2
vtk output
ASCII
DATASET POLYDATA
POINTS 64 float
0 0 0 -0.891403 0.429412 0.249657 -1.75828 0.884585 0.495806 
-2.62848 1.3303 0.763629 -3.51507 1.71588 1.07002 -4.42966 1.96714 1.42732 
-5.35777 1.99535 1.83117 -6.24715 1.76363 2.25654 -7.06726 1.34388 2.68022 
-7.87425 0.861839 3.06138 -8.75851 0.408017 3.24829 -9.65523 -0.00497961 3.03952 
-10.3939 -0.444098 2.50553 -10.8955 -0.956183 1.79163 -11.0631 -1.50405 0.960146 
-10.8287 -1.99307 0.10797 -10.3032 -2.40604 -0.653161 -9.6369 -2.8149 -1.29897 
-8.91502 -3.29235 -1.827 -8.19489 -3.91385 -2.17052 -7.7399 -4.70091 -1.86711 
-7.91253 -5.03336 -0.929727 -8.26316 -5.04487 0.0206213 -8.70167 -4.83401 0.908579 
-9.20813 -4.38217 1.65937 -9.7111 -3.75019 2.27226 -10.1405 -3.05733 2.8757 
-10.4394 -2.43074 3.61213 -10.5207 -2.11733 4.56203 -10.3427 -2.47418 5.47341 
-10.0885 -3.32029 5.95493 -9.88113 -4.30743 6.01598 -9.73696 -5.28583 5.79486 
-9.63135 -6.24515 5.4819 -9.52735 -7.23878 5.32105 -9.40978 -8.20905 5.56814 
-9.29127 -9.03169 6.14676 -9.14155 -9.73893 6.85807 -8.88122 -10.3862 7.59355 
-8.40585 -10.9675 8.27223 -7.70078 -11.4144 8.84513 -6.86363 -11.6973 9.34169 
-5.97416 -11.8307 9.80993 -5.0633 -11.8331 10.2558 -4.13613 -11.7229 10.6516 
-3.1911 -11.5265 10.963 -2.23153 -11.285 11.1866 -1.26564 -11.0407 11.3784 
-0.309376 -10.8194 11.6338 0.614304 -10.6316 12.0079 1.50135 -10.5004 12.4818 
2.3588 -10.4925 13.0221 3.13484 -10.7772 13.6002 3.54402 -11.523 14.1265 
3.48206 -12.4371 14.5544 3.19318 -13.3114 14.9789 2.80905 -14.1325 15.4343 
2.35565 -14.9241 15.8777 1.76696 -15.7006 16.1472 0.999102 -16.2505 15.8373 
0.275323 -16.4813 15.1656 -0.454452 -16.6857 14.4924 -1.25285 -17.0441 13.9948 
-2.06334 -17.6385 13.861 
LINES 1 65
64 0 1 2 3 4 5 6 7 8 9 10 11 12 13 14 15 16 17 18 19 20 21 22 23 24 25 26 27 28 29 30 31 32 33 34 35 36 37 38 39 40 41 42 43 44 45 46 47 48 49 50 51 52 53 54 55 56 57 58 59 60 61 62 63 

POINT_DATA 64
SCALARS MaximumInscribedSphereRadius float
LOOKUP_TABLE default
1.116 1.116 1.03215 1.08224 1.1752 1.02774 1.46268 1.7409 1.64693 
1.55 1.42125 1.20658 1.20396 1.30898 1.00263 1.46583 1.33616 1.3032 
1.4161 1.58406 1.96382 2.0564 2.08219 2.84413 3.37276 2.24981 2.18862 
2.36922 1.97768 1.64822 1.99371 2.47732 2.48 2.2889 2.47886 2.66041 
2.30602 1.83264 1.55981 1.29883 1.7081 1.68069 1.86871 2.35638 2.21588 
1.74829 1.71744 1.86899 1.87924 1.86342 1.87897 1.92864 1.74172 1.78625 
1.80186 1.7179 2.40573 2.69609 2.79 3.24075 3.20363 3.07594 2.89591 
2.4986 
TEXTURE_COORDINATES TCoords 2 float
0 0 0.015873 0 0.031746 0 0.047619 0 0.0634921 
0 0.0793651 0 0.0952381 0 0.111111 0 0.126984 0 
0.142857 0 0.15873 0 0.174603 0 0.190476 0 0.206349 
0 0.222222 0 0.238095 0 0.253968 0 0.269841 0 
0.285714 0 0.301587 0 0.31746 0 0.333333 0 0.349206 
0 0.365079 0 0.380952 0 0.396825 0 0.412698 0 
0.428571 0 0.444444 0 0.460317 0 0.47619 0 0.492063 
0 0.507937 0 0.52381 0 0.539683 0 0.555556 0 
0.571429 0 0.587302 0 0.603175 0 0.619048 0 0.634921 
0 0.650794 0 0.666667 0 0.68254 0 0.698413 0 
0.714286 0 0.730159 0 0.746032 0 0.761905 0 0.777778 
0 0.793651 0 0.809524 0 0.825397 0 0.84127 0 
0.857143 0 0.873016 0 0.888889 0 0.904762 0 0.920635 
0 0.936508 0 0.952381 0 0.968254 0 0.984127 0 
1 0 
FIELD FieldData 4
Curvature 1 64 float
0.0686163 0.0306615 0.0155668 0.0398302 0.081004 0.124431 0.143135 0.109614 0.0392813 
0.121465 0.225089 0.202639 0.161969 0.189028 0.223294 0.175598 0.102572 0.0772055 
0.140105 0.435756 0.658281 0.202425 0.126678 0.15626 0.129696 0.0583965 0.108284 
0.243259 0.410248 0.365189 0.239967 0.15639 0.0569479 0.0983435 0.233709 0.200106 
0.0952759 0.0706455 0.128928 0.159138 0.125071 0.0878374 0.0710183 0.0661563 0.0664573 
0.0550331 0.0218039 0.0379046 0.0725718 0.064166 0.0774224 0.173198 0.339367 0.297653 
0.139231 0.061883 0.0503324 0.151215 0.403086 0.293186 0.0736952 0.130556 0.246053 
0.249245 
Torsion 1 64 float
-0.0369998 -0.130259 -0.460007 -0.13776 -0.0609997 -0.0330337 4.42691e-05 0.000613211 -1.02264 
-0.0170347 0.173996 0.2152 0.100791 -0.0476436 -0.00373086 0.105729 0.256952 0.287652 
0.0690424 -0.0360413 -0.0753602 -0.0298892 0.0196077 -0.0250293 -0.164288 -0.876021 -0.292474 
-0.106974 -0.0925497 -0.0592659 -0.0214297 -0.0205445 -0.220505 -0.148288 -0.000505787 -0.0244014 
-0.275945 -0.481589 -0.0303937 0.0810974 0.16508 0.121566 -0.0505275 -0.165915 -0.176112 
-0.156497 -0.621021 -0.173334 0.000513523 0.214319 0.244827 0.0441426 -0.0811357 -0.154526 
-0.183404 -0.104809 0.33102 0.0833587 -0.00428014 -0.0332512 -0.16567 -0.0430778 -0.00894053 
-0.00278083 
Abscissas 1 64 double
0 1.020452172 2.0300300901 3.0437553393 4.0579492206 5.0714922743 6.0840528878 7.0967871126 8.1108259656 
9.1251630115 10.136501243 11.145588838 12.157322035 13.168997493 14.17875666 15.18884961 16.201773656 17.21577128 
18.229617927 19.240981096 20.199384434 21.208845124 22.221878028 23.234410337 24.246511269 25.260420371 26.274609597 
27.286679154 28.290245549 29.285052089 30.291223626 31.30175523 32.315138645 33.329728414 34.341651831 35.34976913 
36.362478958 37.376661629 38.390398189 39.40257012 40.415021869 41.428641395 42.442643494 43.456779692 44.470903007 
45.485114564 46.499556953 47.514156913 48.528377613 49.542480524 50.556702089 51.570214398 52.578921846 53.579240806 
54.590436984 55.604365932 56.618835977 57.633136552 58.644144868 59.63814367 60.652198152 61.665878741 62.672604405 
63.686561026 
ParallelTransportNormals 3 64 double
0.26969419515 0 0.96294602191 0.27247150303 -0.0013975770473 0.96216283799 0.28937961754 -0.010166736363 0.95716042251 
0.3174196468 -0.02343524167 0.94799554708 0.3548810758 -0.036679450121 0.93419165056 0.3975207569 -0.043143799262 0.91657834385 
0.43928701298 -0.038467624372 0.89752279197 0.46964958501 -0.026899194913 0.88244302967 0.4461410011 -0.039928258864 0.89407155266 
0.27147036085 -0.13657243353 0.9527076223 -0.079265661319 -0.30726848448 0.94831589324 -0.33791589883 -0.4420149268 0.83092457528 
-0.46029310292 -0.53587065614 0.70779439055 -0.53394497504 -0.65258749921 0.53761726117 -0.52493888137 -0.79252265638 0.31039814747 
-0.45474274725 -0.87589893657 0.1612764296 -0.42608310435 -0.895663063 0.12743965538 -0.46189708025 -0.87279687713 0.15772348757 
-0.57295318168 -0.7881477245 0.22482841452 -0.87828380214 -0.41876513053 0.2307668268 -0.98116081846 -0.029052705895 -0.19099578161 
-0.93817927608 -0.00073561622577 -0.3461489633 -0.89760454081 -0.010988015503 -0.44066467051 -0.84171208208 -0.050187368605 -0.53758906138 
-0.81078090897 -0.083392992828 -0.57937891435 -0.83769935595 -0.045144205931 -0.54426261098 -0.90176563354 0.070939329182 -0.42636410934 
-0.96265142131 0.22162437252 -0.15551488213 -0.94047484038 0.21111187742 0.26634348091 -0.87093483138 0.01781205478 0.49107560538 
-0.83087012677 -0.14125444733 0.53823973613 -0.81326355715 -0.23967256845 0.5302447044 -0.81059660855 -0.26036014415 0.52454335717 
-0.8198534899 -0.17411030641 0.54545930765 -0.84337667957 0.034360266771 0.53622303982 -0.86507780505 0.19920168121 0.46039014043 
-0.87258312879 0.24201517659 0.42429628521 -0.8582140034 0.19455324411 0.47499237845 -0.78596309228 0.073931212235 0.61383726951 
-0.64756151905 -0.046626310808 0.76058534445 -0.53258731406 -0.10104343613 0.84032194838 -0.47616043336 -0.1146493425 0.87185249324 
-0.43685509153 -0.11761436848 0.89180967102 -0.37853281897 -0.11419377481 0.91851656858 -0.29255883689 -0.10011442594 0.95099233891 
-0.20696039284 -0.080434072941 0.9750373099 -0.17651927138 -0.072753680406 0.98160473146 -0.23805739434 -0.087659829384 0.96728715039 
-0.35322488883 -0.11272163772 0.92872278442 -0.4521614787 -0.13015171037 0.88238910321 -0.52725186764 -0.13613733751 0.83873243255 
-0.62104902069 -0.12020129891 0.77449968473 -0.77785348448 0.016565127649 0.62822731016 -0.83332699997 0.2796827927 0.47680566962 
-0.79897700215 0.45493959051 0.3932756273 -0.76208234045 0.54788632263 0.34503780061 -0.73566644252 0.59875081617 0.31668966747 
-0.70810651521 0.64021261321 0.29784723098 -0.63251133249 0.71393802273 0.30036962891 -0.56150650124 0.75124159752 0.34690994685 
-0.54546473394 0.75604450783 0.36175257595 -0.55726591 0.75169491927 0.35271724355 -0.5921212098 0.73107097686 0.33900988141 
-0.5921212098 0.73107097686 0.33900988141 
