# vtk DataFile Version 4.2
vtk output
ASCII
DATASET POLYDATA
POINTS 64 float
0 0 0 -0.968165 -0.025353 -0.393626 -1.83318 -0.0326388 -0.840583 
-2.74072 -0.0665924 -1.3199 -3.64983 -0.171028 -1.75184 -4.58389 -0.415356 -2.06211 
-5.48278 -0.869546 -2.17233 -6.27316 -1.50599 -2.20465 -6.95798 -2.20467 -2.46109 
-7.50648 -2.85457 -3.01317 -7.90451 -3.49087 -3.69558 -8.15103 -4.18687 -4.39083 
-8.22855 -4.95002 -5.05422 -8.12085 -5.71577 -5.71055 -7.81871 -6.36844 -6.42471 
-7.35127 -6.808 -7.20932 -6.78216 -7.05675 -8.01457 -6.16919 -7.22657 -8.7781 
-5.44019 -7.38946 -9.5956 -5.2875 -8.15849 -9.34726 -5.86825 -8.32831 -8.52477 
-6.44958 -8.27983 -7.70427 -6.98125 -7.9832 -6.89057 -7.38301 -7.51778 -6.08464 
-7.61831 -6.98964 -5.25133 -7.66651 -6.56228 -4.33319 -7.53381 -6.46235 -3.33637 
-7.31312 -6.78733 -2.40313 -7.10943 -7.39136 -1.61435 -6.95841 -8.13943 -0.946232 
-6.86226 -8.96893 -0.370257 -6.80432 -9.84681 0.134975 -6.75034 -10.7509 0.592253 
-6.65419 -11.6612 1.02974 -6.47713 -12.5544 1.47702 -6.20926 -13.4075 1.95608 
-5.8714 -14.211 2.47528 -5.49451 -14.9714 3.0313 -5.10005 -15.7036 3.6123 
-4.69087 -16.4219 4.20065 -4.25098 -17.1312 4.77741 -3.75335 -17.8235 5.32729 
-3.17608 -18.4782 5.84432 -2.51146 -19.0672 6.33464 -1.76293 -19.5561 6.81373 
-0.941593 -19.9025 7.29749 -0.0708357 -20.0644 7.79133 0.813128 -20.026 8.28684 
1.67851 -19.818 8.77344 2.51671 -19.5052 9.25186 3.33834 -19.1556 9.73365 
4.15681 -18.8252 10.2339 4.97754 -18.5567 10.7664 5.79414 -18.3843 11.343 
6.58597 -18.3431 11.9755 7.30906 -18.4764 12.6737 7.88406 -18.8198 13.4343 
8.21658 -19.3604 14.224 8.26521 -20.0254 14.9873 8.07038 -20.7365 15.6838 
7.70919 -21.4499 16.3039 7.25071 -22.1723 16.8716 6.7854 -22.863 17.3763 
6.37527 -23.6488 17.9305 
LINES 1 65
64 0 1 2 3 4 5 6 7 8 9 10 11 12 13 14 15 16 17 18 19 20 21 22 23 24 25 26 27 28 29 30 31 32 33 34 35 36 37 38 39 40 41 42 43 44 45 46 47 48 49 50 51 52 53 54 55 56 57 58 59 60 61 62 63 

POINT_DATA 64
SCALARS MaximumInscribedSphereRadius float
LOOKUP_TABLE default
1.24 1.05993 0.937832 0.93 0.93 0.934086 0.941427 0.819293 0.969316 
0.91009 0.797632 1.08928 0.908259 0.815673 1.16815 1.07141 1.06527 1.49961 
1.72454 0.93 0.973836 1.15559 1.23829 1.24 1.24265 1.32319 1.50801 
1.57204 1.45765 1.29033 1.40411 1.52866 1.55 1.44388 1.27037 1.24 
1.38811 1.747 1.72479 1.53779 1.3484 1.38445 1.69095 1.81823 1.91326 
2.06677 1.84598 1.35701 1.42744 1.4823 1.3124 1.25611 1.3442 1.65618 
1.77548 1.63583 1.72898 1.68085 1.33784 1.43295 1.56018 1.55943 1.56094 
1.581 
TEXTURE_COORDINATES TCoords 2 float
0 0 0.015873 0 0.031746 0 0.047619 0 0.0634921 
0 0.0793651 0 0.0952381 0 0.111111 0 0.126984 0 
0.142857 0 0.15873 0 0.174603 0 0.190476 0 0.206349 
0 0.222222 0 0.238095 0 0.253968 0 0.269841 0 
0.285714 0 0.301587 0 0.31746 0 0.333333 0 0.349206 
0 0.365079 0 0.380952 0 0.396825 0 0.412698 0 
0.428571 0 0.444444 0 0.460317 0 0.47619 0 0.492063 
0 0.507937 0 0.52381 0 0.539683 0 0.555556 0 
0.571429 0 0.587302 0 0.603175 0 0.619048 0 0.634921 
0 0.650794 0 0.666667 0 0.68254 0 0.698413 0 
0.714286 0 0.730159 0 0.746032 0 0.761905 0 0.777778 
0 0.793651 0 0.809524 0 0.825397 0 0.84127 0 
0.857143 0 0.873016 0 0.888889 0 0.904762 0 0.920635 
0 0.936508 0 0.952381 0 0.968254 0 0.984127 0 
1 0 
FIELD FieldData 4
Curvature 1 64 float
0.160153 0.0730554 0.042834 0.0976312 0.187857 0.276423 0.217996 0.222939 0.281274 
0.186443 0.142176 0.153094 0.156072 0.194951 0.234513 0.184088 0.101344 0.182077 
1.26829 0.783999 0.262911 0.200338 0.177832 0.153246 0.201273 0.321968 0.365701 
0.269674 0.166156 0.110793 0.077372 0.0516137 0.0480456 0.071354 0.0864953 0.0784161 
0.0570014 0.0338395 0.0169747 0.0275509 0.0537573 0.0769151 0.0921361 0.106672 0.131135 
0.156772 0.163905 0.140303 0.0897813 0.0359881 0.0239477 0.0569201 0.0861897 0.118007 
0.163657 0.217778 0.257322 0.256747 0.214596 0.153451 0.0919195 0.0593835 0.121748 
0.324363 
Torsion 1 64 float
0.0627473 0.358525 0.782323 0.184459 0.0217947 -0.0896908 -0.714364 -0.913331 0.043907 
0.441183 0.375203 -0.083827 -0.428667 -0.383964 -0.102563 0.05782 0.340801 0.335952 
0.0601726 -0.0569567 -0.141668 -0.207149 -0.331965 -0.602343 -0.50564 -0.269978 -0.16906 
-0.127672 -0.113213 -0.0546127 0.115433 0.510407 0.618601 0.28748 0.181412 0.175662 
0.175555 0.0170819 -0.859916 -0.297242 0.0680622 0.144035 0.191506 0.203667 0.140363 
0.0687204 0.0333705 0.0272038 0.0645247 0.688521 1.65312 0.0693263 -0.0309542 -0.054766 
-0.0664702 -0.0877649 -0.0939948 -0.066548 -0.0233826 0.0263385 0.151411 0.368009 0.188164 
0.0569483 
Abscissas 1 64 double
0 1.0454317937 2.0191229979 3.0460244756 4.0579335828 5.0720496694 6.0851835437 7.1004697772 8.1118519333 
9.1257624363 10.140153355 11.154333144 12.168479798 13.182748454 14.19630236 15.209873297 16.226825067 17.220579929 
18.327955524 19.150387336 20.171465327 21.178200302 22.194452791 23.208134482 24.222384607 25.236258767 26.246825638 
27.259373481 28.273531012 29.287827676 30.302254915 31.316794156 32.331385512 33.345922083 34.360425672 35.374837837 
36.389397206 37.403996633 38.418529054 39.433191153 40.44771711 41.462252124 42.476744198 43.491166756 44.505488453 
45.519693118 46.533748055 47.547847242 48.562208468 49.576757194 50.591359595 51.605907349 52.620425227 53.6348337 
54.649105954 55.663064558 56.676504336 57.68963978 58.703157354 59.717422303 60.729312555 61.756127615 62.729936852 
63.775318849 
ParallelTransportNormals 3 64 double
-0.37663079307 0 0.92636345228 -0.45903643781 -0.0014412136781 0.88841627161 -0.46696772879 -0.0016226813099 0.88427286918 
-0.4292659059 0.0012601150194 0.90317727725 -0.32030872302 0.021868229353 0.94706077023 -0.16209527853 0.082171052517 0.98334787273 
-0.1255163734 0.10578149094 0.98643596659 -0.30167650251 -0.053687819851 0.95189752906 -0.50229747509 -0.27303741619 0.82045585858 
-0.58880863741 -0.39058970293 0.70763272429 -0.61245159011 -0.43946172006 0.657096984 -0.62087968045 -0.47741371086 0.62175925493 
-0.61926240803 -0.5593740137 0.55101250693 -0.5757063727 -0.71008815601 0.40538498139 -0.47069846857 -0.85912178416 0.20087984384 
-0.36106964575 -0.9319650968 0.032707327285 -0.30884136 -0.95041080192 -0.036555737575 -0.28553456304 -0.95622286396 -0.064092493772 
-0.95443436729 -0.09853914265 0.28168258004 -0.7215371222 0.57101365127 -0.39157067223 -0.6490580943 0.57848529293 -0.49404286868 
-0.58597302552 0.55899465279 -0.5866520191 -0.57552264837 0.55045908814 -0.60478795747 -0.59982395412 0.58835598901 -0.54226234818 
-0.63019691054 0.69073451715 -0.35459509411 -0.61437718553 0.7890078799 0.0026906046745 -0.54389007711 0.7441915395 0.38776608484 
-0.49005677811 0.62637705499 0.60621459831 -0.46611938919 0.53513303701 0.70453200617 -0.45611658956 0.47129096503 0.75487911815 
-0.45170737682 0.42243580473 0.78581705034 -0.44915227267 0.38175390665 0.80779093255 -0.4464307316 0.34886304836 0.82401102867 
-0.44349438677 0.32947989565 0.8335200821 -0.44337040765 0.32899329646 0.83377820342 -0.44890100288 0.34411897936 0.82466357847 
-0.45852011341 0.36516599613 0.81019324909 -0.46694667299 0.38147177523 0.79777195319 -0.46862245759 0.38449642311 0.79533357332 
-0.46030967414 0.37051959907 0.80674049768 -0.44117811968 0.34191775657 0.82973135078 -0.41525449996 0.30943190075 0.8554622137 
-0.3917759955 0.28591927524 0.87450656796 -0.38206956659 0.27851561658 0.88116507966 -0.39434521345 0.28504720457 0.87363604767 
-0.42913237855 0.29549683765 0.85353794328 -0.47647425196 0.29882892177 0.82684554951 -0.52114279738 0.29253783353 0.80176792197 
-0.55290286963 0.28282870204 0.78377697214 -0.57081745021 0.27567940457 0.77341341107 -0.57941331663 0.27211548256 0.76826647243 
-0.58469340016 0.27018634861 0.76493984393 -0.5928170457 0.26799884541 0.75943700804 -0.61008256664 0.26570606927 0.74645800059 
-0.6432648238 0.26772400226 0.71731041054 -0.69710612205 0.28749904273 0.65680084883 -0.75663392743 0.34548825523 0.55510626493 
-0.78650589853 0.43995995829 0.43340939848 -0.7762358997 0.53668388578 0.33079938749 -0.74816473949 0.60857589264 0.26435753343 
-0.7271889757 0.64534900213 0.23392490049 -0.72211381023 0.65310623725 0.22804360972 -0.75993621466 0.58960325183 0.27361461051 
-0.75993621466 0.58960325183 0.27361461051 
