# vtk DataFile Version 4.2
vtk output
ASCII
DATASET POLYDATA
POINTS 64 float
0 0 0 -0.684475 0.129591 0.779596 -1.44817 0.249956 1.38383 
-2.29729 0.365365 1.9298 -3.18997 0.456967 2.40426 -4.11552 0.496763 2.81736 
-5.06243 0.433567 3.175 -5.99902 0.187222 3.47343 -6.86181 -0.296441 3.69205 
-7.62162 -0.957776 3.80811 -8.32721 -1.68646 3.81294 -9.02754 -2.41147 3.70034 
-9.72979 -3.10293 3.46089 -10.403 -3.75859 3.07988 -10.9801 -4.39052 2.53678 
-11.3537 -5.01017 1.82832 -11.4328 -5.6179 1.02231 -11.2385 -6.22005 0.230657 
-10.8594 -6.84494 -0.472014 -10.3766 -7.53428 -1.03737 -9.8727 -8.33982 -1.38558 
-9.53773 -9.27598 -1.25828 -9.69941 -9.85456 -0.46176 -10.0852 -9.90232 0.473411 
-10.4716 -9.6904 1.3864 -10.8059 -9.33153 2.27415 -11.0714 -8.88392 3.14489 
-11.2665 -8.39084 4.00979 -11.3987 -7.89782 4.88653 -11.4772 -7.47686 5.80517 
-11.4871 -7.3178 6.80467 -11.3522 -7.82089 7.65623 -11.1173 -8.70241 8.09963 
-10.8548 -9.64342 8.37213 -10.5865 -10.5965 8.59331 -10.326 -11.5511 8.81783 
-10.0815 -12.5007 9.07803 -9.84578 -13.4369 9.38991 -9.58601 -14.3484 9.75184 
-9.2504 -15.219 10.1494 -8.78662 -16.021 10.5617 -8.1627 -16.7107 10.9648 
-7.38729 -17.243 11.3426 -6.5058 -17.5933 11.7002 -5.5733 -17.7599 12.0618 
-4.63958 -17.7556 12.4572 -3.74372 -17.6096 12.9095 -2.90553 -17.3658 13.4262 
-2.12149 -17.0732 13.9996 -1.36848 -16.7748 14.6106 -0.616388 -16.5037 15.2353 
0.15906 -16.2857 15.852 0.968596 -16.1441 16.4467 1.80616 -16.1039 17.0174 
2.64558 -16.1979 17.5786 3.42909 -16.4711 18.1606 4.04766 -16.9619 18.794 
4.38436 -17.6323 19.4736 4.44672 -18.3693 20.1666 4.33358 -19.0976 20.8633 
4.14299 -19.7967 21.574 3.97405 -20.4732 22.3125 3.95251 -21.1172 23.059 
4.35422 -21.7334 23.7941 
LINES 1 65
64 0 1 2 3 4 5 6 7 8 9 10 11 12 13 14 15 16 17 18 19 20 21 22 23 24 25 26 27 28 29 30 31 32 33 34 35 36 37 38 39 40 41 42 43 44 45 46 47 48 49 50 51 52 53 54 55 56 57 58 59 60 61 62 63 

POINT_DATA 64
SCALARS MaximumInscribedSphereRadius float
LOOKUP_TABLE default
1.2772 1.29473 1.43818 1.458 1.30099 1.43828 1.27702 1.02195 1.35581 
1.76276 1.97957 1.92507 1.57437 1.1165 1.1258 1.56772 1.82069 2.22312 
2.46857 2.48 2.4605 1.98025 1.8949 2.09158 2.02279 2.00393 2.3503 
2.48 2.33693 1.99295 2.14707 2.17 2.22815 2.40589 2.31784 1.99498 
1.45454 1.58227 1.86637 1.91218 2.13893 2.24852 2.18785 2.02619 2.0923 
2.05954 1.88426 1.88291 2.19322 2.35213 1.98989 2.05163 2.31671 2.53205 
2.18171 1.93543 2.06518 2.44089 2.47744 2.26787 2.03223 2.15692 2.69936 
1.86 
TEXTURE_COORDINATES TCoords 2 float
0 0 0.015873 0 0.031746 0 0.047619 0 0.0634921 
0 0.0793651 0 0.0952381 0 0.111111 0 0.126984 0 
0.142857 0 0.15873 0 0.174603 0 0.190476 0 0.206349 
0 0.222222 0 0.238095 0 0.253968 0 0.269841 0 
0.285714 0 0.301587 0 0.31746 0 0.333333 0 0.349206 
0 0.365079 0 0.380952 0 0.396825 0 0.412698 0 
0.428571 0 0.444444 0 0.460317 0 0.47619 0 0.492063 
0 0.507937 0 0.52381 0 0.539683 0 0.555556 0 
0.571429 0 0.587302 0 0.603175 0 0.619048 0 0.634921 
0 0.650794 0 0.666667 0 0.68254 0 0.698413 0 
0.714286 0 0.730159 0 0.746032 0 0.761905 0 0.777778 
0 0.793651 0 0.809524 0 0.825397 0 0.84127 0 
0.857143 0 0.873016 0 0.888889 0 0.904762 0 0.920635 
0 0.936508 0 0.952381 0 0.968254 0 0.984127 0 
1 0 
FIELD FieldData 4
Curvature 1 64 float
0.244921 0.139748 0.0858636 0.0616682 0.0615708 0.0891599 0.142133 0.189156 0.16535 
0.108087 0.0871822 0.091511 0.103237 0.134782 0.186159 0.218686 0.195422 0.146575 
0.129813 0.18813 0.400317 0.760641 0.448326 0.204546 0.117732 0.0798542 0.0606308 
0.061348 0.102732 0.246494 0.555226 0.453982 0.181284 0.0648676 0.019113 0.030289 
0.0416431 0.0450044 0.0663068 0.102289 0.136386 0.152929 0.147572 0.132564 0.121293 
0.109721 0.0909155 0.0650811 0.0362791 0.0234234 0.0414867 0.0601348 0.0751607 0.0959334 
0.137016 0.199749 0.243759 0.200083 0.124542 0.0607703 0.0489204 0.131617 0.281003 
0.367997 
Torsion 1 64 float
-0.00864687 -0.0157596 -0.0561604 -0.174932 -0.267212 -0.206318 -0.104228 -0.000280456 0.161725 
0.38689 0.272196 -0.00836492 -0.195789 -0.203612 -0.174822 -0.159298 -0.187357 -0.278789 
-0.336681 -0.210394 -0.0824803 0.0368154 0.10953 0.137281 0.168279 0.193567 0.263255 
0.322844 0.185367 0.0598774 -0.0232668 -0.0383283 -0.0119094 0.0401882 0.334072 0.117555 
0.240959 0.470037 0.300159 0.111196 0.0259389 -0.0429514 -0.112116 -0.165766 -0.191512 
-0.179682 -0.17876 -0.220459 -0.515372 -0.862648 -0.210105 0.01237 0.137167 0.209306 
0.196202 0.149063 0.118905 0.109633 0.148362 0.447873 0.604441 0.151821 0.0614841 
0.0233803 
Abscissas 1 64 double
0 1.0454997553 2.0267318374 3.0428064314 4.0578830625 5.0722193516 6.0863882191 7.0997723952 8.1127538323 
9.1267287482 10.141056757 11.15534464 12.169547679 13.183584406 14.197160909 15.209810231 16.222353902 17.235789558 
18.249668819 19.263528711 20.275487583 21.277887481 22.275554433 23.288302999 24.302089607 25.316310718 26.330723535 
27.345240233 28.359744028 29.373286921 30.385412379 31.383636862 32.39796365 33.412193966 34.426722093 35.441379332 
36.455886458 37.470432504 38.484979749 39.499194865 40.513239653 41.526872371 42.540448876 43.554161317 44.568097142 
45.582095627 46.596223806 47.610609993 48.625066469 49.639654203 50.65424111 51.668717783 52.683146565 53.697459011 
54.711562839 55.725096491 56.737375926 57.74962942 58.763191136 59.777397261 60.792363532 61.808029106 62.794164765 
63.834089897 
ParallelTransportNormals 3 64 double
0 -0.98646393991 0.16397833775 -0.01446793764 -0.98397399721 0.17772408837 -0.017845419943 -0.98347961243 0.18013715033 
-0.0082734641083 -0.98461715046 0.17452970178 0.027628596883 -0.98721129385 0.15700484682 0.11199827465 -0.98615654949 0.12227692493 
0.27344524722 -0.95961765798 0.066042768433 0.48973532381 -0.87186246261 0.0038934436165 0.65363733671 -0.75621636377 -0.029917272938 
0.71783682504 -0.69532024691 -0.03521429888 0.72150929644 -0.69152298293 -0.034932781674 0.70771119698 -0.7054577202 -0.038396180456 
0.70820292968 -0.70497611925 -0.038174358812 0.74350886596 -0.66861699513 -0.012078081739 0.81187538206 -0.57860523608 0.077938083016 
0.86265020251 -0.44093793379 0.24780711584 0.84912243898 -0.29871470795 0.43561520506 0.7920523917 -0.17658034905 0.5843563888 
0.71860266523 -0.064583788379 0.69241544163 0.63406523532 0.063499686107 0.77066793577 0.52238735288 0.29567478086 0.79980489965 
0.48096213954 0.66004585615 0.57707442163 0.57566592812 0.76941759701 0.27677662585 0.64954554658 0.75372424064 0.099951748282 
0.69963300449 0.71405802406 -0.025195184055 0.73235925357 0.67005583443 -0.12114083729 0.75090414145 0.63218180199 -0.19102130661 
0.75805574195 0.6106352138 -0.22907668534 0.75673111614 0.61638171182 -0.21778797762 0.75114395668 0.65304918118 -0.096485871011 
0.77319504246 0.59204029963 0.22728332525 0.82019707383 0.41605862024 0.39264740493 0.83706840438 0.35424012685 0.41692975298 
0.84244064759 0.33506995914 0.42192638904 0.84389718048 0.3298154296 0.42315402772 0.84310092281 0.33281787804 0.42238974185 
0.8386920175 0.35013143471 0.41713748118 0.82671961401 0.39477695501 0.40085637777 0.7997149473 0.47560560466 0.36640866786 
0.74481143096 0.59048079172 0.31078669038 0.64719689894 0.72434578349 0.23761178409 0.50520468115 0.848343232 0.15837294865 
0.33827370844 0.9372659693 0.084281676355 0.16934122263 0.98540555949 0.01730415131 0.014645556161 0.99885946153 -0.045445393636 
-0.10921054978 0.98868537097 -0.10283138162 -0.19075967442 0.9703545087 -0.14840105815 -0.22967436269 0.95748719519 -0.17455073238 
-0.23424450315 0.9557299624 -0.17807232159 -0.21353775014 0.96356497634 -0.16107192693 -0.17279069439 0.97661159443 -0.12795768655 
-0.11285440203 0.99020982361 -0.082148579877 -0.031300749885 0.99921102491 -0.024445669268 0.078358923822 0.9956920486 0.049570388369 
0.2231663785 0.96292356504 0.15157498276 0.389381994 0.87232931911 0.29567418176 0.51056941991 0.72501638637 0.46224463972 
0.54669207702 0.59767992627 0.58643540024 0.54449094729 0.53409421091 0.64674027413 0.54190282314 0.52192990014 0.65873402038 
0.54919983265 0.54984859322 0.62932191155 0.5591635315 0.61969410551 0.55074073813 0.51381639505 0.77468143216 0.36859380196 
0.51381639505 0.77468143216 0.36859380196 
