# vtk DataFile Version 4.2
vtk output
ASCII
DATASET POLYDATA
POINTS 64 float
0 0 0 -0.967206 0.172528 -0.365228 -1.91803 0.163664 -0.582439 
-2.9003 -0.0911369 -0.645494 -3.7649 -0.609637 -0.544317 -4.49758 -1.28633 -0.360661 
-5.15717 -2.02948 -0.155633 -5.79684 -2.79191 0.0417357 -6.44331 -3.55646 0.205577 
-7.09104 -4.33265 0.288504 -7.67416 -5.15542 0.18271 -7.96569 -6.00365 -0.274071 
-7.82844 -6.72367 -0.971477 -7.44853 -7.3282 -1.69134 -6.95633 -7.90171 -2.36811 
-6.40866 -8.50795 -2.96941 -5.84878 -9.21216 -3.4358 -5.3728 -10.0864 -3.60982 
-5.26489 -10.9968 -3.21397 -5.6234 -11.512 -2.4223 -6.18043 -11.6077 -1.58289 
-6.76984 -11.3781 -0.791784 -7.28241 -10.8858 -0.0695832 -7.61316 -10.2056 0.6046 
-7.64427 -9.46126 1.29026 -7.27731 -8.91529 2.05485 -6.65105 -8.91333 2.84274 
-6.08297 -9.42465 3.50422 -5.69406 -10.2344 3.97059 -5.49144 -11.2015 4.1916 
-5.44179 -12.2112 4.13182 -5.48263 -13.1783 3.83015 -5.54533 -14.0963 3.40268 
-5.58283 -15.0158 2.97555 -5.56986 -15.9851 2.67912 -5.50103 -16.9948 2.64065 
-5.38032 -17.9643 2.90766 -5.20211 -18.8159 3.4271 -4.94367 -19.5072 4.12178 
-4.57093 -19.9959 4.92729 -4.05579 -20.227 5.76799 -3.40976 -20.1853 6.54703 
-2.67918 -19.9378 7.20494 -1.90119 -19.5838 7.75123 -1.09007 -19.2005 8.22491 
-0.249714 -18.8329 8.65851 0.614221 -18.4943 9.06883 1.48979 -18.1655 9.46217 
2.36083 -17.8147 9.84631 3.21369 -17.4323 10.241 4.0471 -17.0509 10.676 
4.86903 -16.7382 11.1814 5.67787 -16.5838 11.7725 6.44082 -16.6725 12.4331 
7.09885 -17.0309 13.1148 7.6038 -17.6115 13.7744 7.93571 -18.3368 14.4001 
8.09285 -19.136 15.0042 8.08737 -19.9503 15.6087 7.95473 -20.7301 16.2435 
7.76205 -21.4346 16.9476 7.6155 -22.0208 17.7665 7.63321 -22.4251 18.6564 
7.94617 -22.6247 19.6346 
LINES 1 65
64 0 1 2 3 4 5 6 7 8 9 10 11 12 13 14 15 16 17 18 19 20 21 22 23 24 25 26 27 28 29 30 31 32 33 34 35 36 37 38 39 40 41 42 43 44 45 46 47 48 49 50 51 52 53 54 55 56 57 58 59 60 61 62 63 

POINT_DATA 64
SCALARS MaximumInscribedSphereRadius float
LOOKUP_TABLE default
0.62 0.959212 1.13204 0.955603 1.14131 1.10588 1.10402 1.44485 1.55 
1.39087 1.00939 0.913053 0.716874 0.781084 0.965518 0.984137 1.0814 1.23319 
1.24 1.29523 1.49324 1.55 1.55 1.54311 1.34318 1.07275 1.20007 
1.46141 1.26373 1.25427 1.41242 1.35003 1.01441 1.14676 1.10502 0.879394 
0.711367 0.995993 1.24 1.29344 1.51456 1.581 1.581 1.5879 1.78521 
1.76053 1.57279 1.79743 1.87296 1.86 1.84301 1.70571 1.68738 1.83207 
1.45746 1.24 1.34517 1.70752 1.72693 1.63446 1.8077 1.68126 1.56369 
1.581 
TEXTURE_COORDINATES TCoords 2 float
0 0 0.015873 0 0.031746 0 0.047619 0 0.0634921 
0 0.0793651 0 0.0952381 0 0.111111 0 0.126984 0 
0.142857 0 0.15873 0 0.174603 0 0.190476 0 0.206349 
0 0.222222 0 0.238095 0 0.253968 0 0.269841 0 
0.285714 0 0.301587 0 0.31746 0 0.333333 0 0.349206 
0 0.365079 0 0.380952 0 0.396825 0 0.412698 0 
0.428571 0 0.444444 0 0.460317 0 0.47619 0 0.492063 
0 0.507937 0 0.52381 0 0.539683 0 0.555556 0 
0.571429 0 0.587302 0 0.603175 0 0.619048 0 0.634921 
0 0.650794 0 0.666667 0 0.68254 0 0.698413 0 
0.714286 0 0.730159 0 0.746032 0 0.761905 0 0.777778 
0 0.793651 0 0.809524 0 0.825397 0 0.84127 0 
0.857143 0 0.873016 0 0.888889 0 0.904762 0 0.920635 
0 0.936508 0 0.952381 0 0.968254 0 0.984127 0 
1 0 
FIELD FieldData 4
Curvature 1 64 float
0.162764 0.211275 0.258023 0.251293 0.16917 0.0905934 0.040286 0.0293169 0.0696537 
0.173 0.35468 0.399793 0.231608 0.113772 0.0739597 0.138632 0.290383 0.539533 
0.567032 0.356737 0.243617 0.20788 0.198477 0.235244 0.349459 0.463154 0.399041 
0.294512 0.252713 0.236982 0.193706 0.103265 0.0327431 0.111034 0.199485 0.230777 
0.208635 0.180979 0.189079 0.219264 0.230519 0.188741 0.121862 0.0624499 0.0397783 
0.0355114 0.0202083 0.0198352 0.0320383 0.0360534 0.0732501 0.133376 0.189554 0.212565 
0.19969 0.167721 0.139996 0.120177 0.101686 0.0942301 0.126739 0.20578 0.265146 
0.252294 
Torsion 1 64 float
0.014777 0.0287264 0.0550848 0.0803477 0.0864272 0.0894094 0.229322 0.128044 -0.186218 
-0.137526 -0.115569 -0.11094 -0.140941 -0.324798 -0.518538 -0.191306 -0.0773875 -0.0524045 
-0.00952953 0.0636726 0.130609 0.217114 0.339634 0.389859 0.344302 0.268327 0.12284 
-0.00239068 -0.101359 -0.127502 -0.120084 -0.208653 -2.28195 -0.220041 -0.0590628 0.0168328 
0.0947731 0.154687 0.145194 0.107592 0.0913233 0.101075 0.163207 0.382918 0.478586 
0.0728062 -0.632589 -0.973608 -0.494159 -0.829731 -0.362264 -0.129758 -0.0508879 0.00290972 
0.0608352 0.127072 0.179813 0.231046 0.358172 0.532094 0.425415 0.220719 0.10387 
0.0435608 
Abscissas 1 64 double
0 1.0481626063 2.023521778 3.0402586107 4.0534773513 5.0676089984 6.0821862786 7.0967955742 8.1113415632 
9.1256900472 10.139677737 11.146223047 12.15797458 13.171873335 14.186364695 15.200776192 16.214135578 17.224648104 
18.223232375 19.233529989 20.245483503 21.258384711 22.27162787 23.28483633 24.297327975 25.305961192 26.312428164 
27.323229238 28.335378789 29.347891932 30.360577682 31.374459107 32.389045873 33.403603491 34.417299725 35.43007471 
36.442889923 37.456201526 38.469743052 39.48295974 40.495655779 41.508570661 42.522399837 43.536804574 44.551302724 
45.565865848 46.580456591 47.595073299 48.609635316 49.624218694 50.638744975 51.65303295 52.666669986 53.679760915 
54.692760515 55.706241156 56.72000872 57.734085013 58.748252367 59.762477693 60.776973819 61.794669719 62.772266302 
63.818525016 
ParallelTransportNormals 3 64 double
-0.35326434148 0 0.93552354596 -0.22260003519 -0.010708179303 0.97485104464 -0.066680753236 0.010153496175 0.99772269878 
0.074777009281 0.069424679752 0.99478068574 0.13841556181 0.11703874548 0.9834343213 0.15425409827 0.13319060278 0.97901273562 
0.14983965151 0.12807515332 0.98037994366 0.12849240224 0.10273046458 0.98637526034 0.077364927274 0.041863355528 0.99612355031 
-0.034453497967 -0.10339865413 0.99404309504 -0.19575427174 -0.41195650222 0.88992814619 -0.22426211829 -0.6997353083 0.67828976155 
-0.18570988888 -0.79853351744 0.57258716254 -0.17679832462 -0.81057173587 0.55831515601 -0.20660791447 -0.77675229854 0.5949529699 
-0.29009471669 -0.6779676502 0.67542943424 -0.46602513027 -0.40981258623 0.78413915992 -0.67332347463 0.22624467583 0.70388127207 
-0.57741299578 0.77873208515 0.24529690552 -0.36338439184 0.92164975849 -0.13606434673 -0.18068261369 0.90033488171 -0.39591778678 
-0.043878822187 0.81072217633 -0.58378437952 0.028166287052 0.71055445688 -0.7030782489 0.03646010255 0.67789394154 -0.7342550408 
0.067382040557 0.7963905763 -0.60101722986 0.29862501701 0.92378851647 -0.23966200378 0.58899713138 0.80023207512 0.11274309369 
0.76717442865 0.55433634001 0.32272994619 0.85912050231 0.27816703118 0.42957544772 0.89242698682 0.017189504969 0.45086427461 
0.8932564782 -0.16781325357 0.41705104733 0.88920191623 -0.24163873944 0.38849796882 0.89031680831 -0.22119344339 0.39800683592 
0.89161078292 -0.12146942136 0.43620567564 0.88482543904 0.042640064528 0.46396742054 0.86690519866 0.22976663592 0.44236033904 
0.83889492003 0.40042337276 0.36866846312 0.7965667831 0.54999436954 0.25097321278 0.72461905728 0.68449392053 0.07997058574 
0.59975979212 0.78570312111 -0.15152160649 0.42467643552 0.81426623974 -0.39575297337 0.25356547024 0.77832959458 -0.57437583037 
0.13622312803 0.73154444311 -0.66804639595 0.07864098019 0.70482809003 -0.70500564518 0.062994095171 0.69771368788 -0.71360167721 
0.064764090343 0.69844711364 -0.71272522199 0.059684377931 0.69649817118 -0.71507207509 0.041329096916 0.68935616589 -0.72324268562 
0.030104788359 0.68458230498 -0.7283136477 0.055203985956 0.69595104445 -0.71596414971 0.13491160346 0.72937291967 -0.67068174517 
0.27461625128 0.76938416664 -0.57674424024 0.46112402294 0.77717221813 -0.4282148746 0.64986196237 0.71778556236 -0.24992662191 
0.79599291939 0.59980855476 -0.081393918221 0.88745868696 0.45708479685 0.059081024242 0.93308879162 0.31485229631 0.17381984481 
0.9446976403 0.19135250102 0.26632797218 0.93758609258 0.10927275064 0.33013903884 0.9335915056 0.091046516844 0.3465796192 
0.94906146246 0.14990234055 0.27714910927 0.96233300434 0.25422814637 0.096349563312 0.90833360503 0.35709724662 -0.21774209154 
0.90833360503 0.35709724662 -0.21774209154 
