# vtk DataFile Version 4.2
vtk output
ASCII
DATASET POLYDATA
POINTS 64 float
0 0 0 -0.908598 0.35039 0.374358 -1.8152 0.527896 0.688743 
-2.79224 0.535578 1.00203 -3.73091 0.318259 1.30993 -4.59515 -0.0990312 1.63874 
-5.36493 -0.657178 1.99213 -6.06445 -1.29273 2.36096 -6.73165 -1.96488 2.72494 
-7.40134 -2.65466 3.04911 -8.09681 -3.35759 3.27524 -8.81415 -4.07343 3.30707 
-9.48253 -4.77995 3.02423 -9.96585 -5.4207 2.40648 -10.1927 -5.96647 1.5829 
-10.1917 -6.44471 0.688584 -10.0116 -6.89857 -0.200479 -9.68914 -7.36718 -1.04035 
-9.251 -7.88639 -1.79354 -8.72051 -8.49262 -2.40974 -8.1323 -9.21688 -2.80334 
-7.57148 -10.0654 -2.75949 -7.35162 -10.6778 -2.00998 -7.52177 -10.7266 -1.01342 
-7.81752 -10.4502 -0.0840015 -8.11291 -10.0213 0.786805 -8.32661 -9.54114 1.65437 
-8.34832 -9.15298 2.59133 -8.09657 -9.09581 3.56842 -7.69422 -9.40436 4.44598 
-7.2806 -9.93017 5.20815 -6.90791 -10.5852 5.88721 -6.60011 -11.331 6.5021 
-6.37126 -12.145 7.06254 -6.22274 -13.0061 7.57799 -6.14035 -13.8927 8.06439 
-6.09688 -14.787 8.5415 -6.06272 -15.6789 9.02403 -6.01291 -16.5641 9.51729 
-5.92507 -17.4409 10.0202 -5.77536 -18.3061 10.5285 -5.53271 -19.15 11.0365 
-5.16272 -19.9507 11.5373 -4.64371 -20.6747 12.0221 -3.98533 -21.2915 12.4857 
-3.22306 -21.7892 12.9331 -2.39533 -22.171 13.3783 -1.53202 -22.4418 13.8371 
-0.655399 -22.6014 14.322 0.216196 -22.6466 14.8391 1.06831 -22.579 15.3854 
1.89575 -22.4139 15.9487 2.70671 -22.1822 16.5127 3.51741 -21.9211 17.064 
4.34164 -21.6663 17.598 5.18377 -21.4519 18.1216 6.03857 -21.3155 18.6507 
6.88864 -21.307 19.204 7.68921 -21.4944 19.7973 8.34181 -21.9427 20.4295 
8.7162 -22.6359 21.0628 8.74429 -23.4699 21.6567 8.51442 -24.2726 22.1627 
8.04448 -25.0725 22.6397 
LINES 1 65
64 0 1 2 3 4 5 6 7 8 9 10 11 12 13 14 15 16 17 18 19 20 21 22 23 24 25 26 27 28 29 30 31 32 33 34 35 36 37 38 39 40 41 42 43 44 45 46 47 48 49 50 51 52 53 54 55 56 57 58 59 60 61 62 63 

POINT_DATA 64
SCALARS MaximumInscribedSphereRadius float
LOOKUP_TABLE default
1.581 1.25057 1.0182 1.13571 1.15058 1.00426 1.12753 1.29499 1.46077 
1.42187 1.0627 1.14631 1.55535 1.3395 1.15125 1.03255 1.09553 1.23001 
1.55084 1.79269 1.66206 1.69724 1.84759 1.90444 2.06413 1.91961 1.67613 
1.7903 1.85861 1.70743 1.37273 1.30506 1.35585 1.30612 1.28581 1.47475 
1.65494 1.77632 1.60592 1.29948 1.41162 1.63376 1.98149 2.05517 1.85598 
1.78376 1.77138 2.00302 2.16313 2.17 2.17 2.17 2.17 2.17 
2.17 1.91909 1.39746 1.75022 2.35397 1.82543 1.55 1.55 1.55 
1.55 
TEXTURE_COORDINATES TCoords 2 float
0 0 0.015873 0 0.031746 0 0.047619 0 0.0634921 
0 0.0793651 0 0.0952381 0 0.111111 0 0.126984 0 
0.142857 0 0.15873 0 0.174603 0 0.190476 0 0.206349 
0 0.222222 0 0.238095 0 0.253968 0 0.269841 0 
0.285714 0 0.301587 0 0.31746 0 0.333333 0 0.349206 
0 0.365079 0 0.380952 0 0.396825 0 0.412698 0 
0.428571 0 0.444444 0 0.460317 0 0.47619 0 0.492063 
0 0.507937 0 0.52381 0 0.539683 0 0.555556 0 
0.571429 0 0.587302 0 0.603175 0 0.619048 0 0.634921 
0 0.650794 0 0.666667 0 0.68254 0 0.698413 0 
0.714286 0 0.730159 0 0.746032 0 0.761905 0 0.777778 
0 0.793651 0 0.809524 0 0.825397 0 0.84127 0 
0.857143 0 0.873016 0 0.888889 0 0.904762 0 0.920635 
0 0.936508 0 0.952381 0 0.968254 0 0.984127 0 
1 0 
FIELD FieldData 4
Curvature 1 64 float
0.137728 0.156374 0.175183 0.188232 0.182503 0.149318 0.09832 0.049783 0.0409144 
0.0950447 0.178817 0.279132 0.333228 0.297453 0.223139 0.162779 0.130101 0.127614 
0.162021 0.242004 0.420232 0.737958 0.642999 0.317378 0.147911 0.106995 0.221742 
0.381096 0.362132 0.228772 0.146027 0.110706 0.0987378 0.0872984 0.0653337 0.0346196 
0.0132666 0.017744 0.0335317 0.0527515 0.0798297 0.113246 0.140672 0.148401 0.134274 
0.112115 0.0975476 0.0965348 0.100777 0.100079 0.0858139 0.0576816 0.0299239 0.0263487 
0.0405961 0.0673133 0.112383 0.177672 0.257248 0.314941 0.314688 0.269505 0.21768 
0.175986 
Torsion 1 64 float
0.0712581 0.1004 0.13198 0.145689 0.124781 0.0777743 -0.012414 -0.465822 -0.845427 
-0.0561121 0.0706393 0.108957 0.133891 0.147249 0.179909 0.233072 0.284825 0.275367 
0.194916 0.109273 0.0417159 -0.0288074 -0.0798968 -0.127522 -0.433246 -0.796524 -0.386822 
-0.214477 -0.164477 -0.154741 -0.164929 -0.158372 -0.121958 -0.102079 -0.132181 -0.375274 
-1.08531 -0.735247 -0.205104 -0.0881169 -0.0143335 0.0195581 0.0424184 0.0711453 0.113834 
0.162611 0.179582 0.128424 0.0660946 0.00815935 -0.0637516 -0.205756 -0.64321 -0.743995 
-0.427433 -0.245136 -0.123907 -0.0822073 -0.0871592 -0.101561 -0.0993611 -0.0800264 -0.0555167 
-0.0368716 
Abscissas 1 64 double
0 1.0432964057 2.0191413883 3.045209028 4.0567087064 5.0711828426 6.0855663425 7.1001054462 8.1147103359 
9.129287797 10.143646862 11.157558192 12.170425722 13.183230688 14.196941579 15.211099185 16.225425759 17.239801592 
18.254119688 19.268337662 20.280988935 21.299040605 22.291581479 23.303739637 24.317486953 25.332136767 26.346479267 
27.360892183 28.371511348 29.385020256 30.399150806 31.413589111 32.428009254 33.442435963 34.456950033 35.471560147 
36.486101968 37.500738598 38.515315732 39.529915746 40.544486011 41.55893589 42.573241365 43.587429417 44.601742538 
45.616103297 46.630554318 47.645016882 48.659444986 49.673897407 50.688348844 51.702854672 52.717466216 53.732029547 
54.746640255 55.761187884 56.775700023 57.790014132 58.803935303 59.817116747 60.827939575 61.852177088 62.828498995 
63.87167266 
ParallelTransportNormals 3 64 double
0.38094940047 0 0.92459588701 0.33015050522 0.014612233217 0.94381519724 0.30541367325 0.017102491678 0.95206617048 
0.30799416203 0.017387083362 0.95122935483 0.34289389108 0.02966506765 0.93890561998 0.38390874533 0.054149324267 0.92178192971 
0.41040154801 0.075672605562 0.9087597186 0.41444484696 0.079541300222 0.90659177714 0.3894158942 0.054043554385 0.91947515223 
0.32231963134 -0.014406669365 0.94652126396 0.19002374461 -0.14726048614 0.9706726151 -0.015885880788 -0.35861786081 0.93334927476 
-0.21351108991 -0.58980257313 0.77881059264 -0.30999143293 -0.75097710553 0.58304262149 -0.32812151411 -0.83316225063 0.44517068199 
-0.32131344166 -0.86820539441 0.37812308223 -0.31779294258 -0.87466746537 0.36601157178 -0.33237379246 -0.85573079393 0.39655071607 
-0.37895221281 -0.80161192932 0.46239975689 -0.47628679652 -0.68584687442 0.55024081301 -0.67468314163 -0.41435833836 0.61082716526 
-0.93733075763 0.07887073852 0.3393971971 -0.95234135432 0.26584028148 -0.149582384 -0.90177406111 0.24115976091 -0.35867187293 
-0.88515811446 0.22133690868 -0.40927385118 -0.89994290939 0.24773838623 -0.35878747444 -0.92547366082 0.34190750715 -0.16308819602 
-0.88148201822 0.42676260702 0.20214630545 -0.77884158048 0.38738540504 0.49329336147 -0.71848369567 0.32567185121 0.61458850005 
-0.69397232474 0.28886282804 0.65951548812 -0.68616799062 0.27279710646 0.6743554162 -0.68586697267 0.27192218276 0.67501468304 
-0.68805789544 0.28164732372 0.66876835867 -0.69017975652 0.297706907 0.65956235582 -0.69130772114 0.31366757732 0.65092725065 
-0.69171179707 0.32296496058 0.64593221319 -0.69164122614 0.32147144112 0.64675229171 -0.69047995371 0.30660642463 0.65515641941 
-0.68636455875 0.27642751946 0.67267489843 -0.67526410558 0.22807523177 0.70142717111 -0.6509861083 0.16290329859 0.74140380503 
-0.60904972312 0.090980226439 0.78789658786 -0.5560956706 0.030675976801 0.83055197886 -0.50915705595 -0.0061475197033 0.86065167192 
-0.48127536781 -0.021570233734 0.87630402564 -0.47501029353 -0.023988028671 0.87965322459 -0.48685659705 -0.021057661741 0.87322805085 
-0.51085496456 -0.018246260918 0.8594732568 -0.53857725763 -0.018606517876 0.84237066369 -0.55967832484 -0.021530013318 0.8284302211 
-0.56634588162 -0.02314480123 0.8238426188 -0.55768281631 -0.020512213277 0.82980065407 -0.54039164636 -0.015056008117 0.84127889856 
-0.52596454781 -0.010993755285 0.85043543658 -0.52503312226 -0.010801206167 0.85101325165 -0.5453809257 -0.012530469916 0.83809464454 
-0.59645392324 -0.0069938667432 0.80261684712 -0.6842327067 0.031412797247 0.72858687832 -0.7794941847 0.13735595424 0.61116459146 
-0.82503544481 0.30908212865 0.47305893138 -0.80540359566 0.4635200635 0.3694241449 -0.74411775403 0.60548802089 0.28226410451 
-0.74411775403 0.60548802089 0.28226410451 
