# vtk DataFile Version 4.2
vtk output
ASCII
DATASET POLYDATA
POINTS 64 float
0 0 0 -0.97211 0.286541 0.264641 -1.88404 0.475224 0.563668 
-2.84687 0.59077 0.871846 -3.8245 0.603142 1.14408 -4.81178 0.487702 1.34388 
-5.78098 0.205566 1.43547 -6.66095 -0.295169 1.40919 -7.36 -1.02411 1.33278 
-7.86914 -1.90051 1.31181 -8.27497 -2.8279 1.37833 -8.67619 -3.75614 1.46043 
-9.12315 -4.66168 1.37736 -9.51178 -5.45546 0.891637 -9.64567 -6.05413 0.0865095 
-9.53677 -6.55731 -0.786849 -9.26306 -7.06506 -1.62095 -8.87711 -7.62821 -2.37094 
-8.41411 -8.27454 -3.00042 -7.89654 -9.01547 -3.45393 -7.32873 -9.84444 -3.57841 
-6.87402 -10.2945 -2.85113 -6.76629 -9.97696 -1.88539 -6.74512 -9.45206 -1.01906 
-6.74217 -8.89083 -0.174042 -6.74811 -8.41561 0.721822 -6.77062 -8.09432 1.6834 
-6.8064 -7.93734 2.6844 -6.84373 -8.04408 3.69019 -6.85519 -8.56769 4.55209 
-6.81422 -9.40952 5.11325 -6.72578 -10.3594 5.45733 -6.60016 -11.3347 5.70688 
-6.44068 -12.3086 5.94253 -6.24343 -13.2639 6.22089 -6.0016 -14.1859 6.56811 
-5.71333 -15.0713 6.97089 -5.37981 -15.9301 7.39588 -4.99397 -16.7682 7.81764 
-4.5349 -17.5728 8.23099 -3.97025 -18.3067 8.64453 -3.27087 -18.903 9.07186 
-2.44977 -19.298 9.51556 -1.56359 -19.4988 9.96576 -0.658377 -19.5707 10.418 
0.246579 -19.5754 10.8766 1.14316 -19.547 11.3507 2.02458 -19.4909 11.8499 
2.88375 -19.3914 12.3802 3.7167 -19.2348 12.9378 4.52687 -19.0309 13.5135 
5.32377 -18.8165 14.1038 6.11412 -18.6382 14.7143 6.89566 -18.5341 15.3526 
7.65766 -18.5331 16.0221 8.38053 -18.6626 16.7214 9.02869 -18.9576 17.4429 
9.53743 -19.4584 18.1615 9.8346 -20.1629 18.8257 9.92443 -20.9927 19.4008 
9.89217 -21.8659 19.9168 9.86598 -22.7207 20.4648 10.0301 -23.4096 21.151 
10.5961 -23.6179 21.9951 
LINES 1 65
64 0 1 2 3 4 5 6 7 8 9 10 11 12 13 14 15 16 17 18 19 20 21 22 23 24 25 26 27 28 29 30 31 32 33 34 35 36 37 38 39 40 41 42 43 44 45 46 47 48 49 50 51 52 53 54 55 56 57 58 59 60 61 62 63 

POINT_DATA 64
SCALARS MaximumInscribedSphereRadius float
LOOKUP_TABLE default
0.93 1.18037 1.26147 1.21265 1.01123 1.06047 1.22949 1.25597 1.487 
1.73144 1.72582 1.33228 1.24 1.46139 1.71542 1.69892 1.38698 1.53601 
1.86225 1.87639 1.74474 1.88444 2.35746 2.28921 1.90556 1.7671 2.17 
2.17 2.1987 2.39909 2.25224 2.17 2.17 2.16066 2.01654 1.93713 
2.09306 1.97844 1.86 1.92201 2.21371 2.12302 1.85489 1.85218 1.86 
1.8658 1.91641 2.2156 2.48 2.48 2.48 2.35041 2.19198 2.17021 
2.18275 2.23493 2.34581 2.44061 2.48 2.42643 2.2248 2.33646 2.5754 
2.79 
TEXTURE_COORDINATES TCoords 2 float
0 0 0.015873 0 0.031746 0 0.047619 0 0.0634921 
0 0.0793651 0 0.0952381 0 0.111111 0 0.126984 0 
0.142857 0 0.15873 0 0.174603 0 0.190476 0 0.206349 
0 0.222222 0 0.238095 0 0.253968 0 0.269841 0 
0.285714 0 0.301587 0 0.31746 0 0.333333 0 0.349206 
0 0.365079 0 0.380952 0 0.396825 0 0.412698 0 
0.428571 0 0.444444 0 0.460317 0 0.47619 0 0.492063 
0 0.507937 0 0.52381 0 0.539683 0 0.555556 0 
0.571429 0 0.587302 0 0.603175 0 0.619048 0 0.634921 
0 0.650794 0 0.666667 0 0.68254 0 0.698413 0 
0.714286 0 0.730159 0 0.746032 0 0.761905 0 0.777778 
0 0.793651 0 0.809524 0 0.825397 0 0.84127 0 
0.857143 0 0.873016 0 0.888889 0 0.904762 0 0.920635 
0 0.936508 0 0.952381 0 0.968254 0 0.984127 0 
1 0 
FIELD FieldData 4
Curvature 1 64 float
0.164374 0.0907515 0.0672235 0.0774302 0.106622 0.147665 0.194765 0.215194 0.182085 
0.110209 0.0209804 0.146517 0.322296 0.350556 0.225127 0.13962 0.112367 0.117641 
0.157038 0.299394 0.7967 0.707036 0.199737 0.0542772 0.104435 0.125899 0.121699 
0.184551 0.320468 0.329169 0.19324 0.0842923 0.031122 0.0498797 0.0665158 0.0583061 
0.0434272 0.0414086 0.0565233 0.0912772 0.139304 0.168687 0.147866 0.0959814 0.0494824 
0.0262775 0.0328695 0.0466155 0.0523527 0.039941 0.0175572 0.0316989 0.0574753 0.0775451 
0.0983638 0.12965 0.177539 0.213613 0.188475 0.105432 0.0496942 0.229253 0.469036 
0.393624 
Torsion 1 64 float
-0.1301 -0.213463 -0.253334 -0.162128 -0.063963 0.0233333 0.141769 0.258494 0.295276 
0.306929 2.17862 0.203003 0.222406 0.26134 0.280609 0.292224 0.257241 0.157887 
0.0401925 -0.0369357 -0.109619 -0.112628 -0.0720895 0.0942252 0.0103435 -0.0228407 0.0354145 
0.0393347 0.0394387 0.0475036 0.0646224 0.226055 0.992415 0.220761 -0.0134667 -0.152929 
-0.32424 -0.147728 0.0951997 0.118654 0.0881888 0.0561096 0.0397374 0.0534479 0.17627 
0.357009 0.0392349 -0.0974876 -0.0822845 0.0545668 1.24056 0.297345 0.0256738 -0.00679018 
-0.0145363 -0.0191438 -0.0200676 -0.0179798 -0.0166059 -0.15137 -0.669825 -0.0584909 -0.0143104 
-0.00329256 
Abscissas 1 64 double
0 1.04744374 2.025520837 3.0430502343 4.0579517652 5.0718393462 6.0854163498 7.0982211213 8.1110706942 
9.1248459376 10.139328561 11.153896338 12.167146813 13.175634023 14.187840859 15.201647783 16.215773915 17.229963391 
18.24404225 19.255242798 20.267713194 21.236346845 22.258643854 23.27180542 24.286222953 25.300343963 26.314427909 
27.328293867 28.340420579 29.348969362 30.361519021 31.375661181 32.390188293 33.40480527 34.419196047 35.433655253 
36.448181844 37.462771004 38.477248387 39.491637117 40.505764579 41.519331083 42.532790559 43.546849526 44.561295786 
45.575830875 46.590441561 47.604960687 48.6195008 49.634018882 50.648603004 51.663231382 52.677703774 53.692133917 
54.706469092 55.720535431 56.734290445 57.747209642 58.760023708 59.773619652 60.788396874 61.804109464 62.790206726 
63.827632354 
ParallelTransportNormals 3 64 double
0.26267400804 0 0.96488463844 0.3093726481 -0.011708851841 0.9508687961 0.3036498453 -0.010775262107 0.95272276407 
0.2681481727 -0.0084374023684 0.96334073293 0.19968999538 -0.012030545337 0.97978526817 0.10316136559 -0.03164740167 0.99416104059 
0.010537440875 -0.070865876364 0.997430193 -0.014565365164 -0.090414781269 0.99579767898 0.024698047585 -0.038250802781 0.99896290348 
0.065774433199 0.042724016984 0.99691944625 0.071968595152 0.056966092156 0.99577878349 0.0027431987299 -0.092694035598 0.99569086097 
-0.17338604262 -0.45088766686 0.87557843287 -0.28424789403 -0.74613171715 0.6020719188 -0.28651122458 -0.84517223454 0.45121526144 
-0.28170714767 -0.85786638142 0.42977477191 -0.29849283821 -0.83061620313 0.47008376767 -0.34118355803 -0.76979573519 0.53945185681 
-0.4133482551 -0.66769898592 0.61912945674 -0.54521476782 -0.47696761164 0.68937852765 -0.86615448691 -0.077169626644 0.49378259743 
-0.99120470262 -0.043662908744 0.12492713041 -0.99527250188 -0.070358289961 0.066950414712 -0.99543861291 -0.077834558631 0.055170185943 
-0.99541186826 -0.087101861254 0.039604018634 -0.9949591405 -0.099776617058 0.010046661918 -0.99410282112 -0.10680230152 -0.01878428681 
-0.99302863739 -0.10753712988 -0.048268944644 -0.99237342714 -0.099054156767 -0.073370669389 -0.99239691453 -0.097964053723 -0.074507772863 
-0.99109666651 -0.11597063959 -0.065408014658 -0.98820622374 -0.14196706584 -0.057391737833 -0.98365412022 -0.173089516 -0.049644649601 
-0.97628277101 -0.2129533504 -0.039023346661 -0.96489011004 -0.2616631732 -0.022791650756 -0.95053544565 -0.31060618931 -0.002482282511 
-0.9350205871 -0.35412748048 0.018172211242 -0.91532679152 -0.40058302211 0.041353441376 -0.88210385197 -0.46517577607 0.074190913894 
-0.81915073725 -0.55978318258 0.12503942645 -0.70391090361 -0.68104859246 0.2016984246 -0.53924042139 -0.78840647529 0.2960320889 
-0.38296403689 -0.84294911604 0.37785623484 -0.28228517399 -0.85827662643 0.42857474619 -0.23397371287 -0.86032105292 0.45288407743 
-0.21690815201 -0.86009657109 0.46171933249 -0.20917577713 -0.859729085 0.46595213775 -0.19380269492 -0.85835479956 0.47504479107 
-0.16832380116 -0.85449859925 0.49142572363 -0.14620640823 -0.84964606818 0.50668061441 -0.14653262867 -0.8497309793 0.50644392735 
-0.17882856225 -0.85772119532 0.48201109575 -0.23896280935 -0.86852464191 0.4342369424 -0.32002993086 -0.87404430416 0.36555081413 
-0.41974384022 -0.86541391802 0.27363088111 -0.54122068897 -0.82779959261 0.14774302116 -0.68161770768 -0.73120901999 -0.027030901932 
-0.79991805176 -0.55427768707 -0.23001599093 -0.84892025373 -0.3600499163 -0.38690885306 -0.85292028448 -0.24187024712 -0.4626291948 
-0.85361299116 -0.26234843529 -0.45002017713 -0.83408902861 -0.47614729524 -0.27853051104 -0.60190305271 -0.76943888347 0.21372065818 
-0.60190305271 -0.76943888347 0.21372065818 
