# vtk DataFile Version 4.2
vtk output
ASCII
DATASET POLYDATA
POINTS 64 float
0 0 0 -0.782413 0.369057 0.562604 -1.50927 0.764944 1.12205 
-2.2632 1.13915 1.68495 -3.06456 1.43703 2.23047 -3.93336 1.58735 2.73004 
-4.85973 1.49303 3.12565 -5.76461 1.10431 3.35716 -6.57617 0.504174 3.44852 
-7.30932 -0.196716 3.45761 -7.9979 -0.931199 3.34139 -8.53055 -1.65151 2.8819 
-8.69711 -2.3077 2.13154 -8.54496 -2.90979 1.33172 -8.16353 -3.46282 0.572919 
-7.62146 -3.97423 -0.114649 -6.97463 -4.46534 -0.722217 -6.26751 -4.97247 -1.24328 
-5.53148 -5.54744 -1.63654 -4.81862 -6.25461 -1.719 -4.4739 -6.92613 -1.08868 
-4.69823 -7.22806 -0.151975 -5.21737 -7.29668 0.714406 -5.89254 -7.18463 1.46125 
-6.62071 -6.87483 2.09395 -7.30023 -6.36566 2.64712 -7.86114 -5.70832 3.17724 
-8.27632 -4.98436 3.75286 -8.51688 -4.31192 4.46984 -8.4827 -3.9689 5.41102 
-8.15496 -4.16906 6.34267 -7.6875 -4.63021 7.11459 -7.13178 -5.16818 7.77037 
-6.47778 -5.74479 8.2857 -5.73465 -6.40371 8.35346 -5.29594 -7.00422 7.67486 
-5.13657 -7.53919 6.82841 -5.09052 -8.12589 6.00246 -5.10869 -8.82868 5.27248 
-5.17163 -9.69434 4.75298 -5.25437 -10.6919 4.64044 -5.29772 -11.6265 5.01838 
-5.23858 -12.3732 5.69941 -5.04003 -12.974 6.49129 -4.67515 -13.5025 7.27552 
-4.13276 -14.0051 7.96849 -3.43711 -14.469 8.54168 -2.62737 -14.8302 9.03317 
-1.74554 -15.0229 9.49423 -0.844276 -15.0306 9.95842 0.0372334 -14.8963 10.4418 
0.889083 -14.6821 10.9494 1.72172 -14.44 11.4762 2.55372 -14.2123 12.0103 
3.40332 -14.0492 12.5399 4.27492 -14.029 13.0569 5.1269 -14.2564 13.5537 
5.84719 -14.7906 14.021 6.33518 -15.5573 14.4667 6.59327 -16.4244 14.9234 
6.6715 -17.3055 15.4188 6.60305 -18.1584 15.9598 6.39018 -18.9473 16.5347 
5.96182 -19.6548 17.1486 
LINES 1 65
64 0 1 2 3 4 5 6 7 8 9 10 11 12 13 14 15 16 17 18 19 20 21 22 23 24 25 26 27 28 29 30 31 32 33 34 35 36 37 38 39 40 41 42 43 44 45 46 47 48 49 50 51 52 53 54 55 56 57 58 59 60 61 62 63 

POINT_DATA 64
SCALARS MaximumInscribedSphereRadius float
LOOKUP_TABLE default
1.24 1.26862 1.67664 1.42256 1.12123 1.45173 1.26708 1.31227 1.5188 
1.55716 1.53645 1.431 1.86 1.7876 1.58253 1.55 1.55 1.72372 
2.14021 2.29711 1.75883 1.75539 1.51483 1.61892 2.18972 2.25505 2.24183 
2.47539 2.39932 1.99924 1.69648 1.88443 2.38779 2.32497 2.72279 2.2919 
2.42865 2.27331 2.19201 2.3279 2.48 2.27995 1.8915 1.8219 1.60832 
1.76673 1.86 1.62233 1.38323 1.7488 2.47269 1.80857 1.72908 1.73988 
1.63716 1.79825 1.65545 2.13695 2.06574 2.57921 2.87533 2.6534 3.00624 
2.79 
TEXTURE_COORDINATES TCoords 2 float
0 0 0.015873 0 0.031746 0 0.047619 0 0.0634921 
0 0.0793651 0 0.0952381 0 0.111111 0 0.126984 0 
0.142857 0 0.15873 0 0.174603 0 0.190476 0 0.206349 
0 0.222222 0 0.238095 0 0.253968 0 0.269841 0 
0.285714 0 0.301587 0 0.31746 0 0.333333 0 0.349206 
0 0.365079 0 0.380952 0 0.396825 0 0.412698 0 
0.428571 0 0.444444 0 0.460317 0 0.47619 0 0.492063 
0 0.507937 0 0.52381 0 0.539683 0 0.555556 0 
0.571429 0 0.587302 0 0.603175 0 0.619048 0 0.634921 
0 0.650794 0 0.666667 0 0.68254 0 0.698413 0 
0.714286 0 0.730159 0 0.746032 0 0.761905 0 0.777778 
0 0.793651 0 0.809524 0 0.825397 0 0.84127 0 
0.857143 0 0.873016 0 0.888889 0 0.904762 0 0.920635 
0 0.936508 0 0.952381 0 0.968254 0 0.984127 0 
1 0 
FIELD FieldData 4
Curvature 1 64 float
0.210293 0.0803709 0.0353606 0.0531956 0.104297 0.168221 0.207699 0.159245 0.0903058 
0.10427 0.248438 0.303471 0.214349 0.15219 0.112602 0.080296 0.0619336 0.101636 
0.233706 0.548409 0.471003 0.236695 0.158512 0.139589 0.13215 0.114596 0.099596 
0.148903 0.304148 0.396551 0.218545 0.0980079 0.115497 0.317421 0.582053 0.235381 
0.0972539 0.0959044 0.162704 0.260802 0.301017 0.22084 0.136155 0.107576 0.120016 
0.116818 0.10269 0.110363 0.110799 0.0855493 0.0522656 0.0233676 0.0123336 0.0385594 
0.0856173 0.148801 0.200608 0.198295 0.149862 0.107882 0.0906754 0.101213 0.139004 
0.210216 
Torsion 1 64 float
-0.00401168 -0.0106821 -0.0261424 -0.00255422 -0.00232842 -0.00152814 0.016295 0.0430665 -0.0843902 
-0.20991 0.110075 0.201794 0.102638 0.0482813 0.0670899 0.154133 0.309417 0.132632 
0.00122262 -0.00399029 0.0839557 0.0366034 -0.115803 -0.22934 -0.251507 -0.275697 -0.38415 
-0.283028 -0.105899 0.00672971 0.100711 0.184314 -0.00632572 -0.0974103 -0.142317 -0.173318 
-0.340608 -0.223158 -0.0704213 -0.043547 -0.0731835 -0.157567 -0.312192 -0.359736 -0.164571 
0.123789 0.316574 0.233117 0.138117 0.127483 0.153367 0.30731 0.960724 0.0381361 
-0.0544923 -0.081434 -0.1039 -0.136594 -0.175986 -0.152786 -0.0768995 0.012786 0.041561 
0.0357795 
Abscissas 1 64 double
0 1.0319382021 2.0309514251 3.0435209631 4.0576719111 5.0710722062 6.082785699 7.0944714347 8.1079504798 
9.1222671636 10.135733916 11.142558047 12.1531854 13.165793083 14.179257302 15.193224885 16.207481844 17.221733191 
18.235135639 19.242636465 20.226035751 21.235442469 22.247782034 23.260790194 24.273961926 25.287371161 26.301147661 
27.314967938 28.326948583 29.329271104 30.336966545 31.350395571 32.364438738 33.377237042 34.372731188 35.379497018 
36.393434307 37.40759953 38.421066393 39.432603945 40.439896464 41.448952908 42.461306803 43.474942066 44.488581852 
45.501992927 46.515737931 47.529496339 48.543071298 49.556879972 50.571153934 51.585642487 52.600243618 53.614804287 
54.629150525 55.642749876 56.654872209 57.666087015 58.678317685 59.691752092 60.705595403 61.717921145 62.717014846 
63.747025254 
ParallelTransportNormals 3 64 double
0.58380343717 0 0.81189503432 0.60603000081 -0.0112782357 0.7953618293 0.59627530338 -0.0062036534856 0.80275605091 
0.56461261923 0.0074802493237 0.82532214079 0.50150127235 0.024414335472 0.86481235771 0.39018576505 0.027874074429 0.92031413372 
0.25137578583 -0.0087409976708 0.96785009648 0.15742401446 -0.062854568441 0.98552878339 0.11029306777 -0.10254832001 0.98859459905 
0.030008913546 -0.1836047437 0.98254199055 -0.17842492223 -0.43199851388 0.88404854569 -0.30558608404 -0.68210959957 0.66433699236 
-0.30681944905 -0.7875291756 0.53447134933 -0.28388370969 -0.83719151752 0.46746165871 -0.26253482015 -0.86179986923 0.43402356342 
-0.25657041422 -0.86682933076 0.42752606222 -0.27993162974 -0.84960558408 0.4469995908 -0.35524964014 -0.79312977367 0.49471492327 
-0.550610424 -0.62019249442 0.55873914383 -0.92247025008 -0.13352695034 0.36224189604 -0.96578754763 0.19801095993 -0.16746961692 
-0.83675407431 0.26241783236 -0.48060326713 -0.69729690486 0.25735336283 -0.66898899327 -0.58352113552 0.22315305055 -0.7808366029 
-0.52927995598 0.1915974984 -0.82653077789 -0.53862059302 0.20038114973 -0.81837354039 -0.58756498605 0.26964379 -0.7629283149 
-0.66024667313 0.42445181396 -0.61960873803 -0.70984500738 0.669678404 -0.21829086264 -0.59761343011 0.71452679207 0.36374393681 
-0.46667822934 0.60570523213 0.64446303387 -0.38523692377 0.52617876966 0.75810844536 -0.28745631343 0.43609081687 0.85275651115 
0.039875358704 0.14661317286 0.98838986909 0.55980760089 -0.40679577575 0.72189517716 0.65122957861 -0.58011244924 0.48925410798 
0.65461442317 -0.59859371905 0.46169851255 0.65363519997 -0.55326618018 0.51638896117 0.66047338269 -0.4210904852 0.62165723195 
0.68264291392 -0.13758593571 0.71768291213 0.70707237471 0.23667107487 0.66635985716 0.70455285501 0.50786712136 0.4956574034 
0.67567226503 0.6589501438 0.3305324466 0.63213969791 0.74620375839 0.20875668443 0.58196364523 0.80322675651 0.12706334346 
0.51806144646 0.85311461271 0.061707335598 0.41352632358 0.91041009257 -0.01222469044 0.26111484265 0.96031523266 -0.098049440895 
0.10151225098 0.97825467133 -0.18086752311 -0.014723892724 0.97000258978 -0.24264826971 -0.075531416688 0.95777729388 -0.27741243739 
-0.094232556661 0.95271147164 -0.28889630851 -0.081481059055 0.95631024423 -0.28076957419 -0.030808376173 0.96808622621 -0.24871651045 
0.083560781607 0.98026247008 -0.17917333932 0.28904225467 0.95553880287 -0.058310987207 0.5493831935 0.82940345355 0.10133122883 
0.7449198326 0.61891728554 0.2490699433 0.83007159685 0.43248893919 0.35204326663 0.85345888848 0.31093462027 0.41824345493 
0.85392058853 0.22814944678 0.4677258368 0.84079189664 0.15180712914 0.51963793365 0.79483655178 0.043922558693 0.60523190993 
0.79483655178 0.043922558693 0.60523190993 
