# vtk DataFile Version 4.2
vtk output
ASCII
DATASET POLYDATA
POINTS 64 float
0 0 0 -0.419799 -0.206257 0.936081 -1.01152 -0.323117 1.70097 
-1.76095 -0.408881 2.39315 -2.60202 -0.480617 2.95335 -3.50594 -0.57529 3.4039 
-4.44752 -0.726539 3.7497 -5.40247 -0.968855 3.99075 -6.34025 -1.33174 4.12258 
-7.22346 -1.82966 4.14236 -8.01823 -2.45401 4.05882 -8.70894 -3.17823 3.89385 
-9.29898 -3.97342 3.67351 -9.80549 -4.81389 3.41607 -10.2585 -5.67122 3.11765 
-10.6983 -6.50234 2.73657 -11.146 -7.22818 2.18894 -11.5486 -7.78811 1.44605 
-11.8341 -8.2273 0.577706 -11.9682 -8.61731 -0.348866 -11.9392 -8.99943 -1.28789 
-11.753 -9.39543 -2.2029 -11.4294 -9.81988 -3.06545 -10.9954 -10.2875 -3.85403 
-10.4772 -10.8163 -4.54716 -9.89849 -11.4377 -5.1019 -9.29762 -12.2062 -5.39001 
-8.98291 -12.971 -4.92431 -9.24353 -13.1232 -3.9396 -9.65147 -12.9487 -3.02981 
-10.0896 -12.6551 -2.16313 -10.5273 -12.3133 -1.31394 -10.948 -11.9799 -0.453005 
-11.3335 -11.7237 0.449506 -11.6501 -11.648 1.40947 -11.8372 -11.8727 2.3785 
-11.8541 -12.4088 3.2377 -11.7273 -13.1376 3.93112 -11.5034 -13.9552 4.48813 
-11.2157 -14.8096 4.95324 -10.8844 -15.6781 5.35982 -10.5211 -16.5506 5.72875 
-10.1318 -17.4223 6.07229 -9.71633 -18.2893 6.39648 -9.26586 -19.1457 6.70145 
-8.76106 -19.9794 6.98329 -8.17442 -20.7671 7.23709 -7.48011 -21.4722 7.45951 
-6.67109 -22.0527 7.65162 -5.76831 -22.4823 7.82185 -4.80776 -22.7637 7.98601 
-3.82039 -22.9157 8.16212 -2.82781 -22.9591 8.36705 -1.84518 -22.9149 8.61538 
-0.882937 -22.8079 8.91851 0.0526325 -22.6688 9.2854 0.957861 -22.5337 9.72307 
1.82846 -22.4413 10.2355 2.65561 -22.4266 10.8226 3.42466 -22.5101 11.4787 
4.11957 -22.6887 12.1936 4.73656 -22.9494 12.9698 5.24679 -23.2472 13.7422 
5.70401 -23.609 14.6122 
LINES 1 65
64 0 1 2 3 4 5 6 7 8 9 10 11 12 13 14 15 16 17 18 19 20 21 22 23 24 25 26 27 28 29 30 31 32 33 34 35 36 37 38 39 40 41 42 43 44 45 46 47 48 49 50 51 52 53 54 55 56 57 58 59 60 61 62 63 

POINT_DATA 64
SCALARS MaximumInscribedSphereRadius float
LOOKUP_TABLE default
0.93 0.96059 0.979459 0.987584 1.39838 1.79273 1.44224 1.15891 0.964449 
1.08746 1.22888 1.24 1.11594 0.95058 1.20266 1.68039 1.47778 1.26511 
1.77451 1.62543 1.55 1.55 1.55 1.49012 1.31311 1.38681 1.64315 
1.83147 1.60511 1.25434 1.24 1.24 1.24 1.24 1.24802 1.26634 
1.25113 1.35948 1.54507 1.72268 1.84141 1.86 1.79093 1.61397 1.43163 
1.29785 1.43134 1.55 1.55 1.55 1.52461 1.43369 1.34335 1.27469 
1.38897 1.64253 2.2984 2.39001 1.96879 2.10738 2.45366 2.89611 2.68907 
2.17 
TEXTURE_COORDINATES TCoords 2 float
0 0 0.015873 0 0.031746 0 0.047619 0 0.0634921 
0 0.0793651 0 0.0952381 0 0.111111 0 0.126984 0 
0.142857 0 0.15873 0 0.174603 0 0.190476 0 0.206349 
0 0.222222 0 0.238095 0 0.253968 0 0.269841 0 
0.285714 0 0.301587 0 0.31746 0 0.333333 0 0.349206 
0 0.365079 0 0.380952 0 0.396825 0 0.412698 0 
0.428571 0 0.444444 0 0.460317 0 0.47619 0 0.492063 
0 0.507937 0 0.52381 0 0.539683 0 0.555556 0 
0.571429 0 0.587302 0 0.603175 0 0.619048 0 0.634921 
0 0.650794 0 0.666667 0 0.68254 0 0.698413 0 
0.714286 0 0.730159 0 0.746032 0 0.761905 0 0.777778 
0 0.793651 0 0.809524 0 0.825397 0 0.84127 0 
0.857143 0 0.873016 0 0.888889 0 0.904762 0 0.920635 
0 0.936508 0 0.952381 0 0.968254 0 0.984127 0 
1 0 
FIELD FieldData 4
Curvature 1 64 float
0.201539 0.183445 0.152717 0.12268 0.102327 0.0988641 0.110621 0.129988 0.146226 
0.147682 0.131003 0.107965 0.0885515 0.0839331 0.114729 0.176592 0.215456 0.19182 
0.159496 0.144989 0.134925 0.122623 0.111301 0.116637 0.160185 0.282798 0.708073 
0.92061 0.351688 0.142406 0.0529122 0.0299822 0.0922263 0.177965 0.269 0.298401 
0.243415 0.165912 0.103795 0.0634728 0.0398863 0.0299769 0.0313266 0.0408197 0.0571834 
0.081837 0.111945 0.136607 0.143028 0.128681 0.106871 0.0894109 0.0780083 0.0690877 
0.0630116 0.0646062 0.0762585 0.0927555 0.105863 0.108346 0.102016 0.0935895 0.085349 
0.0780638 
Torsion 1 64 float
-0.0510494 -0.0768702 -0.113259 -0.168467 -0.232777 -0.241838 -0.181115 -0.109931 -0.0654308 
-0.0493223 -0.0515344 -0.0511079 0.0276927 0.219509 0.199961 0.0010006 -0.202233 -0.287795 
-0.240689 -0.163248 -0.128086 -0.135931 -0.17495 -0.181145 -0.126759 -0.0640696 -0.018728 
0.0338128 0.0405678 0.0548011 0.630251 1.70691 0.11529 0.0360414 0.00995422 -0.0131193 
-0.0314921 -0.0429182 -0.0531326 -0.0681378 -0.0926016 -0.112721 -0.0938923 -0.0744409 -0.073781 
-0.0749971 -0.0715765 -0.0691377 -0.0786662 -0.103023 -0.134603 -0.166175 -0.194967 -0.246948 
-0.327077 -0.350194 -0.250417 -0.133514 -0.0222303 0.0553223 0.0776271 0.0789762 0.0732438 
0.0655542 
Abscissas 1 64 double
0 1.0464324033 2.0205193132 3.0442936576 4.0573923215 5.0718031813 6.086212647 7.1004869147 8.1146347403 
9.1287234165 10.142849446 11.157141681 12.171549921 13.186053497 14.200591569 15.215188449 16.228685937 17.242339713 
18.256449769 19.270661834 20.284872254 21.299135373 22.313466243 23.327805237 24.342000064 25.356287513 26.37346176 
27.322586361 28.352509712 29.364726733 30.379267251 31.393925932 32.408496354 33.422781898 34.436437019 35.448620711 
36.46149478 37.475427104 38.489755276 39.504199499 40.518772633 41.533343332 42.547954433 43.562550252 44.577119092 
45.591669652 46.606080566 47.620331332 48.634431696 49.648604269 50.662898026 51.677303203 52.691746353 53.706233076 
54.720751973 55.735270144 56.749787425 57.764215988 58.778651708 59.792987093 60.805844315 61.831089785 62.803520351 
63.850825794 
ParallelTransportNormals 3 64 double
0 -0.97657453932 -0.2151793883 -0.026528791057 -0.98491411807 -0.17099825519 -0.035760274979 -0.98631826052 -0.16092697627 
-0.027474052604 -0.98549834416 -0.16744608112 0.0088919605235 -0.9820305686 -0.18851232157 0.076375666608 -0.97303802753 -0.21763215416 
0.17860294799 -0.95182366329 -0.24926431947 0.31293689424 -0.90886978987 -0.27572849923 0.4653174466 -0.83683718387 -0.28841498155 
0.61073076528 -0.73958187374 -0.28288970355 0.72735696249 -0.63370579283 -0.26337960674 0.81036029618 -0.53523595117 -0.23840861342 
0.86418044568 -0.45495595163 -0.21495869228 0.89344609381 -0.40317262039 -0.19800483739 0.90109408364 -0.38870903267 -0.19218413137 
0.89410531093 -0.40096907919 -0.19949809647 0.89947082327 -0.39285564131 -0.19135486192 0.92717423796 -0.35263077961 -0.12648899453 
0.95395895482 -0.29970044224 -0.011914589344 0.9618459139 -0.24175820798 0.12808359299 0.94525533389 -0.1817687397 0.27102117818 
0.90807107083 -0.12192553823 0.40067579594 0.85807503244 -0.063055380058 0.50963835976 0.80005350712 -0.002339466265 0.59992408907 
0.72932638194 0.071823593709 0.68038547897 0.62010806974 0.20049965338 0.75846283419 0.38965433645 0.5906225429 0.70663605194 
0.36408818131 0.90106402652 0.23563407298 0.4387802544 0.89826156617 0.024455001247 0.47707221868 0.87708127578 -0.055951173644 
0.49557024859 0.86366132366 -0.092191359218 0.49560664186 0.86363269749 -0.092263862805 0.47477343538 0.87886851903 -0.046693803843 
0.43041074507 0.89983699561 0.070992759199 0.37646214184 0.88385204148 0.27763613694 0.35158410093 0.79111107904 0.500531598 
0.36167506169 0.67489900128 0.64319708319 0.381029022 0.58955478919 0.71220926345 0.39670207678 0.53833210742 0.74352269932 
0.4068828435 0.50999523935 0.75785962256 0.41280868402 0.49514224875 0.7644757314 0.41583686436 0.48812424015 0.76734244534 
0.41649034775 0.48671239432 0.76788464983 0.41439574369 0.4908810876 0.76636278971 0.40699601846 0.50397295485 0.76181723644 
0.38832325828 0.53171227063 0.75265337862 0.34947246711 0.57698791134 0.7382099599 0.28350824152 0.6333977148 0.72002111905 
0.19426390164 0.68605941896 0.70113052292 0.095264740774 0.72383557257 0.68336424624 -0.0039652978081 0.74591406888 0.66603038839 
-0.10063734054 0.75545468371 0.64742593904 -0.19228299066 0.75541760225 0.62639563992 -0.27338603162 0.74911241009 0.60339926646 
-0.3378380398 0.74075457404 0.58064457278 -0.38116912425 0.73430013438 0.561705805 -0.40178131786 0.73165952965 0.55067785981 
-0.40320883267 0.73156947555 0.54975334442 -0.39504394225 0.7312175241 0.55611259305 -0.38963686551 0.73024917551 0.56117666977 
-0.39266823885 0.73126273695 0.55773332674 -0.40002646622 0.73492406582 0.54759971128 -0.41273410252 0.74353936048 0.52611764847 
-0.41273410252 0.74353936048 0.52611764847 
