# vtk DataFile Version 4.2
vtk output
ASCII
DATASET POLYDATA
POINTS 64 float
0 0 0 -1.02213 -0.108518 -0.147252 -1.95934 -0.39342 -0.208741 
-2.87273 -0.859603 -0.193537 -3.66831 -1.47696 -0.0987882 -4.362 -2.20409 0.0440132 
-4.96364 -3.00787 0.188999 -5.49292 -3.87021 0.261526 -5.94843 -4.76897 0.147579 
-6.2931 -5.63535 -0.24979 -6.50235 -6.40127 -0.880928 -6.59513 -7.07936 -1.62964 
-6.59105 -7.70888 -2.42524 -6.49611 -8.31847 -3.23065 -6.30693 -8.92584 -4.02089 
-6.01548 -9.5423 -4.77216 -5.61146 -10.1749 -5.45446 -5.0852 -10.8283 -6.02191 
-4.41948 -11.5108 -6.39895 -3.6899 -12.1341 -6.18939 -3.50064 -12.2473 -5.23508 
-3.82184 -11.9926 -4.28952 -4.25472 -11.7073 -3.42115 -4.74278 -11.4469 -2.57016 
-5.24577 -11.2654 -1.70801 -5.73163 -11.2208 -0.818679 -6.1583 -11.3807 0.0871671 
-6.47962 -11.7859 0.959034 -6.6766 -12.4049 1.73787 -6.7649 -13.1644 2.40445 
-6.7676 -14.0023 2.97641 -6.69707 -14.8782 3.48337 -6.55361 -15.7653 3.95435 
-6.32969 -16.6405 4.41613 -6.01532 -17.478 4.89458 -5.60654 -18.2471 5.41465 
-5.11532 -18.918 5.99568 -4.56987 -19.4758 6.6441 -3.99997 -19.9263 7.35226 
-3.42452 -20.2868 8.10604 -2.8486 -20.5736 8.8905 -2.26546 -20.7962 9.69036 
-1.66144 -20.9563 10.4896 -1.02101 -21.0506 11.2708 -0.332104 -21.0739 12.0152 
0.409812 -21.0228 12.7052 1.19928 -20.8969 13.3298 2.0229 -20.7 13.8885 
2.86518 -20.441 14.3913 3.71489 -20.1352 14.8537 4.56786 -19.8039 15.2921 
5.42582 -19.4734 15.7211 6.2936 -19.1745 16.1536 7.17481 -18.9427 16.5997 
8.06638 -18.8187 17.0675 8.9517 -18.8464 17.5618 9.79447 -19.0636 18.0825 
10.5432 -19.4806 18.6248 11.1537 -20.0649 19.1854 11.6074 -20.7546 19.7756 
11.9027 -21.4809 20.4159 12.0232 -22.1711 21.1619 11.9684 -22.7129 21.9814 
11.6998 -22.9862 22.9456 
LINES 1 65
64 0 1 2 3 4 5 6 7 8 9 10 11 12 13 14 15 16 17 18 19 20 21 22 23 24 25 26 27 28 29 30 31 32 33 34 35 36 37 38 39 40 41 42 43 44 45 46 47 48 49 50 51 52 53 54 55 56 57 58 59 60 61 62 63 

POINT_DATA 64
SCALARS MaximumInscribedSphereRadius float
LOOKUP_TABLE default
1.24 1.07815 0.938632 0.938696 1.04465 1.20102 1.24 1.24 1.15469 
0.961605 1.15726 1.24 1.15914 0.893452 0.707257 0.812969 0.876436 0.729106 
0.961565 1.6656 1.77285 1.81318 2.07768 1.7999 1.60321 1.77644 1.87011 
1.94589 2.14321 2.22788 2.20195 2.18359 2.15447 1.98572 1.92375 2.08283 
2.03595 1.84168 1.64927 1.64258 1.83217 2.05982 2.22507 2.21198 2.18631 
2.19702 2.34841 2.53654 2.69619 2.56463 2.29626 2.33035 2.3411 2.05603 
1.99946 2.22207 1.70504 1.38554 1.83016 2.20217 2.26122 1.82757 1.8253 
2.17 
TEXTURE_COORDINATES TCoords 2 float
0 0 0.015873 0 0.031746 0 0.047619 0 0.0634921 
0 0.0793651 0 0.0952381 0 0.111111 0 0.126984 0 
0.142857 0 0.15873 0 0.174603 0 0.190476 0 0.206349 
0 0.222222 0 0.238095 0 0.253968 0 0.269841 0 
0.285714 0 0.301587 0 0.31746 0 0.333333 0 0.349206 
0 0.365079 0 0.380952 0 0.396825 0 0.412698 0 
0.428571 0 0.444444 0 0.460317 0 0.47619 0 0.492063 
0 0.507937 0 0.52381 0 0.539683 0 0.555556 0 
0.571429 0 0.587302 0 0.603175 0 0.619048 0 0.634921 
0 0.650794 0 0.666667 0 0.68254 0 0.698413 0 
0.714286 0 0.730159 0 0.746032 0 0.761905 0 0.777778 
0 0.793651 0 0.809524 0 0.825397 0 0.84127 0 
0.857143 0 0.873016 0 0.888889 0 0.904762 0 0.920635 
0 0.936508 0 0.952381 0 0.968254 0 0.984127 0 
1 0 
FIELD FieldData 4
Curvature 1 64 float
0.176814 0.193962 0.195912 0.176905 0.142485 0.111458 0.119725 0.189807 0.278521 
0.272284 0.197995 0.134308 0.0986746 0.0879667 0.0963217 0.119552 0.161133 0.258162 
0.571372 1.00573 0.618017 0.211507 0.0808077 0.0707612 0.128267 0.192397 0.236063 
0.231041 0.187893 0.135839 0.0934819 0.0708974 0.0734512 0.0909328 0.111461 0.125098 
0.124277 0.109352 0.0886796 0.069448 0.0578186 0.0577035 0.0680036 0.0817417 0.0925009 
0.0961399 0.0905987 0.0765843 0.0564453 0.0329356 0.0162726 0.0297399 0.0626202 0.099093 
0.137619 0.173553 0.194733 0.191217 0.168436 0.15335 0.173387 0.234704 0.310182 
0.33337 
Torsion 1 64 float
0.00114843 0.00167773 -0.00181322 -0.0277542 -0.127337 -0.369296 -0.449809 -0.208426 -0.0458976 
0.0555706 0.118843 0.1778 0.215411 0.198118 0.14558 0.10504 0.087514 0.0811261 
0.0821029 0.0820922 0.0758173 0.149251 0.543359 0.451708 0.120146 0.0357878 0.00321353 
-0.00645979 0.0123763 0.0790976 0.211553 0.366191 0.348736 0.248008 0.192454 0.172273 
0.149354 0.106872 0.0533129 -0.0710799 -0.233945 -0.280376 -0.200132 -0.113013 -0.0494517 
0.00609012 0.0574954 0.0758345 0.0366843 -0.211792 -0.751651 -0.449531 -0.0604908 -0.0328526 
-0.0388032 -0.0569026 -0.0857539 -0.141628 -0.244212 -0.33598 -0.310516 -0.209671 -0.122577 
-0.0635213 
Abscissas 1 64 double
0 1.0383684643 2.019853345 3.0454454157 4.0569069023 5.0719519418 6.0863748682 7.1007847481 8.1148079655 
9.1283730007 10.142647948 11.157036429 12.171576447 13.186120085 14.200599025 15.215178838 16.229549572 17.24240773 
18.26766296 19.249856738 20.229316795 21.259911351 22.27127064 23.286255716 24.300772181 25.315148113 26.329136466 
27.342835415 28.357008437 29.37138844 30.38589432 31.400380732 32.414949479 33.429520713 34.443991822 35.458431946 
36.472827103 37.487275735 38.501784098 39.516322047 40.530874178 41.545457091 42.559980243 43.574532115 44.589059508 
45.603530442 46.618042697 47.632570042 48.647126437 49.661687263 50.676336466 51.690913156 52.705526894 53.720055108 
54.734504332 55.748848064 56.763030482 57.777216618 58.791311662 59.806135721 60.818408232 61.841840566 62.825776534 
63.863332658 
ParallelTransportNormals 3 64 double
-0.14259175454 0 0.98978158779 -0.069936958339 0.014790759561 0.99744175534 -0.0044145597112 0.041235166372 0.99913971631 
0.056507492232 0.079917516907 0.9951985198 0.089148166065 0.10937713318 0.98999456929 0.090401375522 0.11085831691 0.98971613348 
0.050888016932 0.052645503001 0.99731582798 -0.038170690803 -0.10662111936 0.99356677444 -0.15342914997 -0.36088001897 0.91990494501 
-0.22822030004 -0.58126168975 0.78105719552 -0.25330708272 -0.70119974457 0.66644912788 -0.25719192282 -0.75846512067 0.59881798199 
-0.25505367977 -0.78522256993 0.56424563455 -0.25267154808 -0.79542575286 0.5508674618 -0.25334047863 -0.79372243449 0.5530129283 
-0.26095392503 -0.78004894042 0.56870616276 -0.28360484009 -0.74873947249 0.59913061766 -0.33926646361 -0.68632109849 0.64332077258 
-0.58379218551 -0.45792706542 0.67043977127 -0.97360701235 -0.14551501066 0.17582595706 -0.94547367325 -0.17676691725 -0.27355619194 
-0.90091375054 -0.20864901333 -0.3805522347 -0.87334230419 -0.22498946925 -0.43203351542 -0.86082256434 -0.23057166004 -0.45367523881 
-0.85865563149 -0.23106710795 -0.45751338574 -0.86364746924 -0.23169805928 -0.44769304014 -0.8706622963 -0.23699813197 -0.4310209406 
-0.8751464042 -0.24585813358 -0.41674038606 -0.87707845319 -0.25519350992 -0.40695166721 -0.87781487973 -0.26811982828 -0.39692920605 
-0.87688000606 -0.29174016908 -0.38205906444 -0.87199305767 -0.3320027802 -0.3597252581 -0.85933773226 -0.39270960056 -0.32759400414 
-0.83365000686 -0.47444059024 -0.28272564863 -0.79029933336 -0.57075131937 -0.22286743845 -0.73106545854 -0.66552513321 -0.15039811298 
-0.66776709994 -0.74054890469 -0.075328746132 -0.6132180363 -0.78986262607 -0.0089817534618 -0.57144048296 -0.81944457745 0.04434364584 
-0.53822231569 -0.83811985982 0.088723387387 -0.50647574299 -0.85207230228 0.1321178014 -0.46958051312 -0.86396600595 0.18181551711 
-0.42282743592 -0.87352367673 0.24119151233 -0.36368427383 -0.87875572622 0.30906653428 -0.29295449059 -0.87738140819 0.37997306617 
-0.21504843653 -0.86837696189 0.44685078271 -0.13770682262 -0.85289993277 0.5035856786 -0.069864255551 -0.83433376184 0.54681455692 
-0.01914182633 -0.81740219714 0.57574928449 0.0095831225091 -0.80665405912 0.59094618424 0.013622953145 -0.80509142285 0.59299427991 
-0.0095596795627 -0.81354644514 0.58142135679 -0.06260980458 -0.82964349402 0.55477174154 -0.14970753779 -0.8471238914 0.50987132274 
-0.2738583993 -0.85385180621 0.44264960203 -0.43084297683 -0.83160301222 0.35044366079 -0.59859501785 -0.76475507478 0.23839815479 
-0.7423617742 -0.65884567834 0.12174304227 -0.84116261916 -0.54057670587 0.014908829448 -0.89767428711 -0.43370835525 -0.077961123971 
-0.92456189223 -0.34230859077 -0.16736229001 -0.92772700144 -0.27981627493 -0.24703332384 -0.91401048527 -0.24432061199 -0.32387076337 
-0.91401048527 -0.24432061199 -0.32387076337 
