# vtk DataFile Version 4.2
vtk output
ASCII
DATASET POLYDATA
POINTS 64 float
0 0 0 -0.821351 0.121294 -0.636961 -1.72308 -0.175825 -0.848142 
-2.48266 -0.789293 -0.582975 -3.0143 -1.46091 -0.0403713 -3.45358 -2.1039 0.610012 
-3.88476 -2.71375 1.29669 -4.3571 -3.30841 1.96943 -4.90278 -3.92379 2.56228 
-5.52661 -4.6317 2.93397 -6.03981 -5.4787 2.77019 -6.1294 -6.24999 2.12269 
-5.90129 -6.88108 1.36392 -5.48555 -7.42029 0.612195 -4.94021 -7.89384 -0.0999786 
-4.29854 -8.32426 -0.757117 -3.5788 -8.75111 -1.33105 -2.78967 -9.25917 -1.71758 
-2.16004 -9.94812 -1.44971 -2.19537 -10.4413 -0.561041 -2.64172 -10.6447 0.324063 
-3.3363 -10.6235 1.06046 -4.17552 -10.4212 1.59121 -5.06852 -10.11 1.95816 
-5.96606 -9.75747 2.27393 -6.82771 -9.41347 2.68293 -7.52983 -9.12555 3.35206 
-7.77693 -8.96787 4.31499 -7.4823 -8.98669 5.28229 -6.89773 -9.15557 6.09277 
-6.20562 -9.44708 6.77442 -5.49963 -9.85251 7.37953 -4.84725 -10.3903 7.93915 
-4.34011 -11.1224 8.42118 -4.14069 -12.0863 8.6357 -4.22117 -13.0817 8.45902 
-4.3389 -14.0223 8.09789 -4.37432 -14.969 7.73545 -4.27876 -15.9563 7.52736 
-4.03618 -16.9315 7.64088 -3.68258 -17.7516 8.11692 -3.26636 -18.3536 8.818 
-2.79865 -18.7743 9.61338 -2.27336 -19.0495 10.4362 -1.68635 -19.187 11.2517 
-1.04589 -19.1708 12.0378 -0.37824 -18.9838 12.7778 0.290422 -18.645 13.4611 
0.963311 -18.2151 14.0869 1.66779 -17.7625 14.6597 2.42262 -17.3363 15.1868 
3.21948 -16.9589 15.6887 4.03538 -16.639 16.1998 4.85232 -16.3966 16.7502 
5.65905 -16.2685 17.3514 6.4432 -16.2971 17.9937 7.1802 -16.5198 18.6533 
7.81767 -16.9691 19.3003 8.25321 -17.6607 19.8977 8.36794 -18.5289 20.4044 
8.15401 -19.4249 20.826 7.70036 -20.236 21.2426 7.12926 -20.8767 21.72 
6.52378 -21.1745 22.5143 
LINES 1 65
64 0 1 2 3 4 5 6 7 8 9 10 11 12 13 14 15 16 17 18 19 20 21 22 23 24 25 26 27 28 29 30 31 32 33 34 35 36 37 38 39 40 41 42 43 44 45 46 47 48 49 50 51 52 53 54 55 56 57 58 59 60 61 62 63 

POINT_DATA 64
SCALARS MaximumInscribedSphereRadius float
LOOKUP_TABLE default
0.9796 1.34516 1.36402 1.26023 1.31819 1.48504 1.3455 1.0714 1.46797 
1.62674 1.42996 1.5138 1.43024 1.3372 1.26094 1.24 1.34842 1.7602 
1.86984 2.15928 1.81887 1.83074 2.34814 2.3154 2.08219 1.68224 1.55 
1.69625 1.76815 1.60005 1.74306 1.866 1.88047 1.86918 2.15932 2.27611 
1.88295 1.48331 1.4242 1.83757 2.07639 2.17 2.13908 1.97838 1.93793 
2.14095 2.35003 2.39912 2.28041 2.54532 2.62339 2.27298 2.17 2.24075 
2.41675 2.37733 2.38022 2.7275 2.82048 2.60529 2.23545 2.35936 2.47245 
2.48 
TEXTURE_COORDINATES TCoords 2 float
0 0 0.015873 0 0.031746 0 0.047619 0 0.0634921 
0 0.0793651 0 0.0952381 0 0.111111 0 0.126984 0 
0.142857 0 0.15873 0 0.174603 0 0.190476 0 0.206349 
0 0.222222 0 0.238095 0 0.253968 0 0.269841 0 
0.285714 0 0.301587 0 0.31746 0 0.333333 0 0.349206 
0 0.365079 0 0.380952 0 0.396825 0 0.412698 0 
0.428571 0 0.444444 0 0.460317 0 0.47619 0 0.492063 
0 0.507937 0 0.52381 0 0.539683 0 0.555556 0 
0.571429 0 0.587302 0 0.603175 0 0.619048 0 0.634921 
0 0.650794 0 0.666667 0 0.68254 0 0.698413 0 
0.714286 0 0.730159 0 0.746032 0 0.761905 0 0.777778 
0 0.793651 0 0.809524 0 0.825397 0 0.84127 0 
0.857143 0 0.873016 0 0.888889 0 0.904762 0 0.920635 
0 0.936508 0 0.952381 0 0.968254 0 0.984127 0 
1 0 
FIELD FieldData 4
Curvature 1 64 float
0.301131 0.471184 0.499243 0.2982 0.145052 0.0606049 0.0411527 0.10244 0.233587 
0.469697 0.546017 0.311417 0.17976 0.118938 0.091709 0.107161 0.218091 0.586908 
0.790951 0.394924 0.284909 0.24089 0.158539 0.0504034 0.105501 0.268515 0.452111 
0.452625 0.297567 0.175281 0.107248 0.121479 0.219491 0.390811 0.393343 0.188611 
0.0810701 0.159172 0.273041 0.31717 0.248994 0.164339 0.120639 0.114061 0.12827 
0.137897 0.124585 0.0827742 0.0538789 0.0575807 0.0549517 0.0486939 0.0659558 0.0948534 
0.123736 0.15188 0.188128 0.243787 0.288305 0.263105 0.193149 0.192001 0.331006 
0.499534 
Torsion 1 64 float
0.00336398 0.00958581 0.048219 0.105158 0.168042 0.528507 0.700641 0.238197 0.177548 
0.194435 0.191937 0.128863 0.0893413 0.0855357 0.183236 0.263879 0.154961 0.0706005 
0.0520035 0.0507463 0.0337968 0.0143887 -0.0184224 -0.469542 -0.1702 0.035953 0.0475423 
-0.0359463 -0.125097 -0.209616 -0.39149 -0.253052 0.00422036 0.143439 0.229849 0.415194 
0.950854 0.299759 0.103615 0.00207561 -0.0897401 -0.164655 -0.164444 -0.0681627 0.0448888 
0.0698797 -0.010684 -0.31483 -0.658302 -0.382629 -0.351482 -0.467684 -0.134566 0.0657365 
0.0757991 0.0276582 -0.0385899 -0.0981412 -0.133286 -0.195689 -0.371883 -0.48524 -0.26922 
-0.100369 
Abscissas 1 64 double
0 1.0464458801 2.0190672905 3.0308075466 4.0447746301 5.0593687844 6.0739424854 7.0884890976 8.1023581246 
9.1164852407 10.120281842 11.131306367 12.144243082 13.158480444 14.172796223 15.18710989 16.201814893 17.21683014 
18.187830245 19.204790231 20.216723491 21.229230822 22.242597097 23.256967385 24.271642701 25.285574427 26.297308211 
27.303864523 28.315215215 29.328684818 30.342903973 31.357277718 32.371176859 33.383854054 34.391271453 35.405428779 
36.419826334 37.434152946 38.447658859 39.458968061 40.471002004 41.484488296 42.498574831 43.512821769 44.526985416 
45.541087888 46.555151275 47.569445853 48.583950866 49.598463927 50.612983277 51.627537118 52.642058136 53.65649826 
54.67072924 55.684759939 56.698582196 57.711918035 58.724286332 59.736057118 60.749135982 61.767584063 62.749704846 
63.791915842 
ParallelTransportNormals 3 64 double
-0.61282046015 0 0.79022217358 -0.24068389241 0.041207033031 0.96972843846 0.13627304904 0.24606186416 0.95962660192 
0.32013328698 0.42900390483 0.84467172808 0.38314435261 0.51431775209 0.76725331863 0.40344950049 0.54354264639 0.73606378263 
0.39527796914 0.53264893934 0.74835849332 0.34572134725 0.4737459804 0.80996388568 0.20133651144 0.31037587827 0.92904812757 
-0.11416233915 -0.12148745148 0.98600596319 -0.29098881391 -0.59509330841 0.74912580016 -0.27292498603 -0.77838608586 0.56535568746 
-0.23534743301 -0.8467055091 0.4771806436 -0.20377468907 -0.87997625304 0.42908934989 -0.18411191431 -0.89495047761 0.406406749 
-0.19488909744 -0.88816408068 0.41615238254 -0.29606995465 -0.82547188173 0.48056087483 -0.72385148587 -0.46243864276 0.51204445909 
-0.99752964896 0.070243458486 -0.00067526978046 -0.88972481141 0.2256557708 -0.39682393208 -0.69952017198 0.25604277177 -0.66716836556 
-0.48169142333 0.2243111223 -0.84714691353 -0.32081807326 0.17662602066 -0.93052620205 -0.27173245517 0.15843079215 -0.94924241209 
-0.35712727411 0.19224190751 -0.91405861907 -0.59582658192 0.28870175984 -0.74942776713 -0.86300015059 0.41418365211 -0.28927952297 
-0.84965785514 0.4543694717 0.26763765129 -0.69192332117 0.42071130728 0.58672320012 -0.5654528476 0.3751072146 0.73454588331 
-0.49255067505 0.33876655219 0.80164272318 -0.45608844883 0.31344697259 0.83290715102 -0.4220552862 0.27616808682 0.86348162876 
-0.36152569413 0.13065844509 0.92316171022 -0.3451551211 -0.13690079045 0.92850746683 -0.36128611192 -0.29446276079 0.88473952542 
-0.36345545035 -0.3211964641 0.87449011833 -0.36642714261 -0.22571546049 0.90265368778 -0.40625230323 0.0053115939329 0.91374550784 
-0.49336885068 0.26767474372 0.82760945425 -0.57555957212 0.41953245857 0.70194280049 -0.62450243362 0.47616287595 0.61908450633 
-0.64893626542 0.49328660329 0.57926682146 -0.66178591438 0.49805417822 0.56034046711 -0.67662763115 0.49952079265 0.5409750701 
-0.70353801076 0.49534051804 0.50958025727 -0.73333941782 0.4836149404 0.47783876747 -0.74215193972 0.47856547289 0.46923937018 
-0.7170656994 0.49463859073 0.49106969699 -0.66623795465 0.52524718782 0.52937923975 -0.61569623809 0.55142213272 0.56289588198 
-0.5857021895 0.56439047217 0.58173562736 -0.56862358917 0.57027178227 0.59283834912 -0.54544608848 0.57556042406 0.60927724626 
-0.5043109632 0.57813279998 0.64143036877 -0.44652199597 0.56858501537 0.69089014135 -0.38328221203 0.53766300521 0.75100814827 
-0.33492646052 0.48623793175 0.80709165512 -0.32055874046 0.44550272621 0.83592428775 -0.31947450807 0.46482612786 0.82575584137 
-0.28282287938 0.55865106076 0.77969238242 -0.18985278408 0.68981140556 0.69865309356 0.083570340391 0.91046424525 0.40505660879 
0.083570340391 0.91046424525 0.40505660879 
