# vtk DataFile Version 4.2
vtk output
ASCII
DATASET POLYDATA
POINTS 64 float
0 0 0 -0.70083 0.295228 0.721525 -1.42099 0.611307 1.29851 
-2.22735 0.939416 1.82938 -3.08498 1.23843 2.28188 -3.99348 1.48186 2.66132 
-4.94661 1.63877 2.97073 -5.93023 1.66938 3.21578 -6.91516 1.52364 3.40666 
-7.84892 1.15984 3.55788 -8.67893 0.590585 3.67907 -9.40623 -0.111413 3.76334 
-10.0824 -0.867271 3.79042 -10.7707 -1.60967 3.72735 -11.5137 -2.2705 3.52967 
-12.299 -2.79581 3.16273 -13.0682 -3.17872 2.6248 -13.7554 -3.46092 1.93473 
-14.2886 -3.71228 1.11012 -14.5655 -4.00938 0.18254 -14.4822 -4.40593 -0.744097 
-14.0607 -4.89218 -1.52557 -13.4295 -5.42877 -2.10949 -12.689 -5.99819 -2.5036 
-11.8993 -6.60476 -2.69264 -11.1393 -7.26436 -2.58166 -10.6236 -7.93417 -2.03353 
-10.491 -8.50792 -1.20993 -10.5883 -9.01743 -0.338484 -10.7822 -9.53553 0.511972 
-10.9972 -10.1143 1.31686 -11.1761 -10.7899 2.05179 -11.2744 -11.5701 2.69212 
-11.275 -12.4282 3.23274 -11.1828 -13.3273 3.69316 -11.0034 -14.2372 4.10425 
-10.7299 -15.1328 4.49432 -10.3448 -15.9861 4.88451 -9.82986 -16.7612 5.28743 
-9.18172 -17.4187 5.70667 -8.42298 -17.933 6.14039 -7.595 -18.3102 6.58862 
-6.73736 -18.5826 7.05701 -5.87683 -18.7866 7.55416 -5.02779 -18.9463 8.08608 
-4.19634 -19.0675 8.65468 -3.38272 -19.1406 9.25629 -2.58378 -19.1516 9.88144 
-1.79582 -19.1039 10.5188 -1.01566 -19.0337 11.1636 -0.244826 -19.0044 11.8225 
0.501785 -19.0885 12.5037 1.18887 -19.3465 13.2031 1.77053 -19.7991 13.8989 
2.21296 -20.4246 14.5628 2.50594 -21.1788 15.1738 2.66197 -22.0154 15.7254 
2.71051 -22.898 16.2232 2.69248 -23.8051 16.6773 2.65577 -24.7296 17.0932 
2.64961 -25.6733 17.4663 2.72143 -26.6396 17.7828 2.88788 -27.5714 18.0191 
3.20564 -28.558 18.175 
LINES 1 65
64 0 1 2 3 4 5 6 7 8 9 10 11 12 13 14 15 16 17 18 19 20 21 22 23 24 25 26 27 28 29 30 31 32 33 34 35 36 37 38 39 40 41 42 43 44 45 46 47 48 49 50 51 52 53 54 55 56 57 58 59 60 61 62 63 

POINT_DATA 64
SCALARS MaximumInscribedSphereRadius float
LOOKUP_TABLE default
0.93 0.968479 1.07944 1.23962 1.24 1.14294 0.968437 1.124 1.12409 
0.958389 1.18047 1.32712 1.24096 1.03944 1.21421 1.4331 1.55876 1.59258 
1.73295 1.68203 1.62914 1.75703 1.484 1.31473 1.49479 1.55 1.73402 
1.8848 1.78168 1.45224 1.69699 2.06846 1.90215 1.68643 1.63851 1.81026 
1.86 1.93863 2.12037 2.17 2.08389 1.97544 2.22766 2.16726 1.67828 
1.56958 1.8935 2.39067 2.27577 2.30094 2.45968 2.48 2.56817 2.4723 
2.01216 2.2799 2.56957 2.7745 2.83241 2.74226 2.4903 2.48284 2.16155 
1.55 
TEXTURE_COORDINATES TCoords 2 float
0 0 0.015873 0 0.031746 0 0.047619 0 0.0634921 
0 0.0793651 0 0.0952381 0 0.111111 0 0.126984 0 
0.142857 0 0.15873 0 0.174603 0 0.190476 0 0.206349 
0 0.222222 0 0.238095 0 0.253968 0 0.269841 0 
0.285714 0 0.301587 0 0.31746 0 0.333333 0 0.349206 
0 0.365079 0 0.380952 0 0.396825 0 0.412698 0 
0.428571 0 0.444444 0 0.460317 0 0.47619 0 0.492063 
0 0.507937 0 0.52381 0 0.539683 0 0.555556 0 
0.571429 0 0.587302 0 0.603175 0 0.619048 0 0.634921 
0 0.650794 0 0.666667 0 0.68254 0 0.698413 0 
0.714286 0 0.730159 0 0.746032 0 0.761905 0 0.777778 
0 0.793651 0 0.809524 0 0.825397 0 0.84127 0 
0.857143 0 0.873016 0 0.888889 0 0.904762 0 0.920635 
0 0.936508 0 0.952381 0 0.968254 0 0.984127 0 
1 0 
FIELD FieldData 4
Curvature 1 64 float
0.142097 0.0988933 0.0775004 0.0715031 0.0769663 0.0892336 0.109795 0.141033 0.172082 
0.173309 0.126952 0.070099 0.0684923 0.123166 0.164163 0.166111 0.149099 0.150538 
0.207355 0.277689 0.29002 0.223033 0.163411 0.157567 0.247354 0.396686 0.376412 
0.200086 0.0856574 0.0594447 0.0933875 0.121318 0.118452 0.0965372 0.0748563 0.0714613 
0.0879015 0.112522 0.13134 0.133449 0.114633 0.0824449 0.0547241 0.0418847 0.0429827 
0.0479373 0.0521738 0.0451006 0.0204268 0.0321441 0.0865612 0.136377 0.16335 0.164728 
0.150584 0.125601 0.0943478 0.0609487 0.036434 0.0432681 0.0713097 0.0997801 0.119284 
0.126591 
Torsion 1 64 float
0.12551 0.164336 0.19145 0.18704 0.16829 0.159857 0.153328 0.134174 0.0955664 
0.019607 -0.150302 -0.634743 -0.671115 -0.117481 0.0698688 0.159588 0.2871 0.346584 
0.217347 0.1233 0.0804261 0.0778713 0.109894 0.135452 0.10869 0.0926462 0.108649 
0.181659 0.50093 0.661388 0.238908 0.104775 0.0864685 0.136512 0.247964 0.260871 
0.152122 0.0731494 0.0495318 0.0567683 0.0894088 0.166053 0.271589 0.20548 -0.00803541 
-0.151897 -0.155107 -0.0527589 0.83216 0.320245 0.0115115 -0.0222948 -0.0254874 -0.022848 
-0.0233325 -0.0206152 0.00759726 0.141299 0.587211 0.454749 0.112582 0.0293523 0.0109496 
0.00596975 
Abscissas 1 64 double
0 1.0482941307 2.0237160941 3.0433704451 4.0581092105 5.0723109214 6.0866146959 7.1007621616 8.1145483818 
9.1280201744 10.141753655 11.156084694 12.170609703 13.184952463 14.198767618 15.212321814 16.226056451 17.239997604 
18.253637572 19.266231688 20.27759075 21.289915165 22.303476116 23.317330714 24.330884139 25.343300722 26.350791947 
27.363258932 28.377401791 29.391946046 30.406364119 31.42054493 32.434644303 33.448846297 34.463177984 35.477622121 
36.49204633 37.506280857 38.520325946 39.534304705 40.548358228 41.562627091 42.577090938 43.591628255 44.606178167 
45.620724813 46.635247473 47.649761251 48.664346645 49.678912987 50.693404587 51.707571265 52.721381273 53.734945769 
54.748729738 55.762621222 56.776773985 57.791241826 58.805815507 59.820223854 60.835018377 61.854365689 62.829964135 
63.878132639 
ParallelTransportNormals 3 64 double
0 -0.92552057563 0.37869732516 -0.05360506898 -0.90244276362 0.42746175848 -0.073099401593 -0.89420929762 0.44164036221 
-0.07701545618 -0.89273369395 0.44395401924 -0.058853318461 -0.89831176656 0.43539896299 -0.013584310157 -0.90804689777 0.41864817923 
0.069838763646 -0.91612365255 0.39476575374 0.20508935513 -0.90821141318 0.36481554981 0.38863508685 -0.85946435503 0.33209003554 
0.56859548719 -0.76426662435 0.30429541378 0.68191926773 -0.67176355598 0.28934380441 0.71915954303 -0.63308045169 0.28638905944 
0.69054993778 -0.66449518308 0.28563426807 0.59914436972 -0.75410588272 0.26898018863 0.46887702591 -0.8552068081 0.22085209975 
0.35249777064 -0.92320250545 0.15310929304 0.29000141814 -0.95174367614 0.10041490133 0.2910804353 -0.95127192396 0.10175414912 
0.33439936413 -0.92193779643 0.1954680659 0.35516586889 -0.84744222338 0.3945869785 0.29047613841 -0.73428135431 0.6135588853 
0.17577921211 -0.62282762263 0.76235649212 0.051264029064 -0.52242957559 0.85114002249 -0.096694234698 -0.40872062314 0.90752282461 
-0.32619052115 -0.22120606316 0.91905800771 -0.64913063008 0.11549411921 0.7518580541 -0.80627895964 0.41655297011 0.41999745516 
-0.81034760238 0.54074487518 0.22568062231 -0.80057694096 0.57522660946 0.16790148711 -0.80568199032 0.56153237983 0.18856806963 
-0.82425665908 0.5023803937 0.26117982309 -0.84374634458 0.40002280197 0.35787408948 -0.8509685021 0.28039227178 0.44410897576 
-0.84533307134 0.17227802654 0.50569979243 -0.83203501833 0.083704320079 0.54837151192 -0.8124879245 0.0057793720511 0.58294937293 
-0.78346358405 -0.071292861889 0.61733470687 -0.73970131512 -0.15046839045 0.6558972693 -0.67955431079 -0.22455269443 0.69841393608 
-0.612522245 -0.28038462709 0.73905409834 -0.5581187122 -0.31095195599 0.76929343176 -0.53049071945 -0.32159932841 0.78431719893 
-0.52967711131 -0.32182492037 0.78477441242 -0.54556412572 -0.31844504983 0.77521128408 -0.56661797228 -0.31492583568 0.76142352965 
-0.58268715577 -0.31302790513 0.74999280604 -0.5879957361 -0.31275104473 0.74595428704 -0.58584016166 -0.31270119686 0.74766922263 
-0.58819920728 -0.31287856179 0.74574036911 -0.60990726159 -0.31427117416 0.72749347856 -0.65922119257 -0.31248974976 0.6839426698 
-0.73377777484 -0.29469777375 0.61214655051 -0.81657526312 -0.2483223494 0.52109581695 -0.88720019979 -0.17397506323 0.427327138 
-0.93503939668 -0.084225548663 0.34439422703 -0.96022296135 0.0049933233095 0.27918977633 -0.96900298965 0.078774069582 0.23415347961 
-0.96978016899 0.12435747563 0.20990865175 -0.96956906366 0.13142087464 0.2065535875 -0.97042306404 0.094210176136 0.22226902505 
-0.96756181259 0.010758909348 0.25240519942 -0.95374339067 -0.098327033103 0.28408685171 -0.91694126576 -0.24563529321 0.31445511266 
-0.91694126576 -0.24563529321 0.31445511266 
