# vtk DataFile Version 4.2
vtk output
ASCII
DATASET POLYDATA
POINTS 64 float
0 0 0 -0.731612 0.526584 0.533464 -1.54079 0.837182 0.978774 
-2.44219 1.04572 1.41307 -3.36779 1.14199 1.81574 -4.30572 1.14329 2.20195 
-5.24248 1.04803 2.57952 -6.16272 0.841155 2.95271 -7.04467 0.496609 3.31609 
-7.86061 -0.00706924 3.64583 -8.59329 -0.66058 3.89961 -9.25315 -1.4191 4.03274 
-9.87303 -2.2215 4.01231 -10.4817 -3.00952 3.82026 -11.0778 -3.74361 3.45411 
-11.6289 -4.41429 2.9297 -12.0889 -5.03679 2.27438 -12.4082 -5.63838 1.52311 
-12.5402 -6.24329 0.720217 -12.4524 -6.86317 -0.0770622 -12.1418 -7.49634 -0.805225 
-11.639 -8.13614 -1.40988 -10.9905 -8.78094 -1.8476 -10.2507 -9.43869 -2.06393 
-9.51518 -10.1242 -1.947 -9.04325 -10.7948 -1.36223 -9.02254 -11.3515 -0.516437 
-9.27196 -11.8478 0.331817 -9.62426 -12.3688 1.12791 -9.98694 -12.9655 1.86371 
-10.2956 -13.6667 2.52822 -10.5025 -14.4726 3.10801 -10.5914 -15.3513 3.60673 
-10.5727 -16.264 4.04901 -10.4635 -17.1825 4.46585 -10.2768 -18.0873 4.88497 
-10.0189 -18.9625 5.32837 -9.68843 -19.7911 5.81146 -9.27729 -20.5518 6.34174 
-8.77421 -21.2196 6.91589 -8.17317 -21.7705 7.51903 -7.48165 -22.1902 8.13079 
-6.72236 -22.4842 8.7357 -5.92252 -22.6743 9.33005 -5.10405 -22.7844 9.91933 
-4.28133 -22.8316 10.5111 -3.46366 -22.8257 11.1117 -2.65741 -22.774 11.7254 
-1.86637 -22.6858 12.3546 -1.09149 -22.5777 13.0006 -0.331999 -22.4728 13.6651 
0.412112 -22.4014 14.351 1.13605 -22.4072 15.0616 1.82128 -22.5538 15.7946 
2.41789 -22.924 16.5251 2.84284 -23.5627 17.1857 3.05621 -24.4001 17.7149 
3.10527 -25.327 18.1236 3.05491 -26.2846 18.4549 2.95248 -27.2511 18.7453 
2.83371 -28.2191 19.0233 2.73648 -29.1924 19.3214 2.69479 -30.1115 19.6432 
2.8366 -31.0372 20.1118 
LINES 1 65
64 0 1 2 3 4 5 6 7 8 9 10 11 12 13 14 15 16 17 18 19 20 21 22 23 24 25 26 27 28 29 30 31 32 33 34 35 36 37 38 39 40 41 42 43 44 45 46 47 48 49 50 51 52 53 54 55 56 57 58 59 60 61 62 63 

POINT_DATA 64
SCALARS MaximumInscribedSphereRadius float
LOOKUP_TABLE default
1.581 1.35001 1.24 1.24 1.24 1.18607 1.01085 1.14909 1.51846 
1.76206 1.66754 1.31753 0.901166 1.05612 1.48843 1.74936 1.69602 1.52902 
1.4269 1.3888 1.37173 1.29498 1.16249 1.03729 1.36285 1.39795 1.3252 
1.41849 1.52339 1.55 1.51688 1.42334 1.45585 1.49366 1.35379 1.38388 
1.74267 1.99995 2.11578 1.96672 2.10607 2.47282 2.70212 2.48968 2.06095 
1.90351 2.03295 2.37216 2.48 2.44183 2.27143 2.3775 2.7305 2.40375 
2.06381 1.83943 1.62764 1.7893 2.06058 1.86637 1.57665 1.75231 1.85305 
1.86 
TEXTURE_COORDINATES TCoords 2 float
0 0 0.015873 0 0.031746 0 0.047619 0 0.0634921 
0 0.0793651 0 0.0952381 0 0.111111 0 0.126984 0 
0.142857 0 0.15873 0 0.174603 0 0.190476 0 0.206349 
0 0.222222 0 0.238095 0 0.253968 0 0.269841 0 
0.285714 0 0.301587 0 0.31746 0 0.333333 0 0.349206 
0 0.365079 0 0.380952 0 0.396825 0 0.412698 0 
0.428571 0 0.444444 0 0.460317 0 0.47619 0 0.492063 
0 0.507937 0 0.52381 0 0.539683 0 0.555556 0 
0.571429 0 0.587302 0 0.603175 0 0.619048 0 0.634921 
0 0.650794 0 0.666667 0 0.68254 0 0.698413 0 
0.714286 0 0.730159 0 0.746032 0 0.761905 0 0.777778 
0 0.793651 0 0.809524 0 0.825397 0 0.84127 0 
0.857143 0 0.873016 0 0.888889 0 0.904762 0 0.920635 
0 0.936508 0 0.952381 0 0.968254 0 0.984127 0 
1 0 
FIELD FieldData 4
Curvature 1 64 float
0.241556 0.174423 0.123973 0.091172 0.0749337 0.0753434 0.0907563 0.116964 0.141155 
0.147352 0.136497 0.12754 0.133467 0.141576 0.138216 0.13104 0.13395 0.150252 
0.170369 0.180176 0.175983 0.169562 0.193949 0.285607 0.449092 0.438807 0.240957 
0.112983 0.0783638 0.106292 0.130189 0.12554 0.0992434 0.0742397 0.0610649 0.0619576 
0.0743392 0.091153 0.108363 0.120482 0.122795 0.110218 0.0867312 0.0638239 0.0490933 
0.041809 0.0385982 0.0344659 0.0262562 0.019274 0.0338421 0.0688704 0.121404 0.191616 
0.253399 0.25231 0.18555 0.113646 0.0581534 0.0168027 0.0358573 0.0925154 0.183813 
0.339539 
Torsion 1 64 float
-0.0265491 -0.0350826 -0.0491068 -0.0716865 -0.0962195 -0.0915895 -0.0462117 0.0168557 0.0853524 
0.179508 0.288495 0.34034 0.202976 -0.00142322 -0.153092 -0.249187 -0.264416 -0.20081 
-0.140946 -0.114167 -0.119051 -0.148225 -0.178248 -0.175509 -0.169973 -0.187017 -0.25356 
-0.49351 -0.551627 -0.234515 -0.121538 -0.11332 -0.164782 -0.247998 -0.289856 -0.21054 
-0.0866743 -0.0017986 0.0434341 0.0492339 0.0294887 -0.00684164 -0.0560647 -0.113713 -0.147703 
-0.139853 -0.119341 -0.146951 -0.350543 -0.754046 -0.377703 -0.113492 -0.0382062 -0.0125723 
0.00237451 0.012223 0.0158761 0.0156235 0.0177432 0.0710394 0.0138849 0.00534028 0.00316134 
0.00204519 
Abscissas 1 64 double
0 1.0474400948 2.0218840461 3.0439520359 4.0579276332 5.0722610882 6.0867327308 7.1010849355 8.1152805446 
9.1292716881 10.143323507 11.157468997 12.1716257 13.185695905 14.199741698 15.213905662 16.228080412 17.24211697 
18.256009081 19.269722259 20.283427063 21.297211884 22.311074603 23.324355726 24.336574257 25.343737515 26.356510555 
27.370443315 28.384997438 29.39938855 30.413551376 31.427670816 32.441938542 33.456325987 34.470882092 35.485366697 
36.499808182 37.514285483 38.528631337 39.542877966 40.557036199 41.571234751 42.5855681 43.600030901 44.614558118 
45.629096431 46.643660306 47.658224129 48.67282552 49.687439039 50.702028251 51.71655156 52.730983456 53.745044922 
54.75826898 55.770648073 56.783968605 57.798160405 58.812701372 59.827072318 60.841180336 61.863739861 62.838438743 
63.88563407 
ParallelTransportNormals 3 64 double
0.58916993065 0 0.80800915392 0.49618579779 0.049961166791 0.86677767385 0.44537159946 0.065474819621 0.89294859112 
0.40419367003 0.072334330562 0.91180876379 0.37980715636 0.073611372056 0.92213225184 0.36644997212 0.072941953495 0.92757419614 
0.3608826937 0.072036133844 0.92982497106 0.35628696919 0.070629938245 0.93170328292 0.34042921355 0.062707610374 0.93817679899 
0.30069502309 0.033016847838 0.95314867195 0.23482265158 -0.033777122326 0.97145119708 0.1482072216 -0.13942340436 0.97907902326 
0.046900911365 -0.2705695432 0.96155729252 -0.060239311544 -0.40593076743 0.91191635439 -0.15733134408 -0.52482202918 0.83654568665 
-0.2311300654 -0.61920935014 0.75043898724 -0.2759619109 -0.68962995949 0.66951888898 -0.29456103853 -0.73935405738 0.60546624383 
-0.29565465345 -0.76967170319 0.56585669141 -0.29240650109 -0.77988777865 0.55341981428 -0.29934959792 -0.76902174751 0.56479675113 
-0.33024875617 -0.73454483293 0.59277284643 -0.40605954002 -0.6634177112 0.62848435973 -0.57590788891 -0.50877115614 0.63990781693 
-0.85915982904 -0.1904804065 0.47493326152 -0.98631713725 0.12558086904 0.10680800581 -0.95523097255 0.26880562341 -0.12360148023 
-0.92645812456 0.31745276502 -0.202235223 -0.92723125837 0.31624415091 -0.20057873893 -0.94979837678 0.27261439755 -0.15350711289 
-0.9781140729 0.18984052312 -0.085167107346 -0.99581439751 0.08903937431 -0.020631905818 -0.99954799955 -0.0062279376794 0.029411041793 
-0.99387139448 -0.087507072109 0.06754379005 -0.98263174456 -0.15676389753 0.099297205484 -0.96701244359 -0.21929701857 0.1295984243 
-0.94545437196 -0.28172495393 0.16354534807 -0.91375419508 -0.34965908441 0.20686177911 -0.86580206361 -0.42458539304 0.26479054111 
-0.797358522 -0.50013105994 0.33776961123 -0.71210105703 -0.56415225624 0.41790467377 -0.62562449614 -0.60669344378 0.49042538179 
-0.55451494276 -0.62877278181 0.54512197452 -0.50459271921 -0.63803358766 0.58163504772 -0.47200985351 -0.6411565209 0.60508265046 
-0.45102405651 -0.64168488523 0.62033685085 -0.43830644102 -0.64123379475 0.6298465561 -0.43289257275 -0.64075961819 0.63405924972 
-0.43661700815 -0.64122650547 0.63102627273 -0.45185665441 -0.64334207179 0.6180101476 -0.48234782601 -0.64691719576 0.59062569922 
-0.5354047363 -0.64928790772 0.54015459013 -0.62097194951 -0.64003223926 0.45249593439 -0.74566627548 -0.5897487625 0.31012610781 
-0.88101614617 -0.45605208115 0.12580560188 -0.964088543 -0.26399059087 -0.029021529598 -0.98806213022 -0.10286459826 -0.11468261091 
-0.98799311375 -0.0014908040595 -0.15449072687 -0.98369901808 0.052583740259 -0.17196276369 -0.98174956249 0.069632517362 -0.17697205733 
-0.98435167656 0.04625597112 -0.1700357668 -0.9883298554 -0.0084222775749 -0.15209589794 -0.9792104123 -0.18825232376 -0.075551512548 
-0.9792104123 -0.18825232376 -0.075551512548 
