# vtk DataFile Version 3.0
vtk output
ASCII
DATASET POLYDATA
POINTS 5568 float
7.688398735506003 -0.12936672192683352 -21.802541829528636
7.947964555354433 -0.06169588751346375 -20.493163344606057
8.071556863412003 -0.043759899497093344 -19.63933874726006
8.163774394665138 -0.026368186064515457 -18.754585953227664
8.196339912033865 -0.0020500987740051553 -17.80093484521692
8.077118829462318 0.009940825641811911 -16.863590476896697
7.7895338813650685 0.047556507029390266 -16.01296497490206
7.402526267967578 0.09978341279921486 -15.258851047164974
6.876361804712499 0.18308166518217714 -14.582688616739937
6.23050443672452 0.2929712228156827 -13.987647558668758
5.4630227428539415 0.4331000221615806 -13.461536290957971
4.620769197860058 0.5930099717940279 -13.004868727125906
3.7396502240923017 0.7607394032173878 -12.605788146105303
2.86014442676402 0.9191402922624675 -12.252500084940625
2.0032855536378102 1.0542274502350069 -11.923807289239631
1.163092572838647 1.1626156308791606 -11.595506351789574
0.342335527275095 1.2381411352055522 -11.244305071737045
-0.4459062508715804 1.2745036557873817 -10.851912510621348
-1.1954731341411866 1.269443433269765 -10.401053112392404
-1.8887232952160617 1.2211193781760714 -9.881208802573708
-2.5060779206847474 1.1326630864977636 -9.295729430177973
-3.037928213128671 1.0097899400568655 -8.650213820794468
-3.48166264745101 0.8624890494086039 -7.943466719229162
-3.832183071776788 0.6968331011422692 -7.175191875550213
-4.082075554562919 0.5196087650395311 -6.360846427595439
-4.230760456833275 0.3370952833178295 -5.51679151150112
-4.284556809359945 0.14202672359927915 -4.653167756959538
-4.254243745953632 -0.05810988999087344 -3.7952958979477502
-4.156182741969787 -0.2575208888219032 -2.9457361360763556
-4.014765873049395 -0.440646190253731 -2.1117978461402327
-3.8518632686230627 -0.5817453675338329 -1.2993645950229378
-3.686666078909994 -0.6664741314145048 -0.5158407934383722
-3.5493340825574475 -0.6759261020313996 0.2754324131025191
-3.4398724439100894 -0.5668325083435857 1.0698964736822434
-3.377952219204974 -0.3294099126191759 1.853612410747374
-3.3794837873391264 0.06522519528181187 2.556008497782391
-3.424257124807437 0.6001794576910158 3.160705590310267
-3.48175322173553 1.201544770317354 3.6505092787771245
-3.5521951027201637 1.8224704330954435 4.061305222215152
-3.630013380149486 2.397655827189151 4.426464514259808
-3.7064042820399004 2.873069478283502 4.783004958826965
-3.8080615375991758 3.207065055635992 5.224232579751089
-3.9309599382924665 3.2578141451029303 5.669329462745248
-4.036400117375053 3.0562057181155606 6.0793555728615445
-4.127760348860587 2.6197025290529283 6.415480807970851
-4.12183886190466 2.022822735864302 6.684032537533158
-4.044935647580315 1.2804706072927536 6.888857171294555
-3.898455627229186 0.42076875452672347 6.997067938756358
-3.645633837147172 -0.4260284985444929 7.067572807406159
-3.269354088483155 -1.2246589682333608 7.13050120299834
-2.764154299310073 -1.95916574028816 7.207195881213985
-2.121127233676278 -2.549155447913434 7.327983129510484
-1.386936080168962 -2.9519463280653784 7.541600760254931
-0.6339949509472852 -3.1886791033302866 7.850521135682544
0.11794801475784789 -3.293696235684172 8.226399151204813
0.8754189135204291 -3.293067004742438 8.638579603161743
1.6430355519296933 -3.2011380073379336 9.06077197858498
2.423372849722318 -3.027943083942664 9.458629079290091
3.222760116155837 -2.7708198119975775 9.797975227618858
4.0332053671255315 -2.430695347326969 10.052112008115408
4.832385420359309 -2.015225455914955 10.208191842148407
5.590673263024902 -1.5443332003250458 10.261147196859998
6.290356217661472 -1.039934335668204 10.223170729087958
6.92355856090799 -0.5146412889634291 10.106308191277595
6.944292867246084 -0.0029605090474042126 -19.778192001040896
7.071372995853431 -0.08961254139645972 -18.994059808167474
7.134011032930418 -0.18349231536283978 -18.352336755987935
7.16626256164715 -0.2737403869101829 -17.74404856143643
7.163202901374097 -0.3521291591869342 -17.144683900501057
7.100045694796998 -0.42382037668632355 -16.535966014003126
6.9590543694200795 -0.4610309956927316 -15.944781046959449
6.776994241838003 -0.4760787814018625 -15.344558499885931
6.510976303710278 -0.4457218323273955 -14.75030300708113
6.16738354058417 -0.38609606857995027 -14.196814381926076
5.735497037023651 -0.30188432685298877 -13.670437245723468
5.215385837971042 -0.20037811130652206 -13.172028762431632
4.617164460592804 -0.07721975231993108 -12.717570650158978
3.959630468073848 0.07217593958315552 -12.299037303108008
3.2577919026924187 0.24215553796797068 -11.90961281337631
2.5487238267802543 0.39709195353784804 -11.543612099377821
1.8329199771072822 0.532290167581504 -11.175473207641929
1.1350751915642414 0.6367934982448695 -10.793492019063645
0.4698372241410621 0.7088130554875967 -10.38608653325559
-0.1423346805121224 0.7478556463722323 -9.948266412594318
-0.6869755662169256 0.756315811263051 -9.485523613374967
-1.1577139330676736 0.7371377339638877 -9.006641159595205
-1.5568822520565178 0.6967767427476033 -8.5166742480711
-1.8878689919491065 0.6416192260117204 -8.012709593255856
-2.1542612149115334 0.5747527012826212 -7.489380231516841
-2.3603217394077944 0.4887178622376034 -6.931780964615396
-2.512166521100719 0.38724361915515515 -6.314707865186427
-2.6187891622559056 0.2644408727887691 -5.631886740560535
-2.6903401324895797 0.16071412573479504 -4.907271909458226
-2.7214746034768296 0.08246285720079446 -4.186766792667953
-2.7176651531223337 0.06942902292250938 -3.533137044918864
-2.673191697889995 0.06907476598706716 -2.9550693780851924
-2.624848420205131 0.08478394926495686 -2.3699700129845267
-2.5673833585303876 0.17055661763781182 -1.8042645814447378
-2.518900278067504 0.31805325193403133 -1.2517589080171894
-2.497380236425358 0.5602573094541381 -0.7310969043794475
-2.502535892350857 0.892836857508244 -0.22451724745363744
-2.5320724351642254 1.2504163730856943 0.2618056447400043
-2.621895464443906 1.7080283841742383 0.7222216731485498
-2.715942859499858 2.1087808758736917 1.0619600396602094
-2.7936104083618227 2.3898240546062324 1.2851473276708918
-2.824514015464938 2.578820680816704 1.4741384498666434
-2.845484889449524 2.6417174593112236 1.65228536530384
-2.8485749349837546 2.6212018686328253 1.8006020236094178
-2.875604213141936 2.4530402216328757 2.033248006204051
-2.989514341658233 1.954251748485569 2.3041292851817983
-3.020024246422176 1.308479759008509 2.505365154294253
-2.9694558252382866 0.5451456064418635 2.6390267187163214
-2.814324311781019 -0.23280285293053893 2.7359440219803726
-2.528879684433395 -0.9906236768864491 2.8494030166165785
-2.099826013897029 -1.7004525837383513 3.013193435063144
-1.5311550425162679 -2.3052004916991087 3.245701935809508
-0.8943999386723542 -2.734104941174025 3.5376851957189177
-0.22484142518731276 -3.0127044249263584 3.9083309968640787
0.46532202605637674 -3.151178371910011 4.324928869127766
1.1494892747179226 -3.1739579250368433 4.7410511405610505
1.8565658062968304 -3.109338636777461 5.152352734207632
2.60021600875314 -2.9572369600215653 5.536350088268443
3.3799701764926273 -2.70995080988069 5.864753551937821
4.166744772144227 -2.384146842156187 6.107784009934515
4.94256516819145 -1.9935318892317995 6.2632576183385105
5.686366653397945 -1.5578303047138589 6.336030914946682
6.386615655210984 -1.0946068106758056 6.338811104185184
7.029860566662728 -0.6149365100957277 6.285547389893441
7.7440267152904285 -0.1388166168337588 -21.953878482200192
8.015447985529159 -0.05626798424716892 -20.598774456306927
8.144268998658308 -0.02861869111008562 -19.727002554825592
8.241787295615701 -0.0014536044479697627 -18.818613103317713
8.277642003275256 0.03258495858267027 -17.834404232086797
8.153528072423638 0.052401215926003816 -16.869130161461378
7.853147429311357 0.09681500450463187 -15.996693697362861
7.448302363724653 0.15493560372955167 -15.229424433884859
6.89926945906033 0.24287617013338117 -14.54581405331771
6.226382954639541 0.35726198299360784 -13.94673982680141
5.428642982842343 0.5024400462604415 -13.42032521492988
4.557627658177787 0.6675694709543052 -12.966990164795204
3.651890734659987 0.8391888692786011 -12.572503954258236
2.753563035128652 0.9984112764846849 -12.224459504252584
1.8838403633864562 1.1307849955152873 -11.900437636041488
1.032946494358991 1.2355144287439126 -11.575017155500252
0.20371720152782613 1.306368377026017 -11.225053382702354
-0.5917787635870102 1.3373787814505023 -10.831769815708668
-1.3481254140771641 1.3262023274946075 -10.377409195797746
-2.047948260215831 1.270828327455013 -9.85092396396292
-2.671254850924785 1.1743953004169776 -9.25537087377769
-3.2081100517571928 1.0427871015575818 -8.595957931453912
-3.655392586392698 0.8862515832348702 -7.870811720248068
-4.007187669037526 0.7108488826978707 -7.079742071203516
-4.25511014271924 0.5237911919527883 -6.240093342904452
-4.398284951711767 0.33275892804403273 -5.371266771950708
-4.443321274998684 0.1295525910718806 -4.486524465308112
-4.401420700223912 -0.07717837898026358 -3.613614413972776
-4.289270084981917 -0.28471518536621465 -2.752718785524234
-4.133457172815254 -0.47672034205411745 -1.9083241922005763
-3.9567990813430765 -0.6288998185925017 -1.0816693207764754
-3.7810403862673927 -0.7210482041381395 -0.2807945170038637
-3.6360691249315 -0.73270874344076 0.5273950863088103
-3.5221937207271794 -0.6217737763999731 1.3405565785898843
-3.459214803723552 -0.37681523570002473 2.1432069165269727
-3.462807953766427 0.030662224417405848 2.860437655398761
-3.5109990658263874 0.5827988602404446 3.4731537461740043
-3.570947170855393 1.2056386988526664 3.963720536593224
-3.639918763478974 1.8404599439498144 4.371038033453679
-3.716311185123869 2.430291376187543 4.738196381053767
-3.7922270218436402 2.922386914781419 5.106042288410061
-3.9006513918591263 3.2689366802729083 5.570570477022169
-4.034016320170288 3.3174868474993793 6.041286448843943
-4.150950557347244 3.095902147028106 6.4773372166690795
[...]
CELL_DATA 87
SCALARS quad_param_group int 1
LOOKUP_TABLE default
3
1
1
1
2
1
3
1
3
3
2
3
2
0
2
0
0
3
2
3
1
1
3
0
1
0
2
1
3
1
1
3
1
3
3
2
2
2
1
0
0
1
3
1
3
2
2
3
1
3
2
1
1
1
3
0
0
0
3
3
0
0
0
2
3
1
1
1
1
2
3
3
0
0
3
1
3
1
2
2
2
2
2
0
0
3
3
SCALARS single_component_feature float 1
LOOKUP_TABLE default
-0.21693732406616
0.150399929740502
-0.24439877841083327
-0.23451459276253697
0.25720725707587455
-0.08821213603783057
-0.07324695880999338
-0.31740667476367485
-0.34878344415235973
-0.30438367499205177
0.0009717741088256862
0.5317260773072232
0.20963087001496403
0.33526939860223476
0.11636058838585242
0.5642109718275999
0.632915543806363
-0.35071537111957246
-0.32388249436951055
-0.09840149783819215
0.19724035956709465
-0.14692982768574375
-0.2325013414022845
0.10906992152917486
-0.06304681556990124
1.128943535029528
1.0891815323194636
0.6832707165043107
0.02322029406723683
-0.3294744886153209
-0.2666312905966266
-0.40809021967614734
-0.328908479077307
-0.24929618764267195
-0.0844800667238468
0.6748698330116749
0.0845810745561532
-0.21967714513080294
-0.13291543043959436
0.704353949406618
0.8890099542813804
-0.2544206405367698
-0.2727327600558464
0.33133646400391964
-0.009077429461288398
0.2074389718672056
0.04177113911380419
-0.34762126295618306
-0.33320639466459645
-0.3488813019581098
-0.3833977321391981
-0.3029007221303589
-0.29575848525901827
-0.3166756482555923
-0.3447287372774589
0.06798987456397153
0.07051098452612106
-0.22994249216036983
0.2675796441452739
0.3602970480443911
-0.015480159581021741
0.032175825540576006
0.26472659750705096
0.45086574292828346
-0.36435510021394374
-0.35749600880375837
-0.22049118698707215
0.049502872920659816
-0.3150865707243385
-0.09958603413176002
-0.3470676329874225
-0.25847245479059744
0.9564003256804738
0.7428539704996324
-0.3385080367767164
-0.3783808963491799
-0.3113709623251
-0.3876475937180052
-0.15027795454903223
-0.1650138945680709
-0.049152831373007334
0.09934740378481552
0.08737178811941247
0.45993030184955247
-0.11454931892628803
-0.31877141382482327
-0.17864663886932772
POINT_DATA 5568
SCALARS single_curvature float 1
LOOKUP_TABLE default
0.054741278122487184
0.09735785462416115
0.12864640132357022
0.16333135392956122
0.19912067442030945
0.20163092900382518
0.17984902442409637
0.16001364844272079
0.12450649809283193
0.09088038217832209
0.06204146807330429
0.04386101370814902
0.039427653580176567
0.048647239016145885
0.06822945188886244
0.09326488540150836
0.11648834526239822
0.1339754968233864
0.1453397568431588
0.1499551439875823
0.1494351037917884
0.1452046022563281
0.13779687269055998
0.12757400226197632
0.11357122851337555
0.09549302042018898
0.08131503584547506
0.07491079457603232
0.08396851122157471
0.11392837404242351
0.14716893954616667
0.19727506054274194
0.23128924409499452
0.23917940354601552
0.2248153670144068
0.16552116172666784
0.13676192047836944
0.21121756594719315
0.468091562544343
0.6497348941056567
0.7172153906971217
0.6981912758065527
0.5255607471061833
0.33237014393114134
0.2134507346946533
0.16438284241705844
0.16077726998637087
0.18634801981914173
0.225006334096445
0.24827408489886846
0.2544673006172852
0.22719828556411228
0.18183159036784272
0.1424027423644213
0.12267247732695881
0.12116544941327498
0.12929183216287715
0.14124846488085657
0.147050996637382
0.14859348696574476
0.11215065077061552
0.07570781457548628
0.03926497838035704
0.002822142185227805
0.07800435110360211
0.116752285229067
0.14090667816746666
0.14923956101815747
0.17648800467514392
0.1905926478521104
0.17902678364595898
0.18998335870653124
0.1734083534239594
0.14631462186885355
0.118495837366214
0.09063037242116619
0.06243818336465841
0.05049044820575069
0.052381044852534635
0.0699258878103719
0.09605139619896731
0.12071044372052288
0.1417481692261955
0.15881608687713822
0.17275217204047313
0.18250026406161732
0.18157975216006986
0.16483796599031114
0.1383058211137723
0.11219101369322083
0.11420095855321696
0.12146324061249786
0.11210083779446894
0.14422990870234517
0.14976919931643234
0.19079497150557564
0.2363285541137097
0.21024694367037375
0.22161188384260433
0.19816023368375243
0.18641860266440782
0.33604803898446434
0.7960004137581748
0.9654276477687882
0.9750664988435834
0.9699735234900404
0.8788636470638302
0.4070140764200608
0.2552686251563966
0.21184843145566865
0.18944495814042722
0.20348582427296708
0.2328342868962878
0.2483827805076154
0.24975529002610775
0.2338169455365025
0.1950958875714311
0.16301471177822927
0.14348191236020819
0.13549215222050554
0.13820195039462815
0.13934385241562042
0.13405188837884083
0.12634179636539775
0.09163037513576443
0.05691895390613111
0.02220753267649779
-0.012503888553135528
0.052977193061355524
0.09540015892301261
0.12725826842929558
0.1630955892305038
0.19903761669098144
0.20088547247505542
0.17859809815831346
0.1572557839984395
0.12110542502254311
0.08776354535456908
0.05996038760050529
0.042814731619712325
0.03979552533557956
0.05004461153728762
0.06980865996575714
0.0947153434099692
0.11742104744191678
0.13419180298670033
0.14471853834088655
0.1484263455170163
0.14705743710373972
0.14226303919680805
0.13477534121968404
0.12526278692212428
0.11234690503637863
0.09469481105473207
0.07970024265042534
0.07353011272483034
0.08318478911093785
0.11312025788298412
0.14754752444633307
0.19680789146642627
0.23005328420338594
0.2393322155897782
0.22401614896123168
0.1635320235615663
0.13624679599067818
0.206385057856527
0.4498323670868733
0.624212060498301
0.6933315269096082
0.676594785774584
0.5084031104628448
0.33046143063854033
0.21392389699723824
0.16147217752067364
0.15894301388457738
0.18505804432992598
0.22417093735946556
0.24785737714872602
0.25443598680069274
0.22661283035637364
0.18102144011731439
0.14120251057927002
0.12139282230693901
0.12023134480993719
0.12867311430259545
0.14136073485130166
0.1479414156173048
0.15009544608609943
0.11353618502480509
0.07697692396351075
0.040417662902216406
0.0038584018409220655
0.053609276729619765
0.09610651974424322
0.12776177286607762
0.16319723459712993
0.19909154266731682
0.20117508747340593
0.1790652946574763
0.15825203180070663
0.1223217265213752
0.08886759291805361
0.060674545635326135
0.043155340707067266
0.03963397386957783
0.049521950217012986
0.06923994940516878
0.0941996044060922
0.11709376995023156
0.13412356105435072
0.14495171108822102
0.14898402443693207
0.14791638255224038
0.14331930269251456
0.13585652521588126
0.12608797597404584
0.11278235076361368
0.09497862940409116
0.08027144179023081
0.07400903054827646
0.0834573507891178
0.11340174293839893
0.14741371878564444
0.19698816724049703
0.2305085431461863
0.23930565300093679
0.22431654324328457
0.16422861739048805
0.13642994658126828
0.2081063287424194
0.45630483763930474
0.6333064637586361
0.7018865787779814
0.6842427378482281
0.5143835119008414
0.3310946146264157
0.21369374284481668
0.1625099714451556
0.1595981676092802
0.18552205277055875
0.2244749801198716
0.2480133132543249
0.25445327921398864
0.22682491170751318
0.1813103649493772
0.14162926809739707
0.12184914915226384
0.12056548435343785
0.12889504397100512
0.14132081123660084
0.14762229232605398
0.14955764735558008
0.11304009652857518
0.07652254570157027
0.04000499487456537
0.0034874440475604618
0.08354783663878221
0.11773936073711706
0.14160575143281862
0.14115605937271508
0.16442676460500244
0.18305027068201465
0.17475483807580808
0.19488944561671345
0.18673460217537108
0.16590156637310635
0.1422485167916933
0.11316939815654344
0.07776484856178924
0.0575928855322395
0.05126437360974473
0.06331019801250945
0.08709943026506367
0.11208056111355122
0.1344065248314006
0.1540641047329158
0.1727137228100187
0.18972463359251854
0.19388098876191695
0.17807223298155136
0.150200664365853
0.12036630241919756
0.1282867502257381
0.14739041563741892
0.13493844397473742
0.1701549024852318
0.16324865574198336
0.19087963437332822
0.23327890966110928
0.19617936310246614
0.2192771945962281
0.21379265459590485
0.2627001453019811
0.5029368219808137
0.9044848986636971
0.9918677994013672
0.9938798016772946
0.9907927905332267
0.9427938472702776
0.4520514147729632
0.2756758958847555
0.22858028858326226
0.19910102261094975
0.20824562757733575
0.2337185595777735
0.24633457068336684
0.2466061997307307
0.23529905675778012
0.19986485121544548
0.17063734176176115
0.15086309559424843
0.14034031068929126
0.14101291234483856
0.13865148225990861
0.12991988066985008
0.119221166772064
0.08507926049023201
0.050937354208400024
0.016795447926568036
-0.017346458355263952
0.0632078648315471
0.10608092733373967
0.13455117857439908
0.16226206887857778
0.19643542601838102
0.20237992583206116
0.18348277325215484
0.1723146327474525
0.14123272405466633
0.10753534476953198
0.07617777770768866
0.05350484563907712
0.04165245044930297
0.04496323774938857
0.061153942354877804
0.08576298772410662
0.11108690056943041
0.13173258471522423
0.14695992628327886
0.15602365679657645
0.15996869059112048
0.15911581282852538
0.15262802897763716
0.1392259980491339
0.12010608667013882
0.0997919837349075
0.09021090369064969
0.08421692174348515
0.08927997311666626
0.1194013332798874
0.14559347852929308
0.1978766245039262
0.23571808097309555
0.23488102868801866
0.22679811765021715
0.17599999339312586
0.1383095385377063
0.23439945790289304
0.5642616536461719
0.7765145390914948
0.8299322679710311
0.8097319717614515
0.6299064074707466
0.34808195429097605
0.21878750036384953
0.17919082840424722
0.16995975324712223
0.1924108225502714
0.22850420724994652
0.24951001234265116
0.25390856505109843
0.22978054438980403
0.1859501171336863
0.1486474063371104
0.1291721217146523
0.12578939098300287
0.1322802946773749
0.14066608480166215
0.1427216526618035
0.14123704038749726
0.10536306649113063
0.06948909259476399
0.03361511869839735
-0.002258855197969284
0.06419528317265254
0.1070117541777749
0.13515228113884806
0.16187778467625807
0.1957615164414361
0.20214294705400798
0.18363668797040272
0.17365088263161296
0.14324202885563156
0.10968475105572856
0.07828055808220329
0.055152046348829004
0.04235539160842765
0.04486621834770037
0.06040432137209719
0.08482178883855654
0.11034233318199177
0.13132511577892467
0.14698526368977466
0.1565782244750853
0.1610922011983543
0.1607214935657648
0.1544126722582553
0.14067358446834652
0.1209774173027657
0.10037248559648367
0.09140823565719006
0.08570179997984223
0.09014475738456461
0.12030052388500866
0.14550022798468998
0.19775364169533052
0.23606694625881294
0.2339673720374926
0.22680823035495093
0.17727076391461996
0.13840135129779754
0.23709555420419326
0.5765166766249215
0.791398447423597
0.8424761936027905
0.8230165921601581
0.6445654248949801
0.3506532216186597
0.22022744436499592
0.18103944276595368
0.17108944083478278
0.19311503907856392
0.22886250442817876
0.24957354891907146
0.253767319508164
0.23006285758024758
0.18646460882052465
0.14944085790722667
0.1299823177845084
0.1263538767549232
0.13263712625367846
0.14059239195027629
0.14220202746605642
0.14034911517032359
0.10454382569809657
0.06873853622586956
0.03293324675364255
-0.002872042718584461
0.048432644057578925
0.09016786661132932
0.12343142429185634
0.16180817965859184
0.19786644352067193
0.19806675755742764
0.17461517979637575
0.14981119134748783
0.11241256041280051
0.08022162883031242
0.055740496138811824
0.041353865815867044
0.04180986503404139
0.05440140192961275
0.0739727482943998
0.09830268468917225
0.11955619617198776
0.13438339837486676
0.14269621942341867
0.1440903879571919
0.14064418026675088
0.13457396753935977
0.12701959180039196
0.11939139185296618
0.10927985307489006
0.09269291564316501
0.075797883797352
0.0704983148027039
0.08141939523810307
0.11127551886387388
0.14838154405516774
0.19509017963210085
0.2263605997254613
0.23860488327592289
0.22141546090400738
0.15960159753589875
0.1355763473149445
0.19496060547641764
0.40593238010017124
0.5606032865399763
0.6321159764222373
0.6247945070111275
0.470492858712991
0.3274651110611769
0.21746960175441096
0.15414290723928037
0.15427886193792606
0.1816442007891215
0.22181422414535829
0.24650457083284955
0.25410086888667044
0.22500005633305264
0.1789777460111272
0.13822994768149846
0.11816858817604163
0.11783429028749198
0.12706059043296547
0.14163869934569365
0.15025058485050077
0.1539688339404814
0.11710813667438612
0.08024743940829085
0.04338674214219558
0.006526044876100312
0.04656079564765101
0.08793670796242468
0.1217435018429335
0.16099332149018733
0.19698418263013506
0.19652610003877075
0.1726510745992951
0.14658811134701868
0.10884272318674004
0.07730393916575959
0.054400002383605574
0.04118019616943757
0.04300667515217274
0.0564343208828006
0.07571893066101575
0.09972411785445133
0.12032808485031164
0.1343097971152885
0.1416839474687113
0.1421328070919073
0.13787290005439165
0.13134405066228177
0.12381500560943526
0.11698360359193823
0.10802488654103454
0.09186919264030505
0.07427388267613579
0.06940653824983302
0.08075381744883431
0.11056462484133762
0.14862559851725726
0.19416427257243227
0.22461419971870708
0.23783452571963093
0.2201267967173385
0.15894147742362139
0.13606908858010922
0.19118367949182344
0.3894840213018714
0.5353222529246695
0.6071145502068146
0.6051330805337424
0.4572288711008261
0.32695429890901334
0.21982928403595497
0.15117058127041985
0.1523682824081125
0.18018622794693864
0.2207450137666781
0.24581832693204742
0.2538462441280259
0.22428255299085526
0.17814662043918542
0.13704765467357719
0.11686079405836863
0.11684180895028491
0.1263820816890498
0.14174899942819114
0.15121677825976465
0.15557915307435727
0.1185924290303715
0.08160570498638572
0.04461898094239995
0.00763225689841418
0.049225157955381155
0.09109927161920123
0.12412568394264885
0.16210283994674757
0.19816935376381012
0.19865163439683922
0.17538909800308064
0.15114681444546552
0.11392423205529945
0.08148880691386863
0.056371732378095896
0.04149594389530092
0.04136176329662694
0.053576777337500416
0.0732383949295123
0.09769150893490172
0.11921074089250407
0.13438760566222988
0.1430928098384522
0.14488830705857914
0.14179366487105813
0.13592886967827866
0.1283726743242908
0.12041065027951575
0.10981036771169415
0.09304002456463756
0.07645583974047569
0.07098356928477191
0.08170878853950851
0.1115814308650316
0.14825772120343247
0.1954432642625175
0.22705905201867915
0.23884771949316774
0.22192330521307108
0.16008545182228384
0.13554149547555708
0.19676190054241677
0.41320916144338726
0.5714668766581209
0.6427418130654999
0.633414143553763
0.4764985329096273
0.3278016139493144
0.2166222154878223
0.15540750891696317
0.155088351753137
0.18225113046388247
0.22224839191970025
0.24677125726551408
0.2541871868775371
0.22529361594709
0.17933087488160462
0.1387372831719271
0.11872501658390089
0.11825281112757902
0.12734477297349586
0.1415913016933299
0.1498449117810567
0.153290802109342
0.11648302728584409
0.07967525246234616
0.04286747763884824
0.006059702815350315
0.06902558636030696
0.11121921195887856
0.13778187925996582
0.15908944002240144
0.19122132822816573
0.19990138794840287
0.18349654523043873
0.179885142632442
0.15331022470450614
0.12095727286669185
0.08992037888584024
0.0648063809962761
0.04710857032705212
0.04532226554626913
0.05703443537043743
0.07998647464326143
0.10626772691890715
0.12878915168862926
0.14650020507399655
0.1587094194895565
0.1661816898306297
0.16852564803493633
0.1633887442086249
0.14815834251077928
0.12575662872666296
0.10358814162773873
0.097925436832498
0.09465699711315867
0.0954432891207969
0.12587927449818057
0.14557555242330136
0.1964716290083291
0.2372129809564928
0.22809771817726002
0.22611028491943846
0.18367115594737038
0.14052620443217376
0.2523009667793046
0.6411581146960879
0.862285664543886
0.8997922719319214
0.8854513377389515
0.7231343196716353
0.3655698061350581
0.22952301532401437
0.1906042414254119
0.17687974283533942
0.19659577593477226
0.23047671359747993
0.24962981957199704
0.25283035334337794
0.23140605011665802
0.18913066065034012
0.15358745668834833
0.13417151627829446
0.12923885307241198
0.13443564324099302
0.14020857088840488
0.13957618211193745
0.13584989740176764
0.10039339772274317
0.06493689804371869
0.02948039836469421
-0.005976101314330268
0.10446294768579387
0.14457153412305457
0.18199606081484607
0.17710822333438528
0.19382531075701934
0.2008992147877668
0.18280093042230974
0.1990982759769135
0.2116953447071188
0.21519791432553007
0.20915330742316773
0.1801902394918371
0.12986978254571008
0.08845803097528442
0.05841988802325781
0.05166797835645121
0.05985308528478798
0.07718289742773954
0.09581658268786172
0.11458070993244984
0.14267071171598864
0.18807338845373014
0.21622425771092993
0.21560340610802436
0.19241713041032485
0.14828110992685084
0.1684096364342041
0.22870793100653525
0.25816804618874617
0.31817250294857646
0.2870591602931823
0.258639120978382
0.23616170610249732
0.18224014685394435
0.23017879475747646
0.2887791403240721
0.6669133951359552
0.9974563139083857
0.9997201676071842
0.9998762113897147
0.9998885972432091
0.9851148361625276
0.877222688043956
0.7095180311277984
0.32905013832455277
0.27621572131029815
0.22584170182028654
0.21943104823985948
0.2326502011489956
0.2366093716107973
0.235190919093547
0.23826096952363696
0.21408518939728305
0.19350325153895456
0.1726180355156753
0.15432435851256718
0.14869573150889784
0.136596735876735
0.11867818336580906
0.10002080882919703
0.06749486547551208
0.03496892212182712
0.0024429787681421594
-0.0300829645855428
0.08116335483941418
0.11758332335508674
0.14135717480978338
0.14450799325706026
0.16954057463702396
0.18611611568867004
0.17646747585417058
0.1929470238776597
0.18096671998480682
0.15708528799570415
0.13138348537296324
0.10277670365067834
0.0705030212130817
0.05406799512865282
0.05150201847434633
0.06614281090011793
0.09124957758145512
0.11624479444721032
0.1381403313060714
0.15677780788419143
0.17334564417533344
0.18689231556862176
0.18853724095988797
0.172048454912956
0.1445795142788094
0.11651143786651794
0.12179308204353478
0.1352221340678427
0.12248659658572474
0.1560598409384007
0.15488920951094537
0.18915689600416338
0.23483099436161917
0.20212955422557374
0.21981215464752135
0.20584016771293645
0.22383575129922195
0.41173784347888653
0.8587349164851887
0.9840482119408261
0.9882538839661313
0.9846291875334406
0.9211835621971203
0.42963033700469316
0.2665427360093279
0.2209767976330132
0.19473598048338972
0.20614690897283114
0.2334110297501863
0.24736778303627505
0.24810453017183465
0.23466338177589344
0.19768784935812944
0.16715138560924972
0.14750009768716324
0.13814090736996604
0.13974853730932438
0.13896746313525338
0.1317785466004391
0.12242322024009628
0.08802370461284591
0.05362418898559554
0.01922467335834517
-0.015174842268905198
0.08737505798642643
0.11774594334115693
0.14287513486644784
0.13864155098332565
0.15928947343355515
0.18085758976905242
0.17388704183271148
0.1972634328466053
0.19543294356906207
0.1804615483455941
0.16084453100310714
0.13124749021538454
0.09105195410245728
0.0646113446405692
0.051812097729101884
0.0591407771051265
0.07978907612230403
0.10406711445180442
0.12649938163140578
0.14721787609505047
0.16911546037340355
0.19268637772485506
0.20194613858294266
0.18835473935958139
0.16055960047293782
0.12739802726158744
0.13951228230747081
0.16913878799996798
0.16366408493811527
0.20282588207687813
0.1862774996376316
0.20076166925341354
0.23054834291507467
0.18886442657289024
0.22118445435202358
0.23134376051030786
0.34665239234726336
0.7072662337012445
0.961051277543697
0.9971198635250834
0.9977417227667664
0.9945876093299157
0.9558263538103248
0.5007425290114998
0.2906424203999951
0.24153727545979847
0.2064634758237568
0.2116006064466395
0.2339134442965013
0.2442175556122692
0.2438255599669231
0.23625918792566128
0.20362120413882792
0.17666838853096248
0.15664256387075215
0.14409012548857897
0.14313023123836754
0.13810697386753323
0.12680985738306086
0.11387323765556805
0.08016802165927273
0.046462805662977405
0.012757589666682084
-0.020947626329613236
0.07607944325887953
0.11591005761295599
0.14046804191786316
0.15188740690782296
0.1803689506377624
0.1931328523214275
0.18042884556880218
0.1880053924257563
0.1689218353223257