# vtk DataFile Version 3.0
vtk output
ASCII
DATASET POLYDATA
POINTS 5568 float
7.203932134206038 -0.026812953403725432 -20.63246030680974
7.362080154105991 -0.07569842122989394 -19.67860094490755
7.4411050559265055 -0.13298207306222756 -18.955655154976128
7.488355015321499 -0.18738065460881664 -18.24494406876507
7.489262499670371 -0.23101227343518752 -17.524467355627642
7.407378000403765 -0.2698209306742493 -16.797369328015808
7.220572675755356 -0.27734936136781485 -16.106495208332042
6.973597739158922 -0.26543597969961374 -15.440462466485952
6.624176863864889 -0.21434193340154628 -14.800444743930576
6.182422673750189 -0.13612245753634822 -14.22131164576068
5.6423171211613035 -0.03169494176472416 -13.68648092559442
5.016770709329106 0.09118047293230135 -13.197447662092795
4.326577650743079 0.23071391285142984 -12.755142873097167
3.598337022155438 0.3820241056682369 -12.352197338086276
2.847684129915782 0.5364606498080666 -11.976610745377227
2.0931295669063834 0.6728428591381093 -11.61636319119022
1.338062045560367 0.7855400600267934 -11.247458020069482
0.6045707555113328 0.8645418834881343 -10.855964458604385
-0.09501839301161519 0.9078824562973776 -10.42810819891998
-0.7397798428160631 0.9148003686436211 -9.956857027716424
-1.3136326176084694 0.8885005151150346 -9.44596398229233
-1.8095984052614005 0.8337334777723698 -8.901984881322669
-2.2282641617239567 0.7586723973308299 -8.327876261485997
-2.569790973147537 0.6697349118603978 -7.723335647904587
-2.835111644442061 0.5703634811200364 -7.08916427689577
-3.026773952823918 0.4573959379802369 -6.421593177889495
-3.1493099218431344 0.32949763027264445 -5.708576808082065
-3.209440492228489 0.18588474727206586 -4.959312525389441
-3.217986236016289 0.048841617000921544 -4.189976841009929
-3.182574258448771 -0.06854936070428423 -3.4315826854082974
-3.115185795806176 -0.13626962013837374 -2.7219014674386353
-3.0212291961977655 -0.17910882817690382 -2.065355742386407
-2.938115210706622 -0.18499410693945403 -1.3932816930536265
-2.859537658411818 -0.09468237042516912 -0.7365349621232098
-2.8035410246357593 0.0852811947919838 -0.09009250846989436
-2.7865716124262168 0.3847948275505206 0.5037100221717303
-2.8052182823276444 0.7865141308243124 1.0543181271318245
-2.847012905660697 1.2308557917807876 1.5480947781022378
-2.930256120989617 1.7410410673571382 1.985363866728556
-3.022082505494542 2.194396709076163 2.3257118810914457
-3.1001110517839123 2.538279426786354 2.584958424800167
-3.155256336713632 2.7696983988958994 2.853701166836391
-3.2107925017013503 2.8248809636286323 3.1097644424065383
-3.246259751548553 2.75009065980089 3.336056301133203
-3.303715817982582 2.4835164155489045 3.59844369003069
-3.3619805976712973 1.9548406483207774 3.860968562834164
-3.3463870752098717 1.2710447533914593 4.057145470613702
-3.2555955503625924 0.46770624840659303 4.1759997029779266
-3.057599799021468 -0.33678328967442517 4.260725306321038
-2.731492023707154 -1.1075764042429928 4.354892384957285
-2.2719886294704628 -1.820118738893357 4.485108780320162
-1.6796553132587944 -2.40909466922287 4.671855700437011
-1.0158854782307918 -2.823064779971575 4.9273745967769385
-0.3243235230281012 -3.0853926801393197 5.265854579105677
0.381187831782671 -3.212105525157256 5.658472633149795
1.091759032179438 -3.226831066752933 6.066890180807793
1.8229863296680575 -3.1481813927273867 6.4777182659842865
2.5817728326762595 -2.981890761926641 6.862242662296214
3.3697577914080146 -2.7224072107644726 7.190471793115535
4.163698991530114 -2.3799260334828545 7.433959937095717
4.941555197973459 -1.9685208320598973 7.585796664647168
5.679578236770851 -1.5093346528708427 7.646716229124264
6.3663081454455215 -1.0211452078885805 7.62947552979947
6.990339506608646 -0.5171183374170595 7.547444189148873
7.052741863316213 0.06688708719313839 -20.71786786119112
7.15605023662729 -0.031634888609517214 -19.84509950519149
7.212862999667098 -0.10708789825840188 -19.119164627090402
7.236187391060196 -0.17255240542286 -18.413994685796638
7.20857007331889 -0.22062502583928303 -17.731303399070704
7.133740585090773 -0.248816579733158 -17.024249618033696
6.976056194019049 -0.24777566371890838 -16.330028540892954
6.768467121480629 -0.22959049220692038 -15.635236037242814
6.463968313713604 -0.1749505707023159 -14.934552485930359
6.064643429817698 -0.09604427856410393 -14.311712979879442
5.570805957803238 0.008184294175702586 -13.739587850398008
4.9870630324316885 0.131066451083228 -13.22278550153298
4.340743415059618 0.27020739934745314 -12.747067258221954
3.655969899242619 0.4176617622344791 -12.308866058022033
2.940069337208943 0.5675094115568332 -11.896578890682646
2.2031969593466685 0.7042006672554173 -11.503714850159472
1.453918749264211 0.8215637533605596 -11.108127510428814
0.7198763347400462 0.9062584265077904 -10.69756499277575
0.01602502345051715 0.9559505772460155 -10.258105497066339
-0.6319463560380324 0.9701775643062238 -9.782226304837156
-1.2093383869448886 0.9534157020892629 -9.269378133382098
-1.7108425882499918 0.9123099393044775 -8.721412302043891
-2.1366735743531446 0.8558686497140566 -8.140625585089586
-2.486023386194357 0.7910503187197722 -7.530883935605228
-2.7644921684598893 0.7189644075025473 -6.888272207048077
-2.97594788836204 0.6355267828720055 -6.210398314068209
-3.1219834217518985 0.5365110411102543 -5.485848053493278
-3.202094428709379 0.4213107528047154 -4.733377159835341
-3.2202277125734606 0.29496927139002893 -3.965069618200808
-3.185747759408541 0.18094841422806252 -3.2149931965170104
-3.106800936016606 0.0920439068382056 -2.510681576722802
-2.9974092919232067 0.011416827340953103 -1.85130191492998
-2.909789129119262 -0.036707491908702775 -1.1535227990051888
-2.826432180177843 0.03771983048168888 -0.48913729905800696
-2.76303532837353 0.21121832791237954 0.17176123219138795
-2.732929950945628 0.5082020785188974 0.7741829535202565
-2.746849367463768 0.884711582455012 1.3458976412185348
-2.794870814104122 1.3164087905087853 1.867895606214012
-2.8826664222383993 1.7954336956798251 2.2993499510199036
-2.9864926379240675 2.2035075439810363 2.609403218593553
-3.063506238940688 2.514377927013568 2.822844881641481
-3.1173579862925775 2.7086142296266162 3.0588516957867498
-3.17602363545307 2.744580227410749 3.2702610680303827
-3.2163008989202995 2.6735318029783603 3.4665815966980924
-3.3020935419987403 2.387192553092372 3.701649603648363
-3.334306745878079 1.8782592200275834 3.944488579561898
-3.305721940468394 1.1901359295989073 4.120202397401707
-3.206679746163526 0.3781490454809081 4.223264471064741
-2.994496913384042 -0.4255251257953203 4.302444254814466
-2.6527038757797268 -1.1878034214324313 4.400008881215285
-2.1912989509021394 -1.8804122886195573 4.5358989694478336
-1.615203706790818 -2.4427038783826696 4.7233019133630405
-0.9867243596343196 -2.845241673173521 4.9648068875060485
-0.32928707453789874 -3.1112811353419625 5.2818770726644395
0.3464808506626188 -3.244171828195042 5.651129188851486
1.0474087409875903 -3.2632768519195956 6.039359136928823
1.7780560830653565 -3.17435344337882 6.433923050886337
2.5380890239591682 -2.9890064258304068 6.801535906628222
3.327459229540923 -2.7017290196289756 7.114426969806549
4.114048160331684 -2.3222652273972133 7.344542783891837
4.868195590406493 -1.8744030945122736 7.483615830842146
5.569144651094816 -1.3836140590855501 7.531989905530189
6.214244754651704 -0.8663715751997373 7.50318277247779
6.791588062721028 -0.34038693630474826 7.410892172348505
6.98348038486998 0.10981182900367564 -20.756993748406718
7.063315924490052 -0.010104058109734998 -19.91837898656284
7.109951105432887 -0.09394475701926021 -19.190698436736803
7.122385119615484 -0.1644804819787383 -18.4877363059489
7.082180130199196 -0.21452083860361887 -17.821588294434857
7.010519283792985 -0.2379495269458827 -17.123570038929046
6.866036903605766 -0.23299522567011755 -16.42740426731302
6.676516834027257 -0.21186503885700278 -15.718299224601463
6.392693211606471 -0.1554206436179961 -14.987256583505879
6.012223489232707 -0.07602833173306565 -14.342804090296513
5.538545734210072 0.02831858213733593 -13.75248111668617
4.973035743136236 0.15134970376107576 -13.22249295287889
4.345692911958334 0.29049571003928853 -12.731053319992453
3.6796589943601257 0.4363965917024071 -12.276405348703367
2.9787318309398385 0.5843269943569802 -11.847039678238612
2.2494854487833384 0.7212474337056084 -11.438985391612007
1.502643718828414 0.840799023401132 -11.030968849802813
0.7682636396323359 0.9281345740998935 -10.611546029389503
0.06242852198897031 0.9807634651405405 -10.16671478513566
-0.5870343785079986 0.9983557361960174 -9.688694848842673
-1.1660816317136926 0.9859779317467474 -9.174922867335669
-1.670193169812444 0.9511623906572253 -8.625059543995354
-2.099428941869685 0.9033088003468916 -8.041058390855676
-2.4525308391712124 0.8495828507437139 -7.42866495464662
-2.7372464120354194 0.7900866950740104 -6.781776338056139
-2.9580455763250315 0.7202817370201527 -6.098602219207613
-3.1150902325041123 0.6345734698591308 -5.36812463382383
-3.204417834288266 0.5323205105434002 -4.61366178160443
-3.226934805835533 0.4108562270184214 -3.845740831619053
-3.1928789267552293 0.29836857929527405 -3.09945756527161
-3.1086134394971836 0.19973812265590685 -2.3973227904559966
-2.99194988972749 0.10152352864502012 -1.7358720814107267
-2.902125404045294 0.03341336311095783 -1.0253453930899696
-2.816546853049294 0.10052870334676292 -0.3573010350294197
-2.749710045051739 0.2710309735489344 0.3103385204866024
-2.7135357707989987 0.5668858738596545 0.9168192801736726
-2.725292089124757 0.9320947699893694 1.4986844991164125
-2.776234815835604 1.358136035138687 2.034081145658923
-2.8660558183860934 1.823289302844843 2.4629443641364825
-2.974922813689706 2.211628966585477 2.759761926860241
-3.0513701086139533 2.508158442862741 2.953710537602739
-3.1045180213801036 2.686477515606775 3.175496532174069
-3.1642165121456216 2.7146304953662956 3.3682760710902446
-3.2064386774772364 2.64526241058383 3.551746814321448
[...]
CELL_DATA 87
SCALARS quad_param_group int 1
LOOKUP_TABLE default
3
1
1
1
2
1
3
1
3
3
2
3
2
0
2
0
0
3
2
3
1
1
3
0
1
0
2
1
3
1
1
3
1
3
3
2
2
2
1
0
0
1
3
1
3
2
2
3
1
3
2
1
1
1
3
0
0
0
3
3
0
0
0
2
3
1
1
1
1
2
3
3
0
0
3
1
3
1
2
2
2
2
2
0
0
3
3
SCALARS single_component_feature float 1
LOOKUP_TABLE default
-0.00805510339510358
-0.035105223958136145
-0.04749710163199641
-0.05326673028609029
-0.03880417668914981
-0.06296720453307358
0.01669378325056819
-0.07692492381238122
0.008772037439707222
0.042066351419635314
0.006254171175795992
0.026946538130603194
-0.03138869477401597
-0.014459120011577797
-0.0075394097343054155
-0.09465348971278947
-0.09732194143291488
0.006309479125378669
0.048098311525902104
-0.011468979696455833
-0.040180907735418145
0.02009385658293724
0.03537466995347549
0.06929573225095524
-0.06315048684326541
0.01580480035288178
0.012692449072680204
0.0003195668905044708
-0.009428994848270249
0.12208254405226994
-0.01654084763546886
-0.0379134413964076
0.024665359470131612
0.05859865228283922
0.05870396391170404
0.01688740267468994
0.012501310690633642
0.06940044574625501
0.0691145378455068
0.050628438659689634
0.01083350351244192
-0.010484632459946372
-0.013450176851462204
0.006360693896085165
0.0013701143540504161
0.01707909198508932
-0.06702592962009929
0.049733847778795984
0.014895916340256735
0.025128497376908775
0.003912194129353973
0.04121824085471507
0.04977657041833228
0.0678993961675529
0.029580165494223317
-0.04997089681487747
0.038151063859968484
-0.01714591400207105
0.0021541184198137914
0.004656912345062075
0.024261803145150466
-0.02302931527791412
0.03904856860789009
-0.0009212825489389245
0.03804202200001166
0.021202702435923017
-0.02083666063297273
-0.013638647895729945
-0.009755140241336937
-4.183857430728206e-05
-0.058962232929413536
-0.04287378196143061
0.03176916005381201
0.07483778155026505
0.04841168973303189
-0.03326321007503336
-0.012734783898787131
-0.05765299936845189
-0.03995964769416383
-0.001983894818662471
-0.08746001613671997
0.007111443761079122
-0.03221644017794065
0.012328833428665455
0.005640869137004487
-0.03387731976560275
-0.08275806341754544
POINT_DATA 5568
SCALARS single_curvature float 1
LOOKUP_TABLE default
0.0661556996856455
0.10393198045510826
0.13149727312163975
0.1496061084802158
0.1769320126078208
0.19120095851802463
0.1791344459187073
0.18014366120535974
0.1570033385756617
0.12358704584901666
0.09216025812441171
0.06575204142361568
0.047417931046029406
0.044628248591814246
0.055003390230470704
0.07679861983077603
0.10334719279040264
0.12631049853908302
0.14449853126959059
0.15683392460658574
0.1638311227134031
0.16539373806441154
0.16011738631914982
0.14593499947394664
0.12520037623453256
0.10496811164190878
0.09796439161985676
0.09266123712742083
0.09243118296983517
0.12638928810333
0.14852493646174117
0.20105032068932974
0.23881700273991643
0.22643343620718046
0.2270416524906096
0.1897804980340557
0.14410960774206422
0.27528970598998415
0.6770570225071756
0.8775192344650022
0.9122597160977881
0.8949041413127495
0.7243179531638698
0.3625407797830307
0.2255382115412668
0.18921075866166712
0.1764539163829279
0.19785374644680484
0.23075332440597934
0.24938916009471795
0.25361663934751294
0.232388170851115
0.19235398630757183
0.1576679134819223
0.1375169790993886
0.13220877490857655
0.13619225673096094
0.14175034295180314
0.14128596342042074
0.13778683194125851
0.10201273429302611
0.06623863664479371
0.030464538996561305
-0.005309558651671098
0.06224497408410481
0.0863596921679145
0.11314264604561676
0.1202529958493674
0.13070265034466336
0.16199273233431577
0.16416438777729855
0.18056877611098984
0.16826131283126888
0.13216007903183827
0.10013905175214603
0.0701529602750899
0.05062889160551999
0.04462333093518055
0.050344888684893056
0.067267702654419
0.09379374890826009
0.11807065854671575
0.13789043781168048
0.15075099708319792
0.15626033334935258
0.15519166141380164
0.14932343282913213
0.138478787483531
0.1251009324260699
0.11208886177728576
0.10486620313614632
0.0959258310030222
0.09201334251249622
0.13701243585335163
0.16301111673201923
0.217988498609702
0.24464189342129752
0.2211628103031301
0.23163518781773804
0.2167322028532432
0.20854719861506932
0.41395048367535836
0.8178800697184561
0.9336266852356669
0.949703857535672
0.9277598194771602
0.7300451269689552
0.353559874114775
0.22236528231333674
0.18576409672307403
0.17588644966501774
0.20282156915948038
0.2314843386739093
0.2479774945892502
0.255775597340032
0.23542039492984332
0.2034341602489735
0.17184092432260126
0.14892880192544272
0.14217827265412428
0.1421252913865039
0.14691657366066757
0.1468664468268561
0.14393289220321417
0.10706572473067559
0.070198557258137
0.03333138978559842
-0.0035357776869401614
0.06590875996404506
0.08580457599035851
0.10759836943494558
0.10979720647864903
0.11233347478020868
0.14896459076502996
0.15730760521989953
0.18042644816093859
0.1724811848403453
0.13560742537649073
0.10368650535316978
0.07237936028137863
0.05307381788629227
0.045820122276946665
0.0494423171400781
0.06382917313811119
0.08969523224743986
0.11441725592580737
0.13494926138034666
0.14805299722800275
0.15287763244729655
0.15055186874680146
0.14432584097930365
0.13492565721809466
0.1256343645275117
0.11625847832765988
0.11128206679988759
0.10225488881503568
0.0965622774405749
0.14622695378645797
0.17166870411369137
0.22628548828986939
0.2477487658267887
0.219259936415842
0.2347201643996908
0.2327453467120617
0.25427044125265547
0.4957012888206579
0.8746318468041059
0.9544674922533726
0.9632024825783898
0.9417371372583024
0.7324177185917956
0.35143606117089105
0.2275967128024603
0.1845965606439654
0.17592633326916413
0.2053903152183575
0.2316567500063335
0.24699323984373509
0.25651550640687437
0.23660821333990886
0.20856559912535072
0.17846560978401083
0.1541259424001244
0.14664503948556779
0.14479085151997986
0.1492563952064277
0.14936386603792312
0.14663320781873157
0.10924629600216985
0.07185938418560814
0.03447247236904642
-0.0029144394475152935
0.06911629174682024
0.0880326591311389
0.10619784913718064
0.1061615980434572
0.1049977327965754
0.1430253653709415
0.1541389089721958
0.18028853835375117
0.17422600038907018
0.13709486384272238
0.10530285312071215
0.07343322601732245
0.05440394654580808
0.04662764487112377
0.04928424553522892
0.062450527189925706
0.08785831580665877
0.11274482643717129
0.13359899980364764
0.14681823035110214
0.1513254842799227
0.1484073124078704
0.14199818438573758
0.13324847390619596
0.1259692975698656
0.11834213268723905
0.11485247121494012
0.10605733515216281
0.09950058049716047
0.15125798163108667
0.1760020213591644
0.2302022246225908
0.2493456691460363
0.21853450634296684
0.23641784381040126
0.24110764067720908
0.277864568406813
0.5356761648816937
0.8973354415251906
0.9626130819059763
0.9686721960323866
0.947884716464
0.7335712534730315
0.35116583689965986
0.23164005725505338
0.1841405559263047
0.17600687609127902
0.20664656385079386
0.23169619899633614
0.24645592175746558
0.25680072586972885
0.2371105064896374
0.21096394197628338
0.18157591502803713
0.15653443570688144
0.14869693994346694
0.1460145772957236
0.1503334133672816
0.15050605109762907
0.14785828803690015
0.11022619498288014
0.07259410192886012
0.034962008874840106
-0.00267008417917991
0.06286357397375757
0.08548547257650213
0.11119614268861941
0.11682687710481252
0.12492109900870678
0.1580697437319261
0.16211232212470233
0.18054812400341505
0.16958690032409066
0.13322387880983558
0.10120759275025452
0.0708099888501793
0.05129673439740755
0.044901736513071534
0.04999351916125412
0.06617360458088332
0.09254972083057571
0.11697163033530063
0.1370066863793511
0.1499392966210321
0.15524401230946477
0.153802663727644
0.1478329104882801
0.13742583898230407
0.1252304472494623
0.11328532944785574
0.10658602889027011
0.09752647573966354
0.09309188005360225
0.13950851188668867
0.16548719778769844
0.22044311215555343
0.2455292558697305
0.22055123483236283
0.23248150128873418
0.22124657475206802
0.22147527312410484
0.4376412191976828
0.8358521070114477
0.9403124949249231
0.9539810455608995
0.932026915817207
0.730744910445486
0.3527275508185398
0.22343867549458177
0.18538860862868792
0.17587909498291404
0.20356958520585142
0.23154771743346436
0.2477072724559749
0.25601405171736036
0.2357897593204023
0.2049628091799966
0.17381021290637516
0.15048315164653683
0.14351952113513233
0.14292566979224258
0.14761813467344959
0.14761744111273692
0.1447480499505248
0.10772682402858105
0.07070559810663732
0.033684372184693584
-0.0033368537372501506
0.07615270439113034
0.09533296417908635
0.10605824668640396
0.10235861781881814
0.09496530918491933
0.1332630557102756
0.14886130929480348
0.17995159844134473
0.17683325308524253
0.13941628023016203
0.10795894175635734
0.07521230241656374
0.05687580696405092
0.0483147585034459
0.04936988845515936
0.06044258423043056
0.0848840569457009
0.109976626531591
0.13135668143779786
0.14477472348368522
0.14875207682116154
0.1448310587427045
0.13809238858037834
0.13040158633797078
0.12663213650527771
0.1220136377679479
0.12153119738217331
0.11342259268572626
0.1053493699509728
0.1605154257385247
0.18358136133525152
0.23681977810885524
0.2523040136478048
0.21760019689489243
0.239700740442942
0.25658264264939773
0.3207765532255625
0.6043476538219941
0.9295597140958517
0.9740594960826691
0.9766925138858231
0.9575594570110768
0.7356201364873334
0.35189798535948913
0.24071541377458103
0.18349814902837222
0.17622879286136633
0.20884257451272076
0.231698359824419
0.2454329970792506
0.2571898335385842
0.23787521776701664
0.21500703183065256
0.1868403035275029
0.16056372729701113
0.1521015946880105
0.14804164041266346
0.15212024480434752
0.1523895495294973
0.14986501125186044
0.11181720349744075
0.07376939574302105
0.03572158798860135
-0.0023262197658183437
0.07599749962641637
0.12741682026602058
0.15129330789934953
0.17934292997209397
0.22105519549231217
0.2178352151078151
0.1922797254790499
0.17875964219448276
0.14469389913272696
0.11477898645254915
0.0847822062556109
0.06290266950022755
0.04707577280572804
0.047675072571576355
0.062323284040174044
0.08720531760210445
0.11265778382723365
0.13413112954945708
0.1507541567505018
0.16258348089229505
0.1708946962637795
0.17465815387834366
0.16966421055757555
0.15228116265037
0.12753209793145862
0.1018357750230509
0.10005977466632493
0.10188562424167558
0.10490053712310017
0.12765534700599782
0.1413359789063014
0.18797571769537694
0.23388012313606507
0.23198005261558294
0.2247674870269941
0.17309629143850966
0.13731281648744556
0.21368039980523118
0.569555933807052
0.8279283873177982
0.8691538015558505
0.8629450611125514
0.716029179417445
0.37006131817285837
0.23982574858724506
0.1934364768066721
0.17779102073540773
0.19411442989681477
0.22975250015428994
0.2499013620013925
0.2510812790469771
0.22920801393743426
0.18241046860441154
0.14509083560282696
0.12708123135338123
0.12293561509963935
0.13072634150019602
0.1370566327849009
0.13615073775392356
0.13197995081076552
0.09714826025128205
0.06231656969179858
0.027484879132315107
-0.007346811427168365
0.08852953966384279
0.11209615527844878
0.11061593314500576
0.10189656809546216
0.08553834257660946
0.1198083174261157
0.14140845444715722
0.1792266703392082
0.17985033723667493
0.14234049166123514
0.11162052976880028
0.07775628222369609
0.06083427046941422
0.051374085808669916
0.05018614639703234
0.05818321796872728
0.08088470056400879
0.10609692534187314
0.1281924209104828
0.14190961805409452
0.14513631468947896
0.13976472910154836
0.13250883286141857
0.12625864409400034
0.1277635057383602
0.12760194948232803
0.13226937517556556
0.12559096083658855
0.11517258693519289
0.17501060989595368
0.1948419027387727
0.24633103547638
0.25730312067183675
0.21702200928173546
0.2455002911117617
0.28223315199079435
0.3894437712055406
0.7026189143406575
0.9628661083386829
0.9858877326896901
0.9856961852604611
0.9697196172887259
0.7388665201765409
0.3558276561446829
0.258544141384047
0.1828434532959749
0.17673300527952898
0.21218127052146343
0.23154630635960377
0.24368267027847512
0.2575372362491225
0.23878273685778578
0.22084287846946557
0.19448773035107103
0.1663083258280633
0.1568890074519922
0.15087854727483926
0.15462373207896138
0.15500121694468635
0.15261940539726018
0.11396874037470982
0.07531807535215945
0.03666741032960909
-0.0019832546929412775
0.07248651541490228
0.11954117629758572
0.14478723471935295
0.1697009579420559
0.2069677329913027
0.20939844775072888
0.18817703318848542
0.1793201754313205
0.148805064054927
0.1176760613045484
0.08713815507421058
0.0636500736889418
0.046915345214785555
0.04639173977260406
0.05967474837156543
0.08374953707327391
0.10962732431835163
0.13160079190885532
0.14873137610273546
0.16072775254060728
0.16862620749648385
0.17171177407293275
0.16665636502573306
0.15030743971567254
0.12651293451240864
0.10242716538457318
0.09860683905272614
0.09784708238095917
0.0998397270349787
0.12629897791978587
0.14304076574147928
0.1918586115826187
0.23546190525694158
0.23015998953396513
0.22532817180358042
0.17769044258708144
0.13860764791447427
0.2308211970592348
0.6023456831687076
0.8439099329063987
0.8838083979763439
0.8733660441549165
0.7191355556931659
0.36805805592747487
0.2345352914345787
0.191973912896266
0.17727639445425986
0.19522541235218985
0.23010123465492274
0.2498114658601197
0.25194488606896087
0.2302600408658306
0.18556962618050743
0.1490727592949711
0.13041472177388824
0.1259117128114279
0.13247319761568604
0.13854901835675468
0.13778949727833562
0.13385006144304024
0.09872285973093464
0.06359565801882905
0.028468456306723455
-0.006658745405382138
0.0887685351339007
0.15385729324789357
0.1727418939323602
0.21031529706778485
0.26485311266160627
0.24368171842197503
0.20435025794102973
0.17606599967141165
0.13075408950143264
0.10517603145788207
0.07736077086012552
0.06154330216837121
0.04909066442426625
0.05348307289430103
0.07246597935128346
0.09882692266501712
0.12263545473119163
0.14239345669717887
0.15735061715771684
0.16859490687080475
0.1781565088821188
0.18388702253252925
0.17889550614410718
0.1581817794343443
0.1324412585411021
0.10256622645179453
0.1087483128634686
0.12000658588030556
0.1261605353799744
0.13633022569993403
0.13893826414643037
0.17746799949612066
0.22860256867720036
0.237967742342302
0.22388580466543725
0.16308167213849967
0.13371011326247215
0.16833337459352654
0.47470749802113266
0.7758641737039255
0.8174951655266532
0.8283629692734183
0.7031217852564746
0.3733969235067581
0.259030033716271
0.19879604018761643
0.17999161365646094
0.19110852154301394
0.22849471874437763
0.24976557823779533
0.2480253732373288
0.2256752603129313
0.1724658416023207
0.13263861655331763
0.11649445362703181
0.11340818735770038
0.12519018509130803
0.13237859596407014
0.13098061439690348
0.1259652906773501
0.09204372979526729
0.058122168913184474
0.02420060803110166
-0.009720952850981152
0.0714324097980416
0.11709548087917705
0.14274750223939084
0.16665330493915656
0.20247217392215056
0.2066940696559422
0.1868489254718016
0.17947397358668069
0.15008068401510946
0.11858303839737516
0.08788892909083236
0.0639218491844852
0.04691711948281308
0.04604367410319928
0.05889203351988512
0.08267311028188462
0.10867354872581347
0.13080175198421676
0.14809238577293307
0.16014070124205523
0.16790622514870304
0.1707707660081555
0.16569000298280068
0.14966823802347712
0.12624393891256108
0.10269852160544024
0.09829161658552064
0.09676264344448501
0.09842652412468952
0.12603974835065837
0.14369485446667515
0.1931538539676689
0.2359621214506741
0.22958886161283465
0.22553772472304748
0.17929451362576201
0.13906075776586338
0.23663444182453988
0.6130512790061122
0.8489504687812715
0.8883021358432477
0.8766397832368029
0.720028800845601
0.367329155685569
0.2329694102596498
0.19153058559031566
0.17712997500917915
0.1955955761376712
0.23020684868332883
0.24976871541107107
0.2522094824676054
0.23058818779403836
0.1865786154577934
0.1503472332764606
0.13147600576980378
0.12685658486125287
0.1330293532146737
0.13902571487830648
0.13831180747397184
0.13444266680735953
0.09922033775571433
0.06399800870406913
0.028775679652423933
-0.006446649399221266
0.08091487765981809
0.1379272219755733
0.15987287250479398
0.19188075571589736
0.2390617543844361
0.22853642046338993
0.19738166322711645
0.17784730947108796
0.1391812251725934
0.11094679005633118
0.08175495804776069
0.062177403028201086
0.04763887471846051
0.049737497795661126
0.06614545515893139
0.09181231390175215
0.11664255954065826
0.13744171357767207
0.15339896226154914
0.16500224303319908
0.1738333468933211
0.17843145792811801
0.1734748081347327
0.15474639951679012
0.12923298256627191
0.10166354875978631
0.10289506908273732
0.10836834519239659
0.11267526458621702
0.13047133576267833
0.13985721936330628
0.18338337904979002
0.23179618380354045
0.23437666256523992
0.22425083862345835
0.16816306390258834
0.1357281086788751
0.19370150461086855
0.529237868192133
0.8070009168051776
0.84908675126619
0.8491832448731426
0.7113349216078798
0.37195631315545286
0.24728530899213585
0.19548010936962953
0.17857897170264564
0.19279812347989042
0.2292676456043302
0.24992135692235026
0.24989706918531415
0.22780707196748717
0.17835848490078687
0.1400021271328902
0.12278358197527744
0.11908129211980478
0.12847587574504066
0.13514531145334838
0.13404432074539238
0.12955115726866917
0.09509365111380061
0.06063614495893205
0.026178638804063487
-0.008278867350805075
0.061994350181230215
0.08775135574904155
0.1152887618695884
0.12389509641066584
0.1367035704200302
0.16595891363371748
0.16622866970735312
0.1805708285351275
0.16687458089178422
0.13106277291368085
0.09905833104962565
0.06950173568297022
0.05001276302454563
0.0444119608011706
0.05076848990403789
0.0684231214867042
0.09506023434537365
0.1191819429410249
0.138783310670666
0.15157177762635304
0.15728671859218069
0.15658992690790574
0.15081898517918854
0.1395295610019577
0.12499967797898304
0.11093274779293505
0.10331843944637466
0.09458537568300934
0.0911910931050703
0.13474416545281
0.16062965256357453
0.21554685283133285
0.24377918107729155
0.22180967389053002
0.2308437769745238
0.21241233651308705
0.19620702288459713
0.3908757792469182
0.7990802242219708
0.9265356195564748
0.9451968375152693
0.9234045838752692
0.7293404444473767
0.3545401020915242
0.2216919148570691
0.18616456272702459
0.17591056943634167
0.20208631381300857
0.2314110153991386
0.2482294267227599
0.2555214870210403
0.23503730724684962
0.20190114102595302
0.16986950351030894
0.1473649215645113
0.14082444625736198
0.14131764743333636
0.14620962767565165
0.14610790728313428
0.1431067538749872
0.10639335943520932
0.06967996499543144
0.032966570555653565
-0.0037468238841243118
0.0643039467542373
0.09861117313128039
0.12671045797115402
0.14220465333497254
0.16561110931850534
0.18424137537279298
0.17561596236386934
0.18033883296561645
0.15990096490210326
0.12573165105520204
0.09406721668730775
0.06670557744591762
0.04791129374309106
0.04430782624982167
0.05357651378218535
0.07432932356484205
0.10101972386770297
0.12432902461999576
0.14291156981353903
0.1553722614450371
0.1620200662909096
0.1629774573955595
0.15758622030455396
0.14421307063599198
0.12498025398475168
0.10635382534666524
0.09868109977624907
0.09207368240464368
0.09098555305277141
0.12766783174591798
0.15132750493429223
0.20485512215024568
0.2401225880461509
0.2250858605226423
0.22790348466360008
0.19526906885912557
0.15171447257247542
0.2995094413757656
0.7089034883526741
0.8908868631911954
0.9220772921715681
0.9028941991154116
0.7258716040550073
0.36020604139255924
0.22326843791034517
0.1882834208443668
0.1762365443860221
0.198948419327246
0.23096511142080603
0.24914041066793793
0.2541900023845467
0.23315377116656819
0.19495959305934477
0.1609853355668511
0.14022252693908893
0.13459025680237308
0.137605575679655
0.1429748941339848
0.14261609300852832
0.13926647447795934
0.10323932778749711
0.06721218109703489
0.031185034406572665
-0.00484211228388956
0.0663208638027192
0.1043790937875947
0.1318905592486867
0.1502096808308274
0.17784843408204715
0.1917613608254953
0.17941639943932114