# vtk DataFile Version 3.0
vtk output
ASCII
DATASET POLYDATA
POINTS 5568 float
7.261414103250233 0.003677340516191341 -20.34993860168001
7.4109167966436615 -0.004390044942532411 -19.462917374696534
7.502942145052557 -0.0597590543894335 -18.748830485760674
7.557628988305294 -0.11992407100831634 -18.06430504949302
7.5581679794399825 -0.17625457177761378 -17.394458324548825
7.4798842591799835 -0.2312772375394894 -16.71930638850424
7.301686491993838 -0.2585099720773338 -16.0700207080457
7.066470830336382 -0.2650260898664316 -15.426010099430195
6.717354435922788 -0.23003592031608638 -14.815616393112965
6.2749267862941664 -0.1678529487060759 -14.242860333178387
5.730669902991229 -0.07864602643993437 -13.705000461640243
5.089334698291805 0.03118523766639396 -13.203883261959538
4.367091775527557 0.16369635352092227 -12.750798435491326
3.5970390992963566 0.3189903250805634 -12.346016870071338
2.8065487564029032 0.48531834327059664 -11.983632317489885
2.0294353653624286 0.6274817928131646 -11.648597690492654
1.261434180946327 0.7433575094779876 -11.309256846613346
0.5188460572532441 0.8274296820990747 -10.947297159299595
-0.1877513295520069 0.8781495370762527 -10.544606408387367
-0.836297909665998 0.8951096756548398 -10.092401759465782
-1.4087135317673027 0.8814872788959828 -9.59592757096144
-1.9000543119217053 0.8412772893367181 -9.061525226558855
-2.312782398756722 0.7824710666091482 -8.491181636321127
-2.649602825524227 0.7085929166255892 -7.8816042276208185
-2.909732042501791 0.6209450460186471 -7.235495637027054
-3.093524860823687 0.5172132299303416 -6.552264098687129
-3.2019537556601456 0.39074009499925244 -5.829238196042698
-3.239801467845302 0.2422830632909516 -5.0811688683810114
-3.2186294067166825 0.09037661803459582 -4.320644554163225
-3.1534743746455614 -0.05263213119303914 -3.5645856248459635
-3.063629736097579 -0.1499135168039336 -2.8402564368121945
-2.9576473294378376 -0.21930086995473178 -2.15216438269929
-2.874283420251929 -0.24393771489092783 -1.4444532457444623
-2.8088030300658984 -0.16692714074155862 -0.7447182545886086
-2.7784561380272934 0.0069011484887501195 -0.05832272227663737
-2.7983501343547634 0.3108174480282725 0.5549086894681281
-2.8502211805224236 0.730615710837198 1.102331783516198
-2.913386039709413 1.1772900463258433 1.5756625148663737
-3.0094545078958768 1.7228376179104061 1.9969680930446019
-3.0961189028708476 2.223015378923899 2.3319383521404373
-3.169471590638874 2.605342627639587 2.6038746811487936
-3.2162438661793313 2.8714090294127343 2.8913142182781506
-3.2590719537488795 2.940655360631142 3.170556847942279
-3.282206250368035 2.8592222328139836 3.4193620760740857
-3.323300192224354 2.5811510167554674 3.6993076596789525
-3.4005975682342404 2.0137539690056125 3.9593158495337355
-3.397141227887284 1.3069423239277038 4.1378816161908905
-3.3214982032865246 0.48495043967259277 4.249984701025557
-3.134765594933502 -0.34261619094756135 4.31840894371892
-2.811170330354065 -1.1432456762017833 4.392683372949111
-2.3392265672704466 -1.8809245339432858 4.5014708368747245
-1.7279501556886747 -2.4689181480911597 4.659504682147528
-1.039332634746403 -2.872663098525641 4.8992783258464465
-0.32319326366083034 -3.117155088204931 5.234676670528273
0.4019079610409956 -3.228046874859062 5.634456775156497
1.1208815536906744 -3.2315821295266054 6.053909996210357
1.8554557539234064 -3.1495611270902617 6.47598812867198
2.6177938076550897 -2.982699384333694 6.87154907005306
3.4089424295768866 -2.721656206298979 7.208399638546678
4.205812975088338 -2.377328495549315 7.4564023578669
4.986164729342262 -1.9633590851555516 7.609997482981928
5.726931322714189 -1.5025360355631938 7.670869531681067
6.416528790361851 -1.0166112027252738 7.651315695444043
7.045425993872098 -0.5185900534580854 7.564300970281843
7.250375656026039 -0.04805392745320771 -20.577698617746584
7.422829947694854 -0.0782734978353045 -19.60880409496453
7.509209963596498 -0.13057145030825607 -18.88747190362774
7.5636676980308675 -0.18272378870412814 -18.178154693061536
7.572280645362613 -0.22666418284314424 -17.453261921041193
7.488925337740043 -0.27023553060616057 -16.726867790399208
7.2953769461760665 -0.282339070352717 -16.041502620719392
7.039355624338657 -0.27417988520069114 -15.385049229517401
6.678043248549094 -0.22578935915552542 -14.763189691771759
6.2246454323258495 -0.14949967772422793 -14.195586626757521
5.671275544799489 -0.04665388662414452 -13.669774960646091
5.032414550906309 0.07481084253209987 -13.18651974709968
4.326400054912836 0.21375023872256355 -12.751666693200399
3.5813161052706164 0.36664154429324364 -12.35772416069611
2.816480859166851 0.5237273886192562 -11.99322630468069
2.0544673900402506 0.6607247973204466 -11.64435238028716
1.296316675382327 0.772573500114263 -11.285773744653808
0.5619246358982154 0.8506650090580198 -10.902640250768265
-0.13732528549538936 0.8931853804965875 -10.480711414332413
-0.781662507327449 0.8993338281763984 -10.012866425558755
-1.354420527442264 0.8719818622319955 -9.5041412803054
-1.848417882858982 0.8153000556082886 -8.962290299548796
-2.264558170243435 0.7372191492969069 -8.390319498195542
-2.6035500646430214 0.6436517369971019 -7.786472849428875
-2.8649077697996925 0.5384409627118782 -7.152996042337111
-3.0505748742478875 0.4187537710302197 -6.486102013836445
-3.1654134548543498 0.2834095933837698 -5.774677942620148
-3.217747277852379 0.13169962623069478 -5.02614749603834
-3.220356602169533 -0.009870993650037463 -4.257562498042113
-3.181311743361728 -0.1310614338107441 -3.4973276530376802
-3.1144476032548236 -0.1965106201378996 -2.784537379025336
-3.0231548908831054 -0.23240727776359338 -2.124876309722076
-2.941135608038054 -0.22947423418758214 -1.4551535343535078
-2.865262321417276 -0.13645014532340247 -0.7955707769748173
-2.8140541733580116 0.044519291589863175 -0.14846956921489363
-2.8046794670109594 0.3451825921457297 0.44523684023451426
-2.828341840811587 0.7557103497256263 0.990087750583375
-2.870975698446619 1.2037037792885885 1.474277125328185
-2.9544283260773825 1.726276282224093 1.911260465334191
-3.0422477753005377 2.197335459163148 2.259297920294345
-3.119959400024817 2.554628559518411 2.5328424819484585
-3.1744537530826755 2.8003176372937064 2.812722594377858
-3.227498465150209 2.8626811566396713 3.084107649529763
-3.2601748782205764 2.7861508477616477 3.3212827966469143
-3.3084431116859094 2.522897267094272 3.5934632925068435
-3.3759563641633514 1.9844497187626855 3.8611057854241952
-3.3651658101909985 1.299112476347505 4.060729866452722
-3.2782472237299536 0.4958892306965339 4.182976047957522
-3.0852590908994557 -0.31144590195671507 4.26732545258268
-2.763562529006456 -1.0879007972987718 4.35835860902072
-2.303159757524868 -1.8086099662588166 4.48464063319991
-1.7043719866305411 -2.4045839101393756 4.66790345276177
-1.0283170323761384 -2.820401944978567 4.925379172357861
-0.3247786770057386 -3.079652029578213 5.269279785592769
0.39094131711385194 -3.202870464016656 5.6690053731565095
1.1050495519466703 -3.2151513164614087 6.084083528874767
1.8368611634265124 -3.1388400387330444 6.500535886198235
2.5958322784986523 -2.9774997675676738 6.890843070286826
3.383976590273664 -2.725099901917447 7.224157479775613
4.1804427656541465 -2.3920268371274216 7.471756211759128
4.965191438944996 -1.9898137047437883 7.627238461883069
5.713779154337979 -1.538646765488833 7.691529199320427
6.412339284523323 -1.0582026995598914 7.677103449844824
7.049802004839997 -0.5604665554026785 7.597206433977327
7.240647104370793 -0.09364641907907958 -20.778431115379668
7.434583189729482 -0.14500473694120575 -19.733958429054102
7.515951662397777 -0.19457670276397684 -19.006148971559572
7.570183609003925 -0.23942035307326082 -18.27449448202039
7.58642706108836 -0.2715377803740181 -17.49890032837811
7.498442609978267 -0.30424412323203354 -16.725528155121538
7.290800049472423 -0.30229210408123813 -16.007223718831586
7.015845917393687 -0.28085100957543085 -15.339236320861628
6.643523459816894 -0.2203811683186374 -14.707011257649263
6.180175896380517 -0.13154924638906562 -14.143693235291902
5.618450777006684 -0.016618437661714086 -13.628200298136008
4.981518283032977 0.11501599348680222 -13.16032343288387
4.289534163737532 0.25947040079802447 -12.74119629916365
3.5661073866456205 0.41024590239836606 -12.356682849589868
2.823385864985137 0.5593763178443492 -11.99040302127961
2.074267589970197 0.691915208743314 -11.629314546439884
1.3243672769857546 0.800280867051468 -11.25360021380245
0.5967358914852965 0.8731393871216278 -10.851508064281603
-0.09642683393663465 0.9084297758822596 -10.412306909741966
-0.7373089664354221 0.9049858230842563 -9.930377809650153
-1.310552664668701 0.8653900263581541 -9.410574769416634
-1.807089721190039 0.7940087749973537 -8.861896723341605
-2.226494459720236 0.6987697468783584 -8.2881584674195
-2.5676402299944057 0.5878065875358965 -7.688923129319138
-2.830230215344575 0.4672225475334087 -7.066065048641038
-3.0176139420663204 0.33363930732176894 -6.413012322042741
-3.1380653650381003 0.19053205684464994 -5.711547718334151
-3.203216656626877 0.0359013444064199 -4.962382406985469
-3.226952033281274 -0.09662048232157236 -4.185921385551846
-3.210853553679364 -0.19878120346791725 -3.420763052159869
-3.1637008199324095 -0.23687272131381382 -2.716526272313364
-3.0847041392383696 -0.2445491825705716 -2.0801397256162177
-3.0038018395201544 -0.2185304569678834 -1.4421532304475444
-2.9192078615872625 -0.11207014886081838 -0.8162327660594041
-2.850424317107947 0.07499174248677005 -0.20189037164118306
-2.8158827225596563 0.3732605838932174 0.3758280375998484
-2.8149926935560448 0.7762680229595607 0.9191793629351172
-2.8393666472448786 1.2258296319956552 1.4134703014399461
-2.911946997579237 1.7291224804765681 1.8647235745454278
-3.0008955731126274 2.1758324051473363 2.224545481375689
-3.0823632121292666 2.512067890834714 2.4996324038099504
-3.1433913005965515 2.740636107154658 2.773219597463604
-3.2053107609174845 2.7971558175635067 3.0382087154912703
[...]
CELL_DATA 87
SCALARS quad_param_group int 1
LOOKUP_TABLE default
3
1
1
1
2
1
3
1
3
3
2
3
2
0
2
0
0
3
2
3
1
1
3
0
1
0
2
1
3
1
1
3
1
3
3
2
2
2
1
0
0
1
3
1
3
2
2
3
1
3
2
1
1
1
3
0
0
0
3
3
0
0
0
2
3
1
1
1
1
2
3
3
0
0
3
1
3
1
2
2
2
2
2
0
0
3
3
SCALARS single_component_feature float 1
LOOKUP_TABLE default
0.013086284791892937
0.001492882248082087
-0.008724770037315746
-0.036827077291594325
-0.016672985327132794
-0.041551419332202424
0.031009544628745417
-0.029813751008636286
-0.030066802225237874
-0.05333381061572444
0.03945171882646448
-0.012520896661460848
-0.035354552408568704
-0.04470844062361214
0.05908741184959178
0.010252993214155737
-0.024917836733070096
-0.0023617356059491418
-0.018179551703913065
0.015956125164711496
0.017529712621805225
-0.009495378133652572
-0.02083193386219403
0.031935543235519656
0.06558699295887041
-0.05691941518425683
-0.04016270899206023
0.03100812573428338
0.023191787913613232
-0.039900436895380156
0.026251361588761755
0.026847345122483712
0.01095805923490151
-0.010955718110625456
0.03127735675550743
0.05497080497159901
0.006273977359900457
-0.022158726877867525
-0.017561253184711433
-0.0647388888947965
-0.057460753708415586
-0.0017631192842802838
-0.049609076402450825
-0.05048377932775437
-0.0028478318473834563
0.010355878853539606
0.015028622568955503
-0.004517980773081388
0.009088140956096065
-0.012417630585079664
-0.004378944527017287
-0.03954107998572477
-0.04878168175296255
0.025965752020608898
0.0064037021960244855
-0.06958669645223448
0.06495312387639392
0.06056934849981392
-0.0011211960353870818
0.0030332180065468714
-0.03745597714773939
-0.044584474035272444
0.052549889987714454
0.019282950216966716
-0.021566324436762326
-0.023354067161086386
0.009910130455405883
0.08334559612799596
0.02345921045730664
0.02730071129955704
-0.004309723222756148
0.025381851218968934
0.05065776273141587
0.13532440945330598
0.011431333314672013
0.005877623340119528
0.0010205933896609148
0.0019744571136951494
0.01993639645925893
-0.007569605202680227
0.025775215073770813
0.004534681259778149
-0.03275604242247637
-0.08367636119335285
0.02908169919196423
0.0040276439040464315
0.013102465019387884
POINT_DATA 5568
SCALARS single_curvature float 1
LOOKUP_TABLE default
0.0822170216835336
0.12355790987511824
0.1482957955451743
0.16068036006184439
0.19140136274488298
0.19676614500264772
0.1801190394659728
0.18184718128107655
0.14966624375679788
0.12446006690112565
0.09858919389782822
0.07507955874925475
0.0557064519007488
0.04989482918541122
0.05797557369972724
0.08068368835909653
0.1099842174261049
0.1362210875498219
0.15591287215171462
0.1674471280296112
0.17211043614366683
0.1709501825926183
0.1649011699204612
0.15265274888137267
0.13389279543708002
0.11182004829886791
0.09780058462326002
0.08288208555763714
0.08390142097721644
0.11645581307627423
0.14424230907066107
0.20940590716570195
0.2523622747010242
0.24323845123401622
0.24575322301625652
0.19589448885487773
0.14707554299826828
0.25701457302752906
0.6454995561098271
0.8601596639725062
0.897702532330277
0.883421558245179
0.715112806151527
0.35976569488016885
0.22610926646303775
0.18581293587218017
0.1729816685149739
0.20544974393186666
0.2410395388525842
0.2622876596784734
0.26296707631846816
0.23368968859321262
0.1871214165377554
0.14891570049249747
0.13078244882113638
0.12860501810916267
0.13635066425641623
0.14324226185991237
0.14248901217654641
0.13822814119337987
0.10192455240379289
0.06562096361420591
0.029317374824618936
-0.006986213964968041
0.06986888613627797
0.11201078891899025
0.13880411243472776
0.1592193888621461
0.19133270064734856
0.19957712153874396
0.18309554036490797
0.18001664393263883
0.15278374317285912
0.12123702343984906
0.09077776169130315
0.06584958477383286
0.04801044835350209
0.04581271759538198
0.057160522393563715
0.08011901795818924
0.10673086430783467
0.12964615695867518
0.14755723433409765
0.15967248133753809
0.16680612864905422
0.16872959426102027
0.1634572762418826
0.14854899808230343
0.1264596398303336
0.10425665245903831
0.09758744449287977
0.09288823018175553
0.09381297052467423
0.12453953551049463
0.1452807624860433
0.197981484186161
0.23902451884581846
0.22998094165046656
0.2284001125894119
0.18473623347071896
0.14056272676678808
0.25205794327965036
0.6406742755445147
0.8613052846218205
0.8990509676459628
0.8846515935714598
0.7213848662318814
0.3646820479126474
0.2289852563486037
0.18994382938799925
0.17636568092031912
0.19758879866265822
0.23168961752045178
0.25110144469543005
0.25400020550165003
0.23164163208024868
0.1888489427672828
0.15297849640769737
0.13372229780845174
0.12913199708969808
0.13463582770267343
0.14056285869126142
0.13993907899998584
0.13616555926371787
0.10060769560681597
0.06504983194991407
0.029491968293012163
-0.0060658953638897395
0.06677759958026898
0.10920172014891376
0.13232054796835577
0.15902362810387008
0.19092455587354662
0.20205941664481156
0.18601022029791425
0.17870404398466838
0.15544010409071385
0.11820690233413547
0.08383178324307933
0.0579115122436455
0.041532700111855794
0.042560241250585766
0.056682372180783785
0.07967411637428402
0.10402159839264695
0.1241908141359456
0.14058167359507207
0.1530404658700484
0.16212181502520168
0.16657539967071758
0.1621865722954185
0.14538317026085892
0.12216396482056488
0.10066555881400843
0.10059637077337162
0.10564267586956101
0.10593879434127929
0.134451297549755
0.1483469778504207
0.18820116171527917
0.22622111767676545
0.21739019368808743
0.2128948200896831
0.17844023964719266
0.14341705247546116
0.255202505596636
0.6388658891359635
0.8617425914123006
0.8988968908596936
0.8843786427747949
0.7253663075095986
0.36950980013340556
0.23187659611616604
0.1935727862812419
0.17935111396840708
0.19037619693511584
0.22314376882124562
0.24093113668485688
0.2461151987399994
0.22997031765968082
0.19063667951526786
0.15689106468887953
0.13647052801614556
0.12959980702706908
0.13308834273370493
0.1381562222990504
0.13769674975087123
0.13445989828443206
0.09956665255911173
0.06467340683379141
0.029780161108471093
-0.005113084616849228
0.08695534923143337
0.12868628163293125
0.1221660340200695
0.16163498248211972
0.18815072587992068
0.20829160938623303
0.19447513112427708
0.17628190889239545
0.16213521048547333
0.11063619501961122
0.07310181317681427
0.046686676294723645
0.03468412431978289
0.04302856118881409
0.05733697241229073
0.07861170491719109
0.09748568720395154
0.11113899117232182
0.12377987994795382
0.13639074293772419
0.14956245973102836
0.15988485516628795
0.1591121149723796
0.13990937796105163
0.12177325166226083
0.10513528264028658
0.12251548442224812
0.15603516482375218
0.16169964143731877
0.1847920527652228
0.17849764655744374
0.17561450831422915
0.1906379180618795
0.18065108942777883
0.17656719764017417
0.182190519715154
0.18751583931947152
0.2960103816660432
0.6405474592243245
0.8570892522842294
0.8911254152846274
0.8763383289564136
0.7278257574169027
0.387555534522942
0.24367930234803262
0.20356663560465876
0.18755880957440976
0.16956100517767433
0.19862677507428053
0.21201877330780425
0.2250991547598213
0.22618402687823494
0.19686773244770486
0.16919992682880422
0.14473471780163832
0.13090458097482646
0.1286753625780276
0.1313435610690868
0.13157825555989408
0.13029752440668063
0.09725739754632542
0.06421727068597022
0.03117714382561501
-0.0018629830347401954
0.06891338840802523
0.1113327604350624
0.12838817069545608
0.15938756238577925
0.19037917887445832
0.20393561920565956
0.18838032638979238
0.17785609683018205
0.1574328797293508
0.11580338880659025
0.07883763425536572
0.05239280791967142
0.03720673362717336
0.04068719158215879
0.05653115739564743
0.07935399209807781
0.10202910332898146
0.12019318900719127
0.13544913111559653
0.1480666424204143
0.15850114521865072
0.16478627882490204
0.1612325852760935
0.14329508128702853
0.12045985578958793
0.09997756348350739
0.10502419285380683
0.11797604754960066
0.11824423817961383
0.14488543735642703
0.1531521705989466
0.18192064438342131
0.21589820275610136
0.20716428654291483
0.20125259570041606
0.1762731280169913
0.1510565333118427
0.2624231253605749
0.6387665168244538
0.8614916217663341
0.8978443023423974
0.8832342754950796
0.7273787558669105
0.37376593045614176
0.2345176488016248
0.1963907809267503
0.181671657563608
0.1846126452725922
0.21633517352763246
0.23286292984488619
0.24004106560248528
0.2287702975233038
0.19220227586420272
0.16014594258963138
0.1387059256546959
0.12996598903420653
0.1318625580187536
0.1362568124737718
0.13595773022097807
0.1332050096969622
0.09883270294653143
0.06446039619610067
0.030088089445669902
-0.004284217304760862
0.0930546660112901
0.1345119767972292
0.12132063869761213
0.1623230828009371
0.1874662266010757
0.20920691791585092
0.19587748830676815
0.1760155032672199
0.16315597958995434
0.1100016836686568
0.07362706741598053
0.04750210849999551
0.036267051535672404
0.04508217885330258
0.057766510875150986
0.07844762851307208
0.09653513522133211
0.10925899725263227
0.12135366722312214
0.1338831061330987
0.14754376522446833
0.15867513479096548
0.158701906932526
0.1395784170156927
0.12300566462072526
0.10742803072676126
0.1274620935963862
0.16577535968462626
0.17391429576838807
0.19675754687972993
0.18720343022210922
0.17634147246279147
0.18541239014156058
0.1745671874710525
0.172197754591734
0.18588549229919246
0.1989745683154092
0.30659755848812
0.6410980067209981
0.8551136370452928
0.8886327831303321
0.8738199495270333
0.7268934400989806
0.39158786566081005
0.2464954453119964
0.20526866087184445
0.18894519025212345
0.16597170710791756
0.19441660124757448
0.20709324082973601
0.22172924379166117
0.22568325235166767
0.19810652011571597
0.17148207607268148
0.14621883058784435
0.13112698114210158
0.12791319080542857
0.13017355356978946
0.13055946725039183
0.12967105518286418
0.09694480854614775
0.06421856190943132
0.031492315272714885
-0.0012339313640015448
0.11660590151157565
0.15543759642197136
0.1682643979315106
0.16694024459167076
0.19082739956442257
0.19289222209106924
0.1768110500063856
0.1855006221023541
0.14470807483988166
0.12886038602927474
0.1098255572731822
0.08886957650097438
0.06745146107196029
0.05631260005810148
0.0596307726023583
0.08172846648048306
0.11532423185500142
0.14705475153765318
0.16953939089944722
0.1797838241431689
0.18015272843510027
0.17385482058553237
0.16699113631970475
0.15973009636611593
0.14899566999954586
0.12891741320295313
0.10419307188248704
0.07634886938700185
0.07500431125371605
0.10852222637806126
0.14540667032019072
0.22454825499278483
0.2695655355741721
0.2610633393749472
0.2702259913103081
0.2175395794519617
0.16885327270216366
0.2741597212501637
0.6544594986059525
0.8562366863240374
0.8926695006742074
0.8785056585000511
0.7021694121319328
0.35267262687131845
0.22193047251495118
0.17942835891972472
0.16781029376392728
0.21677889680063236
0.25459135588199505
0.27862822566253703
0.2766292221550599
0.23710444048848128
0.18505878841866308
0.14343097020832496
0.1266303936757051
0.12779852267060052
0.1389093597634594
0.1472679466549409
0.14643255968635538
0.1416827387789107
0.1042479649497002
0.06681319112048972
0.02937841729127924
-0.008056356537931242
0.07903076287841397
0.12109626487829252
0.12379507113746686
0.16069412364653002
0.18905749200436056
0.2068536216533465
0.19236401407922898
0.17674473892637302
0.16056070413224274
0.11211689287788404
0.07358597188878876
0.04692440042907891
0.03379395042193907
0.04083517746816977
0.05685269926804591
0.07886112276821027
0.09897922108518041
0.11410412764420266
0.1276058699733091
0.14028336779932143
0.15262014797388393
0.16164236996017312
0.15978805975046542
0.14074010340024626
0.1205232114233366
0.10239504217022657
0.11564009111163083
0.14198647422088603
0.1447836581334673
0.16874355728564772
0.1674617662769309
0.17608657762994678
0.19903252449384
0.18985283587049367
0.1841213454525671
0.17827034901294644
0.17236468664356244
0.2820716850257285
0.6397797430971014
0.8593263836939985
0.8941608064401618
0.8794228246822718
0.7284633711945531
0.3821763841527855
0.24000743329107985
0.20105835035760242
0.18550730927529907
0.1748550540169761
0.2048446205579788
0.21931449885289114
0.23020466249981195
0.22700421912641963
0.1951305178760314
0.16592202315297283
0.14258010479924704
0.13057618964549803
0.12979664565860274
0.1330681570885416
0.13309654534688464
0.1312655039478927
0.09776033897691892
0.06425517400594516
0.030750009034971396
-0.002755155936002368
0.07929024220318398
0.12134527938602915
0.123727420161496
0.16072579347035185
0.18902712715578934
0.2069070715190191
0.1924406133884339
0.17672656075017026
0.1606187112203316
0.11205494152203882
0.07354027000071757
0.046883336282374774
0.033793282050788416
0.04089141423819692
0.056866547817741434
0.07885198339862556
0.09892365707470208
0.11399359479882755
0.12746329290264963
0.1401395477171712
0.15250868525177882
0.16157982988877456
0.1597623790475912
0.1407033012452914
0.12055511384340173
0.10247849510319838
0.11587628247794404
0.14248200662318652
0.14536482904549772
0.16928460413657115
0.1678196010587393
0.176037250797636
0.19871916201015644
0.18951879520590964
0.1838273720375762
0.17837785510752377
0.1728692024193705
0.2825352876973371
0.6398059822889565
0.8592595812141779
0.8940646980911465
0.8793246943612382
0.728455509200753
0.38235864947287235
0.2401300209175128
0.20114855804169876
0.18558123815882382
0.1746649046705921
0.20462110758131588
0.2190518018295903
0.23001848595343635
0.2269730814576426
0.1951910849519148
0.16603797224622094
0.1426568175391686
0.13058800367939624
0.12975640632079194
0.13300619595051044
0.13304164824300374
0.13122977701649932
0.09774136854824408
0.06425296007998885
0.03076455161173361
-0.002723856856521628
0.1103363476812363
0.1509670771230179
0.11982927059712163
0.16408716642959803
0.18552035876213932
0.21128789118777808
0.19926884845882004
0.1754932444881182
0.16555663745601462
0.11013997860154509
0.0776324249760248
0.0525373966718867
0.04322891421580472
0.05134524535974535
0.05906819065727819
0.07804837661129793
0.09436659237318287
0.1049965827438505
0.11585850188811522
0.12806595382732847
0.14268167204086474
0.15558536653250682
0.15785512044614147
0.1395755891209715
0.1272115078109103
0.1143786355674482
0.140452810353949
0.19044447493146835
0.2064255780353654
0.2300963554203017
0.21312581537674283
0.18184568092690293
0.17450841899375727
0.16017350991571885
0.16379227796507045
0.19829767922927488
0.23099962543041636
0.3365578900202971
0.6425885813087058
0.8484417965348304
0.8807554577751042
0.8658853207543821
0.7227183731376419
0.4032253199173723
0.25483884529539513
0.2095796136150738
0.1924312081776739
0.15697610392747208
0.18387935700403246
0.19481823458409106
0.21360610646040837
0.22462736214502907
0.2014362234702776
0.17742414859669017
0.1500304152293579
0.13168628554923514
0.12598996210249935
0.1272287580616133
0.12803420253641454
0.12819546178915472
0.09625336278312897
0.06431126377710322
0.03236916477107747
0.00042706576505172067
0.1377661164183055
0.17476659933694036
0.1804137564079719
0.17241331918022246
0.19042788844840575
0.19156654790661343
0.17615335337733048
0.18761253182124776
0.1423477559653093
0.13067757338379954
0.1146801894373983
0.09501716809261848
0.072799930521254
0.05928602188865153
0.06054625304013561
0.08231181154083776
0.11794350404700975
0.15238185461607107
0.17616909668851938
0.18564891648699355
0.18382406797516188
0.1749807406500993
0.16786727946780144
0.16326394779566156
0.15698247632709456
0.13837836732573577
0.10899089080338353
0.07692694755682923
0.07352219479016904
0.10679224866342374
0.14716461366792996
0.23011107240039985
0.2760517025474351
0.2682075710382541
0.2803143255757159
0.22792074419828534
0.18031254081214768
0.2827300693103325
0.6574814794225663
0.8531100296234105
0.8891304396887938
0.8749888693932852
0.6948813738402091
0.3493736757355914
0.21993608688135968
0.17645670152767287
0.16544099870386017
0.22171184011489858
0.26052590847975343
0.2858425279143257
0.2828819355639456
0.2387886746351774
0.1843318708923427
0.1411819318546803
0.12484695844213578
0.12742250262746185
0.14007311624585095
0.1491113967910919
0.14828616584936885
0.14341994420046159
0.10546316176225592
0.06750637932405026
0.029549596885844603
-0.008407185552361057
0.06735608198623315
0.10980005356739594
0.13032610890332533
0.15914906484001828
0.1906886767277854
0.20296380063697878
0.18713469317524326
0.17828124841076748
0.15640059602134918
0.11705762826861052
0.08136020009548851
0.05515758490389286
0.039342894278581876
0.041554759444541844
0.056581969395423114
0.07951876345287287
0.10305678798864502
0.12225338104357558
0.1380961942934538
0.15064253691277465
0.1603884862289177
0.16573249838319293
0.16172544084894455
0.14434047114658968
0.12117229418673606
0.10011327163778204
0.10249493331549914
0.11128904729069469
0.11146827088600682
0.13908710805490782
0.15032019285300247
0.18499282287328775
0.22131025585254901
0.21254377188330809
0.20725563197199395
0.1770950869253983
0.14652064764153924
0.2581705745861637
0.6387132170919718
0.8617050236029348
0.8984996341720485
0.883936887551882
0.72645001875371
0.3714776927928038
0.23308601653388142
0.19491888099576804
0.18045965004694617
0.1876385415999175
0.21990758509658645
0.23709248809377273
0.24320525142796254
0.22938558208682439
0.1913651977810757
0.15842279130175443
0.13752774400095907
0.12977444116838055
0.13250522810064327
0.13725192895649313
0.13686550609591053
0.13385276148752195
0.09920793328961335
0.06456310509170474
0.029918276893796128
-0.004726551304112481
0.0851721139857073
0.12698068962510461
0.12246809910468352
0.1614278815081693
0.18835216031670185
0.20799734142556892
0.19403432985122607
0.1763722099929035
0.16181041017013875
0.11090053846030737
0.07307362516022703
0.04658725385577682
0.034346592213147877
0.042470452545826994
0.05721883444313144
0.07866344726874226
0.09779119524465245
0.11174446831718482
0.12456128763944377
0.13719160829258975
0.15019874636791766
0.1602578618673998
0.15924764337356467
0.14005066779102782
0.1214504728180768
0.10449011510539316
0.12102012641222414
0.15303766297542587
0.15801743927341502
0.1812464125561561
0.1759905398926746
0.17555980203411695
0.19234442332285642
0.1825701940254502
0.17804883722612833
0.18120816389036012
0.1841409815789064
0.29290119956629457
0.640380549329474
0.8576265944164971
0.8918275950165347
0.8770496508105655
0.7280326620051876
0.38636792719183594
0.2428595823232191
0.20303840189023437
0.187127542205359
0.17067634907755924
0.19993590058703936
0.21355273165492497
0.2261613632526578
0.2263487567949589
0.19649289874881637
0.1685006980597011
0.14427746930168034
0.1308354616673165
0.12891181387629178
0.13170690138947105
0.13189647236933516
0.13049696767452051
0.0973591004394855
0.06422123320445047
0.031083365969415452
-0.0020545012656195683
0.09742083626164699
0.13867575091015602
0.12084708499889243
0.16279567651052387
0.18697731514846852
0.20979332298127623
0.19680260512470796
0.1758564146304053
0.16381971302238313
0.10978591407663958
0.07433460455906421
0.048449194461004826
0.03772930629466341
0.04663094809999226
0.058089585659090746
0.07833942749371901
0.09592549146580344
0.10805664402132441
0.11980238703627852
0.1322617301913308
0.14621555982102513
0.1578566109198409
0.15844965976982608
0.1394625576403229
0.12398436405047239
0.10913233041572201
0.13087107239066229
0.17235835972459485
0.18237462883625796
0.20522666941085527
0.19357117491926729
0.17729716272799362
0.18216470659495157
0.17058301481555477
0.1696034292745897
0.18879126547827677
0.2071203619271624
0.31415984881518993
0.6414783596185458
0.853574303241471
0.8867586274190383
0.871930805766465
0.7260378181134585
0.39447904036850445
0.2485419457581281
0.20641335925941703
0.18987459312459262
0.16356577774496406
0.19159658868092705
0.20380071969600405
0.21951158062980997
0.225372775931621
0.19896508898801182
0.17303961138927224
0.14722489475887435
0.13127616938014985
0.1274009312173751
0.12938816509349377
0.1298805828432064
0.12926366934503927
0.09674738172912357
0.06423109411320788
0.03171480649729218
-0.0008014811186235204
0.19871398971307863
0.22951966935184473
0.2178439740236508
0.19516787368818925