# vtk DataFile Version 3.0
vtk output
ASCII
DATASET POLYDATA
POINTS 5568 float
7.066183684613669 -0.04690526318262976 -20.387607451173576
7.27470716448186 -0.04428950540664022 -19.38261213878965
7.3755630676323545 -0.06619880845227699 -18.69793451378854
7.455215859154133 -0.09616223977133936 -18.03883442634753
7.4972566006297745 -0.12796054760135958 -17.359336289488812
7.460107318541056 -0.15280919591335257 -16.66740759601666
7.317205400280309 -0.15390336508468705 -16.00379149368362
7.1213969570804005 -0.15341270990648412 -15.303332205122219
6.771241814448963 -0.11172453408910858 -14.646790030743725
6.3023702636674015 -0.04305016989298588 -14.081047360066485
5.729879408582025 0.046378721184018715 -13.576986184353403
5.078194649468124 0.14775903667661172 -13.120426225297672
4.372478522874934 0.2553420208254801 -12.717284864589493
3.62837187571473 0.3698229543094828 -12.352403011294884
2.872363903882823 0.4795880616177802 -12.013443956365071
2.1176136039746654 0.570732939225879 -11.679561400247175
1.3565869644158361 0.6387525902973603 -11.330401904868335
0.6050471779023104 0.6789865264502817 -10.95340187534597
-0.11793179454715663 0.690383470114576 -10.540291509974738
-0.7928161843615258 0.672862178844825 -10.08211975485513
-1.4008438666774345 0.6309064877031477 -9.579438784031387
-1.932019631040826 0.5699736023404366 -9.0346805392185
-2.3848424633064016 0.49837378440890845 -8.444435687200354
-2.7559843415337832 0.4208514012012037 -7.8034519633881665
-3.0405668426866477 0.34335043255610664 -7.118501570000136
-3.239441405805508 0.2664244945885701 -6.389443054670397
-3.3555513039268323 0.192356888044156 -5.6206440577376595
-3.3919038537757156 0.12623074176259053 -4.848595388575642
-3.3559988585663576 0.04947113109093956 -4.087133234681151
-3.2715502757542403 -0.015664133802458444 -3.3516750499501553
-3.1531398465608267 -0.06454346075877009 -2.656110592952276
-3.0184967616128797 -0.08454570034052244 -2.0033526484713766
-2.9005209214026095 -0.06975003348481747 -1.3380945332849334
-2.787831114797681 0.03446479458173375 -0.6771704437777407
-2.7079738918744103 0.22517543654187783 -0.015049590154497139
-2.689109680110488 0.5498597626008681 0.578911926590283
-2.711859475583389 0.9794314940798695 1.1066816628852978
-2.753702254667503 1.4051574127899027 1.5628847036842013
-2.85096506067556 1.8785468235531917 1.955888241660809
-2.9487195966095436 2.277272820359106 2.246673902601886
-3.03587913250774 2.5685401889573827 2.4630975467280507
-3.0848952198148756 2.7723702908571193 2.712427245835648
-3.1449662408225687 2.8053133996163835 3.0151421009485033
-3.2045073211750745 2.681460760337461 3.265735365411376
-3.261919150967356 2.3986499938471217 3.515251367747324
-3.3537397739704105 1.8481961444613035 3.768121656280754
-3.338208722238213 1.2021240064144285 3.969330924477988
-3.263389406668115 0.4340975427299789 4.114889003856716
-3.0895907270914624 -0.3503567087730536 4.219659699744332
-2.794512815341678 -1.1159464734146702 4.3266382694766845
-2.3339977359050024 -1.850472134542275 4.491409095819588
-1.7250659390275205 -2.440081752431764 4.716745945632934
-1.0724535220128022 -2.829096539125206 4.996293212654726
-0.3776091183488557 -3.079427146414945 5.3731305187766605
0.32802487686235604 -3.1962340541675913 5.8025601101213145
1.031563085840899 -3.2067048568872045 6.246160144205222
1.752967944581249 -3.1334041389816716 6.689191955164335
2.5058298567607045 -2.974150400331614 7.105919924788503
3.2894919131506453 -2.715836545433604 7.464214830127881
4.073327241803227 -2.375012207358325 7.72825695570728
4.842085997003997 -1.962155252005173 7.8930971136156804
5.566932493157267 -1.5021185874032008 7.9614002298913595
6.242076338665189 -1.011631588274323 7.941596253203225
6.856591332749225 -0.5066391167736303 7.843486137408269
7.155102549867252 -0.05070491863542653 -20.49435638487749
7.347407018127985 -0.0656522580748401 -19.501940223288113
7.440951404543327 -0.10195418843478836 -18.799304939905063
7.508569707836104 -0.14200287295611122 -18.114684485627908
7.535172421662744 -0.17879900121523565 -17.410023072767526
7.4756085109586214 -0.21186056994657063 -16.698550434004723
7.307501663052786 -0.21726864654105663 -16.022458144897445
7.08113909523242 -0.21208638950444322 -15.343617846795219
6.724781738501475 -0.166261010153129 -14.70343328272489
6.262778736348095 -0.09298606599462304 -14.137124058775779
5.699112493041786 0.003802002664881468 -13.623333879045317
5.053942228886473 0.11563098208149614 -13.15502052557339
4.3492619707282225 0.23874588243508033 -12.737766058995557
3.606459940034801 0.37162812643567866 -12.359607438739749
2.8480314558490836 0.5036412717610129 -12.008306678160338
2.0909423640345715 0.6166167173459491 -11.666421616235356
1.3321743618228599 0.7056409613035146 -11.311601269061518
0.5897147272697558 0.763955070737485 -10.930378203997158
-0.12104979927243587 0.7900397414139855 -10.511835925518774
-0.780594404455226 0.7834203693587201 -10.048026464038335
-1.371279472222591 0.7477545288777938 -9.54167292456343
-1.8843454516033424 0.6878636272540453 -8.997895009924035
-2.319341931723481 0.6118403571471804 -8.416516105284323
-2.6747681440020656 0.5251207762640053 -7.794183420207214
-2.9479236661295114 0.4327637843802292 -7.135530302485841
-3.140311059622726 0.3336192679268593 -6.438546457844056
-3.2561032861547097 0.22876930136521567 -5.6994608629610894
-3.301091984224347 0.12084683659668745 -4.940152099574563
-3.2853296934385123 0.01348880158475553 -4.175575712207487
-3.2244415656458734 -0.0772235236669531 -3.42863395571537
-3.1325045583592903 -0.13213671311913472 -2.7259308917131957
-3.019944944008532 -0.15782348390027848 -2.0719183910069146
-2.919619022196836 -0.14713767367040792 -1.4070372658327037
-2.8243222514975215 -0.04744681830071103 -0.7494311093857899
-2.757251534638122 0.13890939798407592 -0.0971369202010619
-2.7412152496886124 0.45163019264546445 0.4954653765001401
-2.762652603255128 0.8713080521066024 1.0313138697868873
-2.8036088184465355 1.3078919350663232 1.5017168872908764
-2.8935918859146312 1.803452647385941 1.9167300815134218
-2.9869076693063548 2.234798398655186 2.2354406218740475
-3.0701151142745147 2.555724118100586 2.4788110170486233
-3.12221277004956 2.7782382247073727 2.7423172596216236
-3.179372532246439 2.8253582705861726 3.028642505181082
-3.225896041675593 2.725846220455873 3.2712238163552434
-3.279249072953024 2.4537034230902366 3.531078924291829
-3.3585635931338884 1.911071381731464 3.791555542149728
-3.344858316686408 1.2473414559052869 3.9933255107768892
-3.263522536534477 0.46356158159118555 4.128263919295905
-3.0800791532145984 -0.3306518957501374 4.2241412859732606
-2.7722587259940425 -1.099941156876066 4.324419231034167
-2.312584579822298 -1.8265418690897284 4.471421757804887
-1.7095140547113479 -2.41964132219384 4.677761095004253
-1.0464361463635177 -2.8223032743930427 4.947727088687867
-0.34827589152061067 -3.0778556757499222 5.308982212528253
0.3615699168444664 -3.1985379448355076 5.723861086713354
1.06984427546784 -3.2104358735998266 6.153215379530812
1.7960450751719919 -3.1360356138498013 6.582884468422853
2.5515900101401936 -2.9761278020540627 6.986356787781771
3.337176283702105 -2.721262374894906 7.3322163071957185
4.127067747216936 -2.3849332117684465 7.588221178383034
4.903817578584157 -1.9780025761415003 7.748626409283651
5.640610303295961 -1.5228888677446089 7.8151962353545334
6.327605741785748 -1.0376479449846885 7.798319933027308
6.953687739991646 -0.5362630975519015 7.709495622448171
7.4898473120576305 -0.06500913582628416 -20.896224383584943
7.623692843596048 -0.1440409375751458 -19.9461970928848
7.688119336703443 -0.23807395765578362 -19.170299622049026
7.706172867840603 -0.31956685304226384 -18.381364067244373
7.669385898811485 -0.3768407301966727 -17.574099790288308
7.518359553545776 -0.44345679900706364 -16.780422363591004
7.247732307418039 -0.46628874939205106 -16.050466516796998
6.903130135436601 -0.44360996077916015 -15.436587497258692
6.523302410565588 -0.3826008668659238 -14.854414543195741
6.08649594428508 -0.2921212117204516 -14.285509026291464
5.554327762161443 -0.1671344908414495 -13.733125057639066
4.931546896539169 -0.01505724181591217 -13.218241853811794
4.227888249845223 0.16874234449648087 -12.74455002204762
3.4862086830952754 0.37345917086780334 -12.313071912206782
2.7139136335990126 0.5930455246690041 -11.911569952519057
1.94358319454023 0.7912167355810893 -11.536795109220956
1.1889651106827155 0.9608214727268674 -11.158313858612773
0.47661160930331925 1.0868597724862412 -10.75941172272667
-0.19194465857605958 1.1674054599647805 -10.319007768122184
-0.7974880847922581 1.2008208718093278 -9.832820414125166
-1.326420943014453 1.188018804025475 -9.311737170556317
-1.7745994649609496 1.1318246947846413 -8.770849244387804
-2.1459253853614513 1.0400653423468518 -8.22126234975327
-2.4459035596104766 0.9212869544370079 -7.665000149854471
-2.6796059337267906 0.7774614402015398 -7.097130013409978
-2.85069238790761 0.6010105043668779 -6.506924033151372
-2.9671411531738823 0.38561207852297885 -5.861625204614154
-3.0461622080969155 0.11620883939521909 -5.128267773828037
-3.108837456862357 -0.11277175784307833 -4.337138538932604
-3.1405939472894993 -0.3066823062627421 -3.532046031378257
-3.1496409317522667 -0.3856240042990644 -2.792407581454014
-3.1191113065078646 -0.4329985117040275 -2.126820458715736
-3.0842445809831984 -0.43763464714559874 -1.4591808079050925
-3.0527593158533 -0.354128607143099 -0.8102242433603258
-3.031873351971794 -0.1832677674057231 -0.19256868661621362
-3.026218293120473 0.08594915619659393 0.39603245895243566
-3.0427656209259655 0.46958461532565116 0.964106494544796
-3.0800231573394288 0.9483245337919066 1.4899777432975057
-3.1388020322789334 1.5334526398487474 1.9944519917824775
-3.209870203023063 2.101249801380412 2.4311986371462186
-3.2715663492557354 2.5497671794132843 2.792221085915368
-3.336204718387299 2.850118905635848 3.11296012617731
-3.384532679512994 2.947024808166373 3.348826074609687
[...]
CELL_DATA 87
SCALARS quad_param_group int 1
LOOKUP_TABLE default
3
1
1
1
2
1
3
1
3
3
2
3
2
0
2
0
0
3
2
3
1
1
3
0
1
0
2
1
3
1
1
3
1
3
3
2
2
2
1
0
0
1
3
1
3
2
2
3
1
3
2
1
1
1
3
0
0
0
3
3
0
0
0
2
3
1
1
1
1
2
3
3
0
0
3
1
3
1
2
2
2
2
2
0
0
3
3
SCALARS single_component_feature float 1
LOOKUP_TABLE default
-0.023821206659450422
-0.012232060287554115
0.031396544679305485
0.004731636420569618
0.0405564802113549
0.03486393277478474
0.014756344822395446
-0.013013960027534065
8.017437459028297e-05
-0.01937415440424211
-0.05811414404061034
0.046591428603419846
0.016383676312309258
-0.0143342975568092
0.045337126682980185
-0.06326620921615908
-0.015440316655837172
0.029601157968854923
-0.011988611021753972
0.002389342227934216
-0.025366041632056788
-0.05235699458800429
-0.044121737569753655
0.06467049383041598
0.035217310651790804
0.00038683207824408844
-0.023548562544899305
-0.03902348852423694
-0.033847184290222175
-0.03311151606586401
0.016621240180150456
0.01542899742430906
0.008525555556428782
-0.08070421364632589
-0.056156897399409
0.06504038546698056
0.02082804703130328
0.012580517182462593
0.050413465522560076
0.08302954717455716
0.04617606745874638
0.014331658688912324
0.010558692832216054
-0.0573765025475079
-0.031036193268297655
-0.019581079388156352
-0.023353540758466993
0.010617178335191078
0.022167690554212735
0.03591982582987316
-0.01289318445725195
0.008669233113336415
-0.06444126579375663
-0.002292098275283856
0.007630402935704494
-0.03269747542471038
0.06271237193857465
-0.011373032499217159
-0.028577006947823703
-0.012953705367984347
0.032423966725355406
-0.005691583284217816
-0.019240553850117734
0.0368239871310651
-0.01856770940107814
0.027939783729515846
0.023888780854181627
-0.034594568142659314
-1.4443834419227558e-05
-0.03177727485649913
-0.009364927161122933
0.0390903655591207
-0.048732526397973194
0.002472701933811241
0.03490726665316295
0.0303995288321544
0.042127259963143655
0.0041967832357402875
-0.008114041953019914
-0.021062787719338144
-0.004394851135081458
-0.022173198630791563
-0.009653506473561339
0.03247061016677074
-0.04936612826484232
-0.008253097492287795
0.042443485807698356
POINT_DATA 5568
SCALARS single_curvature float 1
LOOKUP_TABLE default
0.06840054120301022
0.10903410607479974
0.13321930737122417
0.14101608347292463
0.1914611205473739
0.2189025810551869
0.2078594897699147
0.2207213141230099
0.17700098501175812
0.12695931718867234
0.0886280069460467
0.0626433449000486
0.04484502478493715
0.04072280027301006
0.04976478315647996
0.06946460577656291
0.09238047286670245
0.11518459267134945
0.13599991561090305
0.15252162507607914
0.16329332607051716
0.16676905510815723
0.16237277653273163
0.152549447780977
0.14061883758802038
0.12364420946016408
0.10905149952613925
0.09667315842650442
0.08692612485686593
0.1115577594375658
0.13671992000994532
0.2023622451263438
0.24839553360004774
0.23363825865979074
0.24811965383144902
0.20680059005235027
0.17511405343543657
0.3512628924467605
0.6414971986102342
0.8387767664593387
0.8775825355099677
0.8381141500164603
0.6806628648654002
0.35069040508864474
0.21691415505000866
0.1894979416228307
0.17092249754897013
0.20262162899869032
0.24059783091511333
0.25765530553483373
0.25668210855428386
0.22735409389420233
0.17874952956686663
0.14711283800518454
0.13153955206118187
0.13190945086235548
0.14221118745145275
0.15110326647305675
0.1528360451141923
0.15119142763946908
0.11272646411401913
0.07426150058856917
0.03579653706311922
-0.0026684264623307308
0.06859580408429415
0.11005548579648401
0.13526200523254392
0.14910197841978728
0.19080341012670138
0.20905397397233744
0.1953327853844991
0.20093345880817995
0.16538935642336067
0.12393554868441452
0.08910962382210554
0.06346044326466158
0.045793221090932104
0.04284231243122123
0.0532465805536314
0.07460403664819137
0.09906055972793708
0.12159568537284089
0.1407671230668104
0.1551481667414823
0.16433734632733102
0.1673195908237432
0.16271385261862398
0.15025536498323738
0.13248750779960575
0.11277900992854092
0.10113002319868328
0.09323463088013084
0.08925725289105725
0.11701943049365737
0.14076064393962295
0.19927517960416163
0.24286529844322632
0.23097412713174348
0.23695306302515123
0.19425993775396302
0.15539327546002246
0.29805651609971173
0.6400314909988484
0.8508009713693347
0.8891540808221157
0.864131334674315
0.7018215462117497
0.3560858454176413
0.22203140589681689
0.18913191291885564
0.17390818928411542
0.19977389772489967
0.23574222148529966
0.25385419827656797
0.25488191113858694
0.22932398925499414
0.18385756215448074
0.15027469134539367
0.13282672415005067
0.130617160934582
0.1384360765391066
0.14580758749362993
0.14637368942909848
0.14367411594687726
0.10666857030107653
0.0696630246552758
0.03265747900947506
-0.00434806663632567
0.06868985788992067
0.11210780844238122
0.14300781276450136
0.18808403518057032
0.1962501587160167
0.18141690923622825
0.15873954105181373
0.12647139993192774
0.12259523063476069
0.11307126229227855
0.09160657859844577
0.06848117505279641
0.05055320389724866
0.05186162697981743
0.06702822068820324
0.09390043233847607
0.12567243888165255
0.14941368828700333
0.16499438662040403
0.17252270593249364
0.17577058558881128
0.17610935836682384
0.16756501801099213
0.14480305463693216
0.12177244432463827
0.09518299831999047
0.10904183607999798
0.11625685647230272
0.11888381976233618
0.15289446298088977
0.1598484330880066
0.19186767085948989
0.22401006524087297
0.22136257963822942
0.20197649586751762
0.16449039172947055
0.12029649372543551
0.17536460887161107
0.6178957325622211
0.8643970504693267
0.9058891200275903
0.9059598843726406
0.7561016486105628
0.4024552579980411
0.2543635850541152
0.19930587533669236
0.18310372887718362
0.187506170768452
0.21643271563619848
0.23807362247772762
0.24697975496460595
0.2364906579901848
0.20168030173394355
0.16143232290608397
0.13705477453807702
0.12532191016214012
0.12393870990602367
0.125891564288687
0.1226159143393301
0.11705508726305583
0.08555808159544868
0.05406107592784154
0.022564070260234395
-0.00893293540737275
0.06906402534333038
0.11151958116280011
0.13869657552364703
0.1633066577807288
0.19173129320704382
0.19671008264127193
0.1792639655943597
0.1716061269842755
0.14847737947691822
0.11960887073161844
0.09002868709175597
0.06519588727143277
0.04755266333528923
0.0462946755260695
0.058578097800803114
0.08215715537727429
0.10918520385414152
0.13174984498792533
0.14894555140916443
0.16030302691422357
0.16705094540712023
0.16906479141749525
0.16359447865524943
0.1473128967443615
0.12378062823600688
0.10081550373161988
0.09783927104864654
0.09623564879575106
0.09838450828228054
0.12965465079181507
0.14756099402062342
0.1955618746467526
0.2350771282023537
0.22711694415008768
0.22216850176829514
0.18003051259985559
0.13597980756003109
0.2368866508452904
0.639880096489487
0.8644502951525671
0.9020552348533692
0.8907548755365207
0.7290116605524503
0.36982288877779573
0.23267037847661107
0.19138935047714492
0.17785097090034085
0.19524940352518463
0.22837626218072804
0.24794721205752823
0.25201954464556187
0.2321799426250451
0.19107364132513674
0.15476579693599804
0.13459256336481654
0.12863762718920296
0.1328454350097019
0.13805048545570858
0.1370138956654934
0.13296133762423037
0.09809812229794675
0.06323490697166312
0.02837169164537949
-0.006491523680904138
0.06815450646585595
0.11172350558832485
0.14396169641339512
0.1964795206388015
0.19900841791623797
0.17803570393786924
0.1537787677087511
0.1127335899444674
0.11426927972190609
0.11090912650569526
0.0921078411554834
0.06961733428481304
0.05152244729405836
0.05367643576666442
0.06984710345004608
0.0978478344737321
0.13142633117259428
0.1559088407464336
0.1714691674515967
0.1781602864224475
0.1805181614690558
0.1803524884447131
0.17014025596695911
0.14475790776716718
0.12351690530356571
0.09586148844778442
0.11551416829652753
0.12544357968327097
0.12647244762954601
0.1607582257460498
0.16434333323411537
0.19125614276656736
0.22069864634746864
0.21964359806816966
0.19585176634659116
0.16051444296495487
0.11739562285170625
0.1622118457929508
0.5973217938826869
0.8552392040543558
0.9009370744029401
0.9036921255259921
0.7602641613894991
0.4159177276750707
0.2625537185522642
0.2026591696236576
0.1847011834454499
0.18476295226451644
0.21232841518457013
0.23461170596642866
0.24510232643061722
0.2378921867550491
0.2050895576549846
0.16359512595669687
0.13780504782774156
0.12412778708589656
0.12085578131932172
0.12173731600422526
0.11777901435172654
0.1119213341468856
0.08157608130813235
0.0512308284693791
0.020885575630625847
-0.009459677208127404
0.0685110121027912
0.11199692964769686
0.14340333444336753
0.19129571262346318
0.1971690838729268
0.17994481510543434
0.15665468784440958
0.12105590245067789
0.11938235877903454
0.1122473603159283
0.0918008755732597
0.06891465815287391
0.05092693075318124
0.05255787455427507
0.06810307422079921
0.09540150685071017
0.12784754725330572
0.1518487951392495
0.16738619826015325
0.17456068969277103
0.1774447663934885
0.17758545725962832
0.16845139836767284
0.1447313974092343
0.1223498979279986
0.09535674432558873
0.11142285439023651
0.11968352710817248
0.12175301215523193
0.1559005306940636
0.1615398418395108
0.19159387697730512
0.22272008882197056
0.22068818869135107
0.199607844931647
0.1629181998784569
0.11909668586059613
0.16997142512482277
0.6111185018061951
0.8616082852353649
0.9044609187494067
0.905575546354955
0.757987696848905
0.4074442804563707
0.25743930813777116
0.20055470864256728
0.1837178360922941
0.1864685515624947
0.21487477162732702
0.23676317076331357
0.24627752676187248
0.237026908233021
0.20298576800728674
0.16225922466181314
0.1373447498258993
0.1248731030016114
0.12277274268749769
0.12431721737009019
0.12077769326601012
0.11508951355178347
0.08402891168652585
0.052968309821268225
0.021907707956010603
-0.00915289390924702
0.06912704434253585
0.11203480426128137
0.14055474553649988
0.17248384469225345
0.19302350008288283
0.19034525957734055
0.1708328455395713
0.1542800145420249
0.13859120227781735
0.11711120900251291
0.09062570153587482
0.06639546724073163
0.04868568548067089
0.04840875154529934
0.061775320637951145
0.08660407094816386
0.11531995073145204
0.13815884799722855
0.15450240374084723
0.16423477698664066
0.16956574311444342
0.17093921827230624
0.16459008093523658
0.14600004769584785
0.12135854476319537
0.09686593763355776
0.10007231827204037
0.10194811030025028
0.10557660801048364
0.1382610196587418
0.15199515188905843
0.1938542530650097
0.23071215653369473
0.2248747104170791
0.2141653696487863
0.1733768093007385
0.12843662733885478
0.20923309607830487
0.6365574402396367
0.8682598420185396
0.9062502601600692
0.9002084974062483
0.7417358928256337
0.3807343230902885
0.24029592266256983
0.19390468084542334
0.17994982105569474
0.19240806556494902
0.22391569594099112
0.24429835070669775
0.25020120367240417
0.23383385107403556
0.19517404850377876
0.15733279412400106
0.13556512859371622
0.12741976811592445
0.12951136148806533
0.13347105635222917
0.13155057793080904
0.12683047926263197
0.09323408942943796
0.05963769959624396
0.026041309763049955
-0.007555080070144049
0.0685725820901052
0.10997994418941781
0.13510795065347542
0.14850660836021062
0.19080906856037685
0.20967768993398134
0.19613418615260345
0.2022768089965127
0.16617193968088007
0.12413787214940357
0.08907237087059745
0.0633939616734223
0.04572100538565118
0.042691331956727654
0.053006299668214026
0.07425626169171344
0.09860322079357331
0.12114944923433932
0.14042535386906038
0.15495017712887937
0.16424946754277875
0.16727017401738276
0.16268760487943937
0.15040594730558707
0.13299522733259664
0.11345854319422001
0.10151033830954813
0.09331537159243225
0.08897625371054683
0.11654455487962762
0.1404716361758826
0.19947008694186297
0.24323392831449625
0.2311526394044353
0.23767647437222106
0.1950245553148308
0.15653690474866555
0.3013443818157954
0.6400329777913903
0.8500246387585297
0.8884235146311013
0.8625747593569171
0.7004388095820018
0.35561405844845473
0.22162551213281617
0.18910277500212663
0.17371419014041725
0.19997258298099285
0.23607475622634996
0.25411701824367017
0.25500731784196273
0.22919129494134496
0.1835172114687866
0.15006360583814563
0.13274187134187357
0.13070589703981855
0.13869199085241193
0.14616508458970703
0.14680813389287553
0.1441767460471613
0.10707259238804291
0.06996843872892453
0.03286428506980614
-0.004239868589312246
0.06896540965573865
0.1111756557732177
0.13776786369384383
0.15920516267020154
0.19130012250519385
0.19988614892110826
0.18343479852546032
0.17966922758313814
0.15309800636133145
0.12078304206001977
0.08976039520774218
0.06467363282312454
0.04704199138930057
0.04532336198012845
0.05709988077748448
0.08008698300189787
0.10637351703989349
0.12887712394761108
0.14655385421828904
0.15871508459032832
0.16613564547302234
0.16843552720447552
0.16327508010069647
0.1480438002627757
0.12565249160610978
0.10349147978385885
0.09782788097509477
0.09454514546588733
0.09541104338796674
0.1258569566384694
0.14560105569839416
0.1964793551923259
0.23716816121133757
0.2281706948433703
0.2260593299448218
0.1835232898931727
0.1403732679691104
0.2517861906084242
0.640258322539319
0.8614632961576265
0.899163805218837
0.8848043659597192
0.7221826825507649
0.3654237473587991
0.22943484736075512
0.1904885689959488
0.1768200321902146
0.19652856517022627
0.2304222771166494
0.24960359032587634
0.252831350554981
0.23140252730128666
0.18912826443089245
0.15355192105926865
0.134123007025598
0.1291906840458288
0.13438528637076771
0.1401771317396456
0.1395669814531392
0.13585957952474242
0.10040855434258708
0.06495752916043174
0.029506503978276394
-0.00594452120387895
0.06842498961486541
0.10938792072016329
0.13392711123379544
0.1439185195557071
0.19105366649916927
0.21496223862096553
0.20288079322950917
0.21316134502523018
0.17254287640621763
0.12579275198140258
0.08879347908251695
0.06291157780225952
0.04517549006580387
0.04150354598891545
0.05107897096086245
0.07143218471276597
0.09491801873689432
0.11759294302510345
0.1377546544746993
0.1534540157596816
0.16363234734746454
0.16693912873697841
0.1624956181835402
0.15165774314532385
0.13736307937026962
0.1192929991758993
0.10541881457799207
0.09476836095962052
0.08732387514731416
0.11321951403335372
0.1382078472411808
0.20112852444603302
0.246257674886461
0.23260953615863755
0.2437171345694632
0.20166703579404893
0.16681051604014963
0.329700520030129
0.6404854773657483
0.843469852688095
0.8821792734256947
0.848837763872229
0.688918837215183
0.3523491355183514
0.21864276491376955
0.18914890785090455
0.17209597803593746
0.20155385823337987
0.2387536209370644
0.25622105533689316
0.2560061347808868
0.22811042221917843
0.18072532269471453
0.14833433187675463
0.1320408537452585
0.13141939869177244
0.14076725519610686
0.14907210456928544
0.15035065103845813
0.14829042659062847
0.11038488926608606
0.07247935194154365
0.034573814617001236
-0.0033317227075411737
0.07444204993312716
0.11221087785788453
0.1357856169038861
0.13161238766854846
0.204683620459462
0.2590736664791654
0.25627750675376865
0.2772284656603082
0.2113118668601459
0.1361927494470212
0.08857972369105371
0.06309152760105806
0.04425455820164272
0.03668609711606808
0.04091356708214083
0.054708011222548925
0.0741292921526756
0.09883711890704563
0.12525364440223324
0.14779363955318622
0.1622775929412937
0.16601941417898217
0.1608078153048721
0.15856775108583132
0.16716877334596597
0.16005531512333346
0.15667604826965376
0.13186359692837746
0.10367413883785949
0.11682762238376264
0.12805142976942135
0.21348906878304175
0.26523591652161627
0.2438327784270691
0.2899245485688788
0.2667023726859711
0.28341889862034814
0.5649121629719294
0.689877620645424
0.8174514243716975
0.8472968544744801
0.7304741949121863
0.6210266819294323
0.3561812089246834
0.2151559484074975
0.20238663583196262
0.16084694791880252
0.2097617005718256
0.25393679655227097
0.26762526075530846
0.2612982027235517
0.22161421315509516
0.16297359515664156
0.1374130803951517
0.12739664795972744
0.13544076938390917
0.15311773348882893
0.16668299693511338
0.17216428491076263
0.17405081771426634
0.13131150271590897
0.0885721877175516
0.04583287271919423
0.003093557720836859
0.06769516660254812
0.11131402312081538
0.14442940287854583
0.20180923588465297
0.20163105638587095
0.17704087653301087
0.15181701408042358
0.1050805320815314
0.10918473449358997
0.10951088833452607
0.09241400377184866
0.07034483147136167
0.052125304129104356
0.05482461691674959
0.07166419148411564
0.10041405335180024
0.13522654154255154
0.1602932363422325
0.17601058450883053
0.18233651023213093
0.1842473499711386
0.18378429265752563
0.1722710516483903
0.1449875532903625
0.12495694166986038
0.09658279266761705
0.11997366835295226
0.131608457282587
0.1314445964551141
0.16577490860571054
0.16734038473633486
0.19105816364515676
0.21870256784222952
0.21863992003155974
0.19205756126009993
0.15818521548462197
0.115892124421852
0.15534992399326897
0.5786839430058921
0.8457450617557748
0.8954257287607321
0.8998904875269969
0.7615936336998297
0.4252364100301363
0.2680342676207438
0.20493830705161786
0.18571707445965932
0.18296115749450642
0.20965383803109622
0.23233992659717587
0.24382695837103907
0.23878738215073203
0.20726497755763404
0.16498105104492664
0.13827127695942382
0.12332632407078208
0.11882045551940333
0.11900951510531635
0.1146273277204858
0.10864669034846217
0.079058048619041
0.049469406889619844
0.019880765160198682
-0.009707876569222479
0.06911511596156138
0.11208614787834893
0.1408324534789681
0.1740025220101409
0.1932762688508889
0.18937364788036723
0.16953648958212747
0.1514868878517166
0.13699893576674238
0.11671013376313191
0.09072344791742
0.06659664460532402
0.04887109409355205
0.0487517256680865
0.062293686119496615
0.08732313000821189
0.11632422615536636
0.1392264608990486
0.155457642277831
0.16494364988000373
0.17005242834273626
0.1713211793852904
0.16480006944369863
0.14582533634709993
0.12117570875644375
0.09645828121130112
0.10069763266277151
0.10311959452094166
0.10682049070244454
0.13968864982540216
0.15273901467746287
0.19361253099696266
0.2300242207893572
0.22451678838397351
0.21291370777470586
0.1723978187450171
0.12742723547796986
0.2052882598800729
0.6355693314438908
0.8684903665317202
0.9066429190129448
0.9013162326372484
0.7435235162602096
0.38267421433021054
0.2416051063338566
0.19437538241728472
0.18027542905943592
0.1919373241487191
0.22318655197738352
0.24369725846294688
0.2498972403878573
0.23409902498949287
0.19582728926825108
0.1577428694367312
0.13571779346636356
0.1272187685477863
0.1289683264621586
0.13272839572809622
0.13066909830415616
0.12585128448126714
0.09246046374672595
0.05906964301218476
0.025678822277643565
-0.0077119984568976285
0.06853511346438912
0.10985294415438851
0.13485129174199698
0.1475159757579779
0.19083015696381989
0.21074331585874964
0.19750091642924542
0.20454277024552578
0.1674938001479135
0.12448008309905217
0.08901084022529088
0.06328508291722104
0.04560145289842623
0.04243866757791128
0.052602096693462094
0.0736692465569653
0.09783302406419957
0.12040038007971263
0.13985499142229588
0.1546230200126036
0.16410732863619737
0.16719142058440134
0.1626448965859117
0.15066216619619857
0.13386844067410264
0.11462616528294081
0.10220127022590979
0.09349909274901583
0.08853806046550766
0.1157729785268312
0.13998885413839643
0.19980374582569127
0.24385802455628874
0.23145428866156714
0.23890729144304013
0.196340574742589
0.15852519636683934
0.30699398086742424
0.6400565784245381
0.8486956087619822
0.887169344125691
0.8598802662831306
0.6980851157176772
0.3548518842472186
0.22095908561655075
0.18907042144294187
0.17338413545823267
0.20030598343606376
0.23663472562840007
0.25455878787807906
0.2552177807064836
0.22896710684010022
0.18294103157591524
0.14970639853389442
0.13259791966280424
0.13085523309413394
0.13912375057926088
0.14676871554122103
0.14754229223517937
0.14502708553791047
0.10775646029971993
0.07048583506152939
0.03321520982333885
-0.0040554154148516874
0.06779727111850714
0.11140896911495571
0.14434271067084023
0.20071811399126677
0.2010132390364664