# vtk DataFile Version 3.0
vtk output
ASCII
DATASET POLYDATA
POINTS 5568 float
7.254686504586713 -0.016144884755780506 -20.63856622409393
7.4154881561303325 -0.023089792694291948 -19.68299752795314
7.500845066327448 -0.07748099929425577 -18.95802908137006
7.557164923279582 -0.13574835844866456 -18.24179815150295
7.564895231940628 -0.18981730656236281 -17.51250384670113
7.482202524721893 -0.24453069329834184 -16.78262316949441
7.290810594165924 -0.27069970722589276 -16.094226572414215
7.037868356990702 -0.2781086439587513 -15.431653265424153
6.679079915422938 -0.244536329488677 -14.800453546539805
6.22566525824746 -0.18223526145529154 -14.222552778449614
5.67352038091497 -0.09282970725907803 -13.681136741474615
5.029914501311928 0.01890494613962118 -13.188351329775083
4.318701038622843 0.15221579587316955 -12.742915319011486
3.5669577084392836 0.3042101471761539 -12.338629396727692
2.7966943173985244 0.4633757064367521 -11.965865640620475
2.0336845874341556 0.6028334101181562 -11.61339821309712
1.2750469786620309 0.7193763713977798 -11.253074200474442
0.5429003372435404 0.803177624628713 -10.870715225119115
-0.1557097176983494 0.8540742562829229 -10.452382249345249
-0.8032354452880975 0.8707554423702267 -9.990027038575306
-1.3837898952418373 0.8539657935079169 -9.485742793685247
-1.8872610926461992 0.806230398206178 -8.948285883041763
-2.3150448634310097 0.7357683586674463 -8.380525338930063
-2.666126906827672 0.6497377904242015 -7.779588161765132
-2.9387988239775025 0.5530164305433138 -7.147054767298051
-3.1345969976859425 0.44198301458504874 -6.477309818249358
-3.257468653747819 0.31515295769949714 -5.7548190515661855
-3.3164311519888887 0.16719732233032714 -4.986248282369851
-3.3247013456875645 0.029097734281976123 -4.197144280428423
-3.2868601424642123 -0.08980969125365476 -3.42930123044157
-3.2152375008392737 -0.15790427381508812 -2.7270035673015203
-3.113948922495449 -0.20055573542126812 -2.0941782755393445
-3.018908662557411 -0.20966105880379127 -1.4581182630282656
-2.927098139903117 -0.13380989618496292 -0.8342822025567196
-2.85439704372037 0.027954842593543028 -0.2180011820223402
-2.818149201206528 0.3085117068641287 0.36118489000094556
-2.8191921005533658 0.7048891308063401 0.9111364387718605
-2.850091760874606 1.171057258016887 1.4141116724785388
-2.9233883845065747 1.7146155587792975 1.8589250332048186
-3.0053254018867905 2.1995945838534836 2.210454460866078
-3.0776881802375358 2.5626747448362286 2.4814450616397643
-3.126054131977653 2.8117493921047454 2.764713264945008
-3.1777715741787964 2.87862753993478 3.046515516448239
-3.2121866900399567 2.806031464762574 3.294860180524998
-3.2676019207028357 2.5472576150653397 3.5855337119479196
-3.331025175155097 2.000723571536053 3.880814754033981
-3.320418128336254 1.2952025870996833 4.08810069621002
-3.232518331882191 0.5004961613632735 4.216391795961567
-3.042667761769996 -0.2916621185921936 4.3100047918204405
-2.7320087842549574 -1.0491417295712626 4.403757969477964
-2.285643605724847 -1.7595397826181383 4.525683970062229
-1.7040562441494314 -2.3666680320973086 4.702469260349971
-1.0324379656441853 -2.8106623831125335 4.947333100378998
-0.31837993730388836 -3.0968289437368686 5.285597310489315
0.4070097313634513 -3.239121558497593 5.682643393518112
1.1299565302994177 -3.2627595104356084 6.097716046163624
1.8670516937211532 -3.191479893268305 6.515250839325429
2.6284778644116167 -3.0303409518392566 6.90657929772174
3.417177933056095 -2.7757164144571274 7.2387547931878125
4.215371177721351 -2.436334852067692 7.483175979384231
5.000526089227365 -2.0242893145833207 7.632818691084915
5.747099901355247 -1.5613505844431208 7.688847383589086
6.440550369706906 -1.0676628417262206 7.664963937941881
7.0710707716426295 -0.5543756319809121 7.575858877922857
7.2316867231376785 -0.1709025403203857 -20.51202139566494
7.454564267980511 -0.28804993654044714 -19.453058572118394
7.541091810867532 -0.33250735797876335 -18.738827974414324
7.5899055724158355 -0.36228664735722904 -18.03688536160011
7.605588672220602 -0.3688024772560447 -17.294796457628745
7.517375174819899 -0.3723620058055032 -16.550391135971136
7.3084624326764684 -0.33358168515577136 -15.852894303796042
7.0311246638324505 -0.2708582333560599 -15.205402901945194
6.6544907529353035 -0.1709443908317279 -14.6030929991224
6.1937780385654655 -0.045523951423442066 -14.066590946633196
5.629517568011725 0.10460002333559729 -13.590698325408963
5.0048507559302795 0.26082178574688253 -13.143766714199892
4.32184534766118 0.4195343182721767 -12.748832759475214
3.6089668563939883 0.5737659892525674 -12.390643611671718
2.8731944792875534 0.7200741938984372 -12.049494181163354
2.12176356607384 0.847108855847897 -11.704243528535432
1.3698323191584034 0.9428514846843578 -11.34085503954528
0.6324125639205525 1.0005937308708976 -10.94412418328492
-0.0658373717573919 1.0134923391634563 -10.500740046053249
-0.6997108562811979 0.982130578920311 -10.007120734214343
-1.2507020022417494 0.9157914430019407 -9.477323697628353
-1.7189198981303426 0.8234779187428276 -8.916910236907242
-2.103133824801599 0.7122802929941466 -8.32968179352078
-2.4080676869822106 0.5856795449905532 -7.718135638837915
-2.6369973643008024 0.4457694789842057 -7.086347058408484
-2.793975324651005 0.2919703339586306 -6.434505374382544
-2.8886961416605494 0.12710870138769034 -5.760340620688556
-2.9292004749407656 -0.03684958989851389 -5.069711472945154
-2.9274547082078772 -0.1830726803228306 -4.356771049237768
-2.8981298456023477 -0.2999496191211517 -3.6166424074232237
-2.857738041123524 -0.34084465817327664 -2.8762164176205904
-2.8062225584956515 -0.3373350886867662 -2.143784798481791
-2.767557661554437 -0.2801313393924452 -1.3829420048505328
-2.739047780328538 -0.12133330280121823 -0.6260915307154413
-2.7474538963114497 0.12726442028819823 0.10294742856170436
-2.808771314472558 0.49300895374520304 0.7371667065687938
-2.887283032334633 0.9451296341967252 1.2690567487924778
-2.9525844125224876 1.3419793957462247 1.705012542934523
-3.058782979391187 1.794181882372114 2.1278888026565204
-3.1642294606725634 2.211566581211611 2.472831191861386
-3.2602048966739865 2.5402774916026516 2.7555721995670486
-3.336542175030218 2.766601724023078 3.0224692805304256
-3.3980712002384834 2.8130040502410423 3.260629540543449
-3.4304417886436496 2.7279220097553023 3.4613290844718776
-3.4622729338441656 2.457085162531782 3.679362176595356
-3.5367678839592704 1.953865664357704 3.873641167611292
-3.521927223914859 1.337740225889498 4.0613450085064
-3.4321617017280563 0.5180090011762274 4.170402366385392
-3.2261471014578986 -0.32593642262545774 4.234320502531045
-2.8710972164102446 -1.148438510439088 4.325500019403362
-2.3731339366428497 -1.8921724617237925 4.474484295389377
-1.7261556080279359 -2.4602243337726 4.691438172393052
-1.0379716689213705 -2.801406258212362 4.997720207433278
-0.36834080285944093 -2.9907955071562786 5.363837516818146
0.31590304026370863 -3.0644283383410196 5.772376391713046
1.0020048588838928 -3.047621137215171 6.185575481382788
1.7167624101845447 -2.9592469313737593 6.59597982945675
2.4666416891931737 -2.800136077496372 6.980530775325346
3.251639322438848 -2.5588313904963624 7.315476489781453
4.0430853882826705 -2.2502364542539333 7.572476299213572
4.829773455377156 -1.8829909694698346 7.7465603990601375
5.58986076476688 -1.4711671805828428 7.837468175572334
6.310310257302464 -1.0319393183028471 7.854014056763262
6.9752204682057295 -0.5790837685761187 7.805043102929236
7.2353866025346605 -0.14600731848458387 -20.53237813707731
7.447716125391722 -0.244514755964922 -19.491196048664264
7.534056250746188 -0.2905597289198622 -18.77525182976658
7.584061332915873 -0.3248742849433204 -18.071095588485303
7.598452994279827 -0.33908353266897157 -17.331289096180985
7.511161780346741 -0.35092897740430107 -16.58947226311076
7.305204977990765 -0.32269867399553515 -15.893837069486482
7.031998077960223 -0.27128301364977997 -15.244424720451088
6.658482682063391 -0.18204571025653235 -14.637920817616415
6.199239392326911 -0.06674580470002725 -14.09519589326439
5.637371217144152 0.0736272806071617 -13.609313960528517
5.009891255448809 0.22277826430163902 -13.155267650679743
4.322518431306593 0.3774815777870387 -12.752432882596825
3.6035020140638125 0.5313745891799567 -12.387000307288654
2.8622475692290927 0.6797160606083572 -12.040852873694595
2.1089673621184826 0.8087341283624303 -11.694449735251618
1.3559903163269946 0.9078068659452407 -11.331566462120817
0.6194787394290138 0.9697556957406632 -10.937188181675799
-0.07869893204515421 0.9887988633542125 -10.497939470690097
-0.714552589402766 0.9652071855318706 -10.009544291832073
-1.2700415879037765 0.9068570762187013 -9.484086304117593
-1.743703251756897 0.8217466102761782 -8.927621557527939
-2.134706117008224 0.7171416771675458 -8.343822411992354
-2.446869459290984 0.5971065401257817 -7.734300876446732
-2.6826742705161664 0.4641745136071983 -7.102721075540975
-2.845755541061968 0.31724258290607893 -6.44831929416512
-2.9448687120094097 0.1583839892818754 -5.766734811703472
-2.9882289326379343 -0.0031340151746782896 -5.063953243343058
-2.9880304767588153 -0.148137077685782 -4.3390715626327525
-2.957355412360054 -0.26534018244012597 -3.5945240893176416
-2.911850283093101 -0.3106874455584536 -2.860488528178421
-2.8518818783234994 -0.315028995636115 -2.1451624545678816
-2.80347933022422 -0.2692899601127511 -1.4059657714686948
-2.763909022092519 -0.12496154722530978 -0.6722586077061299
-2.7582338695734343 0.10851906024829511 0.03707902064776436
-2.8029300388905334 0.4594336431394601 0.6613133083647103
-2.868713685814207 0.9019231440475638 1.1955135989253534
-2.92883682998366 1.3094252314586459 1.6417900340032534
-3.029982980525269 1.7755495645620842 2.067964417738563
-3.1317692169857456 2.2033063038351877 2.4138534234094884
-3.223949898398012 2.5372969394488942 2.6945837841277687
-3.295868992334548 2.767092272104226 2.963934498450021
-3.355947976167999 2.8165912082744913 3.208751021079763
[...]
CELL_DATA 87
SCALARS quad_param_group int 1
LOOKUP_TABLE default
3
1
1
1
2
1
3
1
3
3
2
3
2
0
2
0
0
3
2
3
1
1
3
0
1
0
2
1
3
1
1
3
1
3
3
2
2
2
1
0
0
1
3
1
3
2
2
3
1
3
2
1
1
1
3
0
0
0
3
3
0
0
0
2
3
1
1
1
1
2
3
3
0
0
3
1
3
1
2
2
2
2
2
0
0
3
3
SCALARS single_component_feature float 1
LOOKUP_TABLE default
0.008534407514449109
-0.025708490025354535
-0.020199977199647078
-0.03933015689785921
0.05545659480863718
0.026074941260581228
0.04182875697604703
-0.0008295928274992675
0.005337386205810785
-0.024152396851327626
-0.008547008270040499
-0.01734291718952452
0.00021630308574885002
0.0038546255206924965
-0.0068795367849151245
0.03268256789349373
-0.02066090682034767
-0.0012036065392273393
-0.021759842127926213
-0.011883077994250764
-0.042490912964881486
0.0001058192457742517
-0.0008584153271068984
-0.06305019749408454
-0.05967464179286178
-0.0494408491791094
-0.005121417439954701
0.014267661662635045
-0.030896385979478976
0.046749746253533966
-0.04411317791395304
0.05564044672914247
0.06458424626749602
0.03487491857288362
0.014750903172935401
0.09397706164710484
0.013358595282327239
-0.010850333955333368
0.008727969751200035
0.04682488669309193
0.030159508688205577
0.010108905509606674
-0.04149917523618916
0.015475415747844848
-0.005179507946990777
0.03212208169955494
0.036756251090254405
0.015766433851445362
0.02427830117302348
-0.03137414952114046
-0.01120196561276373
-0.037600930960908455
-0.024598009686311567
0.02763415386362117
-0.024023000332453612
0.01567795064274055
-0.03842658970152481
-0.04088009005602955
0.045152497227021325
-0.005633506609724059
-0.04083852254039853
-0.04848421487751914
0.014665784279527739
0.0037860340603532443
0.01574925472938625
-0.01585838738486709
-0.010488769643834106
-0.040900997248943256
0.050685296755557815
0.00036203648811387185
0.04535738921958664
0.024044695415166666
-0.05411867137064953
-0.009254349273055976
-0.006862867860995669
-0.003416187839779969
-0.007479940157743573
-0.010555597710278412
0.04502705042283324
-0.02801789210640699
0.0027331877801221593
0.07174341745515353
-0.008835014602442732
-0.028104543557120082
-0.03655689453376772
0.01884698043658878
0.0012031528672295476
POINT_DATA 5568
SCALARS single_curvature float 1
LOOKUP_TABLE default
0.07423890358491365
0.11523158059029458
0.13551781834259324
0.15572641023864478
0.1861627833004342
0.19539207884257206
0.17800225015485607
0.1792214446911186
0.15263644264028306
0.12143875687315873
0.09370367691471485
0.06607506527307815
0.047680417343399104
0.04470229892335375
0.05419969419736559
0.07533261912921303
0.10167333898227883
0.12443559131245843
0.14276996034892586
0.15636570713644785
0.16515169086077183
0.16843257729645777
0.1648338500532886
0.14998696173469825
0.12688851868328327
0.10514716010208996
0.09839383537731222
0.09816550054350108
0.09836901096498243
0.13059496645301608
0.15342559206232892
0.2016873953077373
0.2425870358161855
0.23648604358438868
0.23459554022682846
0.19130312512165443
0.14779912325334038
0.2602119204651011
0.6213184757090323
0.8411093363706516
0.88217341637365
0.8635582903110667
0.6981113149353703
0.36060019826633316
0.23329444129948929
0.19524906459036234
0.17682697058508046
0.19216416681719095
0.2213225169008803
0.24050959619994144
0.24595488605199453
0.23032504709658602
0.19439138083954804
0.15992425505814614
0.13982954225452024
0.1341363213461937
0.13877298803579297
0.14434347297346467
0.14359022786934075
0.13925136137094488
0.1027054510723916
0.06615954077383832
0.029613630475285035
-0.006932279823268245
0.08965152975512936
0.1348662991600489
0.14728310774776815
0.1700693066915523
0.20520698412561247
0.21210817519691075
0.1990686538677267
0.18043940298099842
0.15465358613189242
0.11998146725986884
0.08002408713664905
0.0639535239031775
0.04802907075725976
0.04901683921023596
0.06643566798666045
0.09374894193589624
0.11970273811319986
0.1413695825571138
0.15707456989390445
0.16495126610073862
0.16819209691361917
0.1675310306115554
0.1575126482928663
0.14187407238278166
0.12237903816153967
0.10156531005828111
0.10310046064211914
0.09715081984676084
0.09759101601162493
0.12045872213562828
0.12809839519810826
0.1790022830685803
0.2219613359941014
0.19785119948608196
0.1928229701663147
0.15374217898103168
0.10925098317423527
0.2213946660424754
0.7016340620235865
0.9144622993620762
0.9408147805729759
0.9357573581148325
0.7922702555418307
0.38278046364332047
0.22486406177435572
0.1820902125134512
0.17694774963013685
0.2091850241435737
0.2574857226916108
0.2763217728732806
0.2721535382501264
0.2339255967890468
0.1724116883124782
0.13372680069840384
0.11697181194838606
0.11447507955115965
0.12107087557129116
0.12718341517642875
0.126845307162453
0.12497063608355523
0.09296152834605723
0.060952420608559224
0.028943312871061222
-0.00306579486643678
0.0812744971846007
0.1259320660761395
0.14493892019531332
0.1676571100368576
0.20244561587636
0.2097218822137924
0.19590185296131887
0.18045501604795766
0.1543568824706416
0.11998358134931582
0.08173118488859801
0.0635696425481736
0.047361546179252256
0.04793452892567666
0.06434411251641284
0.09089028532565667
0.11692995188914058
0.1387839150724917
0.15491707599484292
0.16371194840063183
0.16785862124690965
0.1678316085049558
0.15887253219579606
0.1432208256981288
0.12301864250498813
0.10156801220082703
0.10123846655490816
0.09530787799795867
0.09610195436969544
0.12086301959367307
0.13126114549939485
0.1829070878989976
0.2250971252371792
0.2050336578298055
0.20092108604642844
0.16094310709830514
0.11702961904904527
0.22864687553941812
0.6879561400009715
0.9042607979960136
0.9331062397941525
0.9264651190810773
0.7775899617125942
0.3783005230788848
0.22429059098224619
0.18261086345084307
0.1769161774647837
0.20659548071455033
0.25187242680610294
0.2707955844712782
0.2682733203914997
0.23351318835965265
0.17604071589223516
0.13800856521875246
0.12061181816391017
0.11759322191784902
0.12394497970633372
0.13004163978746952
0.12966616796478905
0.12740837559567536
0.09463926890470689
0.06187016221373842
0.029101055522769953
-0.003668051168198516
0.11538074401696245
0.1617606716059188
0.15359361580301734
0.17609543512682915
0.211451088908477
0.21741990074916498
0.2063919360324389
0.18007401707671716
0.1553853141720171
0.12053712440681472
0.07704808088892104
0.06637878439864732
0.05094668120318242
0.0524671251234899
0.0717623056341447
0.10060858225122885
0.12630124456731387
0.14748374087475274
0.16211885652126867
0.167748256166113
0.16875258075341876
0.16654285771293872
0.15388187097685113
0.138585791006357
0.12107433374198744
0.10264458760886397
0.10903728150476026
0.10334229334450504
0.10236327680408773
0.11997935497865049
0.12090751245734942
0.16919237272483603
0.2144902978520557
0.18645742394980913
0.17880866036564888
0.14242463576431572
0.09603382522908824
0.20247282705733025
0.736539874296757
0.9366748484228111
0.9570495094369325
0.9549883991328905
0.8272365040641333
0.39697581895501266
0.23218601773822065
0.1857311077198769
0.17696050348993472
0.21519722613122752
0.270601884583876
0.2892585110042295
0.2809243660346326
0.2344958413697435
0.16346272692690553
0.12317990939580442
0.10815347045247739
0.10693124462870414
0.11396610204186605
0.11999036178022539
0.11971453080260756
0.11878051730102387
0.08868750817714958
0.058594499053275295
0.028501489929401005
-0.0015915191944732843
0.14063689647531644
0.1738417090802042
0.132238603259615
0.13910291001413644
0.15522208647380817
0.16769931281439254
0.14713931514129425
0.17364363418565912
0.14958887011371233
0.12663243852636183
0.11689832616450314
0.07900496010695725
0.05548476848598851
0.0442389594804628
0.040147658719732186
0.04892732678614809
0.07519092660651067
0.09928697017188574
0.12110977619084969
0.14209268313764264
0.15760328140099344
0.1659169028188274
0.17013857876836616
0.15837357143882644
0.1328770319674254
0.1180063946434565
0.12619115728273858
0.16705897355134675
0.15770522017852656
0.1934655663503257
0.21446669473120353
0.2204357574489216
0.27203067474257325
0.27154445582841474
0.2643514839123816
0.2203048761182594
0.16751294214960818
0.28676177119331064
0.5295562318871478
0.7180804830370586
0.770535578794674
0.7222979548350899
0.5705995568127425
0.3357325302839237
0.2557504499358586
0.2237509889899489
0.1803581038479275
0.17013710991093736
0.17711794483451182
0.1938257235048465
0.20821720255587337
0.22487760770126006
0.2197203448622255
0.19217998073133347
0.17043047986304358
0.16088649265760813
0.16164365235306985
0.16485190883029294
0.16245687782383605
0.15416074194061377
0.1123513295651642
0.07054191718971464
0.028732504814265064
-0.013076907561184486
0.0954628380597101
0.133724225638887
0.132636395465026
0.14909544795203705
0.17501535702483587
0.1854461898705226
0.16643348341698833
0.17752704548023646
0.1514796733225088
0.12310881034796306
0.10230180291366202
0.07016074299822551
0.04996131591963956
0.04408207933330328
0.048611922777600035
0.0654624115990501
0.09188684132107088
0.1151617099997083
0.13481872958311697
0.1512828812806989
0.16274686940575928
0.16798982772568047
0.16747300969200052
0.15361375458210885
0.12932084073695335
0.10940744902400344
0.10407036301259263
0.11469439093518982
0.1122681214421715
0.14711171979445106
0.17315059208883218
0.21077892607804172
0.25393707861275483
0.25142775682074275
0.2486274582167219
0.20440219901899004
0.15874841395723538
0.27360067499885066
0.5846166558599631
0.796531210110055
0.8433484683621169
0.8146472470320922
0.6489444709441163
0.35107499251326063
0.24209049957847892
0.205803236282893
0.1772576972406508
0.18323981953345383
0.2031594258018537
0.22203452637461193
0.23157520662983616
0.228102771408125
0.20468383810850785
0.17261104899082336
0.15147735330992085
0.14425058032031782
0.14756763357314753
0.15246917585495123
0.15127738727092627
0.14555635383734342
0.10689592790146624
0.06823550196558906
0.029575076029711878
-0.009085349906165302
0.11910367542665756
0.15471173846176312
0.13187499718674847
0.14356314958914182
0.16451165367244222
0.17603420353867377
0.15600113797643628
0.17556730523636402
0.15044198365619277
0.12490949808518478
0.11018588754710448
0.07470776168856874
0.05271522400815997
0.04400241308302041
0.04391360299876244
0.05652586392668431
0.08294454583741247
0.10666365208399134
0.12749319800876552
0.14643697233405875
0.16014937092326512
0.16707920506558943
0.16917459562360876
0.1563899223205647
0.13133829955296022
0.1138968569354321
0.11425494423497894
0.13945789425452834
0.13334871687360406
0.16927541216291606
0.19414181300103495
0.21670441302063378
0.2639984458914754
0.2629120584922805
0.2580845141479709
0.213701363242425
0.1646467844733847
0.28195162174158983
0.5541090509386448
0.7546062398091826
0.8050790857988928
0.7661251779009018
0.6059820496664015
0.3426763996942505
0.24971660093557232
0.21541899513482984
0.17841470803117693
0.1757671559301583
0.1882983168573325
0.20632803697889546
0.21883220877326853
0.22626470990007128
0.2131164829427816
0.18338651719513208
0.1617454125013541
0.15323365484862386
0.1552284145236744
0.15931070122831575
0.15755293739744752
0.15049408757053892
0.11008039281632434
0.06966669806210976
0.02925300330789518
-0.011160691446319398
0.06875006583096505
0.11106877122597045
0.13799637931135872
0.15947338824184693
0.19178043861802968
0.20037250791093708
0.1840366255516688
0.17985582655272947
0.153229215155983
0.12074929317807785
0.08938522924465071
0.0645534833303339
0.04699138117620927
0.045379083976344506
0.0573599902189641
0.08050611057730432
0.10677267829106525
0.12924996433090571
0.1468721465305749
0.15890886590604122
0.16620805965721272
0.16841738738062537
0.16310865746747266
0.14786474754519252
0.12557292214226387
0.10340713898751383
0.09784958986660892
0.09431127134857085
0.09519208205863405
0.12542971497286748
0.14486776396198328
0.1959698916889671
0.23668894735628845
0.22733996816970703
0.22523937813339004
0.18278136718789245
0.13966296346388293
0.251204906224504
0.6421404984601692
0.8633174574139081
0.9006779974104835
0.886641948591218
0.7243788900918756
0.3658244160477476
0.22903265058750646
0.19003741161414373
0.17680331488610632
0.19697454068683348
0.23134814371068582
0.250517351167455
0.2535066548543931
0.2314893743252198
0.18857116370771082
0.15290296298699113
0.1335586556747626
0.12872059413397047
0.13398548587827133
0.1398066712441857
0.13921665859623447
0.13557632864664246
0.10022241436889204
0.06486850009114162
0.029514585813391198
-0.0058393284643592225
0.07167473995880252
0.11313237424090418
0.13629268841809172
0.15698941626585344
0.18811043364214844
0.19712193767287986
0.18007835997616628
0.17946131051865924
0.15284165915718026
0.12118470555683729
0.09219875138511395
0.06549335847818155
0.047394623586643356
0.04490051203311589
0.05526353166173342
0.07710827801613694
0.1034260141461353
0.12609200116845745
0.14418370729569802
0.15724863605396872
0.16553072706900598
0.16844714932475024
0.16426923175895686
0.14927480437205515
0.12643779916689973
0.1045019492694411
0.09802461619308543
0.09647566202658575
0.0969665151043529
0.1285605867436038
0.15034123060294702
0.19979226785422224
0.24055495858804712
0.23346738328789
0.23156203621978724
0.18852803612611452
0.14521506473431708
0.2572826372582712
0.6283298241382004
0.8488413078605348
0.8886838789522118
0.8717018386290883
0.7070984965281841
0.36236206712843017
0.231770433809326
0.19341134594867515
0.17680802389084505
0.19381031766824358
0.22473444441399665
0.24392663671379552
0.24855180574942404
0.23072912443359522
0.1924266517941497
0.15754414303724823
0.13769079224285635
0.13228707165415562
0.1371447342212557
0.14280922851416591
0.14211675881740882
0.1380191189064184
0.10187553092796184
0.06573194294950527
0.029588354971048697
-0.0065552330074078735
0.08713858910149741
0.1322008681905858
0.1466069163912771
0.16938524895104756
0.20444013677659165
0.2114473685438314
0.19818503056895473
0.1804521028849252
0.1545705195996213
0.11997044968446295
0.08048018250437612
0.06381174118247428
0.047811975745846086
0.04869335184895946
0.06584061459088443
0.09294608554122091
0.11892521143593845
0.14064540066071785
0.1564715838681057
0.16460725266147236
0.1681040906778828
0.16762183309313194
0.15790341573184877
0.1422544325907529
0.12255428168488867
0.10154089111271618
0.10253994477757883
0.09658080510163287
0.09713454571397266
0.12055155095583096
0.12897122674524047
0.1801107266390969
0.22284012163322583
0.1999015325439424
0.1951445156921602
0.15580118412005733
0.11148726253747182
0.22347422085048965
0.6977427459192017
0.9116500244146237
0.9387052951879019
0.9332231699490986
0.7881491213915104
0.3814529804113297
0.22458255054793233
0.1821376223440222
0.17693986402648637
0.20846181184495627
0.25591507495889126
0.2747754945080213
0.2710749643177618
0.23381849246477907
0.17343780919869015
0.13493674798768499
0.11799686468381058
0.1153528206259096
0.12188310616395852
0.12799407168916785
0.12764625914613936
0.12566363678522136
0.09343886523881854
0.06121409369241573
0.028989322146012922
-0.0032354494003898893
0.06984092592229035
0.11316134847875405
0.1404926536292214
0.16266843187369728
0.19619632320302877
0.2042642474360243
0.18888193259589348
0.18021489977663233
0.1536957252226181
0.12032181144479515
0.08608112045407651
0.0637676253557654
0.04680835541904678
0.046185881175740566
0.06006974122045971
0.08470020028684302
0.11088920087045227
0.13312413068420278
0.1501558663452218
0.16090110004435934
0.16695362739278516
0.16827300534523698
0.16152617526943666
0.14604448666789172
0.12451419183178165
0.10235757852182674
0.09854322489140227
0.09345741070544362
0.094532548816542
0.12281158252478201
0.13886458161192836
0.19092599608626998
0.23196555742596486
0.2190431858633492
0.2163883218432104
0.17479548878536721
0.13160665543456512
0.24282280221590236
0.6599550883154951
0.8805148180289231
0.91457847826577
0.903831905856857
0.7458199313456562
0.3703846867659704
0.2262213320077608
0.18632078110720918
0.17683666580982002
0.20088376430228683
0.23961655876969695
0.25871005365281863
0.2595638303433367
0.2323800282653989
0.1836416975488534
0.1470154677018904
0.1283860152354465
0.12426698005783632
0.13000278889715036
0.1359737082327245
0.13548692886039754
0.13240583981201953
0.0980638736534096
0.06372190749479967
0.029379941336189735
-0.004962024822420197
0.07757054857475221
0.12192012527252456
0.1437805145260695
0.1664179097320678
0.2009631696011815
0.2084336910540589
0.1942185942903059
0.18043054286205867
0.15419945624737977
0.1200274086752062
0.08271236068863923
0.06349651109502717
0.04712285324389401
0.04744047375557024
0.06327646807909076
0.08938989399445972
0.11547006651595151
0.13741924009990897
0.15377357414391246
0.1630459707069497
0.1676616694718571
0.1679644450178556
0.1595517030459377
0.143918156599421
0.12336968239508293
0.10166576347610598
0.10041290682239078
0.09456618161316344
0.09548969049504218
0.12117546101222375
0.1329938772566577
0.18490810566747007
0.22675132074967116
0.20863594065352592
0.20494517027288764
0.16453633572167123
0.12086548748640921
0.23227878450376888
0.6809710653382068
0.8987038402538559
0.9288425318373444
0.9212907162083706
0.7698824512291316
0.37619379274563336
0.22441856688915893
0.18323495276009125
0.17689681372625085
0.20522192522064514
0.24890808971104922
0.2678762361256535
0.26619617352562724
0.23326506912178085
0.17791678671476402
0.1402257260134241
0.12251054948941871
0.11922125168463958
0.1254337735283347
0.13151102457098449
0.1311126269632686
0.1286548480340614
0.09549551158732855
0.062336175140595695
0.02917683869386284
-0.003982497752870018
0.06902892494741467
0.11120516347635485
0.13768857519404232
0.1590477191810557
0.19116646680748317
0.1998296198504237
0.18337016229346126
0.17979545192116458
0.15316434080815305
0.12081770104588842
0.08985291739822106
0.06469472937444547
0.04704492103104359
0.04528829148580956
0.05700020933694318
0.07993257064830969
0.10620846789698393
0.12871805136435968
0.14642000052560908
0.15863141957527813
0.16609823424017403
0.16842780012795364
0.16331205855119635
0.14810698473095868
0.1257188250001712
0.10357787152673902
0.09783140217554098
0.09458044356273643
0.09541011620656782
0.12589069907971376
0.1457522340053599
0.19663241608314994
0.23733919547231816
0.2284089416344233
0.22635700717091445
0.183794110727757
0.14065866649218836
0.25227502225004284
0.6397716663034653
0.8609056610961094
0.8986978504726046
0.884181633536913
0.7214554182303201
0.36522910251280455
0.2294729902735742
0.19058972420487597
0.1768016653553421
0.19643968302913456
0.2302251474132224
0.249400956242355
0.25267240749268977
0.23136281492406224
0.18923072842490626
0.1536944214242038
0.13425981543756882
0.12932520168405737
0.13452287158685342
0.14031978238051054
0.1397137057161948
0.13599651795715959
0.10050745179302328
0.06501838562888698
0.02952931946475068
-0.005959746699385621
0.0707062329140859
0.11237538631081485
0.136677538867812
0.1575809308208596
0.189003572211091
0.19791415628980705
0.18103604693158679
0.17956452286225652
0.15293590302599647
0.12107318231748304
0.09151068104184877
0.06524455658307052
0.04727905795095966
0.045003496072260236
0.05576217139868819
0.07792866328285188
0.10423493047486185
0.1268559201473744
0.14483491149082803
0.1576530799454204
0.165700096433696
0.16844695329006956
0.1639987430567643
0.14893995073881844
0.1262290499504922
0.10421993524650083
0.09791930270029012
0.09582601343515522
0.096430223136031
0.1277148058345851
0.14896803994691823
0.19889240861352417
0.23961863224270566
0.23203187340816425
0.2300997074492696
0.18719486541290006
0.1439494798231147
0.2558725581185233
0.6316159431660566
0.8523765766425503
0.89163683125567
0.8753880745303896
0.7112615364242805
0.36318539384900894
0.23108422420884994
0.19257677837716247
0.1768034375170965
0.19457300332785338
0.22632194174441295
0.24551230711803976
0.24975042600074313
0.23091465362231656
0.19150726154587358
0.15643403479127616
0.1366978943835448
0.1314293461876789
0.13638726669171825
0.14209240917395022
0.14142630892501315
0.1374395553225059
0.10148422235386975
0.0655288893852336
0.029573556416597452
-0.006381776552038698
0.06912519437776722
0.11223682250299655
0.1399208119358474
0.16197018282829445
0.19525985743815066
0.20344099900472967