# vtk DataFile Version 3.0
vtk output
ASCII
DATASET POLYDATA
POINTS 5568 float
7.376358097314762 0.06289473591598556 -20.489828983482923
7.649873863094664 -0.024115096348447232 -19.65173411051766
7.770147916163463 -0.11863010956355936 -18.970125579758765
7.828093147760043 -0.20333320099465343 -18.268179324744267
7.819121402954192 -0.274720557549027 -17.52898307208511
7.688077624037376 -0.361190702070905 -16.76886132706093
7.412748470107361 -0.4121265204660163 -16.048749124629612
7.082245858648669 -0.4462350476752027 -15.392957644943829
6.653456269295169 -0.4236069455867715 -14.795134298045916
6.163370713970944 -0.37248002872052516 -14.247989865991775
5.599526725122615 -0.292874788032671 -13.735141837863917
4.953553510691872 -0.18164846479471478 -13.250473416911328
4.252248030710087 -0.04432120602249562 -12.795690667037901
3.509760669129262 0.11972009312245155 -12.374532655150214
2.744322458182351 0.294676035734843 -11.982924043585847
1.9868000878754324 0.4369714020710863 -11.61923124735666
1.2291634578326884 0.5499006971785245 -11.252446492749677
0.4927898848272778 0.6314803060524588 -10.86152156145774
-0.20283934712068497 0.6868439782510397 -10.432146258111782
-0.8359348496012641 0.7171983468692597 -9.951775866260684
-1.39200273673009 0.7260682205763942 -9.419246124875748
-1.863706921953495 0.7182323627469682 -8.84038421050241
-2.255619692030023 0.6979508741349848 -8.21554330258031
-2.565365547636121 0.6645374864067081 -7.550201560056261
-2.7948992343605257 0.6149246040967846 -6.848573694034915
-2.947550700983745 0.5532776367337605 -6.123397918962999
-3.0286663876805893 0.46116696607630314 -5.383447592562691
-3.047407491884716 0.3284101426999425 -4.6413893265790716
-3.0207549538625695 0.1565637451412648 -3.9119319282054206
-2.9663008461225395 -0.0363641362206594 -3.206408531057618
-2.902828110034357 -0.203667686515435 -2.5316359164813353
-2.842668607024553 -0.3382803872883524 -1.8868821017024482
-2.858050506725952 -0.433199128344761 -1.1654923269910353
-2.888023898884141 -0.3622823038469235 -0.47990586547681546
-2.9421314763384356 -0.17438511794529593 0.17373042315278475
-3.0087143504410645 0.15252157659693388 0.7549275103394633
-3.073625665427812 0.5987145037014764 1.2689515713675674
-3.1222031997991375 1.1561468339510366 1.687796764158426
-3.160358405384368 1.6841929508218854 2.04530678417816
-3.186920633700483 2.126239034391182 2.321547758536921
-3.205511591271704 2.4549137890149475 2.536813030832213
-3.1976406024749573 2.6940792873667965 2.781780449817152
-3.1916065447526005 2.782977607734706 3.0408139488369077
-3.1929424828158277 2.733938455524239 3.3042283776928327
-3.2518292647614544 2.4852206795118406 3.6446272339636754
-3.379182985048721 1.8678688054690784 3.9565390136397163
-3.435121027381347 1.1717611332638598 4.110505032984458
-3.3910674237186536 0.44655274466162986 4.195278120130579
-3.247323509083699 -0.2860277572523021 4.2792492350246985
-2.9717799088313974 -1.009901306146999 4.371273538162569
-2.52665068880059 -1.7029357986919926 4.514680771442141
-1.9307739512674322 -2.2954184326066227 4.710091268526292
-1.1996909617880154 -2.742557328677019 4.973849619813668
-0.4267144370839263 -2.9973051481636346 5.339155598115628
0.3409559586716947 -3.0895296488815376 5.779052016546814
1.080135881638804 -3.066222972167395 6.2455102001492335
1.8272382110128715 -2.9751274129669767 6.720218664706179
2.584456665220264 -2.8150880074374345 7.159822874683591
3.3606090572907115 -2.584519882664503 7.527145940373254
4.148089655068463 -2.2773243162874284 7.796189064856318
4.943989234946254 -1.8890746359854158 7.965540523639472
5.71398025991575 -1.4470078309166678 8.041464014924482
6.437814484148533 -0.98213621630778 8.038567121941647
7.108735994433669 -0.505212725333501 7.978649169753995
7.34039244201699 0.029693825248167785 -20.522913641598496
7.5869668333079066 -0.04263459822582742 -19.64799765668337
7.697543809142922 -0.12524987882766914 -18.95554006210538
7.754485715859372 -0.20048252303178354 -18.25077647594174
7.750808683703504 -0.2635990615842899 -17.513724698717592
7.63333146108971 -0.3372658390548995 -16.761725521073785
7.381317466229692 -0.3763317679405678 -16.050863250496263
7.0717080703038 -0.39776760936421673 -15.395162177783721
6.662064012446942 -0.3673551169555889 -14.790714894975434
6.182164829833481 -0.30861543311234585 -14.238202726353704
5.621012518689271 -0.22197748366148257 -13.722204069319684
4.977151043386361 -0.10743341155315855 -13.238588503307612
4.275134823882986 0.030574000375048593 -12.79013496274334
3.5328710571218993 0.19134638657310094 -12.377136517001814
2.7685902760737235 0.36087174134052846 -11.993194565985291
2.010357207889279 0.501479477965379 -11.63319754242791
1.2529251151611216 0.6139580788046769 -11.268029008657738
0.5174001989490598 0.6943337333820916 -10.878530564337947
-0.1789706651921471 0.7457701193616871 -10.450565485459059
-0.8150015337190745 0.7688992866750962 -9.973219590167835
-1.375590719355443 0.7670307082996783 -9.447163391623219
-1.8533476437399505 0.7447489335859608 -8.878966946586228
-2.2518573345181525 0.707274036607408 -8.269876480665129
-2.56967742533183 0.655909586614859 -7.623260345050631
-2.8081894366080493 0.5896486771341234 -6.942564180917172
-2.9702559856247017 0.5107650205111255 -6.235547835153207
-3.061148638267039 0.40608852222317154 -5.504619795974331
-3.0898376849637805 0.2679277840716835 -4.760914620141571
-3.072181998541875 0.10492629165527695 -4.020540784901231
-3.0229919500200593 -0.067121636947752 -3.300566428282551
-2.95954013661147 -0.20448091004194147 -2.617219066408614
-2.891299784156861 -0.309784318509278 -1.9709852690967957
-2.878458575018684 -0.3750133868591153 -1.2685708458000946
-2.877801436479193 -0.2974114075080059 -0.5936564747588746
-2.9011764487281213 -0.1117037497659023 0.05506658928339869
-2.9451154510601087 0.20714501789358503 0.638183975225318
-2.9973022053286065 0.6425306358645757 1.1603578758089612
-3.0432602406153384 1.1668797978295364 1.5970574452657913
-3.093378662394162 1.6919595231798632 1.9765246305609352
-3.1364803294616914 2.140424311500167 2.2723233690326374
-3.171015712910655 2.4755143692680734 2.5029765285781784
-3.1804331178019356 2.715051960142579 2.756476022330855
-3.191191564528191 2.7958273490853554 3.0171585870789435
-3.201911348725036 2.739184114600619 3.2717759215524325
-3.257878197560224 2.487030866541692 3.5914665264834538
-3.367093184756055 1.8938738231963377 3.8906768234982927
-3.403849419731909 1.2025423271335947 4.058077944677593
-3.347757439226354 0.4566415329814094 4.1533951456213565
-3.1903456078652357 -0.2958359694115984 4.238050218397233
-2.902137327507382 -1.0334567369279506 4.330405947697806
-2.4531535047237325 -1.733615456523598 4.469653904397733
-1.8569035208882294 -2.327379280055489 4.66255736698861
-1.1420523182151794 -2.7660045109524583 4.925220864489201
-0.38955682610299847 -3.02266143193222 5.284700903988306
0.3627429123698418 -3.124322423853619 5.7129746569913324
1.094409935686567 -3.111596681594693 6.164397579148716
1.8369241025152365 -3.024974018974343 6.622089604526989
2.594346064494526 -2.864802281707677 7.0473612770714285
3.3735987831182146 -2.6284418940870062 7.4048851408746525
4.163494349304903 -2.3144163765131855 7.667853316166832
4.956362407814951 -1.9226607096394066 7.833340891886763
5.720536866038227 -1.478378031673338 7.906083920968774
6.437460840629407 -1.009334134451013 7.900104771403256
7.099041364747196 -0.5266323791577673 7.834794397696515
7.136697985859869 -0.15834227158950576 -20.71029133251502
7.2163637062315935 -0.13826990515532162 -19.5790176572437
7.2705038330525635 -0.15112506728565406 -18.815671226987156
7.321897522040627 -0.17237851389224837 -18.092318141339913
7.347897570561275 -0.18931467584173345 -17.365005469460822
7.303265253651042 -0.19394871279013295 -16.651384269096642
7.172334817071421 -0.1702698243418032 -15.981026794910495
6.972589185559977 -0.1221649994320857 -15.31438102614344
6.664101249713093 -0.047540379127409854 -14.663256639475192
6.238588864555144 0.0545612410548109 -14.076844300696154
5.691604648903756 0.18144972100289147 -13.541820116735044
5.059403625613691 0.3146880603863418 -13.063964047199466
4.352828436924804 0.4566229553964063 -12.650645008744764
3.610959909021703 0.5993758372366607 -12.282611838820758
2.8522242357812893 0.7389356135860723 -11.94080682217802
2.089689287659062 0.8700815545603261 -11.601510151336061
1.3333807041183101 0.9800214447841972 -11.245447157101522
0.6026188973979266 1.0536210824272214 -10.863971432223815
-0.09829688162940775 1.0828624674747989 -10.443771150306075
-0.7523271686785281 1.0649863593893276 -9.982619064286284
-1.3416887235746136 1.0022685427434816 -9.490276257426128
-1.8590972394769767 0.8984328586605363 -8.975450291252812
-2.301114211914725 0.7651278243573322 -8.442860668262352
-2.669489175942073 0.6145742770555893 -7.885599877467731
-2.9605318318823777 0.4575660542905098 -7.305473535875176
-3.1762775854477496 0.2840483610731029 -6.684956004290523
-3.3225064751243214 0.10837128862678 -5.9970258186479795
-3.4085922687691945 -0.061435103931012286 -5.241005346309267
-3.444036519269424 -0.17299618769609182 -4.432212574277063
-3.4255081519193364 -0.223008498949707 -3.612655579883966
-3.3598933446850903 -0.18809247376378746 -2.8539303400780156
-3.2420712857221035 -0.12763763471725303 -2.1733338186494335
-3.0754021279807278 -0.035568756274934124 -1.5334940874437932
-2.9030500907520054 0.08264245202056668 -0.8910614780443209
-2.7526420591959906 0.2630600703563512 -0.2452701736953512
-2.6689327858891967 0.5438023090933997 0.3628351530375814
-2.6494427584959603 0.9237438165653085 0.9386354159315875
-2.683116109968694 1.29024557211416 1.495132772481059
-2.807245553584001 1.8067014492823965 2.0156418937016696
-2.9569753447264713 2.301925485748698 2.4405776565015396
-3.0965859594293517 2.684224979665452 2.775668339146054
-3.2151723797459373 2.9362042203723635 3.0935376786790894
-3.3291453297429596 2.974455960511382 3.3867124183546085
-3.3915986274234453 2.8735959465682472 3.6054978238286393
[...]
CELL_DATA 87
SCALARS quad_param_group int 1
LOOKUP_TABLE default
3
1
1
1
2
1
3
1
3
3
2
3
2
0
2
0
0
3
2
3
1
1
3
0
1
0
2
1
3
1
1
3
1
3
3
2
2
2
1
0
0
1
3
1
3
2
2
3
1
3
2
1
1
1
3
0
0
0
3
3
0
0
0
2
3
1
1
1
1
2
3
3
0
0
3
1
3
1
2
2
2
2
2
0
0
3
3
SCALARS single_component_feature float 1
LOOKUP_TABLE default
-0.030233007912884233
-0.021698337734373713
0.02663847098212919
0.01078888769685267
-0.030777579139986088
-0.03106763017555053
0.003692634791587275
0.002812082041410778
0.009636622919165764
-0.023819315919288195
0.0318150132931641
-0.0313847576590077
-0.002018444574265331
-0.0010991215498706922
-0.012361300275046725
0.0012947795304709894
0.007814565865643316
0.0007623860668523053
-0.004450453816400503
-0.03845514294688634
-0.029039276050724885
-0.038229174046046005
0.010991832460670295
-0.0010813361252599973
-0.02128446174205463
-0.011171907343199857
0.015076631235945909
-0.005979481223797878
-0.006607087533634658
0.021030275021944288
-0.030535563964039846
-0.007029288733049935
-0.0214274896611516
0.0207783510116361
0.04405057808730828
0.0012972730150101822
-2.006324679175442e-05
-0.011779384096776709
0.0019672062991910877
0.023920108760486627
0.07906096351067718
-0.039288509408227354
0.013267422734700836
-0.017140364585136583
-0.01275890287471286
-0.06698978420300111
-0.02949260854644428
-0.007921776350676528
0.022708876901905935
-0.00721440601576204
-0.04058559167150373
-0.030386056764133796
0.01980298111844447
0.030548087631741664
-0.0036084546704301737
-0.05428730182977598
0.056921487419304105
0.025612223494076058
-0.0006412944628472628
-0.017549084246624463
0.01451922017137202
0.01161770208882204
-0.018850712441659027
-0.02752265054159339
0.001029874035412423
0.02169359000413438
-0.03025559094207695
0.01568277256342065
0.005098826148747185
-0.05524862634205613
0.03330884056460039
0.000932654046116612
0.05210442418228371
-0.04505950514873977
0.001601183319073378
0.029805753133191525
-0.014085411088467784
0.021797117334521852
-0.008489037314284097
0.029776780289614238
0.06993530115531556
0.03746111227528263
0.050531259260021555
-0.030758178224692644
0.028515023741334737
0.02326482527195445
0.03871745166739514
POINT_DATA 5568
SCALARS single_curvature float 1
LOOKUP_TABLE default
0.1280323946341728
0.17553906225576021
0.1743800957276746
0.17889728675365277
0.20534716178606738
0.19598841985134827
0.16639995721771458
0.15832326779669814
0.12107672979178143
0.10047280536107178
0.07929786861670117
0.06328151847654465
0.05296046796893575
0.050503363012521375
0.060387575919115755
0.08026360856693462
0.10918453696951691
0.13631693760059904
0.15629886206038476
0.16642712707059196
0.16760164903464547
0.1612380079434563
0.1536366299742231
0.14358707948171323
0.1304506684621542
0.1124621736429238
0.0887996214736641
0.07112539028595766
0.08582521644802726
0.15540257221554443
0.2089801081378391
0.27733265948103497
0.30456846526674064
0.29071515572810136
0.24905775776598643
0.1867680468788378
0.1346198492925849
0.24648753738973656
0.6162784820470335
0.8233175209960534
0.8654415008352883
0.8401425643708113
0.6773480014805877
0.38945789343658627
0.2803767345545801
0.2383217506698064
0.20735560225978275
0.21144749270483842
0.23048752420476035
0.24681271957265127
0.24455951068547122
0.2242131942910208
0.18415773732587157
0.1407172449303843
0.11726462574215739
0.11715865610374399
0.13485228682070863
0.14494875777132987
0.14307366352016607
0.1300329430977091
0.09158725352063875
0.05314156394356839
0.014695874366498038
-0.023749815210572317
0.11077545654982292
0.15711105872209782
0.16481485624647924
0.1741257414600961
0.2021208014312779
0.19750924599169095
0.17117073008103126
0.1642024063186818
0.12980479578253257
0.10582405714641797
0.08186103507810727
0.06341685248899927
0.05106302858518444
0.048914631069505735
0.059295530807691677
0.07994582055307553
0.10813930595476486
0.1339584109893774
0.15349551601903627
0.16451000397466756
0.1676628256211802
0.16379852992866623
0.15648085510772317
0.14411667454312893
0.12572507079004117
0.10392298357745182
0.0857025718419729
0.07100137626753344
0.08429804634381778
0.14623047380466622
0.1907630589004199
0.25593409712884785
0.286454358859362
0.2742950115174864
0.24225343757735376
0.18454993155537752
0.13306772969373473
0.2447071427566168
0.627466895027521
0.836759301362402
0.8774135963804331
0.8558668083016515
0.6887429196797201
0.38071856988752
0.26517304026332433
0.223086170413725
0.1971747133661248
0.20661292544885845
0.23002631176368699
0.2474372909323168
0.24682655512409885
0.2260422997702269
0.18550271262045304
0.14411826354502075
0.12168685713229006
0.12033162215474087
0.13465728567038493
0.1435325380881901
0.1420396754449653
0.13165808935168483
0.094060225943029
0.05646236253437317
0.018864499125717346
-0.01873336428293848
0.03344387195772931
0.0687458885694718
0.10394912872235133
0.13537142150511774
0.17340155600798263
0.20009745485762198
0.19898617701640633
0.2000635773316648
0.18332163929687217
0.14132291759671323
0.10182710157249109
0.06785559567331775
0.04387973835721397
0.041923737850410876
0.055505269351506424
0.0820417414421171
0.1060197072386694
0.12497778416919217
0.1393903050890828
0.1507315603518761
0.1613553172703698
0.17012825548673638
0.17025423189831232
0.15784531388012116
0.14458279114123787
0.12913381760776424
0.1335185035130796
0.14195610114600477
0.14836172628042132
0.1322055171722332
0.12266444195899351
0.15389007324492596
0.1782562968631215
0.1942013200986547
0.22729742933363803
0.19976590341422923
0.1644202335417684
0.2577753792191034
0.6144104984913128
0.8715489807229829
0.9123512618106915
0.9023071057642766
0.7646881289770509
0.3646450604565692
0.19104824763681305
0.1617923093380795
0.16043794576025133
0.18733366850026273
0.2345004364131508
0.25379997674961835
0.261122901247697
0.23989581495853712
0.19388072584739866
0.16674013085835518
0.15161327533860075
0.14144414469476144
0.13454547249475526
0.13669397894312077
0.13705603554990492
0.14125995842204256
0.10836402580292172
0.07546809318380088
0.04257216056468004
0.009676227945559196
0.05041408813001877
0.09001764026425962
0.1230948733055005
0.15017370343508368
0.18458811509067077
0.20037012695761458
0.18973693642042722
0.18787737456523443
0.16525025948224367
0.12886815747338246
0.09434991212365634
0.06573879326728006
0.045501699104514196
0.04378164724247623
0.05627979707124416
0.08061087327845806
0.10593091859353865
0.12689455558019613
0.14335079863620287
0.15548853201381585
0.1645275946022696
0.1696525393977065
0.16632179116009443
0.15144413165671175
0.13175636985054534
0.11216801898703885
0.11139543441356103
0.11358034855223849
0.11217691162065828
0.12358206400627052
0.13097815645971503
0.1736278138130542
0.21249260325823022
0.2078455318678733
0.2206791237624023
0.18499465072984017
0.14591253279002708
0.2553556336443188
0.6351772765993996
0.8680379333269218
0.9059549636446996
0.8937917155519743
0.7396679017414363
0.36231145224530775
0.2129834021443244
0.17745007519566317
0.1692121097252781
0.1924876746951741
0.23159698541490578
0.25109956948880857
0.25604307516540553
0.2345290448915425
0.19097723513673603
0.15864700764772566
0.14091259234985398
0.13399368998449593
0.1344122178661067
0.13871442955157917
0.1385170442496714
0.13806725229365457
0.10365447465760859
0.0692416970215626
0.03482891938551662
0.0004161417494706332
0.1291438593620965
0.176716249516642
0.17496935928935534
0.17918059385748988
0.20553299802080877
0.1958810589604638
0.16609742579046774
0.15795374241888296
0.12053101879478118
0.10014320859693121
0.07914558236728839
0.06328017894540035
0.05308692845782264
0.050607551458487374
0.06046125164664072
0.0802904388834109
0.10925689189981357
0.13647223810909245
0.15647650019802542
0.1665405197738717
0.16758446866778257
0.16106149166700334
0.15345253069236192
0.1435709413524355
0.13082208837636472
0.1131423258010116
0.08912950479097365
0.07131571101889037
0.0860196749171734
0.15599122279183794
0.21012420701425366
0.27861548234076133
0.3056863830777445
0.2917039439065317
0.249557429303095
0.1870521203568155
0.1349453256097145
0.24682814821399424
0.615504173811247
0.8223991410329681
0.8646060528935253
0.8390523152687309
0.6766621158379784
0.3900560284881801
0.281369869890731
0.23933932541526318
0.2080501486584494
0.21177540443654988
0.23052840388434853
0.24677696110656638
0.2444162086885024
0.22410067251009902
0.18407328683702415
0.14050585347299394
0.11699156459827635
0.11696280221267251
0.13486673635627297
0.14504124283779263
0.14314107943103582
0.12993037184588474
0.09143048241616786
0.052930592986450975
0.014430703556734092
-0.02406918587298279
0.12973631025711826
0.17734326410501466
0.1752821890825094
0.17933046512816142
0.20563099977492558
0.19582338128349996
0.1659363893781624
0.15775721168441031
0.12024094817662127
0.0999682638508999
0.07906503784388057
0.0632798321744462
0.053154538448069284
0.050663175862402744
0.06050068531646469
0.08030504415832733
0.10929569596734034
0.13655516462883088
0.15657102163621817
0.16660045559769227
0.16757466503624507
0.16096685079552925
0.153354355389214
0.14356317271458766
0.13102296471427094
0.11351037266606202
0.08931094854030738
0.07142529942163285
0.08612743730689537
0.15630472726575526
0.21073238506197345
0.27929442660935855
0.30627978082231183
0.29222748587771763
0.24982891094660314
0.18721348779573393
0.13513286214750145
0.24702352859839863
0.615089652051675
0.8219071250105618
0.8641575254207244
0.8384674008858177
0.6762988693580898
0.3903764207654266
0.2818999756595192
0.2398835056132219
0.20842231939128722
0.2119510462905892
0.23055072946869867
0.24675810932893835
0.24433994197370168
0.2240409311251978
0.1840283765299333
0.14039353634617047
0.11684657562534069
0.11685881920916413
0.13487453257883042
0.1450906062140942
0.1431770561848351
0.12987579839208854
0.09134703640494794
0.05281827441780734
0.014289512430666743
-0.024239249556473857
0.06234567341131117
0.10369716566354159
0.1327944335253907
0.1561775629169289
0.18909129002015737
0.20014664783332495
0.18563350619555596
0.18254827076510546
0.15728332944565954
0.12352227891703949
0.09128094305509957
0.06499937308464995
0.04647194814910997
0.044762967561432
0.056778894785486714
0.08020454606114477
0.10615012077315451
0.1281136420675208
0.1453973135215062
0.15760634283797761
0.16563269023649688
0.1689278986244882
0.16434375384498323
0.14911431053370275
0.12741702139720676
0.10606692603184578
0.1021659741915963
0.10082088939345979
0.10002115656647734
0.12402370119521339
0.139523289588724
0.18762647560488896
0.22869020911672316
0.22066101129075638
0.2237597141404404
0.18367034758449913
0.14203941100539927
0.253332929279418
0.6394073629549178
0.8640883729654536
0.9017099516432575
0.8881540332140301
0.7280804134170535
0.3639287980628476
0.22366478949284574
0.18578746865965315
0.1740356815635476
0.19510066043166183
0.23077475695609778
0.25010337869764887
0.2539204905722608
0.2324223772163676
0.18973112391909394
0.15524778372393985
0.13639600198637902
0.13081393298369925
0.13440327888032758
0.1396893320994758
0.13922784055332663
0.1366459321663657
0.10154484530185665
0.0664437584373476
0.03134267157283854
-0.0037584152916705083
0.06390333546568089
0.10546216525745387
0.13398386360642076
0.15689344064806485
0.18962548937490764
0.2001034115368352
0.1851260636745278
0.1818927731143404
0.1563016207557685
0.12286988310877064
0.09091272532204855
0.0649164725777197
0.04660235392679628
0.0448906254113314
0.056847161183811445
0.08016437972045874
0.10618814593413586
0.1282792276252356
0.14566063105238192
0.15786601927538021
0.16575471033538208
0.1688159130710823
0.16409034589041266
0.14885223722635113
0.12696784841520964
0.10541762867840664
0.10109629753816418
0.0992888508465332
0.09880783158676633
0.12435535660234154
0.1408721543688165
0.18965182423190788
0.2307174435151728
0.22241826685884142
0.2242910194441039
0.18362609141009786
0.14164662481068654
0.2530411974809121
0.6396956507371329
0.8634884540858541
0.9011152154852149
0.8873629254201726
0.7266420399502521
0.36423308618034295
0.22501831948977208
0.18688314963424973
0.17467872414717941
0.1954404560280016
0.23069232018543434
0.2499881238316865
0.2536623819591365
0.23217223201187123
0.18957860125970807
0.15483519070923574
0.13584770329119336
0.13042651678636408
0.13440447491662827
0.13981333023105796
0.1393184072028146
0.13647015078952204
0.10128331300711502
0.06609647522470799
0.030909637442300963
-0.004277200340106063
0.052260718162965444
0.09215695458949416
0.12467765147904418
0.1511765116065642
0.18534265045636167
0.2003488378549332
0.18906896873980433
0.1870065067794211
0.16395035614650272
0.127989724299062
0.09383946391107174
0.06561011149951293
0.04564936593746075
0.0439351268268347
0.05635463047223799
0.08053491586793275
0.10595583712909486
0.12707815239420392
0.14367324849589796
0.15583471734478846
0.16472136333943582
0.16955643638194648
0.16600875154611655
0.1510403414917233
0.13097396721645893
0.11108691871012465
0.10983886214834677
0.11147708416051044
0.10993281558858294
0.12339211783972859
0.13208940054303717
0.17562005998382058
0.21510054299548106
0.20972250625640512
0.22099595514080492
0.18462587072898168
0.14516398454453328
0.2550680602515489
0.6360912665022304
0.8675017449426011
0.9053294491667254
0.8929620766050489
0.73779197652109
0.36247045287563306
0.21468932318197484
0.17874524516970364
0.16995358011804898
0.19289750440377038
0.23144410111984304
0.2509294451821546
0.25569294848015084
0.23417558093120341
0.19077279103046454
0.15808595134162062
0.14016742961473835
0.13347051971675114
0.13440855237399107
0.13886977935970612
0.13863013197175364
0.13783595815650745
0.10331176238973573
0.06878756662296401
0.034263370856192285
-0.000260824910579438
0.11503339736296038
0.16168471201456577
0.16725007162607355
0.17537014414567315
0.20297772414524579
0.19716010680134594
0.1699802227964288
0.16272643039660886
0.1276065173543656
0.10446263312267066
0.08119368129832163
0.06336351797414447
0.05151933765282122
0.0493014270400852
0.059555789830851774
0.0800065223466429
0.10838302639388256
0.13453022959787303
0.15419420739081266
0.16501003375658407
0.16768398722222477
0.16319911231507273
0.15578159822739032
0.1439349794020141
0.12669100372983735
0.10563898383940691
0.08607888106013824
0.07050655452755616
0.08439176857858854
0.14849494042957673
0.19533017817179427
0.26146531101426707
0.2910525340471838
0.27852719121325786
0.2438389988691564
0.1848235411842484
0.13295159722753674
0.24463741931624874
0.6248904316941762
0.8335914655802945
0.874632846166963
0.8521988420700152
0.6858008140728843
0.3827718060425939
0.26888859744627036
0.22674639067765265
0.19958292829939614
0.20776249482916806
0.23010905846533397
0.24727053930950904
0.24625914285520126
0.2255755940854413
0.18516480414231912
0.14325757573030584
0.12056295304275601
0.11952532531614635
0.1347002990896403
0.14387865000250752
0.1422926300241146
0.13125126245363533
0.09344300854395676
0.055634754634278194
0.017826500724599625
-0.019981753185078943
0.03353473451237948
0.06735970828756183
0.10031825764381769
0.13017934201803127
0.16947724535458886
0.1997936481073841
0.20202961913804002
0.20412284210921783
0.1892811264999326
0.14552736348277637
0.10444556468159723
0.06870176322539999
0.043533176370549494
0.04143848274204477
0.055369891182342985
0.08266064805744132
0.1062253887331901
0.12461000391618185
0.13831769622497353
0.14921496142944843
0.16013726579844278
0.16994610672684682
0.17136705132056382
0.16020444531479167
0.1493167021439864
0.13512661404179083
0.1406157515056683
0.15054397892118554
0.16052234879397076
0.1362131685258367
0.12165627103358245
0.14956969513679433
0.16827898692739165
0.19431752512475362
0.23342492084980382
0.20800759005025207
0.17327056728020457
0.2580189266209118
0.6046909937367695
0.8712314202104411
0.9136483888120795
0.9041210207276106
0.7724155742223671
0.3675140079240543
0.18486184900573494
0.1574853115879909
0.1580637967430683
0.1858164155687283
0.23578816947922362
0.2548410413700586
0.2629104439418425
0.2418761768489983
0.1948699572791679
0.16954246661649355
0.15528409083862615
0.14397423797820294
0.1346208872648798
0.13608127618212565
0.13661818757381008
0.14230392493127653
0.10989619109063854
0.07748845725000056
0.045080723409362575
0.01267298956872459
0.13038442813765658
0.1780288209546558
0.17562340695093348
0.17949351325708654
0.2057373717850278
0.19575992690849828
0.16576039939040557
0.15754256421135768
0.11992427057026825
0.09977747256066055
0.07897742667611629
0.06327974570869888
0.05322866114422655
0.050724096600566974
0.06054395276208285
0.08032126265279065
0.10933833304875895
0.13664599688935808
0.1566742899410876
0.1666656187772118
0.16756342669898844
0.16086288052343287
0.15324692080236996
0.14355533279510635
0.13124498463418244
0.11391729338028649
0.0895138235550105
0.07155157051757394
0.086248524466946
0.15664745098683114
0.21139634916651773
0.2800332970391715
0.30692694125868286
0.2927974096193927
0.2501302312577166
0.18739825442264874
0.1353494991591183
0.24724854104895194
0.6146348321883291
0.8213669065184426
0.8636643018520764
0.8378245315604773
0.6759033647253322
0.39072814640999853
0.28248047400786047
0.24048022939354288
0.20883101728642578
0.2121438742769066
0.23057557752288724
0.24673765142086557
0.24425660215438222
0.22397576278007122
0.18397932981874526
0.14027095296094894
0.11668840987334476
0.1167453954194111
0.13488313635530358
0.14514466018364103
0.14321644657627136
0.1298161771884626
0.09125584385978387
0.05269551053110513
0.014135177202426394
-0.024425156126252345
0.0726659778358965
0.1153215416439658
0.14042420940594227
0.16070327304596335
0.1924551257829141
0.19980465103751155
0.18234940077367479
0.1783202016194296
0.1509467626676584
0.11933634359415995
0.08894356907114184
0.0644967052577411
0.047356152211220685
0.04561317327352008
0.05724633137911301
0.0799843344207026
0.10643825257628638
0.1292406018052788
0.14713637325900578
0.15927276684767572
0.1663618293497661
0.16811547970435184
0.1626717669469524
0.14752593454762405
0.12492780689291359
0.10240280553115572
0.09565854646658709
0.09124525811644263
0.09326288051207522
0.12713784779991383
0.14925620081981103
0.20170880393805937
0.24186682119179173
0.23244390880690932
0.2275445713965828
0.18362315273903615
0.13963474596800185
0.2513013511419441
0.6403315810954646
0.8597530498879068
0.8975660208459807
0.8826377893843463
0.718789004991019
0.3662899678575705
0.23254997093599397
0.19314044357631024
0.1783931607306829
0.19737121022699386
0.2303150561861603
0.24938713434430806
0.25226487705137324
0.23084123326796482
0.1887497879869419
0.15260704011358833
0.13288807897417534
0.1283302397811955
0.13442035066983396
0.14050543177004268
0.13982436582801966
0.13550865578176743
0.09985017858104166
0.06419170138031588
0.028533224179590103
-0.007125253021135675
0.07097289711128613
0.11342517262105994
0.13921041768331668
0.15999360737739812
0.19192993116966495
0.19986955663126674
0.18287691048192123
0.1789970385863349
0.15196170656033545
0.12000279954670129
0.08931164071804479
0.06457201320865484
0.0472077306759983
0.045472804676878656
0.05716715678467342
0.08001335176875922
0.10638529751677703
0.12905089444528528
0.14685172292608456
0.15900762688286957
0.16625453447653288
0.1682599661322071
0.16294531815602986
0.14776364945486228
0.12525720644627825
0.10289869392269149
0.09663025330021131
0.09272038145805711
0.09418283043600596
0.1264963942755153
0.14754706560581166
0.19930750526607754
0.239743143297978
0.23049656682369485
0.22689091913252374
0.18360120650924835
0.14000575835696236
0.2516488994228703
0.640333952088081
0.8605223732620807
0.8982798155568189
0.8835884932476901
0.7202767137067533
0.365848936632682
0.23110273042763077
0.1919171617998776
0.17766132083638383
0.19699478082416558
0.23037717769115124
0.24949750840238458
0.25252854729981045
0.23108930969137115
0.18890651094787553
0.15302653986213438
0.13344503336263397
0.12872536671907284
0.1344161023240094
0.14037216699190222
0.13972689227733565
0.13569125280677893
0.10012269060227795
0.06455412839777697
0.028985566193275983
-0.006582996011225001
0.09232798129931065
0.13708286811423023
0.153639002334143
0.16818063706666436
0.1979169703300316