# vtk DataFile Version 3.0
vtk output
ASCII
DATASET POLYDATA
POINTS 5568 float
7.418464464416546 -0.11980695179337542 -20.317113375836186
7.3747351995146895 -0.0964875727381797 -19.559073364118195
7.40838934959094 -0.1566307403587167 -18.850072581143564
7.4220569574425355 -0.22264210823611302 -18.173937430351714
7.39191731631223 -0.28516678835036224 -17.52557750538586
7.3330767864311275 -0.33941744838192145 -16.839558658794623
7.184906113438159 -0.34942649933777237 -16.19617837922104
7.023913079422122 -0.3635643420605766 -15.462882891705863
6.725500165410285 -0.315640578805652 -14.78828212299913
6.311463518479368 -0.22852947166185955 -14.178385433833776
5.77289403650089 -0.10537434311110833 -13.59774150568714
5.13215005352349 0.03671366959269565 -13.098287220322552
4.424201002491526 0.1976532922472852 -12.65317488140104
3.6725968838255367 0.37802978869834863 -12.254339048774273
2.9104571219650426 0.5535090969256005 -11.894468715577206
2.14991345256201 0.7101832279113791 -11.561737896379235
1.383827540810966 0.8468169727614051 -11.215607440334498
0.651010732353391 0.9441054020745101 -10.837529919632813
-0.04103448520696018 1.0011695599503516 -10.41404234786058
-0.6775907954157806 1.014010106965881 -9.943075605943118
-1.245619906748531 0.9847130516586943 -9.441723708056928
-1.7475191853834695 0.9166003482776223 -8.910623317630591
-2.181995863921727 0.8185129788180973 -8.351898085250015
-2.5590957920732564 0.6928493616393441 -7.754747535169546
-2.8739278642196333 0.5423118616460223 -7.124925713609803
-3.124201368020378 0.36949322352523595 -6.464580960855484
-3.3150463540199997 0.16376935116185157 -5.7563899042318285
-3.4396477708829973 -0.055295345350365455 -5.014789088265059
-3.499190528200127 -0.2602934468796263 -4.23820876413589
-3.497151837177661 -0.4249919790156288 -3.4447353595813675
-3.4433429689759767 -0.5112840765149944 -2.677379875217736
-3.3432664582163856 -0.5165174437979205 -1.9562301934057116
-3.18429439263227 -0.44682122274152547 -1.2948618526612803
-3.0130378317919053 -0.3475066035832163 -0.6204710670630121
-2.8693330928422407 -0.17792871938047866 0.05069012712064258
-2.7817942607947845 0.0825435899456422 0.7439423551970272
-2.7575484807793145 0.5026298300933876 1.3968766642853359
-2.76894393684411 1.0267970565681708 1.9537028989429945
-2.8343276847484766 1.6423428795254869 2.4088636977826474
-2.9203751477650552 2.166140777320621 2.727964513482651
-2.986246916058708 2.566627335366493 2.93731126275588
-3.067689162141041 2.81484478366834 3.152152158883566
-3.1419928255024794 2.8762040496997745 3.343440101409808
-3.1761050377849305 2.835439673782914 3.4650498474033733
-3.197953622601782 2.7007359125649057 3.594902570898053
-3.206951068521734 2.2550657547212536 3.8021550780274898
-3.1881362195703327 1.4594850776371864 3.9506842733679868
-3.085543305420883 0.5730864668898396 4.004615321056043
-2.878001471576744 -0.29832651643539887 4.028616644736323
-2.5190433896418436 -1.1297025668819156 4.101934857992564
-2.039285499013236 -1.8454946825526042 4.26749873653085
-1.4229467737580688 -2.433245947731083 4.517405874995987
-0.7349254406644172 -2.8178352005449354 4.861275334234699
-0.044385473186032365 -3.045192833768304 5.301447937317746
0.6314495483459609 -3.1459583056004647 5.76134161925947
1.3020772450109108 -3.1598472683010135 6.227688771401562
1.9937884985677692 -3.095195700584476 6.705128382732219
2.7216942021066584 -2.9534583615992482 7.167857428796374
3.4980392164405463 -2.7191349739267916 7.586637678392145
4.303579275517488 -2.399721234989192 7.922721015760873
5.099342418171725 -2.013391227514229 8.156968192925662
5.858947645348803 -1.5843231376152658 8.290232981681958
6.586494297519127 -1.1225546721196369 8.32776092575991
7.260562234048123 -0.6482330451863985 8.279653926628765
7.353409657053136 -0.09482603552634675 -20.428376824161514
7.3868267271112815 -0.09143325638161716 -19.594639364627582
7.440261609261107 -0.14840307331246938 -18.88099280903796
7.469308794603009 -0.20876729100656197 -18.191305237444492
7.453904382795445 -0.2638089102911394 -17.51178949268018
7.385592576814213 -0.3134728214330043 -16.80797462512765
7.219673275648661 -0.3235142253314876 -16.147042911203467
7.021037563666627 -0.32817264845722505 -15.445154163969272
6.698161471176322 -0.2794616596686558 -14.79127831375817
6.26871143577353 -0.19588107312159272 -14.198375457937468
5.72416610550882 -0.0799827110964603 -13.639872057495477
5.084301300719099 0.054710452428530815 -13.147576533912622
4.377935328410867 0.2074701956397642 -12.707340031274114
3.6301361302322204 0.377102858781701 -12.310958861432741
2.8682618920723097 0.545056095362589 -11.949232548202188
2.1079764024295398 0.693918366210138 -11.6096705834071
1.345527690513049 0.8208045734787464 -11.257846224947599
0.6125527554075478 0.9104300819354845 -10.876804058846856
-0.0818725427696031 0.9615162588062877 -10.452972898009294
-0.7212005455912786 0.9712581970516577 -9.982427580144483
-1.2910643930098908 0.942023984255774 -9.477641052254148
-1.7900427543203798 0.8774780926244747 -8.94207456757075
-2.217573596271848 0.7861340963150584 -8.378274311746612
-2.579890806254981 0.6719553937113669 -7.779059587432044
-2.873771468492797 0.5382621237825858 -7.148960084867595
-3.0987671734669515 0.3854759685808934 -6.487752036517106
-3.2600926466636446 0.20699644400455217 -5.780244081049588
-3.3573160626559324 0.014140215689717406 -5.0372572143800065
-3.3959583510607914 -0.16557121128783495 -4.264263914282194
-3.3808106085498326 -0.3121720491326351 -3.4837846854605434
-3.323002347451548 -0.388707690700723 -2.7382286158732154
-3.227087513093705 -0.4043989129384239 -2.04252002091705
-3.098220637233108 -0.3592694572067106 -1.3814106455102695
-2.9639182735929825 -0.26180550781938017 -0.7159645352529336
-2.855476376794617 -0.08773289854240773 -0.05724471238302009
-2.797649010921554 0.18809796158144904 0.5943345843999565
-2.7910968331328783 0.6038979829176213 1.2039779091690779
-2.81397518846947 1.09808700294344 1.7327747818924277
-2.8859139227078217 1.675631181759503 2.1815971283346003
-2.972633216631921 2.177013014969771 2.512326566650247
-3.043008876205596 2.5582862685448293 2.7455719123376467
-3.114593607506707 2.803942937421982 2.9836004318499363
-3.1819180042775437 2.865384287340619 3.2028290441148823
-3.2167028888973817 2.8125119359507478 3.363508555550645
-3.2477624852632903 2.6341273822143325 3.5415023848476226
-3.2774264205413934 2.155734990735762 3.771148489963153
-3.2614453347352668 1.4054251125186368 3.9410959034367368
-3.1645191862020523 0.5532102549762626 4.022466114743125
-2.962451631599906 -0.2917285766785572 4.070936154858235
-2.6181474861106224 -1.100504425402545 4.152064341849081
-2.146528323303289 -1.8172029025076402 4.303297074359
-1.5379283626106213 -2.4082167967497012 4.528558940568674
-0.8559786530021278 -2.805033503672946 4.839479376805722
-0.1621140850700883 -3.0451051930542956 5.2421539675254305
0.5278675281516242 -3.1549713946800333 5.678566179235911
1.21435985676726 -3.168663519393715 6.124738360012592
1.9206692541900052 -3.0998838663148334 6.578096000335888
2.6595999501752945 -2.951031451507969 7.012263926816862
3.439552448885958 -2.710396892876203 7.397431779731466
4.240814155600008 -2.3865432971039806 7.698891921200192
5.031872542912142 -1.9949914528495014 7.902628423613579
5.787034811009111 -1.5582468499462157 8.009453128212352
6.503453264702095 -1.0898052010216626 8.027186913682824
7.163542904011247 -0.6066846390030869 7.9672049784324415
7.168555792511688 -0.023842520258205463 -20.744532989074127
7.472798999093165 -0.09021222163194426 -19.632342232230496
7.583723490406167 -0.138214944686979 -18.9024576904331
7.658313301974665 -0.181991070984455 -18.171380847207274
7.688616794662037 -0.21373810683123975 -17.396465891931854
7.592070302396305 -0.2496574230507531 -16.640094049904988
7.372669094544178 -0.2597880946860217 -15.926694063079625
7.066805860873363 -0.23852636967814667 -15.29709205337048
6.672127101640297 -0.1871345303710199 -14.695086319420207
6.19710520124717 -0.11307409508323307 -14.147045852512118
5.634389716320459 -0.01687972724005654 -13.64803725733498
4.99673036499636 0.09715003114870516 -13.175599698514269
4.2945361632376144 0.22699654213503054 -12.748885706920795
3.5570006662034044 0.36661499586339685 -12.359171712168678
2.7955483287090743 0.5132922735680189 -11.992023295501296
2.0353860030383455 0.6400049214249122 -11.632713771798745
1.2824611152125898 0.7394451137175976 -11.264429858947944
0.5486489560027964 0.8073003026550601 -10.87474565192405
-0.15277801158380278 0.8413374425383168 -10.44980696292475
-0.8000847872373549 0.8422332914217406 -9.980416975652743
-1.3751844509470406 0.8131806181479311 -9.465803571984658
-1.8660399898417208 0.7587727219471281 -8.917295264600913
-2.274408443514629 0.6864422151763493 -8.338385100796623
-2.59653191279797 0.6039795594309887 -7.73165903609622
-2.834111896022309 0.5161397636651603 -7.097169107564328
-2.990945162441025 0.4176048980470696 -6.427525849032778
-3.0724500679405735 0.312401700480856 -5.712535948993002
-3.093925954236473 0.1908440064178738 -4.956621054658475
-3.0745340337547984 0.08026456867803719 -4.187354945507887
-3.0233948635018004 -0.017083246464511717 -3.440486358137927
-2.9549320256089078 -0.06731091644325322 -2.7545470277465
-2.8702519553327157 -0.11069883832811556 -2.1277465453505413
-2.8240921771757157 -0.13408727996717837 -1.4560643838950205
-2.7896191292925674 -0.04048801185830447 -0.8068661212572609
-2.776696626566367 0.14800410532384037 -0.17443632738351111
-2.7961583985497502 0.4675578915397831 0.37577359256937115
-2.8353516008018556 0.8725687006767331 0.8739107003137543
-2.887393656646972 1.2871643959225534 1.327872119182259
-2.976412310220621 1.7649393824135702 1.7597875028811623
-3.065529636073495 2.2078240501011948 2.124607467745565
-3.150563430671345 2.5436930520872254 2.432109068994652
-3.193036573123734 2.78591594674634 2.7460063384602362
-3.2354842002708697 2.8472004201304726 3.061296325451684
-3.2668915151977904 2.7505189704624424 3.3651497441687437
[...]
CELL_DATA 87
SCALARS quad_param_group int 1
LOOKUP_TABLE default
3
1
1
1
2
1
3
1
3
3
2
3
2
0
2
0
0
3
2
3
1
1
3
0
1
0
2
1
3
1
1
3
1
3
3
2
2
2
1
0
0
1
3
1
3
2
2
3
1
3
2
1
1
1
3
0
0
0
3
3
0
0
0
2
3
1
1
1
1
2
3
3
0
0
3
1
3
1
2
2
2
2
2
0
0
3
3
SCALARS single_component_feature float 1
LOOKUP_TABLE default
0.035295458677000395
0.021749731803270767
-0.016740582166058508
0.017406791128539958
0.03114710604503527
0.015274367404031913
0.0009986327009994071
-0.019371979781914687
-0.03850641987997722
0.006365644692287332
-0.002473111609239201
-0.013003975863831268
-0.007565369640386031
0.058129440594497095
-0.00404765381136574
-0.013661719505577794
-0.02885678303468505
-0.005847338500517367
-0.012417335555545465
0.02041161500370492
-0.008705318064706497
-0.01791329823927955
0.001707172572095298
0.02040315873647159
-0.027270419769730384
-0.01331162753113816
0.029421605863783867
-0.032435546853606015
-0.020507589670556436
0.005093771719487845
-0.007094414390499161
0.024362273230165613
0.02813777714008824
0.012933944593576838
0.015510648213781536
0.0319944520083485
0.01780874124257778
0.025919594998701587
-0.033166427476451384
-0.033850546184409705
-0.03234185153382511
0.023090125450392754
0.026183268869859642
-0.005662283185541066
0.01607071023144918
-0.0536338568418192
-0.054517131088937146
-0.03727609935081508
-0.04889610228014794
0.017779421807332836
0.030579996885862715
-0.001719092957744609
0.0008854095090844102
-0.037613603526399586
-0.013404602485929892
-0.037361845462940343
0.046635528708154385
-0.008072105090101917
0.025259796668971973
0.009113014132078635
-0.012974658135959584
-0.02778071642310887
0.05092007227808819
0.005397907932440167
-0.012726917379244442
-0.011595329595798901
0.00832288120235682
0.0205893263454884
0.02024255521811285
0.017936934193802906
-0.02868730440618776
0.0028916656786397398
-0.006335379061050892
-0.03762441794153994
-0.04738465189640215
-0.010610544952019234
0.007875486626399275
0.005006453404787899
0.015669822765925424
0.032397454710715236
0.039199271443688136
0.002829240930516407
0.04043998231564022
0.05355694865640806
-0.021338192879976896
-0.00955110843200859
-0.02508995189766723
POINT_DATA 5568
SCALARS single_curvature float 1
LOOKUP_TABLE default
0.09585602022893612
0.11027858903162051
0.11299964930073578
0.10472551652506705
0.15142085895620516
0.19765476499992546
0.18182494643278935
0.2237182270417736
0.18015713576308648
0.13985740075075875
0.10935675583255838
0.07299195029319266
0.05267150642821873
0.05258757690690171
0.06620975189261988
0.08920600553336376
0.11587474468949971
0.13182027082051367
0.14234392803321297
0.14492609625628847
0.14562991498393538
0.14366418637469025
0.1376662944000778
0.1308167938577635
0.12241225488429956
0.11605403197778227
0.12280278608467318
0.1388685314455854
0.1677885164856009
0.1540028647220441
0.15301168584392746
0.15222118608612972
0.16501000707178257
0.21132025815139263
0.2343506297182197
0.24145323748582104
0.22085856360464837
0.3857630045870119
0.8571084283909933
0.9947752082064291
0.9976204667153789
0.9965995094421839
0.979995933922091
0.5328394943499489
0.18393357420845424
0.16758226518848993
0.1818906290847731
0.2063970001274152
0.24929958758093082
0.26302074319560365
0.24921888489178584
0.2193631780078357
0.16884267224083274
0.13184612875618487
0.11621080452119195
0.1181389386669082
0.12751264533342327
0.13759581958605221
0.14162893655723532
0.14246011725293128
0.10658098110765747
0.07070184496238366
0.034822708817109846
-0.001056427328163967
0.07305325982787289
0.09816866118547725
0.1217501739857626
0.11920398220859006
0.16098191742926407
0.19289230744234284
0.1768833356554993
0.20734201938927077
0.17001150758105923
0.13266686832154254
0.10189278825905498
0.0696392899714463
0.05032037303858774
0.04957670387560516
0.06251422116352139
0.08563792766982509
0.11209195802092602
0.130460947565897
0.14367151942119313
0.14979512320907024
0.15300994946110236
0.1528280230716716
0.14722079564016705
0.1374847364374201
0.12396970395998415
0.11159940768499005
0.11381424153511506
0.12286092961212253
0.13810048750575807
0.1401069513717971
0.1467489086263007
0.16318829557564857
0.19008760792119142
0.2171279813123766
0.23124743522672048
0.2216246401459641
0.18185021536722343
0.3212042612254361
0.7790318588377623
0.9697094899035246
0.9824466693435738
0.9773298232267353
0.9086737068013745
0.43931250832932867
0.20192367045657775
0.1751134889008474
0.1788606341796078
0.20171316745014606
0.24161083994036586
0.2577992793978327
0.251173974956817
0.2246047127403814
0.17698763535831008
0.1404316107458484
0.12333980067907904
0.12255184210385803
0.13034025324326262
0.13879695049701773
0.14095793345083732
0.13991044896700697
0.10410759525030924
0.06830474153361152
0.032501887816913794
-0.003300965899783931
0.09760447544562967
0.15175720093448924
0.1501099654796824
0.19260529945191365
0.21664805476981602
0.20830651245587778
0.19149103945226661
0.15795798412375037
0.13987224131114903
0.11143758417200672
0.08032423774855492
0.06135956529363512
0.04509067404501638
0.04267642359157687
0.05346071367527981
0.07588663737703585
0.1021439576097228
0.12799505475874492
0.149231101484341
0.16631558830838156
0.17705321640170762
0.1808294900824773
0.1757760390504193
0.1557380693393475
0.12620529585291884
0.0967813946158045
0.08453469926978037
0.07323244431436007
0.08133012122897278
0.13468234182991046
0.16486183366141702
0.24381857972381402
0.2766839068036993
0.23639740734741457
0.2205514194979237
0.14899336015863296
0.12889145288286064
0.23465672333836685
0.5534110078993246
0.7516016392687884
0.792359633652022
0.7756701375920225
0.5958613864151456
0.34181189501919496
0.25116101852317624
0.20662500695101055
0.17838234374488257
0.1953707575070255
0.22376792362179818
0.24401845323317556
0.2529356169764019
0.23521124578828564
0.19744268544453988
0.162876580793889
0.14169586326110517
0.13383700881559935
0.13708107653265594
0.1408575361621799
0.13841137696319045
0.13307114874001374
0.0980494266584839
0.06302770457695406
0.028005982495424214
-0.007015739586105629
0.06754985787804478
0.09616935607777924
0.12485925513044778
0.12666127066947006
0.16664983117695575
0.19384920345953893
0.17776963382279243
0.20195176724029873
0.16669976210879853
0.13032827534022212
0.0994830910922356
0.06859902364737017
0.04960932789524818
0.04866170567799582
0.061373436342529446
0.08450781317715989
0.11091032548678612
0.13008226196819073
0.1441716528802402
0.15146960119400352
0.15551154970879322
0.15586833688164134
0.15037189846905405
0.1396218689457796
0.12439576202972255
0.11007433419805641
0.1107675841631517
0.11742820917420857
0.12862038162004302
0.13606949082354872
0.1452607657264079
0.16799037885838192
0.1989314744584999
0.21922956846619673
0.23029383836155778
0.2146529742002833
0.16964322084279967
0.3019817283188944
0.7505891701651496
0.9545150429927362
0.9722524090975583
0.9651777289744521
0.8747892762902874
0.41878281975297177
0.20748836481168154
0.17781096228231238
0.17814144610099214
0.20041829806272177
0.2392324280073731
0.2561276429621693
0.2516514797446034
0.22612214925523066
0.1795072876537366
0.14312154372497657
0.12556378521415304
0.12392711456921145
0.1312024011650286
0.13913108649535033
0.14071306648529033
0.13909593143619225
0.1033399125603675
0.06758389368454273
0.031827874808717974
-0.003928144067106787
0.08830569332438833
0.1058930405685365
0.11544191296473069
0.10432926915468545
0.14967574581873438
0.19170733271735382
0.17581165950527528
0.21877853012096823
0.17708106156181563
0.13767231774020186
0.10707969298572073
0.07195014739001827
0.05193230939980921
0.0516425955170224
0.06505794465614437
0.08810653310090513
0.11470057488511204
0.13137474994921153
0.14271214546593947
0.14635869860700865
0.14781938670729222
0.14641468747387482
0.14054266707221558
0.13285457255949534
0.12292383538938517
0.11473996647828016
0.12013502684206291
0.1341220703234419
0.1587739617225838
0.14958875890174403
0.15087980615690486
0.1549662794218603
0.17222645265318737
0.21295759517414145
0.23336152756959955
0.23568257051079025
0.20904861563009688
0.3656308798182179
0.8352785807662699
0.9901603106953156
0.9950894230854876
0.9932085587978648
0.964535585054086
0.498540781889503
0.1895619400403521
0.16976097069423976
0.1808478148264411
0.20487046111576623
0.24691354525871037
0.26142756221267593
0.24989258431485648
0.2210490860262434
0.17138041366713444
0.1345041374846723
0.1184224036313422
0.11950835379671788
0.12839965984609017
0.13798886235798455
0.1414392873802935
0.14168030209944493
0.10581326357944433
0.06994622505944373
0.034079186539443126
-0.0017878519805574755
0.06545758743628939
0.09578852661278128
0.12641147126240365
0.13043325596832883
0.16951514603613418
0.19440764091398882
0.1782900537735339
0.19928310184376524
0.16506396469491338
0.12917429272802144
0.09829717750920187
0.06809569494356153
0.04926907345566504
0.04822268468654758
0.0608222719161499
0.08395548764331917
0.11033565061110484
0.1299061799158923
0.1444299442647505
0.15231105645018767
0.15676243996627617
0.1573768296106984
0.15193161084057002
0.14066857727261164
0.12459077624038739
0.1093092119075052
0.1092437483580364
0.11471139462021956
0.12403907219676137
0.1342117380987272
0.14467050790413186
0.17061394501625027
0.20339218719397936
0.22029192059513703
0.22982251179883548
0.21111753157099025
0.16398337470494573
0.29312585695582366
0.7363229481913225
0.9456466276177952
0.9660780633110243
0.9579937786616742
0.8569007110303861
0.40997107695265905
0.21019503445708274
0.17919421334884497
0.1778394558104764
0.19982555963773196
0.23808665030300213
0.25531114369385993
0.25185948604670627
0.22683774070521115
0.18072679654458051
0.14442978714325355
0.12664350764597967
0.124594387718257
0.13161720430929752
0.13928591136953308
0.14058804209153192
0.1386978304140342
0.10296875628193776
0.06723968214984133
0.0315106080177449
-0.004218466114351532
0.06777413674934746
0.10922964229199313
0.13700630497566935
0.15718602156853265
0.18981543228257491
0.19950681448314056
0.1830950971755331
0.18109800295286035
0.15396321357766488
0.12135605663804361
0.09031651735611304
0.06487851162594246
0.04716739426005186
0.04548377548225968
0.057307605724226496
0.08030363335897128
0.10658178900523521
0.1288891044623863
0.1463653549497063
0.15825402447340786
0.16548944119410788
0.1676928278985295
0.1625231409448937
0.14758223880584848
0.1256339452984175
0.10393309102815389
0.09860403197893876
0.09586555293339372
0.0968686452000045
0.12594446830847944
0.14510073594870393
0.19431696668822163
0.23491085985378776
0.22767006683578922
0.22639728242985832
0.18550538602814934
0.14117648732472105
0.2535957816862195
0.6459780300269775
0.8676691689360372
0.9046079960912564
0.8904982978273899
0.7306529803004226
0.36746325383271305
0.22812396734781323
0.18965216202066026
0.1768036052631268
0.19670661177824192
0.23091875766669953
0.249990593421904
0.2528074784998863
0.2311224945451343
0.1885682124486013
0.1529514330930072
0.13364145694100693
0.12890913814826746
0.13423904083671068
0.1401629561317538
0.13967887301616716
0.13608753704959323
0.10060490498684022
0.0651222729240872
0.029639640861334193
-0.005842991201418818
0.10289847739941792
0.1588157972158675
0.15201308288289012
0.19791664355857097
0.2206648227239576
0.20974357392885462
0.19286917013378954
0.1544981328909724
0.13776113810800142
0.10994984905678785
0.07883802781603891
0.06089248513027771
0.04484265861311326
0.04232617374592314
0.05294752632283826
0.07524395205642745
0.10150727257334735
0.12789518542493802
0.14969586928258924
0.16756774738438382
0.17882231041550264
0.18278721547842852
0.17772311648715142
0.15688622680201084
0.126213325639755
0.09569827080976237
0.08239861990862822
0.07055570683999607
0.08094438118430561
0.13788525071255944
0.16968866587822928
0.2524414274434635
0.28298734025188566
0.23755273222421197
0.21945337921250083
0.14317676169189514
0.12660996003697242
0.2327691451366092
0.5412579511874911
0.7344957113998064
0.774223738632904
0.7575684900047032
0.5795967883479975
0.33981688157132994
0.2547877691743798
0.20964639784625638
0.17892966706064603
0.1954558181494881
0.22292338819363727
0.24321730114025616
0.2528591426533875
0.23570148051454887
0.19866930220940396
0.16427803506424907
0.14282276747385608
0.13452120678969987
0.13745985643269715
0.14092264015011588
0.1382139087672826
0.13265386396215062
0.09771442838644466
0.0627749928107387
0.02783555723503274
-0.00710387834067322
0.14370975547930293
0.21147644674435326
0.16535858671424136
0.23561080160056713
0.24905100960162707
0.22016867414475544
0.20290283097258538
0.12937596492947676
0.12233147645858136
0.09904679648111074
0.06804695263103104
0.05797193045356708
0.04355322315430741
0.04034592830271265
0.04969850190357005
0.07068081833150684
0.0970506044142064
0.12740477110428627
0.15334980929308195
0.17703949184332454
0.19196782365151518
0.19690332926896004
0.19148671936857464
0.1645763098124
0.12561209510994162
0.08806972901319056
0.06702572613737506
0.06372870193254578
0.09207320227161692
0.17399351892698392
0.21717192198126373
0.31540549096884246
0.32839479788305714
0.24843417637019113
0.21353260081621045
0.103552321920061
0.10906843400491305
0.22242958840392862
0.46518978085917145
0.6207785498511508
0.6457781107143696
0.6302743246273095
0.49044707292873796
0.33636957079950386
0.28419248453808305
0.2369116623670945
0.18561679786818433
0.198562495487334
0.21882951550223576
0.23817920356841318
0.25160344521486894
0.23838026471531518
0.20683177791984583
0.17385450325467783
0.1504338220618108
0.13908605880177471
0.13985442581995217
0.1410985932938826
0.1367340177953037
0.12992182775981093
0.09568094529216711
0.0614400628245233
0.027199180356879488
-0.007041702110764325
0.06337202949326072
0.10072760197458043
0.1330011903287951
0.14686072823268187
0.1819840645536421
0.19733054426298408
0.18103574132712635
0.1879939383407985
0.15816546866328168
0.12431379579162084
0.09332475297271733
0.06605396610257125
0.04791865663555131
0.046469640227628034
0.05859059893111921
0.08166697762370405
0.10797402336497308
0.12923906798228127
0.14559668348595983
0.15595844951619436
0.1621399506370231
0.1637756182828192
0.15851767273780257
0.14500761957481906
0.12529772615596388
0.10600322114719823
0.10268908503629212
0.10305672910601019
0.10605550099989759
0.12790931758527935
0.14375939799696053
0.18392050320981768
0.22276094252558376
0.22487052312738678
0.22776492874884066
0.1955341741629965
0.14634149126047835
0.26401557039362494
0.6780277302794842
0.8999375170654731
0.9316724891134667
0.9195284349253373
0.7780160254419534
0.38053237098131454
0.22139326808144325
0.18545136398284212
0.17697872313801077
0.19769268751079433
0.23349653165925596
0.2519531353751407
0.2525412318618869
0.22961534924767255
0.1856885356353099
0.14979851576417097
0.13105992722064871
0.1273198897958256
0.13328613973790043
0.139866046707351
0.1400344058851248
0.13705510379707625
0.10146645726450608
0.06587781073193591
0.03028916419936574
-0.0052994823332044305
0.07228721790504475
0.11633363845408383
0.13959569917828837
0.16399628348984402
0.19497889066143398
0.2010578685196894
0.18456810295686493
0.1766057143955849
0.1512281971914338
0.11943153274775313
0.08836620903763807
0.06414313904173824
0.04670946344138551
0.044877359094048226
0.05650505404920638
0.07942815418426605
0.10569342516008133
0.12868289655604154
0.14688782318890853
0.15977621754206398
0.16769631364992882
0.17024583503079052
0.16512163967504775
0.14922603968420803
0.1258130051485452
0.1025662967262112
0.09591261034621353
0.09119543028997479
0.09195002961394731
0.12574796496387985
0.14705755982942065
0.20224588984281303
0.24292374017473187
0.22946656032341048
0.2254345264611637
0.1787607080100595
0.13880579966783763
0.24860425877293796
0.6263838173199233
0.8456278698429333
0.8849365640420246
0.8698480942269845
0.7011925429930195
0.3605147499906517
0.2325054024088547
0.19257167929788777
0.17684142584032567
0.19620213689548963
0.22934162148984705
0.24875352591158187
0.2529226081180056
0.23203056474465175
0.1903846667852777
0.1549557751299776
0.13527733265314296
0.12991424327268306
0.13483327157403074
0.14033370572508413
0.13944113053717871
0.13547316014508548
0.10006753192995758
0.06466190371482969
0.029256275499701792
-0.006149352715426104
0.09032144748113095
0.14191421344882596
0.14738494375809405
0.1850609000191771
0.21093835436966105
0.2063039678784265
0.18957329925150374
0.16286346183940817
0.1428621897322906
0.11354350153411762
0.08243360317584528
0.062048680726667894
0.04547096023936812
0.04320469127081543
0.05421616699791756
0.0768050421127592
0.10305771654416297
0.12815102475406245
0.14858804746161702
0.1645611081954401
0.1745622716596166
0.17804968323396275
0.17299776041883205
0.15407658404136193
0.12615841551384757
0.0983152038005782
0.08755372624747694
0.07752906712079209
0.08270030866929091
0.13093398668871797
0.1587964392275678
0.23188874787766398
0.26775489855836626
0.23468160885451847
0.22199825671411055
0.15709277792168322
0.13183303976205504
0.2376240226591313
0.5713731158098364
0.7762222450922728
0.8178139367435057
0.8012160965418255
0.6206975901933399
0.34536155766854265
0.24613129118382754
0.20258447585584097
0.17775101185678657
0.1953827723611931
0.2250716773580066
0.24519738468287663
0.25300259253368135
0.23446371099072677
0.19565971606185015
0.16085368347099266
0.1400642960475916
0.13284366824547342
0.1365236110047369
0.14074816852767466
0.1386882127932786
0.13367857573469566
0.0985460400545312
0.06341350437436674
0.028280968694202283
-0.006851566985962176
0.08040918963586291
0.12816465054366
0.14337864830074962
0.1741247927912765
0.20265522703663716
0.20350617038123092
0.18690012116300173
0.1699792560968297
0.14719497792876404
0.11659345382936025
0.08550020793775738
0.06310350274206716
0.04608104775136112
0.0440359040077436
0.055369825590146395
0.07815349000120202
0.10440781126264155
0.12840839933499532
0.1476887887258905
0.16205946821651399
0.17098593560834277
0.17401089124990812
0.168934835235553
0.1515996658304568
0.12601823626887315
0.10052764661476557
0.09190335628886327
0.08442242203805914
0.0864299042239207
0.12719807303186248
0.15167630395327872
0.21564511258317626
0.25485012005427105
0.23204570724161203
0.2238810615437178
0.168505893060148
0.13558325686309686
0.2427035410420807
0.5989772056230892
0.81229792965037
0.8536142725151961
0.8375348589024794
0.6604278693348414
0.3521640508415892
0.23901336816553667
0.1971794645853184
0.17712645711881775
0.19566678988740646
0.22717379968995935
0.24699390700930043
0.2530113811690745
0.233267418649176
0.19298053491338388
0.15784293946761338
0.13762592493300088
0.13135394925663973
0.13567215887473463
0.14055363318745562
0.13908256425401003
0.13459130002385875
0.09931039426145422
0.06402948849904969
0.028748582736645156
-0.006532323025759373
0.1425460441338949
0.15527684765751304
0.11807146404884726
0.1248576738565658
0.17669928470058166
0.2300622064081198
0.21424373914236214
0.24951515931851326
0.19654465117387665
0.15160479527840967
0.12173796643585484
0.07888561801478272
0.056965872062172615
0.05807157551534362
0.0727978865848613
0.09535722342305403
0.12258842912663484
0.13475590415305058
0.14096037392345295
0.13802243739086534
0.1347810270568243
0.12956774760158593
0.12280496779074215
0.11982905343911639
0.1191282849792878
0.12244647506965818
0.1360869219614535
0.16248373265168184
0.21389257868183972
0.19032688482215304
0.1778486827116046
0.15669761289141648
0.14494883364727223
0.2050433215579762
0.24080862328266556
0.2687434492045354
0.27943441483222103
0.49368595109168306
0.9409720513062538
0.9999903738699758
0.9999986872765014
0.9999977025529866
0.9999728908714279
0.8338699995888733
0.15079996722060274
0.15719488139655516
0.18901761499203013
0.21583107172865476
0.26250469638653995
0.27144745987351976
0.24434014939100873
0.2088718590481932
0.15430276647722918
0.11687771445171019
0.10370029861184782
0.11039564667706922
0.12234952504345996
0.13505206029076677
0.14238782759420843
0.1466397038976411
0.11087121776918961
0.07510273164073811
0.039334245512286606
0.0035657593838351043
0.0746399711558349
0.11984498450420693
0.14076785514865953
0.16711255247303078
0.19734109973530212