# vtk DataFile Version 3.0
vtk output
ASCII
DATASET POLYDATA
POINTS 5568 float
7.179821904744576 -0.18091156331643476 -20.74036270367153
7.385569187990987 -0.18475384909509363 -19.751756150886326
7.491619390578653 -0.18908641041769328 -19.050899592486534
7.585035955235378 -0.17328488703016232 -18.307333636926217
7.6539534646398035 -0.13731827269792884 -17.454375616349527
7.544208092086933 -0.14094954490615483 -16.65252680231639
7.299812807071801 -0.1386887228040751 -15.919217781138736
6.981599800479559 -0.12948163398081594 -15.277396962931258
6.592133879334484 -0.09117588423013459 -14.696149579640633
6.136658446334231 -0.04054842535151862 -14.153294596778302
5.596801641531801 0.026413930085156412 -13.639598286523274
4.986146330916564 0.11598067343954774 -13.129764711957549
4.306211474222278 0.23030944513040352 -12.6666301648795
3.5880406090648553 0.3570740357469936 -12.240229897818873
2.849849883437781 0.47774510739731857 -11.841548126423392
2.090029900391834 0.588205509807035 -11.460607366998156
1.312192355394878 0.6822626247185344 -11.078341142999452
0.5526150130516118 0.7500952757329016 -10.682196926648418
-0.17713502080265298 0.7936113586366983 -10.251978366472473
-0.8509718532246385 0.8128122143377021 -9.780729466819608
-1.4474114544563146 0.8086222458235883 -9.274480177863952
-1.9618727692884277 0.7827159346845596 -8.738231351327512
-2.396600307405339 0.7443169475816145 -8.173567358716465
-2.75770654867781 0.6913753709139792 -7.570153228307377
-3.0369725646012524 0.6235233447301791 -6.9383558045650915
-3.2312052746414346 0.5507321375331363 -6.287069421833819
-3.3376919397949907 0.4475512865156567 -5.620563612064828
-3.357859559169759 0.3172077279182778 -4.942721957968395
-3.2997518342245247 0.18130900575709633 -4.256749492449263
-3.1774608938719697 0.06059389374723309 -3.572904764179716
-3.0106499071008392 -0.0358072551188523 -2.9078789630322803
-2.825055502277863 -0.10918923036127219 -2.2558547741713797
-2.6558918856868523 -0.13854091423069564 -1.576874369531395
-2.5107980965128127 -0.09373515417424524 -0.8861766265720746
-2.4256068978548804 0.03667215437364038 -0.17816469660624978
-2.4465389304976615 0.30512391516538584 0.4850703035857098
-2.5712305375294773 0.7030212411322728 1.102350291447443
-2.761528416286833 1.1373524058731586 1.6486606775627992
-3.012416383022812 1.6692461906597904 2.0956178620189054
-3.269044202036094 2.1615851121156315 2.4439159328697393
-3.5314717709151022 2.5084550104037313 2.7050995210319013
-3.6695860777326903 2.810825362414611 2.9429009052479334
-3.7472157995882047 2.9317197336409664 3.155219145243997
-3.7705000604400745 2.9221053694212276 3.3419249081631266
-3.766474522631152 2.7155408465159754 3.6488180955933958
-3.694754578916429 2.2614153989075945 3.951778643049268
-3.611437074318784 1.5324265127318388 4.222623261836112
-3.4242740973713546 0.6864765157298444 4.373434913669483
-3.1552542652624016 -0.15959835220251917 4.462393322776221
-2.783959447999218 -0.9868889596642494 4.525423299687086
-2.2658875066777733 -1.7489606883794742 4.633079593840639
-1.597478702494575 -2.327976232524164 4.833530032060149
-0.8821117327266993 -2.70779305934202 5.105260590605388
-0.21105795178769704 -2.9224385738339334 5.416891510511184
0.4713134366384384 -3.0262265106181188 5.803487630146851
1.1681238440603063 -3.054928766040563 6.230790286946895
1.8895749647361302 -3.0192644987026678 6.6764162326829695
2.644265551338321 -2.9108785304423073 7.111820254951906
3.4319984795531506 -2.715086608221071 7.496345164880418
4.221360568500166 -2.4365033000954295 7.788864417743292
4.996668121169875 -2.0805735851112956 7.97613398314987
5.743523824600901 -1.6573848919455028 8.047868755480394
6.424139897291733 -1.2038644855149423 8.023491155496341
7.036803292923821 -0.7323608503475467 7.920173736316532
7.309593603964981 0.05597753531097556 -20.49007220295841
7.459135687307883 -0.0027426664087230115 -19.51674446936754
7.5266650779597155 -0.09786095517166588 -18.772333139138492
7.5484854945439706 -0.20615898746991074 -18.079910095948943
7.5128989100987535 -0.30850842087174174 -17.436730839067717
7.449655922140354 -0.38149207353997355 -16.759268451772666
7.294072862408159 -0.4016955270610748 -16.10461556435507
7.085593003809137 -0.39079580531956154 -15.428324152482704
6.745706497369048 -0.32978833551538683 -14.765004801810184
6.290970762250289 -0.22679352199719174 -14.175698111249615
5.722351641165675 -0.0880550868248498 -13.641128346146763
5.056891877820649 0.06497298053464931 -13.184196387393653
4.329945500715349 0.22760774563637168 -12.777741357789168
3.565090395596677 0.403493840241964 -12.41421740280491
2.7803611240116357 0.5912706403688914 -12.078550743361172
2.018727793213256 0.7503562186481101 -11.753649933063645
1.2794756312404325 0.8764593720054858 -11.410576767314806
0.5685751557625246 0.961845428667413 -11.03351661805603
-0.10286495140323171 1.0015547984220337 -10.614149086197859
-0.7212372203176162 0.9939952117512497 -10.145330591091868
-1.2743810118360872 0.9433044987943615 -9.630853853207444
-1.7523163930553056 0.8556787058248689 -9.081080458345662
-2.154450870825549 0.7377558658452114 -8.500235356022435
-2.4760064773242734 0.6036037568401822 -7.895002541576547
-2.7228088363368435 0.4610245311836014 -7.2609829443635485
-2.9018954260534335 0.29474022520203835 -6.581520291170182
-3.026027450978637 0.12721404665029082 -5.8316151786694235
-3.11293640198856 -0.04549463125068107 -5.016969664971901
-3.180822806407036 -0.1901229477458822 -4.164863886651844
-3.228281304604854 -0.30734224607053456 -3.322991694677351
-3.258168976583629 -0.33764643720390713 -2.5540996372670617
-3.250708336315731 -0.33365791977294457 -1.8814735737597825
-3.2422353647969286 -0.29668714663045087 -1.2189142408137132
-3.2211778569769884 -0.1584653729923029 -0.5873163108990681
-3.1927419176629668 0.06684272089138271 0.0051529426301601955
-3.1515828965628088 0.39524557659814413 0.5410531987699481
-3.085839760583602 0.8219414996274916 1.03618593641635
-3.0010401986207054 1.2996988896915131 1.4902046246038483
-2.942102901697457 1.8315449675900533 1.941540067498401
-2.893139110084804 2.3036342521556894 2.311650499430496
-2.817416694733121 2.705923001408696 2.6287697861744452
-2.8053599969085234 2.9130073363035374 2.959904284993186
-2.839234930455497 2.9175599848604383 3.3062256401465424
-2.8856052177226297 2.7638684921175565 3.6000277056986745
-2.98635884886026 2.4412001395703173 3.848353475553548
-3.194078452405786 1.7997643784762374 4.095511389446983
-3.2403353870521046 1.1490874363201788 4.243902667468229
-3.2327143965164504 0.3787868212414942 4.345981893717247
-3.100456124327807 -0.3940378727417686 4.430459795615555
-2.8197796196790117 -1.1232940755848027 4.548258375684704
-2.409496076632456 -1.805878868129016 4.693799278727058
-1.8702141774099035 -2.4201275071951276 4.869232725093009
-1.2288084392213632 -2.8712049027398563 5.119531285981002
-0.49821740040412743 -3.1757794392732372 5.495636322246837
0.24537080525528765 -3.319752607090119 5.907167530972655
0.9741339792436603 -3.319620662706189 6.310668150113712
1.716521988329168 -3.208858447071035 6.7014463404643525
2.482309391115131 -3.001842581286582 7.053166234486373
3.274731709231599 -2.7004515995164056 7.342728585799553
4.081252273436804 -2.3199465517061215 7.551372326575968
4.877489036506892 -1.8779734340358267 7.679086137305832
5.629886352653395 -1.4039867240536885 7.737600264379854
6.34677164587869 -0.9005725753061693 7.733473040138261
7.009188587938242 -0.3788051460871541 7.676697003653532
7.317945132020014 0.07122266167522578 -20.47396462209778
7.463943179010882 0.009002227908196367 -19.501418584590283
7.528946143418438 -0.09220572513038171 -18.75371364080827
7.5463426816545 -0.20836614408529067 -18.063550407966048
7.50489189631154 -0.31853440759638463 -17.431401824867013
7.444387746996086 -0.3955994574874846 -16.761275210212602
7.294115534353385 -0.41714634687905583 -16.111324951148237
7.092472416480953 -0.40612857936858965 -15.43222433972564
6.755754767571512 -0.3435836350230369 -14.763169875926742
6.301001675097902 -0.23710085880358456 -14.170696514497163
5.730364823435957 -0.09357156553170162 -13.634639167476642
5.061014568858399 0.06367134306071445 -13.180946058845768
4.330753342049493 0.2295083908724127 -12.778040045602747
3.5625741560250206 0.40866134176548813 -12.418481717885173
2.774457283710762 0.600911415994249 -12.086792441963013
2.012518180792819 0.7631395986165959 -11.765386619488565
1.2756494797394766 0.8912498459108185 -11.424749647088856
0.5678078298899912 0.9777270130261726 -11.048892164075228
-0.09997555012757275 1.0171978850677255 -10.630221433950355
-0.7149073316053048 1.0079682372335699 -10.16153911232391
-1.265415255058879 0.9543266765870145 -9.646446304731828
-1.7411724410684253 0.8627269760774202 -9.095628268177345
-2.141409600591632 0.739613661282076 -8.513442701643898
-2.4606135601976336 0.6001834248970815 -7.907750989601404
-2.70544025683652 0.45272180870052203 -7.273289636154112
-2.883613161850371 0.2801551141046055 -6.591615712288943
-3.008943168224901 0.10821545534985744 -5.836074163209665
-3.1005710369566333 -0.06743533004827038 -5.0120446182191865
-3.1775387395441164 -0.2126991427742182 -4.14793013257928
-3.2371404190455064 -0.32979285425353005 -3.2939131419357395
-3.2805418440785044 -0.3556647043780292 -2.5158561020733963
-3.284473698667447 -0.3467073311593574 -1.8399888049090614
-3.286053635048852 -0.3054999087283202 -1.1770264790892577
-3.272585748976371 -0.16129263375676262 -0.5479576458392509
-3.247525459933496 0.06995769465560794 0.03822287154454895
-3.20258593362991 0.40231323964965826 0.5670201623029697
-3.1251433323016706 0.8320495360860201 1.0562875045087716
-3.022807289883854 1.3153764697219916 1.5073333697074165
-2.9439926927039544 1.8506142632279832 1.9618252175359483
-2.8756798160250545 2.325303996026177 2.336311303488286
-2.776453278916218 2.7374469310178546 2.662007746170569
-2.754773079660554 2.9402995353039425 3.0019486198823944
-2.7855289031864796 2.9360075793487144 3.360722596286281
[...]
CELL_DATA 87
SCALARS quad_param_group int 1
LOOKUP_TABLE default
3
1
1
1
2
1
3
1
3
3
2
3
2
0
2
0
0
3
2
3
1
1
3
0
1
0
2
1
3
1
1
3
1
3
3
2
2
2
1
0
0
1
3
1
3
2
2
3
1
3
2
1
1
1
3
0
0
0
3
3
0
0
0
2
3
1
1
1
1
2
3
3
0
0
3
1
3
1
2
2
2
2
2
0
0
3
3
SCALARS single_component_feature float 1
LOOKUP_TABLE default
0.030238753801556707
-0.026523898750700343
-0.03017689002781376
-0.01444057563663138
0.004423744853786415
0.01441138123089723
0.02110427133013777
0.03597542307939808
0.004419960657258743
-0.0014468392834221643
-0.023412848311597338
0.0370867856736617
0.026936556216417953
-0.038311074206644175
-0.0031213908799787053
-0.032162491223588205
0.012161636737995387
0.009606360857964475
0.007811477323752342
-0.013142704455526035
-0.0037765828736686484
-0.0546864491847381
-0.027412856046858745
-0.007634605741045148
-0.005777120699354259
0.03852974148775422
-0.02371695455531273
0.08978653595979914
0.026238316590401663
-0.017760710892068123
0.0023518149987991465
0.012443152962128362
-0.002508215182684853
0.007338262264096437
0.028528492715154105
-0.022014251422152874
-0.0031906495286309084
0.03144759036146077
0.03215616303334721
-0.010107138562842288
-0.036126827673530135
0.0005781758842253147
-0.031521094508654666
-0.01732983518953693
-0.017698447346989964
0.003651498529389792
-2.6817167524964547e-05
-0.004219595359331469
-0.00584278701190645
-0.009843137371380635
0.001445899233901187
0.022214691227533008
0.004112489165731687
-0.01630684689787424
0.007075848687344398
-0.028717728593315575
0.021914350088282915
0.02471626663530782
-0.0017016937648603146
0.005656834673042052
0.029081308640812573
0.010267192369163305
-0.018561329432858212
-0.006235266803571803
-0.015464684976009639
-0.020725152438237228
-0.06506199305792745
-0.0010998423169941499
0.03685454159719137
0.013046115341556627
-0.022170974029976826
-0.018485119619567034
-0.01344628891569221
-0.042700132673282376
-0.0287447294201615
-0.03409059190702819
0.004913429081988458
0.02722010884368369
0.042172708872115265
-0.013338980194597849
-0.010002462913064173
0.0501822332330617
0.0036245504484053795
0.023433468331638868
0.02417916997200102
-0.0005030824717260681
0.011952386528714578
POINT_DATA 5568
SCALARS single_curvature float 1
LOOKUP_TABLE default
0.051811137025381176
0.12305386803876668
0.15728232943860881
0.19645812335994936
0.23188806589580974
0.19934899865094197
0.17356495532312413
0.1421791538171409
0.12194632095285841
0.10275322433859335
0.07912085340968869
0.06878079584721009
0.04615367822752987
0.03900744267413789
0.04451819834823039
0.060734584958940206
0.08703260261899078
0.11326603486723154
0.13547649819384433
0.15174495844568264
0.1641418088243304
0.17296505689729832
0.18290018283258408
0.1875784781812591
0.1815465436325812
0.16830957057825924
0.146163395271932
0.11604838336789891
0.1025369590447798
0.1084588757586644
0.12942521131246523
0.1983457956222314
0.24476386547961124
0.2539974221061901
0.2718860642922426
0.2282663510608011
0.24410674311159186
0.337259214162502
0.6869355135549146
0.9465118266834498
0.9551690828802588
0.9524634904652324
0.8740949688019598
0.3852358500788279
0.2507144690799448
0.16559021843604563
0.1613554015226719
0.1858310393778732
0.22603489620200806
0.26031110879842334
0.26467929768750814
0.2204623957181472
0.17067385983378597
0.12747498570410354
0.10759025188787937
0.11658498969012415
0.13738690823757
0.15902199521212382
0.16981689879559667
0.17180288954817494
0.129752463903784
0.08770203825939307
0.04565161261500214
0.0036011869706112087
0.09934983458921774
0.12102567017672816
0.14115126764335578
0.1430408188084298
0.16583814616340856
0.20530380246455657
0.1939221555862582
0.21050214663604608
0.17885336967325538
0.13581375191627743
0.09961352133859012
0.06399227275444572
0.053036786587753
0.056728099228449076
0.07407479311346368
0.10123616202052947
0.12520401479638163
0.14384770044742531
0.1568366306681747
0.1644909228917953
0.16704848433376243
0.16360242912152417
0.14937782635831012
0.12230393052707515
0.09433802725786762
0.06784790541896847
0.07618203452275547
0.08888502171654876
0.09449411249328168
0.14607290930394046
0.16893063792071056
0.21301725908203603
0.25160558892022317
0.2276938529912395
0.1939267356068638
0.13979254638830768
0.1170150274911203
0.362339458811282
0.6549784427852708
0.8119684751141527
0.8610904417021411
0.7833728542462969
0.6234430117702732
0.3770985278003543
0.24032270815254744
0.24624880697075022
0.19609369327969425
0.21317270844601027
0.23803132560428344
0.23947785040154645
0.24254636092923362
0.24301918814728726
0.20736929117827949
0.1781357415905914
0.15768232828290552
0.1392146990501714
0.13093519532219436
0.12351693949022192
0.11423689716430922
0.10677911661246431
0.07696573775188748
0.04715235889131064
0.017338980030733808
-0.012474398829843025
0.10449163292792454
0.1262695789117458
0.1458272376570874
0.1450510326026443
0.16585602962024906
0.2066144855632143
0.19559213196083847
0.21449821510811792
0.18221314284027845
0.1377773476495551
0.10096330031350852
0.06410090867120727
0.054140109544784064
0.058625699145325734
0.07675110268838224
0.10436530130504815
0.12793060666995718
0.14599455760214392
0.15827764063016983
0.1652472201278415
0.1671072177431238
0.16287794414972165
0.14773518564785942
0.11946723104149833
0.0915414215212891
0.06489487659080811
0.07489082114544036
0.08916667523090273
0.09472850228333869
0.14887657799409007
0.1727165962473654
0.21698006287806032
0.255910264778176
0.23028568285364479
0.19175861431416966
0.13534184540206984
0.11513914181503107
0.376825135481362
0.6561219658273855
0.8065010777817617
0.8567468297904247
0.7679668253770181
0.6151241486212552
0.3809389441399116
0.24418381269310674
0.25581566033305553
0.19918301230710764
0.216029525670837
0.23940988283385137
0.23809903234994748
0.2411889427375726
0.2447063462804442
0.20995065889086217
0.1815477976761544
0.16086723369753597
0.14048111015184558
0.13038718244354497
0.12121806179719367
0.11084239550146793
0.10295259733406373
0.07389803976243299
0.04484348219080225
0.015788924619171515
-0.013265632952459222
0.08392911251073798
0.11235280882651497
0.13499962535822135
0.14589225511036166
0.1739768803947671
0.20204428914841413
0.18884913959581012
0.19686725192524362
0.1674212476358394
0.1291265947613389
0.09511908854929683
0.06395350066281709
0.04981678566343431
0.050963855758555346
0.06575563897255021
0.09122763379391695
0.11639728055500245
0.13687298606528148
0.1520921950840088
0.16190678791122068
0.16673144749333463
0.16589587055133728
0.15528966964872845
0.13295420514234102
0.10627087139980872
0.08114339221488204
0.08339516128745321
0.08976810363526767
0.09430906748709028
0.13665609529007772
0.15730239675496974
0.2028753049461901
0.241520588719768
0.22378900130907667
0.2054962824414733
0.15792845824427043
0.11793845058196077
0.3033476106116
0.6445855837652482
0.8294605388082734
0.8767008163134794
0.8328354074495431
0.6600531971807542
0.36788252211677325
0.23146644089786006
0.21752681710186428
0.18663776957665545
0.20472797382522664
0.23408994830193888
0.2441151933634652
0.24717600921300933
0.23756489575703557
0.19891160194194543
0.16685294246490523
0.14701380218696541
0.1348179345789987
0.13262658349463458
0.13112951819754887
0.125645831393547
0.1197621229809033
0.08740248117885607
0.055042839376808844
0.022683197574761615
-0.009676444227285613
0.06520754737454082
0.11185366962157887
0.13973251574719808
0.16412991153290676
0.1971403533221941
0.19960017554438228
0.18198293373475272
0.1744368802232885
0.14870484014364807
0.11819627417549532
0.08813117942645216
0.06505840948482443
0.046453552432116754
0.043883067712216936
0.05472892046278679
0.07683105740929308
0.10334462835632215
0.12643540005077714
0.14483536955927934
0.15768334577037252
0.165887498964174
0.1691543225404771
0.16590288872958514
0.15317656538683652
0.13265195865993615
0.11163929296024892
0.1034533997635848
0.09674255841500606
0.09599158417322698
0.12270599326864598
0.14249357001790183
0.19565408191592107
0.23724838229706172
0.2311128298138321
0.23325352429032467
0.19152811119120597
0.15891744522276294
0.25213905085478905
0.6462004981902929
0.8752204046537442
0.9069830032957832
0.8982099296474868
0.744218092403394
0.36650256906269735
0.23060850627692553
0.1840673932981822
0.1741019856422149
0.1944460699679686
0.22955185963709984
0.25128490043535817
0.2545885127744025
0.2295949490072662
0.1861833295311513
0.14952376499290856
0.13016122181367593
0.12741354992636428
0.13490939852734976
0.1429877300881607
0.14395421186106458
0.14098915661026892
0.10456867205624745
0.06814818750222598
0.03172770294820451
-0.004692781605816959
0.05828081946566769
0.1148013461704451
0.14553439100237986
0.17621716239004914
0.21061362146522966
0.1992131847438451
0.1786600939323692
0.1621046707671318
0.13845408029583367
0.11224244213712672
0.08452603982346647
0.06623276635341732
0.04567736159620615
0.04126502993236857
0.050036525427976264
0.06999532722517351
0.0968072266728865
0.12117107483672382
0.14111677557537783
0.15539252701117354
0.16528597262934366
0.1707181375163385
0.17215447517874896
0.1655691623619425
0.14995940889122297
0.1317792615433425
0.11807195807156788
0.10299386535244949
0.09797049709483135
0.11636648875128476
0.13646819304947466
0.19534947121483098
0.2390339302947093
0.23938121681325938
0.24942296030326436
0.208257445956138
0.19919016772100945
0.27047584198302277
0.6630563564901094
0.9064077323220134
0.9263607857736798
0.9240565049660524
0.7966483531534668
0.37194631663765354
0.23626719055625608
0.17316510877196248
0.1685519555433983
0.19037312308794924
0.22783836765179427
0.2549160768770424
0.25851391787583666
0.2257587043816885
0.17984001062404628
0.14067612748079467
0.1212888557348384
0.12329074804199894
0.1359519034211971
0.14922648595129698
0.15386111080809992
0.15267778105162824
0.11408177377826731
0.07548576650490638
0.036889759231545444
-0.001706248041815489
0.054878103932031554
0.11778649411396042
0.15022206917267503
0.18469180297691692
0.21967218525154472
0.19918415919681565
0.1764923907497915
0.15371587481153903
0.13149559940655745
0.10822375852087218
0.08218129296885808
0.06721903536157592
0.04560884273336075
0.04001219534024646
0.04739995871538471
0.06581592295100268
0.09258268052286808
0.11775894408910755
0.1386895836993304
0.15384934570424794
0.16482911511574488
0.17170300415553394
0.17657522245562735
0.17451958080984334
0.16271798475001573
0.14658693408807197
0.12927006271057548
0.1080815174958816
0.0997121231752674
0.1126877621604117
0.13312625652912977
0.19618177587342658
0.24116539050862343
0.24557878031912658
0.25963116647494816
0.21788970851935838
0.2217870967710386
0.29601158254998244
0.6753743720286508
0.9255146423828549
0.9395291255142053
0.9378160300572965
0.8312731579737009
0.3772110813049155
0.2418486638502915
0.16861153956451774
0.1652647014248421
0.1881666872777357
0.22693977115444847
0.2572559324634516
0.2611299521886751
0.22338573234676914
0.17580975198235574
0.1349483035878912
0.11542303431310076
0.12047381646961322
0.13659012204131216
0.15338408826397962
0.16057246968967628
0.1606771679083593
0.12061967514911705
0.08056218238987481
0.04050468963063257
0.0004471968713903318
0.05076969621615907
0.12700041755062658
0.1619220932297999
0.20386296216852265
0.23941075597043593
0.19953547112019857
0.17172829870202394
0.13493463233585395
0.11596480574347709
0.09936394917116922
0.07731620646791505
0.069867926352378
0.04687623168115358
0.038797991139064306
0.04313939994511378
0.057940244991934516
0.08368193786455422
0.11054857792872973
0.13352498696863066
0.15043024421612808
0.16367535460755256
0.17370900745839515
0.18704198614130615
0.19628407703109235
0.1941699031163237
0.18275797498149451
0.1575926155854513
0.1215637186699074
0.10450396363614493
0.10626323230012383
0.12758572625791406
0.20016663141708316
0.2472194569291876
0.2589193031411451
0.2783084207514381
0.23296044448158262
0.25269926069104304
0.36123591471728456
0.688458602055978
0.9563677298405372
0.9629584295660036
0.9595561756847942
0.8969549216097309
0.39011353526443604
0.25640195823865564
0.1652628459819498
0.15924990135403802
0.18476210419699185
0.2256591733346663
0.26214310771017096
0.266898396395315
0.21884750988769514
0.16770978614149226
0.12303197427137522
0.10281357264105004
0.11413077332599479
0.13784544003411758
0.16253831262748122
0.1756681902150085
0.178908929685494
0.1356112297090888
0.09231352973268359
0.049015829756278384
0.005718129779873182
0.06521058401513355
0.11185291380444047
0.13973064917677017
0.16412552265632724
0.19713530341121557
0.1996004181693206
0.1819842217677392
0.17444150092539867
0.14870868582018254
0.11819851365622573
0.0881325632920637
0.06505803836319106
0.0464539890495573
0.04388421888126451
0.05473085944318896
0.07683376561732304
0.10334715624312754
0.1264374314699158
0.14483679771986063
0.15768420891607832
0.16588770767701747
0.16915370874593463
0.16590060031787585
0.1531720887354323
0.13264581200821093
0.11163214040831672
0.10344836233622813
0.09674051127468596
0.09599098122880415
0.12270856821119686
0.14249609313126405
0.1956546024940872
0.2372481212434458
0.2311100889248202
0.2332473662598678
0.19152140523735478
0.15890149115284166
0.2521369869470521
0.6461949767372027
0.8752084769381846
0.9069760535341427
0.8981989016223552
0.7441987054681013
0.3665012226341322
0.23060709854926506
0.18407246756329315
0.17410423229669317
0.19444779092281173
0.22955259503600065
0.2512834968774647
0.2545870220586933
0.2295964608708816
0.18618579596130652
0.14952717271135785
0.13016460007220296
0.12741508960726453
0.13490898243205707
0.14298535965026787
0.1439504844273193
0.1409847856115764
0.10456512307446951
0.06814546053736262
0.031725798000255725
-0.004693864536851167
0.07027971671979605
0.11103540691072995
0.13719744742119971
0.1575698246134092
0.18941290420838694
0.2000810285014999
0.18401633879441834
0.18155117222432718
0.15463042544176056
0.12165094228276242
0.09028985024447815
0.06455393489396248
0.04725235336764753
0.04580547903595259
0.05787514853615313
0.08112705783894407
0.10731107895645431
0.12961843957383032
0.14706612788548282
0.15901617694940026
0.16619294469644816
0.16818280630173083
0.1624278154680004
0.1464321051970906
0.12350961145829192
0.10101169667603929
0.09611398861344526
0.09387091994071946
0.09518898955852748
0.1268336417817891
0.14662740599760452
0.19687647496108512
0.2373119754706439
0.22736755332697559
0.22384449273308019
0.18096018782524229
0.134677034924284
0.25306354334276576
0.6385957097069447
0.8569950907007862
0.8966425989363479
0.8800068600730259
0.7150717089030145
0.3651656583549555
0.2291652876514387
0.19277293187988298
0.1777168744472898
0.19727893840638552
0.2307737659484525
0.24908640564621778
0.2522749311372693
0.23198694247273255
0.19005799458641745
0.15485078062160815
0.13540909799023954
0.1297784118603017
0.134244122001549
0.13930539356589233
0.13819693167943717
0.1342618398217943
0.09911366809154463
0.06396549636129498
0.02881732463104532
-0.00633084709920434
0.09514269213093499
0.11767258914588234
0.13835785800240166
0.14254839272975858
0.16689329652119642
0.2043121076175805
0.19255234815541805
0.2070517470537161
0.17595590996978058
0.13411941821002235
0.09845965729981741
0.06393292466992072
0.05214134871570128
0.05516542357098649
0.07185149577624383
0.09860793931631584
0.12290502914571452
0.1420327972340159
0.15561110085671462
0.16383711894125583
0.1669846341295064
0.1642080995971442
0.15083037518181786
0.1248637405225356
0.09701551001678853
0.07075768794604849
0.07760451137192978
0.08884039248572186
0.09435898181053141
0.143658983640285
0.1657981771458103
0.20996928402029538
0.24839814169723434
0.2259917020305441
0.19628294386691453
0.14400132386552641
0.11806257929039518
0.34870794796071886
0.6532743354212388
0.8165099082629759
0.8649012071609566
0.7963969260442317
0.6315032691595818
0.37418044303398224
0.23745292711303573
0.23840215892722483
0.1935488757806067
0.21085318548385706
0.23692902354548429
0.2406639880669468
0.24372072771450012
0.24159504215709188
0.20517794753493837
0.1752279384762235
0.15495334835402866
0.13811233296026829
0.13138836595147158
0.12547623075507322
0.11714836669486317
0.11007441808971173
0.07961056078099375
0.049146703472275774
0.018682846163557795
-0.011781011145160183
0.050642977984543334
0.12781734968449282
0.1628281366973116
0.20529333534560376
0.24085158444228286
0.1995769624674196
0.1713718955243468
0.13353591086168476
0.11481165519290872
0.09871497178198527
0.07698030708417726
0.07008672097987437
0.047048434851133955
0.03879347979163486
0.042909421193824494
0.05743428103049812
0.08304543605925258
0.11003193322492451
0.13315333840804303
0.1501765366602369
0.1635820660573435
0.17384877822848638
0.1878594155338393
0.1980161582373481
0.19668432531471766
0.18562326218250239
0.1598702747180586
0.12267113919199059
0.10489685995719482
0.10587736861734727
0.12727129595764738
0.20055164933326725
0.2477009240396317
0.25982283211884033
0.27942692522586715
0.23370234163083262
0.2538933115852467
0.3654823649265871
0.6881766968558044
0.9580049697060934
0.9642823481911824
0.9607648484706557
0.9009661648593169
0.3910051208437403
0.2574754109069464
0.16531669630106788
0.15887370299159095
0.18459036132476592
0.22560384696250055
0.26249009844664156
0.26732773227822965
0.21855700864226615
0.16716234170867225
0.12219705327329232
0.10190392472529504
0.11365527819327038
0.13793066363433132
0.16321716651351328
0.17680553775453145
0.18029590561202752
0.1367571856951922
0.09321846577835691
0.0496797458615216
0.006141025944686296
0.05271501074301032
0.12099906366359856
0.15466655312769617
0.1921924028353649
0.22750048156038824
0.19926746095937253
0.17462152221967836
0.14635538177138985
0.1254001207365433
0.10472464959726836
0.08020464747872526
0.06819027724050761
0.04586979129966527
0.03927465440205397
0.045462121342629065
0.06248332260063957
0.08900933031385891
0.11486745826241189
0.13662378710728465
0.15250470452424994
0.16439839951252153
0.1725197761708719
0.1805751975425732
0.18274445364308367
0.17455620609845177
0.16026651455787894
0.13985794586685157
0.11304334588611308
0.1014647261072778
0.10988206350052566
0.13065163990972364
0.197446014387605
0.2434006319320703
0.25100820992233497
0.26772199061346846
0.22491498405314497
0.23725924390798586
0.32235325604380094
0.6838880033216219
0.9396870358371939
0.9499477357302076
0.9476764617985443
0.8594170889435447
0.38231132487280206
0.247423881351907
0.16629553351167747
0.1626905327486962
0.18658543780939263
0.2263189141624238
0.2592258504663021
0.26339878773096587
0.22147285956191134
0.17247620345668266
0.13012487367918396
0.11039379442997069
0.11799493614879877
0.13710849870149114
0.1569890856735541
0.1664642519106678
0.16775362969027413
0.12642300949479843
0.08509238929932272
0.04376176910384702
0.0024311489083713167
0.11669381035825231
0.1430283424003192
0.16170052163215903
0.15519852796053074
0.1708714997257569
0.21013165613140036
0.1995602539866271
0.22317462464437687
0.18952416708856235
0.14204384533242176
0.10394154706584352
0.06447564171437312
0.056774179502403814
0.06307045704168297
0.08294361301913597
0.11149346345621959
0.13410443339927902
0.1508322491752553
0.16148858745318753
0.16688280119181362
0.16717326429785703
0.16121366639432258
0.14432474397423461
0.11384016396510219
0.08660561840307372
0.06008976195867057
0.07341297073574032
0.09058522867013336
0.09553185749511425
0.15493017906995557
0.18150360589097536
0.22723910676936476
0.26747875594197174
0.2381622733383017
0.18941894653270389
0.12765259275453417
0.10923759645379214
0.4034327546689155
0.6555821340941261
0.7935843801283415
0.8473513052732097
0.7336782720032072
0.6006633992693438
0.390806257098782
0.25454782736126774
0.2783196337924051
0.20647382700990566
0.22292879758381717
0.24283570157172996
0.23511302834438852
0.23827627559788994
0.24851234362336902
0.2157177615025274
0.18912024985249806
0.16787114763152902
0.14318653564642272
0.1291045180788733
0.11611029400729116
0.10338210412770213
0.09460177329488888
0.06721605471830597
0.03983033614172306
0.012444617565140148
-0.014941101011442762
0.07185601525082158
0.11093959464640861
0.13661952591718118
0.15580689681923732