# vtk DataFile Version 3.0
vtk output
ASCII
DATASET POLYDATA
POINTS 5568 float
8.813167069748177 -0.10068982080863079 -19.76723798310208
8.803608531943466 0.09805317191592589 -18.773378112713182
8.67122901613486 0.18113817910419444 -17.96504479145683
8.438083904894603 0.25636116023576255 -17.203696976701067
8.11265426616017 0.3352076759476482 -16.493172028008782
7.670300589910095 0.42251424975954593 -15.84968779695772
7.119232970663219 0.5134442836280831 -15.24996362475762
6.50011212798036 0.6150877553952614 -14.72528107693462
5.8048046551744905 0.7287114612591401 -14.245707102968158
5.03848630440331 0.8585508334295863 -13.806834470730475
4.220770619412943 0.9947498230059815 -13.402446482298757
3.391477424711325 1.1194381757176937 -13.0390802609352
2.5657482056587346 1.2261526648636192 -12.691235147415963
1.7556044451375277 1.3126479493800705 -12.337677936862658
0.9681739937930662 1.3770857829338488 -11.959813704545079
0.20110231170310766 1.41709360018764 -11.53667071163054
-0.5334712850792809 1.4246946934800762 -11.054713576520644
-1.2162479247204263 1.3933118826050819 -10.509048188392311
-1.8334338287383456 1.3209133041438386 -9.892852263702887
-2.3648110255812806 1.2058634805962942 -9.204728425786168
-2.792888612959266 1.0485360629379614 -8.465376702901233
-3.1127108678628104 0.8497261072258611 -7.701367673936266
-3.3330716996580856 0.621355252169679 -6.933872151598357
-3.463465189817792 0.37690500667645344 -6.17059545814025
-3.514488326433259 0.1290556370235722 -5.422252104566449
-3.4967993758593297 -0.13059366889442608 -4.676425330140476
-3.42711935076506 -0.38295309817292106 -3.904023490779975
-3.334854217843834 -0.6210248612643319 -3.0990234111674893
-3.2513923503346174 -0.7614805168415832 -2.2859358512870136
-3.1722515529660282 -0.8008617600553772 -1.5040212993328548
-3.10099544467831 -0.6873174073762321 -0.8225874954180481
-3.0114338483418917 -0.5122364988130319 -0.2534605274096302
-2.930955854540884 -0.27454281259533553 0.3022750340279754
-2.8526614494820235 0.07013510616767576 0.836010487544111
-2.7879308213830916 0.5185339632297035 1.3629605670663212
-2.7499655265776504 1.0938401800399018 1.8540640113961742
-2.740221217309382 1.7343754946680026 2.32404158644942
-2.7663164036162216 2.321023098846741 2.778324683163765
-2.843313784408536 2.7530197902798954 3.2048448876853137
-2.9574210764578117 2.988117862685325 3.591747150939688
-3.082261806112147 3.064208342436662 3.900263504174334
-3.2030572908671977 3.017876860885317 4.21531215867004
-3.3583324817490046 2.7226288178755658 4.591208388797239
-3.4917614647601667 2.151621603203502 4.939240220761581
-3.566069640732175 1.3755208578441698 5.188803731253964
-3.5477733757217886 0.4783820899118868 5.3200033593134135
-3.4269802394225586 -0.45745815729275874 5.362745414720032
-3.181557621261186 -1.3174759271370196 5.380247432921913
-2.796932570295916 -2.1375608106875466 5.406332761986254
-2.243111431324131 -2.9056815489752923 5.478946205195513
-1.5068393229327948 -3.5797180909593767 5.651824392140554
-0.6147604346409665 -4.084787579946698 5.932227635265295
0.2841887238318894 -4.363053845226629 6.260949265647735
1.1575244005269072 -4.4584100710895616 6.662052337191765
2.0164048858406565 -4.413883844478181 7.089965834890201
2.843774979918227 -4.263285666830397 7.497587165036246
3.656621652617142 -4.03665659378905 7.872572511369087
4.467426194390683 -3.7403913368093957 8.197637714274686
5.281872554593853 -3.3727523384597413 8.458837489363818
6.08593298443176 -2.937834136470371 8.647041328231987
6.862613350348505 -2.4446280568843664 8.764054909806553
7.591770201705637 -1.9142944139984812 8.81399550875654
8.259803283581205 -1.3704809355626422 8.809920478814748
8.860876191973388 -0.8259018696369311 8.766846083872693
9.596812813377433 -0.12372229325069772 -19.346516910721572
9.490023236649384 0.2027855675160224 -18.313830369544032
9.22968263719603 0.36512986335511594 -17.430586806582113
8.819781336193842 0.5165947898708592 -16.602028270484784
8.28113600565489 0.6696882558219637 -15.852283903054838
7.5956959764683685 0.8384125529643899 -15.203736414427805
6.795697657144094 0.9955384679874917 -14.616109488229473
5.914230549852839 1.159732895473648 -14.132927742049667
4.98187558599522 1.3175857400753492 -13.713406797294487
4.001239995994991 1.483102147176986 -13.336973122130061
3.012058953745652 1.6406735319747572 -12.994629333762756
2.0641845838198174 1.7681576411555866 -12.691561711881441
1.1670875493325024 1.858050246620566 -12.386265674470787
0.31821171145376304 1.910632402987046 -12.051473598662417
-0.4857982130610391 1.9286357001759262 -11.665298811487206
-1.2614505677961296 1.919089317192112 -11.201926932923548
-1.9929953794390192 1.8726784903602023 -10.651264319822419
-2.6613376410813694 1.7831660183862532 -10.011116827720455
-3.2500372136400912 1.6474523536318006 -9.275991334037224
-3.735481805461717 1.4622802422642973 -8.44524626744894
-4.096437041925259 1.2261695441914116 -7.5486299525926785
-4.3273078810565275 0.9380371422583149 -6.625736728075366
-4.441556227777012 0.6137359315898272 -5.712569660102114
-4.455046445434527 0.2729552608326591 -4.8255818688466015
-4.387004995104681 -0.06469800437253176 -3.9827243990174614
-4.253409518239095 -0.4108686046984112 -3.1669144999463534
-4.079048295697623 -0.7334312107289169 -2.3421865243213356
-3.905734443801775 -1.0212133192703243 -1.4969626418520048
-3.775141217589426 -1.1622738067818073 -0.6582115718978138
-3.673391141533255 -1.1614455946379962 0.13833463167229687
-3.596787362922264 -0.9575826859704186 0.8209131723282455
-3.50310063014284 -0.6736891468731033 1.3734940447948878
-3.4185539327402896 -0.30753443616744475 1.9079724427750566
-3.3344005338538376 0.18999698464678128 2.414938907541543
-3.259618605646928 0.812598702609312 2.9119584206586344
-3.205468785478236 1.5740003284144404 3.3676458381405077
-3.178316510499223 2.362682207461198 3.8055432037440506
-3.1969516508433533 3.0296220475154625 4.245727792249172
-3.2717204341285635 3.4212497549531613 4.6665223337743225
-3.404080520373369 3.5661904250375804 5.092349176664634
-3.5743294505357186 3.522263700158309 5.474359261107056
-3.763801504361662 3.294904776199877 5.889967001579526
-4.017617270305957 2.6702233218647797 6.384744900961584
-4.238930519842281 1.6496970959086663 6.805332009006964
-4.330190941080667 0.4719723806956553 7.017386395255473
-4.253425290120853 -0.6733980176208294 7.05315161142295
-4.063632090162089 -1.7725019993406081 6.995975385824616
-3.7292101415677923 -2.676648201585593 6.955922188189626
-3.235570506769758 -3.516885850575259 6.949698456445531
-2.5439679580940755 -4.2936400042318414 7.01195902236944
-1.6360383512501033 -4.952926422548556 7.213189590949812
-0.5565120456730148 -5.4100197719492105 7.55322252848166
0.48380197605416986 -5.610803846302024 7.926004370762632
1.4650385395743617 -5.6124234605068795 8.363728765307533
2.413500552055776 -5.471599364682001 8.811508550333226
3.3116625648093896 -5.228483316804379 9.218988323654617
4.176212630837045 -4.917986825713462 9.575463309548741
5.022073663474971 -4.547212118591348 9.869303369224266
5.856416349004146 -4.116198990615465 10.09504934129705
6.668695742036771 -3.625401996770342 10.253466305078407
7.443811161913856 -3.0825864476164226 10.350924469580864
8.164493403775245 -2.509470873858641 10.39340545029839
8.818101960334037 -1.9317479276264453 10.394241793229805
9.402028967296662 -1.3621306791407428 10.369063791469195
8.197309213890332 -0.08258887505783358 -20.0978776626472
8.260345029307656 0.023227325191548576 -19.11990051731394
8.217498728718583 0.05086744566061625 -18.355845468814547
8.103561084690867 0.07423816934747006 -17.628322338304805
7.917731432738543 0.10363079995053884 -16.927589759878494
7.628368567075585 0.1379670692610604 -16.269275012972663
7.233573028124166 0.18620874399327628 -15.649199572969179
6.776006965176226 0.24838404402578126 -15.086110313905165
6.229974965279938 0.33390454587064256 -14.558507574164267
5.602611909621411 0.44063353708823844 -14.072950274169756
4.900052890785914 0.562693703201256 -13.622501595019079
4.1526869199587795 0.6860083498436529 -13.213309665457196
3.378039324861986 0.8057066178688211 -12.83237956239604
2.5961625548827647 0.918385501178066 -12.463783555469332
1.8200528248926306 1.0189138023411055 -12.091626425582302
1.0573831776458196 1.097067378213962 -11.698153840356388
0.31680258790665794 1.1457896886518941 -11.266026213384663
-0.3819154081520316 1.1577783242163673 -10.7871509347876
-1.0261467280183334 1.131354112406215 -10.252611148614646
-1.596704296768523 1.0655802590209331 -9.659542796464107
-2.0774588402209915 0.9620192115261985 -9.022320866247291
-2.4632040670472635 0.8228804622280605 -8.359302178616144
-2.7597768542068164 0.6580241382885178 -7.6829564828910195
-2.972941996946195 0.47741658817586097 -6.996098176118302
-3.1083023625035153 0.2896765923921101 -6.305055356909772
-3.1729232063331354 0.08871023656567201 -5.600695555901627
-3.178568470192096 -0.11484640799746482 -4.8598008539448045
-3.1458255707879585 -0.3172297635157618 -4.080915370228437
-3.098141226398181 -0.4574339388498745 -3.286165441021229
-3.036313787264368 -0.5280071211717109 -2.5138285666523315
-2.968413208080867 -0.48302130822395895 -1.825848177557564
-2.880111052822562 -0.38830052852496866 -1.231662977772224
-2.800555736434594 -0.24176021073709683 -0.6448197150717697
-2.7243784517291108 0.0004544059631578501 -0.07661422889507519
-2.66529344435912 0.3353541986805094 0.48387446646772636
-2.637999605142512 0.790012511973845 1.0068381611677673
-2.6405165994378406 1.3304446356177677 1.503125028391607
-2.672187172107231 1.8593249957628233 1.9689907553997763
-2.7510337316196747 2.324695627008572 2.4002908630205715
-2.8540088511692794 2.6400486082252916 2.7679954299515717
-2.9566171614506738 2.807385844036814 3.0490452897700866
-3.044109114756639 2.866204156353676 3.3241476370287337
-3.145750053680229 2.7446461380796627 3.6306075594076606
-3.228392763563224 2.4270349613224607 3.9231165128933965
-3.2910070881453946 1.897286856974862 4.185646564719345
[...]
CELL_DATA 87
SCALARS quad_param_group int 1
LOOKUP_TABLE default
3
1
1
1
2
1
3
1
3
3
2
3
2
0
2
0
0
3
2
3
1
1
3
0
1
0
2
1
3
1
1
3
1
3
3
2
2
2
1
0
0
1
3
1
3
2
2
3
1
3
2
1
1
1
3
0
0
0
3
3
0
0
0
2
3
1
1
1
1
2
3
3
0
0
3
1
3
1
2
2
2
2
2
0
0
3
3
SCALARS single_component_feature float 1
LOOKUP_TABLE default
-0.1890375538705515
-0.283742360799949
-0.1146101741404529
-0.12388794546976802
0.25868950099877935
0.31327496702483143
-0.2706745973424567
-0.02450280540245799
0.16748094955507598
0.08024734345786487
0.16111294560416375
0.24182273266509763
0.2900608881188037
-0.04709384738409606
0.1889449936230493
0.20749527228459805
0.13754362824906424
-0.006105637492836234
0.23711515553271117
-0.19186425096434853
-0.3064069820924813
0.15225865672285252
0.07924415418334722
-0.19920718393125797
-0.22013500588996796
0.1411069199509699
0.06824011633339355
-0.3846149135587625
-0.2848010996243348
-0.048160599174882815
-0.12497052188505461
-0.05511230800117496
0.002159840395578691
-0.016619521686875693
0.0213086194645946
0.24005480779972488
0.33921852189222956
0.08187762697463709
0.07111988104948266
-0.4235135308622019
-0.479837731278159
-0.1228119850279886
-0.08413496452851671
-0.3517518435242056
-0.2917800284079267
0.0896367798036101
-0.0608536671540591
-0.02548192985430124
-0.030099364090984
-0.05367253325959741
0.0331516803957117
0.0705674833795013
0.10632429185624032
-0.07121181102787293
-0.042747412843226765
-0.07424519867015793
-0.23891103142902403
-0.08841939537751053
-0.37645026508828056
-0.390650000368
0.4538716739546303
0.5017637551510039
0.35048961984000115
0.32312661775466345
0.05237370525653544
0.0400466486270527
-0.13731319790285756
-0.2502181319286747
-0.07797322398803355
0.16370735314209475
-0.06657638050528283
0.009756180248542523
0.326602616284114
0.195813140365452
0.016054707578236134
0.12046819881293203
-0.023655576175152668
-0.05964532867472897
0.061540810400060264
0.12041571175816754
0.19430820716826808
0.07059347913037739
0.26875135959071544
-0.33079831288671646
-0.10224659316809434
0.03547735385509003
0.061327850499413084
POINT_DATA 5568
SCALARS single_curvature float 1
LOOKUP_TABLE default
0.1511211439733995
0.2038649963747437
0.1790597705650241
0.17414366643826032
0.15971808379621058
0.12829092777987872
0.10359504708951764
0.0788019747584394
0.05762486604924573
0.042306208375796475
0.03897772042079298
0.04390239348555599
0.061468825809179464
0.08403199443404938
0.10548389545670117
0.1260514129835917
0.1423272370269794
0.15310812844360072
0.15616480088380663
0.15176811582705818
0.14283239139993195
0.13026821937874478
0.11287884391866207
0.08936720779329596
0.09336196214445792
0.10544154891090991
0.1712957470334593
0.22542814637107425
0.23231637301573185
0.253141439998898
0.21301465203460718
0.19642166618425072
0.17899924060676367
0.13728470548473598
0.16652088237119933
0.2964024732898881
0.5314068071233848
0.6820903535139574
0.7249623186230917
0.6790697179375396
0.5231247025809999
0.3536210400052018
0.24254253814342408
0.19317915392050045
0.17291311348673433
0.17154015889896151
0.18538215328742333
0.19384331385566453
0.20713298910143144
0.21209157600873882
0.19994115939993168
0.1790455979428913
0.14701222855045337
0.1195898883560225
0.10835365706131682
0.10524383999694582
0.10857021022233157
0.11032776106275974
0.10761440377249099
0.10246755360471055
0.07478977663930976
0.04711199967390897
0.019434222708508184
-0.008243554256892605
0.15510595713217692
0.2010977374886924
0.16363919307831992
0.15023160360386364
0.1262897953541699
0.09193493569632695
0.07069000714006984
0.047713158799656624
0.03958264808410815
0.04398302949918148
0.0592366870588278
0.07682175471366406
0.09680984000974534
0.11301954929483045
0.12509633241220067
0.1362467139824754
0.14278915980093365
0.14519440125199295
0.14177641260486484
0.1331211349523076
0.12186199963351135
0.10799470375398008
0.09065715678912484
0.0740917918020183
0.09824000615583078
0.13161420523315467
0.22497413431631996
0.2927767322464147
0.2893520918917097
0.28902438823287396
0.21717508682322695
0.16916024850774258
0.13578877187614113
0.11364061675977133
0.22852488511799482
0.4454171334867862
0.6327257682321307
0.693305243288727
0.6467936701543191
0.4900003911983016
0.2949174581831812
0.20599606820878677
0.1695904890507095
0.17662670133797606
0.1751477111900897
0.17499915885195727
0.1923390031327067
0.184342905998854
0.18847743245693682
0.18906662338199953
0.17386048739371388
0.1559254996086568
0.1290397455890849
0.1060538551585833
0.09801935753090003
0.09512732654435124
0.09705446525018807
0.09681195901353251
0.09312375186113321
0.08729404078456804
0.06310294123979703
0.03891184169502601
0.014720742150254998
-0.009470357394516016
0.12916805575452836
0.1818497209280801
0.17432400536077927
0.17963629440646547
0.18130759366868415
0.16090514628695524
0.13556880626750734
0.1148982764806724
0.08948443922671093
0.061900999897244645
0.04143243963700412
0.03323011350147162
0.03887705032522678
0.05874124006662988
0.08518346490106142
0.11102320197717358
0.13352449503125877
0.15039256651647437
0.15949382855948488
0.1607130371541204
0.156497730063411
0.14784924023741455
0.13318934880131222
0.10973699493556642
0.09836625205662797
0.09350660105111808
0.131080922493164
0.1639989330038262
0.17412027108067996
0.20595592548412356
0.19321178639610076
0.2065058407597693
0.2094487312946021
0.16646775786673096
0.15240314277199526
0.18136782197874843
0.33189200350477566
0.558358774003288
0.7278556296677656
0.7721715713779568
0.7237026808141628
0.5843622031050516
0.3668796872958363
0.22686013779975445
0.1806875964003903
0.1727160974150693
0.17964789850453197
0.19775979345843794
0.21921491931430867
0.22897060025724944
0.22136382762108492
0.19909956885467284
0.1629078704873207
0.13204448201325136
0.11780664833016975
0.11419386510691609
0.11841905057839469
0.12177957805130726
0.11988509446854004
0.11534190853055605
0.08469281759943317
0.054043726668310296
0.02339463573718742
-0.007254455193935458
0.13284371799131467
0.18586224870959372
0.175861775439073
0.17979755695701016
0.17911420339237846
0.15688480015629336
0.13143585122712817
0.10993912671015797
0.08488692357303733
0.05807046225210188
0.0397249091760462
0.03324375742246136
0.04066960072227647
0.0618090874707222
0.08786566073756231
0.113207089530133
0.1350502063723217
0.1512316316029258
0.15956660720182175
0.15998899963017754
0.15503881795422225
0.14574796171045665
0.13059457506128716
0.10686018556077721
0.09726350360194644
0.09443235246137506
0.1357013517232123
0.17158330845727504
0.18158182899443173
0.21244514290296776
0.1963680314353435
0.2059438974953688
0.2060612791443927
0.16198791402433416
0.15146972170680853
0.19278978446237394
0.35999357258642767
0.5817611360993974
0.7299313350065333
0.7622789429223842
0.7008638449224153
0.5506536801264728
0.3461233473370561
0.22096629255531725
0.17891160757583938
0.1722168927109208
0.18026205971280448
0.1974686041025589
0.21788269400614255
0.22697572899359367
0.21869097219111974
0.196531137744557
0.16085693828246567
0.13041296202137911
0.11656974909568218
0.11303600449433526
0.11716058877030754
0.12032164581031357
0.1183240736188268
0.11370662110145535
0.0834365333096543
0.05316644551785324
0.022896357726052183
-0.007373730065748874
0.05750909493833127
0.07485980094341596
0.07504592859321804
0.08197630743003675
0.12422946782503806
0.1668263428592585
0.20271258875696319
0.24735000194294057
0.26053613076798554
0.25304412878516774
0.22128825534471197
0.19043325846557047
0.14635136610197072
0.10638041581742295
0.0750437862994099
0.05440075866263363
0.05047127668965763
0.06003479297780394
0.0797468554061374
0.10439341954846161
0.13136945757373453
0.15558195062874727
0.1778271725581679
0.20016947667896215
0.22490596117595324
0.22932345998255432
0.2106586979723922
0.16270051712431646
0.09906684167013571
0.06833796010981977
0.06247696730968002
0.11171351904655911
0.20854478091466508
0.30914649512603726
0.3805789636720786
0.37868061121839997
0.30257282099501037
0.20196347861547248
0.16392255809000342
0.23363651227008791
0.5517724408301337
0.6924581016356169
0.7239392069796678
0.6994040553811115
0.4686594570867345
0.28315445857155797
0.19454783607711446
0.17340914311890587
0.22069977424612638
0.2597285703783054
0.2906572457892118
0.28647609612235225
0.2378464144550914
0.19873955427200798
0.16985784780527602
0.16194664980236947
0.16886651599532315
0.1804498601268625
0.18329299837872284
0.18101139395702853
0.13480000574937248
0.08858861754171643
0.04237722933406038
-0.003834158873595672
0.06484345278480574
0.07956259864791114
0.0664948494570368
0.07050588740486825
0.10760869960579983
0.14799961635422368
0.19066369159518268
0.24241348461459858
0.26820265681551975
0.2721522564758049
0.2452028994016389
0.21512106114443416
0.16692924976323598
0.12161906733170331
0.08435063893447887
0.056511541023806566
0.04661267831589791
0.05162862940578047
0.06869676885738756
0.09236075319926518
0.11955798019041101
0.14478397326446024
0.17030429811561867
0.2006059297341281
0.24035488175323746
0.25395652263355356
0.2372232946604722
0.1838767952330453
0.10647493660720506
0.06442361914510843
0.05217224977214173
0.09502071611948062
0.1933126349664398
0.3157002436153615
0.3966787661060321
0.39618909621494475
0.3181752268399245
0.19483142488074365
0.12687970431998177
0.15498002017580487
0.435306123299022
0.6212818321609723
0.6777790532870452
0.6819974432573724
0.5026460574089919
0.3005668667825948
0.20020746238543605
0.16820806031384547
0.21480251059629563
0.25559544304548615
0.2898946781789758
0.2907358693625336
0.2430554668771952
0.20496338016487156
0.17540757316815028
0.1673855626240431
0.17489691173100066
0.18788471470540877
0.19166389472707604
0.1896770337872341
0.14140342305631343
0.09312981232539275
0.04485620159447207
-0.0034174091364486125
0.1558877864297978
0.2030891318357971
0.16678405288200537
0.15419313121017755
0.13087313792888494
0.09635258919176433
0.0745628952431905
0.05096632932324421
0.04086474830770154
0.042787703084040854
0.05575323419594302
0.0719288247343917
0.09212865551983507
0.10936767718878633
0.12287203464666971
0.13542639853901872
0.14334937870713907
0.14687461086062314
0.144226747436131
0.13596914989360598
0.12482212203720604
0.1109362540369936
0.09340768241288455
0.07560799724117187
0.09705212877464507
0.1276059105828441
0.217917685294152
0.2847745709352405
0.28312199712755237
0.285969236817236
0.21801525969090543
0.17355173096443377
0.1416327894971952
0.11636913364209688
0.2179483360180795
0.42783448889219566
0.6268163318583571
0.6965185591728869
0.6618512289726519
0.519367454919986
0.3202520421187285
0.21949350029723871
0.17662045543711416
0.17804161860211998
0.17453113253599706
0.17443571060396215
0.1915551073191924
0.18589884112435076
0.1911849408835613
0.19226640505167789
0.17732347732289236
0.15893092844884893
0.13135297306590574
0.10776193779623858
0.09932904933351126
0.09643250395074011
0.09856482098187364
0.09859134654081533
0.0950291729467444
0.08927800474090461
0.06462952698101922
0.039981049221133824
0.015332571461248432
-0.009315906298636961
0.08320563892823722
0.12835392071438115
0.14753582363656342
0.1659083250658584
0.1920193026299148
0.19399135298686235
0.1743266558354083
0.16611748351084432
0.13902775413413496
0.10723668876625214
0.07733155239932864
0.05443108417443132
0.0416335405141439
0.044796307380883214
0.06123348857736973
0.08683989371556293
0.11316796914487025
0.13498168645210884
0.15106552727316017
0.1608535539826556
0.16552192246541167
0.16512281406302726
0.15746396440475327
0.13983788150011423
0.11749245496525262
0.09722360903941989
0.09975223620100575
0.10360352760566273
0.10846376724468344
0.14160866615784562
0.15637043838472578
0.20113372290064654
0.23366006980357412
0.2153735221654463
0.20543288451932373
0.1581310654075621
0.14455026084429107
0.29545346203754974
0.67371451545378
0.8530835431160502
0.8810009754051388
0.8522851040292734
0.6468660667062728
0.32374772833724563
0.21451605017472375
0.18479988099631725
0.1766228729238262
0.1975350874179559
0.2289301238184463
0.24593744068210496
0.24649829105928306
0.22450588775634459
0.18344367222051852
0.1487871012346659
0.1305058214890981
0.12591180340888908
0.13094846234846527
0.13623150086844504
0.13534879460620752
0.13148133414104893
0.09706322448623877
0.06264511483142862
0.02822700517661847
-0.0061911044781916835
0.03600518953508228
0.05956566768650455
0.08983762973541075
0.10562216834958472
0.1539879123746964
0.19427592138270508
0.21284747411619853
0.2424678002795682
0.2357202005307495
0.21251727322410358
0.1770416284785156
0.14652533308679197
0.10922771031090169
0.07909769302859089
0.060247007368767376
0.05411049045560001
0.06256989487139819
0.08019566812822994
0.10252305889863025
0.12624313295583303
0.14976077573656982
0.16922369480135854
0.18327089556133846
0.19118720868767358
0.19339040078723782
0.1834177255930527
0.16090313005146265
0.12417622235997856
0.08392467807732182
0.074970836338134
0.08450528190631537
0.1434534908530911
0.22933685130303597
0.29140762465548875
0.34221010297218835
0.3353593215314607
0.26882025929141923
0.21419647879504658
0.27210810697411997
0.4918013199138483
0.7501944369444947
0.8092579096323773
0.7926085510061678
0.676012502541718
0.3829519055127456
0.2483552110247724
0.1859017496165309
0.18266279169945107
0.22843157145284781
0.2620811810870974
0.2847523736755169
0.2725757870384771
0.22433701260919803
0.18497696771074856
0.158505137231527
0.15134275176332662
0.15755191214373265
0.1669749928166708
0.168451989877765
0.16570668043794434
0.12315472680504837
0.08060277317215239
0.03805081953925643
-0.004501134093639558
0.026137817052002785
0.05846199307541356
0.10582067208985738
0.13316044421931003
0.17899431860907483
0.2070067253056524
0.20569383847032066
0.21817525957560593
0.19738450825486364
0.16604432079233797
0.13169523988625428
0.10303947112321857
0.07330598030625582
0.05628721787081815
0.05261686203797497
0.062318024137177255
0.0830962042228825
0.10547997151053104
0.12691915165414197
0.1460264780713385
0.1623010553152445
0.17365839031971678
0.17770646023256603
0.17240543628794203
0.15789496307291212
0.13763637047549293
0.11530743863235135
0.09285387615315677
0.07525500002504092
0.08901067688114286
0.11268902887881799
0.17422199702624133
0.2397695832025021
0.26405473484849556
0.2891535548369717
0.27009879968475586
0.21225509123870814
0.2220036487243288
0.46405146746073445
0.7937425248920391
0.8844772728388608
0.8952160362232412
0.8281777703734049
0.5363969693677183
0.29399171407012015
0.21507789159433774
0.17975709803772438
0.19106813192343686
0.23200701366536144
0.25844118442580194
0.27106248355850887
0.2528870818113466
0.20708037000781818
0.1690991843196762
0.1460485665665482
0.14001458317188106
0.14571460720216264
0.1532220588919292
0.15356811294361736
0.15035800553454542
0.11147127644929851
0.0725845473640516
0.03369781827880468
-0.005188910806442237
0.0341279387636336
0.05822882142917976
0.09084535493295742
0.10748583418753678
0.15602989667268338
0.19578073365172066
0.2129356768139626
0.2413793437090483
0.23338669472187903
0.2093316720199779
0.1738001411086849
0.14337379694073693
0.10655930017537753
0.07723076008964902
0.05939056814524071
0.05436799624964053
0.06376769309650143
0.08188972596358393
0.10427249780659063
0.12778183878009738
0.1508957870098933
0.1698750398991148
0.18324227855535952
0.19014707623839996
0.19093984694887137
0.18005996450153622
0.15729949770665191
0.12146613085754425
0.08286796688480466
0.07554858108681761
0.08630187494322233
0.14576299003023532
0.230470046150683
0.2897903599236823
0.33891236567645167
0.3315066567352778
0.26582363650189106
0.21497547184547916
0.2829521134741173
0.5161731800991733
0.7627418729177752
0.8169546953202304
0.7967630540540146
0.6701412014219187
0.3762647355495987
0.2458317822892174
0.18537160558259505
0.18331461600267637
0.22884240495826724
0.2620187939068292
0.2840070523268385
0.2713226419411181
0.2231991530774975
0.18388856134471548
0.15763598114097563
0.15054620585774467
0.15671493287560523
0.16599424996955658
0.16738373550047375
0.16460594216460805
0.12231731654795565
0.08002869093130324
0.03774006531465085
-0.00454856030200157
0.054407899136319035
0.07271505908583127
0.0777799653680744
0.08591781623841506
0.12964427817688537
0.17247704283785298
0.20568130070052146
0.24782282164997202
0.25713468138888396
0.24633239465667564
0.21346888376687656
0.18253051713210217
0.13970642899328947
0.10141312421382563
0.07211464520414577
0.053926846123761064
0.052082617921664194
0.06315997663530956
0.08357390583139356
0.10832088670379865
0.1349722484490813
0.1586104877105838
0.1795847857614498
0.19932240577016788
0.21961255463358265
0.2212334788940072
0.2018949468689043
0.15580958891023222
0.09645920667938888
0.06949626519923283
0.06606843352105841
0.11728296066306927
0.21292055711357205
0.3065596399922639
0.37464354605006767
0.37213756176057394
0.2972439367000937
0.2042620255291721
0.17860853575576058
0.2676496381031129
0.5896008654334632
0.7146079187282282
0.7376878287067361
0.7015399582207789
0.45504961304780245
0.27710097127014394
0.19283273631139955
0.17507773445836666
0.22235138960095674
0.26060449140598135
0.29024632816570956
0.28451935433100983
0.2357772213417358
0.19648628641071117
0.16793639919240794
0.16011564303363804
0.1668811818320033
0.17804886293833427
0.1806219030957171
0.17825320375868045
0.13270036464315105
0.08714752552762164
0.04159468641209224
-0.003958152703437162
0.062209545579755214
0.07796879081416526
0.07006082917950711
0.07514991543971218
0.11448255222033345
0.1560422497552626
0.19618363809868491
0.24509298911652627
0.2655370792527722
0.2645163286530732
0.23530565051842764
0.2047993367352185
0.15836155607947935
0.11531868713794156
0.08046349652534633
0.05554577428733448
0.04803724834701348
0.05490603725071173
0.07314740091430463
0.09733857007037615
0.12458472307876674
0.14952815696079044
0.1738129905748204
0.2008322996055512
0.234094348825761
0.2437806950779556
0.22627194993572924
0.17508590935307475
0.10352398846938023
0.06612663555346886
0.056318697152104955
0.10185693979013423
0.199957196168128
0.31323507193341454
0.390383218258792
0.3893825250041327
0.31180670402398686
0.19779089647993242
0.14095760699527787
0.18343481695850572
0.48317957321406213
0.6513217020677796
0.6976281918677579
0.6909444553387621
0.4901672953806564
0.29362188153910185
0.1977989906136205
0.1703839107150121
0.217409031523127
0.25759198338136624
0.29060452734598
0.28931713306557205
0.24112459069830047
0.20252407234653985
0.17317835865324036
0.16516791052932558
0.17240945942399571
0.18478846848763572
0.1881576110925544
0.1860424747889203
0.13863226823438082
0.09122206167984134
0.04381185512530186
-0.0035983514292376173
0.09601564600033768
0.14364637692910565
0.15590330858281212
0.17120743243475772
0.19128726946536928
0.18713253176262362
0.16515756374854276
0.1531422628619398
0.12605889678355292
0.09503979228510022
0.0662408026885135
0.04622669268640907
0.038079433842225244
0.045721638353856425
0.0662815316245011
0.09320324563439326
0.11909019697943396
0.1399997039584593
0.15446391376467553
0.16202697264236038
0.16423045891471977
0.16146961504791763
0.1517041412875543
0.13214495596054898
0.1110814020515718
0.09361189319549607
0.10446549714279525
0.11534636061896342
0.12287669915715375
0.1572758284039874
0.16627625288866005
0.20427852362334634
0.22920339668577
0.20303745025919917
0.1869922792632156
0.14588515486106507
0.1672717434591035
0.3528439354481333
0.6948333551515727
0.8377536338168633
0.854549403000767
0.805714596971607
0.5692175397017593
0.29158720657163817
0.202992494403612
0.18046312241163207
0.1768291990768384
0.19810594915115104
0.22708373184472455
0.24215204516873315
0.24041302476499082
0.2181118009041832
0.1782304321416976
0.14446507098572176
0.12722380455154877
0.12290827474248582
0.12776800726934165
0.13257153409148698
0.13143303122501532
0.12740530363719366
0.09394395015900854
0.060482596680823425
0.02702124320263831
-0.0064401102755468065
0.04205022230510097
0.06390123777763261
0.0863980668736602
0.09954190732022643
0.1469978954857296
0.18869959148554416
0.21189516116283758
0.24536871068591998
0.24300459840618485
0.2229434627560089