# vtk DataFile Version 3.0
vtk output
ASCII
DATASET POLYDATA
POINTS 5568 float
7.246175853467476 -0.17157871475396339 -20.772511512893583
7.424554611974994 -0.20583056688422524 -19.74047044101186
7.498934372887299 -0.2770228894984448 -19.01770573582282
7.541416827734741 -0.34942165075108333 -18.296990164233623
7.534274961286079 -0.4134717206406186 -17.56201566291495
7.441983585792196 -0.470808422030437 -16.822982394359727
7.243201323637151 -0.4912045320406614 -16.129096817090577
6.983761953578442 -0.4849703295941753 -15.485980534215688
6.639479497656846 -0.4391539809622698 -14.88424657657357
6.220127975734371 -0.3666322707617052 -14.335309075195998
5.714954751972476 -0.26926268078282345 -13.818837151748028
5.127705153569836 -0.15133621553531318 -13.33708034902796
4.4757542384726925 -0.014574406996564676 -12.898609207063869
3.7827847416356457 0.1378217942210831 -12.492965669187319
3.05985189975521 0.2968113811627985 -12.108268498922433
2.327363953281583 0.4368587985926483 -11.735499874996107
1.585017744673013 0.5534345519771873 -11.353238080542416
0.856640530800972 0.637769584787694 -10.949938241054523
0.1603144090207257 0.6887126329461091 -10.514625534350095
-0.4829022936921542 0.7056802483038845 -10.039498200411032
-1.0533848123084948 0.692429355161966 -9.53090220607574
-1.544084717533555 0.6532633081503939 -8.996056803824434
-1.957418323995232 0.5961016793718481 -8.438593054163412
-2.298989445677753 0.525320229919597 -7.852012848536723
-2.5687791155689785 0.44497458897462416 -7.236548901250365
-2.768852679520313 0.3534851306333175 -6.5868497330048354
-2.903528716008932 0.252561947558208 -5.894346970389662
-2.9785927921325266 0.14338977876763692 -5.1645228880340825
-3.0025007425801844 0.042090635290458395 -4.406260802485457
-2.9823695104043173 -0.04137456301270692 -3.641896892326902
-2.93172054193601 -0.07810073047156046 -2.9044279958673593
-2.8547334950851666 -0.0907130236984225 -2.2047720659355967
-2.7795644352426807 -0.06642327889131738 -1.512604963131814
-2.709217967955988 0.03172411591611435 -0.8325873576749917
-2.660899912178954 0.2127837234993437 -0.16874211644628856
-2.6519327822014995 0.5078798748009083 0.44792696285898825
-2.6741476738681333 0.9142081914675 1.0124342645910775
-2.7186270230782825 1.3730561992803512 1.5185457423447528
-2.803513955760604 1.9026285481872391 1.968485679758908
-2.8926466281335848 2.395702642955374 2.3190591627499835
-2.9717847406302575 2.7794642836796464 2.597053173163087
-3.0223902582017286 3.0438895683289706 2.885104933232104
-3.074110860545785 3.108699772789062 3.1683820021404974
-3.1057491833564774 3.030099743391604 3.4148654294004657
-3.170400524092063 2.7311958430312764 3.7247594949463556
-3.289981107791558 2.0844132255418146 4.022595636885903
-3.311413706480317 1.3083511771086807 4.219165628351399
-3.229265187386733 0.4549135679786007 4.328440368347531
-3.0271012507604786 -0.39547569127239335 4.402927314033403
-2.6881176511485085 -1.2032799533243548 4.4877141581035325
-2.2069068117279587 -1.9458242709857978 4.615960912884429
-1.5901478407083935 -2.553588916760587 4.80951289614717
-0.9027839813011458 -2.9803226545392647 5.078198432530764
-0.18969418230264223 -3.2484756735967855 5.4344994407717735
0.5370920203716336 -3.3770012802654206 5.855703324354206
1.2591188755717697 -3.391788251541735 6.294175409755015
2.0004743179278375 -3.3191943688220227 6.731187128624251
2.771281496973102 -3.1645675213038467 7.135711425167186
3.5746848099489963 -2.922309889803264 7.475967899049067
4.391788532321554 -2.5999302292809503 7.726339385747682
5.196350413990488 -2.209917631862677 7.880676584671172
5.962987296230223 -1.7710903266006541 7.9415018222479326
6.678255768088694 -1.3016910558121528 7.922493524520273
7.330901251177049 -0.812742420803326 7.839199566149482
7.251302864700719 0.044071885014259876 -20.46713968219961
7.424345427948962 0.011728619605286171 -19.53052609229981
7.519581288587045 -0.023908768467077665 -18.80814027760823
7.584039617827 -0.05723868412345919 -18.101828754902325
7.607920186104193 -0.08121613885914966 -17.37122968034198
7.530793175315319 -0.11044111373663475 -16.642745256204744
7.337885449736372 -0.11187666256341565 -15.95570385863564
7.079742949149049 -0.0984894991078954 -15.284741762218587
6.7007155825328795 -0.04458820853535826 -14.642777857842395
6.214716662596512 0.038435960537664474 -14.0601899684857
5.61623852682043 0.1494740191570761 -13.528997789403029
4.932040943139206 0.2769137667169447 -13.048590926958989
4.181868307778857 0.4193530552239365 -12.621199811406752
3.3964228019547753 0.572195867203995 -12.239912100669931
2.6004703800994147 0.7255948600314106 -11.892099671382972
1.8158421896673718 0.8588885002397528 -11.56009228463092
1.0459967066775195 0.9658599348116368 -11.216738830689879
0.308124852585832 1.0373166664516507 -10.845355890329927
-0.3920540267480457 1.0708165275056443 -10.429984692614784
-1.0365093257284952 1.0652725088275767 -9.964422449464937
-1.6114954838331021 1.022647735940034 -9.45246106644938
-2.109211350571373 0.9469776224543569 -8.902539099720842
-2.528882595979095 0.8461250561104059 -8.317253840297218
-2.8664856878333422 0.7280436238403823 -7.699282390751225
-3.121174918118761 0.5970232674058036 -7.052462193259945
-3.2951495397352364 0.4489843014163454 -6.37349690846288
-3.394521859523066 0.28135652376368514 -5.647004770226501
-3.430642782808252 0.09137693939439662 -4.88027727421688
-3.4205863964815406 -0.08280735484870722 -4.099209806781364
-3.3716211166959176 -0.23108503371894182 -3.339818642804021
-3.2966635107420386 -0.31285547134204417 -2.649030944304304
-3.197230080673308 -0.35983138083924204 -2.0277405377826727
-3.109918025323746 -0.36807123607799236 -1.3848632109063446
-3.0271951966671677 -0.27563142254625533 -0.7513340538067961
-2.968857454472075 -0.09312801497554729 -0.1270417425494329
-2.9523840334321716 0.21146302578617632 0.4434730081871844
-2.9706594893464024 0.6234694838093721 0.97163385688314
-3.006932396006861 1.0627823509802239 1.4403136586819083
-3.0862532148472757 1.5742135854720511 1.8702456793358195
-3.17328506225346 2.020646929059412 2.219304557944093
-3.250819671462361 2.3508984939975788 2.489566081643217
-3.310187936109079 2.5768411200242345 2.76110931325645
-3.3666423452995846 2.6356184639795583 3.0209577126715543
-3.4023221265212853 2.561917505537321 3.2478224508611446
-3.439657545031539 2.3302040839578124 3.4884111459247062
-3.467367441575164 1.8798299072546465 3.7338716725109773
-3.430509742229886 1.2695443715541719 3.940109349093208
-3.337237299495077 0.5113175701027086 4.074996693681219
-3.1503378763048575 -0.2561273575898261 4.170884063691257
-2.843282558051116 -1.001161671343143 4.2707956111724785
-2.402744346321127 -1.6998050772243967 4.399466165300736
-1.821766584726336 -2.287888229830223 4.580161256456445
-1.1580744768276001 -2.697485714021237 4.832505768612087
-0.4654501571494353 -2.9528088566452415 5.1681024163972875
0.2389088655119006 -3.0745259650407553 5.55006769854885
0.9453983303669714 -3.0867837815827817 5.944807455399491
1.6686831747229838 -3.0087296231093013 6.342925224077506
2.4170373213948726 -2.8431056291452776 6.720189788491954
3.1918299247832227 -2.584264881113625 7.046917580193772
3.971158038286612 -2.244890193077376 7.292153753969726
4.740624844390504 -1.835146654270611 7.449083264196161
5.476203103139408 -1.3757724529555297 7.517110176819446
6.1631139178322165 -0.8871982458757217 7.5077421632218035
6.790052962729735 -0.38200645558283985 7.432367057768268
7.240043274019864 -0.42952518216744645 -21.137776367523056
7.424458447122772 -0.4661064774267701 -19.985340763645286
7.47407708563721 -0.5803376169638652 -19.259102745961435
7.48970668307385 -0.7011460090866458 -18.517393727011573
7.444830244063054 -0.8142699950087312 -17.772665442892936
7.3338055372194235 -0.9061125324820103 -17.019283358073558
7.127733637567101 -0.9495209253965673 -16.316521187267696
6.866897780555216 -0.9515123605904564 -15.705651849445271
6.562005854740148 -0.9147530687505242 -15.150171710760063
6.215779406493098 -0.8537739175573161 -14.639167561513656
5.810347288887325 -0.7709993367596814 -14.138126349888056
5.326637133493744 -0.663085535509848 -13.653730043165796
4.779626476259365 -0.5321264186234488 -13.202061127862384
4.185249596043036 -0.3795005472205437 -12.767665612495197
3.540309993488819 -0.21312133109579656 -12.338609568759065
2.8637696327154605 -0.06436907309243656 -11.916236383329483
2.151013379684552 0.06414161251042169 -11.486007877209033
1.4325270314574166 0.1642586010838917 -11.04316613783748
0.7400319662717887 0.23637707453948695 -10.583194259567716
0.09756572505114813 0.28050144119318776 -10.095987906216013
-0.468638190358168 0.3020933736017558 -9.590435165969064
-0.952507830316214 0.3054102337324567 -9.071702778581816
-1.3601073203753167 0.2980793525546125 -8.544048116961081
-1.7079860911039115 0.28108414151003575 -7.990375852508296
-1.9970255999375583 0.2583544604620669 -7.406555081791502
-2.2291034955525895 0.23113598392909038 -6.78429657734926
-2.405742495174384 0.20516678189854315 -6.122170569204421
-2.526022636453082 0.18593520426356033 -5.42345437420233
-2.5893849094923254 0.16748072851999993 -4.682441004856685
-2.603601487107208 0.16079746133366477 -3.9036290831818583
-2.5838124897785884 0.18155132375083438 -3.102572414081504
-2.537316869501266 0.2154307243376068 -2.2981959221032713
-2.477871060236576 0.2818730834506521 -1.542065191971627
-2.4236106498769487 0.387155210608153 -0.8036756117985773
-2.388073321935808 0.5661764191929854 -0.09034391234685901
-2.3886565411555 0.849332338485445 0.5853799224782991
-2.4158103500368076 1.248945586760957 1.1957863163887192
-2.4706951796432812 1.7318165509089112 1.7487181756528198
-2.5624495144416457 2.2835214543784574 2.2232006477758075
-2.654255327652817 2.8363941993369104 2.575614282825759
-2.7353085241310477 3.290691735387451 2.863147609436259
-2.774157623715459 3.6058328660964296 3.1726278639305336
-2.8195408621698466 3.6783235919289368 3.4856366387343574
-2.8458229707536877 3.593592282533396 3.75688429378111
[...]
CELL_DATA 87
SCALARS quad_param_group int 1
LOOKUP_TABLE default
3
1
1
1
2
1
3
1
3
3
2
3
2
0
2
0
0
3
2
3
1
1
3
0
1
0
2
1
3
1
1
3
1
3
3
2
2
2
1
0
0
1
3
1
3
2
2
3
1
3
2
1
1
1
3
0
0
0
3
3
0
0
0
2
3
1
1
1
1
2
3
3
0
0
3
1
3
1
2
2
2
2
2
0
0
3
3
SCALARS single_component_feature float 1
LOOKUP_TABLE default
-0.036682170446069626
0.031008272003056156
-0.11764883840884767
-0.17668686061917532
0.006268593327820232
0.004119245064340832
-0.045540469588787214
-0.0394696937244789
-0.0326889939671724
-0.02540975526272344
0.07738606307701033
-0.15796890570166758
-0.01782098544085066
0.1668702275032043
0.00391670450608092
-0.15302923294252457
-0.2143289197231224
-0.11372519487323643
0.014135780683916337
-0.08602134012263107
0.09846637092858573
0.0491130010757869
-0.054899829983861045
0.025624575161984083
0.08624667736576964
-0.3159088195167599
-0.4157959026384838
-0.13118668779059828
0.04321968551424063
-0.06242453952641552
-0.10171188908013916
-0.0561830598661642
-0.056647374087895844
-0.010007713382719746
-0.0351741858643599
-0.07249591307808409
0.0384739923189676
0.11650253045462383
0.15047022099883536
0.19047685557002292
0.1874195293158275
-0.16515301623522505
-0.16512877505381873
-0.015817383108133826
-0.07979007490959625
0.14679563862776313
0.16977485786834773
-0.10701485491603613
-0.03894440521779664
-0.011331879462056271
-0.026596275390060986
-0.040685872991670355
-0.041727396334040254
-0.11959910346845373
-0.06766503328842463
0.46012044808197267
0.11387039253712501
0.15125406387341744
0.09148679740582759
0.07032414978066023
0.16494470849279574
0.20222743397697399
0.10734938966446339
0.08663888793750824
-0.08052947284425513
0.0002775815993420541
-0.03380598863753467
-0.024741317889510804
0.017709447420880417
0.11993344957935724
-0.07145220711615935
-0.0460771243302916
0.138495081105125
-0.053223627824345476
-0.091614369018751
-0.027299896320599086
0.06677739328972865
0.0029238115835144574
0.07872264278836157
0.0853878512400687
0.20319137219791486
0.04177723031978395
0.11176289775367475
0.11813362209233093
0.10880755379874578
-0.1682268906032025
-0.1425227872890253
POINT_DATA 5568
SCALARS single_curvature float 1
LOOKUP_TABLE default
0.08434946576069509
0.12173772984652052
0.13299887504359859
0.1588806970948674
0.18765409075741257
0.19884498972374773
0.1823171922028294
0.1749321142186795
0.15156176056249468
0.12160128128476935
0.09308114947012193
0.06809923845320719
0.04828393292511316
0.043905022287549555
0.052409678223278196
0.07167555144878929
0.09662165941438795
0.12035652197884525
0.14009017974763743
0.15359693796450435
0.16188655613638003
0.16436345832095797
0.15983833017791998
0.14697531352548646
0.12752750394081186
0.10687294163892978
0.09671379156384693
0.0874126227813559
0.08385401905853807
0.10286452984081831
0.12296205304720502
0.17172221535364418
0.21517096435203342
0.21908641337908574
0.22229165988496688
0.1958725284216226
0.1470468653377018
0.2543235680099381
0.6451120278327795
0.8550693886953168
0.887889214530066
0.8696368588773429
0.6856272720358056
0.3238975268207819
0.22114178562342776
0.1934708347429425
0.1798677007009996
0.19742412379786825
0.2275912580744776
0.24504167969645752
0.24779617656257535
0.22549116484876028
0.18468405267447807
0.14972628172879585
0.13068391915202762
0.1264430982774712
0.13322027394907246
0.13987464217956147
0.13939151000428565
0.1355417046842897
0.10017493919728519
0.06480817371028069
0.02944140822327619
-0.005925357263728309
0.0583420905746213
0.10489998352155265
0.14204449880484118
0.16013271009904426
0.19490390355967088
0.20060656548427044
0.18356755943543396
0.1825418309018362
0.15348694667891913
0.11960873982899388
0.08712219061954393
0.062063573037379416
0.046559409322138916
0.04719950808430042
0.06165692284442589
0.08764087499098426
0.1146107011179702
0.13580641185517783
0.1515209205373822
0.1623495517968025
0.16889559372270346
0.17092752453544902
0.16516335941961816
0.1481311745160989
0.12363653585453971
0.10040007417939124
0.09890890466131773
0.10134115811064837
0.10669738300227752
0.1476486705437426
0.16716457810790214
0.21949284218323883
0.2569198183437314
0.23603713865091203
0.22933700672462123
0.1734520540773858
0.13659257820811696
0.25190711444170294
0.636136195326876
0.866637378956277
0.9095545112061613
0.8983308657450946
0.7552328554800608
0.4098695101817849
0.23746960593995342
0.1882011326988743
0.17561348284571152
0.1957360651327952
0.23296820424394277
0.25373163854500025
0.2573358357688398
0.23657156487562622
0.1929728860323479
0.15702770644193473
0.13739744322503142
0.1319205030033404
0.13569052724560252
0.1405640749580065
0.13970244537633736
0.13609323788509095
0.10058380327167128
0.06507436865825161
0.029564934044831945
-0.005944500568587724
0.1235593487972993
0.1520204107872833
0.12400353377166005
0.16218120105966802
0.1824489345308154
0.19483052094177164
0.17462377461255627
0.15704725812646445
0.14239094257491983
0.12068051655277079
0.10129904197942946
0.07711543997201532
0.054494831227947654
0.04532997224000494
0.04633193945300888
0.05686763647898633
0.07633350562387217
0.10109261630580876
0.12422597571470563
0.13964801891588027
0.14905341866872981
0.15133534804152052
0.14784541572738782
0.14082783445741112
0.12925886151597182
0.11276602386698745
0.09568040327326006
0.07623650095152046
0.06635963580459069
0.0636553426729575
0.08364613040462247
0.12602478098782358
0.17134055071590282
0.1999014062391365
0.21386721159589137
0.21874516876730984
0.16333099407963236
0.2611320380873233
0.6527450693368801
0.8406189092081551
0.8657023865182863
0.8394395098237865
0.6140219538082022
0.2598271752816066
0.20536638243079167
0.1980141986627986
0.1882367135829283
0.19867687110477225
0.22152282294876216
0.23572902476025173
0.23750257983184747
0.213270448110065
0.1755557281795765
0.14246636410280694
0.1246839851588481
0.12192306496535094
0.13163783770372628
0.13930687639546704
0.13847094722801018
0.1341802732255588
0.09915369335788084
0.06412711349020286
0.02910053362252489
-0.005926046245153083
0.15406355793114015
0.1780406054587689
0.11919031628547455
0.16844059456785557
0.1820461782375789
0.19084269902504788
0.16494684678156157
0.13804877030336274
0.13070074906773166
0.11769358315757511
0.10803878708218202
0.08485125894202357
0.06180970682273449
0.050854775495865624
0.04624302764016465
0.05005270453705189
0.0636386022098341
0.08698593455646772
0.11163426736819664
0.12760368496539262
0.13713698019251708
0.13880873188954743
0.13579329866553336
0.13340294646279452
0.128499375158342
0.11580110883309372
0.09705498046631544
0.07308844472470175
0.060650606347935225
0.04475214469210346
0.06285667659577354
0.09930722496480095
0.14343443261199065
0.18684404833041365
0.20790492939425403
0.23096150502108187
0.17573876337494623
0.26654345501118804
0.6557599698106531
0.829962061726529
0.8505167757944971
0.8192917793086042
0.5684564946914964
0.22781708091638986
0.19523946413571142
0.19868547768674177
0.19325514355667262
0.19887612247548775
0.21723561019204865
0.22951315223005175
0.23060421649642593
0.2049713127638479
0.16936347981638786
0.13801522098312102
0.12147745163333917
0.11975566928589115
0.13118651265198858
0.13894354200354905
0.13742178370522284
0.1327470765825236
0.09807133746079719
0.06339559833907077
0.02871985921734435
-0.0059558799043820665
0.06659405528303045
0.1096609029506884
0.13859973644980153
0.1592804457478907
0.19198517679740787
0.20009327798489654
0.18358529632500944
0.18045838315139456
0.1533139262929754
0.12059832436438155
0.08921084324890491
0.06411735630482521
0.0468999207136376
0.045644152964112256
0.057960587663576695
0.08155498119625658
0.10799675057881773
0.13025338061993616
0.14755777919385707
0.15947693428580537
0.1667415696240049
0.1690004234560602
0.16372712355278382
0.14813351012871356
0.12530993223210404
0.10293089201395328
0.09804548311236366
0.09584389471280869
0.09753956160965871
0.13003131890640823
0.14974889898240207
0.20099414064894175
0.2411091222454084
0.22976532586496412
0.22677975214650595
0.18145890538921858
0.13948220063654124
0.25182878083663496
0.639391816860422
0.8624725026210716
0.9011398750796373
0.8873753043394234
0.7285748407323085
0.37354774010550895
0.23090585625725799
0.1899705470211607
0.1764286681509652
0.19638891613709805
0.23095758259575958
0.25044350488156397
0.2537356906773567
0.23242171572434797
0.18986706637983533
0.1542164295886859
0.13474951970308313
0.1297204283363557
0.1346494384554391
0.1402794060807165
0.13963645239919018
0.13595646279574736
0.10048316731728776
0.06500987183882817
0.029536576360368577
-0.005936719118091016
0.06739579648547764
0.11016628172864093
0.13830779336720317
0.15922751326550688
0.1917458771606697
0.20004252953914112
0.1835627507735408
0.18024119271900552
0.1532716136194076
0.12067078219221943
0.08939697460827865
0.06430382715858764
0.04694331715914902
0.04552562895609966
0.057654218894685694
0.08103740818267798
0.10742335595204126
0.1297655109490411
0.14720157074663703
0.15920948036563337
0.16653223691006572
0.16880734911400694
0.16357471652550976
0.14811081317180144
0.12544186401093413
0.10314181800492225
0.09797237823528646
0.09538716976464195
0.09678634950478326
0.12856774617265687
0.1483047884859674
0.19944311660550385
0.23976572143166744
0.22922418150714663
0.22655624329753993
0.18218667069120267
0.13980780404340964
0.25189826934852455
0.6396895435374361
0.8621073361058754
0.9004393572744555
0.8864516386319213
0.7263309418021701
0.3706958970626842
0.23037802075090058
0.19014192428643523
0.17655016020344233
0.19644455633060084
0.2307856904442651
0.2501642849568301
0.2534293949553335
0.23206681016082017
0.18960153262299767
0.1539801726708608
0.13453026613050023
0.12954037341963628
0.13456678938338015
0.14025662986524898
0.13962814980488952
0.13594100894450536
0.1004717419251168
0.06500247490572825
0.029533207886339688
-0.005936059133048871
0.08836204217373546
0.12464957112297419
0.13190792243670976
0.15897493051545525
0.18688389066477126
0.19851813772366023
0.1818265687269891
0.17346605130603804
0.15094845722853062
0.12168552503561138
0.09392034875258519
0.0689890281539605
0.04872194918089245
0.04373515670335216
0.05143833338158047
0.06978376931348518
0.09430798233338702
0.11828048564334775
0.1384615549346632
0.15224648963177223
0.16071089261131058
0.16320467218605875
0.15881650519567325
0.1465516466746402
0.1278737356050339
0.10761477403985852
0.09648670304241766
0.08586861380711727
0.08140184543243353
0.09781201647501439
0.11797199560557291
0.16613512734801625
0.21005686306945948
0.2169229275363684
0.22136363691515729
0.19870585571970006
0.14876391019036886
0.25500405398706777
0.6461699624910991
0.8535150455012683
0.8853209852577545
0.866147574541443
0.6772288885126552
0.31529799526580377
0.2192814447818116
0.19414826018117534
0.18075361316756539
0.19761124993125723
0.22691241087829175
0.24397112921215325
0.24661595033072672
0.22410248393121526
0.18364609230930232
0.1488585492956072
0.12992563139763577
0.12584799474793976
0.13298087721873242
0.13980261197345395
0.13932012898120652
0.135428898056676
0.10009074118777624
0.06475258431887648
0.02941442744997673
-0.005923729418923024
0.08560197062483264
0.1226410261893689
0.1326530791725053
0.1589036684385129
0.18740698352620638
0.1987449410791017
0.18217171173348687
0.17448329889536737
0.15137852533305088
0.12163250108904244
0.09334367352949638
0.06837666818112702
0.048415626979072555
0.043843829816765906
0.052096839187659755
0.07107406556514127
0.0958920024871474
0.11970438187843051
0.1395808271510788
0.15317695042359997
0.1615229446960455
0.16400619243677622
0.15952481025776
0.14684878404552854
0.12764059060919605
0.10710898833975865
0.09664011168625207
0.08691912159853186
0.08306835718333888
0.10125420202216887
0.12137243806273858
0.1699476331320986
0.21355305979895448
0.21840405718840206
0.22199961282401193
0.19677162167407672
0.14758416325001847
0.2545344829461626
0.6454507133702181
0.8545812451794681
0.887075967255949
0.8685331847423221
0.6829685119256896
0.32113928189903657
0.22055194864284386
0.19368740041535262
0.18014264489311976
0.19748415991152454
0.22737714708393533
0.2447032912829182
0.247423221228153
0.2250527277746418
0.18435632598933638
0.14945114800658696
0.13044243297699287
0.12625296280761913
0.13314300087465628
0.13985161303448101
0.13936982184194516
0.1355071953434823
0.10014919376163392
0.06479119217978555
0.02943319059793717
-0.005924810983911205
0.08257250233847903
0.1204654332251957
0.13349815985870486
0.15885839834272356
0.18801555557099378
0.19898392038636054
0.18251152692625497
0.17555521274890237
0.15180883356197433
0.12154909920323244
0.09270754972368653
0.06770591291838911
0.04810490993535604
0.04400473871330754
0.052868978751254334
0.07254673615113323
0.09766925578478637
0.12128882327598507
0.14081474739141012
0.15419056572351608
0.16239723354778482
0.16486338766987874
0.16027455755587583
0.1471456812751715
0.1273589018564136
0.10653061839603235
0.0968226818031763
0.0881315778589196
0.08500178758422462
0.1052039909071124
0.12527036605590053
0.17429076240047064
0.21750244450985468
0.22006633561929795
0.22271000557564974
0.19457324851541544
0.14628283815799167
0.25402747150302996
0.6446179367539692
0.8557670704596253
0.8890627486004379
0.8712271900018047
0.6894618859439124
0.3279355160451616
0.22199420917643167
0.1931557959538273
0.17948104389220926
0.19733634607760037
0.22789879419140005
0.2455288817131114
0.24833297968731372
0.2261215732783481
0.18515530801981608
0.1501237716173182
0.1310344842295719
0.1267201122570283
0.13333411961154057
0.1399082389732916
0.13942134201078926
0.1355895504218557
0.1002106150681065
0.0648316797143573
0.029452744360608102
-0.005926190993141095
0.07938923018231595
0.11821516828750853
0.13442000727449463
0.15884963513636488
0.18869681654612067
0.19922422192299755
0.1828238065370206
0.1766316626595757
0.15221319830414198
0.12143164142177751
0.09203393375463578
0.06700127752026813
0.04780703121588273
0.044221919722886416
0.05373890423089868
0.07416257855671393
0.0995854434542392
0.1229823557706157
0.1421199622132305
0.15524824471941345
0.1632970964909742
0.16573862818433288
0.16103054389973914
0.14742319466153916
0.12703159022806013
0.10589388576239586
0.09703061510390402
0.08947788152037003
0.08716115434398178
0.1095674400990977
0.12957327288846257
0.17905340695737432
0.22179449822246902
0.2218598676374792
0.22347241188360492
0.1921732699348871
0.14491055432914451
0.25350955178975887
0.6436916414944863
0.8570339863019456
0.8912293283542663
0.8741552085686672
0.6965318292734061
0.3355710099604983
0.22357226335173513
0.19256928208097734
0.1788018198919533
0.1971711994668854
0.22846199711836584
0.24642459097463693
0.24931934795942884
0.22727792400571167
0.18601982595690333
0.15085864531229898
0.1316877084595898
0.12723932101464822
0.13355135200370846
0.13997141187665307
0.13947198200114205
0.13567192702643519
0.10027198158181257
0.06487203613718995
0.02947209069256733
-0.005927854752055289
0.05025267545543489
0.10368229238622818
0.14891424971229322
0.16291088864733919
0.20117109819580606
0.20132314443843882
0.1823519896789663
0.1845724555862595
0.15241895417042323
0.11705976379568157
0.08345193832264265
0.05864031208809472
0.04652257474034901
0.05083469554846618
0.06920901518474691
0.09946902849221934
0.1270046020562301
0.14587903773716962
0.15826007391879968
0.16671577114828331
0.17168420662639608
0.17310216557434077
0.1663200400216469
0.1468664290373237
0.11976618018989059
0.09516191090439347
0.1004949632485026
0.11272049915371221
0.12610758881849832
0.18436760253684292
0.20374692609490716
0.2572809999908455
0.28829296079366873
0.24795690108228938
0.23401070562388632
0.16526383015703705
0.14065226892656563
0.26153451467978583
0.6340121918752173
0.8742775995291057
0.9274368616715075
0.9209060069537862
0.8104085864230572
0.5008400850169116
0.25484251676484715
0.18725513080142464
0.1780521113709922
0.19458424735736934
0.2369389874847911
0.2603059670238163
0.2644892678887744
0.2446925777058534
0.19905623187334331
0.1627751408422743
0.14299598738749533
0.13670461307713216
0.13811235783770653
0.14122650094873465
0.13968257372457868
0.13614157597818607
0.10061693986820508
0.06509230375822408
0.02956766764824309
-0.005956968461737905
0.1443343557101068
0.1695114065531705
0.12052203542235167
0.1660669105463154
0.18176760327275668
0.19210877076398863
0.1682561622694835
0.1444937575000684
0.13479902555483717
0.11882038065747745
0.10584041852867322
0.08230614169502731
0.05928884457693195
0.04870024700090525
0.045865498288281584
0.05183139910942156
0.06739704325441458
0.09142549919414233
0.11568101236901483
0.13154903403416454
0.14110410418606292
0.14300983220799166
0.13986780502311078
0.13599520803196719
0.12892312967318978
0.11495816882378398
0.09637469786186979
0.07355559143820364
0.06180936422330721
0.04985350160632007
0.06879607628973862
0.10724940022594329
0.15190006586718544
0.19089265366455396
0.20977202645578436
0.22748040131364095
0.17184000477871617
0.26486951760481886
0.6550453815814222
0.8333593354523448
0.8552946096333253
0.8255486756700252
0.5823466232276965
0.23699768521114878
0.1983450514060195
0.19870477463286043
0.1918342465925045
0.1988798005667411
0.2185856333831141
0.23143818736762817
0.23274265602960675
0.20755091983814586
0.17128770373066682
0.1393586063060687
0.1224004412276403
0.12035455319701228
0.1312785598806288
0.13906024945455137
0.13778849727638484
0.13323928505098387
0.09844365133901822
0.06364801762705258
0.028852383915086932
-0.0059432497968787135
0.0761550938444425
0.11597100769261376
0.13539678054987256
0.15888388832728073
0.18943721530761265
0.1994576121807322
0.18309293300671256
0.17767356839688878
0.15257276642484605
0.12127900493276937
0.09134176326749971
0.0662835664746204
0.04753416770804021
0.04449484928417986
0.05468854984630231
0.07588303096669857
0.10159097327225071
0.12473929860979702
0.14345888069476764
0.15631697755171015
0.16419229080767198
0.16660123412976455
0.16176454194634918
0.14766699727388222
0.1266630125054094
0.1052125580224919
0.09725908272187803
0.0909293063383699
0.08950357384245756
0.11425196594767822
0.13419080414588283
0.18412950016008559
0.22632696706699754
0.22373926496908353
0.22426666605636625
0.1896342500679781
0.14351552749874982
0.2530074776372462
0.6426941804611374
0.8583479410791719
0.8935283478072272
0.8772491278061099
0.7040147109577758
0.3439316921225808
0.22525395246121407
0.19194588125425366
0.17813638380526675
0.1969924633076111
0.22905292262634092
0.24736907754445078
0.25035865318877104
0.22849344585313044
0.1869287226923364
0.15163911026103444
0.1323884415021557
0.1278004874420936
0.13379143946134997
0.14004008671802823
0.13951964379061937
0.1357511019189981
0.10033088492126382
0.06491066792352954
0.029490450925795247
-0.005929766071939041
0.057046562534655995
0.12458551218986214
0.16378071913036513
0.17250387981112839
0.21614607974147695
0.20265259825960888
0.17720016414061399
0.18306456101266208
0.1464861088583727
0.11021503755556297
0.07709347079492311
0.05330176309761041
0.04750514012575821
0.059100330940953294
0.0847653999666873
0.12257893625304317
0.1504446517461731
0.16391489112477636
0.1687297238487895
0.17153946919786375
0.17277244573654732
0.17242679387972143
0.1634889565215292
0.140392792568975
0.11000864102444755
0.08356857088325204
0.10243722372740628
0.137873214487698
0.17059312409469876
0.26770086730404213
0.28861264640309287
0.3406350754159032
0.35518150822575206
0.27105910946670536
0.24217871821644152
0.18539472921991185
0.19547846730272803
0.32756680954571904
0.6515858403946007
0.8886328179656982
0.969893128206858
0.9721428981518216
0.9367512387605538
0.7976395019869283
0.3637142902212501
0.21445412473401643
0.2031455598351392
0.19443329818504845
0.24585161396596167
0.2749325084339432
0.2801052879141598
0.26180810660004344
0.2119023491703938
0.17579156287129769
0.15622395153342208
0.14853009719245414
0.14467105934450056
0.14309779641224415
0.13914695116323805
0.13543995313836238
0.1000935643774891
0.06474717561661583
0.02940078685574256
-0.005945601905130715
0.06747193392548143
0.11021455268731799
0.13828034385057786
0.15922270094122118
0.19172344634218919
0.20003769119054685