# vtk DataFile Version 3.0
vtk output
ASCII
DATASET POLYDATA
POINTS 5568 float
7.167562198613323 0.8547552235780425 -21.652707585622537
7.411092695147849 0.783632693275053 -20.37002794542661
7.441225294382502 0.7010813070354618 -19.65555596512112
7.413195073108997 0.6190589791414925 -18.95778411957344
7.319487935462246 0.5430944838829623 -18.258760995092636
7.1493746007080565 0.47189886160839756 -17.529612355695374
6.869435590087835 0.4470286080220909 -16.860481978020555
6.535916090812646 0.43881307079511456 -16.222842085638987
6.112937333671456 0.46423805090531006 -15.676548657350242
5.627297363570219 0.4983608955048423 -15.17519693103776
5.082324544798142 0.5375594644338479 -14.677400661206287
4.479725651560433 0.5742032858135641 -14.213278013560663
3.828501335998779 0.6104235069347288 -13.769484921432513
3.1404295807173757 0.6477266949148481 -13.33834395202558
2.4339226682812223 0.6819350478902074 -12.91817294228951
1.7155973088452758 0.6967948429499692 -12.500281242912811
0.9914536999501079 0.6944645050588611 -12.065402952505679
0.2889187560941583 0.6715129676413681 -11.609309576345895
-0.3831236900256195 0.6296016723359871 -11.117472308698604
-0.9986598353384836 0.5702452761934476 -10.584357073480053
-1.5336670580003597 0.49922623806212346 -10.02463921203609
-1.9776866125253871 0.4215482448230741 -9.447472503925963
-2.336353935338709 0.3448207965590331 -8.838949758497119
-2.6032724328739345 0.273526009632698 -8.20431224590463
-2.784008512304321 0.20903666813516739 -7.557627105321731
-2.8934099257110772 0.14261447185677967 -6.895147124307036
-2.937517184491045 0.05501092087601869 -6.203530331828952
-2.922892153662746 -0.06028111915552882 -5.497242541980699
-2.8579111863035274 -0.1848428628126312 -4.7700147624178495
-2.75690225966105 -0.311202697756009 -4.04213735258546
-2.6266675153409604 -0.4321824370270344 -3.321967292813799
-2.4920432408071957 -0.506549064614737 -2.6397573294705947
-2.3678324595707974 -0.5364875797644115 -1.9214321308907412
-2.2689617872363277 -0.502504317720495 -1.1671871550293766
-2.228948104271332 -0.3659845592548071 -0.39316345424722376
-2.253122463461122 -0.10407139264479565 0.2946100963241135
-2.311431134240203 0.24636968832766948 0.8741843390047754
-2.3850151741925676 0.6217144077329494 1.404140540710964
-2.5182300072238752 1.1113345113067956 1.906992515571672
-2.658639377227008 1.6118451098842976 2.327818649340845
-2.779858153133843 2.0304015360962304 2.6874998210056726
-2.873277941593797 2.3104470545715543 3.027536347378894
-2.9345971937291995 2.428786157686682 3.3203391984910926
-2.958631934574844 2.422623234798377 3.5588150426716387
-2.9705412321035545 2.295169846983815 3.8432145619773697
-3.029955302864299 1.880310393680786 4.186350365813747
-3.0158745492746064 1.371422814625301 4.470137579457793
-2.924782801277136 0.7129579784746696 4.674178101270628
-2.7498563591114857 0.04656420762552527 4.826138925598546
-2.42720673086001 -0.6186607514961866 4.973139489129038
-1.9649046644733579 -1.2269839330249597 5.129483593357488
-1.393764273943535 -1.686598841156623 5.320872077928607
-0.7908788369400355 -1.9659788227413857 5.5718115782103
-0.17159347030514882 -2.1331500448323433 5.861828841841891
0.47580626656219505 -2.1998728181638536 6.2045868096592205
1.1608465390509743 -2.178999468302093 6.59199049540564
1.8764247460187398 -2.0694498456453916 6.998171488651348
2.614776116403547 -1.8722235013482516 7.3860091560880425
3.377871142262914 -1.5811842574975805 7.718193061089819
4.141181262874829 -1.2178467724725945 7.956356567342606
4.889999593394719 -0.7962673626832828 8.091354569020696
5.6154862151857605 -0.3273253763445101 8.115564010980703
6.299107616636988 0.16727872444807718 8.032095832253354
6.924280109227916 0.6743181441124688 7.853802076835879
7.251209150637038 -0.07991167346253827 -20.578057354607097
7.424999662668794 -0.1121946669488498 -19.60612410176705
7.512207162504696 -0.1632461243752601 -18.883556430375968
7.568952095212348 -0.21349096182586189 -18.17043687863708
7.5815680451887335 -0.25482088576078654 -17.43709234088609
7.499892632047713 -0.2960579717592662 -16.703678508544915
7.306600711942318 -0.30574564464661796 -16.012843769810097
7.049857309369472 -0.2951627790674729 -15.354062483421139
6.688567857947179 -0.24431046486201596 -14.728368500079254
6.234537046419708 -0.16493564294966015 -14.15945893953355
5.6796450922461155 -0.05846806241628315 -13.634376025393056
5.039972396720728 0.06696935374107398 -13.152846059499023
4.33437027904846 0.20971159417899832 -12.72054238286511
3.5907157725548653 0.3656152262552688 -12.328961341016122
2.827295962123693 0.5250339218508501 -11.965632151802732
2.0657078084260236 0.664832615335748 -11.616713741348272
1.307585461891221 0.7793645231382039 -11.257550228299488
0.5731173555001913 0.8594840839202376 -10.87347840413748
-0.12611650143527497 0.9032471106866319 -10.450789261721772
-0.7708273547154462 0.9097535292221046 -9.982548057447591
-1.3447619575535374 0.881770580681656 -9.47351339165334
-1.8405702832441044 0.823469984068283 -8.93157667125885
-2.2588347245550917 0.7427754274823037 -8.360299234677932
-2.6002096860462234 0.6459598954018215 -7.7579087852534325
-2.864071235538619 0.5372645987048206 -7.126274343106972
-3.0521906014795492 0.4139469273487616 -6.46121391038903
-3.169901659547465 0.2760552485536747 -5.750621661637745
-3.226084995355928 0.1228493092924253 -5.0007210893169125
-3.2337842362769558 -0.017858120853680298 -4.2297394860281825
-3.1999301677156913 -0.13604736333667133 -3.4678456764492447
-3.137766996382215 -0.1958529656687064 -2.7565002436076824
-3.0495177686537684 -0.22640720385118024 -2.100993340102826
-2.968787493675238 -0.21906954222079705 -1.4374094839000198
-2.8921749010933575 -0.12246349111123182 -0.785408587264757
-2.8380023776511676 0.06056024684958465 -0.14657268374055787
-2.823936806242755 0.3618930678690256 0.4422717467456845
-2.8429389121208892 0.7729974893191003 0.9859903553273094
-2.8819891200301075 1.2233503803056287 1.4705194201307412
-2.9624622312132107 1.7439648602741513 1.9079112832624379
-3.049076838440171 2.210529500689728 2.25580330481647
-3.1262568675026143 2.5629984122996854 2.527363735052678
-3.1807551983245856 2.8051653852291367 2.804714464883183
-3.2349361740514375 2.8652047416489164 3.074623555441195
-3.269129684757323 2.787223921429507 3.310538641414571
-3.319511500372913 2.5213771239796845 3.5816966207501433
-3.3860343195887865 1.9827326514779267 3.8482868664117644
-3.3743778691371458 1.2945009285538331 4.048173324044462
-3.2860939215838667 0.4892840289460788 4.169306929457043
-3.0917389737215712 -0.3196544686931603 4.253706688530511
-2.7702952156263496 -1.0962694917466 4.345294774563589
-2.311424762599211 -1.8180890900525615 4.4730013015475
-1.7134001034214055 -2.419240848184935 4.65939528043083
-1.036759703296396 -2.840799574073895 4.919436723208429
-0.3323835245205726 -3.1047607689772674 5.266069405548042
0.38409218409632573 -3.2312665893500814 5.667455273502741
1.0983967561387948 -3.245641901082028 6.082749499569449
1.8303169261286762 -3.171010777220539 6.498757957979505
2.589442585217788 -3.0113939879465543 6.888453492952549
3.377920327351297 -2.761199960920447 7.221346595368604
4.175292133600312 -2.430447703974239 7.469165700387617
4.961661713229345 -2.0303196096255967 7.625479318755077
5.711975280235694 -1.5809016646100502 7.691345648927192
6.4122208272290635 -1.1015211899849726 7.679512477373299
7.0513008457976944 -0.6039689188354488 7.603251453783341
7.275965958937547 -0.3565430226634649 -20.259995439430504
7.431324426529315 -0.3790386827152699 -19.371654875392903
7.535729232674155 -0.42074824723941995 -18.645578176811235
7.618137880263363 -0.46159071506299876 -17.925674599352
7.663149073061477 -0.49257425786318315 -17.178561555268328
7.607189215986029 -0.525140358013656 -16.44172229449227
7.438846304906895 -0.5303836339694096 -15.742413954359067
7.2039917585102415 -0.5142602245033889 -15.075806320868338
6.860371951858915 -0.45545439973257995 -14.423709563522541
6.415035452793366 -0.362075127502774 -13.832930540835584
5.856437155690913 -0.23498212951923006 -13.29888688337339
5.204201218195929 -0.08191064232819567 -12.811141787977192
4.479752770750837 0.09417331275235288 -12.381142383846543
3.7158713075103784 0.287162378831327 -12.000048402283312
2.931039370702755 0.4857632610523337 -11.65223524294475
2.151981821659206 0.6640877022190521 -11.32211829062902
1.379576192110045 0.8140775100920914 -10.98355207485318
0.6322529965568282 0.9250907701301487 -10.619031165695732
-0.07744811014114117 0.994147357392613 -10.21512623397373
-0.7323886503838648 1.0199105863739122 -9.764595799485276
-1.3188487128424589 1.0045311414768847 -9.26951020727566
-1.8308169772573981 0.9519091940972189 -8.737240214163204
-2.267568363933859 0.8698853113377084 -8.175960696973211
-2.63214587289865 0.765173643442879 -7.581509675217277
-2.922039316117423 0.6427432514716465 -6.952255264896806
-3.134755578371657 0.5016886735241898 -6.284245333982581
-3.275277091837585 0.34807866605724647 -5.566190994727911
-3.3535008666207564 0.18289773454048824 -4.801706711211228
-3.383561073212689 0.037019794178793475 -4.016143986216558
-3.370011525414451 -0.07887279107642144 -3.2427785556242243
-3.327431739553374 -0.12109027681382566 -2.5320164242318217
-3.2523434930567072 -0.13914833326942141 -1.8833725296525363
-3.183754312740213 -0.12137604294318569 -1.2348834659558092
-3.1131430297218587 -0.007754374006984754 -0.610324064141184
-3.0552057897309766 0.18763405575027284 -0.007507188580571311
-3.030526034579301 0.500479510694993 0.5551223225956118
-3.037890882165664 0.9307247716207133 1.0896363836958696
-3.0667382634567257 1.405287319793109 1.5624026234822235
-3.132201110486225 1.9362685069269359 1.9820832188998
-3.204150534787971 2.3935742769032973 2.310089758242569
-3.269786246436573 2.727834451662913 2.5581124211032953
-3.3139775107962333 2.9595082354686846 2.8183994823588363
-3.366421364352706 3.003872244375724 3.0831113216671646
-3.4042894172969995 2.902454518296931 3.3218938532984232
[...]
CELL_DATA 87
SCALARS quad_param_group int 1
LOOKUP_TABLE default
3
1
1
1
2
1
3
1
3
3
2
3
2
0
2
0
0
3
2
3
1
1
3
0
1
0
2
1
3
1
1
3
1
3
3
2
2
2
1
0
0
1
3
1
3
2
2
3
1
3
2
1
1
1
3
0
0
0
3
3
0
0
0
2
3
1
1
1
1
2
3
3
0
0
3
1
3
1
2
2
2
2
2
0
0
3
3
SCALARS single_component_feature float 1
LOOKUP_TABLE default
0.12627655647090402
-0.003498412707793601
-0.04190763093311085
0.04485315054774068
-0.060674349501556875
0.0021728946159682294
0.11933092184161967
0.024168621886854542
0.06629886026598991
-0.09677632303697925
-0.047506409855256886
-0.10375932614831236
-0.08718494228872634
-0.1809719211958455
-0.10961207098690763
0.054975715489225585
-0.03354827717915652
-0.04603048331957915
0.017091445777004756
0.21425598893002573
-0.09536036434213704
-0.19876263158725593
-0.15684117887980661
-0.10259196810626336
0.04101174976961803
0.12788766312328764
0.17928148629818672
-0.017436573625322513
-0.12698225537827917
0.20829947963106582
0.11698337175444315
-0.06134159034785343
0.055761757195981136
-0.11792368902768524
-0.19612170048160893
0.10110646913443039
0.06655080915755032
-0.0038092078891733723
-0.07172200036907674
-0.07490029547502502
-0.07970615987490295
0.22014747752772026
-0.0106803753893095
0.01613314859099141
0.19581192969780062
-0.10075663282292796
-0.06853472507314728
0.10295236686776943
0.020181439297640675
-0.021965641097005772
-0.1116992594111526
-0.08208042116025852
-0.01413853420517839
0.1484627362679008
0.007174140110962444
0.45344825985687776
0.27373561447538364
0.1292465889593949
-0.014517715598305322
0.02968475066406384
0.18194840219823255
0.13041799363189333
0.1059124213073372
0.0001046860972504244
-0.06358518724142484
0.00349072817105474
-0.061904781970484074
-0.11103208385059442
0.13363526467743098
-0.046069533583761146
0.002953309181460367
-0.13895500478698297
0.026636162110252777
-0.06997682464514163
-0.004404124671213493
-0.08917375814532152
-0.1106011684998219
0.06740026814152891
-0.08529110814189697
0.05012132701908957
0.03304090152654668
-0.09390836309184293
-0.056525101501967684
-0.25519620430969003
-0.0032081623227677414
-0.09260252137975043
-0.07716986283091723
POINT_DATA 5568
SCALARS single_curvature float 1
LOOKUP_TABLE default
0.1594760313680489
0.18869419956810493
0.15404373509592864
0.15530107317080868
0.1903909885594178
0.19917894056315696
0.1571568103817681
0.1529509383163644
0.10293139930428634
0.07534537125383936
0.06293174451447368
0.043894329901018256
0.03339692381050171
0.034804617045918036
0.04589717740580384
0.06472433833707203
0.08959594460435094
0.11537016140687688
0.14104566773440363
0.16347284208225665
0.17824431211938915
0.1793602756194127
0.1708665508753148
0.15284821559215384
0.1279823449539681
0.1042475852997493
0.08277148119028267
0.07438021954916907
0.07509699397208391
0.0888139693617818
0.12095140442086989
0.17184804483232397
0.22119260813124464
0.221910934397487
0.22967161328904112
0.1967654164280581
0.13047416655670022
0.21392822944943135
0.44893075534725857
0.7649534674191982
0.8459121962371658
0.8464731887496594
0.7667173919925451
0.4756189413311013
0.31555260004987384
0.26108730331388863
0.2333911775586275
0.2446534417567966
0.28712076223695304
0.28830243472786593
0.27989545443919056
0.23697744320227535
0.1752306431723965
0.1451253526575188
0.12924272699494826
0.13191657104681684
0.14099676488380958
0.15224362094343058
0.15861717201773096
0.16093957861585348
0.1223027261846012
0.08366587375334891
0.04502902132209663
0.006392168890844346
0.06690679318090949
0.10945173989995147
0.13728470646411103
0.1592089004008684
0.19130281774582125
0.19993408766823614
0.1841808955763734
0.18048073342915252
0.15442295175799017
0.12192567818794835
0.09039782670490235
0.06515461751821557
0.04734844251487793
0.04554940297462925
0.057348464532869875
0.08046046261196023
0.1068113175715148
0.12926299901929514
0.14675951504682921
0.15866135588303582
0.1658770614122789
0.1681684578733029
0.1630745869233177
0.14795609396839876
0.12568933381549477
0.10363895682046263
0.09853829117481873
0.09544816543950153
0.09625393806598215
0.1273118762994265
0.14663703840758718
0.1973823130067242
0.23778735642023505
0.22826114939506054
0.2258420438393778
0.18306536941296414
0.14075049790368876
0.25337369477519917
0.6448878798069176
0.8627463455145399
0.8995837541235729
0.8848030745803994
0.7189516502140144
0.36176724776639585
0.22737996948836944
0.18871686944911345
0.1754843183667496
0.1953786078747557
0.22904664169567596
0.24865053624884237
0.25212558164504023
0.2311983194919398
0.18937352103162236
0.15371479422750955
0.13423227242421656
0.12912251415371356
0.13423702556179373
0.13989340151613855
0.13910528196087915
0.1352289966759057
0.09984910237261148
0.06446920806931725
0.029089313766023014
-0.006290580537271218
0.04639197571362572
0.09252655603870351
0.1321906662439818
0.15990621583401174
0.19132039460571762
0.199736072375273
0.19131893898422941
0.18755590832810576
0.16745556414543225
0.13363517259430985
0.09695125166705672
0.07013704782770484
0.050518344600238387
0.047986705618034635
0.060173721655644684
0.08479957696131618
0.11212304730230507
0.13416335673827923
0.14974761353164637
0.15873953284308925
0.16355464650804283
0.16553881096845166
0.16099099585522453
0.1469249371321055
0.12585427383411016
0.1049888681366887
0.10685500646397693
0.10645908544438341
0.10678807277774661
0.14535170283188126
0.15983919092150622
0.20793707253997593
0.24482641392078694
0.22881918726530434
0.2220350661846442
0.17686065070150758
0.14407190747386686
0.26890308220927756
0.6918842602153188
0.8744607786150472
0.9027817118662574
0.8837729660976513
0.6789715758297514
0.3229184203717851
0.20696604911475763
0.17031825907298903
0.16182834656090433
0.1830618374409013
0.21414101818051973
0.23820232162072974
0.2443501983390844
0.2289928104878115
0.19209256879611106
0.1555717291165547
0.13545389743629355
0.1282629228108564
0.1323481126115636
0.1364370694923943
0.13368761049118366
0.1279412416353097
0.09342931848000291
0.058917395324696115
0.02440547216938932
-0.010106450985917476
0.09769165063321802
0.13540944328614601
0.14372431937293376
0.15804670907813823
0.1910868375285844
0.19990230687557947
0.17457500677193388
0.17079718957449175
0.13641292408834826
0.10565422088144914
0.08093201986855174
0.057901160721251184
0.04263816038940437
0.04191994380922075
0.05334931214118601
0.07466364231963157
0.10013331241582366
0.12349200443197308
0.14378960632266485
0.15956003721979536
0.16972079401527812
0.17197372393085
0.1658617321197484
0.14948329854087575
0.12594592037015198
0.10277607778921477
0.0898312619449529
0.0840631363005656
0.08519289533232069
0.10840326373831378
0.13379024982996376
0.18616428100610535
0.23048572147991678
0.22684178601597318
0.22887612502116458
0.1895447888589162
0.1367327579253422
0.23646394130455184
0.5765727639571645
0.8390456618259289
0.8894298263291956
0.8796028008873725
0.7532445889659084
0.4103785971961293
0.2570824179835963
0.21413150401921432
0.19484879342680544
0.21233395707010203
0.2493259464566131
0.26265236846875306
0.26222808260254965
0.2336725891807143
0.18502975672502128
0.1509458847841851
0.13252055586383654
0.130184936455974
0.13669086213163154
0.14439316256848078
0.14623349424074883
0.14478610357228633
0.10825074510371734
0.07171538663514834
0.03518002816657935
-0.0013553303019896434
0.03809903214809956
0.08588501709068405
0.12974065708466273
0.16017573167421523
0.19126645807574988
0.19956542511986222
0.19463345972508533
0.1907996176719882
0.1733845127404852
0.1389330583985862
0.09980573608852701
0.07229839013397539
0.05186633244357763
0.049019160220039125
0.06142265126909886
0.08679715985958278
0.11467759754531508
0.13661785777345284
0.15138355098725156
0.1590255837527204
0.1626562856693931
0.16438617216839865
0.16001453218334008
0.14646064875635112
0.12601948581042555
0.10580779971737922
0.11123126020856029
0.11230490256370733
0.11235178999601256
0.15499550817330546
0.16727239431788848
0.2136676970653812
0.2487308567664797
0.22897657117601677
0.21973130806867766
0.17352986842094423
0.14575774986157342
0.27722876233507066
0.7121521469445891
0.8785070821342436
0.9032349842914623
0.8819462570793741
0.6559524766810092
0.3047181190411424
0.19801453909858677
0.16194531566912604
0.1556725462829965
0.17739979450410284
0.20724496614508642
0.23331380326726503
0.24063727097244103
0.2278455153593664
0.19320058643026697
0.15637383614611433
0.1360046650876474
0.12783838729009706
0.13144553091299835
0.13479293720830382
0.13114720442252223
0.1245427776422215
0.09043872983650109
0.05633468203078067
0.022230634225060247
-0.011873413580660172
0.07025502301841847
0.11224930949839562
0.13804170210995784
0.15908925079197028
0.1912875248343792
0.19994638828185304
0.1830885041310498
0.17938812701603724
0.1523996650677606
0.1201017556188834
0.08935350927009905
0.06435779740511322
0.04683547229381413
0.045154341995751544
0.056902983654043456
0.07979614043964783
0.10602340174667635
0.12855928531612912
0.14636326111048545
0.158709017188588
0.16627542463860953
0.168587147951561
0.16339220645838842
0.14812032591818872
0.1256895376167636
0.10348429522390566
0.09740102814598152
0.09395331124313024
0.09481496419761443
0.12486092268210625
0.14491490722414388
0.19595133908475992
0.23684710757910962
0.2281418988213271
0.22629949240620287
0.18390539765621194
0.14027125157844386
0.2512437288396803
0.6373593875370007
0.8605473902440924
0.8987967732995061
0.8846057146688615
0.7239435987005013
0.3675778850986591
0.23063572819560896
0.19157324703729361
0.17762670882939086
0.19728243310915233
0.2313380755729317
0.25024395486544987
0.2532930322309795
0.23150667815987858
0.18891849768891741
0.1534153774885291
0.13404134829765377
0.12924831130592038
0.13452055282865283
0.1404132287427155
0.13992614272623005
0.13633379445461175
0.10082198232138093
0.06531017018815011
0.02979835805491929
-0.005713454078311531
0.15378734755042417
0.18373275490394403
0.15321201081979574
0.15557735015900032
0.19046277496075387
0.1992713423273781
0.15868513398419787
0.1545227568705803
0.10588957388344432
0.07801895351610373
0.06451601687389574
0.045139741604801574
0.03422288166610527
0.03544011670719516
0.046550537668116954
0.06555553856206191
0.09043655031482016
0.11596669511933684
0.141165120497954
0.16303211629387693
0.17743354679469106
0.17869663497281704
0.17043122513914225
0.1525181215890113
0.12771949139480726
0.10395415834833943
0.08284900721966663
0.07460132669077166
0.07540608762693403
0.08976923760790653
0.12165732509915317
0.1728653707142231
0.22186665619850376
0.22247033844101116
0.22980508442706665
0.19633372318310957
0.1309522887816127
0.21556111265129213
0.4599301760881244
0.7733255748410139
0.851415676575819
0.8508351541643238
0.7677458256197937
0.4713407513019276
0.31026363261911055
0.25696059491165835
0.2298045649976688
0.2417133811032277
0.28373141252333783
0.2860176009455413
0.2783622653705796
0.236739708718067
0.17619002169403086
0.1456806315806054
0.12953951085446272
0.13177195649078116
0.1406216917848244
0.15156415547539645
0.15755500720555216
0.15958699313943642
0.12113692805101801
0.08268686296259961
0.04423679787418121
0.005786732785762805
0.08391886885278753
0.12373564946170136
0.14097750999109446
0.15858373420752483
0.19120173273091354
0.199953570652888
0.17876358762649866
0.17503961148592914
0.14432336992119651
0.112809690746413
0.08513139297489067
0.06112779928716616
0.04474363836990808
0.04354258585447614
0.05511333208181633
0.07717578938579782
0.102974247587728
0.12589297121564688
0.14494460955693786
0.15903937576077998
0.1679537568446215
0.1702820501883899
0.16464792730479585
0.14879295873466125
0.12576203498330132
0.1030127495591568
0.09326286282990479
0.08853571628024956
0.08957127166979316
0.11592409847759062
0.13878086136385034
0.19069577018705336
0.23341813277841522
0.22756674221597323
0.22781789989839651
0.18696514853801288
0.13843350655679118
0.24335764888186656
0.6068782880033542
0.8506413312950225
0.8947979813391883
0.8828547063084178
0.7409031052723914
0.38995882060951476
0.24384409215393524
0.20297336368768426
0.18625615632658865
0.20487859446062973
0.24044515865459343
0.25654715916730336
0.257865789464146
0.23265782011473418
0.1870182115309268
0.15219089706077818
0.13327584686787713
0.12973328922447008
0.13563109758166383
0.14245008745773866
0.14315098565151574
0.14066607241298695
0.10463353328435336
0.06860099415571977
0.03256845502708618
-0.0034640841015474155
0.11285034307954046
0.1483527210160026
0.14653813885487119
0.15742425616374597
0.1909377316748397
0.19979092499835427
0.1701178391302301
0.16625499704658017
0.12791692248086273
0.09796100271992253
0.07637684427178228
0.054384541474955625
0.04033038650644735
0.04014179383959346
0.05145063851811268
0.07203198130807327
0.09723755015996004
0.1211310738424491
0.14278373326968719
0.16031055848066159
0.17173667632024783
0.1738184748011144
0.16715030996836797
0.15026522073784224
0.1262692851316925
0.10276950956547229
0.08684665831034222
0.08016791985117606
0.0813157649653591
0.10159555237955213
0.1293885473233092
0.18186587717454064
0.22771444240069533
0.2258783178974947
0.22959928274190025
0.19190451954054935
0.13499882820696804
0.22982567888753166
0.5438279664141584
0.8242861596657877
0.8818501324095472
0.874316287684159
0.7622444336727825
0.4303509762173051
0.27158789160971786
0.2260967354673114
0.20426158167607286
0.2203867497489837
0.2588517859929587
0.2691617354207194
0.26680982507481127
0.23465191131352336
0.18275638669313973
0.1495570003831869
0.13170261758443283
0.13064842143325103
0.1378048232896178
0.14643270760399757
0.14946765983869328
0.14907543428354023
0.11200539347502997
0.07493535266651971
0.037865311858009454
0.0007952710494991966
0.027742110806127446
0.07847533701497471
0.12514637876775714
0.16056090208180468
0.19102415934044992
0.1990973646111727
0.20066980682566915
0.1966307395221037
0.18395701166050799
0.14831676029935897
0.10462353463666703
0.07593637806739974
0.054077456675338746
0.05070071370905659
0.06356084788736953
0.09036286974190616
0.11945111728910907
0.1413824810115924
0.1548027819951119
0.16000426900655665
0.16134661774498213
0.16240706526206372
0.1582039159172218
0.14560642674413923
0.12643655500047707
0.10759268069525697
0.12003893783810671
0.12416571946065162
0.12361558733083831
0.1748530816821686
0.18338547158970583
0.2258137040427322
0.2572024982269111
0.22919201547578444
0.21450915781816607
0.16666636317044206
0.1491710708043613
0.2947130004988338
0.745980620254291
0.8839290186506725
0.9025530107119011
0.8763184611651385
0.6067635886601754
0.272042623257628
0.18257759164104126
0.14698551369533042
0.14471434710742584
0.16713466134515192
0.1946810374255266
0.2243025007966921
0.2336591093703338
0.22552197871582855
0.19495157642758934
0.15773136833408352
0.13697737286091852
0.12701410139639
0.12974796110757245
0.13172319903101223
0.12650466357426532
0.11841304810367854
0.08506348028760788
0.05171391247153721
0.018364344655466547
-0.01498522316060412
0.0437715714544858
0.09040654931800597
0.13145623740350612
0.15999152034345498
0.1913089983187089
0.19969029813663938
0.19232004763243218
0.18853858299014617
0.16925505896956775
0.1352454116008571
0.09782743858461442
0.07080100174200997
0.05093458245865274
0.04830588882433641
0.060555783694501125
0.08540490046281068
0.11288914714847244
0.13489269205110535
0.1502244584292498
0.15880825223989023
0.16327059239492286
0.1651858668097211
0.16069693468145566
0.14678429693947934
0.12589875672114656
0.10522376260710034
0.10814258573420926
0.10817555200190301
0.10842311319775828
0.14817577320142505
0.16198908112883462
0.20960609311465506
0.245957403187988
0.22887190162580517
0.22137787302512713
0.1758860116519293
0.14456968507988258
0.2713343594218759
0.6981215308883161
0.8757686637802369
0.9029830917945844
0.8833118080331486
0.6723197081697357
0.31741596743311107
0.20422654531389814
0.1677774890882703
0.15995757091882934
0.181348696337887
0.21205725614026594
0.23672911710153188
0.24323646488126693
0.22865510220408847
0.19243782068790904
0.1558181021780366
0.13562141463988242
0.12813656679140864
0.13207742011244758
0.13594331110227714
0.1329215613413559
0.12691430427894757
0.09252518298403611
0.05813606168912466
0.023746940394213212
-0.01064218090069824
0.02680704658408639
0.07807202954458461
0.12428159956190588
0.16061468040903082
0.19095388160781487
0.19898526078263729
0.2017839338675911
0.19769545030289545
0.18587447140601335
0.1500079484206647
0.1054516415285739
0.07656071063045644
0.054446945457313795
0.05097921819583052
0.06393261618250086
0.09100609919383651
0.12034693671706655
0.142303852725122
0.15549966574521262
0.16025456332262078
0.16115380547126082
0.16205885276970247
0.157862581846087
0.14544366012702317
0.12652675349529668
0.10796174509847735
0.12178440383889819
0.12653050708332075
0.12586020263818087
0.17886959346301015
0.18677508349586966
0.22833802110562196
0.25899569644543
0.22923322612112754
0.21338334471093565
0.1652815142008302
0.14986379269716263
0.29832822127322517
0.7517451145330074
0.8846748408135457
0.9022196770638147
0.8749268168677398
0.5966867833612889
0.2661307244821088
0.17984678230888382
0.14426399771857046
0.14272188208265119
0.16524112280327755
0.1923557124887906
0.22261814149275053
0.2323346612497948
0.2250560428539132
0.1952351819762658
0.15796665879265812
0.13715222337892594
0.1268535876260504
0.1294255949911396
0.13114464971853793
0.12564865967890912
0.11730008945080234
0.0840918543902429
0.050883619329683466
0.01767538426912403
-0.015532850791435404
0.029583895660333804
0.07956602342828957
0.12634851813370573
0.16047595174382803
0.19110778311102886
0.19923987003223573
0.1991108830143351
0.19513474738427952
0.18125584129497999
0.14592830376493526
0.10343109625448489
0.07503693364669375
0.05353925068894161
0.050293435736817306
0.06302779563417873
0.08945390896111745
0.11820482092931286
0.1401153294865497
0.15386300030934058
0.15969167912655008
0.16164261283410927
0.16290316941657076
0.1586770741101507
0.14583051747322262
0.12631647546532937
0.10709660249704604
0.11765984254935279
0.12094994611540319
0.12056317994771029
0.1694238838799447
0.17887308464101065
0.2224397234906502
0.25482289300105093
0.22913802858886634
0.21599548247785258
0.16854119443537996
0.1482383966618066
0.2898729809322232
0.7376547286510047
0.8827554862125181
0.9029108778376608
0.8780723384124515
0.620350667674757
0.280387217473886
0.18645924497657174
0.15081376187502663
0.14751661683037653
0.16978335030552566
0.19792988460463737
0.2266467486801157
0.23549169886823848
0.2261534963661648
0.19453354811291185
0.15739397078701883
0.13673016615535794
0.12723402057485753
0.13019392453789386
0.13252613412863348
0.1277036855119398
0.11998251144949937
0.08643638215182546
0.052890252854151554
0.019344123556477646
-0.01420200574119626
0.031745599946555424
0.08799757172224498
0.12225542269393491
0.16072902141452874
0.1895759776480342
0.19726669673720906
0.21288441066319755
0.20808068864338797
0.20434183825836735
0.16605609411702998
0.11238688298246967
0.08178673947655676
0.057311171187353724
0.05306231547188146
0.06709693097554931
0.09697643957333427
0.12943556872125944
0.15222263753115822
0.16371154224619106
0.16411559810995396
0.1601423796978543
0.1588411634257958
0.1541981714602266
0.14356148303342028
0.12752179497899163
0.11226228244153003
0.1413435429211527
0.15335373679900885
0.1513871387763439
0.22610475296045213
0.22984292081055183
0.2600454929345443
0.2823575070563414
0.23016341559860512
0.19870435934215996
0.1493872044561611
0.15858050863762876
0.34374811098247365
0.7998721073562
0.8878742044067576
0.8949550739021719
0.8529380326535086
0.48123628774559796
0.21018645831535981
0.15434705183632713
0.11767667316784966
0.12314441688691109
0.14614923670143096
0.16880879701979726
0.20520316331839397
0.21823893130121022
0.2195935961692055
0.19729357459244373
0.1600157657370113
0.13879664699904412
0.12505860104842517
0.12599345866685585
0.1251196425293448
0.11728391134926057
0.10695832979029925
0.07521260058508313
0.043466871379867
0.011721142174650881
-0.02002458703056524
0.026242958427454024
0.07794384741026339
0.12356489299644063
0.16065445249995525
0.19088866947584912
0.1988858507431256