# vtk DataFile Version 3.0
vtk output
ASCII
DATASET POLYDATA
POINTS 5568 float
7.201408776220298 0.1701047826960459 -20.395418992148507
7.455880691754216 0.010482070517838171 -19.32732193341308
7.542969992292157 -0.09998133386742579 -18.58398707923763
7.565567564973074 -0.2190788449914402 -17.857448396377123
7.51315941079577 -0.330470026635265 -17.147853402705138
7.437316602114334 -0.41592313439840545 -16.390687147117635
7.248474491350022 -0.4543032909081662 -15.676094082574334
6.990690526477249 -0.4734651324563002 -15.016859674981273
6.610748369783772 -0.4542546708205979 -14.407659069647039
6.129407372554114 -0.3991383159453906 -13.836346310124368
5.560754564408503 -0.31242451459457843 -13.302991184424128
4.899104058016355 -0.19923884174217452 -12.822369566535517
4.181920567068859 -0.06377863947105314 -12.393086822779575
3.435174308957291 0.08948920000899871 -12.006734855144733
2.6789318512199167 0.2458260730975726 -11.652115880452975
1.923502521597805 0.3829847343203419 -11.31275393941643
1.1695564707487203 0.4947563862985851 -10.960730011847227
0.4400774048191475 0.5698182894645087 -10.577522244684543
-0.2517385834901251 0.6064939584161138 -10.148152951212934
-0.8841237046048709 0.6046331716069383 -9.667361038005689
-1.439410920964189 0.5679397157339584 -9.142664415745228
-1.9097656005960606 0.5017446452679004 -8.58775059583645
-2.29701249363953 0.4166009392866299 -8.014051288666584
-2.608518458867785 0.31876202113699065 -7.418018448278875
-2.8463284398423863 0.21118783282545855 -6.798482491827116
-3.0117913213012057 0.092262852300493 -6.155982150538145
-3.1132557551609668 -0.040687965793465314 -5.471097916262378
-3.160702993760545 -0.1905715573262064 -4.736121129332088
-3.1711195236715457 -0.3043574982547075 -3.973812623801598
-3.1443070364357295 -0.37544123539739693 -3.2202005431533096
-3.0956334199887343 -0.35093791246261147 -2.519633860248659
-3.016116315578695 -0.3014200542681238 -1.864940216884241
-2.9623822085610962 -0.19866707381016363 -1.161145069974232
-2.911373447275177 0.04857478299094786 -0.5008131776310192
-2.8682071309464403 0.3939955430651842 0.10831267925246846
-2.829228027255622 0.8488879201590467 0.6304924457046679
-2.782293976140736 1.3751023497673844 1.102300617109702
-2.7282646102537305 1.9237242372728907 1.5560652181593428
-2.718325147805717 2.567533158171026 2.0404359119833293
-2.7680873493435647 3.134879122302288 2.5093693462258506
-2.8414122145741953 3.549764397275687 2.8934422846972474
-2.927544579693908 3.79432167998346 3.2742082782192665
-3.0298630927598387 3.7884297620926164 3.622226255231977
-3.1033374725807836 3.6431829574762817 3.848287175090823
-3.168778349162872 3.389379315183752 4.046368844667578
-3.2695904928853543 2.8215047726674607 4.299319166150843
-3.2546566400838315 2.1923898232523955 4.485648552694896
-3.1638977779207305 1.394205783324244 4.589688880840589
-2.9814079764279824 0.5782795590151557 4.631495562729784
-2.6723098742376585 -0.23419666263108618 4.643380690866314
-2.2028308708072983 -0.9917774797050066 4.689012547185517
-1.583488945030552 -1.6340277688816949 4.795408069553115
-0.874762328851296 -2.102983373589374 4.980933297463366
-0.1563150886157184 -2.4024138323659345 5.272846513957455
0.5636662268798339 -2.570127875408972 5.623495509459294
1.277681081462581 -2.6215465867245435 5.999264716459424
2.0111958142598256 -2.5750517196469267 6.391007984575007
2.771826325018703 -2.4301473762763814 6.768634940644305
3.552245879673313 -2.184989279434198 7.100423185756997
4.334080173082761 -1.8512638152739498 7.356388798943961
5.0982472928711955 -1.441927849889324 7.523308624349691
5.8308284915224755 -0.977448571941704 7.595798013519681
6.514262311075815 -0.4840091210323428 7.579575803380725
7.137358013027381 0.029268920522233788 7.486784883753576
7.3166527388819835 -0.37482978773566034 -20.908329731495595
7.39479208169628 -0.24660255611881812 -20.0201064100941
7.479257306410462 -0.21845209222983247 -19.320095199288428
7.579278218791487 -0.17513601594371797 -18.614407168958074
7.682161043120396 -0.1151502401648912 -17.828237433340846
7.58651278288393 -0.09782760897423873 -17.124465105209723
7.381222852726612 -0.06905511593079408 -16.466387567670797
7.1203264354130305 -0.01725217798355609 -15.807948211665813
6.780311699041234 0.07772203977349201 -15.161290145089458
6.3610675809898485 0.18791848762452193 -14.59892020010388
5.82563092415343 0.3175680355451269 -14.08680537582738
5.218789955509222 0.4541732387081599 -13.605033577873149
4.53329889197334 0.5999962081184229 -13.167828464386844
3.798183192489231 0.7516251712661461 -12.766397513046753
3.0288978053888824 0.9069295484544169 -12.386996739264475
2.2619843159300363 1.0421022019621657 -12.020022693889633
1.500737539215197 1.1528198427624514 -11.64592424514318
0.761784478598443 1.2333885686386141 -11.256207423358754
0.053979889964090866 1.2817135918482705 -10.83875622444048
-0.6066879510298412 1.295928035397203 -10.384117070485576
-1.2055559323171496 1.2775814502733096 -9.893546016291786
-1.7356376175815398 1.2292639250733022 -9.366896644452018
-2.1959686765421456 1.1552264327372972 -8.79583313016914
-2.576542246974412 1.0615867366300102 -8.181635312940092
-2.8731859192448153 0.954250650931208 -7.531261731259277
-3.089515783401801 0.8284206149841304 -6.833500943064859
-3.2262267484326332 0.6868009514651523 -6.0868303962783274
-3.290259402609206 0.5314215480657047 -5.318516909919088
-3.289081566472443 0.35252598060761564 -4.53687737142263
-3.24018402330397 0.16417392407668438 -3.7608152739876353
-3.1518440641175385 -0.02713189344149003 -3.015918573000228
-3.04550268375333 -0.17864712060895452 -2.340636305474182
-2.9222595623868393 -0.3039802918484259 -1.7052160584568639
-2.800944802574516 -0.41986048217621347 -1.0037015768450321
-2.725884144006746 -0.4621576913303098 -0.247545024036539
-2.7501244485407703 -0.3606514399676738 0.5112860788811964
-2.870475244288044 -0.08942398390881084 1.2080276535250476
-3.0435004369439236 0.24874210243384398 1.7696326144621943
-3.23858263717491 0.6309850494156213 2.1646493817286636
-3.3663966966641374 0.9809429982831734 2.3782299443879427
-3.448531442416371 1.262713061023204 2.527464036942532
-3.4698806700481812 1.5087311678609603 2.6948873789438252
-3.4728730160305457 1.6573626652087978 2.9020811495027807
-3.454708157321597 1.6700736397767746 3.1870122190303434
-3.4762585923424507 1.3921167798065521 3.588760447478642
-3.4960764384196334 0.8984938814033177 3.880534391684888
-3.489448984961225 0.1357643833873361 4.106775862628528
-3.4044610420673056 -0.6696464512630107 4.258433469718433
-3.1935384221043983 -1.4630153580458365 4.408657261383422
-2.849049391203779 -2.1957222859480843 4.616978057303512
-2.396938639598916 -2.8722920421877602 4.862850744765619
-1.8200081101995604 -3.4171040106269226 5.163481654501023
-1.1799029633699138 -3.771294089178527 5.5307931713333245
-0.4934653934498767 -3.980853142515499 5.955462606361539
0.2204092281681348 -4.044283966931907 6.430917486077669
0.9375785565137045 -4.001918542766753 6.904954374795765
1.6681640687728176 -3.883867604270646 7.356737551486824
2.424279874819828 -3.700502138995759 7.763930446463752
3.2225863793872596 -3.4403829253883274 8.098325519389798
4.040305213876192 -3.111673555854637 8.333802286856741
4.85699116127371 -2.7231273421858906 8.473440224439674
5.631921266562785 -2.293614795209767 8.527092064203378
6.355739038299051 -1.8330735532829165 8.516845973591234
7.017539318508944 -1.3567436907692532 8.457459006625557
7.394224914497642 -0.741632171307514 -21.253576467453396
7.370785518650795 -0.4324500253405227 -20.421130848612602
7.455206171299022 -0.3139387843412561 -19.735468574781372
7.611285701097408 -0.1588493347995349 -19.019256955992272
7.837246037245364 0.03464857313453007 -18.140613166117507
7.727931559381803 0.11786138743507577 -17.46359131956798
7.511088715884492 0.18965255159603206 -16.83822049440378
7.246617011916227 0.28989669539555973 -16.176627217534225
6.931417791356347 0.4382138715172631 -15.498528832319693
6.5501421642709445 0.5846502895105392 -14.938959167186164
6.035339706328009 0.742502708780863 -14.439722864191712
5.463247218945396 0.8944402394219048 -13.95661648175259
4.798357531945534 1.0471637795297264 -13.5139911648793
4.070847572576396 1.1977339976203796 -13.102333182970739
3.2925605903572666 1.3523347391703213 -12.705873982877204
2.5176329901747407 1.4861624268002858 -12.319856946442568
1.751298896586118 1.5961730729681074 -11.93061642375688
1.0059220534206785 1.6804896971321306 -11.536481434428538
0.2870067495988522 1.7367415910827475 -11.126971711740753
-0.39383430514160567 1.7619006323094217 -10.689448841705822
-1.0242619331611307 1.7560142728382435 -10.22066018691505
-1.5977728543431218 1.7198336084206434 -9.71132315626684
-2.1112523437588866 1.6534252079491625 -9.140349708078622
-2.5417745676127 1.562649383925988 -8.512253889215362
-2.8806955257937004 1.455431131705377 -7.839477839430444
-3.133801258636542 1.3247411423676672 -7.1023993091753335
-3.2958602228286633 1.177076529828747 -6.312183361052258
-3.3714617617294094 1.017917053605654 -5.520871182381712
-3.36218953884602 0.7930757589882484 -4.723515446226729
-3.2970549068772868 0.5192452518542521 -3.9234278164661283
-3.1752508233511785 0.15690028239221365 -3.116506438379378
-3.044495010203592 -0.1494227138793009 -2.396580346326823
-2.865299650692757 -0.438130635395923 -1.7613601031282045
-2.6722490700774877 -0.85336804715828 -0.9299913907387231
-2.559562628239872 -1.2232993910445495 0.06077544023286219
-2.640992075935972 -1.4048970266340466 1.13678262798986
-2.9110324291499 -1.3038742696542673 2.102990407710908
-3.269710672885125 -1.076549261116982 2.811663595156997
-3.5971289026039988 -0.809530927951413 3.1897802165599716
-3.7585581311702 -0.5573427101734412 3.2896762280475302
-3.844385775662219 -0.3346793872114461 3.3353911816991415
-3.833792104251449 -0.0643298644517089 3.406923113176789
-3.7721456178099704 0.23025679985471847 3.582575658257842
-3.6725699213537335 0.3790830611196224 3.9816861014782656
[...]
CELL_DATA 87
SCALARS quad_param_group int 1
LOOKUP_TABLE default
3
1
1
1
2
1
3
1
3
3
2
3
2
0
2
0
0
3
2
3
1
1
3
0
1
0
2
1
3
1
1
3
1
3
3
2
2
2
1
0
0
1
3
1
3
2
2
3
1
3
2
1
1
1
3
0
0
0
3
3
0
0
0
2
3
1
1
1
1
2
3
3
0
0
3
1
3
1
2
2
2
2
2
0
0
3
3
SCALARS single_component_feature float 1
LOOKUP_TABLE default
-0.07361219600609847
0.10481412105082452
0.22491514223686948
0.09463763360607975
-0.004537716341760832
-0.05780454432231526
-0.0658543445815935
-0.09063544364449472
-0.06574105908567954
0.06825976450839177
0.054341197775797434
0.0367451154026925
0.14822896483421494
-0.07248196821071268
0.043740093642346836
0.05473102285969755
0.05272876626462878
-0.054055951835138866
-0.009163407971495358
-0.06995148205162288
0.11137693009808457
0.0069205678559172215
-0.11810453577900022
-0.0815319097757467
-0.1068427470273053
0.011504484930936462
-0.10579951118299116
-0.03855095964600037
-0.03608666912585683
0.19552111012338458
-0.00032289695632501444
-0.07182957085228607
-0.042997262477550396
-0.14225371169481982
-0.1688693042748562
0.08436008300300255
-0.06589555127883918
0.13191886929659544
0.26060883246181427
-0.0926242269598339
-0.006005127242822317
0.01125319478506987
-0.014745965372394552
0.12456087377657601
-0.004852630297928966
-0.03454250555870522
-0.015446812143670267
-0.03499659636213323
-0.08607222532459056
0.03711014835100951
0.015212202150017062
0.0776208575064499
0.011704730557358241
0.03480181724487255
-0.04415864820648897
0.04321672901673852
0.025465402146556477
0.0032798338593719783
-0.04213398422221014
-0.11535042483528557
-0.19917349800858639
-0.11731211968526614
-0.03207876473685707
0.03089590228662594
-0.04765565365529764
-0.044504625566625364
-0.023491689440647313
0.08597999172308908
0.058670665897836455
-0.013662743028064979
-0.07901978011545122
-0.06776330710871692
0.004819267182699663
0.021134153205221724
0.0020635740717421334
-0.0010510560182980608
-0.01568265528272957
0.03683499302571809
0.10066516152883626
0.09299023962859612
0.015136689651124554
0.12398367420324251
-0.011516298163888375
-0.034920880458358367
0.05144539038425052
0.041527284841028196
-0.014040515057969431
POINT_DATA 5568
SCALARS single_curvature float 1
LOOKUP_TABLE default
0.12220262890717193
0.13746612966610977
0.14006943642145522
0.1529125946333279
0.1810081367618435
0.2119985703091894
0.19130744939009037
0.18493077399555544
0.14647557859309776
0.11778808966455033
0.09229913018644745
0.06395917436383063
0.047962625215237906
0.04875112278326785
0.06371665212757396
0.08970672068857725
0.11871273584865982
0.14127608157653326
0.15691403680361662
0.1652959301838145
0.1688894230734141
0.16868519822863168
0.16162934001589652
0.14483548007123112
0.12504352598255097
0.10766805929431748
0.12321760547303669
0.12387806615999164
0.12768009466378022
0.17733567662583063
0.18257876053568423
0.2270661279407502
0.241942075480809
0.18359790592065747
0.14972915287777272
0.11178445170327053
0.11626056248484844
0.26650728386047673
0.6232923350674731
0.8591812200509744
0.896648310288542
0.8702611060616178
0.7338461851952449
0.36991076046739413
0.2115031569633009
0.20288995574500526
0.17509904277130045
0.190316904946984
0.22036362817572877
0.250086440809987
0.2510604407254115
0.23664600076256864
0.20359502999368367
0.16539877380181547
0.14678646541059792
0.1381707359247788
0.14121532868295136
0.14590447772164894
0.14742738848193937
0.14712615634965928
0.10987044569500269
0.0726147350403461
0.03535902438568951
-0.0018966862689670794
0.0638901361542466
0.16733553789564046
0.18066767578088672
0.19757765753050782
0.2300955729936725
0.18440256002318872
0.17406969002721964
0.1739175200073134
0.1642417747853358
0.126905654765525
0.08709369378910639
0.06687069891755439
0.046411891032951944
0.04073737006837268
0.04793826736586238
0.06655939763013369
0.0888281777865704
0.11112071708301019
0.1318403636234998
0.14929055487529833
0.16204176311714386
0.16781768760043078
0.16491982573752256
0.15187960838800238
0.13453154776509682
0.11218660980553583
0.09393715879471248
0.0829620573277522
0.0741563235915365
0.06647262776669914
0.0877449355164677
0.14149972006300646
0.21046365299473643
0.27437215274753535
0.3421196616789363
0.4411806066125454
0.4309695251281145
0.5191996908551475
0.6962916739620387
0.799912656535447
0.8351536169160547
0.82323038862078
0.676817022533578
0.40924535516234845
0.28832372940491463
0.195028117560713
0.18280693608168141
0.20661987234887666
0.2390227121568083
0.24010742534614293
0.24776290152319283
0.21956887070412567
0.16903221291524279
0.13898321043366152
0.12135901977879891
0.12199869221762732
0.1290859745237223
0.13474745517587164
0.12982814126614867
0.12042307090327409
0.08718658116677756
0.05395009143028104
0.020713601693784514
-0.01252288804271201
0.14310638317117852
0.32776620246817106
0.2930109945463404
0.2814164259326153
0.29622330821814774
0.1709220167766517
0.16714256121892035
0.17080198587091336
0.17885670355901842
0.13674218747718883
0.08586600245869308
0.07099512123193336
0.04663193650232548
0.036058316067387366
0.03812798290117261
0.05176914529749852
0.06944691816105249
0.0913511006436094
0.11557529287115509
0.1387518611931503
0.15723707440301843
0.1667194225981667
0.1658591654203455
0.15523824543657383
0.14892538988750098
0.13240013102063553
0.1242995590427374
0.10377163358154728
0.09967632734156005
0.08690135785338851
0.08784897331035847
0.13249147993700028
0.1847214259270686
0.2644509484443047
0.41099944089128
0.781030412707696
0.8544916032414531
0.9016113636464919
0.8978096752907504
0.7904094185389398
0.7368975747188776
0.712382422568048
0.6482178591515062
0.48475861035104806
0.37984529760996677
0.21105033083258057
0.18897030320700636
0.21296405657160347
0.23492850553397557
0.21824518776227236
0.23183690623377157
0.20146677924330933
0.15016367261169514
0.12740510589064552
0.11527021613844311
0.12204791406248063
0.12924169672447328
0.13192142305186247
0.12064295763823994
0.10408940993786513
0.07290634289521251
0.0417232758525599
0.01054020880990729
-0.020642858232745323
0.05915745720197678
0.15610062069875344
0.1730545061603625
0.1926017987033044
0.22554642471499672
0.18579104609137218
0.1748755708022403
0.17439208517306976
0.1630973887639031
0.1262184210052276
0.08729663234135517
0.06659695892295296
0.046437388540272455
0.041162825375833136
0.048805787216985266
0.06785117904146978
0.09051144671141867
0.1128294985852313
0.13325086175594128
0.15019811986940712
0.1624434976595303
0.16789031705397398
0.16479435102599554
0.1515462170134019
0.13341049013362205
0.11076292368036597
0.09213706030709676
0.08196926984259104
0.07346654813094854
0.06856977867933496
0.09117886133960096
0.14519133455105135
0.21330775085748999
0.27201823426987587
0.33248254539336297
0.412098812129341
0.39145382128929473
0.47855175312865766
0.684107653942509
0.8055420548545548
0.8437580642191412
0.8330422463140119
0.6811570221959806
0.4034495420693485
0.2813492142540496
0.19388673103598378
0.1821451706467838
0.205713430512729
0.238613994626274
0.24147299767454636
0.24864591804787214
0.22091140552882857
0.17087488618200528
0.1402330319717157
0.12229702881448246
0.12239733169540516
0.12937391352094949
0.13514747122768841
0.13070660303899484
0.12188871524668501
0.0884538628867026
0.055019010526720175
0.021584158166737755
-0.011850694193244665
0.07174322764757558
0.1116682951479062
0.13723145425045516
0.15807560531246523
0.1900460087928803
0.20066568808916294
0.18396583454973947
0.18010507865612355
0.15273713077908024
0.12058718440083913
0.08989761462197073
0.0646008723340094
0.04707864090736886
0.045513587151140615
0.05747907107807116
0.08064312669996847
0.10708815673004421
0.1295972278972891
0.14715401735326827
0.15909702176688614
0.16629437922623963
0.16844552128171156
0.1631806897833463
0.14787154245090756
0.1254964513810814
0.10354351374447547
0.09903248980686295
0.09600586336662051
0.0972711097604659
0.1293438096924467
0.14842563574333562
0.1990084335309734
0.23795126460258142
0.22540697898008066
0.22079184404586816
0.1756083764487949
0.13605735111205408
0.25034455944408335
0.6401798169954613
0.8631129354156872
0.9000843811261133
0.885072285123513
0.7234896930221248
0.36455569181105724
0.22762703465569262
0.19078108016638395
0.1766220464096745
0.19612449543542124
0.22990843433745903
0.2498086799955159
0.25286114411140037
0.2317906846479844
0.18999512138853386
0.15423248740210851
0.13481454905189325
0.12966367083504315
0.13475975705239668
0.14051979143232773
0.14007087181108893
0.1365957295056888
0.10102932434296134
0.06546291918023389
0.02989651401750644
-0.005669891145221012
0.11001926050130142
0.12807816851436352
0.13658911502685753
0.15116410182291956
0.18027631822418458
0.20936273299575414
0.18957142270883157
0.183781234053331
0.14783126127863977
0.11834665521914788
0.09171037542108978
0.06405065680110641
0.04772803635724285
0.047995646492053304
0.06227676523167877
0.0876246816637243
0.11605265748096148
0.13861073476538718
0.15468067625125806
0.1638808533234345
0.16830301468328732
0.16863982795021876
0.16201569827208875
0.14556603033939575
0.12475544021754519
0.1060993509474961
0.1169458676818484
0.11687628628294469
0.12079390732869288
0.16790465083198367
0.1767890367084098
0.22275478682781996
0.24229118576685194
0.19243087500675923
0.16334175572420098
0.1193697153577163
0.11579598709497367
0.2596672178343658
0.6307988138100044
0.864604477764104
0.9001492373126277
0.8767349728927691
0.7332838134450679
0.36546976754908217
0.21334091166486424
0.19879701352680781
0.17524909175311434
0.19152552843107426
0.22272153095028585
0.2504149930017508
0.2518034715642852
0.23574763703354604
0.2005245851845432
0.16277684698550055
0.14384051490341307
0.13599098067415907
0.13954986364286742
0.14455210214082007
0.14568569376493967
0.14470492737016882
0.10784992591096686
0.07099492445176489
0.034139922992562924
-0.0027150784666390426
0.11621597652997499
0.13248307074516705
0.13800304436190897
0.1516852718172914
0.18028654978029138
0.21070268361766306
0.19045179005258908
0.18436367127956974
0.14713489430120427
0.11805607069628331
0.09200737022726561
0.06399995141139582
0.04784509740430513
0.048379288030835806
0.06300912796380888
0.08868443250695004
0.1174074387086053
0.13996878097973234
0.15581817055813996
0.1646018307139473
0.16860222292434693
0.16866359580601312
0.1618212805217431
0.145196694245037
0.1248759011180515
0.10685773727548314
0.12010384276581199
0.12041466937515917
0.1243246096520816
0.17285352487585998
0.17991424130184822
0.22513071992097902
0.24220410992341332
0.18780981106370973
0.15611792061480653
0.115179250199448
0.11586991991056132
0.26319651618865
0.6273168291635048
0.8621500410829531
0.8985414238291474
0.8736389710748657
0.7336832342637594
0.3674694457851125
0.21226050173272917
0.20077758490380668
0.17515903540461886
0.19090126446121827
0.22153231877606547
0.2502759759246838
0.25144891490801957
0.2362211719198605
0.2020931000624298
0.16410817884086568
0.1453264294924854
0.13708433389460267
0.14038435341342764
0.14523192562757842
0.14656840226691115
0.14593732031421688
0.10887928278489024
0.0718212452555636
0.034763207726236964
-0.0022948298030896763
0.13529801003639888
0.15115506570588208
0.147310694521371
0.1583967641232799
0.18535075237298773
0.21485478183086443
0.1932082667648527
0.18619376221648307
0.145070441646536
0.11724184308578281
0.0929580986104639
0.06389752652227133
0.048236721620175296
0.049574278167403306
0.0652749719003127
0.09195300309476515
0.12157521306570472
0.1441388242539829
0.15931680388538738
0.1668161042216255
0.16951552747478463
0.1687282677344451
0.16119241841306559
0.14402460219192542
0.1255742375818227
0.10969412181898618
0.1302272237648016
0.1315965834079135
0.13483077734653204
0.1861230758391822
0.18718991338285676
0.23005541800234452
0.24079091421421928
0.1756353525158233
0.13821381503474256
0.10674932163645673
0.11838473779827059
0.27322266021724034
0.6123254223303127
0.8506677903950725
0.8914146754564871
0.8616148791699241
0.7335780416043822
0.3771064762278469
0.21084246244349394
0.20824046441572147
0.17505198238444752
0.1890899074729408
0.2177241902111541
0.24948310095358095
0.25005025250633495
0.23746906703621193
0.2068510277009931
0.1682528754975711
0.15008273765061075
0.14066475602311232
0.14312945491552367
0.14743972376388362
0.149340428875366
0.1497378559345931
0.11204161592187621
0.07434537590915932
0.036649135896442434
-0.0010471041162744554
0.11612860980898032
0.1324159556988406
0.13797831167705196
0.15167295194045333
0.180281523536033
0.2106837916218374
0.19043934679197708
0.18435543144980585
0.14714460837698917
0.11806007180225767
0.09200314985257173
0.064000605693002
0.04784341544577502
0.04837387355332745
0.06299880865810988
0.08866951126613354
0.117388375028056
0.13994967963165206
0.1558021649233273
0.16459168948747563
0.16859802055566067
0.16866327095083528
0.1618240501063636
0.1452019305412376
0.12487382104218434
0.10684646932465866
0.12005885093570702
0.12036444842413992
0.12427523985135219
0.17278594698902608
0.17987277754788594
0.22509985410810515
0.24220665699797728
0.18787325640374522
0.15621561309125753
0.11523349204057372
0.11586650701575789
0.2631473149344417
0.6273707810479492
0.8621890483406999
0.898566620868028
0.8736854892744971
0.7336793030330788
0.367437572902243
0.2122736376354764
0.20074822753546961
0.17516010291836942
0.19090992159340806
0.2215492221381469
0.25027834143495015
0.251454249099875
0.23621473861094422
0.2020710940289552
0.1640893855782311
0.14530531075840586
0.1370687060814487
0.14037241278803037
0.14522223080409405
0.14655591886189687
0.14591996792400228
0.10886480246199613
0.07180963699998999
0.03475447153798385
-0.0023006939240222957
0.05040684923443979
0.13097281982979858
0.1559217307141381
0.18107703172731715
0.21452583812667267
0.18952584031510725
0.1770864077572805
0.17573191583807848
0.16019897528620777
0.12453361341577879
0.08788153116235449
0.06594587625433045
0.04653765729937928
0.042284373620975986
0.05107547105239655
0.07122005040221695
0.09489379742305322
0.11727320379721182
0.13692395820071143
0.1525572785064251
0.16347969673254792
0.16806451933625147
0.16443473346772036
0.1506449377257253
0.13069200167337605
0.10753704497825181
0.0894834270313595
0.08136451591542117
0.07464342573301753
0.07858054675874393
0.10322362600773793
0.15734240796317603
0.2209165209220692
0.2634695957466261
0.3052987046679642
0.3398126731037863
0.2949456333539272
0.38108092028599627
0.6595725713055123
0.821629447700617
0.8647569090924777
0.85546614301354
0.6931944760060321
0.38956504368295347
0.26431249492532655
0.19143650639243034
0.1804501706194681
0.20322595265387491
0.2370789925447766
0.24458769229246166
0.2505527666198882
0.22421069099147564
0.17578439303257393
0.1436500457519927
0.1250368060854081
0.12373388991905156
0.1303493968142407
0.13631192557035315
0.1330556395578993
0.1257314993837686
0.09176468807454605
0.0577978767653235
0.023831065456100947
-0.010135745853121603
0.04943092794200293
0.12165444706469297
0.14957961589954452
0.17570729758242018
0.2091596888097569
0.19156876409541537
0.1783187665333491
0.17649701471188095
0.15870991105457743
0.12369984076524841
0.08822282537645988
0.06563687897332074
0.04661077338116186
0.042886811231449336
0.05228463040003634
0.07300853373601801
0.09721573381834572
0.11962464357190765
0.13887078452697704
0.15380526226573202
0.16402324645225821
0.16814844760202363
0.1642248180534688
0.15014748301099365
0.12939772050984233
0.10616100271244511
0.0894581684004275
0.08238627489789024
0.07708177115996485
0.08628655675573241
0.11102945882055903
0.16487545848915283
0.22480810530327772
0.25763211157427207
0.28988075358807586
0.3038487503522202
0.24847503997950118
0.3365096687141996
0.6499148480798005
0.8300413185499503
0.8745236655726323
0.8650299321052624
0.6997127737322361
0.38306401754614267
0.2560211269191019
0.190520422032564
0.17959387277113523
0.2018624358178967
0.236013965222209
0.24597530641024687
0.2513321063143594
0.22583981387709035
0.1784410850302376
0.14555052197814142
0.12665936180904766
0.12461515383525229
0.13099792349059966
0.1370021762938863
0.1343368193622703
0.1277820876919201
0.09352427481912368
0.05926646194632726
0.025008649073530842
-0.009249163799265575
0.0523468990393682
0.11436655103504538
0.14426524505091237
0.16957905779916468
0.20282406124180744
0.19421544688422193
0.17993637814544633
0.17751592608687478
0.15686850362424734
0.12269964684218451
0.08868506335513075
0.06528097165699222
0.04672352395891447
0.043658691973073184
0.053823970338139765
0.07527918573155076
0.1001588221515672
0.12260202077350693
0.14133917299007587
0.15538522827066595
0.16470696096740128
0.16824687513303077
0.1639393413953213
0.14949662381253984
0.12793849093406653
0.10480387163528289
0.09079973623754059
0.08500806894469008
0.08174194858899536
0.09789358574262708
0.12184368843172491
0.17503883233385636
0.22940669484865353
0.24910849290166312
0.2696208282689646
0.2609635921415036
0.19591446274639635
0.2892848231590762
0.6401137362620195
0.8398223150937132
0.8850294411066506
0.8745208804987313
0.7077339044615089
0.3758581512563209
0.24633308449599844
0.18983006480866024
0.17857783456428494
0.20012122484042216
0.2344415461467524
0.2474690040982073
0.25208949640658307
0.22778190061730272
0.18185122275415888
0.14804214524881368
0.12888154071022653
0.1259019229994763
0.13195010234785085
0.1379513128519827
0.1359974379362488
0.1303943426150313
0.09575852395858554
0.061122705302139785
0.026486886645694027
-0.00814893201075173
0.08948649552042366
0.22158150985993685
0.217866761998564
0.2234275138710545
0.2513656809610591
0.17885442549418878
0.1709648204580888
0.1722022985418978
0.16928515840036823
0.13007939315865033
0.08638303227688857
0.06817564477166273
0.04638318543894686
0.03896980305531271
0.04429352693620161
0.06110600333502447
0.08170535588806925
0.10387750937059334
0.12587200016491396
0.14543979137411525
0.1603170671965188
0.16747283002851016
0.1653733265787717
0.15321433724956335
0.13959677535272058
0.11902921906623735
0.10432939261404646
0.08985960951569495
0.08179864563040212
0.06871785986758189
0.08255244216594705
0.13401020262318347
0.20138477426720636
0.2783528740908799
0.37696670269420574
0.5695218492195366
0.6045670326645325
0.6921373792067415
0.7646501927995217
0.7841542726586845
0.7983963117817325
0.7786199463523547
0.6614519864973992
0.43575727203570247
0.31999052646193754
0.20063867438851185
0.18551243619959126
0.20997303860262126
0.2395005826583228
0.23333136254812364
0.2431175998190258
0.2134542457973021
0.1615570327187679
0.13410923281609144
0.1181082627092085
0.12102420519647332
0.1284021051036665
0.13333654582768403
0.1262553822220381
0.11429399498449273
0.08186073990389398
0.04942748482329522
0.01699422974269646
-0.015439025337902298
0.12133033415872906
0.136691136198845
0.13972085595866526
0.15268487371577794
0.18085481990335997
0.21180952164341452
0.19118236177358056
0.1848478109628026
0.1465709044507759
0.11782639222660794
0.09225628835031852
0.063964620885808
0.047945214976434794
0.04869682228844732
0.06361347011327272
0.08955772829351108
0.11852259526026517
0.1410857204908996
0.15675440982022704
0.16519485575561227
0.1688476530401684
0.1686821294446323
0.16165758295612415
0.14488842776518426
0.12501606787733843
0.1075453511265208
0.12276019453523351
0.12337075534889332
0.12719454252957668
0.17670078166227063
0.18221220404426838
0.22680619637590294
0.2419908711556991
0.1841937443661382
0.15062114602582685
0.1122393592957971
0.11618407054620394
0.2660331405786917
0.6239185867840902
0.859649961535971
0.8969443066273302
0.8707763769835275
0.7338349998748824
0.3695230984021899
0.21159595916469157
0.20256964425633753
0.17510620095966847
0.1904010119730386
0.2205352480719521
0.250117419559383
0.2511198697809729
0.23658604012575088
0.20337685990869414
0.16521031901714883
0.14657207488323545
0.13801048118587964
0.14109264168168853
0.14580543546209854
0.14730174072733268
0.1469528946109482
0.10972610394534038
0.07249931327973255
0.035272522614124724
-0.0019542680514831046
0.050707959916925796
0.11673447346633531
0.1461160973888004
0.17192807036414767
0.20528216911180563
0.19315516605481872
0.17928564267644329
0.1771042738456704