# vtk DataFile Version 3.0
vtk output
ASCII
DATASET POLYDATA
POINTS 5568 float
7.215392114736292 -0.015475057719541413 -20.58683998887282
7.391098116464128 -0.04032822276723948 -19.61427713592711
7.483635927564702 -0.09065369423826727 -18.88917425862573
7.545639600025972 -0.14144857816145937 -18.17256613354244
7.562900501651529 -0.18477828622245004 -17.43502040419687
7.483270663874624 -0.22993712393805968 -16.69724289867006
7.290599801163065 -0.24521345005742715 -16.003466751432157
7.0334875047506005 -0.24070113289747405 -15.341404331132258
6.6721650444897085 -0.19685400066494146 -14.715831189999264
6.219561789100026 -0.1250862031203136 -14.148235726784753
5.6679522125302375 -0.026712022176191896 -13.62435667972821
5.033367698924847 0.09037826416089226 -13.144316664806777
4.334211791846601 0.22460129913956192 -12.712856493839432
3.597394268983055 0.37198862167497815 -12.321230415584058
2.839879625440376 0.5234169233695807 -11.95676360997539
2.082347956535226 0.6560955412134467 -11.605919310619147
1.3264453320474558 0.764392514458995 -11.24471781619082
0.5927867496690497 0.8392108249140522 -10.859231927580351
-0.10678999394674704 0.878597020045197 -10.435736021652069
-0.7524762390865409 0.8817607503922562 -9.967198941547938
-1.3273760799044387 0.8516805625276078 -9.458718039408542
-1.8238978514967652 0.7924960135871939 -8.917921310341598
-2.2421373290132505 0.7119460409332269 -8.348121329149743
-2.582299673028699 0.6161368198284977 -7.7479868650506205
-2.8438322831454816 0.509038059105586 -7.1199245254741275
-3.028871133670896 0.38703223535340353 -6.459426165514239
-3.1428116275371183 0.249557826777021 -5.754032797400889
-3.1946620332053333 0.09512330627670912 -5.010418190765754
-3.1979019481343847 -0.048752858047689446 -4.246203875882747
-3.160200917097553 -0.17258872906379946 -3.490458728816067
-3.095085721766604 -0.24041749126176137 -2.7833798827419267
-3.0046197998203943 -0.2819246424713108 -2.128918460788012
-2.923628377478886 -0.2877543029448819 -1.4591305226156805
-2.848048259353281 -0.20148669666197438 -0.7981302083822337
-2.7972437028845434 -0.025564799791764237 -0.14897082439437026
-2.7888939275057707 0.2737761683223063 0.4434556437324868
-2.81251378725919 0.6858165269669432 0.9840842662630077
-2.853216316712969 1.14092501975303 1.4638367704703696
-2.933295889763534 1.6756161637060933 1.8984404156264054
-3.0176871848448044 2.1623994443623924 2.247392659603066
-3.0907780749185423 2.5365233478072247 2.522943717856665
-3.141959676201534 2.795617108228942 2.8067421005436266
-3.193236967521934 2.866393154673108 3.085334039008547
-3.2252512556935176 2.7934371617880296 3.329940332611502
-3.2745939992159734 2.5284418957660537 3.6100893214135557
-3.345158946314217 1.983879486762246 3.883786733179165
-3.3381131960188446 1.2904237205328948 4.085349459611047
-3.254363857139283 0.48748457867688255 4.20699977055
-3.066947565660483 -0.31924889234099263 4.289195223352395
-2.752047101017844 -1.0961857428181339 4.374670486844438
-2.2977650251347947 -1.819020034772985 4.493362907366875
-1.702603607264109 -2.4199446261094923 4.671408128308944
-1.0266796813177597 -2.8388056554597534 4.928132839668024
-0.32365776928550294 -3.0997223144226203 5.273297547682937
0.3919354654742544 -3.223089614559057 5.675766020821149
1.1053448141439173 -3.23462101501357 6.093095763915647
1.836489377305016 -3.157173460297477 6.511417966462837
2.5949460814336165 -2.9944270815671787 6.9027011746222495
3.382640187766228 -2.7404176381692844 7.235566186764577
4.177988075125986 -2.405549116649513 7.481352335926906
4.961077325031544 -2.0010674357402216 7.634288688143513
5.707634442713315 -1.5466241776654304 7.695637999219636
6.40372415613292 -1.0614962781770707 7.678055303076625
7.038149753794426 -0.5576526221196932 7.59497855529259
8.243888750770656 -1.2179771684425 -21.205470501759716
8.415351640112068 -1.5342980781637294 -19.97057178624643
8.30688401314424 -1.6333454868922601 -19.30162089543014
8.150076969369024 -1.6953335044894473 -18.671206107597964
7.950334880158315 -1.709977582029551 -18.055459441744535
7.741928070986446 -1.6657845232100015 -17.433979758111374
7.4552298027569694 -1.5261236886072709 -16.825169674894095
7.139804419371738 -1.355198416962018 -16.257231203431925
6.714080207877226 -1.1118120792415869 -15.675900322001146
6.17361516828748 -0.8302292403886838 -15.110274284840383
5.511614233095207 -0.5218057978706614 -14.561805348961052
4.735961576295472 -0.20523582794128226 -14.044806070265821
3.8712727941855407 0.11784262457254246 -13.575321217402049
2.9613249185315897 0.44223014753067813 -13.151966797712152
2.0668704726665608 0.7434244382821256 -12.776861718921772
1.222642635211177 0.9952494849739234 -12.430518606757788
0.4310747817058498 1.199741645678102 -12.071693085465611
-0.29700483156002433 1.352244342635402 -11.672256051528725
-0.9618652298407268 1.455235831671507 -11.218286327210784
-1.5540900849157637 1.506671638268543 -10.70634581470603
-2.0690158599676516 1.5054303934551052 -10.137974412191634
-2.502395880020851 1.4571094181550275 -9.530248331206806
-2.871635347178027 1.3752184216826984 -8.88118020217273
-3.184430506041525 1.2696713472637307 -8.18278857421761
-3.444735936986371 1.1510144335941737 -7.430732195945931
-3.6576406735057296 1.039292876039948 -6.630025971911932
-3.828663174430575 0.9358900070050795 -5.7755346229532325
-3.9598509910684108 0.8587597735369925 -4.862612019322369
-4.046127724853597 0.8369872144572638 -3.906288774815981
-4.075950823236759 0.89529015459039 -2.9598899575770847
-4.048477953485732 1.0444490208217845 -2.0823421489402056
-3.9840761562661786 1.3350219584093428 -1.3089289509260906
-3.8622509496817283 1.7221704954972543 -0.6861769412614666
-3.730412559221978 2.0840128856041567 -0.1531346604881917
-3.586537981285419 2.448837586924019 0.3360737950374077
-3.430845645037714 2.7850709882242604 0.9084327484154642
-3.3392341102050995 3.122858107502569 1.5936698439621426
-3.35949756405693 3.38900879343608 2.3069232179697536
-3.508932236895641 3.5617626287461572 2.958669962011974
-3.7180072536221145 3.6244899917413385 3.422323607849782
-3.985265013796726 3.576573674330245 3.7807386612322498
-4.188789218335118 3.484269537510636 4.055964590955775
-4.36657586142374 3.2964375707180205 4.225296245444965
-4.462192161108653 3.1151086966731203 4.296211729098967
-4.5058789965882395 2.939613800267114 4.369073679895818
-4.475594777729802 2.6476492025979037 4.5116094668524465
-4.349232910088671 2.226132501398126 4.733437633204187
-4.123307264893872 1.4717258437756646 4.915080580954372
-3.7253350061194417 0.6950202892683416 5.133870028968604
-3.172730578176791 -0.02074249347085033 5.477806822214676
-2.527432537366054 -0.6589309616844555 5.932390184428672
-1.8335895219887102 -1.1654988036769665 6.396108276984062
-1.1960270752278754 -1.5434080479303371 6.747543074965201
-0.5252711752312139 -1.8116375994035336 7.0880309133779535
0.1611685418611849 -1.9779596574689884 7.410465905808933
0.8813631531971973 -2.0459143261754353 7.74572535659653
1.6259883418944412 -2.024455744582683 8.088121549936027
2.3895740532698113 -1.9249981582233953 8.430935979899102
3.1823673436492346 -1.7526203089786718 8.764996991145955
4.017494756171525 -1.5154310848681254 9.067464113286471
4.882243820503217 -1.2239534919138613 9.310441174723943
5.742765969220542 -0.9017110490948366 9.480262636894343
6.578544674158506 -0.5698921350257629 9.582926905664886
7.375047210002322 -0.2354918712700177 9.62532981988299
8.069665987199084 -1.0142786500510366 -21.100677239624776
8.241779277062298 -1.2753648066451833 -19.91632206551446
8.166878070283932 -1.365831062231572 -19.242270599988597
8.046537186912499 -1.4255478033219195 -18.602696923873985
7.882861885811968 -1.4446405707733838 -17.97236285918309
7.69593540349703 -1.4149432821174583 -17.334777304808327
7.426366654129981 -1.3016561829052817 -16.715318927241277
7.12233131508475 -1.1590894923926789 -16.135119470514343
6.710036754725937 -0.9513616181291413 -15.549397226516469
6.18738103745104 -0.7082701561504314 -14.985683693568763
5.546951150114379 -0.4387034703340975 -14.442942141955633
4.797973632656213 -0.15912005488732056 -13.933226760861977
3.964033779635951 0.12893526467327504 -13.470828998797028
3.0859371696297933 0.4205938669301647 -13.053241552479482
2.2164930717534927 0.6945111569100103 -12.680113679038035
1.388086292386814 0.9250665426720598 -12.333152399984119
0.6032068065731635 1.1127643416425128 -11.974146791132961
-0.1253848904269118 1.2519441047823685 -11.577326271209175
-0.7956700145274531 1.3441402369618631 -11.128791012797675
-1.3964252318835164 1.3874224020982364 -10.624540311830891
-1.9210010159376143 1.3813048836793427 -10.06684250982644
-2.3646720724503316 1.3311853502480417 -9.471162525635826
-2.742093901922045 1.249593175631748 -8.836345753024434
-3.0596583843228826 1.1457905516923321 -8.155475861769544
-3.3203421407354834 1.0291511891855298 -7.425376687599563
-3.5283747772137932 0.9154332680282127 -6.6494663882648455
-3.689081016822959 0.8057078165223533 -5.8215937628376375
-3.8057077223455824 0.7143819841760224 -4.939721351002396
-3.8765951991821463 0.6700772153878467 -4.019497179751117
-3.89389632660681 0.6946501729107172 -3.1102701050268267
-3.8595417994718355 0.8032095917321467 -2.2669183641125383
-3.790981558628227 1.0298249813500688 -1.523026376961605
-3.678735717646634 1.3410846962528278 -0.9050807603676823
-3.558233524190394 1.6517716897405217 -0.35908368798998136
-3.431119687984942 1.9817464822672122 0.15052489261921054
-3.301128143221496 2.310490254193674 0.7242784727775486
-3.2303102575589855 2.660260522582356 1.3813859403677924
-3.2539983027379393 2.9572721473924943 2.0459366276063213
-3.387949858072285 3.184842495593561 2.644191681988584
-3.5681934750673596 3.308340719616756 3.068248571063138
-3.7848390010737667 3.328853300176781 3.3860003395528264
-3.949259288739494 3.2966839894870112 3.6405749934221303
-4.093413944300951 3.1644313341589605 3.814735646532448
-4.173866220779419 3.010044474320215 3.907152619209863
[...]
CELL_DATA 87
SCALARS quad_param_group int 1
LOOKUP_TABLE default
3
1
1
1
2
1
3
1
3
3
2
3
2
0
2
0
0
3
2
3
1
1
3
0
1
0
2
1
3
1
1
3
1
3
3
2
2
2
1
0
0
1
3
1
3
2
2
3
1
3
2
1
1
1
3
0
0
0
3
3
0
0
0
2
3
1
1
1
1
2
3
3
0
0
3
1
3
1
2
2
2
2
2
0
0
3
3
SCALARS single_component_feature float 1
LOOKUP_TABLE default
-0.005415336257454212
0.16053529556944787
0.13242399536645372
0.07278081392622826
-0.027328786431174916
0.06608133402735542
0.06526137788309379
0.015518079911671971
0.05327462496826506
-0.038743209071648695
0.016073005600430148
-0.02480425325654626
0.023227245727625412
0.026446347286109603
-0.024934677650389977
-0.030398786099012795
-0.1379648481692238
0.06056344646792052
0.07216637688555841
0.02388491637726719
0.15326754252762703
-0.04300485657425531
-0.018594007939562188
-0.03058826813721021
-0.11639194039223283
-0.1211710749429081
-0.1506129677242224
0.2212030501215123
0.06086969273997127
0.0003847103388200934
-0.06445010277582519
0.024624566960642493
-0.056996467362124346
-0.05096361355013536
-0.05516031901510137
0.07839508628537724
0.09038139081466393
-0.06669923147971714
-0.013972868481012063
-0.02414097528062603
-0.053808624022234464
-0.05358809653468946
0.027493316655169645
0.12757909419773583
-0.02122802098478479
-0.059014162718655214
-0.13639391635393927
0.047290856095427894
-0.03123477059465471
-0.07491638210671048
-0.05201491047670911
-0.02902093817910953
0.0310026858174296
0.014457619243813155
-0.029034230587279258
-0.0436016251878345
-0.021116743165456205
-0.10675209708397584
0.07977485838827358
-0.04352194106182342
0.22148164171143697
0.19818283154297509
0.08236554185203504
0.013926551212786457
0.010584064204525994
-0.08106875729698153
0.01236158998034001
0.18547377552520705
-0.04406845368680919
-0.04971251442401578
0.04457111396104571
0.016806186604785174
0.013604019842525517
-0.004153849157532266
0.03687507596052789
-0.03158585338035837
-0.09353985966533457
-0.112381515323722
-0.04186990928167708
-0.08750613179658984
-0.06407528177855244
-0.04208193645024948
-0.013168815895468054
0.013481979969610952
-0.20361769857393006
0.10325306414326559
0.02848485966450129
POINT_DATA 5568
SCALARS single_curvature float 1
LOOKUP_TABLE default
0.06638499710942293
0.1096060475937586
0.13793886833532382
0.1599475283437411
0.19268699064315106
0.20083005341169424
0.1849144243191372
0.18146428226462655
0.15487414162902843
0.1222367986787744
0.09073262264146349
0.06519625128138849
0.04705240777567355
0.04475027426953829
0.05602155830274726
0.07867297885539296
0.10479338993483804
0.12745409322076726
0.1456690954707816
0.15865844901348566
0.16714313980580844
0.17057623856802517
0.1661108174953198
0.1510968978426833
0.12816058210907275
0.1048178927884272
0.09780618034619491
0.09237350594596469
0.0920196355793609
0.12380857674698006
0.14496252413144314
0.20120832394676047
0.24576757894840512
0.23770460228694093
0.23458711665159915
0.18680388911529824
0.13467970874506646
0.23979084408830614
0.6223169864952368
0.851142488237675
0.893033564396318
0.8791718766447556
0.7184741320979363
0.3678159351828008
0.23043304996534875
0.19048857784804885
0.1767942041843963
0.19736344631385316
0.23311890238466806
0.2533533106419199
0.25661030444859745
0.23437766520543438
0.19036633020830432
0.15403734388622475
0.134591924217761
0.13015983661243358
0.1359064332731869
0.1419851442465342
0.14136279672065943
0.1374537444228196
0.10155335180017445
0.06565295917752931
0.02975256655488416
-0.006147826067760986
0.27957434543746035
0.3105064756609565
0.17198167068054096
0.16530521881938842
0.1661335481996096
0.1664824892284355
0.13244085207112963
0.12418127540459568
0.10431377689829037
0.08399499518501599
0.0666881618461016
0.052566137121860104
0.048170864376983355
0.062360797054840864
0.0877342326967966
0.12047948819094195
0.15074561822997576
0.16760323008676642
0.1690087177050341
0.15816395392120502
0.13848575037748526
0.11485956404196822
0.09563081174528096
0.08105970677375805
0.0751278154180091
0.0811219175934445
0.1005211602715574
0.14652803146790325
0.20406995563776012
0.2002498735917009
0.18588598944034687
0.1593514171212673
0.1186159154136053
0.15314883036724314
0.21409498052275094
0.32214220449214576
0.45636074625239015
0.5181143584923616
0.6992593623088239
0.8541633485401562
0.8857287373344834
0.8871081854828453
0.7959780264021468
0.5185999821106732
0.283673642946222
0.19360106971442598
0.174786037032573
0.16622336618904535
0.15832619884782875
0.1528765022472571
0.15864014069900292
0.16225079317130978
0.15916712833797667
0.14142866145509672
0.12146091747988261
0.10281944969688982
0.09257325804575688
0.08862610289106944
0.0864719877217545
0.08599371136250003
0.06343798933458582
0.040882267306671605
0.018326545278757392
-0.004229176749156821
0.2358265301428973
0.26350488730550187
0.1590396887887457
0.1575499190925137
0.16509935573142215
0.17274098738661922
0.1418416171005845
0.13414606675828694
0.11220852151069337
0.08948665638830136
0.06995730823636895
0.05430734176389878
0.04791033699710255
0.05949197398892266
0.08259670108191043
0.1135898241416745
0.1432210811562076
0.16118561919497038
0.16547706482910637
0.15846681306047103
0.1429736822213513
0.12287499512699944
0.1052421137370197
0.08967508335039678
0.08112005739290824
0.08352035422385724
0.10033384946403925
0.14266078206930483
0.19391901956055768
0.19224933930820773
0.18033273448461926
0.13963122071630588
0.09860194348000806
0.1244564867928579
0.17622586199898135
0.2911311533154139
0.4576440609464081
0.5438799248272036
0.7629213306455295
0.9003453295999023
0.9009414862782228
0.888225351629443
0.7606364035635138
0.40561016378472514
0.24067334937121782
0.19127067612238047
0.17586226365879476
0.17274987500401434
0.16817049476184445
0.16485326904787298
0.16958871989908605
0.1689899185336118
0.16246304299411632
0.1427383990318144
0.12332804821979323
0.10694091012515777
0.09924712334499651
0.09709588367533092
0.09535508603948031
0.09445435164786806
0.06974147265434927
0.04502859366083048
0.02031571466731169
-0.004397164326207098
0.14631979152504493
0.1759455096667197
0.14194289465851334
0.15187102381557788
0.17261524966444894
0.18586170876498614
0.1617827697669166
0.15547507510241584
0.13019112958837328
0.10256140451508858
0.07792330171909073
0.05844380562262194
0.047337743225850465
0.05312525364717971
0.07128292618484892
0.09862281296152062
0.1268193189576118
0.1469761977194086
0.15737483168877703
0.15880541290805222
0.1529747272475454
0.14176352351428742
0.12872253457171462
0.112224827289655
0.09761463819171214
0.09036692719604882
0.09923822522543742
0.1256522908735093
0.154456184172478
0.16480483264694032
0.16537415693618904
0.14318783489689388
0.12562346511093023
0.12433251932408833
0.14494369779277155
0.20027634183427737
0.3318070564477538
0.4718624881486519
0.7995058902633184
0.9319339622531309
0.9312628748109616
0.9125363135511892
0.7437189707611248
0.33127951644599996
0.21492928320903254
0.1899229446693332
0.17685325187434006
0.18467434920631395
0.19473998981139126
0.19991222972687683
0.20340181867266577
0.19329173490260393
0.17291707664434205
0.14698337607394157
0.12789359910501497
0.11655118332360603
0.11455886446971796
0.1161828610866109
0.11521953089905293
0.11341884230174108
0.08392295179698847
0.05442706129223586
0.024931170787483248
-0.004564719717269364
0.06284759227999889
0.11006094032041894
0.13925972766226355
0.16337187633921266
0.19807650973579896
0.20411707245796598
0.19022288630194492
0.18786901229643976
0.16164704843235966
0.1281071628312397
0.0948183424861611
0.06746438286062834
0.047225225398828154
0.04257698752745678
0.05180325134528348
0.07312586702725647
0.098601737488432
0.12187320223937051
0.14220746953410052
0.1585059469129923
0.17134344857278302
0.17952361410240406
0.17800052210449221
0.16392879205618097
0.1387325606520881
0.1105086341124455
0.09792500613932908
0.08522840413448766
0.08193375170309038
0.11870454357953106
0.14523124874409735
0.22149961223832962
0.27979981717846925
0.2762296963939328
0.26894964912693486
0.20168164863661145
0.1300033275002254
0.20762267421849137
0.5547469647993397
0.8068143721186801
0.8634571528234085
0.8526150390266723
0.701548569528278
0.37631571285446697
0.23407774028833805
0.1904724571151537
0.1767799015258478
0.20057125849938387
0.2437979324948235
0.2682400935318178
0.2717930453776591
0.24657194942546184
0.19555164051050247
0.15608246020315522
0.13653047625224157
0.13404966913085575
0.14194654725321731
0.14908077644399828
0.14829185984847973
0.14342266965393333
0.10576222493493123
0.06810178021592914
0.03044133549692704
-0.007219109222075054
0.137145342407841
0.1676683431700621
0.1409261273963132
0.15208411723800347
0.17413639894666788
0.1872822589562395
0.16395239520143498
0.1578330602183333
0.13228656432252842
0.10414505916156973
0.07891246053218111
0.05895481393031675
0.047281403593595304
0.0523965647041016
0.06998476871782928
0.09692007385605263
0.1249482373901461
0.14533711862533952
0.15641676790028364
0.15881835478425263
0.15414036693659192
0.14404835368562618
0.1316268568621433
0.11513533102498234
0.09981578679115383
0.091322017340873
0.09908038092020366
0.12305876394989997
0.1488976236575456
0.1610413684504899
0.16333532645052815
0.1474984928310544
0.1348126196022058
0.13081469717712363
0.14827525992108445
0.19259357111943584
0.308786601890199
0.4524823600468931
0.793824602081293
0.9305006629796796
0.9320102831261339
0.9135875779641911
0.7435108608794595
0.33274367167049407
0.21558624986643984
0.18995895645011382
0.17687906145304932
0.18586578974251938
0.19796767396510698
0.20433615055193474
0.20774391379233753
0.19655000825929017
0.1742968864088937
0.1475460901204057
0.12844423783933215
0.11768490262185277
0.11635013237431599
0.1183859271253101
0.11749258563709787
0.11557008667216304
0.08552595089578006
0.05548181511939709
0.025437679343014122
-0.00460645643336885
0.13604098057746727
0.1666802919642701
0.14081233775692595
0.1521192400971439
0.1743284840950845
0.1874549149365729
0.16421624605791707
0.15812057001772375
0.13254372560296462
0.10434037909108326
0.07903488969036576
0.059018099651647636
0.04727473953327138
0.05230732261568294
0.0698256063892699
0.09671146637003242
0.12471892361394475
0.14513599113157605
0.15629888460914018
0.1588195992193846
0.15428363344265184
0.14433030229164467
0.13198608372659815
0.11549689516292835
0.10009028312166364
0.09144193136789591
0.09906092352110729
0.12273362764487131
0.14820846835473084
0.16057533902426024
0.16308246983378172
0.1480342407381892
0.1359668300840266
0.1316589967347138
0.14874999759497787
0.19173383565687063
0.30594266727430536
0.4500062571638187
0.7929884427228949
0.930259434728756
0.9320530779410618
0.9136699044155957
0.7434723384393946
0.3329849412560785
0.2156906717048252
0.1899644803596712
0.1768813943027115
0.18600986715963164
0.19836443291128947
0.20488163938425197
0.20828010039399483
0.19695370099233442
0.17446785330263254
0.1476158017354234
0.12851203661471086
0.11782423750353367
0.11657010533856119
0.11865602858646379
0.11777088793873217
0.1158329637848681
0.0857216444991488
0.05561032521342951
0.02549900592771022
-0.004612313358009074
0.07976845405293574
0.11904039336511928
0.13754773627445782
0.15693180939865883
0.18721093106832215
0.19725011842453466
0.17928924923579698
0.17491896038507612
0.1482843977293322
0.11674349617871387
0.08703047418314153
0.06320095809150085
0.04702081677235165
0.04693240922604081
0.06010470565800626
0.08401054897806581
0.1107146370976614
0.1327514913244577
0.14890804738468175
0.15876009349098635
0.16322687879661188
0.16239439334042235
0.15534138795995933
0.13963372719175335
0.11890836437846095
0.100145444045065
0.09800601600318379
0.10113979270236485
0.10638472241625381
0.13271143535294536
0.1484476477652229
0.18369708105240917
0.21249953580832193
0.20144052289031975
0.2025998955712772
0.17638463842310448
0.16370158975055996
0.29219589914297517
0.6891090177898876
0.8870568817166264
0.9136646860070299
0.8979838821566387
0.7308532625612814
0.35762149887391137
0.22609124272558476
0.1903990560096168
0.17683313345885002
0.19417705006570066
0.222803939861131
0.23891618241112053
0.24206148978370967
0.22290098178277817
0.18548246329402612
0.15208373750978982
0.13275455228528868
0.12645795350502562
0.13013180990026665
0.13510970079302528
0.1345207318416921
0.13135516498265518
0.09715957770404669
0.06296399042543821
0.028768403146829727
-0.005427184131778756
0.12041036112152995
0.15288713626384612
0.13939748151464673
0.15283488832669498
0.17725652694774555
0.18994512532844668
0.16802613613055262
0.16229239417450614
0.13631763641711253
0.1072319198922
0.08085894276670998
0.05996255665033394
0.04718413631566668
0.051002454652790234
0.06749278750621841
0.09365746586794678
0.12135959299721057
0.14218341942922463
0.1545603310413095
0.1588294072253856
0.15639314272204502
0.14850982280076747
0.13733178598540466
0.12091613548736753
0.10423179927505904
0.09327386897359483
0.09877632958973874
0.11780975123212091
0.13798009688855525
0.15367323406144778
0.15933581555486545
0.15604695916361144
0.1534369470231653
0.14525273251957774
0.1573677673157608
0.1813734287164358
0.2647299642574493
0.4119524472824996
0.7772857063197285
0.9250691809510652
0.9314387836660613
0.9136584297795716
0.7424316391066355
0.33764714575446947
0.2176666631929268
0.1900640157106874
0.17689801577495562
0.18807554466539586
0.20419933990658146
0.21294067929171337
0.21622099080198107
0.20296444236710556
0.17701450395444288
0.14865353432277917
0.12951248719506217
0.11987435260488663
0.11980243931752807
0.12261362756578219
0.12183822725803146
0.11966022409160747
0.08856521468187509
0.05747020527214271
0.026375195862410328
-0.004719813547322052
0.06453819779599274
0.11373271652052415
0.14027387016846526
0.16519876255623125
0.20068901359716199
0.20561706803733745
0.192728163494261
0.19099892819506814
0.16509821364058042
0.131197874432798
0.09702881404844486
0.06872652998329852
0.04738773610248354
0.041508876581641534
0.04964549232189198
0.07026419170357175
0.09538606856899967
0.11895650578610631
0.14037826657700989
0.15840847961143398
0.17357304929358394
0.1843429781449587
0.1844479634401111
0.17094945562814745
0.1446049103001313
0.11383596177223938
0.09816628697450457
0.08287882427921028
0.07907051502676202
0.11805019370289271
0.1472206826273746
0.23259310658858498
0.29699254847493034
0.29590779135016826
0.28646601492904344
0.20984118287655598
0.13641249771635605
0.19993629081409056
0.5240865245054823
0.7829255960327252
0.845169340799143
0.8364439922881957
0.6914146305159932
0.3797512646634176
0.2355616240549882
0.1904145754061128
0.17677641810404524
0.20218121932781982
0.24927621918041873
0.275846274358979
0.2796360743870657
0.25296935979638807
0.19826674820017745
0.15713879401021277
0.13754262097437223
0.13607543889021964
0.14507996194718892
0.15271957100710917
0.15178400094082234
0.14633471210482835
0.10777113230339826
0.06920755250196817
0.030643972700538077
-0.007919607100892012
0.08023639183985626
0.11940341712501865
0.13754997397289634
0.15685710039906386
0.18706318612991715
0.19715004937179872
0.17913345401196876
0.17474043441595233
0.14810875472068358
0.11659975125593154
0.08693504853234324
0.06315015303290007
0.047021407838880605
0.046991258140480725
0.0602133055228156
0.08415231490215307
0.11087153572408188
0.13289135499300808
0.14899294156924503
0.158762186944058
0.16312431836751037
0.1621822668422442
0.1550636088519
0.13934041060491845
0.11867414603521319
0.10003074240816141
0.09801435525800094
0.10138474920293077
0.10681158825649822
0.13298673076633416
0.14857657165332286
0.18325767798428422
0.2116143015620201
0.20050687920626367
0.20178950267499535
0.17619920283916793
0.1647288442370435
0.2937613605351631
0.6907569602037561
0.8878660729273499
0.9141060990019682
0.8983872911706106
0.731125097348552
0.3573296457320716
0.2259673652622737
0.19039542482377245
0.17683442985607797
0.1940909373802093
0.2225298143889446
0.23853219378492674
0.24167655043946284
0.22259987492154684
0.18535436434518926
0.1520322006224448
0.1327061380388674
0.1263601711920686
0.12997894649512765
0.1349265610912161
0.1343369847690672
0.1311890150651222
0.09703883918113612
0.06288866329715004
0.028738487413163954
-0.005411688470822129
0.06274011378292595
0.10950533652167324
0.1390640106640648
0.16296982694559453
0.19747914858252766
0.2037648930451677
0.18964400760362327
0.18715689646467992
0.160875784922679
0.12742608054367877
0.094336936992917
0.06719297281873579
0.04719656738181535
0.04281983373210566
0.05228476839325189
0.07376177835046818
0.0993140629820467
0.12251755134905291
0.1426097131645103
0.1585258578682386
0.17085421586201657
0.17847253331759594
0.17659821023328254
0.16240714434760584
0.1374677365732121
0.10980755675349504
0.09788977241323048
0.08589046097675113
0.08279029597618003
0.11903434330635611
0.1449610881712774
0.2190787074439896
0.2759420250306104
0.27182544611115295
0.2650226228363699
0.19988567879414512
0.12859549785364988
0.2094094720119827
0.5615245086600055
0.8118347083280077
0.8672513511568168
0.8559925537441132
0.7036783973390615
0.37546269118441283
0.23371056546000607
0.19048047141550636
0.17678056820714863
0.2002089837325772
0.24257721546190433
0.2665424375300382
0.2700509677277429
0.2451604654866187
0.19495199331468954
0.15584773146149303
0.1363067208752429
0.13360138980590383
0.14125199321796517
0.1482701723821664
0.14750795142877499
0.14275949656641257
0.10530018289921089
0.06784086923200922
0.03038155556480754
-0.007077758102394138
0.0866916105604791
0.12451121588523467
0.13764063073377528
0.1559245405296537
0.18515320125350745
0.19583817486295768
0.177096300654589
0.1724177302799542
0.1458417936143795
0.11475621516363842
0.08571741794882155
0.06250427127133247
0.04703470584086507
0.0477535112571607
0.061614156138615185
0.08598062042877586
0.11289355583422378
0.13469155403177172
0.1500827508847425
0.15878635055469803
0.16180782411155234
0.15946926409314094
0.1515177176044694
0.13560768761435008
0.1157048917978295
0.09859142279055855
0.09813275617905946
0.1045684303229544
0.11247043866860781
0.13666890302366816
0.15036263398444766
0.17769519083410537
0.20021186294349033
0.18867539209526718
0.19161837066395707
0.17437108546518817
0.1792544343721478
0.3146794605150431
0.7112268971593483
0.8976181571047341
0.9193079981519217
0.9031318362479489
0.734357143238908
0.35349902792201626
0.22434373593591234
0.19034352529091736
0.1768515645984289
0.19297246600736945
0.2189949355091158
0.23358124066797725
0.23672186300617915
0.21873548698950612
0.18371074413605712
0.15136978155402528
0.13208364757699753
0.12510168620211418
0.12801006236634946
0.13256270777279258
0.1319589782219822
0.12902880891310092
0.09546481285889365
0.06190081680468637
0.028336820750479094
-0.005227175303728182
0.08983157780453793
0.12704965706465485
0.13771976601567051
0.1555250855338318
0.18429240314749382
0.19523521334433605
0.17616290085383496
0.17136032870867396
0.14482065427560203
0.11393276058006106
0.08517718253100835
0.06221904548203498
0.04704392888615512
0.048098418768191493
0.062244746489164025
0.08680352308856512
0.11380282260890333
0.13549969742156348
0.1505702487103306
0.15879550202562637
0.16121891771637178
0.15826166053922502
0.14994351571210837
0.133957639774028
0.1143991486234452
0.097967021756032
0.09819193714150466
0.10601010372811939
0.11509797420147667
0.13839546077274495
0.15123146937559429
0.17525095200141383
0.1950942751659855
0.18349527302066018
0.18723525050297277
0.17392211507338218
0.18657469965209666
0.32450546301165445
0.7199258046332022
0.9015945390509382
0.921353694963188
0.9049880807733096
0.7356449550909402
0.35174452496614395
0.2236015294221208
0.19031734795505784
0.17685927564146184
0.19246395580190656
0.21740446726875778
0.23135456763317466
0.23449850297298566
0.21700810949862978
0.18297633036431618
0.1510731438422296
0.13180464706246356
0.124536847143379
0.1271254832568447
0.13149769893174404
0.13088390953370438
0.12804642632406182
0.09474655885356834
0.06144669138307485
0.02814682391258136
-0.005153043557912129
0.06274286337458446
0.1095313216071622
0.1390738575110176
0.16299056798913494
0.19751017458849662
0.2037832639709618
0.1896741294926302
0.1871938577612455