# vtk DataFile Version 3.0
vtk output
ASCII
DATASET POLYDATA
POINTS 5568 float
7.256413962514776 -0.040807444345621904 -20.610437922694192
7.430599531635668 -0.07577712379440671 -19.62878192687261
7.51575577578633 -0.1296186096353208 -18.90545817828626
7.5700227746177955 -0.18229203816419548 -18.191718939869194
7.579991303477253 -0.22603872703207298 -17.45828283212654
7.496613613340193 -0.26991033907757855 -16.72306662766817
7.301648191246578 -0.28127982743504604 -16.031233694640548
7.04391946906335 -0.272518024654673 -15.370953673812382
6.682077639185889 -0.22339435794466617 -14.746699192060836
6.228608620238443 -0.14601944036113151 -14.179060401448483
5.6755080423925826 -0.0417827196064085 -13.65425663127329
5.038399294408971 0.08107866526263459 -13.173018058296247
4.3356983439926 0.22107200067267857 -12.740626519373393
3.594760900272042 0.3741709400494919 -12.34854399203792
2.833953866506588 0.5306830545266594 -11.984448733579015
2.0745533228733866 0.6672524518505071 -11.634677567391849
1.317768888041094 0.778621597605344 -11.274578930841907
0.5839395153347315 0.8559694525868559 -10.889808917932879
-0.11528638074691755 0.8975404413556634 -10.466664245666493
-0.7604131378885787 0.9025957864045401 -9.998297003374423
-1.335109383553555 0.8739065971193595 -9.489472011206294
-1.831820490451872 0.8155479484328052 -8.947946195432714
-2.2511006576512242 0.7353045706100796 -8.376575646357146
-2.5930450366583813 0.6393615933705832 -7.773920217598023
-2.8570899994509755 0.5320128882907158 -7.142431362421804
-3.045460063175142 0.41072699519308076 -6.4780684907793775
-3.163572680197006 0.2748664029439968 -5.768752983524656
-3.220255000549313 0.12350136012551383 -5.020717550714661
-3.2283093981423505 -0.01612995010615778 -4.251166042158685
-3.1946419884721706 -0.13399944167962724 -3.49040591489764
-3.132111817185035 -0.19569343704058081 -2.778844138754371
-3.0438494312244866 -0.2272958957914393 -2.12244112613793
-2.9619741809032147 -0.2205611672729599 -1.4579333634571685
-2.8840543057428505 -0.12610915762975816 -0.8037343860691175
-2.828955912558647 0.05520485744495793 -0.16175165312724882
-2.8143153323934733 0.354790786390606 0.4296285770078252
-2.8330083604786815 0.7630372010738167 0.9746513316217412
-2.872442072051111 1.2099841113123946 1.4611979071675603
-2.953483427866254 1.7275360022894075 1.9007252365942655
-3.0406220074250623 2.191834241157497 2.2517127063449425
-3.1178137215307338 2.5440158440622844 2.52607695797351
-3.1738028986593547 2.785046796731166 2.8052618493046335
-3.229017171481468 2.84526119984046 3.0761381755013697
-3.263994846072838 2.768239584441582 3.3118654172042614
-3.3148137195885985 2.505151648151351 3.584111037912111
-3.383522348816599 1.9673702205847006 3.8518392344587236
-3.3727702013612006 1.2854923496505397 4.052103909405047
-3.283746781839053 0.48724086360467433 4.1745602051377455
-3.0879777848317245 -0.31474888690236313 4.261050944413869
-2.7635289180558655 -1.0853724787644121 4.355549736226896
-2.301389812353175 -1.8016003699285348 4.485839708117397
-1.701650648185303 -2.3964032756919664 4.674078692304119
-1.0238754280394946 -2.8120052735518954 4.935976918378995
-0.31863527598036256 -3.0708866391738545 5.28334598081051
0.39828861516399405 -3.192928661521858 5.684563080051601
1.1134742959641013 -3.2037071782932696 6.099632086272421
1.8462052239839581 -3.12578242881975 6.514889359087646
2.6058521658582374 -2.9630361818165785 6.90325478773234
3.3947044053148927 -2.7099807402079765 7.234133602978686
4.192190619549962 -2.3768396898170736 7.47935740244457
4.977840358426411 -1.975086057229701 7.6328641829879285
5.727491264909886 -1.524248467860794 7.695910982542795
6.427135724636109 -1.0434744160088552 7.681262847344613
7.0655640432439695 -0.5446970811656193 7.602382449483222
7.347189384585717 0.1284342806097251 -20.6519412281821
7.505008696658831 0.07182671710134764 -19.646343581677478
7.584133268678965 -0.005908762107958182 -18.90975679738325
7.63645174701076 -0.07798458238686476 -18.181244503061603
7.649761103050656 -0.1399765658495111 -17.432127118706134
7.574360316042106 -0.20670247105040884 -16.671156092084022
7.386867410900302 -0.23383439833330652 -15.957914551146501
7.1416513468291445 -0.24134895744572718 -15.270398251354877
6.792619692773675 -0.20458881889956698 -14.634944932406253
6.355537333220813 -0.13616421168110074 -14.05887500391874
5.820094206479698 -0.03638355469430886 -13.527698209785472
5.200502052659998 0.08535675211577073 -13.043387934432904
4.5128643213151145 0.2282377086339729 -12.612738317698932
3.7835420394927337 0.387580567766844 -12.226393053131707
3.0319975059679747 0.5513476377524731 -11.870355622055719
2.2811149658514416 0.6906802953897232 -11.531286524418318
1.5259318759299516 0.802456981499415 -11.1829503152093
0.786488097570249 0.880095849308761 -10.811677357099736
0.07624465719291151 0.9229756179660922 -10.404105903453631
-0.5851707245623069 0.9317444114019404 -9.954002099384036
-1.1832584955178889 0.9084457590454404 -9.463137103029204
-1.7093007201949961 0.8556580357005873 -8.937069735988985
-2.1619112657567627 0.7794274222441984 -8.375393263281682
-2.5367615194765496 0.6853851845921861 -7.778173849763931
-2.831884127319362 0.5793202692885601 -7.15103618052229
-3.0504062949446276 0.46328114892828476 -6.491789578838148
-3.19841210068149 0.3348247154432604 -5.7895138619762125
-3.2852019993094284 0.19263812786513665 -5.047758543965642
-3.3220658429633523 0.060365992872327995 -4.279296577632356
-3.312958826901967 -0.051119522322254626 -3.5195653025049
-3.267760729263668 -0.11622308184301369 -2.8063513952400445
-3.1940568495040833 -0.14662411412451093 -2.1467593917431946
-3.1118973539097117 -0.13552611652772567 -1.4880160592114582
-3.0248953566620576 -0.04801163848746602 -0.8381441221356387
-2.954270592320952 0.1266157956356373 -0.1986551523216471
-2.920727245276949 0.41786081626753896 0.39401434649907874
-2.922851987274386 0.8124414203064738 0.9446275211968985
-2.9557054729877565 1.2443910792304949 1.4424973746451673
-3.027060696216732 1.7363671584444016 1.8880772672593051
-3.1043262968243766 2.1640799586907944 2.2545331365952075
-3.168782299190547 2.49302716152351 2.5363946254587164
-3.2311494372999525 2.7092749332647523 2.819018627451727
-3.297148425941245 2.753865214029887 3.096159792172347
-3.345821653342044 2.663023106710141 3.3324686137126043
-3.4174340138349915 2.378477390590457 3.6178605222451883
-3.5166189047047474 1.8028901966737725 3.874839882039283
-3.5175581186231173 1.130125432699483 4.050472100424213
-3.420616369798879 0.3630245889524578 4.159979944508335
-3.2010711415400515 -0.40597410337605777 4.24784445626963
-2.8399559175017717 -1.1445027275341801 4.358647950261765
-2.3379204862215617 -1.8336645648905994 4.510887983892787
-1.7065605678667943 -2.4018113630620608 4.72031065742611
-0.9871353643530622 -2.7955185215358567 5.008877027982302
-0.24027422960253242 -3.0261741708235483 5.385982860268392
0.5069181961332754 -3.114064907646771 5.806021514100496
1.2435125330032466 -3.09246215348218 6.228138821426736
1.9923140952679868 -2.9856844412945533 6.637826599676903
2.76602884690054 -2.796932869904599 7.0109133925883995
3.5688211042770512 -2.5221013402103396 7.317757783491297
4.379964394243093 -2.1702004487441715 7.534670115489424
5.170032440029673 -1.755421741855626 7.6611565149276135
5.920481640010078 -1.2933293802457184 7.703647072378589
6.619248307487744 -0.7998638854040419 7.678188376024038
7.255937450432771 -0.2879143673462369 7.600486486063891
7.5825313963052805 0.5672059999717489 -20.759541624673805
7.69648838305299 0.4519567208271321 -19.686743860726786
7.75963351104985 0.3094831455302374 -18.911675406994682
7.806766186949893 0.184815976417241 -18.142036517260983
7.829131156039 0.07338075158003755 -17.34962560661143
7.775719502872693 -0.05668792573089877 -16.516441751764134
7.608281346879528 -0.1268045205972843 -15.743727693731628
7.396481951648046 -0.17904982011420073 -14.978750416748069
7.07969568463896 -0.17454335777087576 -14.311557992130192
6.683269073042031 -0.1289205924211244 -13.711767773708438
6.191635561610699 -0.04027101568054793 -13.163237396143703
5.615808942705556 0.0787323896876316 -12.67078914046389
4.966205524076441 0.2288808230255236 -12.244568142454066
4.26623107347257 0.4040323122774012 -11.872717596461762
3.537960976897489 0.5862670859035773 -11.537021633240355
2.808644711264754 0.7325869731213965 -11.225034448096826
2.057147005239492 0.8454678473789655 -10.906612202753202
1.302103750202487 0.9239715615957012 -10.569764239524028
0.5613527450615607 0.9703720155245817 -10.201799931989056
-0.14560972733184097 0.9889101878759969 -9.797610124550829
-0.8094424365124959 0.9797246574861288 -9.351105381501752
-1.4181446511026081 0.941375124554442 -8.86196557165794
-1.9644432740991813 0.8753165407757035 -8.321664636836285
-2.430936649223148 0.7856449551205456 -7.7343264251178905
-2.8114525710115266 0.6821496133776005 -7.11372976565812
-3.111369759281278 0.5789190540901529 -6.462170223742349
-3.3383171087874137 0.4685827712239966 -5.772089243209318
-3.503564096523562 0.34895312123518296 -5.040566451318712
-3.615608134123181 0.23492970917902326 -4.269755849450841
-3.67005636246039 0.1394147474565814 -3.5088640883516895
-3.669864603472623 0.0652480202627449 -2.7893283399825695
-3.633957865076041 0.03790978564395406 -2.1198905422375915
-3.551067779939352 0.06015186813740323 -1.4758318522099159
-3.4406289782992223 0.12997040144794425 -0.8361981772395294
-3.3297147868913854 0.2878547991615005 -0.20125043267669485
-3.2470411467623665 0.5588057690126482 0.39744147852030076
-3.206446817147893 0.9200451748660654 0.9651273303583502
-3.2223948975725634 1.3149638994429595 1.494415227670279
-3.269889462117874 1.7452620138161912 1.9570444891214847
-3.3239604622053944 2.089395329110835 2.3680141561822445
-3.357677488836405 2.3645984195192664 2.6715034324331906
-3.437041834710199 2.522850592738405 2.967664158675601
-3.5337780809333617 2.5255588466256147 3.267170604154553
-3.6215483382665328 2.3944603200957943 3.50964613314892
[...]
CELL_DATA 87
SCALARS quad_param_group int 1
LOOKUP_TABLE default
3
1
1
1
2
1
3
1
3
3
2
3
2
0
2
0
0
3
2
3
1
1
3
0
1
0
2
1
3
1
1
3
1
3
3
2
2
2
1
0
0
1
3
1
3
2
2
3
1
3
2
1
1
1
3
0
0
0
3
3
0
0
0
2
3
1
1
1
1
2
3
3
0
0
3
1
3
1
2
2
2
2
2
0
0
3
3
SCALARS single_component_feature float 1
LOOKUP_TABLE default
0.0017830365441322132
0.023480330776484773
0.07973217468994565
-0.05891607807087648
-0.06827564819456816
-0.06661386489928062
0.00018721995279773196
0.015881910982438848
-0.04259803852899208
-0.10289827847577289
0.03030964577378374
0.05811308064799757
-0.033021332977859655
0.043518500920458475
0.0440776366822543
-0.06902708969638369
0.043774328043798355
0.011480022447304367
0.030148490755221684
-0.03429699945460546
0.04336076571083437
-0.014300688504963494
0.056452013544359136
-0.07468591240570929
-0.034011875750352194
0.0388189508680524
0.07205185653256603
-0.16476744076242175
0.0775167926926903
0.044486590484908814
-0.04790271880523119
0.04243241320932824
-0.022810178851866543
-0.00447261127529926
0.11707295738529239
-0.018205900565424295
0.07444123139610691
-0.00394775845832712
0.0063400190089842896
-0.017825773381665015
-0.10185837240216901
-0.10095247976551157
-0.03937433766100383
-0.04031343299225269
-0.00875191184976816
-0.14752044097895792
-0.03996641188387519
0.026186353727834788
-6.540947193923313e-05
0.025104540478354746
-0.04374992881196671
-0.06157864564371845
-0.013302681723358585
-0.036373604661961344
-0.02889291133618919
0.18934187794765314
-0.03957229713718932
0.00044913223257674745
0.006924596223982421
0.06516176604068022
0.05887172466678682
-0.06006499957543836
0.02615965517729362
0.040834320877256504
-0.013293565480550447
0.03335064196091396
-0.03318919944642677
0.006709506677387352
0.027449851948513147
-0.07733791170460938
0.001016560759736912
0.05055046632733007
-0.03858112209460299
0.06652534386164038
-0.02275460108748873
-0.0668320658588279
0.053621432712113316
0.01676240104887551
0.07799278422485433
0.0195989490465307
-0.10597694706626343
0.02288942925558337
-0.1609867185846724
0.119968221769022
0.022211886379777116
0.0692149148195633
0.17751185906433972
POINT_DATA 5568
SCALARS single_curvature float 1
LOOKUP_TABLE default
0.06835503924773641
0.11012735279346922
0.1367325378634785
0.157888808923365
0.1906310190372676
0.19976895029105665
0.18362698510222175
0.18055719797058142
0.15385281986640065
0.12162052867377232
0.09051802766509541
0.06539132844708603
0.04756012942401114
0.04554435108009725
0.057059916551802314
0.07965816362989049
0.10564977417981625
0.12803725358911353
0.1457491192943596
0.15812782123430566
0.16580225879118352
0.16831654030475507
0.16334833109715619
0.14821673445418107
0.12590498165992758
0.10387402443599154
0.09788565048971898
0.09468631937970061
0.09548517518751405
0.125306547765493
0.1452474670990031
0.19587213487228627
0.23641568596125034
0.22779300668309257
0.22585040172126727
0.1825837157893349
0.13867874844318542
0.25125233365119953
0.6380008065796904
0.8599679057013414
0.8976517029638623
0.8829056777444807
0.7198288468410582
0.36378293438873016
0.23091039716389455
0.19220141557092146
0.17786811376617626
0.1971093430514921
0.23016951604581673
0.2486382083339996
0.25166293355245156
0.23023165866664336
0.18816336876494227
0.1528575031200578
0.13366630259699389
0.1289452128800169
0.13419278321851297
0.13986563620768128
0.1390637236536205
0.13510696497565283
0.09974956304093432
0.06439216110621582
0.02903475917149731
-0.006322642763221198
0.06205824591855383
0.09879549744491256
0.12496862650285248
0.1432565326656448
0.18288443588723147
0.19769378290686032
0.18513830661874403
0.18961890362368528
0.16222396669667064
0.13182027846164057
0.10002528007764351
0.0744428680304582
0.054252433546917736
0.04873905219608417
0.05717770727265706
0.07509942664503123
0.09747694154325522
0.11835481646800808
0.1363536242577849
0.15115008371669744
0.1616624567596245
0.16664855585016775
0.16387047854813133
0.14976776640100964
0.12827774505791475
0.1077681050309507
0.0989556581512568
0.09720832988350685
0.09946167533149361
0.12201652993513921
0.1435610022197255
0.1903023625564707
0.22682435754641198
0.2232989820781391
0.2225545742349577
0.1705266928202045
0.11788323894571852
0.2462594253904502
0.6109325169264688
0.8411653692660869
0.8787116513339911
0.858043428118893
0.6919084299111224
0.3489356210898453
0.2517132407239711
0.21616821880876314
0.19238408841904675
0.20397350447189397
0.22593994056796612
0.23583310528396284
0.23699724553906631
0.2161323584549138
0.17720753785093585
0.14522232429531529
0.12870224478001607
0.12614557753023442
0.13164426663775847
0.13568260044102956
0.1325433089553826
0.1257270152390295
0.09163059258372483
0.05753416992842017
0.02343774727311551
-0.010658675382189148
0.05511236648125941
0.08086712799001769
0.10079624760859461
0.11045054760684603
0.16552957149555717
0.19257475272391641
0.1895373466519963
0.21226981845129747
0.18510097567276335
0.16030188257170477
0.12658835746330863
0.0996904852952575
0.07365793353193067
0.05940260527292875
0.0598948753208012
0.06526648480307826
0.0773588492381632
0.09360147187678935
0.1120830757209857
0.13249670756648418
0.14919279990896664
0.1596569812974018
0.1615702455599756
0.15031589032512416
0.13197582503427668
0.1162127143127012
0.10594665547879638
0.10855416612861005
0.12632935286876928
0.13339498422965054
0.15477052122415216
0.19024065629594578
0.2041457162978905
0.21479079906908663
0.21463480448523534
0.1783104989660378
0.1571311723138727
0.34339504692194744
0.6066172320919707
0.8027575021714419
0.8222714754399987
0.7655731319982602
0.6176167399856666
0.3449231137993949
0.32259960136809274
0.298545659524074
0.2406055230776276
0.2192730538933489
0.20860310613013608
0.1989515356586557
0.1987241234028298
0.18118417318787325
0.1528446477860502
0.13037673211153378
0.12009625069742166
0.12147530611685728
0.1260015917234553
0.1254452062300185
0.11732741739986391
0.10590971521370432
0.07499283168473993
0.044075948155775535
0.013159064626811143
-0.01775781890215325
0.09577667225013067
0.15387790910735566
0.17526982689421483
0.20353347685192974
0.21523695584641486
0.20581998179284766
0.18000136486880094
0.15504135640661992
0.1321377008562215
0.09576288701784903
0.06631506068088695
0.0422212215864833
0.03183660047946082
0.03966239991771417
0.059619326784550467
0.09446329560861007
0.12838562371038892
0.1538022923139123
0.1703198855452458
0.1755298515680446
0.17444269370250845
0.1695598132540803
0.15782293350169116
0.14025122311982866
0.11698342317252175
0.09192959011071142
0.09846122645373341
0.09214454049707609
0.10487434310232437
0.15545526965702575
0.16775584629861456
0.22703439269149425
0.26226933156510474
0.24269559616527456
0.23533895567006236
0.21049909714271883
0.18896065351265195
0.2907913099500839
0.7000855266225762
0.8945316832383778
0.936650564465745
0.9256284449894894
0.7880996098008246
0.44538124277627855
0.1934193725787905
0.1555060841860575
0.15305529431810136
0.18123225997992073
0.23528747753073775
0.2754498728087291
0.28780437093422595
0.2676239696834204
0.22131743895412492
0.17912499147233646
0.15198321706893256
0.13945681519028558
0.1423411383548336
0.15190050387130022
0.15829569926293793
0.16442070862899544
0.12559518083963606
0.08676965305027667
0.04794412526091729
0.00911859747155791
0.10100632919979154
0.161882332951669
0.18182951762759897
0.2110452319987166
0.2193551451489641
0.20675852046515125
0.17950061405642895
0.15116018319088184
0.1290485624015233
0.09216658451605521
0.06292768094665441
0.03895459556745873
0.029829587233438433
0.03914524442177181
0.060364473042308554
0.09695646808096348
0.13175658849954366
0.1574507234733011
0.17372040294168545
0.17780568895710958
0.17531680173636188
0.1692928422540671
0.15648274158799397
0.13860787406525119
0.11536959351626526
0.09002881195246613
0.09888645130782037
0.09225446049812566
0.10789750348591806
0.16157204378190246
0.17245677220821976
0.23271929148015627
0.2659574294246418
0.2451031158645866
0.23671904246423098
0.21340488151842246
0.19445826567676802
0.29695082968942366
0.7055905508692777
0.8969481305396882
0.9406546349507767
0.9295336703279085
0.7970525420154158
0.4625021037501688
0.1899435809605315
0.15370040020919404
0.15123906807373835
0.1796455188053766
0.23528644258427656
0.2780257234473056
0.2922949409922732
0.27271174245267427
0.22648335865242247
0.1836607749001421
0.15526945983800358
0.1413451679867087
0.143689681485215
0.15375342582714263
0.16131577716293363
0.16920885132034902
0.12987227845153534
0.09053570558272167
0.051199132713908
0.011862559845094323
0.10006306307356821
0.16044221476695067
0.18065453723918423
0.20970485950935325
0.21861896991388707
0.2065923665976075
0.17958891328690177
0.15184711475632326
0.12959139382600357
0.092796720587357
0.06352171929485759
0.039527988635459116
0.0301778315526304
0.039230122677867775
0.06022625556669877
0.09651109500621075
0.13116233410287986
0.1568113543648479
0.17312649169051966
0.1774113335517804
0.1751714228309207
0.16934911646466685
0.156729287478835
0.13890664687118065
0.11565979486086142
0.0903663103667731
0.09880588615455423
0.09222581449556817
0.10734364936809701
0.16047271503188482
0.1716114489262975
0.23170704406121
0.2653102002033453
0.24467650855664652
0.2364774961098349
0.2129170089179765
0.19352676695214535
0.29589133920856164
0.7047076638800995
0.8965773302769745
0.9399799300872235
0.9288804176155265
0.7954945538703336
0.45939133467053583
0.1905255124304186
0.15395527593038724
0.15152695155817097
0.1799082413018527
0.23530101161604108
0.27760337147698655
0.2915249374033406
0.27182767715517536
0.22556958686959935
0.18284894591248246
0.15467926234452203
0.1410062776816523
0.143449337520402
0.15342529104634006
0.16077952473241325
0.16835514109840588
0.12910860232499993
0.08986206355159398
0.05061552477818804
0.011368986004782089
0.06889888844105356
0.11105905679749815
0.137644252096685
0.15900438663227223
0.19122396449861567
0.19992397658757338
0.18352060529005843
0.17988683358488242
0.15324857092299432
0.12088901240273531
0.08983574089919145
0.06474103451101448
0.04708846841919558
0.04533149893567702
0.05707276897798677
0.0800098722676746
0.1062543289704061
0.12874518777351115
0.14643343911033843
0.15863012498279783
0.16608779931350906
0.16841455301535868
0.1632786640119303
0.14807398521975185
0.125711482083989
0.10357697448826293
0.09783883040004944
0.09453859692705614
0.09537376941089423
0.12574049843000432
0.14553292726059675
0.1964291844330076
0.2371217248960565
0.22814715501879756
0.22609829785306365
0.183480990438167
0.1402685120143156
0.2519687568720619
0.6400238455888043
0.861255952149568
0.8989569447391251
0.8845070460790607
0.7218265279949759
0.3651846597356167
0.2295402896032281
0.19065423447648563
0.17691294441785396
0.19660896023662525
0.2304275780589708
0.24952804125089206
0.2527212423924844
0.23126760177033454
0.188996538438843
0.15345985388061817
0.13406743690408754
0.12917320733315354
0.13438872248868566
0.14017720893819868
0.1395535357516752
0.13582530333719475
0.10037504123986916
0.06492477914254358
0.029474517045217988
-0.0059757450521076005
0.06402817230229374
0.10247790837425608
0.12895036094058082
0.14826457296753262
0.1855300585297584
0.19841348298043093
0.18459541864340384
0.1864586260038469
0.15926028406248582
0.1281953427294861
0.0966474187136804
0.07122877540822706
0.051851359292924386
0.04755755642692887
0.057074988687020704
0.07664826194143431
0.10032577977542007
0.1217534579031477
0.1396587711277228
0.1536214487910977
0.1631644230376593
0.16730284929689
0.16377801134961842
0.14930808785193617
0.12750281324199958
0.10643714171016047
0.0984851039767885
0.09621292133125908
0.09755770961425134
0.12261806846015277
0.14369428096973932
0.19183375167447292
0.2301736456184399
0.22480129976859972
0.2236915563531908
0.1746118181643748
0.12466918551249397
0.2467081808518802
0.6200772279221679
0.8479408180659512
0.885580830161022
0.867420787038819
0.7018279872017458
0.35324529948554173
0.24397092298108033
0.20717302211551455
0.18698632164299497
0.20157311097721514
0.22757562496690967
0.24045523702911606
0.24218028269926936
0.2210632372982902
0.18096004305506347
0.14777668847377268
0.13033563230435583
0.1270615962138943
0.132512070432752
0.13713534427558352
0.13479495682834325
0.12892491573403336
0.09438763104948424
0.05985034636493511
0.02531306168038598
-0.009224223004163146
0.08719731431062239
0.14060929363417823
0.16419153524557784
0.1906877003421001
0.20823842559314193
0.20417569839067945
0.18090161563334453
0.1618658428112563
0.1377011306748375
0.10229738864980362
0.0724535093549783
0.04812285287720094
0.035602943914917376
0.040801277505939135
0.05852686293871371
0.09022418485776645
0.12238702165227598
0.14718889115448774
0.1640938008499027
0.17126302600113832
0.172606023501614
0.16973251390088787
0.15986585693225194
0.14287340121319111
0.11966535695447598
0.0952301679141219
0.09790039776071637
0.09225544399782858
0.10027542196052773
0.14535518879772602
0.16001872136510414
0.2173387923079069
0.2556077989263871
0.23850394580466175
0.23283950104529064
0.20450020680885592
0.17788795803112312
0.27926550078383017
0.6874813847268377
0.8884009956710717
0.9284202256208626
0.9173713568112213
0.7714501134619649
0.4180983262791567
0.20076007421008857
0.16095650382434942
0.15742906674409035
0.18462584016846326
0.23481020367339717
0.2698592325956446
0.27914906350577834
0.2581908040605302
0.2122516413981798
0.17146741820898373
0.14650298205739481
0.13630310370957993
0.14003145203806716
0.148651905016437
0.15304299504945063
0.15620752370095034
0.11829320433331941
0.08037888496568849
0.04246456559805756
0.00455024623042663
0.12182147564791092
0.19338800675422244
0.2072005506122028
0.23943025728279288
0.23506930378758836
0.21012462968240364
0.17767470688958745
0.13713530542081387
0.11833750259457254
0.07993563720467341
0.05134911522902748
0.029756554021139497
0.025389241366378715
0.04002059867508109
0.06576458386027309
0.10639068196744711
0.14362826507810098
0.16983220849602731
0.18500148296004965
0.18497318695115572
0.1773437222308407
0.1672691566579164
0.1505762140614273
0.13177655288661302
0.10902733110122992
0.08306189462517961
0.10099845200762944
0.09375358590478909
0.12074989842879946
0.18533940194966414
0.19075982824512397
0.25366515625043723
0.2786212450472814
0.25374240041837026
0.241308810272343
0.22097530143539168
0.20974560171591797
0.3145556868142838
0.7146905027840285
0.8990895495429605
0.9515886808614469
0.9398565694322593
0.8265049731262591
0.532670498393469
0.18059123796979226
0.15381970334424575
0.14809830685948552
0.17579275854167212
0.23355180262291417
0.2831978335825369
0.3053316132723189
0.28889684849262076
0.24489336134568515
0.20099238923700252
0.16805623665507435
0.14864329692999664
0.14871584175739613
0.1604503005291108
0.17243326983474003
0.1872595640112802
0.14613092737736472
0.10500229074344924
0.06387365410953377
0.0227450174756183
0.060505562477458315
0.09575062635737268
0.1215239026211968
0.13886641002614478
0.1805687317191872
0.1970533801961223
0.18563830309605173
0.19244402321373477
0.1649157488950701
0.13512567990680432
0.1031050254566344
0.07737194324746931
0.05646018933380121
0.04985677703129631
0.05732552475740397
0.07375157871531443
0.09493421769289707
0.11529998993019897
0.1333767457408036
0.14890936822673329
0.16026852227042926
0.16599771013367864
0.16387033192233066
0.1501030142858121
0.12892074872710088
0.10893087331586018
0.09947248384163364
0.09821101382384008
0.10160556488126402
0.12195919900332138
0.14383085345729876
0.1892843731753147
0.223837708462498
0.22201889331193989
0.22154965096541523
0.1672996471922612
0.11364488960112161
0.2483241672538205
0.603985393307748
0.8352729277709343
0.872347406361191
0.8489787646933885
0.6828979814075611
0.34586891095682737
0.25908069416493495
0.22476817420501244
0.19750442045944336
0.20610150861792595
0.2243256939293096
0.2315721975884737
0.23231397024152023
0.21172199264994285
0.17392016884474143
0.1430386266298319
0.12733188783383434
0.12538214251418192
0.13088701206770995
0.13438940925833537
0.13055270419840195
0.12294160274753353
0.08924009957557451
0.055538596403615484
0.02183709323165646
-0.011864409940302564
0.05626615205806693
0.0858931049948268
0.10891299640272926
0.12213060592795273
0.1717432266807674
0.1945044723061431
0.18777960509463587
0.2037523006432497
0.17612876050609005
0.1490268871835673
0.11606177414380091
0.08968667672424378
0.06589093045447801
0.05492524276507321
0.058453990722901146
0.06870103146829758
0.08483229003368543
0.10295847741119028
0.12129659477455848
0.1396794602804395
0.1542219501233154
0.16276499369750122
0.1630640470705113
0.15069961484145009
0.13099303543616175
0.11329269225421908
0.10253610911218568
0.10337971631042259
0.11384209866781146
0.125987904374836
0.14820355292387588
0.18816105207618905
0.21217557417719785
0.2175191402174329
0.2176075114862
0.1666008625048115
0.12816302744746183
0.2916199630078106
0.5979689526401817
0.8161830036452402
0.8449137168364133
0.8057896918840564
0.6458712992857952
0.34095118879939607
0.2927888148774045
0.26414372284190235
0.2206263589687635
0.21413830930744066
0.21634030311144697
0.2134682895664851
0.2132456762741432
0.19416573723500713
0.16145277041556444
0.13524894051988687
0.12269936703340817
0.12284956919827852
0.12801800214300466
0.12926217958126668
0.12282895052568145
0.11260911446187437
0.08049393476824969
0.04837875507462501
0.01626357538100033
-0.01585160431262435
0.08252976296067005
0.13328606296826306
0.15791916999992903
0.1833234278329626
0.20425229993021002
0.20321214948480532
0.18145164920845086
0.16589389029169546
0.141065423637283
0.10628116809645331
0.0761869377228218
0.051702322936199176
0.037972885556840474
0.04161771276549301
0.058018253027230085
0.08781477555283464
0.11881086509307542
0.1431788432109175
0.16028648077294844
0.1685995327488424
0.1713516511369098
0.169659594592103
0.16088137602551655
0.14425722896677268
0.12115146257565727
0.09714796213380465
0.09769246344945837
0.09250530080830849
0.09810209179637128
0.13990576908243013
0.15587427259734055
0.21191070466298115
0.25157805416830686
0.23607747497416365
0.2313363402583161
0.20042645578654408
0.17050112338906706
0.2723835358570141
0.6784374728491152
0.8836738120923824
0.9228116313620212
0.9115456821499253
0.7610674479151411
0.40378974826714864
0.20593001490674914
0.16562227401952928
0.16076109481296372
0.1869712833934877
0.23423614396696002
0.2659722566752347
0.2736422131659544
0.2523822932139589
0.20694158437366547
0.16715206353979872
0.14345778279117066
0.13455081736019814
0.13870970433876262
0.14674276701659394
0.14997795494059887
0.15148321973047374
0.11411323977991598
0.07674325982935823
0.039373279878800474
0.002003299928242719
0.05808209630709901
0.09056707120225617
0.11524024517207154
0.1306831733858547
0.17625621202432856
0.1958314081098702
0.18663579713800993
0.1978591362554414
0.17019380988427021
0.14164267323656624
0.10917757548464095
0.08314469536988088
0.06085590380393986
0.05216357145105778
0.05775764228505314
0.0712642576360739
0.09007789395181089
0.10940872989231895
0.12762060703518133
0.14453829528471981
0.15746478716030182
0.1645755072525983
0.1636473889820681
0.1505404899099821
0.13001634271396575
0.11108163813204602
0.10073435707095425
0.10044849474674426
0.10678336767865323
0.123059784917139
0.14529713022436194
0.188185565598016
0.21816981500532392
0.21973792489569702
0.21965006009664187
0.16384705755140852
0.11511515052120955
0.26304634792826365
0.597213547494479
0.8256038207489748
0.859590406450582
0.8297134541666132
0.665318184014401
0.3420527810094658
0.27438193416969126
0.24266834114950653
0.20806833228612492
0.21007513650939874
0.22081419846669945
0.2230963031337086
0.22323376715867965
0.2032848964042904
0.16780739009306525
0.1391183579118864
0.1249434965421293
0.12406550642450684
0.12948228127554035
0.13192472384897766
0.12680178216776739
0.11781740401395312
0.08487460857428235
0.05193181313461158
0.01898901769494081
-0.013953777744729959
0.05799612217444156
0.09036791338848098
0.11498568298041945
0.13034592609549642
0.17607847254937806
0.19578014338175762
0.1866788543149254
0.19808676338483136
0.17041924173046658