# vtk DataFile Version 3.0
vtk output
ASCII
DATASET POLYDATA
POINTS 5568 float
7.4860982273556775 -0.08304803423102482 -20.704334913309495
7.656040758797381 -0.08323555461466425 -19.655335344637756
7.725238298584097 -0.09825775673358245 -18.921005226931157
7.770929417924891 -0.1079867235524161 -18.20952663780497
7.783352559536081 -0.10649554409847325 -17.468575523669557
7.6837572138718775 -0.11956716071051665 -16.74235899559563
7.473887870805799 -0.11849997406378165 -16.06283723639799
7.179575555484253 -0.08901477771447919 -15.469080309154322
6.819215306791908 -0.0477364922846506 -14.876668436909778
6.378611870967881 0.0012579713698460601 -14.333213725318023
5.841484063571786 0.05910373178062724 -13.83410557615748
5.217478061692624 0.12525018729786538 -13.34432028414174
4.516179950048256 0.20309144493183107 -12.902485048946277
3.771923083525818 0.28495015865904844 -12.500884979862608
2.9933823721711663 0.3711583690024575 -12.125960379534382
2.2149389902427297 0.4412519651854332 -11.766969166289526
1.4430528830495066 0.4865564030910091 -11.4002904468352
0.695770512645342 0.5010671720722084 -11.008563676279683
-0.008581077921493652 0.4864390918823508 -10.580898024722908
-0.6541356107233732 0.44557471936596227 -10.108627519357936
-1.229368997124511 0.38531557109445697 -9.59521402884585
-1.7301740653441122 0.3125135539004657 -9.047485626158505
-2.160800082318946 0.2340669551136199 -8.467098561373723
-2.5239320307231012 0.1541302532937876 -7.849402597221537
-2.8187144966282887 0.07498920582141325 -7.190906149623138
-3.044852969834808 -0.006216564791843376 -6.486072966832455
-3.2043481308119266 -0.08664555319890166 -5.729893450409474
-3.3041320037949746 -0.16789034021176252 -4.92954964195241
-3.3524232951693547 -0.2327814420278317 -4.104157212340095
-3.3533093524929685 -0.26626295220247925 -3.2973060300862893
-3.3173819397542488 -0.2553316297626329 -2.543171204780815
-3.2518196735409233 -0.21546143851066565 -1.8508350562376106
-3.1818310772338445 -0.1459585831596433 -1.2038025169592992
-3.1082062632300755 -0.03686101579367074 -0.581224833351928
-3.041026348351502 0.11917695739952328 0.034087454144054896
-3.009698168273005 0.3566278386334256 0.6391874570616122
-3.0279145650054557 0.7026029091462731 1.2428377921386957
-3.085744196452352 1.0694473756651284 1.7937469020544794
-3.228127597803017 1.5576254396267508 2.3095948007003457
-3.378123744941396 1.964852996619987 2.7070647957180305
-3.4747527328150674 2.274154415314829 2.956991557010904
-3.5294757737858573 2.488978737789805 3.167432525655505
-3.5553343413261564 2.5742401933461436 3.3552644803766576
-3.5482065070961286 2.56072556878461 3.524591630691386
-3.5274429255626876 2.404297842076237 3.74865979063834
-3.50030798158336 2.0138407153026043 4.010751576651289
-3.4044451107207196 1.4039578114181714 4.254625159184905
-3.25851617469883 0.6138517685450295 4.404148417148296
-3.017319187887513 -0.19951076508859544 4.483526529153267
-2.6624987936887825 -0.9770666879107808 4.56499377360493
-2.1887667963137116 -1.6902247179074446 4.690973508150092
-1.6226281560808606 -2.294958236114809 4.856675535400996
-0.9955944625180425 -2.740588317658528 5.062727955661227
-0.3421134240911349 -3.0404919888265054 5.316589801461154
0.33786142855845436 -3.218581428409879 5.62723868390587
1.0460285653527692 -3.2946284271418502 5.9709488397034
1.7870583632183865 -3.273784913238781 6.33370561106204
2.5629335659571666 -3.158460232475248 6.691113655308654
3.368047463476985 -2.9353055363845075 7.0153177170218814
4.172249058496006 -2.6230737068429435 7.268940429128118
4.964847254688647 -2.2374845526374645 7.439605366467078
5.7264455300108805 -1.7951077487676033 7.523562072486574
6.440147402869014 -1.3142182961483446 7.528083965046076
7.091133780782885 -0.8085948017465733 7.46339423175449
7.556833792698797 -0.09149913423472994 -20.733359941620716
7.725014883824934 -0.08141122266491287 -19.662972653322594
7.789305824177087 -0.08535191315219706 -18.92458055133915
7.83242860681742 -0.08277774469122375 -18.21294214157647
7.845679167213533 -0.06813694377874197 -17.468852789866606
7.741422973849695 -0.0726184123970433 -16.74441406284287
7.52728212833349 -0.06824042135869426 -16.067934015626353
7.22240379117095 -0.033156478527910975 -15.491858336111722
6.862805572619062 0.005543987999780668 -14.9084770087194
6.426284568018326 0.046086975918653 -14.3717868544617
5.893955716722875 0.09041657945028292 -13.879735920064348
5.273630336569149 0.1398419522810326 -13.38686313039962
4.572361087164399 0.19935790155026656 -12.941784269832107
3.8263911026938633 0.2602593776181914 -12.53694504391579
3.0417234377715907 0.32560943226757 -12.15847062700005
2.256818563710469 0.37582221990198844 -11.796536566955544
1.4795154535247466 0.4013134179806438 -11.427736339222749
0.7272347922969875 0.3969145737800722 -11.033825531503197
0.020448274699520708 0.3654487433018173 -10.604807050870317
-0.626029356882776 0.31090161948207135 -10.131527386968289
-1.2021613188615146 0.24129240550357955 -9.61703281580747
-1.7049288733993586 0.16428206103034373 -9.067806674184286
-2.13978502527488 0.08648087074686095 -8.484959280104851
-2.5102148577483088 0.01145854415970178 -7.8627667287843055
-2.8153293389404817 -0.058994235268213804 -7.195862905494637
-3.0541128212013597 -0.12767493534646746 -6.478126302951225
-3.227431852591917 -0.19080822749392157 -5.706580352835731
-3.3415527257323165 -0.2502287250446455 -4.88858890997381
-3.403171617958767 -0.2918577583546288 -4.044203685601823
-3.415334714075083 -0.29924970668776324 -3.2211013629396295
-3.3880019573251987 -0.2659335124311168 -2.452314699678418
-3.3296771893575627 -0.20388429133006045 -1.7473362401217556
-3.2630516088125567 -0.11567354567277137 -1.1043982134394907
-3.1904563656973695 -0.0025033917888300644 -0.49110329605549496
-3.119409303216687 0.1460726038213382 0.11646547730056078
-3.082635741858479 0.3654335313877858 0.7268056875444232
-3.1003457723083803 0.6931768650155286 1.3501084826666772
-3.163822244126103 1.037377540112458 1.9233275516473092
-3.3254205540877178 1.5172726779731476 2.4645838941529092
-3.4947917338493357 1.908694905987994 2.8784959218756927
-3.5965335886145584 2.2054679228657914 3.1217595117220904
-3.650933272665741 2.4123802745403924 3.3137927681146127
-3.669834452509263 2.5036396729352903 3.4816612523395714
-3.6529930624001277 2.5047220781385304 3.636639266426091
-3.6150356868708973 2.3729214376825665 3.850613364686405
-3.563850870414992 2.017715780317837 4.112194410291505
-3.44345235189178 1.4258644498062867 4.369090641196136
-3.2801276979988043 0.6380338181913788 4.526563997506167
-3.02445063099725 -0.17831613240586708 4.603858298538741
-2.6594732379885775 -0.9573091359104745 4.681812726503983
-2.1812904182617867 -1.6688943381628585 4.807043167191044
-1.6241557098843646 -2.2760254652786567 4.966663183414697
-1.0101533522880444 -2.7303403252929397 5.157387559298501
-0.36905852998816613 -3.041891942873514 5.3858858521481014
0.3025481945841263 -3.235545780008614 5.671836271429205
1.0107324522655288 -3.329978380279506 5.995713877415981
1.7556956022347927 -3.3252100821805515 6.343428902805971
2.5373982177397822 -3.223252902024927 6.691568516531049
3.3479277042900843 -3.0084617633506188 7.013268988251379
4.154543636074736 -2.701988835801618 7.268734311993039
4.9494095804731675 -2.3208715840007885 7.443883745684819
5.71469539452659 -1.8807094062250351 7.5336194671623105
6.432663185587207 -1.3994352932241305 7.543646872646041
7.087419259754672 -0.8914022448085893 7.483261595934524
7.178791182801363 -0.046332662652755874 -20.578237162833346
7.355870747024478 -0.08891106805572385 -19.618272941740347
7.446406017770942 -0.1516785763885069 -18.89910941798604
7.503462411040668 -0.21509783609049435 -18.185766515622607
7.5123648794038065 -0.27026187712906774 -17.455677589123347
7.432944537774978 -0.32092354445768595 -16.720185285199413
7.241595770800266 -0.33433840211804666 -16.026824133361224
6.993539196443013 -0.3302413177100491 -15.348120913053554
6.629884849521722 -0.27741448470556385 -14.715406537922897
6.1706803771726495 -0.1904394597666152 -14.141244086383727
5.610555912847142 -0.07152507220053173 -13.60905732222431
4.967021879889968 0.06854740603588189 -13.130240670984167
4.261538181251999 0.22686423602239814 -12.700012440802164
3.5193480600308504 0.40065809475368114 -12.309616370972874
2.761753964203759 0.5772777402018372 -11.947359265598683
2.006107043395781 0.7332310194244942 -11.598722159907515
1.2526827910798193 0.8641152264775178 -11.238868645067777
0.5225833003453834 0.9599647057053844 -10.854275336654254
-0.17460926386127018 1.0180002628877969 -10.430413922417607
-0.8183155837262949 1.0362167111381404 -9.96094034303017
-1.3905967899345266 1.0162442465635906 -9.45136711755107
-1.8830846169950173 0.9615274645354664 -8.909944991831274
-2.2955840990220415 0.8803296480049378 -8.340133678564513
-2.628004125552441 0.7795245080748406 -7.741133664530133
-2.8800850169234726 0.6638914329081521 -7.116636851352739
-3.054690158067612 0.5305297089542182 -6.4626637334998485
-3.158023631817829 0.37786056439207266 -5.764832169242167
-3.1993173998567492 0.20512977122874276 -5.029364008250496
-3.1928469557265102 0.043045338958362156 -4.273836157646508
-3.146526034668651 -0.10013207334344318 -3.524086068830678
-3.07439963715499 -0.1824210749184268 -2.823388943140673
-2.977870410660733 -0.23475366084928295 -2.176116833232193
-2.8923052894754995 -0.24736513636588725 -1.504566525292642
-2.8140555459587415 -0.15663200992881995 -0.8402825705394147
-2.7643099924418104 0.03312879555028306 -0.189845269852008
-2.756675183143187 0.3528267087794227 0.39840676654427076
-2.777333712198182 0.7819933342578145 0.9273117248563779
-2.8122099270648895 1.2565114159300714 1.3959520713578326
-2.876997257575696 1.7869769138219116 1.8144605636983562
-2.9469594622563435 2.2748468996996714 2.151845416604062
-3.0193900863283667 2.6431349509107283 2.4330957194375835
-3.074949751652582 2.8951417440753078 2.7343457951712473
-3.13947742089175 2.947891635210468 3.0340061309520143
[...]
CELL_DATA 87
SCALARS quad_param_group int 1
LOOKUP_TABLE default
3
1
1
1
2
1
3
1
3
3
2
3
2
0
2
0
0
3
2
3
1
1
3
0
1
0
2
1
3
1
1
3
1
3
3
2
2
2
1
0
0
1
3
1
3
2
2
3
1
3
2
1
1
1
3
0
0
0
3
3
0
0
0
2
3
1
1
1
1
2
3
3
0
0
3
1
3
1
2
2
2
2
2
0
0
3
3
SCALARS single_component_feature float 1
LOOKUP_TABLE default
0.042558353706161046
0.05525270528642899
-0.012591607246896598
-0.034983184707005545
0.002829665769299501
0.07311650383394452
-0.020862366277738315
-0.029135980635182305
-0.02629063269282231
-0.040459382224366465
-0.06915708888348564
0.006279341382517033
0.03893367595870935
-0.07611332846297651
-0.025834623799801837
-0.04896306235778912
-0.013237990736242666
-0.05960704380778633
-0.03130766951406766
0.019326426936987454
0.032113268293183915
-0.042576334639335696
-0.009965785089157266
-0.0943821245866221
-0.004662217593078104
0.03957384190638149
-0.01954785479604637
-0.08173995735729186
0.08500878817898004
-0.018630872600723963
0.007732877306555731
0.004664955958342614
0.11622636234249453
-0.012314761723970679
-0.016451283357978845
-0.029026814761432262
-0.05324042680775119
0.0423466884976939
0.08366592250927887
-0.040523514842375465
-0.06936922887293617
0.007115173949571417
-0.052950229872181565
0.009441460525783346
0.02969497451199514
-0.05701588182223863
-0.03888442100541391
0.061584385928811956
0.06596944232105623
0.006311059788625846
0.020389237264444915
-0.056642175158265105
-0.04757233347838939
0.0161301554433632
-0.008060559458764072
-0.05735040942807203
-0.11730152913435958
-0.07839194564594902
0.09714851017220485
0.1704649237546349
0.015038009850548649
0.018905471076486543
-0.1037045854445958
-0.008149874220690023
0.0022808538192646347
0.08674952318767629
0.01213461188245889
0.027223148954911354
5.1902256244060196e-05
-0.054122916785809286
0.019643499956350848
0.00552693490092232
0.14361741963012076
0.04073346574991525
0.08461680989935444
0.034496432426520146
-0.0030685488123519504
0.022313725897013727
-0.03917081128989734
0.007797517350391211
0.08646310533727812
0.02334931360964189
0.0955690487858397
0.012013653567027542
-0.032539971808552406
-0.08621508493000804
-0.050286732995017944
POINT_DATA 5568
SCALARS single_curvature float 1
LOOKUP_TABLE default
0.06116268791748712
0.11373040850450129
0.13866238122154184
0.19288149394201998
0.20617523178624172
0.20089582569356818
0.18756836735086088
0.14599833117097163
0.14560833763177589
0.11796310740685306
0.0857742862066815
0.06894737464050608
0.048425886759538135
0.04505164261284115
0.0544228054963491
0.07670739187108017
0.10107410878516411
0.12060728496992196
0.13410186002221505
0.14150472067456188
0.14535019067715055
0.14546097628290233
0.1409676518483676
0.1287527411944567
0.11177651837432732
0.09770869379743254
0.09254847280075151
0.0925502929822454
0.09292322749279727
0.09815716867780622
0.10120386009159947
0.12791796702637534
0.16142780553697608
0.1699157256706675
0.20281773076024137
0.18888728208914166
0.21432645981321607
0.29350985199704954
0.7050831142254197
0.9415395669415875
0.9607890415050306
0.9601112920270074
0.8784995260075085
0.4665848478762343
0.25286783366808524
0.18483003759886565
0.1722030319498691
0.17594177257712457
0.20400027996308662
0.22909532567223997
0.23888094455724607
0.23034727633453378
0.19912608693190406
0.16475524735550806
0.14178377881895685
0.13422704111183692
0.13352150274943725
0.13706431895344479
0.1364394933212195
0.13518674380818974
0.10117822734473454
0.06716971088127935
0.033161194417824155
-0.0008473220456310382
0.05948658395238193
0.11533927136434931
0.13955777439466105
0.20452858728733753
0.21220534025873186
0.20274042272351958
0.19023899544478629
0.13608647988200853
0.14353037398521262
0.11715353366163583
0.08444169830231271
0.07010268722347107
0.048779181621014904
0.04488375414749956
0.05360914206717021
0.07572454212165246
0.09968510798190382
0.11866886932390855
0.13126238452649336
0.1375332805932807
0.14045805081289342
0.13986664441926913
0.13535053471638242
0.1237471917821685
0.10793708546902449
0.09583556063430024
0.09078532798835821
0.09153556020661105
0.09335181526829588
0.09109761836257803
0.08854823796828253
0.10806003264059033
0.13831399884240392
0.15315562531547466
0.1962134567786747
0.19184453105266328
0.25404909279588317
0.3222947364444188
0.7194058656272674
0.9534524548653913
0.9685755485879594
0.9692316790552612
0.9051071260986813
0.4994876245574766
0.2633426383586988
0.18585882070909293
0.1731368931844139
0.1702719426423224
0.19533106433873407
0.221736084921617
0.23318248648287024
0.2288811766989336
0.20154108035150933
0.16817019478337908
0.14477087903919705
0.13663047240109766
0.13409746243024492
0.13676322461784293
0.13574269162785935
0.13502253184559876
0.10141588292738409
0.06780923400916941
0.03420258509095474
0.0005959361727400636
0.07168856096394902
0.11109402490691203
0.13803402276638665
0.1509405961874896
0.1884526515475603
0.2010241889746954
0.1835744200013432
0.1895844670046384
0.15545943940791496
0.12164322798979074
0.09077301961889041
0.06331136697706823
0.04657171176103376
0.045284016198631115
0.05781871164125998
0.081038750800719
0.10802672332371323
0.1317211728682503
0.15096376862745992
0.16482284612497614
0.17347615390428694
0.1763997541980969
0.17081994864848749
0.15442213617569459
0.13000355894001933
0.10505474521669857
0.09912190770017472
0.09462428605572762
0.09691945211739371
0.13450349610901285
0.15853585669850712
0.21612656200536473
0.2580049243925516
0.2447102424111063
0.232564798819737
0.18272008211770832
0.15664630573291027
0.2709517761806218
0.6309511944840157
0.8341486207985165
0.8685489541060651
0.8467433054466751
0.6648144355206109
0.34095849265469114
0.22539345154155865
0.1942984180600491
0.18070431623552874
0.2031784450348458
0.23742795759928517
0.25435349200210267
0.2553882397590645
0.23046485586056314
0.18556770625003272
0.15035857654936066
0.1325803079784235
0.12864507459851085
0.13551562730213415
0.14178103906308132
0.14078532058733398
0.13617467786301146
0.10025563849001674
0.06433659911702203
0.028417559744027307
-0.007501479628967411
0.07673378634483487
0.11157786893019732
0.1391470515317331
0.13856485806006982
0.18529703588223398
0.20440966545236872
0.18504889302397287
0.20650106175579094
0.15942092209068295
0.1230866506229368
0.09238866546282884
0.060852984860507074
0.045709593988744995
0.04512867109002264
0.05907104292515017
0.08276684834852267
0.11117485419900673
0.13731205949138037
0.15964571148577913
0.17677930046768908
0.1877858136030018
0.19177416115716062
0.18514225301426213
0.16626232729308968
0.1376897888734954
0.10736355522168851
0.1009581853487366
0.09420127343422195
0.0999590902990833
0.14985782248877694
0.18073985595918857
0.2491303827661421
0.2923627701269367
0.27174758825833645
0.24302031959117748
0.1811796333760944
0.18250703722425787
0.29704266822045483
0.6078515582344478
0.7809216810416982
0.8027168511179714
0.7651861773590568
0.5652772817535808
0.30457394790346076
0.22092197896517807
0.20276423873919
0.19036268449726476
0.21554110452620018
0.2488183565669545
0.2612110472599291
0.25818126051499307
0.22746743986257967
0.17875703211135366
0.14495024174173893
0.13066092791005293
0.1286802042113453
0.13837422744877534
0.14525120920539925
0.14312051704261816
0.13670305760830184
0.09994213256717469
0.06318120752604753
0.02642028248492037
-0.010340642556206786
0.06836915502989982
0.1112240306902068
0.13772171636933783
0.16109589064713703
0.1920340829818989
0.19978246052529555
0.18357075457964622
0.177589250468978
0.1526632216745263
0.12061318892266826
0.08951670751274309
0.06496491864154594
0.04713437012499303
0.04530546907207722
0.05690398029050634
0.07982856572228347
0.10595101948269649
0.12820501113861524
0.14555941269189365
0.15737268540115873
0.16454071350236418
0.1667047118962492
0.1616292600780962
0.1466626000075367
0.12472619409391343
0.10318505636022293
0.09752292805062103
0.0944663192380347
0.09504619402107849
0.12384711554652475
0.142622177703685
0.19200544260658853
0.23240148480956194
0.2243833181145004
0.22462700464052682
0.18379263478411956
0.13726847192284605
0.247905582930385
0.6421612191662863
0.8672572451128647
0.9052125812646125
0.8922536629173947
0.734680792211852
0.37123284159644127
0.23044322358112937
0.1897294853406789
0.17608679272038327
0.19509477535384293
0.22883516369903173
0.24848372736679578
0.25217404748657796
0.23151878096721953
0.18985379534202082
0.15425548225582103
0.1345061248387156
0.1293835455543154
0.13421576463310078
0.13990100921280735
0.13936152893724996
0.13585348734293332
0.10049357908972215
0.06513367083651098
0.029773762583299807
-0.005586145669911363
0.05783847482399562
0.11841384398004086
0.14141559138369889
0.22187826099200045
0.22285601444385528
0.20763211007322488
0.19621531448609222
0.12367202321501214
0.1408824081335179
0.11607629172533629
0.08247754801462577
0.07160612041941374
0.0492175927576833
0.04458408467417106
0.05245901641822574
0.07436306260047178
0.09788519562214369
0.11637009680141595
0.12798798550421556
0.13290212620015301
0.1346293083102269
0.13298825557345498
0.12826299073585531
0.11730535404001222
0.10282119948574035
0.09314053623401639
0.08821441441781036
0.08982747260812766
0.09475760801199364
0.08389708295472516
0.07360666440676913
0.08359886984401277
0.10857608390497517
0.13146853868610334
0.1878286179233058
0.19696351336646964
0.315980894136916
0.3864270542916414
0.745310347194264
0.9636485814794352
0.9746803695607734
0.9755478027998317
0.9260302148434206
0.5433303648548461
0.2808925423104269
0.18972668346250937
0.17585474492007294
0.16257098221559943
0.1826571413150024
0.21065061888469272
0.22414609426932802
0.22610365530091625
0.20453336868633906
0.17293639597292673
0.14944049805762616
0.14064018171186082
0.13552084210339882
0.13681154813057986
0.13496133934361898
0.13483143481077647
0.10176343460040407
0.06869543439003167
0.03562743417965927
0.002559433969286873
0.07353254162171838
0.11118514788319382
0.13835277797032927
0.14603685128637817
0.18699894786338128
0.20206011428989254
0.18391989524087962
0.19590826368610337
0.156941891984207
0.12218585699926096
0.0913987930355245
0.06240909714433732
0.046258830308871776
0.04524374907674174
0.0582929675433125
0.08168236432912877
0.1091732529075442
0.13372288200485097
0.15406054021700352
0.16908846573761993
0.17858427608148436
0.1819073468308587
0.17598568722984378
0.15872907388414548
0.13285091273536773
0.10597082285818805
0.09987423813523626
0.09456040869074629
0.0980276120868953
0.14022082601765035
0.16688628336692501
0.22863682568832153
0.2711119379144499
0.25509687367462436
0.23656145010929241
0.18215136716274183
0.16682102266762186
0.2817772277844041
0.6232670609920146
0.8150226293457861
0.8457203864912551
0.8183854502715255
0.6272400227874592
0.32650727276310315
0.22338123230254617
0.19720817140872998
0.18388676666616785
0.2076625830053566
0.24178488771113038
0.2571126056566464
0.256671766896374
0.22955461286899084
0.1831271168994557
0.14832472782797032
0.1317533862644411
0.12850891195136346
0.13644172107470404
0.1429633266710072
0.1416119078980123
0.13636129545895542
0.10013524320735072
0.06390919095574601
0.02768313870414131
-0.008542913547463393
0.07540326490855816
0.11138014113290101
0.13877923303837972
0.14151969070756507
0.18588071987337723
0.2033490566732972
0.1845000107907204
0.20214752325019822
0.15840383437982597
0.12271822531052068
0.0919908147200216
0.06149911452843035
0.0459391289045783
0.04518336654282017
0.0587540494145096
0.08232036820139167
0.11033993946566648
0.13580063062757358
0.15728885188959868
0.17353405562340235
0.18390414697678972
0.1876199774533613
0.1813024140005659
0.16311940875511927
0.13569309136942456
0.10681523972467022
0.10054209934015905
0.09438883255952886
0.09916078374155095
0.14589372661065636
0.175070757314117
0.24078650350691894
0.28374245792943115
0.2650328457627751
0.2403899690910841
0.18157347487890302
0.17626029974576257
0.29117141725372414
0.6145211324345375
0.7951939708052084
0.8210540804949014
0.7878210522384915
0.5904792964960788
0.3132522648448668
0.2218007170983661
0.20038354640984185
0.18752996403481595
0.21224619452316906
0.24596761470902223
0.2596061128067073
0.25765818990792855
0.2284112420333271
0.18059580350206614
0.1463322698059121
0.1310655829728983
0.12854884803303504
0.13752169242934814
0.144263533051858
0.14248122802554808
0.1365579990266449
0.10002013900279863
0.06348227897895237
0.026944418955106103
-0.00959344106874016
0.07475781650596543
0.11130170020174772
0.13862027513990957
0.1430289700383344
0.18622692657216386
0.20287758267976355
0.1842743354878754
0.20001201746531497
0.157903837246653
0.12253649298274619
0.09179105757722382
0.061812733433389
0.04604978186942351
0.04520639185081109
0.058597079411588246
0.08210171463018472
0.10993665332298883
0.13507785458139282
0.15616428147403322
0.17198553565277144
0.18205144961765585
0.185633076615283
0.17945797643061637
0.16160133989153797
0.1347172721086425
0.10653353456719478
0.10032252828441451
0.09446015144858894
0.09877036945764774
0.1439500602101813
0.1722767299782146
0.23665205796898225
0.2794549155930847
0.2616710508409326
0.23909000567871339
0.1817717120568301
0.17309708253370898
0.2880931592395827
0.6176310380929692
0.8020732835118862
0.8297213460279805
0.7985477780633826
0.6029935977053719
0.3176789354474487
0.2222980741400741
0.1992643280984633
0.18622728037006264
0.21065919311830375
0.2445489137560894
0.2587782887753091
0.2573519339136284
0.22883021653651667
0.18147598720538408
0.14701264514154647
0.13128667803603872
0.1285155748213592
0.1371333232224481
0.14380335525780732
0.14217755180326327
0.13648922094483207
0.10005910814578292
0.06362899534673377
0.027198882547684627
-0.00923123025136452
0.07798165099838052
0.1118067253491164
0.13954275320582718
0.13597823591393035
0.1849083082936709
0.20551369039976494
0.18566568781939696
0.21053425281833857
0.16035929691502207
0.12342484634837893
0.09274586345002575
0.060246546096393974
0.045492235573731166
0.04506854487065799
0.05936072578474956
0.0831810784772988
0.11196355844477507
0.13875829053870506
0.1619073929265353
0.17989352349464138
0.19150960737711703
0.19574859479381823
0.18879490025261667
0.16922948064717516
0.13954517306756925
0.1078373274665003
0.1013027530899384
0.0939750943035561
0.10069485251071558
0.15352680407734917
0.18595579538966497
0.2567505009885552
0.30019725759543775
0.27778698535744795
0.24545680481631685
0.1808493988137819
0.18808407726209272
0.30205344194599976
0.6013301310636034
0.7674634677010511
0.7850034442948581
0.7434130726549407
0.5423935299855088
0.29693631181367186
0.22026349802886294
0.20508201532758877
0.1931949956026541
0.2186659535262676
0.251409851653327
0.2625988312801077
0.25854443721007475
0.22648513880208365
0.17700057836283636
0.14367574506249955
0.13034103996237534
0.12887827592823348
0.13923726412084536
0.146226328771614
0.14373748803168218
0.13684344881025307
0.09987166733101153
0.06289988585177
0.025928104372528474
-0.011043677106713057
0.0844167526988281
0.1136791155750143
0.14248465634150265
0.1255009917549498
0.18560207341290919
0.21313482481098414
0.19061362513514596
0.2309159579072737
0.16499465775695205
0.12505805184224594
0.09437853143501475
0.05707972684596915
0.04432657258182468
0.04462053122358673
0.060747956711892856
0.08526982003989546
0.11616954788136104
0.14677073680523528
0.17455047142716487
0.19730996842341594
0.21231629431928686
0.21776127645846863
0.2086373859274246
0.18492685511746657
0.14884747937396786
0.10958500674520912
0.10230011252668489
0.09197772301337884
0.10411439198931834
0.1718268097682633
0.21166648743404443
0.293351886092161
0.3372642454535626
0.30508135068513936
0.25921114570067094
0.1812155057336527
0.21519434244633082
0.3238627190538263
0.5651211949343294
0.6982570844354642
0.6880702384927792
0.6264378340800326
0.43599837269283964
0.26367257968811103
0.21898992243123766
0.21821844666143334
0.21036523908747717
0.23555729288487162
0.2637875644611736
0.2681604716498591
0.2585917148527335
0.219916577617489
0.1673563510180156
0.13730741266717722
0.12951854304125074
0.13101016815016372
0.14469090295379836
0.1520721419046265
0.14724367332824378
0.13765089806363853
0.09954609400057056
0.061441289937502586
0.023336485874434612
-0.014768318188633361
0.06765556418177353
0.1113107070465181
0.13770200564276316
0.16354342433557947
0.19298621875233968
0.1996295654170291
0.18368589675951316
0.17487456563677162
0.15203597262713944
0.12038096836732823
0.08922000431781506
0.06532833293957684
0.04725611870988511
0.045300802875936755
0.056694696835881186
0.07955682789776204
0.10549909276726936
0.1274591748713791
0.14441959750697483
0.1557998234995865
0.1626509105566936
0.1646425629714839
0.15965758147695894
0.1449820367660003
0.12355792824347
0.10274235475468971
0.09713465818446683
0.09438339719764705
0.09468254079748906
0.12148567135502433
0.13902022474422654
0.1865000200563705
0.22648741025272193
0.21970848051452582
0.22277532203587486
0.184057627674678
0.13468036179012444
0.24390737668726353
0.6449547645438811
0.8744516678122736
0.9122572545104274
0.900966166951542
0.749835889726454
0.3785967817807926
0.23182556354726716
0.18888275620186068
0.1752962469404501
0.19333722217598123
0.22683006771488656
0.2470407573546338
0.25130597467925053
0.23163790765393877
0.19076230188255255
0.1551442229215252
0.13500637038276767
0.12963643981874975
0.13400298158811558
0.13953948446888345
0.13906453939104618
0.13578641065251307
0.10054908695079269
0.06531176324907231
0.030074439547351936
-0.005162884154368441
0.0617076467565772
0.11335062340909982
0.13846438453924312
0.18967548710669752
0.2045993245809404
0.2005208102204379
0.18694888512116142
0.14887762462278933
0.14622419860565336
0.1181992759191699
0.08614367911673672
0.06860556901387878
0.04831917725214505
0.045092274048435806
0.05465400864657216
0.07698993623615284
0.10148680583431319
0.12120608815431064
0.13498870080218292
0.1427400437268382
0.1468600975579885
0.14716610893776289
0.14266065047019322
0.13024774677992026
0.11290263303163542
0.09823542002129693
0.09303986558453213
0.09280702024008822
0.09290099724121921
0.10031163132139259
0.10491742897869676
0.13371982926516957
0.16806905350559348
0.1748203268644486
0.20477332776789023
0.18817192338621838
0.20367980051051732
0.28650573850168437
0.7004311069425451
0.9371309235960766
0.9578415258918584
0.9565970091068751
0.8689986811762309
0.45720034997112097
0.2501870527877596
0.18478791024818716
0.17211029114893453
0.17759627468962078
0.20641619651752166
0.23110312142144082
0.24038609398323585
0.2306765253796201
0.19838910481239622
0.16378096005272286
0.1409862448503612
0.1336135603453948
0.13342633877938495
0.13720314936483377
0.13665987375021024
0.13523797078323718
0.10111191389224147
0.06698585700124576
0.032859800110250054
-0.001266256780745656
0.08591989512925968
0.11430405421059961
0.14343499194567338
0.1242175585064641
0.18693369087662517
0.21587557813149816
0.19268210403782318
0.23565364786401777
0.16603408300541206
0.1254111705134646
0.09471600212877496
0.05632349291937371
0.044040620363713937
0.04448142039893681
0.06104688344910208
0.08575014723331043
0.11719851918363239
0.1488091716147205
0.17779786231481978
0.20178672867742312
0.21765832061108115
0.22335717673166047
0.21357123106066178
0.1887081553703014
0.1509463767940365
0.10979680729927749
0.10231553057120825
0.09128773760633116
0.10478463849348121
0.17598259510653516
0.21746689792129661
0.3013429008173402
0.34520536063386936
0.3105326914711467
0.2630924044811662
0.18217410651943533
0.22174749259038645
0.32874968018134304
0.5562794230768225
0.6823639210841113
0.6645572699227075
0.5987321774287518
0.41378333757007074
0.257064668972505
0.21913468117473556
0.221566175140151
0.21498326483628674
0.23975419939350454
0.2664958836571841
0.269109105351869
0.25817524977387546
0.21800358728101885
0.16493458797117092
0.1358391731934438
0.12951166672362663
0.131776603550883
0.14622282621079474
0.15365928133539447
0.1481584822573604
0.13786477046218912
0.09947894120247841
0.0610931119427677
0.022707282683056995
-0.015678546576653712
0.07465454867495173
0.1112902276864282
0.13859600496426833
0.1432751758293637
0.18628616593219666
0.202804759287803