# vtk DataFile Version 3.0
vtk output
ASCII
DATASET POLYDATA
POINTS 5568 float
7.072678071692221 0.5293753530479044 -21.028905490761158
7.162043502416768 0.4270338247609605 -20.109258722247077
7.202355545667408 0.34794000250176854 -19.388344074359825
7.224680119382346 0.2637997184211769 -18.690913334887608
7.229860107749712 0.1816166254533456 -17.977133239716704
7.1655728775552605 0.09850768929718282 -17.233759566435793
7.002723070128635 0.04066143487134371 -16.50231725812552
6.824248370578214 -0.03440376101132687 -15.657221464988206
6.497260443164863 -0.04167864231295561 -14.830513516584249
6.060428452954275 -0.008396346455264166 -14.152664685713672
5.507599328884121 0.06676154200201731 -13.598292926868437
4.868305649992782 0.17256987335267787 -13.088086137621985
4.165018801125973 0.29705238174323834 -12.654088456092811
3.4390634759391325 0.42517942585597657 -12.278074582628355
2.710688153273441 0.5431170430153298 -11.927035014133596
1.9753576249913891 0.6515282992055407 -11.575078007649475
1.2413353719114637 0.7364548758104819 -11.20908667837779
0.5256185858079961 0.788739092513623 -10.81904409048555
-0.14583351265141897 0.8058539586844522 -10.402287872796858
-0.7623688528120683 0.7844960364124403 -9.944488252995937
-1.3084911126558234 0.7246461793621833 -9.450101867146367
-1.7772941734743182 0.6271842206514995 -8.92212165390888
-2.1676722033334777 0.5018225125339548 -8.371654508164672
-2.4882504639318785 0.3579341191305963 -7.788357374318373
-2.7392881868897883 0.2034135442679547 -7.160574648394947
-2.916924030860467 0.04208296780272938 -6.4840523598772135
-3.0292959749914843 -0.11815019205954899 -5.751400737253362
-3.090064625661561 -0.282422578400106 -4.959666307584751
-3.115680014856674 -0.40904471347600935 -4.147989223443609
-3.107470637622883 -0.48105288843726035 -3.364372909838914
-3.0781662020168072 -0.48725231295433546 -2.6485073790130724
-3.0327656336971973 -0.4792704256551997 -1.9838567263608304
-3.008170926577987 -0.4278683469036103 -1.300715262226686
-3.00927193507126 -0.26279024733712286 -0.6314681673002241
-3.065830255156062 0.024343279358328695 0.025321290636781346
-3.198073607827213 0.47743659788372084 0.6066497512349093
-3.372017461954916 1.0854136995110104 1.093156327744554
-3.5293336956915327 1.7431859768955318 1.476840383833316
-3.656623982102749 2.3960736154252724 1.8083355275490864
-3.7499865367035046 2.9268259151585263 2.1325889018203767
-3.788231506159662 3.3242568226653537 2.4060134096852748
-3.7930005804884437 3.555146403956689 2.71630539355941
-3.7882341894161047 3.568055853817458 3.017291356657152
-3.7536378867143307 3.415851195084023 3.293804992963504
-3.729762029053003 2.9697356087097067 3.6438058937925106
-3.7485162251411417 2.246897997500968 3.872203056273198
-3.7626174270195953 1.387823635615378 4.060824257503619
-3.6434211913005714 0.4577439293813743 4.168045517132681
-3.4138822018932284 -0.4529788458947648 4.249644838960962
-3.065637722439915 -1.3020446142964666 4.326312470787216
-2.5862095666367395 -2.0855018443169655 4.432294134449511
-1.9654149563342969 -2.756312619434253 4.611539598250696
-1.2333930312557038 -3.188743699931291 4.920446020460722
-0.44050248776470424 -3.4519170441160885 5.378380294803553
0.33314015126231356 -3.539411584178604 5.878681738556471
1.0921510113066972 -3.49771248763515 6.3756252176780075
1.8548901111500569 -3.3541760435378034 6.853298228174468
2.6355012839678436 -3.1223844272921997 7.2807383327145825
3.439155508231381 -2.8045485962076797 7.62595894129589
4.2418685550576445 -2.4035514598051666 7.866191588653385
5.01482589186029 -1.9276894981785282 7.999375978213971
5.734536669965869 -1.3976001590658305 8.030630552393607
6.3896364835346535 -0.8336910809640298 7.975180112370109
6.9654940386018 -0.2566238756746515 7.857049196736651
7.232207650678047 0.0007744128444488324 -20.64710653758529
7.399214550084417 -0.039196980372317294 -19.673661518532892
7.480531372419506 -0.09367342535296115 -18.95168059420786
7.5318722360492885 -0.14792924967034643 -18.24070216921031
7.541135325433085 -0.194017160480076 -17.51038857831798
7.458987330624158 -0.2399146473658459 -16.77638579812832
7.2665086694771635 -0.25444525191122785 -16.082616974081017
7.014927714799375 -0.2517423031894234 -15.40890478312798
6.655278629323682 -0.20658697994748404 -14.7682280364372
6.202287697749924 -0.132577990316896 -14.191459433255892
5.647935121193795 -0.030752351450064247 -13.664393322049008
5.009334066776783 0.09058199357888393 -13.180678616135495
4.305458266132974 0.22888137471555492 -12.74801015708081
3.565100946317562 0.37910669658466656 -12.357049303367262
2.806756821794001 0.5313285020663879 -11.993622500662408
2.0490564443618293 0.6649752720872433 -11.642848723784432
1.2943624057408627 0.7737694671914095 -11.281317106711539
0.5627041959919971 0.8486923753620272 -10.89504791618803
-0.13302997860352417 0.8878066879382666 -10.47136134747874
-0.774198245417432 0.8900355203472426 -10.00265415064889
-1.3444078172286884 0.8579361306989359 -9.493893230755152
-1.8362405680886766 0.7953992332918641 -8.952558530104158
-2.2502321815689608 0.7105111795287373 -8.382555513847752
-2.5876488372304802 0.6098360985548291 -7.781453320554185
-2.8481271985498067 0.4979303933950112 -7.150080584115409
-3.033241526624133 0.3724962367303493 -6.484220790512366
-3.1485940720779624 0.2337946655367558 -5.772148711429293
-3.2034089373290313 0.08052688943816189 -5.019494928161533
-3.2109453490250264 -0.05845292881798411 -4.245904691680399
-3.1778478536740367 -0.17246256194904255 -3.4830494763547835
-3.1172068643532413 -0.22861094385380565 -2.7714383167841268
-3.03195349799741 -0.2565413379205984 -2.114706096560278
-2.955523378704106 -0.2459384048759944 -1.4483473142580592
-2.8857413352581816 -0.14446198332958415 -0.7930603245764611
-2.842153197372534 0.04674076572381117 -0.15068788931958865
-2.842135259392263 0.3597997983351726 0.43789857074830485
-2.875672409831841 0.7850728069309119 0.9752229608705953
-2.9257933285096063 1.249756449379599 1.4497878923055132
-3.0116067095536523 1.7804268347601597 1.8779909667724213
-3.1000553158799384 2.253560279549742 2.2252767433429286
-3.17459237111701 2.6115576206983677 2.4988875064083205
-3.2252592827913844 2.853297956841135 2.7804661404100988
-3.273992683664576 2.910125873837529 3.052817474370359
-3.3019423191576927 2.827980158515517 3.2912283529701543
-3.3453815239008593 2.5517017174482284 3.568945863685483
-3.407573913762441 2.001018170201106 3.8340141337853733
-3.3980714414579483 1.3026635056414395 4.035287791203919
-3.306938780740973 0.49001703243782857 4.157424624708635
-3.109876881617827 -0.324533389208563 4.243402273951733
-2.7859275811366437 -1.104943523944887 4.33507212879067
-2.3250812812664106 -1.8295081004000013 4.461514700114921
-1.7256715488963619 -2.43335352948616 4.6473815258046995
-1.045868864925493 -2.8521630173806374 4.911675719089457
-0.33569800390011084 -3.1135483874378425 5.266796521246894
0.3841293007521699 -3.234972212489912 5.675583534133459
1.101685351231997 -3.243361285216501 6.097557676870273
1.835895075711683 -3.161557948318127 6.5189057743380205
2.5963528106995457 -2.9943683908373746 6.911973504552264
3.385489428977876 -2.7369111153532275 7.245942192745092
4.182355793951213 -2.398852805672455 7.492762478822818
4.9662881840167845 -1.9912053833577399 7.646326406057733
5.712752020299807 -1.5339314186788628 7.707879999012401
6.407852534057606 -1.0465655000060856 7.690203480430239
7.0400297379889025 -0.541743440904669 7.60758941721959
7.373235254090448 -0.4665202683824021 -20.3095879927859
7.614505885840258 -0.4479116591573693 -19.279381267492568
7.732596339943109 -0.4806794638161059 -18.553875653121004
7.81021644265286 -0.5081640026528178 -17.82874066549418
7.8231787281471865 -0.5218119783407557 -17.082032589156395
7.7252122185568455 -0.5352895832913029 -16.354407608308264
7.506603151388997 -0.5129277775430323 -15.689713413585487
7.195057627558553 -0.4511164725182848 -15.134255844134248
6.8073447914921 -0.36607929111109394 -14.627308819087235
6.337488720928781 -0.25810421431451214 -14.128758358092787
5.780928226262274 -0.13292215873117214 -13.624601860882485
5.142415495263854 0.002019736077925355 -13.163549398735217
4.437861610472116 0.15259415493711365 -12.731962889655234
3.6843421869162007 0.32289215236867375 -12.327389005229692
2.8982847490209096 0.5067587608081822 -11.9525031166212
2.1199926671151252 0.6633680226331793 -11.602673751351274
1.346213628730156 0.7937968659869751 -11.244983875801447
0.5998008651120778 0.8891119323542919 -10.86188158773935
-0.11819096064814416 0.9482709038984418 -10.431796512897211
-0.7820517199340576 0.9720280986219859 -9.952980441716294
-1.3747118275494596 0.9652668350464348 -9.430692989232133
-1.8884489212633664 0.934420390358991 -8.876172253599618
-2.32523214182774 0.8863208106389584 -8.286661562694444
-2.679112870249375 0.8244602636184721 -7.667281114288407
-2.948814688647274 0.7499058784387774 -7.030630332037185
-3.1407669477208513 0.6553883042545665 -6.372772736814218
-3.258688199719326 0.5351510163238844 -5.678293780183447
-3.308432954890646 0.39131095194413745 -4.9593469336976
-3.300638661663514 0.2418446381133836 -4.218015069144462
-3.245740283520711 0.09084071793726259 -3.47058797083464
-3.1569010810900724 -0.010025159801097583 -2.758734191114299
-3.035920869961974 -0.0698791542905535 -2.1053709598447354
-2.9136169151695253 -0.09481605920902751 -1.4483268038167638
-2.7810010846508737 -0.04709077550126086 -0.7946992286223425
-2.650494181745546 0.0678715583555734 -0.14529435651499223
-2.5399034131738714 0.28022736211806276 0.4801316357563833
-2.460183982918425 0.5842485195606943 1.0960586093801707
-2.425595698197491 0.9245239584891947 1.6813531968701754
-2.4792812550679737 1.371135616071785 2.2084615267619254
-2.5640286291721432 1.7980951651376973 2.5768439502274787
-2.669730077873016 2.125422154701075 2.852601166807533
-2.7612854272632044 2.380698503348169 3.1138763184263967
-2.859503087298442 2.4790401340570694 3.3755602962956566
-2.937247659535393 2.44552005279866 3.599735931907413
[...]
CELL_DATA 87
SCALARS quad_param_group int 1
LOOKUP_TABLE default
3
1
1
1
2
1
3
1
3
3
2
3
2
0
2
0
0
3
2
3
1
1
3
0
1
0
2
1
3
1
1
3
1
3
3
2
2
2
1
0
0
1
3
1
3
2
2
3
1
3
2
1
1
1
3
0
0
0
3
3
0
0
0
2
3
1
1
1
1
2
3
3
0
0
3
1
3
1
2
2
2
2
2
0
0
3
3
SCALARS single_component_feature float 1
LOOKUP_TABLE default
-0.059524331600505874
-0.005654929397789223
0.041966789020854905
0.03436306143824334
0.10371799766442545
0.057130920328252746
0.0003223235697895309
-0.06427533963010973
-0.025298554444813496
-0.015733704459067674
-0.12806776774944398
-0.04645662382906368
-0.07996887007262758
-0.07994636497945766
-0.03961119131938729
-0.007453959218017298
0.00978514916677208
0.045690332043127745
-0.0397311311457697
-0.06393221393012608
0.011149874633911705
-0.010136048575940644
-0.009048123273276101
0.07269497316650696
0.012056993559337953
-0.03697347828265487
0.0660891428149968
0.06078840901214695
0.012443559709835496
0.04926430067392623
-0.003014601536545744
0.026169737642109867
0.03643252179093207
0.04629976177623863
0.05755615120825492
-0.03539286646892077
-0.01151116611125855
-0.008936329724003413
-0.019904255410219097
-0.026732681245449134
-0.04317918978455366
-0.060937158491524396
0.04138751061246839
-0.03676653135815987
-0.07992821251208837
-0.0040544893981493205
-0.03376424043400934
-0.024663968238517246
0.011323795458745345
-0.007158141315481283
0.03946317163821414
0.028610634959704753
-0.03164180049409562
0.03430207471743856
0.018200878845748426
0.19115576392775177
-0.003079706892011022
0.023951734419317243
-0.07207896024301395
-0.06520020275582344
-0.03679420490090457
-0.029870682822640687
-0.0629843372628508
-0.05381186112791861
0.009318159501302874
-0.02904120923211963
0.0012056907097678995
0.052420684474253784
0.0389945112551064
0.03831255699456539
-0.03503307925787212
-0.0017937840506371608
0.06688391126851088
0.06839511133866091
0.006005867071095365
0.026269996009572014
-0.01855043879811149
-0.01987721860664647
-0.06247320795648728
-0.07635878770869978
0.0009728450213461401
0.037257182829720126
0.134786294601103
0.0669123499090683
-0.040462495365937455
0.04981805285450706
0.016937663775069046
POINT_DATA 5568
SCALARS single_curvature float 1
LOOKUP_TABLE default
0.03609199380669662
0.06560948405934806
0.09268652179384802
0.08678427661768473
0.1283603205249543
0.166340296249864
0.19084882248228638
0.21974591028835347
0.20551385500254976
0.1613021030148906
0.10126624252348551
0.0715812747285043
0.045972362678900064
0.03980326149539854
0.05341197205972934
0.08174429938922192
0.11023676863612389
0.13757868606779916
0.15836916929949127
0.16849382945200875
0.17190625069894028
0.16821373216198549
0.15630559207876465
0.13544999180988856
0.11338671946680753
0.0981625805859128
0.09988504721863148
0.0923019442682022
0.09744525034504507
0.13323134200236902
0.16070113332723227
0.2286852720334457
0.26887753433774286
0.25598188621746204
0.21927011045641662
0.17457203002896968
0.1660503608078689
0.36773991348968676
0.7451982565432065
0.8658599257302776
0.8751434132815377
0.8265339267483905
0.5370109998824963
0.24556020754335195
0.1833748857547125
0.13577659488814048
0.15671870299713517
0.16908863258617252
0.22396884628528657
0.244376081674981
0.253263190667285
0.23793457981083999
0.18223862708352734
0.15241105192077886
0.1343888861766773
0.13379197616624802
0.14231984869814657
0.15141023672586473
0.15386328871018884
0.15016087654998417
0.11105285365321715
0.07194483075645014
0.032836807859683126
-0.006271215037083888
0.06560566365116483
0.1065816641431095
0.13336640038499226
0.15006505543154647
0.18320677582812017
0.19499056973918694
0.1824763874054722
0.18405114683142673
0.15849931717238797
0.12460217467746468
0.09074180604859991
0.0652259484131906
0.04684389886950834
0.044728530668418726
0.05671869379305607
0.08020832466869762
0.10668469948540671
0.12963428442369093
0.14761135305605874
0.15962947445043899
0.16671629036258426
0.16844098157381945
0.1625464981893927
0.14665073554180663
0.1240289778962953
0.10228358296351911
0.09734356330925384
0.09375324338413712
0.0952601764788093
0.1266491433225872
0.14768105274727397
0.20137831727384584
0.24305418560547842
0.23384480852316714
0.2268494817443998
0.17547750170248164
0.12776680522984726
0.24960330819923246
0.6481665160692159
0.8634942110382212
0.8989702647992768
0.8820544511776465
0.7073822093065041
0.3498441783803411
0.22311385208721934
0.18345795827552105
0.17445316367078575
0.19371095763628146
0.22990112787898137
0.2493129109477862
0.25312884348944803
0.23231891893937648
0.18857445357111266
0.15346911913109876
0.1341222043201067
0.129640258977627
0.13519398125275434
0.14136337063146667
0.14113302131276084
0.13744316730613496
0.10160186218383589
0.06576055706153683
0.029919251939237765
-0.005922053183061299
0.0937627523606512
0.14515753279280408
0.17029680068529618
0.23490496241096198
0.2593475405736038
0.24321152974714003
0.19800655173860832
0.14567450920943617
0.11171699098074586
0.09304412705633731
0.08292044371911012
0.060775479815835164
0.04866325499028902
0.04960760070587782
0.05965805204477121
0.07890621854346881
0.10373450461809217
0.12304380071609561
0.1386047189391929
0.15171123572470638
0.16143768474726614
0.16805654936858958
0.16899017823478646
0.15977104408257264
0.14106834399705293
0.11799961120937831
0.10623000521591289
0.10403026226086115
0.09862375152809401
0.11949195494967768
0.1282357358654801
0.15339938784476434
0.18161293375847976
0.17594002853692903
0.21373314264719379
0.2455334912609877
0.26422338652349897
0.29908285875661167
0.5761046712258953
0.8213686919375126
0.8833367123094508
0.8873176105381733
0.8012552929051815
0.5050943420705002
0.29498944697779
0.25765908871785603
0.19838648963418654
0.21928653720733304
0.23423086193870776
0.25073607120296304
0.24907755240846927
0.222403803735501
0.19208123718062328
0.15387152631073123
0.1344147866627379
0.12614034226474435
0.12863091250848344
0.13136163228065945
0.12751950141987742
0.12372359874173741
0.09125547662911586
0.058787354516494306
0.026319232403872753
-0.0061488897087488
0.08932799818432519
0.13905463077702107
0.1644275142772354
0.2203493470775199
0.24622380571807848
0.23472697034395837
0.19466283685426544
0.15216717973016167
0.1194564658074549
0.09800618865059901
0.0841026610856662
0.0614542821339789
0.048348722176233906
0.04883694761531756
0.05919951616142291
0.0791112181768579
0.10419408875978817
0.1240645757353854
0.14000464157159265
0.15297239694659723
0.16231947420969867
0.16815845302656568
0.16791172639627677
0.15748651619406615
0.13790210773139086
0.11474425836655537
0.10411813639431877
0.10184742844804494
0.09771031211756014
0.1205690068776406
0.1314074492405856
0.16168295034342842
0.19264660288616162
0.18600325646217516
0.2164985331967941
0.23390083480713406
0.24038864846330815
0.28881637368682056
0.5887061454948822
0.8329155560889505
0.8886557871429799
0.889024895603655
0.7907372057507986
0.4774706628708218
0.28019931739782983
0.2432834301884635
0.193867524380987
0.21494126516737908
0.23358460089012617
0.2506936668809139
0.2499677988550903
0.2242940092323799
0.19164752824075404
0.15381347162443995
0.1343005669686275
0.12665443301729157
0.12966253601927027
0.1329939236804893
0.12979701196744023
0.12601666498116396
0.09298664570818474
0.05995662643520552
0.026926607162226307
-0.006103412110752909
0.1277183606825529
0.1925180659967962
0.21649336245953607
0.34694886649767837
0.36051983019638895
0.30629168183563227
0.23249873435212148
0.10209406002111823
0.05871789522265046
0.06616043417851267
0.0741001648775009
0.05546065340972554
0.05129545235990842
0.05549539380452932
0.06317963312871011
0.07727458693572081
0.1001531980111799
0.11524485801797542
0.1278360547471791
0.14161934791664874
0.1537992499400468
0.16659457065616254
0.17828435730225486
0.1807934865882612
0.1720354852454445
0.15228713460161103
0.1304998883788383
0.12648778212119244
0.1098344822093236
0.11383682731914736
0.10931098588997604
0.09590867339969382
0.10346194526499035
0.10757054303846136
0.1927566771214056
0.34685778288004826
0.4510739310533648
0.45933917677511704
0.5502443585971355
0.6877862843626932
0.7995373259025944
0.8268833532142966
0.8351311136756722
0.694254346378293
0.4720377253292111
0.4200282145073732
0.24729872879324732
0.25865593146331095
0.24035568891181808
0.250487925951689
0.24062336153250471
0.20502148019075825
0.1948192275269544
0.15489598448849018
0.13691928636546552
0.12321254662549881
0.12105090577304063
0.11822115001944299
0.10836698423470166
0.10454908965346364
0.07683468212015251
0.049120274586841386
0.02140586705353026
-0.006308540479780869
0.10247147717210536
0.15718842731368504
0.18191831595147331
0.2642542175710976
0.2858512531242216
0.26036412936205516
0.205080291125453
0.13244335271397883
0.09607975783598728
0.08329025170008747
0.08062865317185525
0.05944302928498057
0.049302692717062446
0.05112027518362139
0.06055728995693578
0.07850030382854718
0.10283051667618123
0.12104633797136462
0.1358596029841043
0.1492049613267044
0.1596382321531801
0.16780434573119749
0.17118961110732184
0.16453235302296468
0.1478401598346621
0.12522599112408664
0.11111752467449164
0.10887561235585168
0.10082050570562853
0.1175331753308418
0.12222708246138804
0.13710938353567445
0.1596692344162824
0.15636460644588018
0.2081746028243599
0.26944693339763204
0.31201950923693317
0.32149599971782195
0.5516330433062361
0.7917200277162192
0.8687668545636734
0.8808667336135505
0.8176697638274816
0.5601633093480315
0.32896064558364446
0.28969153568912626
0.20831329363942083
0.22826698449692553
0.23550514488295313
0.25065577849364207
0.247077524051539
0.21833985420587745
0.19283142235772271
0.15400778116740899
0.13474820551887182
0.12519444425576226
0.1266186832648349
0.1280948300824622
0.12289689978511947
0.11907647223194487
0.08774915817482841
0.05642184411771195
0.02509453006059549
-0.006232783996520969
0.06915507304381201
0.1114310961759664
0.1380017909170774
0.15966232783735487
0.1917638756908746
0.20023179900775873
0.18357444950772261
0.1795635526985216
0.15287238804555264
0.12058719483908079
0.0897001793392701
0.06463326019510934
0.04704443334601737
0.04533978883568154
0.057094717742106296
0.08004235001271215
0.10630485847166989
0.128782416969401
0.14645128540807317
0.15863531014233198
0.16608692412585485
0.1684247255629875
0.16331182538173886
0.1481384094051668
0.12578630314711947
0.1036188334753814
0.09786623915864842
0.09456921377907629
0.09537049999613033
0.12574392275324914
0.14544448945202865
0.19620802940332713
0.2368551793141832
0.2278511440559316
0.2260767019804302
0.18404866369822592
0.14124469501822484
0.25225723109770665
0.6398189124314559
0.861276346114456
0.8991025402414388
0.8848264334011622
0.7228693240501551
0.3662636719412868
0.22975347417241324
0.19088761172579827
0.17693930185301024
0.1967137579478546
0.23048870838040447
0.2496488652380826
0.2528273671985673
0.23133404415589148
0.18912328007616938
0.15353420130248208
0.13411463529167117
0.1291751634222066
0.1343671287117532
0.1401478577572686
0.13952343425759514
0.1358214797271243
0.10038217903902011
0.06494287835091592
0.029503577662811725
-0.005935723025292466
0.034006922804781646
0.06254531158506844
0.08927823358070935
0.08529190981512592
0.1275215175129833
0.16742853187628057
0.19511142141975676
0.22248860694080078
0.20933025562470048
0.1645753869242238
0.10232293159854561
0.07228881757693414
0.04603605988471036
0.03947866532849244
0.053154472886766044
0.08188369616064421
0.11056137535808365
0.13829901636192976
0.15933855279709094
0.16926119266862405
0.172319301142048
0.16816327484369745
0.15581530355950982
0.13465897605992191
0.1128778849775512
0.09839573226077365
0.10064277206499754
0.09260200912106775
0.09783182530874669
0.13360400978396167
0.161096651709604
0.22934441717402362
0.26862027182406745
0.25511534607776853
0.21792948451371358
0.17865010206464416
0.17534395665842534
0.3822219052853537
0.7509510031595148
0.8639869118696651
0.8711858778017779
0.8188248866954704
0.5213363485116005
0.239712137699288
0.18135602940404408
0.13319624216873657
0.1554607232829789
0.16711516656484382
0.22339422079889662
0.24379464204761717
0.2530711056956635
0.23816866628798466
0.1815697093397332
0.15226656388004065
0.13441244187601045
0.1341373851197351
0.14290257929020383
0.15219919009104885
0.1548102799713343
0.15109013123773296
0.11172840516203071
0.07236667908632846
0.03300495301062621
-0.006356773065076038
0.05411282070733682
0.09084810262703023
0.11823381208550282
0.1211498359594511
0.15756895589927752
0.17973040660680725
0.18082669574022842
0.19806190946047056
0.17643002464521745
0.1378849294832294
0.09431705961279041
0.06728884397322143
0.04628757939246958
0.04276778919912186
0.05548005822221226
0.08075963062561871
0.10795288718378729
0.1324786245120431
0.15147599533813413
0.16288746877284788
0.168712210832861
0.16843411057350866
0.1601297927245478
0.1420992424193189
0.1190707242946874
0.09919734575034575
0.09683000658752841
0.09205500575434573
0.09546804041471757
0.1294557884683495
0.15409118898206903
0.21556775638856765
0.258884180331364
0.2489154423946114
0.2267467084601405
0.1490381256216564
0.10590872050244715
0.26157602762192844
0.6792770309742869
0.8692275845628574
0.8948759549986803
0.8683778685210356
0.6500245613098821
0.3030992660746081
0.20483954194027026
0.1622107622448575
0.1671131699621037
0.18423590825472744
0.2278687313573806
0.24789492272970232
0.2537008348398222
0.2350301047257982
0.186546466388237
0.15319334528882103
0.13419577923455273
0.13118033602987816
0.13787830621141678
0.1452353906410608
0.14616884646645087
0.142505705531139
0.10539512615741858
0.06828454678369816
0.031173967409977743
-0.005936611963742677
0.05966271947211269
0.09845606691263999
0.12557743466568833
0.13471919816222078
0.16956991803740998
0.18678291068047778
0.18125658655730142
0.19138243332496108
0.1678087977455371
0.13140114861554694
0.0925451955513089
0.06625945305576988
0.046535889623570005
0.04371043289559531
0.056082901802040716
0.08049003401827508
0.10733155189635588
0.13108534594578972
0.1495846319909917
0.1613033417664469
0.167754482497447
0.16844881655730906
0.16128724311571366
0.14425009294725177
0.12132771587528259
0.10045436909837105
0.09685350745883968
0.0926967555822817
0.0952632760674817
0.12812919361326744
0.15116994725893876
0.20922838788253859
0.2520835835392501
0.242526796197783
0.22730688882595704
0.16110402849026137
0.11231390004552659
0.25188486196804727
0.6636360685988255
0.8668219598405281
0.8975544586719617
0.8759306987191621
0.6790812221863638
0.3244983415473233
0.21310855257136177
0.1719724923830006
0.17053782566014258
0.18877528723010215
0.22887778535123726
0.2486443953395142
0.2535015270165263
0.2338095793314891
0.18757650938306122
0.1533407138249546
0.1341523486934417
0.13042994646262365
0.13657928854441184
0.1433753438029749
0.1437677201067656
0.1400945993027085
0.10359175329778725
0.06708890729286598
0.03058606128794472
-0.005916784716976542
0.03837673408634314
0.05457679085943064
0.06366823725384826
0.07026185026170567
0.10662044835407937
0.16687079306882682
0.2355119436153572
0.25371916529900207
0.2555462490400927
0.20882433576806952
0.1194277616174136
0.08779285188885967
0.05281617214760261
0.04055485472549611
0.0529779871463232
0.0838335583444745
0.11510087348468351
0.1481636375334704
0.1724734571654162
0.17913238044262644
0.17706781154625412
0.16704539447131547
0.1501864605139298
0.1271542106407081
0.11141825269982664
0.10772673245793248
0.11585442625461684
0.10070938686302243
0.10430560925877916
0.134536758679932
0.15484405577717414
0.21737252991389355
0.23953698986912667
0.21561233846512964
0.19109385680128807
0.22754012698681977
0.28850773780017486
0.5357739443646687
0.7761564057291498
0.8146851923160131
0.7921188554996674
0.6753501231415087
0.35357796073098074
0.20175756823941834
0.1766377713419544
0.1252983952338926
0.14134349352706554
0.14337454716142442
0.21505663945310297
0.23433923560591152
0.24798776798427935
0.23797270840826817
0.17127204194638748
0.14936930705514542
0.13435689171778956
0.1380650544243028
0.1496029316692998
0.160848865653134
0.16432887189625736
0.1599600795751186
0.11780960010504075
0.07565912063496291
0.033508641164885056
-0.008641838305192773
0.042475267367683166
0.07471715870278273
0.10226370139810188
0.09476506118985287
0.13447286957075077
0.1668051820116701
0.18246528218820032
0.21187115475555612
0.19473875244802058
0.15232506803739024
0.09848535338041658
0.06980003160740919
0.04595680718199549
0.040829803524970044
0.054171455601607785
0.08136443498987865
0.10935349812874195
0.13561195524787586
0.1557168898065309
0.16636770276376306
0.17073115963552501
0.168327968709131
0.1577056784190971
0.13779280315117864
0.1151277623715104
0.09796502046681385
0.09818865998229252
0.09178237622518179
0.09650078143525366
0.1320010294770957
0.15894083703428005
0.22544781680187273
0.2676235846913221
0.25615304936658445
0.2227461335838798
0.1635836517228998
0.14091331773844648
0.3267662779815737
0.7251733193643105
0.869351430901243
0.884513486628825
0.8453250899344581
0.5807899232555623
0.26424818603382894
0.19015962381083182
0.14430218212252133
0.16038873217892208
0.17467576128373774
0.22550909083760523
0.24586441022063674
0.2536326987598678
0.2370849168253125
0.18399287658672012
0.1527612935187796
0.1343159828008509
0.1328162761105713
0.14067023615529572
0.14914993484099254
0.15110118383686388
0.14743050239899788
0.10905078228775011
0.07067106217650235
0.03229134206525458
-0.006088378045993187
0.028327959080124424
0.053681748209690586
0.07837085341727157
0.07961327592224808
0.1239690892575023
0.16982661937077653
0.2078689307995576
0.23110848197187636
0.22155659802859376
0.17541829467349682
0.10600779276625703
0.07493478409514845
0.04654850157645609
0.03867263756823154
0.052433600407663636
0.08234936706137437
0.11164686083862033
0.14069612371898133
0.1625558607195824
0.17177047999751627
0.17362803790674294
0.1679635586843456
0.15426714078346113
0.13227739024620583
0.11163780853003377
0.0997098177262173
0.10360881806829575
0.09395214915409891
0.0992303653664013
0.13452985336729537
0.16147756396732385
0.22971021460303576
0.26538840724782364
0.24958429533182874
0.21311605553468294
0.19217947575269945
0.20600248258857184
0.4277668257100384
0.7650755719820389
0.8557429061866677
0.856072495762656
0.7900819883807514
0.47184655140147536
0.22393802908614338
0.1765948408125727
0.1268947641899474
0.15155332477602443
0.16080850889567433
0.2214445255798727
0.24173456410353572
0.2522322356648592
0.2386740842157357
0.1792507418223751
0.1517211560614021
0.13447147309811383
0.13523514941480133
0.14475464728583481
0.1546722329982937
0.15771236637311856
0.1539069588437889
0.1137508072903085
0.07359465573682808
0.033438504183347664
-0.006717647370132751
0.028334589660232876
0.05369288657810572
0.07838606143524322
0.07962233909637771
0.1239751318382189
0.1698245793530355
0.20785217008973889
0.2310965918553696
0.2215394791720785
0.17540271575758817
0.10600228164448064
0.07493057937025266
0.046547363466204875
0.03867342968891694
0.05243443458518782
0.08234869331117642
0.11164528962189013
0.14069266832072622
0.16255123309739958
0.17176691241823805
0.17362622361534433
0.167963880959651
0.15426928259543624
0.13228055130320354
0.11163912380927107
0.09970737974189962
0.10360410229659422
0.09394985814353134
0.09922825087571477
0.13452887140423678
0.1614780209607655
0.22971155998099552
0.26539542633678886
0.2495948745058944
0.21312357461438106
0.19216031351164115
0.20595906369062825
0.4277045377983743
0.7650601056051788
0.8557568471967636
0.8560963702953972
0.7901267291087137
0.4719142092571399
0.2239567914995778
0.17659944695817945
0.126901216065136
0.15155868013358018
0.16081732441274277
0.22144737549890867
0.24173766270862962
0.2522336535109611
0.2386736431017214
0.17925418163031587
0.15172201469072538
0.1344714136992481
0.135233627452788
0.14475207652055969
0.15466883804868994
0.1577084583724036
0.15390320436839497
0.11374814315727493
0.07359308194615488
0.03343802073503484
-0.0067170404760852065
0.04610687516165182
0.07979244057204053
0.10737850233196505
0.10268364268204588
0.14135414372172592
0.17051826825237953
0.181484205315991