# vtk DataFile Version 2.0
Vessel Segment
ASCII
DATASET POLYDATA
POINTS 86 float
0.0 0.0 0.0
-0.7384632335939494 0.008119887898422442 0.12649764625370752
-1.4438562740309764 -0.1905335135995291 0.2908752003358077
-2.094080955348822 -0.5186893786243332 0.47817882208591134
-2.6962758689652473 -0.9214811200205478 0.6814914106724704
-3.263145542873864 -1.3665897489495367 0.898031789802593
-3.8067909611408064 -1.8348452193347278 1.1255463465214204
-4.337883812593026 -2.314153715090123 1.359675515310043
-4.867623349395509 -2.796917177271224 1.589670193156037
-5.408186536203834 -3.280732898936337 1.7899005502839789
-5.97137330191841 -3.766727686562891 1.8965557939243274
-6.534259012467261 -4.240247321560195 1.7680296092920416
-6.9795927159725295 -4.650855028497052 1.3301362691682714
-7.273098565018366 -5.009001722412216 0.7382388758156826
-7.465512956605666 -5.360533804257584 0.10154304020712569
-7.588251714075888 -5.730177938311404 -0.5422921036172053
-7.65439353398576 -6.128459586605846 -1.1774081164037173
-7.667923813291076 -6.5591376379243975 -1.7942601158028881
-7.628163027474914 -7.022659374227564 -2.3857087935989436
-7.53158022952212 -7.516771182560485 -2.9448356153643083
-7.372386558674607 -8.037867568914594 -3.4636783887635585
-7.142692935994338 -8.580535274690943 -3.9312586354199084
-6.8318248054623085 -9.13673182617658 -4.3304420156155
-6.427830276999219 -9.693305413417388 -4.633343653024024
-5.924170719124721 -10.22590067350618 -4.794415334667254
-5.338811957252482 -10.69100223263139 -4.750822546670214
-4.740298518234071 -11.028702980005717 -4.456037929968058
-4.225140086624888 -11.209090934520301 -3.9432090919031797
-3.841590071106609 -11.260502555250037 -3.2999760584102997
-3.5854394337431863 -11.229460900471691 -2.5939816244398353
-3.437219940484377 -11.15317065428482 -1.8605538968916504
-3.378142881796861 -11.058918883472357 -1.1164530469204859
-3.3919727826718753 -10.969926976483928 -0.36934451248412176
-3.4640525573266743 -10.90912100098753 0.37723645861420924
-3.5795014789982593 -10.901229054857444 1.1206606512605053
-3.721632489929279 -10.974437069585699 1.855668201630735
-3.8715049194075237 -11.156929543068305 2.5695531481352596
-4.008975309653909 -11.467422071441192 3.239995834225607
-4.116831906765104 -11.90471330123351 3.841666051696054
-4.186357013299319 -12.445953145366705 4.358778474690397
-4.218826529720818 -13.05904625598239 4.793363075183242
-4.220105297377137 -13.716335698522592 5.159626789804774
-4.195602274079143 -14.399405498421078 5.474553430689987
-4.147648486967168 -15.096831328936586 5.753479608138551
-4.075568712312369 -15.80109684609817 6.008953588177104
-3.9757545889141235 -16.506714244313464 6.251350305254958
-3.8418911262723343 -17.20812403818874 6.489162382237621
-3.6651100993623476 -17.899011237223895 6.72952912734087
-3.4348903469400733 -18.571030878944235 6.97786379916365
-3.1402562578207798 -19.21276293739657 7.237547533936264
-2.7727911897284008 -19.809921628169217 7.51015872088473
-2.330313209509441 -20.34747856410837 7.79464581732305
-1.8186126115180192 -20.81363166591958 8.089204642650913
-1.250164548383385 -21.202217904281635 8.392106280059437
-0.6397759166731333 -21.513086751611677 8.703200918763773
-0.0012773340602920894 -21.748868856619737 9.023840439817633
0.6534560067632986 -21.91302205292357 9.356355870361346
1.314277829914679 -22.009078721134358 9.703302595313511
1.97246900435603 -22.041022824611865 10.066634606059289
2.6209647688649955 -22.015467541829857 10.44762923665897
3.2548034475912155 -21.942109716316754 10.846738069861145
3.871490583447251 -21.83380153645697 11.264381149301798
4.471137996923228 -21.706627949676406 11.701168470090535
5.055948766714045 -21.579078760736703 12.157543013399776
5.629026986617735 -21.471146183036062 12.633399768320528
6.192784681950169 -21.403049654943015 13.127279692496039
6.747658741100655 -21.39342950880206 13.63544826827529
7.291423506236867 -21.45754207353534 14.151470799889905
7.8195172748000505 -21.60425772456155 14.666817390977666
8.326295262432856 -21.835004323523844 15.172693288310315
8.806232927644716 -22.145873170853886 15.661567632757132
9.25421179501979 -22.530776501021904 16.12765299715605
9.66516607379624 -22.98279864679237 16.56680037540467
10.03360876477946 -23.495401693482957 16.976115964322204
10.353279846917028 -24.06249715876587 17.353390234031632
10.617325252802717 -24.677966454796742 17.69619530006103
10.819323110632615 -25.335450866396652 18.001026423322628
10.95527187589568 -26.027457345530095 18.263007126129956
11.026068948905062 -26.74542481512126 18.47640688276327
11.038974975540286 -27.480634144132328 18.635766408351174
11.007001175345074 -28.22559192612879 18.736837885065082
10.946917723846443 -28.97462362963573 18.77680663190495
10.877608398714262 -29.723602648488665 18.75411155239684
10.818743613038501 -30.468853600872702 18.66824981273419
10.789383947199083 -31.20593148790568 18.5198692975216
10.806612512255825 -31.928620380012987 18.31134438337927
LINES 1 87
86 0 1 2 3 4 5 6 7 8 9 10 11 12 13 14 15 16 17 18 19 20 21 22 23 24 25 26 27 28 29 30 31 32 33 34 35 36 37 38 39 40 41 42 43 44 45 46 47 48 49 50 51 52 53 54 55 56 57 58 59 60 61 62 63 64 65 66 67 68 69 70 71 72 73 74 75 76 77 78 79 80 81 82 83 84 85
POINT_DATA 86
SCALARS MaximumInscribedSphereRadius float
LOOKUP_TABLE default
0.9796000123023987
0.9546579718589783
0.9313470125198364
1.1344799995422363
1.3345199823379517
1.4384599924087524
1.5075900554656982
1.4711099863052368
1.2633899450302124
1.0789999961853027
0.9600560069084167
1.0421600341796875
1.0290499925613403
0.8793299794197083
1.0712100267410278
1.2398699522018433
1.2400000095367432
1.2400000095367432
1.2400000095367432
1.2400000095367432
1.304610013961792
1.442870020866394
1.5753599405288696
1.6787099838256836
1.6741399765014648
1.4071300029754639
1.588729977607727
1.9463399648666382
1.7786699533462524
1.649549961090088
1.5896999835968018
1.5984100103378296
1.75
1.8167500495910645
1.6593899726867676
1.5499999523162842
1.5499999523162842
1.6359200477600098
1.8073999881744385
1.7473200559616089
1.5904899835586548
1.8752399682998657
2.303719997406006
2.2397100925445557
1.8291599750518799
1.6370099782943726
1.912500023841858
2.147239923477173
1.8605400323867798
1.5669200420379639
1.4086999893188477
1.257290005683899
1.50832998752594
1.808750033378601
1.982800006866455
2.1295599937438965
1.8124300241470337
1.3195600509643555
1.2346899509429932
1.4368599653244019
1.6133300065994263
1.7572699785232544
1.8632999658584595
1.8748600482940674
1.8831000328063965
1.871359944343567
1.8600000143051147
1.8600000143051147
1.8600000143051147
1.8600000143051147
1.8600000143051147
1.8600000143051147
1.8600000143051147
1.8600000143051147
1.8600000143051147
1.8600000143051147
1.8600000143051147
1.9932899475097656
2.292870044708252
2.367269992828369
2.0685598850250244
1.8159699440002441
1.6689800024032593
1.576390027999878
1.719670057296753
1.8600000143051147
FIELD FieldData 2
Curvature 1 86 float
0.35965267079
0.28939446307
0.19764415926
0.12693630294
0.077424666937
0.045832825422
0.043117915775
0.072399735631
0.1226850501
0.20863842948
0.37086104272
0.49809288408
0.34862344586
0.20963644976
0.14045070639
0.10833479997
0.095029939108
0.09197557335
0.095669630746
0.10553834427
0.12269712982
0.14995693419
0.19111378244
0.24928473257
0.32221575335
0.38901281173
0.38671192795
0.31142833828
0.22855563665
0.16693716497
0.1244693588
0.097089258655
0.086535715625
0.094663005984
0.11960933229
0.15352136923
0.18339359007
0.19847674523
0.19125541198
0.16309216046
0.12654952413
0.092860605688
0.065854142183
0.047330538667
0.040426676032
0.046486092064
0.060921187698
0.079234754686
0.098751954948
0.1168851407
0.12959918859
0.13362186619
0.12880820162
0.11861409053
0.10767327581
0.098883959987
0.092917802423
0.088069211611
0.08127312155
0.070970564321
0.057628766508
0.042552015133
0.032890337133
0.040482953638
0.060074079804
0.081625471106
0.10022260897
0.1123833712
0.1164916286
0.11495800774
0.1115173857
0.1079581483
0.10581388898
0.10585673369
0.10831089549
0.11214514747
0.11492249602
0.11393471864
0.108047313
0.098867414452
0.08987487252
0.084624298077
0.085886259456
0.093669820996
0.10515201918
0.11678079146
Torsion 1 86 float
0.017753595265
0.027516286677
0.040778691378
0.06411997518
0.09591689025
0.12306620961
-0.0052160928134
-0.029201222648
0.0025923261818
0.028314356408
0.075753982513
0.16650777719
0.19163786731
0.18644609562
0.16898720439
0.12645807155
0.066960525262
0.01220961475
-0.020881343731
-0.033302508455
-0.030375247249
-0.018763578288
0.0033861785547
0.031321447644
0.058585010285
0.077572181066
0.090609602153
0.096446577195
0.10618667412
0.13345665249
0.19529723545
0.30524282472
0.40889996949
0.37789101827
0.26445403093
0.16161887388
0.097479413438
0.060553959762
0.036685574163
0.023562421573
0.031644900189
0.064597569782
0.14137475321
0.28483878538
0.38400911011
0.27310125597
0.14113265011
0.067381219089
0.033491343576
0.020763148242
0.021550576628
0.032489781293
0.050896751779
0.07010579742
0.088901969715
0.099900858212
0.10014472155
0.095306711462
0.099629074109
0.12899968436
0.20876533141
0.43001506285
0.78928615981
0.54625304512
0.24708332104
0.12589546514
0.072750243355
0.041971266398
0.022086931109
0.0088821953265
-0.0042394913963
-0.020036548373
-0.035352692253
-0.044943380001
-0.03829375697
-0.016736209142
0.018602890838
0.063367356164
0.11852753513
0.18212325472
0.24629357744
0.29875452916
0.2902280298
0.23117003046
0.16635717944
0.1160064948
