# vtk DataFile Version 2.0
Vessel Segment
ASCII
DATASET POLYDATA
POINTS 97 float
0.0 0.0 0.0
-0.6446064318414614 -0.09169772745549341 0.13880890510055646
-1.3030995841568536 -0.11309369487731506 0.2403402607532963
-1.9628563177730132 -0.12485501330371625 0.33496057444707433
-2.6171633025493533 -0.18007237550214805 0.4481873445867571
-3.246287378151923 -0.3348300339516089 0.5999539780915727
-3.807767396817821 -0.6357017957138865 0.7891958728625799
-4.258081410835559 -1.0868142613058305 0.9772413576557291
-4.593707361594472 -1.6476973423662507 1.0995717431248127
-4.845542790249434 -2.2629334301114383 1.0920624961769216
-5.048274714474171 -2.8707933461711024 0.9155121792854385
-5.227283755260828 -3.4173245770310308 0.581347521645668
-5.397123276778627 -3.8843832612049765 0.13821070011162742
-5.563108685221567 -4.283664813179883 -0.3687173326676773
-5.723512536945771 -4.635437229106076 -0.9117252375334894
-5.87189018710229 -4.957375438592884 -1.476262185083491
-5.998339568787516 -5.263696949194981 -2.054685853107423
-6.0893060159917125 -5.56516945071309 -2.6421472325212982
-6.12757972883211 -5.869498634530025 -3.2337960468576763
-6.096348865829591 -6.180205291873 -3.822452568865958
-5.988571844529728 -6.49616398623742 -4.3990828893065546
-5.814212833625232 -6.816107334172163 -4.957175192007607
-5.594339548224086 -7.143893250902443 -5.494269485690489
-5.3515405635756155 -7.4894859051209695 -6.010033715891008
-5.106083875830144 -7.8675717362593325 -6.50094709138195
-4.876839557191411 -8.297551850187288 -6.955381368999282
-4.685470992989424 -8.803017322464 -7.3437672254449025
-4.56101520547281 -9.402639246091377 -7.599056274004169
-4.535101016047743 -10.061531624193874 -7.600252683982027
-4.614439220087906 -10.62839422037668 -7.2745934366827285
-4.766470736734005 -10.975249188512525 -6.731984757604019
-4.962158543737414 -11.09159879147577 -6.108708389244922
-5.182830280712766 -11.00827339909838 -5.487358443731527
-5.410413059647079 -10.772252381146503 -4.908136324133388
-5.629954290584032 -10.437557957224165 -4.375561519837203
-5.832885194010595 -10.051231598886615 -3.871690415942002
-6.015150142883183 -9.65121876666041 -3.3705441864667103
-6.174490659891896 -9.272932688936772 -2.8454773617349645
-6.30971160244233 -8.959037294830775 -2.2738962969636334
-6.420944778413399 -8.765675136460175 -1.6473640205186058
-6.510781986962647 -8.754245872497968 -0.9896008810710593
-6.583275052983307 -8.959435253234428 -0.36293552936366413
-6.639356770695403 -9.360843474640316 0.16279540429646905
-6.672647131805994 -9.900330588278914 0.5496527963000386
-6.6729791862701875 -10.517493098869805 0.7982982208085296
-6.631649811929138 -11.16887749740786 0.9300642760712077
-6.544536210416348 -11.827835779449815 0.9765113447878834
-6.414566037503908 -12.481545826620676 0.9813616212553228
-6.251304236097427 -13.127746626843647 0.9934549941459176
-6.070766730868717 -13.766239200916903 1.0550510972538405
-5.892222819808621 -14.394832242853452 1.1854217633368345
-5.730223332319456 -15.013590389209305 1.3730692897263317
-5.58769465678986 -15.628095196703196 1.5886905036489676
-5.458786551209459 -16.245857179666466 1.803647608643216
-5.332403073463691 -16.870196882741055 2.0001997711602884
-5.194259544674973 -17.49858967809233 2.174623418620791
-5.027276705456001 -18.123195531691653 2.3369549605741495
-4.810725232080243 -18.729526983309263 2.5087209049376518
-4.521745329239831 -19.289745955441298 2.722880825741145
-4.149107979557837 -19.759329267449875 3.010797393866066
-3.7128809325993077 -20.104856017728945 3.3753944629341497
-3.247350712867413 -20.33715599786833 3.7912223395551643
-2.771388026257618 -20.495965481211023 4.229841572777684
-2.2878501887604736 -20.61663305959224 4.672580435908073
-1.7932157754570406 -20.719095308389825 5.107678244211654
-1.283099005914716 -20.808134699056595 5.52749267547817
-0.7553073067630603 -20.87856890066091 5.92856947611159
-0.21170119690831918 -20.921294931565093 6.311970713443952
0.3410744322152811 -20.931129193454066 6.684408450232395
0.8938500613388815 -20.911859261771497 7.056513498864918
1.4381874514449193 -20.87577812230154 7.439715756995455
1.9678396695028204 -20.839564541260938 7.842852055736946
2.4789263042311154 -20.82062729773429 8.270361405626941
2.9707765929382983 -20.833185800351448 8.720050599603276
3.4463936007118003 -20.885413404988686 9.184106218689791
3.9116316885582116 -20.98036640683838 9.651922164475783
4.373182007407723 -21.118311590117 10.112608761503356
4.8362207096976455 -21.300311022156578 10.556151779433481
5.301206271391421 -21.531082537853912 10.974132306846224
5.761560338686007 -21.820194882264964 11.359447610035643
6.203515325151877 -22.178811802518936 11.705698353111163
6.609183301548447 -22.61145088692734 12.00891762587078
6.964044925031013 -23.108876078590143 12.274541077513417
7.2638834821390645 -23.651485391360577 12.519074159568884
7.51293695461165 -24.219411322258875 12.763268374974107
7.718004250676608 -24.796978872761574 13.025290398117454
7.884431025406402 -25.372938113664805 13.316562522352147
8.014364919467553 -25.94185387103843 13.638638995452325
8.106143442618055 -26.506570470192624 13.98067762923378
8.153985504457086 -27.079200611615622 14.318336047188096
8.14822453376855 -27.678031371123637 14.609854697306899
8.08044819368417 -28.31316854751005 14.795624357479165
7.957607567558811 -28.965834904408915 14.8306773321244
7.803431677719147 -29.605185180232716 14.727202800400963
7.638827519209264 -30.21971715725934 14.529163660446997
7.4745124231405695 -30.812484397885598 14.272478638523488
7.315064723117337 -31.38939862212068 13.979013119099397
LINES 1 98
97 0 1 2 3 4 5 6 7 8 9 10 11 12 13 14 15 16 17 18 19 20 21 22 23 24 25 26 27 28 29 30 31 32 33 34 35 36 37 38 39 40 41 42 43 44 45 46 47 48 49 50 51 52 53 54 55 56 57 58 59 60 61 62 63 64 65 66 67 68 69 70 71 72 73 74 75 76 77 78 79 80 81 82 83 84 85 86 87 88 89 90 91 92 93 94 95 96
POINT_DATA 97
SCALARS MaximumInscribedSphereRadius float
LOOKUP_TABLE default
0.9300000071525574
0.9300000071525574
0.9348239898681641
1.0870100259780884
1.2321300506591797
0.8998069763183594
0.6760709881782532
0.9613670110702515
1.0669000148773193
0.959492027759552
0.8021739721298218
0.6333450078964233
0.9259690046310425
1.2404999732971191
1.2621500492095947
1.245270013809204
1.1424399614334106
0.9980649948120117
1.010259985923767
1.1618000268936157
1.1662100553512573
1.0167700052261353
0.9890769720077515
1.1324900388717651
1.2400000095367432
1.2400000095367432
1.3088500499725342
1.6645300388336182
1.8600000143051147
1.8600000143051147
1.8600000143051147
1.8600000143051147
1.8600000143051147
1.8600000143051147
1.8600000143051147
1.8600000143051147
1.8600000143051147
1.8600000143051147
1.8600000143051147
1.8976500034332275
2.0652201175689697
2.1700000762939453
2.1700000762939453
2.0873000621795654
1.934399962425232
2.0071001052856445
2.2987399101257324
2.3120200634002686
1.8619600534439087
1.5999000072479248
1.754729986190796
1.9064799547195435
2.0531198978424072
2.1202800273895264
1.8435300588607788
1.5690399408340454
1.5499999523162842
1.5499999523162842
1.5499999523162842
1.5499999523162842
1.6088999509811401
1.6740100383758545
1.771880030632019
1.860859990119934
1.872920036315918
1.8917399644851685
2.1779699325561523
2.466860055923462
2.333620071411133
2.1817500591278076
2.1700000762939453
2.1700000762939453
2.3025100231170654
2.453310012817383
2.233150005340576
1.9341200590133667
2.084789991378784
2.385279893875122
2.2706499099731445
1.961859941482544
1.933650016784668
2.042639970779419
2.211440086364746
2.403749942779541
2.4851200580596924
2.493649959564209
2.4352500438690186
2.281589984893799
2.1249799728393555
1.9663000106811523
1.8600000143051147
1.8600000143051147
1.9601600170135498
2.1147000789642334
2.0891799926757812
1.9685200452804565
1.8600000143051147
FIELD FieldData 2
Curvature 1 97 float
0.26842803981
0.12692168634
0.019626099243
0.077259316178
0.1752615578
0.25893999534
0.2889314241
0.2606144833
0.24750719092
0.27018659705
0.26633914476
0.21552000466
0.1512421534
0.096240377869
0.058605890285
0.045026088499
0.058772918901
0.083803312024
0.10812514302
0.11849167916
0.10661801694
0.080023295731
0.056104615882
0.060285780084
0.10138552333
0.17181171191
0.28223695007
0.44274836338
0.56832756406
0.49000996653
0.37890801135
0.31051162998
0.24899178352
0.17534627772
0.10039718799
0.03970630503
0.06165044712
0.13193433242
0.21108021499
0.28735277577
0.33633730857
0.33807576691
0.30160878039
0.24731887367
0.19584527126
0.14778425914
0.090930590267
0.058315315159
0.086893635409
0.10835280002
0.095519148419
0.062745347737
0.040827933461
0.039947782155
0.039961048933
0.050508439138
0.092515968033
0.1609197379
0.23080157228
0.24636391947
0.19725615746
0.12333108585
0.064583771577
0.035677221041
0.03800528132
0.0481831646
0.055588031236
0.055122550976
0.044764530026
0.033303870674
0.037736636302
0.05354760203
0.065596301438
0.068705051864
0.066333620409
0.065373600836
0.070539433677
0.082693218595
0.1013258952
0.12343796319
0.14149242142
0.13932564541
0.11632922203
0.089109714313
0.073776478043
0.0729569945
0.075250232772
0.074291292504
0.085823330518
0.12954477288
0.19969730219
0.25261903154
0.24214781568
0.19453800885
0.15152132076
0.12119951109
0.1003043077
Torsion 1 97 float
0.0050889615878
0.016278028417
0.69902293336
0.020657158605
-0.043234642964
-0.10956331191
-0.22728500724
-0.43215601339
-0.48350394252
-0.31081588963
-0.1691763978
-0.093863134959
-0.027520859439
0.083849247357
0.33124557938
0.58171832394
0.31880864819
0.12822751391
0.044048877271
0.019106413442
0.077105138492
0.24621953946
0.59932908832
0.51107825252
0.13167380662
0.011591311051
-0.0648460568
-0.098756386485
-0.046893873092
0.027818842713
0.060274380882
0.033456762425
-0.01926174472
-0.08202855569
-0.24154477089
-1.3930591965
-0.60731092138
-0.17889809799
-0.11195416971
-0.091280948865
-0.066063447152
-0.017005019203
0.048656427496
0.10036568429
0.13966321309
0.21307916171
0.51538649806
1.1751568153
0.47586955747
0.248313367
0.22856664162
0.3426036921
0.51679234869
0.42941136866
0.61110223218
0.66060791361
0.3388735916
0.18509115186
0.10523557344
0.070837744074
0.021516166402
-0.063021453215
-0.27238234308
-0.58786593099
-0.080370348427
0.1971100012
0.26635600169
0.33105940255
0.50872506756
0.89306562751
0.70322269881
0.37108655114
0.26178567242
0.25462657409
0.28439822703
0.27570927951
0.16781612261
-0.00022674889589
-0.10197674526
-0.11540131651
-0.11832636062
-0.16698644563
-0.25372886465
-0.38470979362
-0.41988671674
-0.2348061425
0.026107833703
0.32018944072
0.45409490722
0.3181725309
0.17952745101
0.10143780083
0.062164450919
0.043314809034
0.033329106383
0.026410672772
0.02128561594
