# vtk DataFile Version 2.0
Vessel Segment
ASCII
DATASET POLYDATA
POINTS 47 float
0.0 0.0 0.0
-0.8613118906263976 0.07601781889763778 1.0916122346982209
-1.8839810634839953 0.11285013319241097 2.0353128570400942
-3.0483718489397034 0.044723821186554505 2.7942972839297635
-4.294652534663704 -0.20756406229316787 3.358858935479672
-5.533608387340456 -0.695524879501543 3.762534074913327
-6.693028190323649 -1.4026810161488037 4.0692820714660005
-7.754835080985978 -2.263536662526354 4.337910233774187
-8.735034459168986 -3.218271660970591 4.6014840549464475
-9.653154577376624 -4.2321348576387905 4.868685381043695
-10.518011439597899 -5.292937730340333 5.131303796386605
-11.320904093305977 -6.406913196165113 5.368111728470928
-12.027159956388399 -7.594414634584854 5.545156946089404
-12.567032587569255 -8.874966130170339 5.617118747012125
-12.848081025659008 -10.234444579473173 5.541224397976331
-12.815139332545613 -11.604030390514577 5.305524393315402
-12.507809641082325 -12.90950695179323 4.934152799286734
-12.023130349079118 -14.124701293664701 4.456660509669489
-11.449180696295876 -15.262104340441137 3.892292316245358
-10.849185340263235 -16.34834464574917 3.258026315417893
-10.265972146508467 -17.416513453096353 2.5788126630126156
-9.730544265287346 -18.50762718648071 1.897010765375094
-9.27617278023374 -19.679924664960943 1.298967652732871
-8.979849981273889 -21.003359818604853 1.042207123027837
-9.03866141657689 -22.189351227216903 1.6816661209858124
-9.406000267029732 -22.7388753060208 2.894672339209414
-9.914360517308033 -22.837104494717597 4.1841691272455215
-10.509121774611769 -22.612675571749786 5.421200467730774
-11.146475842518623 -22.104955284913157 6.548592551698207
-11.763433613622096 -21.33900570522886 7.53258726633298
-12.277869802596422 -20.357240711040333 8.374043288401555
-12.597093867461817 -19.225652632570117 9.118266794267742
-12.61660408643314 -18.038054795220805 9.84012805940733
-12.219090225158844 -16.967129374647953 10.623468732279052
-11.387465573372952 -16.309226488343675 11.506700484982659
-10.362096570220801 -16.25699675598361 12.43352188585045
-9.415809353313286 -16.70520423927797 13.344783649392621
-8.666570379509654 -17.480458296465525 14.222473846079332
-8.148277763944282 -18.473550164878326 15.047067132706514
-7.870088873617842 -19.62352666929701 15.778644469066624
-7.829383435207675 -20.89075728540277 16.3499910206182
-7.992954240719088 -22.234727391844647 16.664451591802976
-8.270869811606204 -23.595230574974124 16.62465600082394
-8.520137743795543 -24.89379678558934 16.1990194025147
-8.605868765880478 -26.065014067845095 15.455861897140213
-8.462194435325301 -27.07924470289894 14.515154923748083
-8.092721510239144 -27.939368258005086 13.485251085506382
LINES 1 48
47 0 1 2 3 4 5 6 7 8 9 10 11 12 13 14 15 16 17 18 19 20 21 22 23 24 25 26 27 28 29 30 31 32 33 34 35 36 37 38 39 40 41 42 43 44 45 46
POINT_DATA 47
SCALARS MaximumInscribedSphereRadius float
LOOKUP_TABLE default
1.2400000095367432
1.112339973449707
0.9699329733848572
0.9300000071525574
0.9300000071525574
0.9300000071525574
0.9300000071525574
1.0579899549484253
1.1998100280761719
1.2400000095367432
1.2400000095367432
1.2400000095367432
1.2400000095367432
1.2400000095367432
1.2400000095367432
1.3312900066375732
1.487630009651184
1.5499999523162842
1.5499999523162842
1.5499999523162842
1.5499999523162842
1.5499999523162842
1.5499999523162842
1.6128300428390503
1.8535799980163574
1.8600000143051147
1.9117900133132935
2.065119981765747
2.1309900283813477
1.9977500438690186
1.883039951324463
1.8711700439453125
1.8413599729537964
1.6677800416946411
1.4184199571609497
1.0679399967193604
0.9300000071525574
0.9300000071525574
1.0033999681472778
1.1487799882888794
1.2989100217819214
1.4553600549697876
1.6157499551773071
1.7734099626541138
1.9208500385284424
2.053410053253174
2.1700000762939453
FIELD FieldData 2
Curvature 1 47 float
0.1771955444
0.19371277084
0.20451931245
0.2095672132
0.20844896135
0.18916868586
0.14466676993
0.098816431467
0.064285604807
0.049223554448
0.065145479777
0.10748292109
0.16740111847
0.2285720056
0.25873745375
0.23453054601
0.17540438564
0.11825604693
0.07156443918
0.037871820971
0.060822036994
0.15096535846
0.35208127966
0.82353267601
0.72038222972
0.36863210688
0.25158961601
0.22204604216
0.2134135455
0.20068890935
0.19089689944
0.22623419786
0.32816383862
0.45749956377
0.47996141186
0.37826647735
0.28009635771
0.22979386812
0.21429091572
0.22347284367
0.24618243384
0.27217826746
0.28674600345
0.28397476087
0.26883859131
0.24331182305
0.21231429282
Torsion 1 47 float
-0.082852908985
-0.1382593304
-0.22512853493
-0.31639577133
-0.32612302219
-0.24209791269
-0.17678931137
-0.1295984967
-0.0063834637544
0.2161009518
0.18226618688
0.054745320293
-0.00093350729895
-0.020489820363
-0.0096223008271
0.053922451885
0.13291080496
0.22190018399
0.37699011817
0.95429163603
0.46562079764
0.1749226684
0.12145629922
0.069881320243
-0.05676420757
-0.084417011204
-0.028228278677
0.070286379837
0.16846092466
0.31910067168
0.4697861045
0.44253618601
0.3209262226
0.26220540064
0.2444405758
0.21897491718
0.16222187212
0.040881224388
-0.068027885863
-0.17328876093
-0.27005233184
-0.32705633301
-0.34433223708
-0.2928291806
-0.19698271437
-0.11732472375
-0.069221959105
