# vtk DataFile Version 2.0
Vessel Segment
ASCII
DATASET POLYDATA
POINTS 106 float
0.0 0.0 0.0
-0.5654300175877043 -0.010902644160767947 0.2262937671702105
-1.1461671895677912 -0.018821700277540574 0.4106186282215569
-1.7323199572527352 -0.04081055826845001 0.5757546496566157
-2.3178267455948203 -0.09003046632756907 0.7371762898702363
-2.8965051488778824 -0.1781113762930571 0.9061498468618825
-3.4605827924456447 -0.3157142709887852 1.0904747079132289
-4.000684842993202 -0.5113065918729457 1.2930124685664721
-4.507399869465108 -0.770128207356138 1.5101684164352716
-4.9739369559278925 -1.0941286738004428 1.729822306007572
-5.398077581598842 -1.4825737125283664 1.929923702124889
-5.781650472171589 -1.9316896888175965 2.0772732167976717
-6.128126604780648 -2.4289868941506296 2.128075541880125
-6.43860275010886 -2.944376168417111 2.0421870114469654
-6.711982718390059 -3.4350346579855846 1.8097413366860402
-6.948875310299891 -3.8717236647582363 1.4584528903393528
-7.150681696859016 -4.251032046018099 1.0270630054781742
-7.31636668455217 -4.582280028902607 0.5435323635148064
-7.441178374975949 -4.876126272568932 0.02479236186558261
-7.516954888843332 -5.142137312824804 -0.5179476313042064
-7.534436995267786 -5.389019928798613 -1.074514603177885
-7.486741993481153 -5.625729531955747 -1.6337003474235126
-7.37411270665368 -5.86243913511288 -2.183567026365057
-7.206844140103842 -6.111087737779397 -2.714002042520066
-7.00120021798813 -6.385563895826761 -3.217452317277164
-6.77374868388418 -6.701340905816471 -3.6860603716871534
-6.539901838102593 -7.075105018327913 -4.105936488045219
-6.317141206151148 -7.524708964624338 -4.449854263616554
-6.130745958069272 -8.060504679858395 -4.66530580196022
-6.021588810209666 -8.65453148261778 -4.666950957984479
-6.029263881322841 -9.1917283688725 -4.394423194465846
-6.137385254750507 -9.550875456001735 -3.9198456403011654
-6.297283150524993 -9.713270712563046 -3.357431161174594
-6.472470773191604 -9.708153998487596 -2.7753421960912408
-6.639739339741442 -9.569454333109029 -2.2070790478784263
-6.78398211203508 -9.328235654718739 -1.667080981415736
-6.895515209096389 -9.01453251725961 -1.157052406228302
-6.96836738842065 -8.655628253300621 -0.6702918675506403
-6.999189665375149 -8.275834225700264 -0.19486152770671775
-6.988408432799504 -7.899874248156442 0.2844667630280165
-6.941139242935817 -7.554921279069842 0.7842619100645504
-6.868469471447578 -7.274475621267787 1.3197532249607853
-6.791230790308634 -7.100140203363742 1.8972738613101086
-6.741586813076595 -7.072181845618141 2.502084801228515
-6.751271855886075 -7.206069197259081 3.094346779128544
-6.831738690989288 -7.4823136656658535 3.6295325318536067
-6.97445888067714 -7.8675915466804085 4.077673729961796
-7.160123335581574 -8.332238911198662 4.423541061895212
-7.367290421219747 -8.853049299878414 4.660128672550546
-7.576771878892046 -9.410286649595312 4.786524522747684
-7.773522547626621 -9.985858891415903 4.810890491773646
-7.948222781202712 -10.566242285140774 4.751377902062754
-8.096181096551138 -11.144981684674736 4.631804337299549
-8.216181054153964 -11.721894682181764 4.4767797515135905
-8.308343484679638 -12.30026810421033 4.308597403033612
-8.372790380629956 -12.884002225317943 4.146080153970502
-8.409460164837348 -13.47541141753873 4.004151753710991
-8.417317643786546 -14.074435265538467 3.8933500307438003
-8.393805622273176 -14.678819812617254 3.8198268926596444
-8.334475440398307 -15.284177976043729 3.78656825116922
-8.231531196380313 -15.88448100256233 3.7939993372787972
-8.07364385321881 -16.470773480707667 3.8415125121460827
-7.845582937522541 -17.028559215765984 3.928192251090909
-7.533279809250723 -17.535725033577872 4.052698960260191
-7.133991379862905 -17.965835739920188 4.212901837289173
-6.665139921365992 -18.302200436880145 4.406119370804982
-6.155415746516381 -18.548046697505338 4.63058557411491
-5.629793044098999 -18.719213795862665 4.886240031884734
-5.1045961536045645 -18.832391468031556 5.1733865635355984
-4.589085467752959 -18.899579128855624 5.490928398384666
-4.087827572528189 -18.92692868592558 5.836186348725763
-3.601987786780771 -18.915538071757616 6.203677722978041
-3.1300661836552544 -18.863335737487855 6.5854840459414055
-2.668676599851707 -18.767396186739816 6.971614712635201
-2.2135612065990107 -18.627051365336992 7.351593471738283
-1.7603523818744284 -18.447174002351225 7.717013297126682
-1.3048713015746731 -18.239397535120734 8.064403211665882
-0.8433112187269449 -18.020048045886256 8.396381987727834
-0.3728029858722693 -17.807034033911865 8.719796309246828
0.10752448154386524 -17.61935960731113 9.044331219032347
0.5950216225657221 -17.47736962988404 9.380896913161937
1.081458735884448 -17.403359683626043 9.739628935326719
1.5513603101937197 -17.41895381085599 10.126149687567933
1.98410706210225 -17.538161398113797 10.536944333542086
2.3619378364145436 -17.760130821553574 10.95916648189308
2.677953548696836 -18.070363562794864 11.376820011051704
2.936190398931822 -18.449367543716907 11.777417826625497
3.1461837168095865 -18.879660657895244 12.153875649759993
3.3183558010150644 -19.34802414638496 12.503348876725747
3.461398980374347 -19.844774128209924 12.825843316689511
3.581161052598665 -20.36290474826683 13.123271928262826
3.6805354184181835 -20.89748170031625 13.398381793788285
3.759966624318625 -21.444911433805192 13.65386531682642
3.8182000355106553 -22.00300156920133 13.891549843393763
3.8530852436917313 -22.57004537331283 14.11181075458439
3.862173539846579 -23.145057030541825 14.313235351812365
3.8429857168344728 -23.72703097412348 14.49266406558839
3.7929330647214075 -24.31463922853822 14.645733730609843
3.709103883901948 -24.905665015753353 14.767569865978025
3.5883244813501287 -25.496562710841598 14.853539561362902
3.427634650918132 -26.082325392979126 14.899945309357088
3.2249997319509567 -26.656770511220596 14.904616787108264
2.979950634233351 -27.213197336946376 14.867325512826604
2.693675332366166 -27.745246575312688 14.789672329486235
2.368721781347911 -28.24747071650483 14.674567702244657
2.0085300381153806 -28.715657754958254 14.525699299233072
LINES 1 107
106 0 1 2 3 4 5 6 7 8 9 10 11 12 13 14 15 16 17 18 19 20 21 22 23 24 25 26 27 28 29 30 31 32 33 34 35 36 37 38 39 40 41 42 43 44 45 46 47 48 49 50 51 52 53 54 55 56 57 58 59 60 61 62 63 64 65 66 67 68 69 70 71 72 73 74 75 76 77 78 79 80 81 82 83 84 85 86 87 88 89 90 91 92 93 94 95 96 97 98 99 100 101 102 103 104 105
POINT_DATA 106
SCALARS MaximumInscribedSphereRadius float
LOOKUP_TABLE default
0.9300000071525574
0.9556310176849365
0.9763879776000977
0.8162279725074768
0.6552559733390808
1.0503100156784058
1.6058100461959839
1.7051700353622437
1.4171700477600098
1.180400013923645
1.0263299942016602
0.8801460266113281
0.7507380247116089
0.8714939951896667
1.1729899644851685
1.1903400421142578
1.1289700269699097
1.1622300148010254
1.2206699848175049
1.2400000095367432
1.2400000095367432
1.2400000095367432
1.2400000095367432
1.2400000095367432
1.2400000095367432
1.2978099584579468
1.44923996925354
1.6700700521469116
2.022969961166382
2.0480399131774902
1.845579981803894
1.6559200286865234
1.5499999523162842
1.5499999523162842
1.616070032119751
1.7603000402450562
1.8600000143051147
1.8600000143051147
1.8600000143051147
1.8600000143051147
1.8620200157165527
2.1788699626922607
2.4367599487304688
2.0762100219726562
1.9335500001907349
2.1106600761413574
2.1700000762939453
2.1700000762939453
2.1700000762939453
2.1700000762939453
2.2977099418640137
2.4475700855255127
2.3664000034332275
2.223439931869507
2.2573699951171875
2.3968300819396973
2.4245400428771973
2.2863399982452393
2.1480700969696045
2.0088999271392822
1.8675700426101685
2.1350700855255127
2.4357800483703613
2.0922698974609375
1.63155996799469
1.566980004310608
1.551650047302246
1.5499999523162842
1.5499999523162842
1.7780100107192993
2.0738399028778076
2.0899500846862793
1.9117000102996826
1.7637399435043335
1.656309962272644
1.6195399761199951
1.7484899759292603
1.8971600532531738
2.188469886779785
2.4815800189971924
2.490410089492798
2.4814999103546143
2.4800000190734863
2.4800000190734863
2.3544700145721436
2.2041900157928467
1.957550048828125
1.6874500513076782
1.662750005722046
1.7979899644851685
1.9005000591278076
1.9447100162506104
2.0101399421691895
2.23471999168396
2.4612600803375244
2.3490400314331055
2.2054901123046875
2.1700000762939453
2.1700000762939453
2.2583999633789062
2.403170108795166
2.547149896621704
2.6895899772644043
2.7106199264526367
2.4365899562835693
2.1700000762939453
FIELD FieldData 2
Curvature 1 106 float
0.18194943999
0.10276677097
0.059970416813
0.050420625803
0.066438921957
0.088897821755
0.10882605989
0.12245546101
0.12940658493
0.13641131345
0.15593079775
0.19537943048
0.24017962858
0.25821123974
0.23252453242
0.18005752772
0.13414819056
0.10765263745
0.1003690841
0.10441979914
0.10962616878
0.10905676739
0.098962882918
0.088332125159
0.09492644096
0.12660354956
0.18486556729
0.27491835551
0.40326694897
0.52645300265
0.49282523442
0.37728455804
0.28846816704
0.22794952127
0.1835604262
0.14192513676
0.10524611219
0.080377777854
0.075198507018
0.097507645268
0.14208222169
0.19961632419
0.25696097149
0.29005729111
0.28180023341
0.25485473105
0.22663675415
0.2065244946
0.19252496383
0.17423049195
0.14590460432
0.11107266905
0.077033091748
0.052717839006
0.048136530183
0.058757855064
0.071077263459
0.080658858326
0.088571210514
0.098966210752
0.11654364417
0.14397970888
0.17757338388
0.20358884597
0.20248549024
0.17444712384
0.13895132399
0.11042935791
0.092597422867
0.082818110074
0.077512913187
0.075002475515
0.074745924107
0.075117733791
0.070595544148
0.056250902294
0.035279927784
0.023570492809
0.04494613964
0.080153893261
0.12030471103
0.15981834576
0.18781966751
0.19469712899
0.17986795855
0.15315578329
0.12494979072
0.10004692537
0.080405242637
0.065922020282
0.056225765944
0.05079974364
0.049179939747
0.050613166643
0.054378327647
0.060067139099
0.067323199512
0.075737562749
0.084583381076
0.092792028992
0.099288086805
0.10313238021
0.10433694011
0.1036083333
0.10158482432
0.098629451953
Torsion 1 106 float
-0.11060319832
-0.20090797872
-0.40898167398
-0.44633710474
-0.19886702772
-0.068116623504
0.0072493812929
0.079330888202
0.17899861867
0.28311486069
0.33570746259
0.28708951627
0.20010350098
0.1314686465
0.052115456447
-0.031754763923
-0.11928123546
-0.2098066824
-0.24553802058
-0.2262072709
-0.20777112146
-0.22198700953
-0.31376485704
-0.42773686808
-0.35993860327
-0.18831569765
-0.078584548347
-0.018756014187
0.0092618077119
0.027244471631
0.042306948236
0.051345401089
0.06515564223
0.082946859178
0.11371735124
0.17456877894
0.29618739642
0.50286295696
0.60316975663
0.42761406927
0.27299686614
0.20496632029
0.17136968135
0.12350579394
0.053100924201
-0.0078320750161
-0.072284336488
-0.093389460844
-0.086250255842
-0.08041020016
-0.097757839216
-0.15611951349
-0.30107814528
-0.57079766114
-0.56400284497
-0.26631666262
-0.094364889116
0.0052533617285
0.073795656471
0.12034688347
0.13092232354
0.10660166461
0.058315669707
0.0017232771934
-0.067802173098
-0.12686606068
-0.17374010837
-0.17681746707
-0.12312016339
-0.014404937086
0.10902281472
0.2056255741
0.24500998775
0.23600312624
0.21914859433
0.27072739055
0.60137118156
1.3712828054
0.45190472486
0.18742726826
0.10533866309
0.062377829972
0.027608371841
-0.0036329944796
-0.032799534602
-0.056081816268
-0.074436145438
-0.085080791534
-0.068439305606
-0.02370260185
0.036146057397
0.080745397749
0.083562172544
0.048599482524
-0.00086860304472
-0.028976804256
-0.03048143019
-0.015338600153
0.004153104586
0.017679878083
0.025575036909
0.029506623738
0.029908270686
0.028084868739
0.02537692407
0.022504940314
