# vtk DataFile Version 2.0
Vessel Segment
ASCII
DATASET POLYDATA
POINTS 78 float
0.0 0.0 0.0
-0.8076888389753131 -0.18259786425681276 0.060041138924627875
-1.6158478308377593 -0.2662272676483971 0.23183512186373093
-2.4053013840355453 -0.26078442703114674 0.4907224200554546
-3.1710850694839996 -0.18680426767026 0.8052808539247767
-3.9190623288148334 -0.06630984408640324 1.1475490096070657
-4.659567480361869 0.08090798308295916 1.495757097708643
-5.403181815284627 0.23719616256419027 1.8332415313339787
-6.1589446176573475 0.3851564812859637 2.14639678201527
-6.933552862398466 0.5055691049530294 2.4229339853299847
-7.7294479624091315 0.575836806551861 2.6515537412336982
-8.541408880692623 0.5702287930257056 2.8278844734040587
-9.354276676899769 0.4656507455589989 2.9642968461803885
-10.145207151191348 0.248742535434311 3.096172469725461
-10.886570022058198 -0.0785971354336121 3.2772869239527744
-11.552138977716853 -0.48742368110332335 3.5586896492412334
-12.13548014009663 -0.9291573894528786 3.951763418627377
-12.658780950089442 -1.368992395887688 4.424672333726258
-13.157338858328284 -1.8008298873808497 4.930817184247471
-13.664144400485117 -2.2368722092121356 5.424839916330379
-14.203526759503983 -2.6983983512744785 5.856675834748218
-14.782662305007976 -3.2099876154882643 6.15869685829399
-15.370375830247768 -3.786648713509327 6.246285692273325
-15.883119731748566 -4.4099090218207975 6.065995529515214
-16.236109968831773 -5.035395231714177 5.654200590711181
-16.399244172118287 -5.629788034775022 5.099642774052253
-16.386626534953265 -6.181789604034231 4.480011550510723
-16.228192680731595 -6.693873600437071 3.8455367882222657
-15.954460270717618 -7.174617217181678 3.225658591855041
-15.591325270876998 -7.635814586501534 2.637451120963857
-15.159324179550254 -8.091732715037722 2.0930364939870185
-14.674126400028841 -8.559280589436144 1.6065204773450112
-14.149093634105512 -9.061797928262738 1.2042914095795623
-13.60451540729509 -9.634582968688164 0.9554670742284603
-13.13779182436587 -10.288935110756846 1.0773631079250252
-13.033627495709087 -10.733389452877365 1.744004114416239
-13.192885641399963 -10.852755194917037 2.5475530124104977
-13.434535180203296 -10.804358746070212 3.3407101748216474
-13.699279037822194 -10.662940061078737 4.115805286375205
-13.959898291944436 -10.466255307305314 4.88034348943675
-14.195939817221614 -10.241676781906142 5.645210465240781
-14.383733549269982 -10.020068222716615 6.4240180345563935
-14.490290525492902 -9.849510676981314 7.229792834132562
-14.474702922118238 -9.80868622620129 8.057589115154075
-14.325754712093682 -9.9763563921814 8.854538962168748
-14.100929213868815 -10.344688046351235 9.562995456893415
-13.87222765804831 -10.843023364431888 10.186996683681974
-13.67940165804197 -11.416855286484706 10.756399612163154
-13.538617708943288 -12.03523276899388 11.293721242509015
-13.453174549704395 -12.67959706256861 11.811907984627064
-13.416803475163514 -13.338147349405293 12.317971821769147
-13.415071519232995 -14.003650235900386 12.816281970644631
-13.425216281990409 -14.672114043422015 13.310551675553237
-13.415401865050805 -15.340544423093032 13.80482059392418
-13.342245997159122 -16.002509266552497 14.301894305595862
-13.151318699067527 -16.639492494077743 14.798968017267544
-12.793626539844158 -17.21247544704223 15.28028895265566
-12.264882889234096 -17.6764107539616 15.719630013439076
-11.613417340382945 -18.01795558994698 16.104621321816136
-10.895724533899841 -18.259456473132296 16.446559918218277
-10.148340717234573 -18.430825160410272 16.767534139792065
-9.391555415901966 -18.55363457325585 17.08908568000936
-8.638234026430395 -18.639619958039933 17.43005998123856
-7.898603111494062 -18.69263882727486 17.805763852909188
-7.181768417599604 -18.71131532995633 18.22613598491136
-6.494903954757127 -18.692672393384044 18.6938568975953
-5.841698584598842 -18.63614036458427 19.20481929129291
-5.220162760110107 -18.546583005038258 19.74957134292651
-4.622008340683365 -18.43529446403706 20.316187175204334
-4.034303860626681 -18.31877453815303 20.892650459003544
-3.44264860189652 -18.216135109387388 21.467654322171928
-2.834663248239286 -18.146166242941305 22.03027847581788
-2.203123647868953 -18.12436164925611 22.57027983997631
-1.5480866281315613 -18.159434740021176 23.080755563495895
-0.8754085518198698 -18.25270920896213 23.56005578531453
-0.1931469073722119 -18.400495186695384 24.011372471896806
0.49109573049302135 -18.597101901185212 24.440604164117577
1.1712575897569224 -18.836756165996555 24.854223440158393
LINES 1 79
78 0 1 2 3 4 5 6 7 8 9 10 11 12 13 14 15 16 17 18 19 20 21 22 23 24 25 26 27 28 29 30 31 32 33 34 35 36 37 38 39 40 41 42 43 44 45 46 47 48 49 50 51 52 53 54 55 56 57 58 59 60 61 62 63 64 65 66 67 68 69 70 71 72 73 74 75 76 77
POINT_DATA 78
SCALARS MaximumInscribedSphereRadius float
LOOKUP_TABLE default
0.9796000123023987
0.7945740222930908
0.6491910219192505
0.9791769981384277
1.2400000095367432
1.2400000095367432
1.2058900594711304
1.0522500276565552
0.9621139764785767
1.119189977645874
1.2807899713516235
1.448330044746399
1.4048199653625488
1.0426499843597412
1.0758700370788574
1.2836799621582031
1.443019986152649
1.5115000009536743
1.385200023651123
1.2247999906539917
1.0133399963378906
0.9981480240821838
1.1128100156784058
1.1160000562667847
1.0742599964141846
0.9687550067901611
1.0288100242614746
1.1821000576019287
1.1658600568771362
1.046280026435852
1.0629199743270874
1.2582199573516846
1.3660900592803955
1.296489953994751
1.0493799448013306
1.2570600509643555
1.4278700351715088
1.082110047340393
1.0115000009536743
1.1638000011444092
1.2400000095367432
1.2400000095367432
1.4570599794387817
1.8485900163650513
1.8600000143051147
1.7821199893951416
1.6072499752044678
1.5499999523162842
1.5499999523162842
1.6533399820327759
1.803320050239563
1.672860026359558
1.3673299551010132
1.334380030632019
1.500849962234497
1.4221999645233154
1.2426799535751343
1.4265600442886353
1.5499999523162842
1.5499999523162842
1.4880900382995605
1.334920048713684
1.2469600439071655
1.2655400037765503
1.269919991493225
1.2506300210952759
1.24891996383667
1.2685999870300293
1.2660399675369263
1.246209979057312
1.12568998336792
0.9589920043945312
1.067620038986206
1.2328399419784546
1.2772799730300903
1.3090699911117554
1.1170400381088257
0.9300000071525574
FIELD FieldData 2
Curvature 1 78 float
0.19689252684
0.18408078739
0.1517418717
0.11113114447
0.071952542783
0.038670055832
0.019325656639
0.034281582795
0.061651231722
0.091474183328
0.11852355324
0.13513794602
0.14325920942
0.16136867699
0.18426403875
0.17891917266
0.13174548444
0.061966398666
0.018729981943
0.093272838448
0.1821222421
0.27845002741
0.34820182167
0.34623331034
0.29699628984
0.24125512264
0.19213729558
0.1509647175
0.11828805639
0.09718629505
0.1003210852
0.14471537587
0.25555641125
0.52712504212
1.0129489836
0.58288598468
0.27390749674
0.14401922202
0.074062536709
0.046096761759
0.079559505842
0.14739481599
0.23815573025
0.31384821894
0.29416298748
0.20486290623
0.13649760074
0.10046806505
0.080977449839
0.064265968088
0.0437416443
0.022991507696
0.040556923585
0.091028977505
0.1564221968
0.22283617978
0.25486658074
0.22732350525
0.1644041284
0.10354027854
0.061974663801
0.049355337296
0.060906968002
0.075698119616
0.083154410446
0.08149255035
0.06909555174
0.04686893681
0.018710958663
0.018061600379
0.046677557416
0.070481007655
0.082935451681
0.083916416478
0.077579186554
0.068870822199
0.060863722609
0.054500323038
Torsion 1 78 float
0.018236123451
0.029032730373
0.046606393154
0.079131796989
0.15454101034
0.41733132855
1.3402197205
0.43418781429
0.17718216186
0.13386870122
0.1757071888
0.27369632435
0.40303851377
0.44102471623
0.36301351429
0.23943013878
0.15284724372
0.099411434571
0.36539296908
0.10384308662
0.099874480819
0.11809348861
0.14148963456
0.15323958218
0.1425190579
0.12549999567
0.11906431322
0.13498721149
0.186221344
0.27677409077
0.29804445503
0.19444494055
0.10054860672
0.033018201334
-0.055458075699
-0.079761194413
-0.082252380914
-0.1267832369
-0.33294365722
-0.85543206246
-0.38514980731
-0.1963527143
-0.15803362874
-0.17007052471
-0.20468797987
-0.25543393471
-0.29197846742
-0.26262420922
-0.18028691604
-0.097548844517
-0.019651516472
0.19165403554
0.089020757657
0.027240375901
0.020136326202
0.021021547485
0.0254315083
0.036925677326
0.076133781487
0.17689067342
0.42017051431
0.50980222195
0.21263121703
0.043866810545
-0.012034687109
-0.02698640643
-0.013498781006
0.055897177284
0.68014172009
0.74299355273
0.088802131682
0.012866603887
-0.024547342869
-0.05528352706
-0.084398375906
-0.10573381825
-0.11821480009
-0.12570908961
