# vtk DataFile Version 2.0
Vessel Segment
ASCII
DATASET POLYDATA
POINTS 86 float
0.0 0.0 0.0
-0.5124477466201938 0.3365689537685247 0.43645560967705915
-1.0543471577061918 0.6214122328780286 0.8741008701216081
-1.6286453871879571 0.8511766689361359 1.3025171095166925
-2.2384464582195664 1.0196102070740813 1.7097964631395142
-2.8848676203881496 1.1175590666847355 2.081795147462029
-3.56448330412097 1.1334135055526668 2.403628331580739
-4.266130950963645 1.0546665746783699 2.6621970803743698
-4.970531972106495 0.873058860976814 2.8522899284879624
-5.655134819498255 0.5915659109977109 2.9852951557029055
-6.305575666807826 0.22723181437648213 3.0868172265089915
-6.921256849389486 -0.19478188926516649 3.1822363036999954
-7.510812562908957 -0.6503656068672351 3.2891913022950834
-8.085929209654992 -1.1194954433516282 3.41438146092407
-8.660079087698568 -1.5876570915025752 3.547833871900062
-9.246063009653593 -2.0469616619227713 3.657469133799471
-9.848941959990357 -2.4954741975763115 3.6816582261947683
-10.441923243082565 -2.929770548521447 3.5318317914094353
-10.953551152807501 -3.347096630642509 3.1756123055125163
-11.34817733543911 -3.769262234799816 2.694871307181704
-11.643290225111885 -4.230501762255917 2.1791491816889383
-11.859284240591649 -4.751805876791368 1.681885098295102
-12.006505652514997 -5.335333837138092 1.2306937189682283
-12.088825794584725 -5.967166161464062 0.8307084293589659
-12.108252025017102 -6.627653737271873 0.4707680906439197
-12.066570239594347 -7.299678654114755 0.1347925426281525
-11.965346291295626 -7.970586321370508 -0.1907629139396728
-11.80584365169978 -8.631222958432001 -0.5138609892682082
-11.58858474501019 -9.275782274560534 -0.8359170554519495
-11.312599963262423 -9.901958789032472 -1.1489684022822444
-10.97401939238467 -10.510568789665603 -1.43358737969573
-10.564731260914597 -11.101911818598284 -1.6531546063709261
-10.07766438690367 -11.665939727701284 -1.7428412136345748
-9.533064127864034 -12.157993055555655 -1.6012770311962474
-9.024487005131144 -12.496721977871598 -1.1724874288514617
-8.6454171388601 -12.660541005484811 -0.5473543431553055
-8.409847831694279 -12.69634196954202 0.16478792576215323
-8.302966653910538 -12.650567387982424 0.9074451627550223
-8.310037835859067 -12.557233038896502 1.6536756109433233
-8.418108664410296 -12.444099806243997 2.3894121468723344
-8.61452880783499 -12.336772864330195 3.1077326498472106
-8.88582454843118 -12.262268500661916 3.8054344323602463
-9.215993805708246 -12.252220352532689 4.481255442463591
-9.582782444306789 -12.344438871662469 5.130950983504746
-9.951134096622525 -12.579040700310339 5.742166006999864
-10.270065555002871 -12.978876218850425 6.2915305476334105
-10.491790620779003 -13.524370135596666 6.757310054987403
-10.600606755598648 -14.163869177070405 7.136678043765811
-10.612291738256415 -14.85040698149807 7.443402095285006
-10.555130296546418 -15.557041082184192 7.695718789209872
-10.455841305283602 -16.27202687196953 7.908735838508937
-10.335563069871222 -16.99154412386683 8.094065824659607
-10.208809897525043 -17.714501141646746 8.26101016989171
-10.083246375946356 -18.439891406939164 8.418056847879255
-9.959247287715847 -19.165586892893884 8.574805403359433
-9.830632979145111 -19.887598081528402 8.744356191084508
-9.68534652425767 -20.59820679407166 8.945092722526567
-9.504780819700908 -21.280472751404194 9.205223775221896
-9.26481917425989 -21.896265729926114 9.562336918825418
-8.945962956321878 -22.376246959497827 10.042184259449625
-8.552454023277399 -22.66612771043939 10.611496035087946
-8.100815460189477 -22.799758551285116 11.19747995704297
-7.597448383180558 -22.846329102193994 11.754659566262474
-7.044585871793916 -22.855677460973343 12.264948054150743
-6.448553801709662 -22.85558811294807 12.72432715519778
-5.819922745260409 -22.85904163150587 13.138126164130504
-5.169481897950838 -22.87135231652136 13.51665231173335
-4.505793764081804 -22.893346215775363 13.871026277346575
-3.834737035572368 -22.92205372742293 14.21078940083688
-3.159810392991121 -22.95074407040824 14.542827247401185
-2.482873552931634 -22.969873198693023 14.87147856424491
-1.805192116419225 -22.96876792724235 15.19906515784804
-1.1283298069865797 -22.937937002545294 15.52679335964217
-0.45457861886294837 -22.87132995733331 15.855615742019882
0.21329245771063174 -22.76828222685039 16.187028241134215
0.8733484656982554 -22.63521710895316 16.523427548999738
1.5257608255416581 -22.485948677872837 16.867924786925467
2.1729255194399224 -22.34125758073076 17.2240179256645
2.8176491578552523 -22.227521803451015 17.59525763977035
3.4596265201253447 -22.175339273794844 17.98412225003936
4.091578093454262 -22.215002787588116 18.389979133412748
4.698707241513602 -22.366332966496913 18.806993074170443
5.265093867502263 -22.63026756551539 19.225339161155993
5.7812031973468585 -22.99223558091521 19.63562986264749
6.245567687514102 -23.431786718142156 20.032067694054703
6.66198317062908 -23.92990797028987 20.412438785216157
LINES 1 87
86 0 1 2 3 4 5 6 7 8 9 10 11 12 13 14 15 16 17 18 19 20 21 22 23 24 25 26 27 28 29 30 31 32 33 34 35 36 37 38 39 40 41 42 43 44 45 46 47 48 49 50 51 52 53 54 55 56 57 58 59 60 61 62 63 64 65 66 67 68 69 70 71 72 73 74 75 76 77 78 79 80 81 82 83 84 85
POINT_DATA 86
SCALARS MaximumInscribedSphereRadius float
LOOKUP_TABLE default
1.1160000562667847
1.1840300559997559
1.2523399591445923
1.2669399976730347
1.2505799531936646
1.1877599954605103
1.0430699586868286
0.9300000071525574
0.9300000071525574
0.9580879807472229
1.1373200416564941
1.3121299743652344
1.040220022201538
0.7613300085067749
1.09197998046875
1.6463299989700317
1.705430030822754
1.5421700477600098
1.019029974937439
0.8250830173492432
1.187809944152832
1.4210200309753418
1.4959100484848022
1.5162500143051147
1.383430004119873
1.2541799545288086
1.1271899938583374
1.001189947128296
0.9852169752120972
1.1139999628067017
1.2537100315093994
1.4933899641036987
1.7500699758529663
1.4959900379180908
1.377810001373291
1.5721299648284912
1.7410500049591064
1.8897099494934082
2.0420498847961426
2.2097699642181396
2.3554000854492188
2.2797799110412598
2.2014999389648438
2.2226901054382324
2.254499912261963
2.214479923248291
2.1700000762939453
2.1700000762939453
2.1700000762939453
2.2867701053619385
2.4148499965667725
2.4800000190734863
2.4800000190734863
2.4800000190734863
2.237910032272339
1.979159951210022
1.8600000143051147
1.8600000143051147
1.7737499475479126
1.588230013847351
1.700350046157837
1.8226100206375122
1.490339994430542
1.3022300004959106
1.5999300479888916
1.833050012588501
1.5530200004577637
1.2768399715423584
1.121090054512024
0.9837409853935242
1.014050006866455
1.1524100303649902
1.2400000095367432
1.2400000095367432
1.2422900199890137
1.2589499950408936
1.2756799459457397
1.3900400400161743
1.5162700414657593
1.5499999523162842
1.5499999523162842
1.630020022392273
1.7507200241088867
1.7557599544525146
1.649049997329712
1.5499999523162842
FIELD FieldData 2
Curvature 1 86 float
0.076829001192
0.077968339185
0.085802564294
0.099589117276
0.11762427191
0.13751912105
0.15493963118
0.16481118374
0.15630045376
0.12867256832
0.092571439773
0.059840832426
0.036791702928
0.033101795758
0.075215590218
0.15212721748
0.25701974305
0.31145778659
0.24190766447
0.1688627194
0.14786245903
0.14707091767
0.13424316716
0.11113420119
0.091460103424
0.081105558421
0.078113230628
0.078868657551
0.083184453131
0.10059776966
0.14467073469
0.2250945868
0.34962432303
0.45648428084
0.40277529846
0.29001879674
0.21277690193
0.16658212602
0.13694869314
0.11875516907
0.11232816126
0.12294115639
0.15387858346
0.20088058318
0.24650249033
0.26196875634
0.2335476945
0.18325506899
0.13069593257
0.08639874902
0.05240211086
0.028483776824
0.013788226833
0.014685939492
0.037117743373
0.074698549561
0.13082052858
0.20720297379
0.28698047355
0.30771650324
0.22995531813
0.15431778988
0.11857200092
0.10171859519
0.082460653483
0.060781648032
0.040523019035
0.023612229315
0.011036322673
0.013787464151
0.027087491554
0.039580278105
0.047760442416
0.049424317715
0.042063135642
0.026810852977
0.020422699278
0.048446426541
0.087046920513
0.12559603778
0.15328622258
0.16221069766
0.15602536682
0.14184200992
0.12565583625
0.11050418916
Torsion 1 86 float
-0.15147773587
-0.14627017219
-0.12569198924
-0.094492837069
-0.055308785288
-0.013189089498
0.034857965595
0.087769605213
0.17460096709
0.23486111611
0.27532564856
0.42899697645
0.5525671832
0.30345079499
0.13553958576
0.12334190711
0.14369133389
0.2298294618
0.37330532353
0.47548902298
0.31903314134
0.10413318353
-0.07450480068
-0.19210227139
-0.252644733
-0.22263831699
-0.13077345404
0.0096240566126
0.17823959243
0.25150190199
0.20398087756
0.14018155614
0.10536329459
0.087663868426
0.082680199921
0.094118395137
0.11750297173
0.15108916028
0.2004929727
0.27118500527
0.34875714487
0.35530422291
0.28635716125
0.21893492092
0.17628800628
0.13861817011
0.094046900961
0.042590397722
-0.011630306438
-0.076733455372
-0.17862109228
-0.34142764662
-0.49992808864
-0.1748166093
-0.066089688547
-0.033419430627
-0.013048926801
-0.0066273454161
-0.026369706552
-0.11257510058
-0.26491865573
-0.37241711613
-0.33336327762
-0.19246346169
-0.12578929265
-0.11603445935
-0.10503747682
0.037423225691
0.98117213898
0.64558153322
0.11989240291
0.04780583032
0.052156455994
0.085163397477
0.16845346598
0.5490196016
1.2468205232
0.25887165144
0.079500016253
0.022204816757
0.0022722436992
-0.0011111774412
-0.00030452320065
0.00023269935787
0.00029910297702
0.0002482877833
