# vtk DataFile Version 2.0
Vessel Segment
ASCII
DATASET POLYDATA
POINTS 79 float
0.0 0.0 0.0
-0.8173411866752852 0.02683704699747824 0.061509864442504045
-1.6341844689535856 -0.00595618134893012 0.12579087804447636
-2.4437840202313783 -0.11135320648315908 0.201332310774507
-3.235085584919981 -0.30142509812960777 0.2998769266452333
-3.9928019420807215 -0.5832732177502712 0.4349677252546405
-4.701132406865537 -0.9528987706568657 0.6176986389480452
-5.351787649040252 -1.3932485312526632 0.8518241780689606
-5.948358026092497 -1.8805071098493868 1.132855423288321
-6.503649794707845 -2.3928071677119624 1.451901669217467
-7.032511397575126 -2.9140010428656784 1.8003149388612705
-7.549625568576048 -3.4331535099917567 2.1687968676060407
-8.068045182667815 -3.9439069523211985 2.547232216436784
-8.599599359156915 -4.442583101121279 2.9233818728951193
-9.156197348838727 -4.927800271690365 3.280360654118301
-9.752440976130451 -5.397766008199312 3.5899436046022557
-10.408398900133053 -5.844479609369071 3.7907048812714708
-11.120725825679292 -6.2315598232924625 3.7344167891923443
-11.735405919220616 -6.478411487610059 3.2694300966532452
-12.118327075477945 -6.608199604391579 2.5597949667532056
-12.321126648272315 -6.706417470501784 1.7724167331177185
-12.39487095731948 -6.820381563166633 0.9641545219312022
-12.362566297662612 -6.975621930341516 0.16005448031323033
-12.233268305521875 -7.189923094706235 -0.6203079691784934
-12.01121694802784 -7.476093646873223 -1.3552319745916366
-11.701469066712384 -7.841883779971794 -2.019593591244597
-11.314306387373243 -8.28769959727574 -2.5872855132717265
-10.866287343112639 -8.806363495712278 -3.035793126221871
-10.378866945586894 -9.385802849605765 -3.347823588007254
-9.876518751859052 -10.011659340908158 -3.5109775231917144
-9.38673175249639 -10.66786154925553 -3.514240352943205
-8.941975537987277 -11.334424836913907 -3.3475793036624832
-8.579286415711177 -11.98458995444784 -3.008056739407339
-8.331782807823778 -12.587524172074046 -2.513295363928551
-8.21145720851183 -13.122584684683787 -1.9052218393547176
-8.204360514903556 -13.590834206974378 -1.2327863917144015
-8.284712948869451 -14.009567136984835 -0.532532091843803
-8.427635628048305 -14.40089042994128 0.1738402083047457
-8.611427700487784 -14.787237790830359 0.8736043835345624
-8.817163353273125 -15.190064231308392 1.557869728456988
-9.026163391761196 -15.62992542321465 2.2176615163163724
-9.218113316555023 -16.12591133231977 2.8416415304226286
-9.370008388562665 -16.69278793589684 3.413820815827583
-9.458356855953888 -17.335121950836946 3.9147017475355614
-9.467249117293788 -18.041982819675034 4.329028223632703
-9.396031673061321 -18.79004216546113 4.6561514124516865
-9.25694363571487 -19.556861615354872 4.910751713947359
-9.065809029371108 -20.327924922257285 5.114285695727283
-8.836497603388539 -21.095723843456966 5.289185506826862
-8.579123040830916 -21.856507758488505 5.4555213622983025
-8.29923386382214 -22.60725812194518 5.630911298038663
-7.998297334382073 -23.3438952296742 5.829631166680241
-7.673622434840139 -24.06021939395748 6.062287887830052
-7.319253761823026 -24.74791094351166 6.334264274804872
-6.927196059881028 -25.397326092547633 6.645561105580323
-6.49002666362097 -25.9986444548105 6.991364267018057
-6.002932237880127 -26.543446000161875 7.363028116049809
-5.4649340893281755 -27.026110243732983 7.75019079538895
-4.878969075931706 -27.443937999109234 8.142982128340881
-4.25197129439435 -27.797523639664526 8.535855148732942
-3.5952299489421176 -28.09013116211378 8.930115299655977
-2.9211537507186125 -28.32614873794324 9.333186024478781
-2.2426812122648565 -28.510479169511957 9.7554260685855
-1.5724388778981342 -28.649428727197996 10.207034692358114
-0.9219792965919226 -28.751636052289044 10.695923907854963
-0.3012788387129935 -28.82821219259406 11.226400588109964
0.2823693632862569 -28.892894252628288 11.798848275103918
0.8245195677236888 -28.961581720143577 12.410298213869805
1.322879663928027 -29.05165884936308 13.055291738467869
1.7763480384209422 -29.18155315981677 13.726023419499752
2.1837499480157994 -29.37009321746687 14.4120995026784
2.543086967837981 -29.634711511025 15.099757988268713
2.8523930562480655 -29.98705744742936 15.772096577944303
3.1125328359010513 -30.42821591368245 16.412089664242963
3.330203801665051 -30.94743509221797 17.008023462743907
3.5182461494120716 -31.526825044659567 17.556944680745566
3.6922312070526195 -32.14868390823711 18.06249152123623
3.867112006372978 -32.79892001604639 18.530749698505595
4.056222174282321 -33.466629845275165 18.96788393999231
LINES 1 80
79 0 1 2 3 4 5 6 7 8 9 10 11 12 13 14 15 16 17 18 19 20 21 22 23 24 25 26 27 28 29 30 31 32 33 34 35 36 37 38 39 40 41 42 43 44 45 46 47 48 49 50 51 52 53 54 55 56 57 58 59 60 61 62 63 64 65 66 67 68 69 70 71 72 73 74 75 76 77 78
POINT_DATA 79
SCALARS MaximumInscribedSphereRadius float
LOOKUP_TABLE default
1.2400000095367432
1.2400000095367432
1.2400000095367432
1.2955700159072876
1.4348700046539307
1.5804100036621094
1.7284300327301025
1.8467299938201904
1.719099998474121
1.596250057220459
1.8701200485229492
2.1933400630950928
2.173640012741089
1.7692099809646606
1.3958200216293335
1.4722000360488892
1.5578099489212036
1.636579990386963
1.7545499801635742
1.8600000143051147
1.8600000143051147
1.8308199644088745
1.6886500120162964
1.5567699670791626
1.8218799829483032
2.093859910964966
2.080009937286377
1.9548699855804443
1.945389986038208
2.0840699672698975
2.25531005859375
2.5376698970794678
2.749650001525879
2.4430699348449707
2.1556899547576904
2.00996994972229
1.869379997253418
1.87021005153656
1.8810499906539917
2.0564000606536865
2.322890043258667
2.4190800189971924
2.272130012512207
2.173799991607666
2.1857099533081055
2.1608500480651855
2.0100901126861572
1.8652600049972534
1.8600000143051147
1.8600000143051147
1.9349100589752197
2.0652999877929688
2.1722300052642822
2.1830499172210693
2.1940701007843018
2.1843700408935547
2.1731300354003906
2.2774999141693115
2.4254300594329834
2.6326398849487305
2.8981099128723145
3.037750005722046
2.7734999656677246
2.5080299377441406
2.4906198978424072
2.482290029525757
2.386080026626587
2.255650043487549
2.1885900497436523
2.1768798828125
2.233370065689087
2.3855700492858887
2.4800000190734863
2.4800000190734863
2.4800000190734863
2.4800000190734863
2.4800000190734863
2.4800000190734863
2.4800000190734863
FIELD FieldData 2
Curvature 1 79 float
0.094003066398
0.10385945422
0.11480866935
0.1260258716
0.13521930061
0.13785855937
0.12930359159
0.10931563447
0.083863014294
0.0609581695
0.038998005058
0.018925254648
0.025365975691
0.05937994774
0.1128637133
0.20495504687
0.38055031545
0.60641518553
0.46977234252
0.27750026967
0.18382965278
0.14778383105
0.14303893835
0.15328111447
0.16782886906
0.17993134253
0.18561837957
0.18800142933
0.19065429951
0.19948456693
0.21667681405
0.23711731201
0.2453293983
0.22637141665
0.18188385083
0.13135903344
0.086583739817
0.051582795425
0.038567387371
0.057212873451
0.088065688248
0.12133277348
0.15023207168
0.16551832375
0.15655053339
0.12904499403
0.095809107184
0.063602368338
0.038608583509
0.031460036573
0.04298323313
0.058533567344
0.07206598157
0.082974256435
0.091791929751
0.097477435597
0.09953625841
0.098869553631
0.093452744213
0.083009335725
0.072702731448
0.067188167331
0.066929323643
0.068566704336
0.070417739479
0.070495299256
0.070380123398
0.073269339055
0.081182356599
0.094644013423
0.11127679754
0.12549807744
0.13067821424
0.12275298207
0.10315914203
0.08067863464
0.062637855889
0.051931630048
0.049594243906
Torsion 1 79 float
0.042816294696
0.054874097119
0.069940706026
0.086725057319
0.10091593639
0.10796329805
0.10737068653
0.10815895254
0.12939045561
0.17404939043
0.27509042095
0.90301163966
0.56293662066
0.16831362007
0.083533309221
0.063434829001
0.081136922573
0.13548443667
0.18344705741
0.20147216531
0.21687995621
0.19917076987
0.14803405734
0.099880078551
0.069587078064
0.054659803155
0.051584517133
0.05556366071
0.062690547962
0.066841809807
0.066170588433
0.062995208477
0.061664829916
0.066032331747
0.081804769694
0.12122555164
0.22137019601
0.53384064879
0.89650030042
0.41267784696
0.18869141726
0.1111242324
0.077072312356
0.059381828012
0.052055256291
0.060039643078
0.092008891054
0.19817217381
0.49340307843
0.6219041843
0.20977966599
0.011896146533
-0.085426588179
-0.11591505781
-0.12484527244
-0.11613614114
-0.097969724759
-0.068019497722
0.01733809754
0.12950744876
0.24084790588
0.31396124251
0.29888045529
0.27017310294
0.25378427417
0.26527093733
0.28980120605
0.2970292194
0.26583694325
0.20848265063
0.14916984886
0.10643366432
0.086120649973
0.089801498433
0.12416106523
0.186226115
0.26680297354
0.33614047045
0.32425567229
