# vtk DataFile Version 2.0
Vessel Segment
ASCII
DATASET POLYDATA
POINTS 69 float
0.0 0.0 0.0
-0.8091860046860833 0.3814982818712892 0.2931166057533518
-1.6720887825987605 0.6502664980707704 0.5547306212947505
-2.580436510801723 0.7469191108266199 0.7759152491727334
-3.4911072271024097 0.602962980042626 0.9520280583854376
-4.324549446309108 0.1954429772445154 1.094775278156346
-5.025931431812187 -0.4146759760529866 1.2335270647549754
-5.603244936254601 -1.1406855351048935 1.3927257553652457
-6.094034446018541 -1.9224556714861616 1.5787810599920193
-6.535848878978179 -2.727645356701569 1.7874210203632506
-6.958423546342467 -3.539992787768646 2.008235175511417
-7.384344876452658 -4.35261674393549 2.2215211120780975
-7.827368220425381 -5.1657051204622 2.392800049835254
-8.286002824357404 -5.984371859097677 2.4644537300140623
-8.726236100977346 -6.806475662915519 2.3518158393755098
-9.067865135771928 -7.595960140541577 1.9789607394687427
-9.238679653169218 -8.297248178414607 1.3787860541821038
-9.245743451390839 -8.905879923002463 0.6617901498245352
-9.130225090963043 -9.453639807407246 -0.0949792813828985
-8.923444584628069 -9.970079679069794 -0.8547249026064175
-8.643337066741333 -10.47611174866001 -1.59783293032727
-8.297526476111168 -10.987068978440632 -2.309252245172864
-7.884616006464388 -11.516985017224854 -2.9688124682313273
-7.3913164996410226 -12.082680922283455 -3.5359034069663178
-6.782776930086422 -12.703487747946642 -3.879484070830411
-6.160668132078496 -13.212930293767322 -3.510438281432618
-5.934093037351844 -13.270977520960145 -2.608595983461361
-5.917457216445971 -13.135264851563765 -1.6778514947740395
-5.991619121087412 -12.928855704257003 -0.7620677230228471
-6.115130120456558 -12.6990270081161 0.14293511503100675
-6.267729433205075 -12.479328702649367 1.0459845514185557
-6.436872391826207 -12.306933915210779 1.9561917336577739
-6.611404044699216 -12.23277112427094 2.8780147426840124
-6.778315303957484 -12.323661911149907 3.7988167359572644
-6.9207859986286255 -12.632671619752706 4.6743572427083455
-7.027102809101984 -13.147718230335657 5.45334085693042
-7.097269280571146 -13.805568783786905 6.122286980009831
-7.135651318938208 -14.547599958955779 6.700437150138721
-7.14466674622934 -15.336525625442725 7.2146462087368
-7.122640458474796 -16.15036779875582 7.6881511271684895
-7.063254920702973 -16.974628409722005 8.139908055542197
-6.95600749691309 -17.797076097317763 8.58599710566907
-6.784820734189189 -18.603818134174976 9.040543215097161
-6.529063378453119 -19.37552346596343 9.51516221061349
-6.165780301230605 -20.08385646821715 10.016826601704818
-5.678521804279079 -20.691020059510887 10.544697950087874
-5.069890059691223 -21.160082296441868 11.086695122317378
-4.3657197794321565 -21.475095125660047 11.62497604536956
-3.6010498843166276 -21.64806971843102 12.145505297834436
-2.803759776710919 -21.70669043608015 12.642615001465172
-1.99020520722755 -21.68086187281016 13.116212981228514
-1.1684727624379216 -21.597008405988213 13.568713513957045
-0.34172209612623394 -21.477427863040138 14.003817781755341
0.4890248896561295 -21.34106409668409 14.426198349770756
1.3230157275703787 -21.203752434192783 14.841905977157488
2.1579912430033508 -21.077435081737814 15.259091950269902
2.9895004454068674 -20.969100612964393 15.688052840731542
3.8109071755357125 -20.880338271685076 16.140284381896677
4.614275517545922 -20.808127663751247 16.62652097679682
5.392179620320828 -20.747413121533587 17.153937210953174
6.1398893093172955 -20.69547171478286 17.72422414170663
6.8564006300264735 -20.655602578493454 18.33414810935686
7.54306097758593 -20.637238586501336 18.978476408169808
8.201432009770635 -20.656411104205837 19.65159633197383
8.830779317571627 -20.737636363919698 20.347243745275726
9.424039989065687 -20.91624842382377 21.055781039309885
9.961984728057274 -21.237190589315805 21.75727392289985
10.410245285422308 -21.739213986651443 22.41286618803633
10.734021867807991 -22.420763653763128 22.972396579070974
LINES 1 70
69 0 1 2 3 4 5 6 7 8 9 10 11 12 13 14 15 16 17 18 19 20 21 22 23 24 25 26 27 28 29 30 31 32 33 34 35 36 37 38 39 40 41 42 43 44 45 46 47 48 49 50 51 52 53 54 55 56 57 58 59 60 61 62 63 64 65 66 67 68
POINT_DATA 69
SCALARS MaximumInscribedSphereRadius float
LOOKUP_TABLE default
0.9300000071525574
1.0489100217819214
1.1868400573730469
1.1322799921035767
0.9494950175285339
0.7560740113258362
0.6735159754753113
0.8528509736061096
1.0227400064468384
1.1865400075912476
1.3481299877166748
1.5118199586868286
1.305799961090088
0.9852060079574585
1.1535600423812866
1.2526999711990356
1.2762600183486938
1.0884100198745728
0.9300000071525574
0.9300000071525574
0.9309200048446655
1.0167299509048462
1.109220027923584
1.48471999168396
1.6641700267791748
1.2889800071716309
1.348330020904541
1.4963200092315674
1.366379976272583
1.0695899724960327
1.0735199451446533
1.2133599519729614
1.3855299949645996
1.4997299909591675
1.1082700490951538
1.1419700384140015
1.5149699449539185
1.2992299795150757
0.9692569971084595
1.0636800527572632
1.2146300077438354
1.2400000095367432
1.2400000095367432
1.2400000095367432
1.2400000095367432
1.2400000095367432
1.2882699966430664
1.4828200340270996
1.5103000402450562
1.3677300214767456
1.191140055656433
0.9941189885139465
1.1429500579833984
1.4609899520874023
1.3172199726104736
0.990818977355957
1.0810999870300293
1.267840027809143
1.334380030632019
1.3832499980926514
1.3236900568008423
1.3549200296401978
1.716689944267273
1.9068700075149536
1.7477799654006958
1.667799949645996
1.667799949645996
1.6150399446487427
1.5499999523162842
FIELD FieldData 2
Curvature 1 69 float
0.16225645518
0.19874116457
0.24529223769
0.29181241965
0.30467795825
0.25974856133
0.18822942975
0.12282452361
0.070682532371
0.028193481778
0.014645978606
0.06253577648
0.12728802037
0.21255755646
0.307645916
0.33165688303
0.26046104446
0.17900133446
0.12040938009
0.084313521008
0.076362804442
0.10568760875
0.17902257602
0.35010331485
0.89571341384
1.0215359689
0.37216116218
0.17026533832
0.076943235825
0.03191458731
0.062704321776
0.12044690495
0.18719307964
0.24369354982
0.249871661
0.20600482763
0.15022980098
0.10180181425
0.066193418952
0.046877741928
0.051194515278
0.074114438047
0.10582590304
0.14118765088
0.1752089228
0.19686005259
0.19321816312
0.16685801778
0.13134757453
0.096705244601
0.066686048173
0.041927313065
0.023007542871
0.014347501829
0.018790115304
0.026510092026
0.034931590778
0.044306389542
0.052757129961
0.056685399658
0.054768995283
0.052561327988
0.057800896995
0.077151207304
0.11251869877
0.16259629442
0.22001581433
0.26118192841
0.26145091256
Torsion 1 69 float
-0.019005975683
-0.029528696582
-0.048831779149
-0.083237958711
-0.13251345249
-0.16697591619
-0.16105607288
-0.11021792207
-0.14109797473
-0.11114434651
0.14526251868
-0.1299555054
-0.14993691076
-0.15661921014
-0.14822884236
-0.14358834759
-0.13752867136
-0.14799196777
-0.18812231748
-0.26038976564
-0.26111284761
-0.14107578008
-0.063083428546
-0.031304863125
-0.012260420502
-0.0013675830002
-0.011789287908
-0.045517227038
-0.19985083181
-1.1769420888
-0.32956621076
-0.094184623413
-0.035920557055
-0.014774387101
-0.010773015144
-0.01951225079
-0.046784874214
-0.10751386122
-0.24769332707
-0.47882522379
-0.39517509754
-0.18374706897
-0.083747988504
-0.042842495503
-0.02627237258
-0.018566089875
-0.013655150802
-0.0072000053433
0.0041176816764
0.023216010616
0.056318126942
0.12769307307
0.31200646458
0.55217433775
0.32759911492
0.28269866118
0.27657304112
0.22471007482
0.13353369211
0.0097931490863
-0.13749159193
-0.26377780848
-0.31470887892
-0.22697420258
-0.12690170168
-0.066825869048
-0.03678384363
-0.022210024224
-0.013419554519
