# vtk DataFile Version 2.0
Vessel Segment
ASCII
DATASET POLYDATA
POINTS 88 float
0.0 0.0 0.0
-0.5304390027776508 0.4726335760763316 0.18839332532276876
-1.114421187370433 0.8722633376879092 0.38640804682576335
-1.7532690054373645 1.1665676697109453 0.597643082212391
-2.435082493400558 1.3144188859108636 0.8248161817141074
-3.126298836803716 1.2818815318511771 1.0677816515040717
-3.7810104711701347 1.0699838697328596 1.322203699331585
-4.370500302688158 0.7183181969999328 1.5833108523676072
-4.8924932662155785 0.2745460076599165 1.8493379738638729
-5.358811575259229 -0.22526507073097274 2.1198451805354974
-5.7856160373810015 -0.7585689184691013 2.3921161230532055
-6.188329184693318 -1.3133906237098902 2.6581432445494713
-6.581715125283453 -1.8850343623420813 2.9013272550796967
-6.98127063907943 -2.4727632598183833 3.0887665660170938
-7.401757032364158 -3.0706991305866373 3.1511235239050106
-7.83230750691836 -3.6362461429264084 2.981311765113185
-8.217540196814127 -4.100435080654691 2.566186624475766
-8.53365937760223 -4.471931924664157 2.0169447126225486
-8.792488663691682 -4.8006844413219865 1.412470831374808
-9.00144723303392 -5.121797838385934 0.7849352984207658
-9.156641978467494 -5.455248980959383 0.14836394639822387
-9.24565950576512 -5.811250445943008 -0.48857304109360156
-9.251314947870474 -6.193618290878298 -1.116109974949825
-9.158918444511883 -6.5994162247935355 -1.721612118398539
-8.964502640712295 -7.02027105535191 -2.2916392159136683
-8.6762936340795 -7.447295459116125 -2.8156873029408547
-8.311112057102713 -7.875055336525452 -3.2888378119220354
-7.885777141368981 -8.303253696317482 -3.708444438636994
-7.41174686581803 -8.734392549787772 -4.068630398435753
-6.894455330010592 -9.170964101916612 -4.354782880666603
-6.336253247806657 -9.612825460681522 -4.534950108381584
-5.745586658456457 -10.046313627109623 -4.544718599290832
-5.171814949411079 -10.41634232563323 -4.288827005075278
-4.7236369227113055 -10.632792919840327 -3.7560372884376365
-4.441157605999464 -10.68802488923485 -3.0820086138951646
-4.277148384042015 -10.644984971522987 -2.3672164876852184
-4.187028346727814 -10.556921458610733 -1.6428758122084668
-4.146044953417897 -10.46136592083362 -0.9149376199304893
-4.142813072085955 -10.38968035532134 -0.18317776650229978
-4.17446925867369 -10.370290468231866 0.5509299989815186
-4.242995789767448 -10.430518054804416 1.2801191969072745
-4.352360020344282 -10.593424766745292 1.9880062762662694
-4.502266360043966 -10.871863881566659 2.650724066598033
-4.683607543786761 -11.263487487212892 3.2449153258360393
-4.878611726502437 -11.751693491935027 3.7580938128395833
-5.06590254180863 -12.312980360741882 4.193932693127675
-5.225871561875607 -12.925753186510832 4.567046178254204
-5.3422122853146305 -13.573268386372618 4.895063221266922
-5.401117420228163 -14.2420086551812 5.194730206839449
-5.390394914933543 -14.919416305784637 5.480000120696166
-5.299686498703254 -15.592710907584179 5.760422913006061
-5.121942831761685 -16.248890687436457 6.03959750147254
-4.853713492036631 -16.874444644255245 6.316715565537071
-4.4961696337515455 -17.456296757081567 6.588105340582827
-4.055557879732232 -17.982695557968746 6.850239354917642
-3.5432605602006393 -18.44570983921812 7.101797258235768
-2.974261724886483 -18.8416657348596 7.34623087351159
-2.3639124598909462 -19.170196908972805 7.590958678245458
-1.7265327873098733 -19.432698660130175 7.846336141360524
-1.0753472237334412 -19.63071338163317 8.124114730803473
-0.422691413317879 -19.766224750970316 8.434210732663667
0.22056294255989992 -19.843050927036373 8.78169121013037
0.8472915558575923 -19.869712196897172 9.165161565082235
1.4548502237082532 -19.85891544378695 9.579112049240749
2.044340755677368 -19.825349827526292 10.017447337215673
2.6189950330968776 -19.78399869739382 10.474511986901652
3.182631915312633 -19.749257724203165 10.945605271029795
3.737983862028992 -19.733833791188562 11.427355218050044
4.285911027185188 -19.748009520359748 11.917566614244516
4.824869616577581 -19.799716819866465 12.415093521629018
5.351312545883465 -19.89402345334907 12.91967887465331
5.860657113842711 -20.033720718403533 13.431204647308627
6.348826695108138 -20.2196897825018 13.948643277845088
6.813669503929479 -20.45105017862301 14.469225182650533
7.255691966445222 -20.726258112563524 14.988360305728381
7.677707094235145 -21.044014948001408 15.499812881244733
8.083365638383356 -21.404371117415177 15.996010332459312
8.475216190182937 -21.809360730771886 16.4682492043461
8.852678075679796 -22.2627896890722 16.906878331553525
9.210367978017267 -22.768998337498914 17.30204122900408
9.539890815761963 -23.329454821537887 17.644902056415624
9.833681279353671 -23.940142404410174 17.929480756380517
10.08823606266285 -24.592063441631716 18.15422609240228
10.304928531387162 -25.274193708600624 18.322056099946078
10.48914029503374 -25.97627947691465 18.439122797162295
10.647844453654802 -26.690469477855856 18.512612275957434
10.78785471090127 -27.411419576050456 18.549210489742492
10.915160011153999 -28.135656420597577 18.554550865663938
LINES 1 89
88 0 1 2 3 4 5 6 7 8 9 10 11 12 13 14 15 16 17 18 19 20 21 22 23 24 25 26 27 28 29 30 31 32 33 34 35 36 37 38 39 40 41 42 43 44 45 46 47 48 49 50 51 52 53 54 55 56 57 58 59 60 61 62 63 64 65 66 67 68 69 70 71 72 73 74 75 76 77 78 79 80 81 82 83 84 85 86 87
POINT_DATA 88
SCALARS MaximumInscribedSphereRadius float
LOOKUP_TABLE default
0.8741999864578247
0.8952540159225464
0.9188050031661987
1.0145399570465088
1.1770100593566895
1.1473400592803955
1.0003000497817993
1.367709994316101
1.7979600429534912
1.883679986000061
1.955880045890808
1.7577500343322754
1.5504800081253052
1.5499999523162842
1.463919997215271
1.240939974784851
1.2678099870681763
1.2151299715042114
1.1226099729537964
1.486649990081787
1.8530999422073364
1.6915899515151978
1.5705900192260742
1.7329000234603882
1.8266700506210327
1.6700299978256226
1.5174399614334106
1.3669099807739258
1.2651900053024292
1.42399001121521
1.629390001296997
1.962589979171753
2.030359983444214
1.9839999675750732
1.9839999675750732
2.0789999961853027
2.1956698894500732
2.369110107421875
2.3536500930786133
1.9986200332641602
1.8600000143051147
1.8600000143051147
1.8600000143051147
1.9670100212097168
2.327709913253784
2.3827500343322754
2.2155799865722656
1.935920000076294
1.6159000396728516
1.6761599779129028
1.8355799913406372
1.5883100032806396
1.2662800550460815
1.5361000299453735
1.8526599407196045
1.8600000143051147
1.853950023651123
1.697950005531311
1.5592399835586548
1.7291699647903442
1.8847999572753906
1.8847999572753906
1.8828599452972412
1.8701000213623047
1.8923200368881226
2.0501201152801514
2.132469892501831
1.9750299453735352
1.9028500318527222
2.06141996383667
2.0683400630950928
1.747789978981018
1.6793400049209595
2.0158801078796387
2.1427600383758545
2.0315499305725098
2.1360199451446533
2.4028799533843994
2.4800000190734863
2.4800000190734863
2.6318700313568115
2.7899999618530273
2.7899999618530273
2.762850046157837
2.6075899600982666
2.5025599002838135
2.6481900215148926
2.7899999618530273
FIELD FieldData 2
Curvature 1 88 float
0.14041174594
0.16658697172
0.19893514738
0.23415563996
0.25953451947
0.2545793437
0.21459047583
0.16199682178
0.11308149204
0.071206037056
0.046429724415
0.064611777001
0.12177600273
0.2176509702
0.35254910694
0.39186982356
0.27386660316
0.15767778034
0.09561479935
0.079796359375
0.094934492954
0.11987704733
0.14145245168
0.15029035155
0.14522703237
0.12844755851
0.10957421439
0.10372082464
0.12242310693
0.1726328533
0.26442120431
0.40214714874
0.49459978815
0.38889497981
0.233402909
0.12909656715
0.069413223585
0.060381208183
0.087708574506
0.12250762982
0.15574777288
0.17943573092
0.18754774868
0.17672898363
0.15128243676
0.12186085876
0.10128876406
0.093018976955
0.097576720109
0.10913869454
0.12112097048
0.13038465278
0.13572639878
0.13712828625
0.1317949663
0.12036725055
0.1076653056
0.097972926127
0.094754253176
0.096470071244
0.096615520278
0.08750015895
0.071046214615
0.051938843396
0.034343602687
0.02594244253
0.032001697559
0.043343637668
0.053712345852
0.061578226699
0.066997024069
0.069919236685
0.069886006866
0.067453705663
0.064807489883
0.065599176039
0.071896701612
0.083115869333
0.097378539017
0.1099770554
0.11653961411
0.11495012513
0.10652878208
0.092808490722
0.078002484876
0.064452855811
0.052999328886
0.043594515919
Torsion 1 88 float
-0.016447060193
-0.022391448524
-0.031219998712
-0.043334726237
-0.056352341204
-0.063697229305
-0.063550717725
-0.070938542453
-0.048834734639
0.048769177982
0.3983647442
0.30550106162
0.11530548922
0.044227527629
-0.0005405699436
-0.048817821748
-0.10264681336
-0.19460103258
-0.31693620449
-0.2458525136
-0.073641700261
-0.003265670429
0.016024564657
0.0074715820008
-0.012697551665
-0.05588680051
-0.1022908783
-0.12171689356
-0.090169052621
-0.04450791468
-0.0099084450394
0.013170240937
0.027905137837
0.015454804899
-0.043994330798
-0.16377126081
-0.56279051199
-0.62326548525
-0.22315537281
-0.074276209494
-0.025763666113
-0.030400185816
-0.062187249793
-0.10668773606
-0.17040715653
-0.24839617825
-0.31648980361
-0.33629595
-0.25108272321
-0.14169597668
-0.061395568517
-0.023189871432
-0.011436139825
-0.017913054029
-0.051325684263
-0.10061706823
-0.15913429738
-0.22197546342
-0.22852980474
-0.17932259227
-0.12521860019
-0.089335000763
-0.1182631064
-0.21345994039
-0.47762622074
-0.76515225124
-0.39763094912
-0.12896764098
-0.014229462175
0.037187812293
0.042822244073
0.016621574295
-0.03082628768
-0.09065599691
-0.15058576245
-0.16576804596
-0.12283380432
-0.037977044693
0.021513169167
0.033342937095
0.019692733005
0.0017268013046
-0.016047433841
-0.034279955257
-0.048580290164
-0.061800844991
-0.077858513849
-0.099411914347
