# vtk DataFile Version 2.0
Vessel Segment
ASCII
DATASET POLYDATA
POINTS 86 float
0.0 0.0 0.0
-0.5893841019726411 -0.027548876461443685 0.46598862971197214
-1.2355229769749445 -0.019591457514727958 0.85083535247808
-1.918532383725611 0.014185337697743687 1.1642958093028073
-2.6248939803080775 0.06507960339005218 1.4184578893849884
-3.3460730125488802 0.12482753564704044 1.6247308535354146
-4.076882411566416 0.1851796476081514 1.7937708854929135
-4.814162403410451 0.23697302432934392 1.9354138017677294
-5.555728563475381 0.26902318275704784 2.059418106775266
-6.299035677379678 0.266397434943396 2.176365535570431
-7.039303280592382 0.21009991284502327 2.2984928747198996
-7.766509434893447 0.07904159503603488 2.4387842610404693
-8.465417214924754 -0.1413436898336746 2.6075995152407474
-9.121013757232678 -0.44954978762017833 2.809368334013993
-9.727895089558423 -0.8286167154442402 3.0413862257462547
-10.292290562358476 -1.2554968788106768 3.2970501648559827
-10.826361797662864 -1.7100776794173176 3.5698272793291674
-11.343241829656225 -2.177941843281898 3.8531889922681795
-11.855093712074043 -2.6493337293999346 4.1399280983873465
-12.372650940749987 -3.1181743163882394 4.420436422344566
-12.90589536615122 -3.581912305117082 4.678952318730627
-13.465262689375733 -4.040619280859461 4.885149402491673
-14.05735593600507 -4.494598765172899 4.9670429548040405
-14.628132520040372 -4.924932202108871 4.76212152060786
-14.994587554467238 -5.278251338940177 4.217993270299657
-15.13750612030692 -5.577901564897683 3.544606355945694
-15.143436244322267 -5.874548072800095 2.853729727692292
-15.062368786060322 -6.192816196559524 2.1769654201581736
-14.919374339831261 -6.5439562776807 1.5271486727922965
-14.729316871720867 -6.934508346704933 0.9129112378130386
-14.502327129564149 -7.369947245311288 0.3429607478281598
-14.247563733188764 -7.855375571759228 -0.17204375001259242
-13.974487392274439 -8.396202309276656 -0.6175389477700326
-13.695479495639306 -8.997378295344275 -0.9724358240182659
-13.427656082057743 -9.659355948887447 -1.205879694388694
-13.19518720310558 -10.369297167046295 -1.2791414944826829
-13.02614573944262 -11.090574629037473 -1.1613679716370942
-12.936220319499617 -11.772368517852595 -0.8606668738719441
-12.917005400520871 -12.384728986973784 -0.4255300651176505
-12.947631012015869 -12.930132886846852 0.09142727897055047
-13.007755482808838 -13.427723551177547 0.6526701363476702
-13.080640744366844 -13.900318069881989 1.2338036776806593
-13.151500142698943 -14.37058463550846 1.817040394334398
-13.205094604888824 -14.860293761281818 2.385789683438331
-13.225361827380675 -15.388207947255449 2.921436510601456
-13.19751372447809 -15.964838774916716 3.40341442689078
-13.114043864454255 -16.587709393819814 3.8164084790006143
-12.978106294437564 -17.24398170110486 4.157943248190608
-12.800583407629528 -17.918644265023687 4.439578324344852
-12.594009785332501 -18.60118836749985 4.6800031905382715
-12.368146795372807 -19.285383226371405 4.897234428279587
-12.129372685574774 -19.967852880163647 5.105984242875824
-11.880240186773596 -20.645892837262632 5.316984698455191
-11.619397769015025 -21.316502243024186 5.537593329376662
-11.341665521944758 -21.97547689436499 5.772013622870815
-11.038038018219355 -22.617112160879664 6.021747437965196
-10.697028684933183 -23.23345133947421 6.2861175779772225
-10.307228261275453 -23.814510432123278 6.562723072850464
-9.861656467275903 -24.34910638747876 6.848260978088686
-9.36001336064066 -24.827555149809168 7.140330323635458
-8.809354385876638 -25.244167837469167 7.438704184175367
-8.220563367890804 -25.597322328172574 7.7463103973741285
-7.606175603838246 -25.88834724458627 8.068629531732645
-6.978052057602387 -26.119570539788228 8.412115715464628
-6.347450945067985 -26.29366306031409 8.783750660245795
-5.725077127959511 -26.41411601992808 9.188938338334946
-5.120515158478977 -26.486446495620335 9.630907245544389
-4.540784688496794 -26.519548957561145 10.109356007874798
-3.9889542207401214 -26.526222136710235 10.620907947998745
-3.4635609101551976 -26.522866577038343 11.159632226048153
-2.9597484118216806 -26.528481367926123 11.718615852209382
-2.4711957461336422 -26.56367841495492 12.289857024666457
-1.9921989985384168 -26.649257177121346 12.863718218115343
-1.5199727860635617 -26.80252733136324 13.428894686243831
-1.0558530688664454 -27.032661814562864 13.9742842690623
-0.6041113401869973 -27.339090092094402 14.491856172719208
-0.1700168130075883 -27.71269148432489 14.97968045825447
0.24146884791853787 -28.139700143256363 15.442779190495418
0.6255190950409258 -28.605718838782995 15.891720861221458
0.976372969292488 -29.098542281858233 16.339236732272514
1.2861225350464698 -29.608712626213272 16.797441358361613
1.5436000199364674 -30.128160958838702 17.276948687916516
1.7332268355185703 -30.648142064858437 17.786316024471674
1.8344330654481253 -31.156586040873485 18.33097767454532
1.8236180406996292 -31.635434427990415 18.910192260783546
1.681710730091216 -32.06070533204941 19.513075533241828
LINES 1 87
86 0 1 2 3 4 5 6 7 8 9 10 11 12 13 14 15 16 17 18 19 20 21 22 23 24 25 26 27 28 29 30 31 32 33 34 35 36 37 38 39 40 41 42 43 44 45 46 47 48 49 50 51 52 53 54 55 56 57 58 59 60 61 62 63 64 65 66 67 68 69 70 71 72 73 74 75 76 77 78 79 80 81 82 83 84 85
POINT_DATA 86
SCALARS MaximumInscribedSphereRadius float
LOOKUP_TABLE default
1.2400000095367432
1.2400000095367432
1.2400000095367432
1.3702000379562378
1.5103199481964111
1.4519200325012207
1.3152799606323242
1.1783299446105957
1.0394699573516846
0.9629039764404297
1.1100900173187256
1.2842299938201904
1.5936800241470337
1.8395899534225464
1.690500020980835
1.557669997215271
1.748020052909851
1.9375900030136108
1.9432899951934814
1.8881399631500244
1.6459699869155884
1.1873300075531006
1.0789999961853027
1.2234400510787964
1.1311500072479248
1.2144999504089355
1.3354599475860596
1.7423499822616577
2.123699903488159
1.93681001663208
1.6731699705123901
1.6214900016784668
1.758579969406128
1.8633999824523926
1.8756699562072754
1.8847999572753906
1.8847999572753906
1.878640055656433
1.8657300472259521
1.9420299530029297
2.0903899669647217
2.1700000762939453
2.1700000762939453
2.326359987258911
2.785599946975708
2.8441500663757324
2.0644800662994385
1.7112699747085571
2.190109968185425
2.5470199584960938
2.513439893722534
2.4786200523376465
2.206860065460205
1.9297000169754028
2.1699399948120117
2.588979959487915
2.585779905319214
2.2567999362945557
2.1161599159240723
2.2016499042510986
2.246619939804077
2.2177600860595703
2.1947999000549316
2.1947999000549316
2.1986401081085205
2.3369901180267334
2.4776298999786377
2.491230010986328
2.48252010345459
2.4862499237060547
2.4951000213623047
2.6244699954986572
2.8336899280548096
2.9075000286102295
2.8737900257110596
2.7597100734710693
2.5783801078796387
2.3505699634552
2.0649900436401367
1.9773499965667725
2.4035398960113525
2.7442400455474854
2.302340030670166
1.8635499477386475
2.0171499252319336
2.1700000762939453
FIELD FieldData 2
Curvature 1 86 float
0.16720768663
0.1411178453
0.11445647893
0.090318970109
0.069303652145
0.05153630891
0.03897120141
0.037930168905
0.052797896721
0.078882455779
0.10927463026
0.13315772827
0.13948677535
0.12610623101
0.098639529846
0.068663183131
0.039104855982
0.0099709108323
0.023767668891
0.064416155846
0.124840839
0.23257120612
0.4422018224
0.60274171043
0.39903904004
0.23640002044
0.15695104285
0.11761311061
0.1000996192
0.097303106418
0.10521903711
0.12342320915
0.15203054324
0.19119302052
0.23679130905
0.27515853873
0.27596224483
0.22811931364
0.16207811933
0.10050095384
0.047735453728
0.0059947247158
0.043779934007
0.084991125578
0.11865091255
0.13487805283
0.12922336178
0.10564794557
0.074580270589
0.045735969296
0.023750058918
0.015190135436
0.022929683966
0.034755529427
0.048607536881
0.065087560541
0.082759672043
0.097944174577
0.10635011421
0.1061691531
0.099818242221
0.091720726161
0.086233921448
0.084520333115
0.085051983516
0.084447458071
0.079167231633
0.068108667751
0.052806746943
0.042237104495
0.048844693526
0.069839447076
0.092383855489
0.1068182315
0.11055853498
0.10289318989
0.086942009257
0.068198473504
0.056809480292
0.060566318574
0.076768842605
0.10041799017
0.12940303191
0.16181706937
0.19229133132
0.21103330729
Torsion 1 86 float
-0.019331597695
-0.025132379114
-0.034469795114
-0.054831582033
-0.10112693693
-0.20581241291
-0.41494248663
-0.5195299103
-0.32904536202
-0.17625020777
-0.10249975627
-0.067696968065
-0.054529846656
-0.048784582268
-0.051502987389
-0.060315532005
-0.068040861755
-0.068995644243
-0.03319222964
-0.05807375301
-0.061544829356
-0.070790636406
-0.12994890116
-0.22502729287
-0.22177470914
-0.19621794527
-0.18281422563
-0.17567232963
-0.16845456899
-0.15178308119
-0.13105301945
-0.10823087751
-0.085478137496
-0.061354696475
-0.04212736054
-0.025762090451
-0.0084684231974
0.0015224084353
0.00647736344
0.0153134635
0.071971358073
4.8727418022
0.078409779998
0.0066606500625
-0.0065144265229
-0.01210890475
-0.016823013573
-0.027640842005
-0.054048717377
-0.13302107037
-0.43174785945
-0.77603632489
-0.12125430505
0.093015595564
0.13458928918
0.11099330359
0.069586910529
0.026803378603
-0.019045006352
-0.066944696779
-0.11705697962
-0.16319408657
-0.18801064674
-0.18687266974
-0.16814810251
-0.15138228678
-0.15745854136
-0.21277729565
-0.38461961312
-0.66465112899
-0.53882163504
-0.25836223359
-0.11461062705
-0.043372643673
-0.00022476011409
0.053052065123
0.13382984944
0.28122583563
0.40673741968
0.32011301322
0.17198701056
0.086504283442
0.046817451991
0.028977399186
0.020309047056
0.014809741575
