# vtk DataFile Version 2.0
Vessel Segment
ASCII
DATASET POLYDATA
POINTS 56 float
0.0 0.0 0.0
-0.37568625673752704 0.802891894829661 0.7559735186316747
-0.8408518368717176 1.6267709271865936 1.4360277030125486
-1.3968691243498619 2.4490345492722363 2.046148038579401
-2.0458131900922614 3.2493895131993344 2.5901729116848093
-2.7889876888821803 4.008005530729518 3.0692330545353457
-3.625342439093286 4.706082701251508 3.4820025440986013
-4.550680837970093 5.324825522820526 3.8253679492441557
-5.557046522568184 5.845328526829349 4.095869993688203
-6.633104404239577 6.2454488261284276 4.291721169332732
-7.763620320131879 6.495321674531457 4.415262666421155
-8.924368889425521 6.553091560979331 4.477852116767256
-10.073515082352282 6.37471023916383 4.507105723227034
-11.152836499648332 5.943225248402722 4.5485593061349086
-12.113828014905794 5.29461548131415 4.646940430856343
-12.94424456534497 4.497027278614121 4.820675523725294
-13.661439989966013 3.609728272692986 5.0563773807142605
-14.287829893241327 2.6629318040569947 5.3193381863646145
-14.833227150294025 1.6618250001735904 5.559860019626791
-15.283517539999533 0.5985661383439527 5.709841626116385
-15.586559819527128 -0.5231543002403267 5.677082557374576
-15.657474570970141 -1.6409544273085086 5.375608677370076
-15.452617675504833 -2.6447136270900415 4.829669559588189
-15.007838265087662 -3.4817369746088014 4.156003338628637
-14.380745125006024 -4.164478194386473 3.4519302358369344
-13.622822997115858 -4.727655961089602 2.7698809812826863
-12.77901938010751 -5.212159178814416 2.128651076910672
-11.887719787006695 -5.659670710959987 1.5254954799096554
-10.981926312879217 -6.108728374379508 0.945378998357099
-10.088528280942331 -6.590475277710186 0.37246918202775325
-9.227066148549701 -7.127258846093714 -0.200232797309575
-8.410185652325014 -7.735994701380408 -0.7659821344139363
-7.648912651225004 -8.437312039611285 -1.3005861635478417
-6.969655037855203 -9.272087118716396 -1.7424481584103961
-6.503970552532609 -10.312077034773067 -1.8723891654196976
-6.7014708157388005 -11.200274468326361 -1.2335229944568984
-7.325969567336748 -11.521431281241558 -0.3122321935079672
-8.058731425953672 -11.543086191326514 0.5914743882829951
-8.830063919599615 -11.373098624855299 1.4471898690838385
-9.606019102453429 -11.047087058709895 2.2523652216591312
-10.353656941884422 -10.582867191872715 3.015626231010912
-11.034460686528174 -10.001989741016052 3.7614641223652034
-11.605860110748864 -9.341087900399586 4.531839424943743
-12.019540399193804 -8.664792376541019 5.383980164465216
-12.216118179560427 -8.09473069676895 6.376220493814159
-12.139461243921287 -7.836647737347917 7.5002790641940535
-11.811697084093197 -8.061118286726582 8.584261040467354
-11.350947765122722 -8.700491953836558 9.433772752006467
-10.852077402949712 -9.58478062237331 9.998380360238013
-10.358580561736986 -10.595643118715358 10.293442908905421
-9.892780748877154 -11.660850864720144 10.335784197695869
-9.472391669273215 -12.726138886388513 10.131457616460192
-9.117336326805807 -13.736021442309864 9.677234818905717
-8.8533792575583 -14.619049755436693 8.9696332982912
-8.710097043514525 -15.283609018516852 8.028606024412795
-8.70504538122938 -15.649919594934788 6.927047543830189
LINES 1 57
56 0 1 2 3 4 5 6 7 8 9 10 11 12 13 14 15 16 17 18 19 20 21 22 23 24 25 26 27 28 29 30 31 32 33 34 35 36 37 38 39 40 41 42 43 44 45 46 47 48 49 50 51 52 53 54 55
POINT_DATA 56
SCALARS MaximumInscribedSphereRadius float
LOOKUP_TABLE default
0.9300000071525574
1.2269799709320068
1.518090009689331
1.4225800037384033
1.2807199954986572
1.1398799419403076
0.9996169805526733
1.0710400342941284
1.3525199890136719
1.4620800018310547
1.1691700220108032
0.9300000071525574
0.9300000071525574
0.9665250182151794
1.12090003490448
1.2109099626541138
1.0677900314331055
0.9260039925575256
0.7804930210113525
0.6256449818611145
0.6200000047683716
0.6500089764595032
0.824504017829895
0.9300000071525574
0.9300000071525574
0.9803630113601685
1.120959997177124
1.289739966392517
1.6849499940872192
2.0722599029541016
2.0741400718688965
1.9428399801254272
1.8022300004959106
1.6387399435043335
1.4344500303268433
1.3052200078964233
1.3732099533081055
1.5563100576400757
1.7679699659347534
1.8600000143051147
1.8600000143051147
1.8600000143051147
1.8600000143051147
1.8343600034713745
1.661460041999817
1.6271400451660156
1.8152799606323242
1.8600000143051147
1.8600000143051147
1.7459900379180908
1.608299970626831
1.6275999546051025
1.7642500400543213
1.8175499439239502
1.680209994316101
1.5499999523162842
FIELD FieldData 2
Curvature 1 56 float
0.11372986468
0.1028675087
0.098285403057
0.099083464205
0.10364978745
0.10998770111
0.11724609585
0.12470356698
0.13427965532
0.15085449085
0.17673841826
0.20730690864
0.22752365819
0.22076738264
0.18638899649
0.13770364516
0.093989881028
0.086663109471
0.13575951051
0.2208693102
0.31659762924
0.33971538104
0.27978903487
0.21314358912
0.1601974893
0.11333107056
0.070277700047
0.036934204501
0.037068531951
0.055008531601
0.074687738085
0.11373265078
0.20376543339
0.43425287758
1.1100219365
0.72543657732
0.31862270125
0.19079791899
0.14296450789
0.12553528056
0.11885903253
0.12767684593
0.16922410877
0.25705610005
0.38901583041
0.4880549908
0.44221955126
0.33682307456
0.26126345025
0.22299597905
0.21249894744
0.22377162745
0.25331635729
0.29344493742
0.32168371896
0.31188595693
Torsion 1 56 float
0.15027699422
0.16048501608
0.15687865538
0.13532825606
0.10129531494
0.071966576334
0.05357563703
0.050478429235
0.07202661243
0.1128420474
0.15045155654
0.18262534345
0.19795752527
0.17984253859
0.11887471018
-0.0054511760948
-0.29624898805
-0.50497793164
-0.22641517102
-0.062207306082
0.015995828315
0.1059950335
0.15920448147
0.16602147212
0.1506889281
0.1498083153
0.2282892572
0.58684662016
0.42269854777
0.039216776288
-0.12253338478
-0.14037048917
-0.10438054338
-0.071124285768
-0.029226352471
0.032449409707
0.015557710586
-0.028879248985
-0.10978226973
-0.24083688312
-0.3894297015
-0.47461112249
-0.40929550389
-0.30502413369
-0.21079040566
-0.11964431801
-0.038402655079
0.0011281388031
0.014426688482
0.015385000653
0.014734001945
0.015466344509
0.016210634945
0.014684396786
0.010868034164
0.0070371952192
