# vtk DataFile Version 2.0
Vessel Segment
ASCII
DATASET POLYDATA
POINTS 92 float
0.0 0.0 0.0
-0.5786138133077855 0.35302884049127714 0.19891881288324972
-1.1912884541515807 0.6591331533454946 0.37236392622292774
-1.8296692973970947 0.9166897927049071 0.5312720591235442
-2.488231792497412 1.121818551680725 0.6842542291620934
-3.1624658550667073 1.2673915857765807 0.8368124431930226
-3.8474260046287903 1.3440939758536217 0.9911351217509039
-4.536478339083473 1.3426821350536424 1.1463043664319377
-5.220591922522403 1.2571587682339287 1.2997091465860193
-5.889674583126093 1.0881591364598668 1.4500089536938168
-6.53518932738237 0.8442215791357163 1.6007327168092345
-7.151773448267861 0.5389638324046512 1.7610540364019178
-7.736815242186419 0.18741681910191282 1.943318780592181
-8.290386041418692 -0.19588382622552508 2.1575498077569977
-8.815732137680168 -0.5978143098306679 2.4058628602582046
-9.320683931136989 -1.008775729344162 2.680637497095343
-9.816746107354664 -1.4240426576461533 2.9650783309062185
-10.317323751526516 -1.8438250539023202 3.2343482691047343
-10.834976728614798 -2.273697603139845 3.449003252277171
-11.370695615196047 -2.723257861835993 3.53523186655083
-11.870920635640925 -3.186789826294376 3.373993994446435
-12.207860682116042 -3.6247067725399806 2.9420743433435446
-12.334309935538013 -4.034045046195729 2.3832114964225037
-12.273202397080953 -4.454462703517282 1.821102357785972
-12.035192148510957 -4.9193351764949975 1.3496686608808035
-11.64194132297928 -5.426616709155597 1.0635333489315353
-11.160627432258432 -5.936296621516446 0.9970624305050588
-10.657086133709504 -6.422619922587649 1.087666539955775
-10.15615586581068 -6.893349717930959 1.2514441104296277
-9.66164684906219 -7.368876272674771 1.4207963659306624
-9.177863246360445 -7.873194150958293 1.518385655316452
-8.745309680084256 -8.41328718682451 1.4072486161760478
-8.48267229809384 -8.89474172326852 0.9762455175848695
-8.424315763064005 -9.222226877827666 0.35662775593374085
-8.492903769744405 -9.433352931946198 -0.31323081145849774
-8.639745980078946 -9.57836136431127 -0.9887353961585655
-8.853413078459024 -9.691262867978628 -1.6523853633503236
-9.1520369230899 -9.801694659665086 -1.899569212389965
-9.076463736474425 -9.732966007261522 -1.201061986019311
-8.976404735107737 -9.613854557501597 -0.5118683328954218
-8.90005496875767 -9.459673197612922 0.17344511333967802
-8.8721115572332 -9.279948151792116 0.8560761966440261
-8.916496386500802 -9.090908186832458 1.535109710397998
-9.063903871512169 -8.921132648269847 2.2040517252785246
-9.349545241065258 -8.823049416487878 2.8405335147883184
-9.772996539152448 -8.870679864524927 3.400314260113159
-10.261436928477575 -9.101351636486832 3.851991607063232
-10.728355157428568 -9.486134781948854 4.214335366693362
-11.125768827187448 -9.979443935901173 4.525520422178582
-11.431803153653107 -10.546704476503312 4.813207547704948
-11.635944027836565 -11.162370698985002 5.091933723711523
-11.7351564630801 -11.805486390594986 5.365860448533421
-11.734873825741687 -12.458834226801576 5.633931196881811
-11.64998571998736 -13.110276279812007 5.893393619437383
-11.50406006216453 -13.75488120101701 6.143188499127128
-11.323771087558987 -14.393981760056413 6.384868995420235
-11.132120091949224 -15.03164322398106 6.621608721859458
-10.942516198204826 -15.67041908655431 6.8570792720599965
-10.75855697587617 -16.30973868953098 7.095443490249052
-10.575655624728434 -16.946045176596353 7.342556007008047
-10.382382829153013 -17.57202110070621 7.607380463640946
-10.16032005592997 -18.17348328280403 7.9039598981906325
-9.885334114035066 -18.72277784640071 8.25169669099314
-9.537384670282703 -19.17258490805844 8.668515432872232
-9.12063726068426 -19.467873421800398 9.153709530481867
-8.668465971338009 -19.585241688952006 9.681595325112802
-8.21417759373783 -19.559732996214155 10.221335737252046
-7.766240480899428 -19.449030133449412 10.756348030487262
-7.316116293418541 -19.299764307937977 11.280211626614156
-6.8508198644332055 -19.142383678438627 11.7881984067287
-6.359769117404017 -18.99154711274261 12.273393177284381
-5.83816325525421 -18.848267983473697 12.727962846330884
-5.28706284094888 -18.70579319296369 13.146574316470767
-4.710770691492347 -18.557320518483174 13.52744764541807
-4.114508868184822 -18.401346850924984 13.873060620506214
-3.5032167949880986 -18.241979264112935 14.18965818102205
-2.8814112857484413 -18.08569511607377 14.486800871410432
-2.254087618949285 -17.93823867423771 14.776894451989575
-1.6276037888128427 -17.803441188668867 15.074743062777948
-1.0096582980806599 -17.68346904091887 15.395764570585996
-0.40840052334365573 -17.580248707274723 15.752209285195812
0.1708623464234148 -17.49744252834353 16.148183523366914
0.7281518454939546 -17.44143625737181 16.578895909267153
1.268611973427087 -17.42150208142463 17.033571903788584
1.8004277729540552 -17.450115578972255 17.497795152070502
2.330564403865128 -17.542511407264698 17.955378273501328
2.8593884535176883 -17.71452415495006 18.39064936413906
3.375969764031153 -17.979461834754837 18.792409676513365
3.8579256452778257 -18.34553119192018 19.15560706820011
4.275572699618628 -18.81307088654266 19.479538058228705
4.59952762129091 -19.370996067269864 19.76518195132946
4.81065886313998 -19.996484326308355 20.014419247905366
LINES 1 93
92 0 1 2 3 4 5 6 7 8 9 10 11 12 13 14 15 16 17 18 19 20 21 22 23 24 25 26 27 28 29 30 31 32 33 34 35 36 37 38 39 40 41 42 43 44 45 46 47 48 49 50 51 52 53 54 55 56 57 58 59 60 61 62 63 64 65 66 67 68 69 70 71 72 73 74 75 76 77 78 79 80 81 82 83 84 85 86 87 88 89 90 91
POINT_DATA 92
SCALARS MaximumInscribedSphereRadius float
LOOKUP_TABLE default
1.5499999523162842
1.4198299646377563
1.2936500310897827
1.1695799827575684
1.0460100173950195
0.9383789896965027
1.0644400119781494
1.1923600435256958
1.321679949760437
1.4514800310134888
1.5340299606323242
1.4675899744033813
1.402340054512024
1.388800024986267
1.388800024986267
1.4003100395202637
1.4608099460601807
1.5231200456619263
1.395419955253601
1.103700041770935
0.9768869876861572
1.0759899616241455
1.1498899459838867
1.2071499824523926
1.2400000095367432
1.2400000095367432
1.2400000095367432
1.2400000095367432
1.2400000095367432
1.4024800062179565
1.8974800109863281
2.465980052947998
2.155369997024536
1.868499994277954
1.9889500141143799
2.1207499504089355
2.1700000762939453
1.9985899925231934
1.8147000074386597
1.6905299425125122
1.5796899795532227
1.6164799928665161
1.7113100290298462
1.8153400421142578
1.9710700511932373
2.137779951095581
2.3990399837493896
2.668410062789917
2.7227299213409424
2.5982799530029297
2.485059976577759
2.608839988708496
2.733690023422241
2.720449924468994
2.594170093536377
2.468329906463623
2.3438000679016113
2.221129894256592
2.105799913406372
1.9953099489212036
1.8887799978256226
2.000849962234497
2.1227800846099854
2.309390068054199
2.53725004196167
2.5318100452423096
2.315890073776245
2.1700000762939453
2.1700000762939453
2.1700000762939453
1.9287999868392944
1.6669299602508545
1.622480034828186
1.7526899576187134
1.8600000143051147
1.8600000143051147
1.8600000143051147
1.7783600091934204
1.6655399799346924
1.6440399885177612
1.8940900564193726
2.144740104675293
2.0225000381469727
1.8070399761199951
1.6505800485610962
1.6018699407577515
1.552780032157898
1.6529200077056885
1.7618299722671509
1.6815299987792969
1.4541699886322021
1.2400000095367432
FIELD FieldData 2
Curvature 1 92 float
0.11813697343
0.094220977264
0.081504496257
0.079507786986
0.086945375648
0.09965342084
0.1119040811
0.12034418021
0.1210838126
0.11174026535
0.097641522491
0.087088375329
0.082157550568
0.074431312298
0.054705892849
0.020315395585
0.035588847268
0.10711034346
0.21788776372
0.38771537361
0.48217615694
0.36594860634
0.26826192268
0.28876780481
0.35838558222
0.35834331004
0.25034196181
0.11716001013
0.023008716885
0.14615483213
0.35762022386
0.57526165917
0.48020171601
0.26516782066
0.14058429838
0.17717509945
0.60470250619
2.0735459009
0.3172993726
0.12004974953
0.079478612546
0.1088107005
0.16644022942
0.24796723664
0.3220081321
0.32684439383
0.26270225942
0.20221820264
0.17158557463
0.16056690157
0.15426079581
0.14291585308
0.1216660979
0.088490888708
0.050186644363
0.019658472866
0.016371327977
0.017747522675
0.014781663065
0.03228456744
0.075226380086
0.13894122165
0.21392213614
0.26748635477
0.27202140326
0.21014178133
0.12757190965
0.060508446763
0.032947575355
0.050564544604
0.062893311034
0.066424008356
0.065488157908
0.05958259105
0.048231950887
0.033445808808
0.019060920218
0.021126069647
0.041128904016
0.061249842039
0.071189768068
0.069918947313
0.065715802879
0.070758997616
0.090837116029
0.11759745153
0.14139831725
0.16126787832
0.18021078684
0.19654582623
0.20394400186
0.19869648756
Torsion 1 92 float
-0.12655822812
-0.1579530296
-0.17939734178
-0.15423253262
-0.086569726446
-0.022208251571
0.0068351089466
0.0052499236878
-0.028204707152
-0.10922643439
-0.21716583413
-0.28776076139
-0.24005842667
-0.15063493824
-0.062959991282
0.40919663275
0.18154458818
-0.034116307604
-0.062557356626
-0.10981977367
-0.21821652791
-0.34898486706
-0.46044088747
-0.32077421077
-0.15672675745
-0.077873555379
-0.046935203996
-0.098597929746
-2.2619751431
-0.078260108982
-0.023996475454
-0.010230015452
0.0078217738668
0.046798510183
0.16540467283
0.13979873217
0.045393070421
-0.046448783804
-0.050535580571
-0.15421311524
-0.35385310869
-0.28084460343
-0.19963723918
-0.19794765578
-0.24376806011
-0.29175757954
-0.3196535988
-0.31448812013
-0.24612492148
-0.14704392708
-0.067536700978
-0.021722090775
0.0069792877402
0.031373424902
0.086448005236
0.32319335051
0.17884696042
0.22097767455
0.80904852302
0.31912501927
0.081951683532
0.014699108583
-0.022070813981
-0.042733829058
-0.051527985208
-0.024576172336
0.081088407495
0.43302725395
1.0871286425
0.11218642764
-0.15039522392
-0.19959879248
-0.13046249913
0.0017454505783
0.14340618934
0.33447225086
0.99333033837
0.92081686399
0.26830638581
0.067092647253
-0.077907469138
-0.21991222684
-0.39089761366
-0.41488648919
-0.22708608884
-0.054193750367
0.076956327904
0.14185593868
0.14929321091
0.11943944885
0.084912126832
0.057924274028
