# vtk DataFile Version 2.0
Vessel Segment
ASCII
DATASET POLYDATA
POINTS 99 float
0.0 0.0 0.0
-0.24998539259670968 0.4077888540468136 0.444049969299906
-0.5826419807210456 0.7574441980460539 0.8834771213520202
-0.9879244805871802 1.042909061131557 1.3080623355682883
-1.4560614013727935 1.25819600715805 1.70875492300991
-1.9761482088124795 1.3969252254838043 2.0778737804013434
-2.534579689749092 1.4527814734222049 2.4111226553446956
-3.1147544295699596 1.4193849403315233 2.7083711702382955
-3.6973374299473925 1.2919178634071848 2.9734598767199136
-4.2622790991274035 1.0691435179704893 3.212704017476166
-4.790698897850982 0.7562074733673537 3.433850505429151
-5.269316315273712 0.36586438411545674 3.6452310901713156
-5.6936407742866395 -0.08437045026939438 3.854202793511193
-6.068098904889329 -0.5763981352924876 4.064542840822885
-6.404212361995092 -1.0960956724643298 4.27344997620765
-6.715457222850849 -1.6361023149020548 4.468881034345495
-7.015309564703519 -2.1951192533547386 4.624080047990806
-7.312883402755571 -2.77210346700902 4.686641429729388
-7.599325477007879 -3.3468749865092415 4.5811796085840895
-7.843386138877261 -3.8790713897611995 4.295453990295246
-8.032567763975049 -4.364719264142565 3.9023779381740527
-8.172664084581173 -4.829668142144481 3.465619181036122
-8.265953604496254 -5.296047448690436 3.0179236056552283
-8.306055271387116 -5.773818032548032 2.5744597147171158
-8.279689195255068 -6.2617456524214585 2.14141237330673
-8.17123241434569 -6.748046656502619 1.7196259316063152
-7.972936774045435 -7.213187996678429 1.3068243691981438
-7.694827691077019 -7.643631511129745 0.9021608525170814
-7.359756013093174 -8.042826618689325 0.508564531680652
-6.991027046815306 -8.42828613549009 0.13150257411889213
-6.608171356973611 -8.825203980940499 -0.21860722894902718
-6.2326068792938925 -9.266193180829767 -0.5195013499236145
-5.905217546277032 -9.79396295408216 -0.7123943907489458
-5.752686927545905 -10.405971558310833 -0.6257454366789342
-5.908212506041114 -10.805036288268745 -0.15578509200710483
-6.184368408367365 -10.870333116259513 0.42764474193546204
-6.4497166283608784 -10.730626686766954 1.0061910034268968
-6.663116203391765 -10.464367065253192 1.562214223806944
-6.807639153997454 -10.118553514583168 2.0965575115664046
-6.877361370296341 -9.732443351465495 2.6184677428923067
-6.870005590179253 -9.34509522197768 3.143957770652639
-6.781794588272088 -9.009633652880268 3.6963999529068117
-6.610905561534352 -8.827872375854682 4.295909691055369
-6.393340111707242 -8.949806475702426 4.891057367159475
-6.20500532017459 -9.350563631099162 5.366159556102889
-6.0609380703290245 -9.878137217103328 5.721673200337176
-5.943235654924061 -10.456423965082866 6.001279763187632
-5.83744851062031 -11.057691938316804 6.233492205293805
-5.735239921059543 -11.670676512020838 6.435043560561482
-5.631079392548058 -12.28919530449291 6.617714997415869
-5.520018784679608 -12.909081199245351 6.791533174271129
-5.39678339219805 -13.526884777445405 6.964439328760419
-5.254733890949762 -14.139413650389315 7.141642977339049
-5.085733476899077 -14.743480396139107 7.3242492253926015
-4.880797891599475 -15.334982466162225 7.5107618347304825
-4.6304865549985905 -15.908386883382077 7.697990900031827
-4.326467717503974 -16.455946734876562 7.883136407089338
-3.963142592392475 -16.96724422942651 8.064571119265025
-3.5389485109812173 -17.43036906269649 8.243141249278302
-3.057270944993571 -17.83301483078027 8.422167700897425
-2.5261815096643647 -18.16431052508146 8.607443585556606
-1.9576600440499237 -18.41657504232451 8.805674037056026
-1.3656370844658465 -18.585835590732813 9.022653408521343
-0.7642983348195728 -18.672484544802824 9.26170198287509
-0.16603215065265992 -18.6810124816435 9.523080515320608
0.4201123312103971 -18.61890680066504 9.804118748406546
0.9890115814468207 -18.495411273825866 10.100195106576559
1.539585328499915 -18.32113739621048 10.405320911993927
2.074684495926202 -18.107152363663523 10.712854977967861
2.6004548355301247 -17.8653043959482 11.01592330066173
3.1242394000914664 -17.607441712827725 11.30914873527522
3.652112544156613 -17.345022642951733 11.590707857922117
4.1875631878674024 -17.088656818867573 11.86343948566736
4.731796004742124 -16.84941267811132 12.134263564931022
5.284529557654315 -16.639790328454538 12.412151005976598
5.843735427220848 -16.47567224516354 12.706925761089936
6.403782348726726 -16.379062442325925 13.028202557548493
6.951367887712968 -16.37951814308605 13.382824046479923
7.459554479560207 -16.510761203693043 13.769110219359849
7.884653598823059 -16.798374192977494 14.169380010864625
8.177637990084891 -17.238127909879505 14.548876149291853
8.31473283204685 -17.786012463686724 14.872906862162832
8.312571357664876 -18.3857823361929 15.12880348209241
8.209113936933825 -18.99935360910445 15.325855878833881
8.040757650319964 -19.610971701373835 15.481107353942722
7.8339013235671855 -20.217251762123407 15.609159733171701
7.605978304555962 -20.819560272787818 15.718769269375848
7.367658758291554 -21.4207233230947 15.811576469770463
7.12483435546658 -22.02303245460483 15.882457727427056
6.8806622517900555 -22.627606741732553 15.92235777466962
6.638033104944725 -23.23409478579908 15.925131092510863
6.401009108491199 -23.842028469129836 15.893791731720821
6.1747005987806585 -24.4528978214582 15.844530262255473
5.965153487864838 -25.070655146651948 15.810977508859933
5.780593903957691 -25.695807675666142 15.844133153810386
5.632508074963503 -26.31154026774824 15.99866196449854
5.529959339552665 -26.881474623015063 16.297609501316764
5.470494682922682 -27.37900893797441 16.71517640386884
5.443595266362731 -27.804397278580748 17.209581326563814
LINES 1 100
99 0 1 2 3 4 5 6 7 8 9 10 11 12 13 14 15 16 17 18 19 20 21 22 23 24 25 26 27 28 29 30 31 32 33 34 35 36 37 38 39 40 41 42 43 44 45 46 47 48 49 50 51 52 53 54 55 56 57 58 59 60 61 62 63 64 65 66 67 68 69 70 71 72 73 74 75 76 77 78 79 80 81 82 83 84 85 86 87 88 89 90 91 92 93 94 95 96 97 98
POINT_DATA 99
SCALARS MaximumInscribedSphereRadius float
LOOKUP_TABLE default
1.1160000562667847
1.1721899509429932
1.2281399965286255
1.1301699876785278
0.9908310174942017
0.8513169884681702
0.711359977722168
0.6771100163459778
0.8408430218696594
0.9976639747619629
1.1152900457382202
1.2310800552368164
1.115399956703186
0.9819700121879578
1.0120099782943726
1.1504100561141968
1.2400000095367432
1.2400000095367432
1.2400000095367432
1.2400000095367432
1.1212400197982788
0.9723860025405884
1.0298000574111938
1.169819951057434
1.3104699850082397
1.4524799585342407
1.4617999792099
1.1847699880599976
0.9442459940910339
1.209280014038086
1.4795399904251099
1.5499999523162842
1.5499999523162842
1.7416199445724487
1.8600000143051147
1.8600000143051147
1.8600000143051147
1.8600000143051147
1.951889991760254
2.084350109100342
2.1700000762939453
2.1700000762939453
2.0995700359344482
1.9073599576950073
1.9868600368499756
2.137510061264038
2.064810037612915
1.9321500062942505
1.8000199794769287
1.6655100584030151
1.5499999523162842
1.5499999523162842
1.5499999523162842
1.5499999523162842
1.5499999523162842
1.4269700050354004
1.2856099605560303
1.3347100019454956
1.474310040473938
1.5499999523162842
1.5499999523162842
1.580839991569519
1.7194099426269531
1.8579800128936768
1.9966100454330444
2.1353700160980225
2.048880100250244
1.8870400190353394
1.7483199834823608
1.6307599544525146
1.5499999523162842
1.5499999523162842
1.5548800230026245
1.6881599426269531
1.821179986000061
1.955880045890808
2.094670057296753
2.1700000762939453
2.1700000762939453
2.094939947128296
1.9312299489974976
1.9477900266647339
2.0977699756622314
2.0322699546813965
1.7625399827957153
1.601040005683899
1.8640300035476685
2.13073992729187
1.935920000076294
1.65461003780365
1.6421899795532227
1.7900099754333496
1.779039978981018
1.6245499849319458
1.633139967918396
1.7893699407577515
1.7854700088500977
1.658560037612915
1.5499999523162842
FIELD FieldData 2
Curvature 1 99 float
0.1629198684
0.15432677423
0.14956357248
0.14842280457
0.14928081803
0.15021246462
0.15082013781
0.15229671961
0.15395778038
0.15219250724
0.1432631225
0.12583741448
0.10053941495
0.072029491518
0.060737442036
0.09569222019
0.17484845718
0.28154751318
0.30641480767
0.21825886252
0.12990402422
0.084810308375
0.083947990484
0.10385336754
0.12796186629
0.14402353534
0.13794029402
0.10579306202
0.062856083166
0.05150054481
0.1207004212
0.26292179727
0.5751081951
0.97198269897
0.61592505826
0.3449065974
0.22854200947
0.17007535881
0.13161602961
0.1238353756
0.17687604068
0.31018185224
0.51126762955
0.50740838797
0.30647537698
0.16524538825
0.087480965955
0.049779494742
0.035082364524
0.035895155338
0.034743183183
0.034457987811
0.043817712327
0.058842695027
0.075298531314
0.091727888168
0.10669541288
0.11903596963
0.12802301138
0.1331392775
0.13551716699
0.13528477874
0.13170635205
0.12452992323
0.11376531946
0.10009353023
0.083945800807
0.065459070109
0.045394685091
0.029688282253
0.024994219353
0.026755055341
0.031969435489
0.047853345247
0.075127272823
0.11378997
0.16390021644
0.2219604218
0.27846754999
0.31611440153
0.30946632715
0.25924738945
0.19009451682
0.12491113812
0.074693318022
0.041927303572
0.032503283031
0.041847254119
0.056015366822
0.063945996841
0.058822703325
0.039682067461
0.042067979986
0.1107315671
0.19773643371
0.26003383582
0.26450904987
0.23065920682
0.19106598331
Torsion 1 99 float
-0.003407326855
-0.0035456909938
-0.0022944437381
0.0083999389789
0.032629820066
0.07775695849
0.1218673828
0.14619188165
0.14856203508
0.14162017866
0.13054651558
0.11863098599
0.058231662235
-0.12532961365
-0.47051435242
-0.28097513908
-0.095921884796
0.0044551075596
0.092229515942
0.16216605564
0.30550688015
0.39631594511
0.12956514175
-0.083284990809
-0.16919313059
-0.16659620512
-0.066748946281
0.078168544216
0.50759722467
0.93281735918
0.20015578079
0.040201836073
-0.024391405689
-0.11953295144
-0.15218299114
-0.1724607206
-0.19978716691
-0.25506679796
-0.38854831203
-0.51498401713
-0.38800803982
-0.24552069965
-0.15692594661
-0.064802481033
-0.0044964714108
0.045164753571
0.090995598427
0.14737311292
0.23414535936
0.20216152019
0.17875646193
0.052892521737
-0.071472753137
-0.085968393744
-0.051591266423
-0.0088271084689
0.031313811308
0.063271775454
0.096323352689
0.11630841134
0.11942344647
0.10861235856
0.086866307271
0.057506119397
0.027575640011
-0.0054672114355
-0.045915370742
-0.1351207365
-0.3046237378
-0.58358009249
-0.59128323792
-0.51768208216
-0.46629314674
-0.24969352952
-0.11254216441
-0.046459810117
-0.015180014364
-9.4627149321e-05
0.0049038912723
0.0036512856525
-0.00079883275425
-0.004833338588
-0.0070857913377
-0.0026552108128
0.025584741565
0.17308202443
0.34090526345
0.16369785115
0.055911266168
0.057901798964
0.1344987176
0.56609912437
0.87892433691
0.1883909083
0.07120103424
0.034437226736
0.017560323313
0.0093050919456
0.0053151206289
