# vtk DataFile Version 2.0
Vessel Segment
ASCII
DATASET POLYDATA
POINTS 86 float
0.0 0.0 0.0
-0.5986389177274458 0.26430632528083803 0.3719796789957699
-1.2371062031668725 0.4453778891873012 0.7265958056434977
-1.908471785003796 0.506105552666645 1.059827631020157
-2.5876017186846547 0.40782247400807026 1.365934679728045
-3.232052159931331 0.1377799371141768 1.6423117793472575
-3.8073383291419005 -0.2753324723804624 1.894992185154658
-4.306738369818854 -0.783675090725737 2.1367928338020143
-4.743172970707059 -1.3476032482649158 2.378222533184998
-5.134376633418931 -1.9432767037697056 2.621514085197591
-5.497786815903076 -2.558697167240747 2.8588434450107867
-5.850913460447116 -3.1887225143926003 3.0721065830093472
-6.212981972028704 -3.83014637917 3.2268734381609963
-6.601801468491591 -4.472465638723471 3.256307764847413
-7.0061944383811525 -5.076484742045868 3.073149788986548
-7.37213801957696 -5.5946624903124365 2.6718111101664754
-7.664460252517993 -6.043914738483184 2.1438721375791774
-7.881299284574643 -6.470364266356642 1.562729660154635
-8.025857928648302 -6.906202648024908 0.966162231135323
-8.100150112354354 -7.36819508472376 0.3765248734304951
-8.107526459795325 -7.864539413069675 -0.18934330612350542
-8.054396860558647 -8.398737621520178 -0.7170577193860113
-7.950300111532578 -8.971908242914585 -1.193805693489903
-7.807677936319869 -9.583377599278517 -1.6090030936773945
-7.641584337250914 -10.231659051031386 -1.953485625478471
-7.4681129694794395 -10.914812576158369 -2.217418158971838
-7.304999755879408 -11.629859210452093 -2.385598880625969
-7.174449065635848 -12.368899582221436 -2.4294888585305188
-7.114017735189537 -13.101977761791382 -2.2866435452545657
-7.1957608825679005 -13.681481524649557 -1.8368696940952178
-7.422584277008523 -13.792136685094963 -1.1438810390469403
-7.654996782491846 -13.529396590041475 -0.4815163066018602
-7.842327582261515 -13.106970653614143 0.11207073694852782
-7.977870453697062 -12.620238317126278 0.6702626828746512
-8.058794243792242 -12.119273467483524 1.2264435437084868
-8.081446310365305 -11.644762559058261 1.81034326853871
-8.042326086220273 -11.246404265707113 2.446998800818141
-7.943817026975355 -10.993054445709982 3.146918948442452
-7.8038035773364225 -10.959819665640683 3.8826065642169496
-7.6563384533944046 -11.175093888731533 4.5854317704480705
-7.529811354596968 -11.594911810215864 5.194965368581829
-7.43376178846315 -12.15109124978815 5.691458929390423
-7.364313974747954 -12.789536150358174 6.083407333154138
-7.313270787465676 -13.475894620278874 6.3881741322210175
-7.272436521892164 -14.189674910532155 6.624163242393204
-7.234359503724333 -14.91880340425654 6.808290518630705
-7.191513442427758 -15.656055828996838 6.9556810263413835
-7.136595896162034 -16.396734915332548 7.080270235016322
-7.062080574392738 -17.137266190467127 7.194799754445174
-6.961411197592855 -17.87474033200912 7.309701644399946
-6.8305627530547115 -18.60595736958023 7.433024509034441
-6.667523445055245 -19.328156502620907 7.5705045599617105
-6.471400010710709 -20.03835947755455 7.725868344964074
-6.2393598757533075 -20.7327651303675 7.901872400816437
-5.965070609350046 -21.405114225196552 8.100976931260671
-5.637874881773349 -22.044826180437795 8.325565391914989
-5.244286342181717 -22.635282895425807 8.576159385767987
-4.771861135080083 -23.15265620965546 8.850076281645327
-4.215755601108361 -23.56800284230563 9.139492745348775
-3.5861779513445433 -23.856658931080194 9.432113443215167
-2.9077778354692607 -24.013178201722152 9.716760863789872
-2.2080964597852355 -24.055785491078442 9.990603854066647
-1.5063141042159278 -24.014593778225276 10.259975555509262
-0.8126535477702093 -23.919706093408028 10.537245918012221
-0.13238340701140885 -23.796488402128183 10.835753481215896
0.531068590518901 -23.664611674859106 11.166599719082022
1.1756759035090838 -23.537682359043213 11.534555096000892
1.801676770926344 -23.424635926041077 11.93753248938733
2.4114557143350535 -23.333302816358678 12.369824112859268
3.0084478340710716 -23.273646073456746 12.824850236074129
3.595206759615927 -23.26026347470835 13.296485932385115
4.170636476242978 -23.31289350051044 13.778948088548049
4.726906099302011 -23.454076648404467 14.265702809905315
5.247058335175972 -23.703672206019068 14.748403738008532
5.705683447949098 -24.07188127812449 15.217013923796406
6.074398844481467 -24.550588105958735 15.664573449461914
6.329873628152525 -25.114137852610405 16.09196953752722
6.457689278202113 -25.728625968505092 16.506340118808392
6.452920235073369 -26.359537472232947 16.915792779813533
6.320745575852017 -26.97685709644927 17.324865431011922
6.076135093121655 -27.559952209584882 17.73270851331246
5.74006483077331 -28.10058127123067 18.13427752533237
5.333339304194775 -28.6004727130883 18.523387669782093
4.8729034153789685 -29.06678791678941 18.894115572668298
4.372189240741975 -29.510624048096663 19.239480863341985
3.842257798257603 -29.94657724104946 19.54947519007873
LINES 1 87
86 0 1 2 3 4 5 6 7 8 9 10 11 12 13 14 15 16 17 18 19 20 21 22 23 24 25 26 27 28 29 30 31 32 33 34 35 36 37 38 39 40 41 42 43 44 45 46 47 48 49 50 51 52 53 54 55 56 57 58 59 60 61 62 63 64 65 66 67 68 69 70 71 72 73 74 75 76 77 78 79 80 81 82 83 84 85
POINT_DATA 86
SCALARS MaximumInscribedSphereRadius float
LOOKUP_TABLE default
0.6200000047683716
0.7431219816207886
0.8797140121459961
0.9300000071525574
0.9300000071525574
0.9300000071525574
0.9300000071525574
0.9300000071525574
0.9300000071525574
1.0775799751281738
1.3497300148010254
1.5499999523162842
1.5499999523162842
1.493209958076477
1.321720004081726
1.1193499565124512
0.9369000196456909
1.0973800420761108
1.256410002708435
1.500309944152832
1.7374099493026733
1.5561200380325317
1.346909999847412
1.4419900178909302
1.6888799667358398
1.8187799453735352
1.6815400123596191
1.567710041999817
1.7422300577163696
1.8600000143051147
1.8735599517822266
2.0551300048828125
2.2090699672698975
2.3503899574279785
2.4633100032806396
2.1809298992156982
1.8815900087356567
1.8600000143051147
1.8698999881744385
2.038990020751953
2.1402599811553955
1.9895299673080444
1.8600000143051147
1.8600000143051147
1.8600000143051147
1.970900058746338
2.10686993598938
2.2449800968170166
2.385509967803955
2.3369500637054443
1.910140037536621
1.5915499925613403
1.8688499927520752
2.142630100250244
1.9243299961090088
1.6482199430465698
1.6423799991607666
1.7884999513626099
1.847390055656433
1.8230400085449219
1.8937699794769287
2.0651700496673584
2.119760036468506
1.9876099824905396
1.953760027885437
2.2654099464416504
2.5518300533294678
2.5172901153564453
2.4829800128936768
2.6097300052642822
2.7520101070404053
2.68435001373291
2.538290023803711
2.4854300022125244
2.494460105895996
2.4119598865509033
2.253070116043091
2.31496000289917
2.618959903717041
2.7512199878692627
2.598069906234741
2.4818899631500244
2.49042010307312
2.5052900314331055
2.6437900066375732
2.7899999618530273
FIELD FieldData 2
Curvature 1 86 float
0.13380219528
0.16050501556
0.19358649192
0.22645653315
0.23952140174
0.2190058817
0.17458190934
0.12260816466
0.077312569328
0.045122935576
0.057836152006
0.11658826189
0.21033178582
0.31349513936
0.33097081845
0.23217825013
0.14738334386
0.11183358738
0.10578338883
0.10786411563
0.10963436939
0.11072944668
0.11048544325
0.10993206918
0.11553459785
0.1367050381
0.1867107321
0.29469321953
0.53637564255
0.83642566053
0.54017433607
0.27844106336
0.14156171435
0.07712521181
0.094541188881
0.15709153584
0.23545636573
0.30958886678
0.33935920592
0.30549679899
0.24577096345
0.18582451276
0.13684765438
0.099232931921
0.070922047039
0.05030386096
0.037568367597
0.034108391217
0.036763872535
0.04244131487
0.048961441135
0.054207859344
0.059228151124
0.069203176092
0.088323609043
0.11630787707
0.14844425994
0.17836924905
0.19573263086
0.18848123556
0.15558604911
0.111853184
0.072178796503
0.049554320788
0.049966706472
0.056048055506
0.055736697332
0.052976646263
0.053755815883
0.065339990355
0.089199116255
0.1204351597
0.15198255166
0.17877859834
0.19131165342
0.18928685179
0.18251373784
0.1768356559
0.16982567247
0.15595529
0.1336497319
0.10836503823
0.086891237554
0.07375586207
0.080223946738
0.11734239077
Torsion 1 86 float
-0.04404308625
-0.056552226378
-0.072232975902
-0.089241531304
-0.10574553765
-0.11723074939
-0.12216402643
-0.10046908103
0.00019692367577
0.45337914813
0.40969410899
0.133078033
0.02493254931
-0.056432577821
-0.1385963334
-0.25438265346
-0.36614836252
-0.3429335783
-0.22767483831
-0.16756546639
-0.15354638289
-0.15028011508
-0.16728411295
-0.18285886324
-0.17255027741
-0.12993133411
-0.076912490832
-0.033342568255
0.0089009026122
0.068257407711
0.092946755123
0.13832242964
0.31303641928
0.80774678514
0.52709921495
0.23943109948
0.15253810044
0.1148885903
0.080048665914
0.044700534344
0.012854621994
-0.016965154224
-0.038825090934
-0.067421495442
-0.12154979035
-0.23509995924
-0.41936203707
-0.45979229896
-0.31529319576
-0.18077449634
-0.10312963223
-0.049485608999
-0.0037423870945
0.032401469132
0.048983213416
0.051072790577
0.043655872503
0.033041774649
0.01834747156
-0.0080959725606
-0.054082780107
-0.14664710351
-0.36208652945
-0.66273108153
-0.47317491399
-0.22919684818
-0.19645707144
-0.25783835732
-0.31574768272
-0.23156501301
-0.10399649609
-0.018551393129
0.028414213162
0.06441687958
0.12371231888
0.17507032905
0.19677270492
0.17644259545
0.12661580665
0.063679264365
-0.0041099027376
-0.055199595323
-0.13365988874
-0.25229218536
-0.27784972356
-0.19935481214
