# vtk DataFile Version 2.0
Vessel Segment
ASCII
DATASET POLYDATA
POINTS 93 float
0.0 0.0 0.0
-0.6432974368830593 -0.2532893711217415 0.07260594794009943
-1.284193210936736 -0.47721861274823046 0.22372005599967398
-1.9155796447081412 -0.685527778266089 0.4284902773373012
-2.5356515191962483 -0.8936304060764594 0.6656061572111168
-3.1442009727339046 -1.1210284220210203 0.914454967621861
-3.738797877358966 -1.3945876155892045 1.1495584288073295
-4.305907393432634 -1.7515827471439873 1.3328103337359407
-4.8113766574782 -2.219083495962963 1.418466552078038
-5.2264009410792 -2.77543252987246 1.3949358169806751
-5.567846166387512 -3.3735021806945835 1.2983119167870865
-5.873960204118699 -3.9839243751760995 1.1653148727612888
-6.170565563547448 -4.59303055375221 1.0069825366169327
-6.464669963172058 -5.192207034852925 0.8111675784424497
-6.747739159002346 -5.772575344975574 0.5530867972989135
-6.998044325042815 -6.321915336427105 0.2087262128118252
-7.18566926873959 -6.824606933098885 -0.2326051493006588
-7.284028880051879 -7.269618903075584 -0.7568865562032787
-7.282363338795339 -7.659930155599817 -1.331908717205175
-7.185044359778472 -8.009497873443003 -1.9249089264761923
-7.005610754519067 -8.336992535778213 -2.5115938481528572
-6.760233366345721 -8.661500345112826 -3.075717173205758
-6.465504057759992 -9.001765922361061 -3.6058994683280905
-6.139190367444521 -9.377153501559604 -4.0919330045151465
-5.803089967297299 -9.80925421689896 -4.520562297617103
-5.490797009817088 -10.322569265909753 -4.868949043440549
-5.261732128656324 -10.938128423885207 -5.088157044907403
-5.221473163212076 -11.62442012687707 -5.086074456356896
-5.438528406266264 -12.21790622934455 -4.8161945466932625
-5.819610335977032 -12.598639957663847 -4.382220428430215
-6.259276156832977 -12.784044621005124 -3.8785557214058453
-6.701579305338386 -12.807645525964647 -3.3437938498078603
-7.109869930091404 -12.694015363894863 -2.7934132260609084
-7.453328898047726 -12.467517640521406 -2.233522600051853
-7.705160589580079 -12.156683686590245 -1.6653029438004352
-7.843224427237656 -11.797329258915308 -1.0868795304232999
-7.8506518409492525 -11.434018839766173 -0.494919953447704
-7.715781393999763 -11.122767838541048 0.11057578712635237
-7.433407276992754 -10.937781546453401 0.715445294779627
-7.020743613471572 -10.972626840834062 1.2678396611745897
-6.551993046730359 -11.277213029113701 1.6715493854922912
-6.123918492727361 -11.782613447256772 1.8715983666702833
-5.7766425490614965 -12.382833208572233 1.8993644487308188
-5.502944339728657 -13.01616387710932 1.8148190325463025
-5.284292401320425 -13.660253041871085 1.6696058127064404
-5.102288990354387 -14.311629280620128 1.5066224062646085
-4.93951476953937 -14.973557477886358 1.3678648137434173
-4.776323501430387 -15.64589861790512 1.2994915648471637
-4.591543747050228 -16.314143426725366 1.3441937389217353
-4.368101722579865 -16.948930450892178 1.516340270193863
-4.098707706112694 -17.529020729485516 1.7883716143104997
-3.7811400933335517 -18.054689646115364 2.114685304625971
-3.4125536949258226 -18.532880045256523 2.4598793217211607
-2.9887833337884935 -18.96567451545949 2.801533070676456
-2.5067057890756357 -19.347170844544898 3.1264579273050344
-1.967570216729654 -19.66591810538412 3.4284074499150408
-1.3793594315409363 -19.909559782438762 3.707797361840778
-0.7570666147174991 -20.071849434016983 3.97212458467617
-0.11843348772854949 -20.15715877492727 4.233883325764594
0.520747758561042 -20.17957870786705 4.50737301145045
1.149919869795434 -20.158060391458037 4.803352137958416
1.7645565588754246 -20.10981794924357 5.12563966693753
2.3652969673285136 -20.047276742664533 5.470972699797374
2.9560762342642004 -19.978209738904663 5.831923160846524
3.5424616100670248 -19.90602083825853 6.199398757096672
4.12985336070898 -19.83209490253404 6.564917540964335
4.722083521940781 -19.7582391366717 6.922550159097039
5.320949369005473 -19.689033117147176 7.269881709068765
5.926395792082068 -19.633433431083272 7.608127585850505
6.536274252879328 -19.60650011965101 7.941729343123001
7.144393771203169 -19.63239147482819 8.278191184258327
7.73296845911749 -19.751574323726214 8.627660929086423
8.251571485771326 -20.024231900763635 8.997642449989444
8.603290307077598 -20.486526840186173 9.372087038917742
8.736654584415028 -21.073765177002134 9.714761229783592
8.704654975835858 -21.698210090258407 10.017487916716005
8.573254958154019 -22.322933035043988 10.293240580456505
8.385144121260781 -22.93953414927453 10.554818932040792
8.167247832830427 -23.548638341911143 10.810795444794334
7.938661811330414 -24.154272436270023 11.065959873789346
7.714865379407658 -24.761294702335967 11.32183245570931
7.509387253387514 -25.375118811172552 11.576837182069928
7.333585434979735 -26.0002859444252 11.826379085364454
7.1947387647974415 -26.639335456728286 12.063593269243277
7.09384052289122 -27.29226767907172 12.281385378597617
7.02605742901492 -27.9570417276344 12.474882828128822
6.983099426988772 -28.63083988526272 12.64269024709916
6.955689376299904 -29.31088481557281 12.78703652160194
6.935186671417358 -29.99482417323275 12.913065979656732
6.914141856769831 -30.680811200007078 13.027390889559879
6.885932160302865 -31.3672910707661 13.137090773934553
6.8441636300140605 -32.05263949387154 13.249442952908948
6.7821329844307225 -32.734666042060326 13.372014493373493
LINES 1 94
93 0 1 2 3 4 5 6 7 8 9 10 11 12 13 14 15 16 17 18 19 20 21 22 23 24 25 26 27 28 29 30 31 32 33 34 35 36 37 38 39 40 41 42 43 44 45 46 47 48 49 50 51 52 53 54 55 56 57 58 59 60 61 62 63 64 65 66 67 68 69 70 71 72 73 74 75 76 77 78 79 80 81 82 83 84 85 86 87 88 89 90 91 92
POINT_DATA 93
SCALARS MaximumInscribedSphereRadius float
LOOKUP_TABLE default
1.2400000095367432
1.2544100284576416
1.2687900066375732
1.2771999835968018
1.2771999835968018
1.2771999835968018
1.260409951210022
1.241189956665039
1.2400000095367432
1.2658300399780273
1.4262200593948364
1.4982399940490723
1.2097500562667847
0.937300980091095
1.0792200565338135
1.2276999950408936
1.1030100584030151
0.9566760063171387
1.0575400590896606
1.2076900005340576
1.2692300081253052
1.2542699575424194
1.2400799989700317
1.2400000095367432
1.2400000095367432
1.4155800342559814
1.7317899465560913
1.6292999982833862
1.2688000202178955
1.4010900259017944
1.5600999593734741
1.4065500497817993
1.210610032081604
1.142240047454834
1.1936999559402466
1.264359951019287
1.487589955329895
1.722790002822876
1.5330599546432495
1.260699987411499
1.3933299779891968
1.5463199615478516
1.412950038909912
1.2831499576568604
1.3226900100708008
1.4497499465942383
1.5499999523162842
1.5499999523162842
1.5710999965667725
1.8654799461364746
2.1470799446105957
2.0478100776672363
1.9187500476837158
1.8600000143051147
1.8600000143051147
1.8600000143051147
1.8600000143051147
1.8600000143051147
1.7511099576950073
1.6160000562667847
1.6191099882125854
1.7539499998092651
1.8174500465393066
1.6158000230789185
1.4171199798583984
1.5556199550628662
1.7472800016403198
1.9143600463867188
2.04872989654541
2.1857500076293945
2.1848299503326416
2.1732699871063232
2.0604898929595947
1.905310034751892
2.1473898887634277
2.4217700958251953
2.318730115890503
2.1193199157714844
2.0065300464630127
2.07997989654541
2.1547200679779053
2.1700000762939453
2.1700000762939453
2.112679958343506
1.9776599407196045
1.877060055732727
2.010430097579956
2.1420199871063232
2.1700000762939453
2.1700000762939453
2.0201098918914795
1.6319700479507446
1.2400000095367432
FIELD FieldData 2
Curvature 1 93 float
0.16363787684
0.12005369277
0.081329496898
0.056315739228
0.065726546346
0.11228736485
0.18426449955
0.2523882533
0.25091608508
0.17807603173
0.099833912156
0.050967723362
0.054281334825
0.095666393142
0.14212659604
0.18163323959
0.19800730074
0.18574723422
0.15956750096
0.13010545917
0.10460979473
0.089807875529
0.093107091657
0.12169067351
0.18172790281
0.28795447464
0.45786668755
0.59263656907
0.47619290969
0.3228533441
0.24342729961
0.20684587871
0.18839891327
0.17990173675
0.17946793123
0.19136560094
0.22421473941
0.28801193202
0.38779010932
0.46905409501
0.43392780911
0.32288634227
0.20982945354
0.12107818354
0.060147258635
0.063860477531
0.12013603729
0.17539348321
0.20300650128
0.18598463194
0.14005201705
0.10835854238
0.10284500965
0.11410871354
0.12785070471
0.13493958665
0.13032063753
0.11425437307
0.092366444285
0.072674686283
0.058071361879
0.044287529252
0.030134314849
0.019080659627
0.018769465054
0.022970801324
0.023245449647
0.0251093665
0.045225072294
0.087652241126
0.15722417352
0.26474639058
0.38366728715
0.38546651903
0.27223880899
0.16833979512
0.09678962804
0.048062159012
0.016122623727
0.019483130742
0.038437280022
0.053792481561
0.063493132557
0.065711114237
0.061930546592
0.054227946811
0.043807651734
0.031140511501
0.018708324677
0.012423039516
0.020277715584
0.03422613941
0.050480776155
Torsion 1 93 float
-0.043038763304
-0.078703766871
-0.17243777568
-0.39393583189
-0.35346204079
-0.16363536962
-0.077493617167
-0.031967192977
-0.006030958515
-0.0050949557734
-0.10645514003
-0.36470360235
0.0098116746106
0.13181215016
0.14065269627
0.12961980202
0.15976533532
0.18065261161
0.20312095006
0.24437412859
0.32027626938
0.41134164885
0.41786198135
0.31063789565
0.19412738169
0.10913301197
0.058790274794
0.015676799709
-0.032530826198
-0.074046615083
-0.11547406786
-0.16754273636
-0.21704526772
-0.26313522255
-0.30450171211
-0.31804197624
-0.28165307542
-0.21577512956
-0.14091747629
-0.066736327075
-0.019587732403
-0.011719014584
-0.042636731524
-0.16113907089
-0.69719240477
-0.67742392931
-0.23572726898
-0.15576341275
-0.1519475266
-0.19590515399
-0.28925451909
-0.33259510451
-0.20819580793
-0.044191602256
0.053561255534
0.11476434771
0.16933100095
0.23667004445
0.32255184804
0.36924287537
0.28120402478
0.18569144172
0.078139783059
-0.10177634879
-0.10771963282
-0.104807312
-0.29682579808
-0.55573841885
-0.3138794615
-0.14617433964
-0.089748389472
-0.070554677364
-0.063045556668
-0.056849449587
-0.052297344548
-0.054289021708
-0.064247220667
-0.094142552725
-0.2099686553
-0.085215282688
-0.074101317267
-0.091478578228
-0.11575249108
-0.1380385733
-0.1511523606
-0.16068558797
-0.1698223602
-0.22673874919
-0.50681714907
-1.0937685244
-0.42347472221
-0.15617315354
-0.077417054572
