# vtk DataFile Version 2.0
Vessel Segment
ASCII
DATASET POLYDATA
POINTS 101 float
0.0 0.0 0.0
-0.5612116993918306 -0.023791026620659607 0.30566276143801346
-1.1573663174661737 -0.03460424720630416 0.5369615780293517
-1.776606409224624 -0.041093150223811686 0.6971409012827686
-2.408518243856877 -0.054260236152381555 0.7961876722485829
-3.0453853290357826 -0.08625824482435397 0.8487322560324612
-3.6815720379306445 -0.15050906202500722 0.8718874963440006
-4.31160108362172 -0.26106793318343763 0.8843557026655989
-4.927883070377051 -0.43110679755881903 0.9049665844080074
-5.519787990841293 -0.6692767169527274 0.949114906247018
-6.076025178030636 -0.9759586778175745 1.0235419443915448
-6.589641022522242 -1.3437076710068707 1.1239245946061016
-7.061208823993706 -1.7615211960414168 1.2347394789538915
-7.49727997209406 -2.219158725346836 1.3333409568367913
-7.905933442279939 -2.707709543934241 1.3925012369002059
-8.293021744593403 -3.2167462710010017 1.3839132683964814
-8.659499771830784 -3.7312527016584367 1.285312397179907
-9.002312959043211 -4.2332278326964214 1.0876010550333413
-9.317073288698365 -4.708038872343988 0.7972056583427655
-9.599963009609901 -5.147355078619422 0.42856486565498986
-9.847101883959946 -5.548757066216644 -0.0036897445916679854
-10.052001008730992 -5.913453314456043 -0.48753404582587306
-10.203655456778534 -6.24424419509611 -1.0134919100433744
-10.286479970200581 -6.544818239395862 -1.571827556052609
-10.282854532239416 -6.820327257791411 -2.1487393249485374
-10.181773002417886 -7.0797450585694985 -2.724250907965221
-9.986923911995012 -7.33680656733936 -3.276353664146307
-9.714658131775565 -7.6079281748689205 -3.7875525499971365
-9.387174795942103 -7.90971069848906 -4.246524745218648
-9.028076864554384 -8.258376395743547 -4.644554881378762
-8.662744223339539 -8.670402324032858 -4.969110445525379
-8.324447060254107 -9.16283459377079 -5.194048972360215
-8.072092068837447 -9.742418121164203 -5.261988320819885
-8.013440175154798 -10.344329396001179 -5.083932967619396
-8.203517834927645 -10.787906826546898 -4.676233783563523
-8.541814391346751 -11.005083664413336 -4.182528727874703
-8.933865224202775 -11.051139345179706 -3.680427410241015
-9.33443971893202 -10.980210345067992 -3.18723074093296
-9.72108272816257 -10.827665310854618 -2.7010956676536813
-10.07954608657382 -10.618058455397723 -2.214389114695785
-10.398059254118495 -10.370601687893119 -1.7177575006527706
-10.664154024474994 -10.103615118038139 -1.200960297950262
-10.863264339168156 -9.838028734062407 -0.6543296720251517
-10.978023767964322 -9.60208649341572 -0.07150169312298402
-10.98928349496553 -9.434400281050612 0.5445958670693961
-10.883557327756003 -9.38357377630054 1.1714435545495692
-10.668225968851726 -9.492162195233758 1.7612051228858332
-10.379865331016864 -9.76894521291285 2.257581937072139
-10.065995587527539 -10.182751100201168 2.6281313020199257
-9.76052331931573 -10.687906376117404 2.8719620248970394
-9.478906384355085 -11.246115835530935 3.004659970271803
-9.22426062089335 -11.831233373145526 3.0459448270544716
-8.992961804302011 -12.426847451523852 3.0152833042975673
-8.777311945576848 -13.023352116068006 2.931122304960454
-8.566687710692095 -13.615657436307076 2.811592658846911
-8.347284407411086 -14.201347666932934 2.6760318550821305
-8.100463426215603 -14.777623649519743 2.5482958335836003
-7.802624840377514 -15.33672248176645 2.4612088825586182
-7.4309943960376925 -15.85606404303809 2.4572012448123903
-6.983663520936129 -16.297224514943032 2.568906715326009
-6.488050499653623 -16.633867298958837 2.789900697712468
-5.973734562222393 -16.872355111507304 3.0853217182434545
-5.454456700914931 -17.03444179368808 3.421774009033052
-4.9327109209953495 -17.13870468172051 3.777056009233401
-4.40677307676659 -17.19684758235607 4.136790940262892
-3.8743147828713966 -17.214849798898843 4.491181747631087
-3.333739293541064 -17.19563910303568 4.832977555415655
-2.784499699083157 -17.14074065390888 5.156643746729094
-2.2271304725304377 -17.0521261170763 5.458152663836435
-1.6632850829530468 -16.933232863938198 5.736354067384537
-1.095164970779628 -16.79041997091844 5.993899695882144
-0.5247166249155362 -16.63303980609086 6.237571472181977
0.046711411230941455 -16.47426066871669 6.47798029365013
0.6177533042612406 -16.33068458945945 6.7285286327494624
1.1851291316448889 -16.22324155654877 7.003899027889636
1.7404928520337761 -16.177312062378103 7.3175267115150895
2.2671877400034646 -16.219361318730897 7.677019582680708
2.741057991846768 -16.369361994375137 8.078236840381816
3.1380575535864454 -16.631895633400973 8.504174234181082
3.4431229003604265 -16.99589178870075 8.931384110598076
3.6518326479884946 -17.442395777600662 9.338014651921588
3.7671705331260217 -17.950858598323506 9.707704977352472
3.7966617965410436 -18.50188027511256 10.030524717475263
3.7504844791764107 -19.07860033744963 10.302848130995631
3.6406684709335506 -19.667471319620063 10.52719409649704
3.4799360196578624 -20.258886660359632 10.7107256749512
3.2807745933267793 -20.847439749375507 10.86344914489756
3.055073638587376 -21.431221407741354 10.996648310407119
2.8138891942220767 -22.010741235170592 11.121300381556635
2.567291162901212 -22.587843497292724 11.24666111480762
2.3241982979424836 -23.164907539436353 11.378768053431415
2.092199540078104 -23.744465586844097 11.519551337742307
1.877306497593997 -24.329176051354278 11.666027241156531
1.6837621947706833 -24.921933641339006 11.809839721218323
1.5142053267909086 -25.52558180186588 11.937512175460935
1.370131401980312 -26.14183830863554 12.031303396048976
1.2521797518543525 -26.76926536245656 12.071016077049121
1.1599464314318637 -27.401202677074483 12.03762531416039
1.0915662830117525 -28.0257480658494 11.918798339318354
1.0436659005744517 -28.629330175580083 11.713178248494424
1.0119531340858179 -29.201654004321753 11.429522781971853
LINES 1 102
101 0 1 2 3 4 5 6 7 8 9 10 11 12 13 14 15 16 17 18 19 20 21 22 23 24 25 26 27 28 29 30 31 32 33 34 35 36 37 38 39 40 41 42 43 44 45 46 47 48 49 50 51 52 53 54 55 56 57 58 59 60 61 62 63 64 65 66 67 68 69 70 71 72 73 74 75 76 77 78 79 80 81 82 83 84 85 86 87 88 89 90 91 92 93 94 95 96 97 98 99 100
POINT_DATA 101
SCALARS MaximumInscribedSphereRadius float
LOOKUP_TABLE default
1.2400000095367432
1.0008699893951416
0.7506660223007202
0.8112959861755371
1.2076300382614136
1.5085300207138062
1.2327899932861328
0.9502689838409424
1.0643999576568604
1.2110600471496582
1.2400000095367432
1.2400000095367432
1.2400000095367432
1.2400000095367432
1.2400000095367432
1.2400000095367432
1.222499966621399
1.1651699542999268
1.1233899593353271
1.1789699792861938
1.2338199615478516
1.4072200059890747
1.5972199440002441
1.5453799962997437
1.349410057067871
1.2400000095367432
1.2400000095367432
1.2742799520492554
1.412410020828247
1.554900050163269
1.8451800346374512
2.1618099212646484
2.1700000762939453
1.9335399866104126
1.3214199542999268
1.3882900476455688
1.5400999784469604
1.6771199703216553
1.805590033531189
1.692330002784729
1.3960299491882324
1.138159990310669
1.4619100093841553
1.8042800426483154
1.6458899974822998
1.3212599754333496
1.4822800159454346
1.796489953994751
1.8600000143051147
1.8600000143051147
1.8600000143051147
1.8600000143051147
1.8600000143051147
1.8600000143051147
1.8600000143051147
1.8600000143051147
1.8600000143051147
1.9047499895095825
2.07135009765625
2.191240072250366
2.1789700984954834
2.1390700340270996
2.0052099227905273
1.8774100542068481
1.7527899742126465
1.6292200088500977
1.5499999523162842
1.5499999523162842
1.5499999523162842
1.6449799537658691
1.7530900239944458
1.8821099996566772
2.0352299213409424
2.1700000762939453
2.1700000762939453
2.1700000762939453
2.0257298946380615
1.8715499639511108
2.003040075302124
2.155289888381958
2.0790300369262695
1.980929970741272
2.121530055999756
2.3262500762939453
2.232409954071045
1.8634799718856812
1.5860199928283691
1.8428399562835693
2.0998198986053467
2.1700000762939453
2.1700000762939453
2.17372989654541
2.184429883956909
2.1890900135040283
2.0520401000976562
1.9136199951171875
1.7660599946975708
1.6180200576782227
1.6889699697494507
1.9388500452041626
2.1700000762939453
FIELD FieldData 2
Curvature 1 101 float
0.14657448005
0.1377645617
0.12120282186
0.10045868318
0.081109415332
0.071260973251
0.078416524873
0.099069016515
0.12043732827
0.13050483413
0.12464837685
0.1047004211
0.085660064342
0.088604761828
0.11601957009
0.14561188342
0.1616055045
0.15805241012
0.14372834961
0.12825360102
0.11780345245
0.11759651643
0.12827623763
0.14461069016
0.1558521057
0.152327754
0.13948236008
0.12820395031
0.12909853108
0.1553615618
0.21809635527
0.33516071076
0.52405941474
0.62881122527
0.47440835273
0.31026864596
0.20660090285
0.14276101315
0.10368575556
0.086857825088
0.093853254076
0.12005368514
0.15978282732
0.21032013148
0.26642910605
0.31350031609
0.32708348979
0.30103874211
0.25248313008
0.20330638638
0.16013406491
0.12195534881
0.087355299348
0.056738764228
0.043447710311
0.071663235367
0.12845868434
0.19993717436
0.25606841837
0.25580715986
0.20709510086
0.14955432965
0.10393094038
0.075684060897
0.063825960399
0.06234101268
0.064220711122
0.06526878762
0.061668561801
0.051088656531
0.03356751691
0.015802795299
0.035987660936
0.075377631515
0.1206342854
0.16606319011
0.20130710703
0.21779901861
0.21500914856
0.20211116643
0.18617643687
0.16859827651
0.14975896931
0.12772574502
0.10334373143
0.077718944873
0.0519871717
0.0281187789
0.011069349034
0.01566771982
0.025532892082
0.032029276087
0.037969512131
0.049468375513
0.069368815251
0.095214100753
0.12205874706
0.14379179646
0.15521957672
0.15515168885
0.14663884735
Torsion 1 101 float
-0.046289716918
-0.072158588391
-0.11683543171
-0.19804260839
-0.33761404219
-0.47591048946
-0.41616697841
-0.24992287863
-0.11784781743
-0.026656603074
0.079281646329
0.24602614422
0.48235947075
0.50197541618
0.26940037962
0.13526552288
0.069483036668
0.019698715205
-0.007609360664
-0.059543054552
-0.124027276
-0.17429397549
-0.1918897191
-0.19187429671
-0.20422824589
-0.24018540285
-0.28739454949
-0.33079962272
-0.32730307089
-0.2347214043
-0.12959145855
-0.060845930731
-0.02669087229
-0.0047881687463
0.020855866475
0.05842789492
0.10818797158
0.18143698976
0.29762611902
0.40410269774
0.36905180971
0.26634040199
0.19331096906
0.15466129253
0.13702988134
0.1259958079
0.10975412957
0.079107091371
0.045182991517
0.016452684109
-0.0095813242963
-0.04113002799
-0.10185181617
-0.28568957829
-0.59981780532
-0.2923945927
-0.12267075068
-0.057337336262
-0.017874951055
0.010775532762
0.039187555294
0.080785118984
0.14055308947
0.20573021213
0.2088397734
0.14892463136
0.10336927394
0.064936952609
0.037574377829
0.026995616419
0.052018446984
0.31764319369
0.06736880891
0.0058682594735
-0.0078642261224
-0.015165408493
-0.022796879285
-0.031528579967
-0.039970515762
-0.042186732495
-0.037625871477
-0.027854756665
-0.011610779037
0.0061826183111
0.024748146178
0.04973839969
0.098664796846
0.25231198257
1.1278154015
0.47102736349
0.2618858999
0.32329147135
0.41002769285
0.36823270983
0.24974983885
0.15766829541
0.10378333575
0.068413385079
0.045043314085
0.029781087546
0.019980032606
