# vtk DataFile Version 2.0
Vessel Segment
ASCII
DATASET POLYDATA
POINTS 92 float
0.0 0.0 0.0
-0.62485489379079 0.09316376019650734 0.3094240728556492
-1.2645712243992868 0.19382576039964539 0.5842877841400805
-1.9147326782124552 0.2886020165747541 0.8358090785137132
-2.5723245161691417 0.3650819253442397 1.0738701763561849
-3.2345084913053523 0.41071850307361185 1.3069547318832715
-3.8976100247875958 0.41324020076485746 1.54172131057875
-4.556211678322922 0.3606669487925467 1.7829365361272917
-5.202888750278515 0.24268733008622026 2.0329161987734556
-5.829587451660093 0.05411622076112171 2.2902550470466694
-6.430699478668119 -0.20322262751209197 2.5491355270473517
-7.005523542628647 -0.5211276804608329 2.8005859571698517
-7.558687212846768 -0.8883863416700504 3.032759973922952
-8.098180767903013 -1.2938475195464312 3.2310033849969746
-8.631715709088086 -1.7283282767922683 3.3765318155964215
-9.162305772667128 -2.184474776025881 3.445300891605879
-9.682592441543767 -2.655197918011328 3.4077976580206464
-10.168389613100318 -3.1296380905278793 3.22974119909001
-10.571397283413901 -3.5909001864564583 2.8885619193589185
-10.830067844783871 -4.021877842985931 2.4001721858599887
-10.907248373696628 -4.41268883973666 1.8229641415264541
-10.815136880776373 -4.765854874399892 1.223114300425394
-10.599226878188867 -5.09434677905557 0.6403681480127822
-10.305576117986254 -5.41477620381824 0.0874157334867168
-9.968041667473791 -5.743476690043289 -0.4349727958197389
-9.61172150510449 -6.096573197516731 -0.928060962874892
-9.258765389071971 -6.492711046654482 -1.389812423254688
-8.938055181427455 -6.957337188919844 -1.8083821505292512
-8.711068962681795 -7.5316010241780225 -2.1380653768407614
-8.759859668117238 -8.207720855417854 -2.1916922331506656
-9.155926653003856 -8.607083696512808 -1.8010924920919917
-9.591672270279343 -8.680057830443245 -1.2576733249352696
-9.977786170535191 -8.591941476813256 -0.6773806800854553
-10.30066910286066 -8.41276456047792 -0.07921286215278683
-10.553381718890124 -8.178838993366638 0.5338859197873789
-10.729193251827335 -7.917224222921311 1.1624077043089436
-10.819553194389409 -7.65378703786667 1.8079636503291663
-10.813874694869408 -7.418108583335863 2.470063056335488
-10.7025549787082 -7.248464914369871 3.1425367212953486
-10.481528042364387 -7.195679069644162 3.806318150470062
-10.167337345824066 -7.314920874257453 4.421169819829752
-9.810455617691073 -7.631704132740152 4.933886047387284
-9.473482732942303 -8.111262576074354 5.31950790906923
-9.191258498969479 -8.691905530995806 5.596476154906164
-8.969109768159624 -9.328136811216055 5.796822763471348
-8.799256180562917 -9.99395191069214 5.946978763375886
-8.669569252744955 -10.675048284247357 6.065868920856198
-8.565821314964195 -11.3635760447421 6.166603122371812
-8.47230724469605 -12.054767231430352 6.25885500673299
-8.371432651739514 -12.745117406534408 6.349846042248546
-8.243989312853635 -13.430279783631025 6.445532837197641
-8.069088987221082 -14.103315014354578 6.5511740538388485
-7.826471184324653 -14.75202508808087 6.672168745871664
-7.499802362808961 -15.358114325934952 6.813841091560426
-7.081792864236748 -15.897607880991199 6.981170975873874
-6.577910600966629 -16.345830286180714 7.177803228030637
-6.005469848848437 -16.683785242485275 7.4050688925968
-5.388935487789683 -16.902638785617466 7.661286614934643
-4.753333963461573 -17.004775564480965 7.943300930276753
-4.11950605100379 -16.999657962193986 8.247186895053325
-3.502523774395425 -16.901236876800247 8.569649321586695
-2.911590126854318 -16.725354479611905 8.907883723711759
-2.350232276200991 -16.488765486307113 9.25943793092706
-1.8167180594667225 -16.207942492620834 9.621857767139131
-1.3047248478299442 -15.898519088295856 9.992058631831693
-0.8045225116386856 -15.57521565017829 10.366605614416827
-0.30488809225249397 -15.252122130691438 10.74213400002708
0.20483378642935124 -14.943469542230194 11.116050558189404
0.7326275533440105 -14.66432924024298 11.48808119132866
1.2821174803919784 -14.4315956633182 11.860398624125803
1.8509973038907588 -14.264896203427563 12.238633221892517
2.4289424241807227 -14.188697077539924 12.631364238730535
2.9913350767465197 -14.233772089505605 13.049612068486983
3.4899755372659267 -14.431455271877278 13.501472951853753
3.858991682043032 -14.790790507573067 13.976523158607648
4.057782703302988 -15.275395688943117 14.442768816423659
4.1009085305308535 -15.828909000702202 14.872793482481532
4.031053426446256 -16.412916670491107 15.257708372978831
3.888889543581596 -17.011154684144238 15.59904191616227
3.70664223300674 -17.61990734819183 15.900754654859886
3.50966677391672 -18.24092821858408 16.16615514736277
3.3191075797253844 -18.87744763552356 16.397255503858144
3.153024045498631 -19.531604897157663 16.595520809311644
3.025395502725284 -20.202691026709736 16.763201337962062
2.943636572849133 -20.886774061037922 16.905077752638167
2.9064082829481666 -21.57810530490176 17.029730477370364
2.9036582402495865 -22.271350552076854 17.1495112848372
2.919184102542203 -22.96263265893637 17.279379468033355
2.933619204816024 -23.648475265990793 17.43532511068196
2.9267009882870814 -24.323571242507892 17.6325879543942
2.879653716829643 -24.97894243049115 17.883125129836863
2.7785296395211794 -25.60220554753124 18.192373298171137
LINES 1 93
92 0 1 2 3 4 5 6 7 8 9 10 11 12 13 14 15 16 17 18 19 20 21 22 23 24 25 26 27 28 29 30 31 32 33 34 35 36 37 38 39 40 41 42 43 44 45 46 47 48 49 50 51 52 53 54 55 56 57 58 59 60 61 62 63 64 65 66 67 68 69 70 71 72 73 74 75 76 77 78 79 80 81 82 83 84 85 86 87 88 89 90 91
POINT_DATA 92
SCALARS MaximumInscribedSphereRadius float
LOOKUP_TABLE default
0.6200000047683716
0.8940979838371277
1.1640900373458862
1.28603994846344
1.3502399921417236
1.308609962463379
1.1075999736785889
0.9300000071525574
0.9300000071525574
0.9300000071525574
1.0498100519180298
1.1845099925994873
1.2400000095367432
1.2400000095367432
1.2400000095367432
1.2400000095367432
1.2229299545288086
1.0643500089645386
0.9300000071525574
0.9300000071525574
0.9300000071525574
0.9300000071525574
0.9300000071525574
0.9300000071525574
0.9300000071525574
0.9300000071525574
0.9300000071525574
0.9970070123672485
1.1789000034332275
1.2400000095367432
1.2400000095367432
1.2400000095367432
1.400689959526062
1.5574500560760498
1.6459599733352661
1.7225600481033325
1.700260043144226
1.6043399572372437
1.4786100387573242
1.3151500225067139
1.5266799926757812
2.035330057144165
1.9407299757003784
1.6461999416351318
1.6392500400543213
1.769819974899292
1.8600000143051147
1.8600000143051147
1.8600000143051147
1.7593300342559814
1.6314200162887573
1.5499999523162842
1.5499999523162842
1.5366699695587158
1.3952800035476685
1.2524100542068481
1.2400000095367432
1.2400000095367432
1.1538900136947632
1.0373799800872803
1.1805399656295776
1.580649971961975
1.849519968032837
1.7018300294876099
1.5548700094223022
1.5499999523162842
1.5499999523162842
1.6417399644851685
1.7760299444198608
1.8600000143051147
1.8600000143051147
1.838129997253418
1.6879199743270874
1.579110026359558
1.807479977607727
1.9055500030517578
1.5486700534820557
1.2602499723434448
1.5234299898147583
1.7786500453948975
1.7742700576782227
1.6469000577926636
1.582800030708313
1.7152099609375
1.8499000072479248
1.608109951019287
1.33502995967865
1.2400000095367432
1.2400000095367432
1.2901300191879272
1.422510027885437
1.5499999523162842
FIELD FieldData 2
Curvature 1 92 float
0.081671151302
0.056123394843
0.037942489214
0.033864026991
0.045005294466
0.061856679627
0.079805661352
0.095855867709
0.10542350765
0.10527716471
0.095811746221
0.081806074341
0.074452816905
0.086820689533
0.11839912244
0.16144270245
0.21495107608
0.26849244837
0.30171813528
0.30083152271
0.26440099077
0.20099646833
0.13600762075
0.084108220048
0.059793865001
0.088514158026
0.16252081266
0.30595263445
0.64894681476
1.1100766224
0.56509682696
0.28270176286
0.17631821005
0.13191901226
0.1175178157
0.12489547028
0.14896191999
0.1857570611
0.23647334382
0.29377497235
0.33034975528
0.30749020811
0.23882473481
0.17254338205
0.12101696539
0.081174172643
0.048280492208
0.019233918907
0.014223971959
0.04317235033
0.075135355526
0.10818722723
0.13990919821
0.16644062363
0.18415852344
0.19061303112
0.18578174478
0.17264676893
0.15585395464
0.13746935582
0.11812770948
0.097748077212
0.075826715779
0.052041899672
0.026850788747
0.0060148098058
0.025734652613
0.049335809215
0.072809233095
0.099273002864
0.13448334065
0.18347015943
0.24723547254
0.30439267797
0.30876247546
0.25799960636
0.19035139495
0.13138600554
0.085996394993
0.058524821628
0.054714744536
0.066288285861
0.077475827122
0.079826119688
0.070239244567
0.050247672862
0.029959315244
0.037878864266
0.068325499271
0.10107450874
0.12870167892
0.14605631349
Torsion 1 92 float
0.14079833912
0.26803263618
0.54179368513
0.63565580872
0.32349510274
0.14525734455
0.074172378574
0.024803586172
-0.017298106784
-0.067453277667
-0.14364578704
-0.28079038151
-0.39631114796
-0.28889873689
-0.11897525496
-0.014600464628
0.037141149016
0.11688367981
0.16930470985
0.17268782814
0.14192771617
0.13029073156
0.17901078987
0.36210391979
0.64780489372
0.29997496147
0.10764973493
0.041737934758
-0.0023003319667
-0.072311024302
-0.10918927449
-0.13499017988
-0.18409317341
-0.2511350354
-0.29070655891
-0.27221008636
-0.23004440007
-0.19912468499
-0.18073303153
-0.17239674988
-0.16204242106
-0.14608821511
-0.1272717049
-0.10928292461
-0.09036254837
-0.066902747801
-0.02131643368
0.29981827331
0.68562646331
0.058503253091
0.018594533021
0.021256421915
0.032064327922
0.046000067068
0.054878329484
0.059692452455
0.059509342645
0.059342492644
0.060624446559
0.063422059241
0.065970892828
0.065267677033
0.059195642295
0.046568624266
0.051840235563
0.95386513051
-0.011893260136
-0.091169982203
-0.13288095391
-0.15222536833
-0.15003245611
-0.15751179037
-0.13716670536
-0.087703522226
-0.042585847691
0.0039939477648
0.046884412221
0.11801916501
0.26072368845
0.4988565867
0.49719231229
0.28587273472
0.17168668287
0.13615557978
0.16530170228
0.34630951248
1.0853114897
0.73069500273
0.22688770767
0.097131546943
0.050895799858
0.029528615226
