# vtk DataFile Version 2.0
Vessel Segment
ASCII
DATASET POLYDATA
POINTS 107 float
0.0 0.0 0.0
-0.2913032303370053 0.16669281580287346 0.5017544008099144
-0.5834503994617831 0.36381098333257933 0.9919473507533695
-0.8835033585918397 0.5827336816169535 1.467884986081046
-1.1984333673513834 0.8145339168743246 1.9278308042912622
-1.534488871553466 1.0499259704641215 2.370645796835218
-1.8965455018241077 1.279210561965767 2.795851283089094
-2.2876160043210376 1.4925627430144834 3.2032073515230532
-2.7089402075573807 1.6805162901043933 3.592475233043114
-3.1602186505342855 1.8342127556052072 3.962635874865395
-3.6395467498747025 1.9450198941861976 4.312252092682583
-4.143216730006785 2.004378576411444 4.63934747246316
-4.664999459423677 2.004257478210669 4.9424231383635675
-5.195646919868068 1.9378316877779207 5.221900649214807
-5.723287774747459 1.800609147325955 5.480414462101666
-6.234516396114246 1.591330892541052 5.723175226965046
-6.716384415972336 1.3140114430224945 5.957609919307205
-7.159858022787488 0.9782906725263285 6.191685886790465
-7.562841989199121 0.5975876326214697 6.4303133187255
-7.931265557301793 0.18508146334699688 6.6721761290057735
-8.276149805801898 -0.2498278730708818 6.909605145727477
-8.609893591048618 -0.70270544063774 7.128707206441301
-8.94303816868867 -1.1725344714414088 7.308996151370828
-9.28001618984477 -1.659673690340788 7.4238178095511005
-9.615436499710713 -2.1602890826019023 7.447057239741369
-9.93720070256754 -2.663059108888129 7.362663218159642
-10.232011987482972 -3.15175546785974 7.168478825909093
-10.48920742939158 -3.6099647835682744 6.872828993075086
-10.698066410217194 -4.022172777084235 6.485657481351463
-10.843195749231095 -4.3725669937196106 6.017266777290964
-10.908303168685592 -4.649768772344962 5.486044386001855
-10.887040152526843 -4.856950657333427 4.920201618521324
-10.786713720492186 -5.012502438664986 4.345973371855042
-10.621817956291382 -5.141698224790099 3.7800117910454487
-10.406669866076452 -5.269158650849388 3.230640663742054
-10.15336784556635 -5.416384359659725 2.7028924198921644
-9.872093283113042 -5.602543140019278 2.2025157967250317
-9.57219130402163 -5.846981000719809 1.7395756541352707
-9.265460985816695 -6.17179950583864 1.3348551852219561
-8.973046531327928 -6.600359183766818 1.0302806434779916
-8.739269882039038 -7.1371520922915845 0.9037798635380534
-8.634750710411504 -7.709223420061042 1.0374688498862685
-8.69350904259423 -8.178991901764324 1.403076884820917
-8.885776998695718 -8.471826772648233 1.8903349170493589
-9.168189427261972 -8.579580180185149 2.4100575490082528
-9.501513367331475 -8.520641914355046 2.9078579793192723
-9.852328000361993 -8.32771534398236 3.3583398588953237
-10.196013833648768 -8.038295213873138 3.7607845955827504
-10.516879510704563 -7.686643175359898 4.131783785323607
-10.803903952822978 -7.301508626768182 4.497332413593724
-11.044029118165714 -6.9104436936460525 4.8891159388695105
-11.21383621411305 -6.552741314837481 5.34337128407915
-11.276008715852536 -6.295126598969584 5.882619287259255
-11.211978613410594 -6.202945734590842 6.472600581949017
-11.05487083444266 -6.2729644857918725 7.049523834800475
-10.849964681680083 -6.462717369355564 7.583801099569516
-10.626191200749565 -6.73943932492124 8.070820362703977
-10.400740623981894 -7.084981616474615 8.511059162391819
-10.18463403008347 -7.489943139353624 8.902663325238155
-9.986495667334028 -7.949409134504164 9.239760730941248
-9.81315501728294 -8.459248553869607 9.51151194809586
-9.66844495222833 -9.012332597706202 9.703480014785052
-9.548472621989614 -9.594886916893705 9.8035671065078
-9.440898005664222 -10.188401765687217 9.81045485228585
-9.328172717280387 -10.776705964539829 9.737801072782105
-9.192627272665572 -11.350513794810968 9.608903462415503
-9.01832811893099 -11.905935262409695 9.449398853020906
-8.791260424208629 -12.4403313405078 9.284862956114859
-8.499743924302967 -12.948613619801009 9.141410712938109
-8.137010257982945 -13.420718382830566 9.04533642716086
-7.706054892063961 -13.841431811297197 9.020120582939073
-7.221491866020695 -14.194940879294965 9.079956803352282
-6.7056626554603085 -14.470584946630156 9.225924690284756
-6.180124453774566 -14.665548480134749 9.448200437807575
-5.660468083095341 -14.781987256269712 9.731392007627871
-5.15609750417434 -14.823196060044816 10.059804615950842
-4.671881778631411 -14.791750513098247 10.41834497146006
-4.209049025012149 -14.690165687967799 10.791979760721562
-3.7650361884727896 -14.523892717342141 11.165314660570765
-3.3339305922386933 -14.30389270204521 11.52601193497681
-2.907838575760274 -14.046577304371683 11.867601969685074
-2.478655984681412 -13.770513963077205 12.190144742578017
-2.0395964644063067 -13.49337273355224 12.498312245090265
-1.5868444219791673 -13.231864596285837 12.800131231548665
-1.1204779714516724 -13.001981939613382 13.10680157187114
-0.6452205138719819 -12.821154336177576 13.431764023907874
-0.17283128542984907 -12.711363965508756 13.790346649543778
0.27201774386979144 -12.702319300833878 14.196559139685512
0.6456373958561952 -12.825646393964822 14.651617046084251
0.8994729339112212 -13.090329360476076 15.128081915559642
1.016672500924286 -13.46701845199958 15.582708838031566
1.0180501357625855 -13.913008273788387 15.988124479163481
0.9363871784977503 -14.397571299831654 16.33795004835135
0.8002363856835412 -14.904115934187326 16.636306882947025
0.6312921858189685 -15.424916454376703 16.89044173919642
0.4461938715430902 -15.95661809750756 17.10827355404244
0.2587374982574242 -16.498106988619934 17.2983313251753
0.08105978683379265 -17.049040968174843 17.469773246833103
-0.07593383780130503 -17.608912223434128 17.63215865104402
-0.2029743394715166 -18.176180465254443 17.794945478653965
-0.2933612749805742 -18.74780310134131 17.966633024020883
-0.34416372848594184 -19.319473434125182 18.153689830365785
-0.3566449651707004 -19.8866398563498 18.35996155098793
-0.33557395856334254 -20.44565428471681 18.58684367128587
-0.2877274061065688 -20.994336594601055 18.834033124447586
-0.22030845735891014 -21.531889437177032 19.10042717426272
-0.1399851020824295 -22.05842881709971 19.384672792890278
LINES 1 108
107 0 1 2 3 4 5 6 7 8 9 10 11 12 13 14 15 16 17 18 19 20 21 22 23 24 25 26 27 28 29 30 31 32 33 34 35 36 37 38 39 40 41 42 43 44 45 46 47 48 49 50 51 52 53 54 55 56 57 58 59 60 61 62 63 64 65 66 67 68 69 70 71 72 73 74 75 76 77 78 79 80 81 82 83 84 85 86 87 88 89 90 91 92 93 94 95 96 97 98 99 100 101 102 103 104 105 106
POINT_DATA 107
SCALARS MaximumInscribedSphereRadius float
LOOKUP_TABLE default
1.2400000095367432
1.0805699825286865
0.938992977142334
1.09784996509552
1.2246400117874146
1.0689400434494019
0.9300000071525574
0.9300000071525574
0.9364359974861145
1.0858399868011475
1.2336699962615967
1.09483003616333
0.9439569711685181
1.0680500268936157
1.2211699485778809
1.104830026626587
0.9504259824752808
0.9514189958572388
0.9760479927062988
0.9796000123023987
0.9796000123023987
1.2262500524520874
1.523069977760315
1.3990000486373901
1.2400000095367432
1.2400000095367432
1.2400000095367432
1.2400000095367432
1.2400000095367432
1.2400000095367432
1.1695599555969238
1.0112700462341309
0.9999229907989502
1.1441400051116943
1.260740041732788
1.326300024986267
1.378190040588379
1.1676700115203857
0.9437519907951355
1.0904099941253662
1.2400000095367432
1.2400000095367432
1.3923499584197998
1.5630300045013428
1.3704400062561035
1.2618000507354736
1.3359299898147583
1.370959997177124
1.3018399477005005
1.2400000095367432
1.2400000095367432
1.2699799537658691
1.469689965248108
1.4907599687576294
1.3022899627685547
1.4753600358963013
1.8207199573516846
1.7637100219726562
1.4330600500106812
1.2400000095367432
1.2400000095367432
1.191390037536621
1.0377999544143677
0.9759989976882935
1.1280200481414795
1.315790057182312
1.6132800579071045
1.878119945526123
1.9840199947357178
2.054919958114624
1.892449975013733
1.7387399673461914
1.6364599466323853
1.5499999523162842
1.5499999523162842
1.560189962387085
1.7087199687957764
1.8536800146102905
1.7689000368118286
1.6768699884414673
2.0137500762939453
2.3924999237060547
2.401210069656372
2.2988100051879883
2.4441800117492676
2.768699884414673
2.9186599254608154
2.8757901191711426
2.7340199947357178
2.528170108795166
2.3445699214935303
2.1726601123809814
1.7517999410629272
1.3399100303649902
1.2631200551986694
1.2465699911117554
1.4988700151443481
1.9339699745178223
2.130009889602661
1.9699100255966187
1.8600000143051147
1.8600000143051147
1.8600000143051147
1.8600000143051147
1.829859972000122
1.687600016593933
1.5499999523162842
FIELD FieldData 2
Curvature 1 107 float
0.065692919769
0.053595831166
0.045085013274
0.042658277272
0.04670483244
0.054592410809
0.063350795183
0.072191275205
0.081400910325
0.09082216478
0.10078203951
0.11016062438
0.11709623164
0.12231337074
0.12498741271
0.12347710135
0.11590789507
0.10058032399
0.077527516159
0.053855145704
0.047626888208
0.073030938199
0.11499824385
0.15482265474
0.18032430644
0.18942534882
0.18552162326
0.18553249321
0.19863195174
0.20929654907
0.19634172065
0.16380910625
0.12485190023
0.094206317779
0.081081389415
0.090623750353
0.12174049595
0.17479486437
0.25683798061
0.37880099002
0.50997446112
0.51603242497
0.42582998212
0.35107574657
0.29794247155
0.24435758286
0.18459123912
0.12263548434
0.079313370908
0.10105710307
0.18355089207
0.29778083042
0.36942028527
0.32128624937
0.23621180045
0.17417802816
0.13955443415
0.12668509303
0.1298333899
0.143250554
0.15970998647
0.16670273484
0.15767807578
0.13329079769
0.1040892823
0.087127473103
0.093912543503
0.12053508072
0.15464480668
0.18476627234
0.20094752822
0.199695715
0.18488061204
0.16451304076
0.14653119536
0.13356687048
0.12361089115
0.11154277765
0.094297747498
0.071163801016
0.046956343966
0.031931397519
0.036466382522
0.057848641514
0.09075913005
0.13681189703
0.1987500621
0.27004516747
0.3155274654
0.30111625224
0.24666271538
0.18683699015
0.13606054823
0.096847481431
0.068111739235
0.049050228905
0.042001710302
0.046856805149
0.056710439105
0.065865793529
0.071041134552
0.071499310899
0.067976161088
0.062335153079
0.056723917782
0.052287642876
0.04923911648
Torsion 1 107 float
-0.17968933295
-0.27650787965
-0.38792047202
-0.42751265033
-0.35192469923
-0.26246913426
-0.19636690171
-0.14157036505
-0.1042131606
-0.085822590534
-0.080214390831
-0.092133545553
-0.11491556943
-0.13658384138
-0.15702086175
-0.16940071096
-0.16090705407
-0.10522759042
0.05244971014
0.37866998541
0.66244837722
0.26270566532
0.034391399753
-0.022752877517
-0.020682143069
-0.010620377982
-0.0052410219969
-0.024505577943
-0.060351454754
-0.098140860267
-0.13057223137
-0.17753790856
-0.26204587432
-0.38523007847
-0.4491002163
-0.31682565983
-0.16900305561
-0.086120901148
-0.039559059421
-0.016607015321
-0.012959980443
-0.026196965269
-0.033437281779
-0.020360071105
0.0077226802024
0.047490744642
0.1130952372
0.29491142487
0.76025691709
0.55144427052
0.22235368777
0.11275168402
0.07521203804
0.074900793655
0.087946412118
0.10285228731
0.10502099928
0.082452335978
0.040991980931
-0.0023863263104
-0.063268637486
-0.12678034888
-0.18824339642
-0.26862610499
-0.40801361393
-0.54332574401
-0.45514216707
-0.27273112496
-0.1588219448
-0.097409270301
-0.061378710935
-0.034344391365
-0.0036162428379
0.029145475921
0.062927888905
0.10178203808
0.14886504395
0.18821695405
0.223497593
0.27826410404
0.48815811677
0.89241929383
0.71805739836
0.36973437134
0.21526459361
0.13636881285
0.092128040448
0.054225302848
0.013126384395
-0.017205280516
-0.041911919356
-0.063636451214
-0.094414939826
-0.1440878062
-0.23917823428
-0.40345159349
-0.51206983292
-0.39566029279
-0.25621732063
-0.17620343737
-0.13241307234
-0.11296831137
-0.10633096842
-0.10839676411
-0.11103259243
-0.1081928083
-0.099055718021
