# vtk DataFile Version 2.0
Vessel Segment
ASCII
DATASET POLYDATA
POINTS 115 float
0.0 0.0 0.0
-0.09655580123390871 0.5080515012345687 -0.2157274330602947
-0.28677771248661776 1.0215126278535103 -0.3333814649251422
-0.5666212833084809 1.506578541449758 -0.34721729475854135
-0.9202984198664967 1.9339623558943815 -0.26805523737829084
-1.3290427550289108 2.2860327783826877 -0.11542272100115156
-1.7768661537407975 2.553028222904402 0.09104429315273134
-2.2506967733886594 2.727249230513552 0.3351116086849751
-2.737604023870756 2.79966202475197 0.6035573520656391
-3.221002572601285 2.7614477670701505 0.8848344629738706
-3.6802950900409077 2.6111572226581967 1.1690132356490541
-4.096576616668744 2.3602842493843226 1.4486165973972507
-4.460139300951685 2.02991404327857 1.7195734965424936
-4.771373648892102 1.6424746302755986 1.9803208450262382
-5.038648406290173 1.2146460433269097 2.226564140871433
-5.274068727194938 0.7536233821274543 2.443518422489592
-5.489294461126843 0.2578467507658452 2.592748109995916
-5.687895492657992 -0.26437362765564526 2.5958721580149007
-5.84766884222839 -0.7619931919766828 2.398498507066142
-5.948642841141736 -1.2060549112747014 2.0714204687297144
-5.992714688859152 -1.6204403024904699 1.695417454946106
-5.982784451074011 -2.029133031273824 1.3107115839597465
-5.919689534390855 -2.442737410484846 0.936494044486716
-5.804545594241534 -2.8623664354327523 0.5819124662338305
-5.64064373434632 -3.283444695190555 0.24880978216051877
-5.433172789911132 -3.698274858910389 -0.0675022078598023
-5.188603243225972 -4.098323253188895 -0.3763371251861838
-4.913964734358084 -4.476669302986742 -0.6872937563238241
-4.616119315648894 -4.830078299183455 -1.0060594434598737
-4.300588869657846 -5.1608932777932734 -1.3321330194904697
-3.9712236578824505 -5.47698181751251 -1.6590993326763546
-3.629863953159506 -5.79022509006459 -1.9764147209534544
-3.2780164489477586 -6.114960092386779 -2.2695751316832196
-2.9188051932661936 -6.468203096931258 -2.516821825785193
-2.563633067789011 -6.86970072601966 -2.6801661239767465
-2.250005141504347 -7.330945773471149 -2.688645530878412
-2.067163740494037 -7.8026791524359655 -2.4622063160037033
-2.0821258662498123 -8.168026779004958 -2.043302972509798
-2.255310490081547 -8.384256443218169 -1.55795827806172
-2.530043699315134 -8.469386751735506 -1.077466711343407
-2.868731044842002 -8.440545702159694 -0.6319525650883331
-3.242424540156535 -8.30492733013663 -0.23692648233898514
-3.621216958532026 -8.064374568625745 0.09896613835073617
-3.971279520457722 -7.723963995657886 0.37416220892228563
-4.261426544269992 -7.2988678866767565 0.5963058577708905
-4.47129638729469 -6.812574060473592 0.7806246908909963
-4.596035921802051 -6.291247483256443 0.9460332442449582
-4.643956966967927 -5.75770136671708 1.1133932635617327
-4.627611045419002 -5.230405474313792 1.3046869382228623
-4.556873596414198 -4.729383081121939 1.5467453291434428
-4.436708940809298 -4.296366190991857 1.8801278581176377
-4.2736439554941015 -4.045827329120558 2.3471751650539776
-4.102601262405628 -4.122198385835347 2.867665399715635
-3.9554916926369836 -4.44687805760679 3.29761463642653
-3.8242811438150937 -4.887204964729524 3.6184445787249877
-3.697589079295867 -5.384933062053946 3.8436558809927797
-3.570227727922437 -5.914684779671068 3.976707766700519
-3.4440378945561263 -6.459946076281625 4.012299143467216
-3.3287827612807885 -7.0045370219889245 3.9449650553577547
-3.240081504142296 -7.533841839003876 3.781900602067084
-3.1942247141388287 -8.041279383934986 3.5469255856909117
-3.2040432267734276 -8.531031369559711 3.2729010331264816
-3.27567341293352 -9.016153677755756 2.999991603969373
-3.4049314317435444 -9.51349339717591 2.775115477153209
-3.573184720240134 -10.032478002427874 2.646806058073745
-3.743724650151165 -10.565855999216897 2.6518262415047977
-3.869914483517476 -11.091534537059948 2.797429649839221
-3.913149456654874 -11.583685953298708 3.061023329539173
-3.856749004587333 -12.022114596911269 3.4052272373802195
-3.704004763059651 -12.396443861534841 3.7935593875384797
-3.468807360431446 -12.704889336907904 4.198683295798783
-3.168897686559848 -12.951355019005131 4.603751341483815
-2.8219256551079743 -13.142704024217005 5.001288047973216
-2.4432114443378627 -13.286411297139361 5.3898989789833065
-2.0449048983587703 -13.389840057217489 5.7718159774023094
-1.6359426991527979 -13.459294795089157 6.150217889775428
-1.222060337126735 -13.499572243884332 6.52756000929197
-0.805517054431913 -13.513296348567188 6.903841803927409
-0.3851913433666939 -13.50102254274328 7.2759397576872855
0.04266012063662981 -13.462307117957598 7.637482876868035
0.4823215980829764 -13.398207738968612 7.980745101297365
0.9366605681634772 -13.31357966160419 8.299594316284058
1.4059058014244818 -13.21857391382793 8.592982965535645
1.8874799050478748 -13.127864796126827 8.8671360020232
2.376596354124289 -13.057071484546752 9.133662998949426
2.8662790768059843 -13.02036392032368 9.405807908862105
3.3471697949252244 -13.028843327225346 9.695218876742109
3.8077513412892334 -13.090264494748466 10.009951285943567
4.2349722897257145 -13.209258164370773 10.353720795758813
4.6153546633983344 -13.387385296052708 10.72569053160783
4.937635037561874 -13.622582698680912 11.120120081856959
5.195236259008788 -13.90999618047657 11.527291220494826
5.386802596239694 -14.243712820853341 11.935712084745193
5.514783224161847 -14.617484523773253 12.334214083234668
5.583183489422202 -15.025620754901999 12.713293828105947
5.596008738667716 -15.462041537951949 13.065894346531739
5.557309540630088 -15.920162537384453 13.387933281314893
5.47239629811952 -16.393011571781116 13.67829138585801
5.348767364811007 -16.874898106807635 13.93838068650567
5.1958946393602 -17.362418781568664 14.171156712508125
5.023875947278058 -17.854626060382696 14.379559564404358
4.841369455707112 -18.3523557537807 14.56462110376331
4.6543051100185515 -18.857226812396483 14.723948217762196
4.465862820806629 -19.370710816070062 14.850712637617011
4.277409359079654 -19.892942367006604 14.933723493427328
4.089865260274417 -20.421310288830576 14.95951923461406
3.904463358224705 -20.949237694346696 14.916725176802911
3.722163159163869 -21.467513908941765 14.802306386083066
3.543054043212343 -21.968953941386836 14.624736949110924
3.3673255441076564 -22.45210669478617 14.399179697894844
3.196459483161946 -22.920911145727057 14.141673376322824
3.033336606927971 -23.382452264827485 13.866538422068745
2.882229637628733 -23.84529311984589 13.586763615416919
2.749107129821557 -24.31872738122159 13.315829377191346
2.6423346787238757 -24.812062448120535 13.070198294022354
LINES 1 116
115 0 1 2 3 4 5 6 7 8 9 10 11 12 13 14 15 16 17 18 19 20 21 22 23 24 25 26 27 28 29 30 31 32 33 34 35 36 37 38 39 40 41 42 43 44 45 46 47 48 49 50 51 52 53 54 55 56 57 58 59 60 61 62 63 64 65 66 67 68 69 70 71 72 73 74 75 76 77 78 79 80 81 82 83 84 85 86 87 88 89 90 91 92 93 94 95 96 97 98 99 100 101 102 103 104 105 106 107 108 109 110 111 112 113 114
POINT_DATA 115
SCALARS MaximumInscribedSphereRadius float
LOOKUP_TABLE default
0.9300000071525574
0.804643988609314
0.669668972492218
0.8011789917945862
1.0844199657440186
1.303380012512207
1.444219946861267
1.4782500267028809
1.1908600330352783
0.9143819808959961
0.7672809958457947
0.6272270083427429
0.7631229758262634
0.9066439867019653
1.053130030632019
1.2088700532913208
1.1829700469970703
1.098389983177185
0.9781330227851868
1.1315799951553345
1.4567300081253052
1.4032800197601318
1.1994999647140503
1.149209976196289
1.2057600021362305
1.184880018234253
1.0447499752044678
0.9444929957389832
1.026550054550171
1.106969952583313
1.1906800270080566
1.2746299505233765
1.3685200214385986
1.4746999740600586
1.5499999523162842
1.5499999523162842
1.7760299444198608
2.1514599323272705
2.0107998847961426
1.8614399433135986
1.8600000143051147
1.8600000143051147
1.8697700500488281
1.8809900283813477
1.8775700330734253
1.8668099641799927
1.8148000240325928
1.6865999698638916
1.5574400424957275
1.5499999523162842
1.5499999523162842
1.5499999523162842
1.5713800191879272
1.6357500553131104
1.5174700021743774
1.192389965057373
0.9756280183792114
1.2436699867248535
1.5175299644470215
1.4269200563430786
1.2863399982452393
1.4310499429702759
1.7197200059890747
1.8600000143051147
1.8600000143051147
1.6273800134658813
1.1584899425506592
1.0864700078964233
1.3886499404907227
1.6164599657058716
1.759719967842102
1.785159945487976
1.5257999897003174
1.2985700368881226
1.68464994430542
2.0810599327087402
2.0616400241851807
1.9202899932861328
1.8600000143051147
1.8600000143051147
1.8600000143051147
1.8600000143051147
1.9077800512313843
2.0513200759887695
2.1700000762939453
2.1700000762939453
2.1700000762939453
2.075890064239502
1.9783899784088135
1.8825099468231201
1.7867799997329712
1.7719500064849854
1.798050045967102
1.8225599527359009
1.8456799983978271
1.8050899505615234
1.6608999967575073
1.6155099868774414
1.9011800289154053
2.1700000762939453
2.1700000762939453
2.1700000762939453
2.0454399585723877
1.9000300168991089
1.967960000038147
2.118119955062866
2.1700000762939453
2.1700000762939453
2.33804988861084
2.6225900650024414
2.566689968109131
2.0133700370788574
1.526919960975647
1.3855299949645996
1.2400000095367432
FIELD FieldData 2
Curvature 1 115 float
0.23562673426
0.25449869257
0.2539979105
0.23551169456
0.21057379912
0.19085632994
0.18258432555
0.18708971833
0.19905498843
0.20500132541
0.1958016099
0.17111330443
0.13837745444
0.10940992083
0.11149461222
0.17255372129
0.29754862761
0.39457984072
0.29383883368
0.17598536296
0.11872533912
0.104185241
0.10139193886
0.095524059826
0.08383736978
0.072107613459
0.066607935568
0.064489499847
0.05692276313
0.040416276474
0.02778255868
0.052492683516
0.10456160945
0.18932551242
0.32919178438
0.51075211393
0.55764177954
0.41928464862
0.30443825824
0.24374037401
0.21892358061
0.21435432511
0.21511809332
0.20911173252
0.19469773731
0.1711304612
0.13912631271
0.12199812821
0.15084694723
0.2490174086
0.44959000201
0.647545864
0.50611997347
0.30776232042
0.20747288569
0.17282587699
0.17464501623
0.1864730818
0.18152206111
0.15488882658
0.12626929393
0.11254754417
0.13888420871
0.19392493372
0.24317640351
0.26589081437
0.26627845466
0.24936524931
0.22198781174
0.19169490589
0.16019468532
0.1298472149
0.10245434626
0.079884173718
0.063213664446
0.05333089166
0.049170568294
0.049442128137
0.054104940542
0.060394744621
0.063221756082
0.057475908063
0.043934589873
0.041972327033
0.061740977324
0.087608706854
0.11065525515
0.12922139025
0.1434361083
0.15050164921
0.14960341708
0.14307032188
0.13434116704
0.12650528827
0.12010251257
0.11304986332
0.10302279451
0.088922660062
0.071748499095
0.055128588918
0.04572135933
0.048070004188
0.060836007223
0.080699716395
0.10325629006
0.12272857289
0.13037562595
0.11919269511
0.094944563818
0.065438669234
0.03727698373
0.023128461799
0.043389519558
0.078474257327
0.12224769729
Torsion 1 115 float
0.027151118573
0.040075560343
0.055907774376
0.070864549787
0.081000366791
0.083302136225
0.072154157507
0.047440618822
0.0052556093792
-0.03021877187
-0.047546622339
-0.051931269555
-0.023147022903
0.13645394704
0.3352267056
0.24072065369
0.10997793736
-0.049685077761
-0.19294336883
-0.31959148544
-0.35447756362
-0.19253101443
-0.046135603479
0.075919154154
0.21444655946
0.33782301057
0.31794803913
0.15863861165
-0.032130856141
-0.37499559066
-1.1110186701
-0.36889659553
-0.12804988491
-0.063647396159
-0.039888540922
-0.034203626976
-0.038186905339
-0.034546080537
-0.010553891889
0.036668637906
0.097376894732
0.16425152617
0.20553076999
0.21804938056
0.22090606959
0.23875335099
0.32199331558
0.42240106685
0.32935563553
0.17330237245
0.063242191567
-0.025784748475
-0.074312921386
-0.096510041176
-0.098151664839
-0.060405914613
0.017329223766
0.0881421556
0.16906753671
0.2867665433
0.48492220477
0.72918620296
0.55573850318
0.34747788711
0.27244279136
0.24900308707
0.21362616348
0.14620643146
0.10396516703
0.061716849485
0.021136793347
-0.025077640618
-0.076662135029
-0.12043529593
-0.15364322245
-0.10604190659
0.027039294649
0.18112001141
0.24394006606
0.23112736597
0.2344487356
0.33780272772
0.67867616498
0.80849145479
0.38420595876
0.18626170357
0.10410638303
0.064284081519
0.034385185165
0.0027620515397
-0.029728758454
-0.057645400588
-0.072939651724
-0.067064863441
-0.037495111143
-0.010068622924
-0.0046369287984
-0.025595218682
-0.087131487343
-0.19615773988
-0.27348580089
-0.17927979099
-0.048145779034
0.008445391549
0.020266690475
0.026329999445
0.037020711078
0.034011239953
-0.0049377703206
-0.1004738744
-0.42646061931
-1.2181835335
-0.37529715764
-0.13120900318
-0.065826767391
