# vtk DataFile Version 2.0
Vessel Segment
ASCII
DATASET POLYDATA
POINTS 113 float
0.0 0.0 0.0
-0.3648322561434762 0.3532552400241799 0.2620842392437086
-0.7593798926054243 0.7073625961358951 0.4756845908706861
-1.1823414267356074 1.0479401700943791 0.6542159206152339
-1.6342564778502733 1.3626008392327393 0.8073973388141884
-2.115773348010931 1.6387818539042096 0.943469219998536
-2.6261757068042995 1.862216232286953 1.070391152354897
-3.1613317127054184 2.0169305921497434 1.1971417942000233
-3.7113964977869247 2.0866718490341474 1.3341807078908359
-4.259153739493979 2.0582528018094033 1.4926471972433963
-4.782185521139437 1.9287181470981314 1.6812391342300903
-5.261395118954933 1.7096028914796888 1.9013192541206787
-5.689960725712968 1.4223378629673022 2.1467503696740198
-6.072487129049427 1.087443231160039 2.4078112023189586
-6.4206258781383365 0.7194114742489569 2.672681622663132
-6.750916806426874 0.3258010570715817 2.9232839770683094
-7.080923696019566 -0.09236244553899706 3.130064147643526
-7.42127523155025 -0.535989691996939 3.243344633779205
-7.760263489752593 -0.9901350431384267 3.192871391174399
-8.052642298907351 -1.414380443015001 2.951192405110828
-8.266755437950872 -1.7895738778831543 2.57855640262244
-8.405100712819142 -2.1319727686699577 2.1426578273960994
-8.47887813788916 -2.4634003938004554 1.6830008246146257
-8.496668500480068 -2.7998865095981786 1.2212980927527715
-8.463759039979788 -3.1514353492129685 0.7718729877246788
-8.383047601556237 -3.5231617774043564 0.34535311004702435
-8.255443759506417 -3.9149530459877315 -0.050700907208346344
-8.08020923004456 -4.320443219001253 -0.41327630245458785
-7.856207858387285 -4.72655784349877 -0.7472624440820105
-7.583891721390195 -5.1151076017746 -1.0659581972888263
-7.26906084585776 -5.46847558998339 -1.3863592667878724
-6.922968367907811 -5.776030955256985 -1.7214815631986753
-6.558687656369339 -6.039707762608313 -2.0743378481080805
-6.1844027116810265 -6.270756979920888 -2.4395281339435524
-5.802217805249877 -6.48271055758226 -2.8081290523634843
-5.409062717279582 -6.6883534892569365 -3.1688289249234205
-4.996809821423764 -6.900874060192839 -3.5028150665508435
-4.547725129183822 -7.142952001371184 -3.7569993440517155
-4.1143281543035215 -7.429476577863486 -3.6430369482225764
-4.059705995328489 -7.547985761060467 -3.0970983130509415
-4.189582689003651 -7.553897451932388 -2.5415543998442405
-4.400739440552633 -7.5033678352352755 -2.0131795467771325
-4.6690194093641075 -7.406627724605353 -1.5181120252079192
-4.983907201047428 -7.2615750168699345 -1.064026300510216
-5.334774130968757 -7.060933117653019 -0.6604127343001593
-5.70462503647384 -6.796290361912385 -0.31483087553243533
-6.0669169350828165 -6.464464865784273 -0.023304182465212927
-6.389535024173478 -6.071934229297972 0.23792794069096043
-6.64053579163485 -5.6382526736632474 0.5118344775613506
-6.789112422197919 -5.203322215060531 0.849230167656074
-6.811052785276211 -4.833527683647754 1.281150032906264
-6.705331848095218 -4.604466737206095 1.7904270780878493
-6.498608593670887 -4.565703044043359 2.318404060157342
-6.2312381991564125 -4.72871740488092 2.7924982511547274
-5.947441261437951 -5.0742407213220195 3.1430236841707475
-5.691495293552543 -5.5480497895064005 3.326272007677211
-5.490228942851632 -6.080745933572128 3.3536687324203442
-5.346142183505519 -6.627364310202904 3.272730713510414
-5.2506526020193265 -7.172792326192313 3.131315218845836
-5.193700133209489 -7.7178777611592535 2.968641270796425
-5.166587447162201 -8.268874886998114 2.8186439046955507
-5.161074169346476 -8.830557071563115 2.7136048772080175
-5.167667769911856 -9.400879669891038 2.6820028620023533
-5.1746586994162715 -9.969155455021422 2.7390697051725406
-5.169316170053201 -10.522254684032967 2.881735186922269
-5.138622645027377 -11.050743369401845 3.096700442053326
-5.067915439753668 -11.547288542659748 3.370265482018407
-4.9384929911684265 -12.001091312778767 3.6918607065688778
-4.728813891308135 -12.392598542666297 4.050287185444893
-4.425123403708921 -12.69526562366674 4.426447652819512
-4.035037451417776 -12.892383057997426 4.793115590343674
-3.5849130908216678 -12.992874213999958 5.1297729966526315
-3.100815208733021 -13.023056035726396 5.431872000261386
-2.599188778347538 -13.009073092600406 5.7056083307377
-2.088917055671915 -12.969854070230591 5.9604739758734535
-1.5752122049807677 -12.91693722754779 6.20584817527591
-1.061808467830731 -12.856062964912686 6.450028219626941
-0.5517812135746236 -12.788140856622283 6.699323670796082
-0.0475798694201746 -12.710441095668417 6.957486658273106
0.44945979677720355 -12.619498843608646 7.224999072135502
0.9396674243913863 -12.514688564841812 7.499951782065017
1.4251745232730164 -12.400953833616212 7.779719056300821
1.9091150559195291 -12.289208457378688 8.062930570753037
2.3940622252274975 -12.194400243527376 8.350507011919552
2.8798938139264947 -12.134947258488658 8.645751413756724
3.361166351182282 -12.131480251811894 8.953778641024083
3.824142514162865 -12.205086386370677 9.280000335553634
4.245267960368428 -12.37241986997254 9.627081799382532
4.595742846421876 -12.637630703104863 9.9909589483083
4.853541570533235 -12.988441258933888 10.359923588035317
5.013560244629216 -13.40188776778255 10.71959476892533
5.085251286225366 -13.855803286086179 11.05881529922914
5.084051981617431 -14.33427405805733 11.371117064942608
5.026280733322721 -14.827920302030158 11.653305443825344
4.9266308522361255 -15.331854817848672 11.903970948055074
4.797537975267437 -15.844030250256754 12.122573551771618
4.649620487937474 -16.363708857527214 12.309250361917016
4.49222754560232 -16.890719891207404 12.465176104130471
4.333214932230554 -17.424664938241122 12.593661706096414
4.178243501086267 -17.964350927694106 12.701250306114305
4.031081778931269 -18.508641162724395 12.79623861469394
3.89386114010156 -19.056340946221983 12.886335191846646
3.7672353072444458 -19.60651956360526 12.976604545936848
3.6500959060787643 -20.158596470135198 13.068246578683885
3.5391859776274446 -20.712202252889618 13.158423850572833
3.429003627304938 -21.26713797636972 13.240923336979364
3.311972231311293 -21.822864021259253 13.306750795402555
3.1785087360132174 -22.377447406662448 13.344133797605073
3.017637403771121 -22.925806875451723 13.338836394618774
2.818916966705154 -23.457734380451214 13.276018005008353
2.5759781687446726 -23.957598917180196 13.144511408940884
2.289810487009215 -24.408393838118247 12.941970864851367
1.9684288462437054 -24.798778024264298 12.676335117080091
LINES 1 114
113 0 1 2 3 4 5 6 7 8 9 10 11 12 13 14 15 16 17 18 19 20 21 22 23 24 25 26 27 28 29 30 31 32 33 34 35 36 37 38 39 40 41 42 43 44 45 46 47 48 49 50 51 52 53 54 55 56 57 58 59 60 61 62 63 64 65 66 67 68 69 70 71 72 73 74 75 76 77 78 79 80 81 82 83 84 85 86 87 88 89 90 91 92 93 94 95 96 97 98 99 100 101 102 103 104 105 106 107 108 109 110 111 112
POINT_DATA 113
SCALARS MaximumInscribedSphereRadius float
LOOKUP_TABLE default
1.3143999576568604
1.280959963798523
1.2489999532699585
1.251039981842041
1.266409993171692
1.2403700351715088
1.1156100034713745
0.9883419871330261
1.3180999755859375
1.6862499713897705
1.566789984703064
1.2058299779891968
0.9796000123023987
0.9796000123023987
0.9796000123023987
1.1441600322723389
1.330299973487854
1.2416900396347046
1.017799973487854
0.9321600198745728
0.8796849846839905
1.1459300518035889
1.4345300197601318
1.4744999408721924
1.346709966659546
1.2400000095367432
1.2400000095367432
1.2400000095367432
1.3724199533462524
1.5271300077438354
1.4820599555969238
1.3348400592803955
1.2963900566101074
1.4638400077819824
1.6279100179672241
1.5024700164794922
1.2639199495315552
1.3086400032043457
1.7475299835205078
1.396209955215454
1.2890299558639526
1.2564400434494019
1.2998499870300293
1.4269800186157227
1.5560499429702759
1.6883800029754639
1.8238699436187744
1.6550300121307373
1.3685799837112427
1.3259899616241455
1.4837100505828857
1.5499999523162842
1.5499999523162842
1.4381599426269531
1.2771300077438354
1.3571300506591797
1.5005500316619873
1.4659600257873535
1.3386199474334717
1.229349970817566
1.1787400245666504
1.1268500089645386
1.3040800094604492
1.5421899557113647
1.6441199779510498
1.5939500331878662
1.5675100088119507
1.7046400308609009
1.847790002822876
1.7244199514389038
1.5770599842071533
1.5499999523162842
1.5499999523162842
1.4859800338745117
1.372130036354065
1.2960200309753418
1.4109200239181519
1.527459979057312
1.5911799669265747
1.6423100233078003
1.7092100381851196
1.7913399934768677
1.8473399877548218
1.7662899494171143
1.6846200227737427
1.627079963684082
1.5746400356292725
1.7252899408340454
2.052949905395508
2.135080099105835
1.8171600103378296
1.5499999523162842
1.5499999523162842
1.5499999523162842
1.4753600358963013
1.3773599863052368
1.3550200462341309
1.4682899713516235
1.5807700157165527
1.5673500299453735
1.5539100170135498
1.7393499612808228
2.0048699378967285
2.1700000762939453
2.1700000762939453
2.1666300296783447
1.9019299745559692
1.6335899829864502
1.4555599689483643
1.3182200193405151
1.3552500009536743
1.6163500547409058
1.8600000143051147
FIELD FieldData 2
Curvature 1 113 float
0.14955601915
0.10777566091
0.085966558941
0.081219178819
0.089473587848
0.10657075112
0.1287897619
0.15326424839
0.1767327651
0.19109269918
0.18537622379
0.15747775753
0.12050861504
0.083245414103
0.064784063596
0.10850180317
0.19483064433
0.30588375074
0.36474238411
0.29796398147
0.20147545513
0.13425090143
0.10165786825
0.094484938919
0.099641287728
0.10643764092
0.10830046007
0.10218061565
0.094661990171
0.098262110264
0.10863828748
0.10447812718
0.078910852479
0.041973526748
0.033214717175
0.10564550452
0.25573303101
0.74325149288
1.4553448504
0.44774127434
0.21703123403
0.14789172258
0.13648641809
0.14590195219
0.15803967624
0.15525707954
0.1408934459
0.1501054317
0.21704229859
0.30797313435
0.36595876689
0.38225189281
0.38175925656
0.39096724889
0.38152165255
0.31870960332
0.22607107908
0.14199569455
0.077615513696
0.058286360046
0.093224667121
0.13478904124
0.15735841221
0.15433769972
0.14008695769
0.13468462197
0.153051102
0.1936068056
0.23332855593
0.24292734424
0.21084938095
0.1550775076
0.10094486939
0.058260943997
0.028709743517
0.016915405282
0.021896252811
0.028001101141
0.031743196861
0.031169085715
0.022897813781
0.012502295158
0.030297787632
0.062920086576
0.10178063095
0.14438126051
0.18557666593
0.21529095223
0.2227059869
0.20589023634
0.17567973624
0.14409138165
0.11549687595
0.092866419877
0.076935810938
0.066360733687
0.05897858807
0.051387305117
0.039301392081
0.027020842198
0.020703497681
0.020688618211
0.019049565794
0.012554462917
0.013335184702
0.031849761949
0.058370940121
0.090089900752
0.12393394338
0.15442678218
0.17458110549
0.17953258829
0.17095405704
Torsion 1 113 float
0.17115812388
0.23724168436
0.29873779829
0.29683753826
0.24231298368
0.18968969901
0.16062051904
0.14623284193
0.13318226633
0.11383443447
0.077382519777
0.030602189277
-0.028976227937
-0.23551931649
-0.69230321994
-0.28851172381
-0.063792466497
0.013993777671
0.092048572109
0.15323220288
0.22180861032
0.30152968979
0.33107190788
0.24974949332
0.12651680014
0.013374437002
-0.11249025053
-0.29603655198
-0.46197610876
-0.4174060345
-0.24200527125
-0.091862823833
0.022147839031
0.33091168879
0.69394272088
0.089370321641
0.02862374071
0.0099881939665
0.0037767723578
-0.0029036863027
-0.016582572221
-0.05167837493
-0.10258620641
-0.14232394362
-0.19957220366
-0.33268119782
-0.57691425639
-0.69133255711
-0.42479195664
-0.22093607328
-0.13716423508
-0.077514050822
-0.03654689202
-0.017105544308
-0.020728247875
-0.044103943597
-0.084715237764
-0.1939788591
-0.58414065172
-0.97749315124
-0.37781622827
-0.18011218564
-0.13689567001
-0.1553638639
-0.20570267474
-0.23799293734
-0.19412060108
-0.12030839815
-0.078050228239
-0.063540488425
-0.057552141432
-0.055946033618
-0.050693866921
-0.013785904546
0.17630858502
0.62518937639
0.19717222615
-0.059978250632
-0.1376504068
-0.088001621521
0.11692588188
0.9917550622
0.11425231184
-0.046017340317
-0.075884411671
-0.086517490289
-0.084541029656
-0.067362548939
-0.038422126856
-0.0034855322843
0.022968933796
0.055325141879
0.09456023908
0.13675677342
0.17661603384
0.2032668284
0.22395093151
0.2056256687
0.26374775071
0.44944640975
0.55196836458
0.26243166299
-0.043024763847
-0.70804099146
-0.97675125186
-0.2280414712
-0.088006098139
-0.046066715377
-0.028311277768
-0.018851941545
-0.012877255763
-0.0087587078819
-0.0059247749601
