# vtk DataFile Version 2.0
Vessel Segment
ASCII
DATASET POLYDATA
POINTS 83 float
0.0 0.0 0.0
-0.7655102562457089 -0.1318093909394024 0.07533017805599448
-1.5160319910115572 -0.3071917445291363 0.1974812492845516
-2.2451518678035565 -0.5378979672956404 0.3530090802218262
-2.945993823183989 -0.8348920352304756 0.5249165607755251
-3.6118365272472754 -1.2039712980044481 0.6958971137890773
-4.238738695881933 -1.6408091113284156 0.854438564471344
-4.8287111281794255 -2.1315000884474893 0.9969098326014644
-5.389091140868514 -2.6596601587871844 1.124005008595033
-5.930928181796606 -3.2105380589502532 1.2351847355685943
-6.463880570674548 -3.7742396847959245 1.3219504584760016
-6.9935098727432194 -4.345901982456973 1.3639805067630046
-7.51719003891432 -4.923122898053529 1.3291345153253105
-8.01421624893497 -5.5038245812968665 1.17631083706875
-8.441859943144507 -6.080815607074244 0.8748353913126332
-8.752452878075328 -6.644673440104741 0.43622035284809846
-8.922583133488459 -7.191996889986674 -0.09186456120455777
-8.956114626729315 -7.72479307167979 -0.6601256684639235
-8.868423449934449 -8.246000448642041 -1.2337169774923047
-8.675886305414908 -8.757166356194817 -1.7906987470850837
-8.390945242807355 -9.259446138044757 -2.315229210856605
-8.020629585428958 -9.754462285800287 -2.7910068227828573
-7.563084004546736 -10.24461095873053 -3.1887515776250877
-7.003244822393791 -10.729660793363623 -3.420845981222781
-6.42864848223285 -11.098122595661728 -3.137604040163382
-6.231939426956306 -11.130803791302164 -2.392954074529036
-6.236498908370001 -11.044194275579581 -1.6178628653385512
-6.313451578034424 -10.937958653371032 -0.8484894285737727
-6.419222999646557 -10.851039670584173 -0.07996628940941518
-6.528934968543829 -10.81557621867061 0.6918018329717994
-6.620490062684108 -10.871127030361183 1.4643436230137088
-6.668700610340547 -11.065749393432883 2.217027943097785
-6.6515487667161155 -11.434211195730986 2.9023412832885573
-6.568646961154121 -11.958046095434225 3.4725328755679423
-6.443329010301119 -12.580236996428424 3.925442345096743
-6.300238808042444 -13.255273082779796 4.2898088665775695
-6.155219594416435 -13.958741824074872 4.595148229679099
-6.016996866983044 -14.678744948518514 4.863092182194359
-5.888974763449329 -15.408637756144863 5.108552615663485
-5.769218377837208 -16.144015499072367 5.34141995009553
-5.650390393417921 -16.88132520067258 5.568801612400078
-5.518967099482523 -17.61647158012822 5.796028541172485
-5.354940713499102 -18.34373833866627 6.027273383996102
-5.133276823620261 -19.05284674879464 6.26585775402751
-4.828556394647287 -19.726647914194274 6.514023077003694
-4.422622551823188 -20.3401840529575 6.772386076574178
-3.913543336475257 -20.866491741869588 7.040098665617574
-3.3175458751668105 -21.286718542105266 7.315923712703112
-2.6605885599800185 -21.597002009971806 7.599397017234376
-1.9675495955774507 -21.80522324003949 7.890828783101988
-1.2571274240785861 -21.925210989123475 8.19052774054388
-0.5416049406298838 -21.97149031493355 8.498493152733712
0.17190748055369892 -21.956887890457697 8.81457175979203
0.87908540566205 -21.892683790188837 9.13845335782821
1.5778495107537591 -21.788380126652992 9.470447413906536
2.2668396143986906 -21.653171755790936 9.811480855567149
2.9454610977376245 -21.496793627253243 10.164158363934392
3.6134903339753035 -21.329830251464553 10.531909128811
4.270957532991811 -21.164953567880712 10.919083372929109
4.91784022158367 -21.016997364449438 11.330077739080496
5.55343473059282 -20.90357768539158 11.768623884281912
6.174944251425849 -20.846171544968026 12.236969865707433
6.775276646319803 -20.86981335502617 12.734543537701317
7.340671038586415 -21.001003811837016 13.25525760942658
7.850436883983213 -21.260141215894542 13.784887648321597
8.282506003263572 -21.651625894122233 14.302070479795548
8.623209070412411 -22.15954608163181 14.785358746847873
8.872107328367987 -22.75685730431075 15.220466676123845
9.038800519146836 -23.416518772178257 15.601861991229734
9.137598339934026 -24.11736072755869 15.930410278912593
9.183303332635154 -24.844394648972187 16.210291278709324
9.189074801280643 -25.588117687066386 16.44682064006866
9.166014485362473 -26.3426565990571 16.64535269582236
9.123510404452531 -27.104272728077312 16.81092093698124
9.069730762111014 -27.870826330425444 16.948219868386445
9.011995306363554 -28.64098006628801 17.06174302549392
8.95676544011014 -29.413930426537398 17.1559607337298
8.908451299274967 -30.1890057939615 17.235310990264388
8.869160564100758 -30.965587971258092 17.30435834219249
8.83917546785936 -31.743066129388406 17.367794185869116
8.817607363441754 -32.52090735869949 17.430248024236413
8.802994211810498 -33.2986282090067 17.496032380997434
8.793710738110779 -34.075799122424456 17.568919699097442
LINES 1 84
83 0 1 2 3 4 5 6 7 8 9 10 11 12 13 14 15 16 17 18 19 20 21 22 23 24 25 26 27 28 29 30 31 32 33 34 35 36 37 38 39 40 41 42 43 44 45 46 47 48 49 50 51 52 53 54 55 56 57 58 59 60 61 62 63 64 65 66 67 68 69 70 71 72 73 74 75 76 77 78 79 80 81 82
POINT_DATA 83
SCALARS MaximumInscribedSphereRadius float
LOOKUP_TABLE default
0.9300000071525574
0.9300000071525574
0.9300000071525574
0.9300000071525574
0.9300000071525574
0.9502710103988647
0.9752569794654846
1.1015299558639526
1.2472200393676758
1.143530011177063
0.9734789729118347
1.208799958229065
1.5958399772644043
1.6148600578308105
1.5406099557876587
1.0453799962997437
0.6486600041389465
0.9386339783668518
1.2112200260162354
1.2400000095367432
1.2400000095367432
1.1672600507736206
1.0166200399398804
1.1378799676895142
1.5930800437927246
1.7419999837875366
1.5076600313186646
1.2649400234222412
1.3639899492263794
1.5038199424743652
1.5499999523162842
1.5499999523162842
1.5499999523162842
1.5499999523162842
1.648550033569336
1.78656005859375
1.8011599779129028
1.6717400550842285
1.557420015335083
1.6866899728775024
1.8185499906539917
1.8600000143051147
1.8600000143051147
1.8600000143051147
1.8600000143051147
1.8043099641799927
1.6521600484848022
1.5499999523162842
1.5499999523162842
1.5216699838638306
1.3814599514007568
1.2432600259780884
1.3042800426483154
1.369979977607727
1.4396400451660156
1.5109299421310425
1.5499999523162842
1.5499999523162842
1.5499999523162842
1.5499999523162842
1.5499999523162842
1.5499999523162842
1.5499999523162842
1.7016500234603882
1.901360034942627
1.8166999816894531
1.6193100214004517
1.4680500030517578
1.3435200452804565
1.3324300050735474
1.4520000219345093
1.5734699964523315
1.708299994468689
1.8439500331878662
1.8600000143051147
1.8600000143051147
1.7696599960327148
1.6277199983596802
1.6147500276565552
1.7567299604415894
1.8228000402450562
1.684790015220642
1.5499999523162842
FIELD FieldData 2
Curvature 1 83 float
0.095313303193
0.093063446731
0.093151310107
0.097547226991
0.10356540808
0.10188239517
0.086890319891
0.06581827502
0.042235667357
0.036170539579
0.062470329931
0.10553082852
0.1598634904
0.21305266579
0.23677409741
0.22529676454
0.19669698403
0.16646685656
0.14020131371
0.12421708597
0.12890801568
0.17565355959
0.31499976482
0.77508955107
1.1112774263
0.38086045944
0.15684583972
0.064031297858
0.065260627548
0.12506413405
0.1969618854
0.25928051849
0.26885334569
0.21289075929
0.14492800296
0.091790870326
0.055929285918
0.033840106908
0.021719035977
0.018150035084
0.028244840245
0.051338262561
0.083340234895
0.11960303635
0.1529261598
0.17401735326
0.17649148302
0.16257130241
0.14014611079
0.11637575408
0.095229497701
0.07793443468
0.064180034596
0.052834623574
0.042685795714
0.033442262435
0.02700503152
0.028152158656
0.039302174769
0.058339346654
0.083946573829
0.1151156913
0.14928337308
0.18005797681
0.19760722934
0.19522095873
0.17660167279
0.1506381732
0.12317374877
0.098277633287
0.07779550054
0.061802699827
0.04961434911
0.040358014738
0.033333694801
0.028180345537
0.023240915484
0.018025377202
0.014340291132
0.015220941314
0.020051658954
0.026053300868
0.031736168579
Torsion 1 83 float
-0.14572309965
-0.19935630754
-0.24486585052
-0.24172155733
-0.1723982667
-0.083433207759
-0.044426358199
-0.06753354778
-0.30890808661
-0.55475831966
-0.16393520455
0.023286549653
0.10571061271
0.14296871976
0.18860315754
0.18631335192
0.15821958182
0.12628338503
0.1109403797
0.11523270704
0.12481992791
0.11356555749
0.095626906314
0.092784541047
0.074037690795
0.063260929641
0.13798064509
0.54679121498
0.45196444295
0.11737546646
0.042706543616
0.009719397683
-0.018717474269
-0.048100741354
-0.08037988481
-0.12449886612
-0.18440323149
-0.21516048723
-0.061755897615
0.23697020892
0.12327679103
0.025388427193
0.010170252555
0.016676626967
0.030113956303
0.046657383976
0.060325584212
0.068896746655
0.070264061546
0.066655473904
0.060398264368
0.055527039686
0.058182933724
0.082381078394
0.15054787269
0.30166437938
0.55201462994
0.59483295581
0.36595096893
0.2079290143
0.1215400832
0.07490041403
0.0466719925
0.029001310235
0.019198997356
0.017260187754
0.021258639072
0.029445622222
0.040946908121
0.053997206888
0.069537161246
0.090332497678
0.11981328956
0.16077786674
0.21294456631
0.25552335497
0.22983460214
0.26370608591
0.32570429029
0.25625440295
0.13505551314
0.070982156207
0.040873162356
