# vtk DataFile Version 2.0
Vessel Segment
ASCII
DATASET POLYDATA
POINTS 78 float
0.0 0.0 0.0
-0.6229586995616834 0.5493927570333016 0.016751939568548677
-1.292456583894427 1.0382501320283166 0.06999087205252374
-2.010301157383271 1.4454246004801352 0.16278690553450031
-2.7737967828825543 1.742552855775292 0.296713846064021
-3.5706962440690515 1.896630840597449 0.4691207399335145
-4.375531167517414 1.8822024398095818 0.6695556169164707
-5.156707594497401 1.6981035114494158 0.8801909715009347
-5.892024578565413 1.3693789248520847 1.0812079194650281
-6.5771711565174025 0.9340942241264253 1.2571799980939882
-7.221268285724915 0.4282365803671047 1.396745751253277
-7.839989176383848 -0.11858747211900374 1.4893757046998748
-8.449671358831614 -0.6821618824590382 1.521634774428942
-9.062090698433884 -1.2415890370584688 1.4759422024096582
-9.678158262813312 -1.7800379106176143 1.3331402611324152
-10.282948201933202 -2.290703966829809 1.082118987087678
-10.851995344867627 -2.777487713954522 0.7232105403462042
-11.358930136284975 -3.2498430602913677 0.26545125654722707
-11.77837712849398 -3.7207036863098035 -0.2746552539364618
-12.08744732919019 -4.203175679373157 -0.8754648082084389
-12.267400583524376 -4.705632636693767 -1.5113520476670559
-12.307039933682756 -5.229982106106558 -2.153624669057335
-12.205618810363436 -5.772494404531306 -2.773672618284676
-11.9743341713802 -6.32736147587362 -3.346202696818188
-11.631015103959621 -6.890769806178276 -3.8503188727779643
-11.193490695328281 -7.462471066249516 -4.263794892286445
-10.676935915575939 -8.045285453259536 -4.549811602357443
-10.102414458332502 -8.63548012069887 -4.624198059346328
-9.561893538617678 -9.164141344173022 -4.313136479940195
-9.256803722769384 -9.465002445977646 -3.613147091969202
-9.171139640520963 -9.571978551051732 -2.7955651303768563
-9.19444225119924 -9.599593706648681 -1.965544564991944
-9.269740566668085 -9.613607698205413 -1.1380958675834705
-9.369419431330549 -9.656067245535988 -0.3141285240594625
-9.478883573506074 -9.76030698431288 0.5027891173913681
-9.590172223498833 -9.954440310239175 1.3026242409175148
-9.699636365674356 -10.259114925999024 2.06721401750702
-9.806943839961889 -10.681464364540602 2.7739209474804327
-9.913339455769462 -11.212863536026571 3.402842315740873
-10.019320662345898 -11.83423854382232 3.943363235455698
-10.122897662695896 -12.524607943458319 4.393245580433849
-10.217517413137795 -13.264984832604208 4.7578766706800915
-10.291489460895544 -14.0399411668306 5.04820513481245
-10.32930351237938 -14.837370502415688 5.278328795262658
-10.312387074490074 -15.646824823419516 5.464998800741951
-10.221000348736885 -16.456445224458726 5.627121386134936
-10.037481909643233 -17.251055944586238 5.784683888270804
-9.751050790341099 -18.01083651786556 5.958582339029462
-9.363117089416576 -18.71455875234602 6.167559265832071
-8.887362638355643 -19.343977569855284 6.4262929803768785
-8.346095149338925 -19.88779082855717 6.743905230892741
-7.763612922399662 -20.342041869323094 7.123463752890299
-7.161062691185452 -20.70809175758586 7.5625643401431155
-6.553868545839125 -20.99069196407192 8.053992001399946
-5.949825176021127 -21.196525628490658 8.585888622134739
-5.350591800370627 -21.332816836952393 9.145150487556103
-4.753016852501982 -21.406357076618157 9.717764396964617
-4.150557569878574 -21.42348150998034 10.289822333683265
-3.535874796651282 -21.390891071037828 10.848056875457214
-2.9029315235340833 -21.31718514676534 11.38142053650452
-2.248924556786976 -21.21424755455155 11.883687292641756
-1.5748491903362658 -21.097551813121243 12.355544003443809
-0.8850507896790449 -20.985177316040033 12.80525947752927
-0.18612194136254287 -20.895955166747946 13.245935452546252
0.5133788945043772 -20.848371654897278 13.691976998991938
1.2021986092388297 -20.86057062892451 14.15637869334876
1.8653856499415042 -20.95087862530505 14.648270983275996
2.483476721609128 -21.137788260549677 15.170299088765711
3.0320331964642824 -21.438549318904418 15.71577888153689
3.483447015000815 -21.864489249639426 16.26640853940511
3.8143818964082756 -22.41334461912968 16.793038940160933
4.014468326602719 -23.066389507957556 17.263958781620556
4.092424219209118 -23.79358794629613 17.656272546906703
4.069973262997976 -24.56577489593258 17.960528206005872
3.9705250815275104 -25.361695473481983 18.175783650145952
3.8138296061477677 -26.167318585098247 18.303626204093643
3.615399268234682 -26.972888560988906 18.344908288459106
3.3876234036417516 -27.77039640151929 18.298677921110972
LINES 1 79
78 0 1 2 3 4 5 6 7 8 9 10 11 12 13 14 15 16 17 18 19 20 21 22 23 24 25 26 27 28 29 30 31 32 33 34 35 36 37 38 39 40 41 42 43 44 45 46 47 48 49 50 51 52 53 54 55 56 57 58 59 60 61 62 63 64 65 66 67 68 69 70 71 72 73 74 75 76 77
POINT_DATA 78
SCALARS MaximumInscribedSphereRadius float
LOOKUP_TABLE default
1.1160000562667847
1.0533699989318848
0.9859300255775452
0.9345179796218872
0.9555010199546814
0.9779350161552429
0.9578459858894348
0.9341760277748108
1.1068999767303467
1.3167999982833862
1.3455699682235718
1.279579997062683
1.1930500268936157
1.074720025062561
1.008870005607605
1.1485999822616577
1.2658100128173828
1.126870036125183
0.9897040128707886
1.0890699625015259
1.2056699991226196
1.2400000095367432
1.2400000095367432
1.2526500225067139
1.2846299409866333
1.3251299858093262
1.4395400285720825
1.5187900066375732
1.3046499490737915
1.535040020942688
1.8461799621582031
1.7063299417495728
1.585710048675537
1.7119699716567993
1.83788001537323
1.9767999649047852
2.1198298931121826
1.9833600521087646
1.6987299919128418
1.6812299489974976
1.9557900428771973
2.142199993133545
2.008820056915283
1.875830054283142
1.8600000143051147
1.8600000143051147
1.6976699829101562
1.4185099601745605
1.2400000095367432
1.2400000095367432
1.2615100145339966
1.4001200199127197
1.5376800298690796
1.4256199598312378
1.2894599437713623
1.5240299701690674
1.97160005569458
2.1422500610351562
1.827739953994751
1.5677900314331055
1.7167099714279175
1.8644399642944336
1.8754700422286987
1.8647199869155884
1.9351400136947632
2.0703699588775635
2.0742299556732178
1.7181999683380127
1.3964799642562866
1.4739199876785278
1.549589991569519
1.5499999523162842
1.5499999523162842
1.669510006904602
1.8001999855041504
1.727120041847229
1.4812400341033936
1.2400000095367432
FIELD FieldData 2
Curvature 1 78 float
0.10925538103
0.12536280573
0.14554506864
0.16988385653
0.19561441209
0.21268729624
0.20945489144
0.18496374003
0.14770989671
0.10928336926
0.080896032283
0.075616073907
0.095606663803
0.12213564464
0.13692388724
0.14029992566
0.14219928686
0.14533136284
0.15315615273
0.16394157606
0.17254809282
0.1750329346
0.16803539065
0.15785259697
0.1597269396
0.19568487196
0.2990478026
0.52212791375
0.68994849713
0.41779130139
0.20335562608
0.093517068625
0.053087463321
0.075822931838
0.11105956981
0.14096334171
0.15918788473
0.16242482623
0.15321588147
0.13860471275
0.12070974383
0.10218677858
0.08854422076
0.085336022135
0.095326194654
0.1140314136
0.13369644458
0.14710083194
0.15172301697
0.14852682956
0.14052751062
0.13070548391
0.11889336823
0.10449859044
0.089885103826
0.077068718751
0.068238311705
0.064167573572
0.06243270864
0.058026169829
0.048408606921
0.035112512064
0.032913246827
0.050505462466
0.076571457746
0.10559625884
0.13577067168
0.16577603251
0.19333108221
0.21080705933
0.21497943088
0.20076624197
0.17514569397
0.14982019813
0.13030806676
0.11803650692
0.11260427858
0.11284740127
Torsion 1 78 float
0.023299302337
0.027159918352
0.031760294329
0.037015737873
0.043146127962
0.051803999041
0.065030512057
0.087284111302
0.13360580916
0.23687290279
0.43117253488
0.47962859761
0.22634174485
0.016294556871
-0.13605259589
-0.19417386712
-0.22352406624
-0.24101342666
-0.20980503945
-0.15657018601
-0.11642757042
-0.096249697806
-0.10011585904
-0.1261939972
-0.15500673359
-0.1494718125
-0.11152816509
-0.070478844713
-0.042536643386
-0.045756239659
-0.10273763624
-0.32443229208
-0.70876806981
-0.22834506956
-0.049462916626
0.0071146817993
0.029791140161
0.032068208272
0.015092595231
-0.016421740561
-0.091973262911
-0.19596043874
-0.31904663453
-0.38953894845
-0.3374623886
-0.2510271687
-0.19374992705
-0.16722868272
-0.15707373519
-0.14725492011
-0.13045401729
-0.095814878193
-0.038904795109
0.028843970553
0.10135886259
0.19322720667
0.27266763405
0.29488730071
0.26816482382
0.25956888398
0.34179411675
0.67301161515
0.82242500314
0.36428163862
0.15194693983
0.061496707117
0.0092610455448
-0.020194194837
-0.043689575433
-0.058467545105
-0.064865233034
-0.074541371414
-0.082106714927
-0.089413662918
-0.095671690077
-0.097864700879
-0.094131363695
-0.085226276821
