# vtk DataFile Version 2.0
Vessel Segment
ASCII
DATASET POLYDATA
POINTS 66 float
0.0 0.0 0.0
-0.7791743481983994 0.012339797624204377 -0.6015193689601945
-1.6472723863758234 -0.05337532202755311 -1.0578976123677581
-2.5884313289699437 -0.23945110170322595 -1.2581755539170043
-3.5028531093942106 -0.5608761178691501 -1.1166601545509582
-4.2947585945450415 -0.972890117623239 -0.7056249701094767
-4.970904225234842 -1.4325989482490824 -0.15708864986453092
-5.576830131069923 -1.9254081745608025 0.4433529014709034
-6.15337569979748 -2.4516148034948584 1.0444799971187935
-6.732662511790784 -3.0170935948950466 1.6057465203320942
-7.3368250556886485 -3.6300710805108376 2.084161184050396
-7.973307184584089 -4.297010430154485 2.428306296871361
-8.623793470728797 -5.018303917138291 2.580399999892549
-9.23696709300074 -5.77965411321284 2.4864785611179507
-9.731834820217982 -6.5478578844437925 2.1283292910477187
-10.036020358292204 -7.282372850020412 1.5519807929603906
-10.12857070844189 -7.9599876376632 0.845769280850611
-10.033083912354382 -8.58119165502846 0.08863135296295023
-9.786579362902291 -9.159597720037233 -0.6689978505491679
-9.424219692613326 -9.712931916485292 -1.3986150036264438
-8.972247986080648 -10.260195216433404 -2.081420874768727
-8.447998987771808 -10.821755944630933 -2.6977270796346438
-7.861955734966098 -11.424057992247581 -3.2100266856634314
-7.227431236695872 -12.108332086358775 -3.510394096831224
-6.693879756980955 -12.838146310076281 -3.226773020162522
-6.605248404018004 -13.213278212617062 -2.3378144476271956
-6.7471560766963545 -13.306483285604667 -1.3691365981908445
-6.959284408213502 -13.273018636128793 -0.40790073387935405
-7.185222628291918 -13.173095415675938 0.5457922750269688
-7.3928454206220255 -13.040079271409821 1.4996832885575977
-7.556201103642658 -12.903175885415582 2.461604697181544
-7.6504139454492535 -12.797895332297541 3.436256308773845
-7.654037803667685 -12.772235987752447 4.420311272052529
-7.560510506173545 -12.883686439682592 5.393298524019767
-7.3949020535593935 -13.177403884222748 6.31712272214634
-7.2099993578843256 -13.658139498372185 7.155154878903785
-7.0576123838629865 -14.289773315924357 7.894272518011443
-6.963300539744237 -15.023103055707372 8.544464599171922
-6.9279455064966875 -15.818161671101869 9.124830162774064
-6.937249855870917 -16.648721955243992 9.654561647614397
-6.966629258994364 -17.499231672276984 10.151093734456701
-6.982789051493151 -18.36039627965943 10.629508398175004
-6.942635208058411 -19.223392896808743 11.10273197839381
-6.790151099693072 -20.070641141445147 11.580068824487352
-6.461676371714591 -20.861655022046556 12.062890025080542
-5.920387767906508 -21.529338873747513 12.538659645893018
-5.198799141954396 -22.020454203187736 12.990728486769695
-4.37271450950885 -22.339913387180772 13.419685891663104
-3.5030492460503626 -22.527958034477585 13.841630010122955
-2.6237854282334165 -22.625419345871197 14.274984612050481
-1.7531404154782448 -22.664112613331657 14.734320783029636
-0.9012012358155316 -22.667117269294096 15.229080168093954
-0.07315803876069517 -22.64979250678137 15.76268068197291
0.729548972239661 -22.620845771781557 16.333232407886864
1.5088204547820596 -22.583112260521133 16.934946979519133
2.269915206211572 -22.53366374320346 17.558706844310873
3.020413441296442 -22.466170638926283 18.19353348642998
3.768551031626909 -22.374900780946046 18.82815418506013
4.521624727803873 -22.259396808935087 19.452923219646976
5.284560361848985 -22.131147602649538 20.063079606358443
6.059698964851034 -22.015687673825205 20.66022069146208
6.846041407343739 -21.94948343838717 21.24989924379116
7.63611511622372 -21.975439206128673 21.837148853780214
8.412487628939383 -22.13414732600857 22.42109799753747
9.148780082962382 -22.44964405336829 22.992745520269665
9.819943911905046 -22.918040314995306 23.539346698702772
LINES 1 67
66 0 1 2 3 4 5 6 7 8 9 10 11 12 13 14 15 16 17 18 19 20 21 22 23 24 25 26 27 28 29 30 31 32 33 34 35 36 37 38 39 40 41 42 43 44 45 46 47 48 49 50 51 52 53 54 55 56 57 58 59 60 61 62 63 64 65
POINT_DATA 66
SCALARS MaximumInscribedSphereRadius float
LOOKUP_TABLE default
0.9300000071525574
0.9300000071525574
0.9300000071525574
1.0464199781417847
1.2330700159072876
1.06427001953125
0.9663779735565186
1.1289199590682983
1.2882599830627441
1.4488600492477417
1.4932500123977661
1.3405499458312988
1.2771999835968018
1.2771999835968018
1.343400001525879
1.2991399765014648
1.0395699739456177
1.117709994316101
1.440999984741211
1.5302300453186035
1.438330054283142
1.323009967803955
1.1713900566101074
1.3282500505447388
1.4800599813461304
1.3469200134277344
1.2518099546432495
1.385450005531311
1.5439599752426147
1.4003700017929077
1.2417800426483154
1.5681300163269043
1.7701900005340576
1.2141000032424927
1.1199100017547607
1.4927200078964233
1.6993499994277954
1.8528800010681152
1.7082200050354004
1.5938600301742554
1.7323299646377563
1.8460299968719482
1.6841399669647217
1.5123200416564941
1.3292700052261353
1.4475300312042236
1.832260012626648
1.7229100465774536
1.5541000366210938
1.6602100133895874
1.7291100025177002
1.4664700031280518
1.217020034790039
1.0557700395584106
1.0050699710845947
1.3355799913406372
1.5499999523162842
1.5499999523162842
1.6360299587249756
1.8047200441360474
1.646090030670166
1.3270599842071533
1.260010004043579
1.241189956665039
1.4011399745941162
1.5499999523162842
FIELD FieldData 2
Curvature 1 66 float
0.20750356498
0.27261414545
0.35818167319
0.40414540452
0.32183802512
0.19685435049
0.10399051403
0.048081285465
0.056909691315
0.10410277011
0.15693095011
0.20911032827
0.26070481243
0.29807246323
0.3025959904
0.26783522141
0.21727738437
0.1692675851
0.12754555654
0.10143773322
0.10682822848
0.16177536101
0.30099463108
0.68624991781
1.0509124917
0.44087869026
0.20028538306
0.094767261216
0.041690427876
0.04967223836
0.089691483303
0.13636073411
0.18048077292
0.20978775003
0.21362070708
0.1932844889
0.15884375778
0.12109000145
0.083500987438
0.04545572539
0.027449338336
0.067694904612
0.12847662276
0.19869692377
0.25693481712
0.2643088288
0.21346518585
0.1484667459
0.097618790728
0.066628744521
0.054189122858
0.051259554586
0.048397571973
0.042562082592
0.033464297555
0.025802476779
0.025275651725
0.028236893388
0.023258242748
0.022106585584
0.051217867016
0.093224304636
0.13655737243
0.17132186407
0.1878769264
0.18459565205
Torsion 1 66 float
0.0037169934871
0.0066131205117
0.013198596695
0.027327456456
0.051971998337
0.10260156516
0.2613121944
0.97936604013
0.58686396925
0.12524198399
-0.0034272370978
-0.067126297724
-0.10453359764
-0.13975927755
-0.1538932093
-0.14864484883
-0.1441222549
-0.15405900341
-0.2022637993
-0.28499800152
-0.27563864221
-0.16098597472
-0.086093009795
-0.040418867331
0.023874751617
0.052519768307
0.086951548288
0.21380901918
0.84532462999
0.61127019709
0.25910992406
0.196599141
0.20798571188
0.23665078896
0.248721485
0.21634993334
0.15296367636
0.090460374429
-0.0019617584956
-0.3473926522
-1.3084766969
-0.24595955372
-0.081799935807
-0.051450755158
-0.055602301137
-0.075935422381
-0.11588705359
-0.17555573011
-0.27175757809
-0.39644536998
-0.38003370746
-0.21955372408
-0.096338838994
0.043945856058
0.27502831369
0.55669512983
0.53260594456
0.38671645277
0.73792907191
1.2740125416
0.34523991044
0.12612761067
0.06002817852
0.033194590781
0.019430566928
0.011723636057
