# vtk DataFile Version 2.0
Vessel Segment
ASCII
DATASET POLYDATA
POINTS 79 float
0.0 0.0 0.0
-0.787908275836319 -0.1510545625496051 0.17004979364256803
-1.5615462164426799 -0.22547701597186973 0.43212276823525214
-2.3108923890389814 -0.22416683849020286 0.765999402881005
-3.0332206406590503 -0.15351095012846325 1.148752372447725
-3.732362732918667 -0.023005404838994555 1.5582788735081028
-4.416809053145391 0.15580337032284583 1.9744374648719836
-5.097717972251322 0.36957311504315826 2.379869466102885
-5.786912319454218 0.603073601695367 2.759594504636289
-6.495028112427064 0.8375563310602914 3.10198495052167
-7.229555147053581 1.0509153765223458 3.3993468294417775
-7.993016178663491 1.2183448152015801 3.6491394277343083
-8.781366678439726 1.313726985142239 3.8551308720539263
-9.583307731997781 1.3115157678430254 4.027062386632619
-10.380009637223306 1.1908357728689893 4.179591094048367
-11.146172226691718 0.9404700695278625 4.329663413885256
-11.856579659061875 0.565084701103579 4.493081117224321
-12.49567689512653 0.08629369205829752 4.680160094940282
-13.06272608165554 -0.4667542414306351 4.893683107786813
-13.568534230879987 -1.0681085279802152 5.130294289961644
-14.029804153698448 -1.6993454799519374 5.380169652743482
-14.464956414561154 -2.350068003575912 5.627096725793034
-14.890856230157022 -3.016428330896444 5.846597520999303
-15.31913123043658 -3.6985076648087025 6.003055199265914
-15.748716408197806 -4.395406527089279 6.0472670524970855
-16.15316772831013 -5.097791269576168 5.929043445101907
-16.48073864582719 -5.783309233780001 5.624395167934532
-16.681490941814282 -6.423143542277726 5.1548566041560875
-16.739129381442797 -7.003947249973033 4.5796199795622625
-16.667327282983866 -7.531860545015994 3.9563252953757106
-16.48843574333272 -8.020721493859284 3.322304021056179
-16.221940334141607 -8.48420185317989 2.699827612197867
-15.881923511345777 -8.933927691334201 2.1036312710856477
-15.476655477499351 -9.380624036861057 1.5473086746896167
-15.007607254280195 -9.835589804144966 1.051324514186466
-14.465284349330105 -10.312251579583272 0.6643958418951007
-13.834292567638027 -10.80356813520835 0.5915287362341474
-13.469140325599158 -10.970751622810871 1.2557606107447725
-13.446462855529115 -10.836071936390896 2.062859609740188
-13.521130479231024 -10.622057021390939 2.851538044285374
-13.630101641359365 -10.390193866192279 3.6313731712278434
-13.749799393620686 -10.175851797220439 4.4145657255667174
-13.868596106064459 -10.015626773096235 5.210530558359172
-13.980926257183343 -9.956187815426764 6.020659049982041
-14.084739473874322 -10.051078083213996 6.82767528448815
-14.18020284671015 -10.332801377640477 7.590645194741701
-14.267233611201519 -10.782690402382194 8.26986056500512
-14.342474339952023 -11.35112316131735 8.856067388417431
-14.399375707147469 -11.995050408050416 9.361219668103974
-14.428113724066558 -12.686774928155183 9.801694622585584
-14.41681559047912 -13.40853827309588 10.191980722273355
-14.351890752603337 -14.146455528595698 10.545096977494646
-14.219748656657387 -14.886509044876114 10.874060836982682
-14.00900840456453 -15.612423497433785 11.193199926952357
-13.712466362566799 -16.304770117603223 11.518315237687629
-13.32897475897287 -16.941206202057693 11.865618458730728
-12.865167245680382 -17.498790566517116 12.248536176478991
-12.335779024974208 -17.958676721730164 12.67361849754369
-11.75898783341614 -18.31069576187034 13.138326269856655
-11.151903277177674 -18.554828069411286 13.633000252878139
-10.526561343076384 -18.699848876211274 14.143884363847707
-9.888856268185634 -18.76060235454611 14.656685331621503
-9.239771076015208 -18.75489502077112 15.15887448643145
-8.577749638006729 -18.700787931086115 15.640940158383831
-7.901155403503712 -18.614735017323948 16.09751007324586
-7.210536492048551 -18.51020839611105 16.52867519387607
-6.509412736827986 -18.39703025057549 16.94025675282187
-5.803418369491427 -18.28152459777726 17.342807222469883
-5.099420890658662 -18.16755799360153 17.74924684231824
-4.404339723954557 -18.05836469470708 18.171979354603987
-3.724167486883163 -17.958250992128328 18.62037042016896
-3.062883121307754 -17.87414333666377 19.09921803700174
-2.421878788402234 -17.816480497126854 19.608546995409263
-1.8003354320412952 -17.800073315518496 20.144214386143783
-1.1963865568316563 -17.84506225703252 20.697885395693724
-0.6096063355718487 -17.977450108855916 21.25563362993799
-0.04441583646542951 -18.226964743391907 21.794646150515078
0.48677217028444775 -18.616504303482145 22.282088854682378
0.9665487328050165 -19.145320443935876 22.6839562000948
LINES 1 80
79 0 1 2 3 4 5 6 7 8 9 10 11 12 13 14 15 16 17 18 19 20 21 22 23 24 25 26 27 28 29 30 31 32 33 34 35 36 37 38 39 40 41 42 43 44 45 46 47 48 49 50 51 52 53 54 55 56 57 58 59 60 61 62 63 64 65 66 67 68 69 70 71 72 73 74 75 76 77 78
POINT_DATA 79
SCALARS MaximumInscribedSphereRadius float
LOOKUP_TABLE default
0.9300000071525574
1.0875799655914307
1.2321200370788574
1.0718799829483032
0.946603000164032
1.102679967880249
1.2400000095367432
1.2400000095367432
1.2207599878311157
0.9187989830970764
0.6222500205039978
0.7752749919891357
0.9300000071525574
0.9300000071525574
0.9300000071525574
0.9300000071525574
0.9300000071525574
0.9300000071525574
0.9258869886398315
0.7827060222625732
0.6423029899597168
0.7380350232124329
0.8816649913787842
0.9300000071525574
0.9300000071525574
0.9300000071525574
0.9300000071525574
1.1676299571990967
1.3703800439834595
1.122499942779541
0.8888530135154724
0.9732750058174133
1.0786499977111816
1.1636899709701538
1.2429499626159668
1.3804700374603271
1.4737999439239502
1.2400000095367432
1.2400000095367432
1.0831600427627563
0.9345459938049316
1.0890799760818481
1.2400000095367432
1.2400000095367432
1.2400000095367432
1.2400000095367432
1.2400000095367432
1.2400000095367432
1.319849967956543
1.4669400453567505
1.6112600564956665
1.755120038986206
1.8600000143051147
1.8600000143051147
1.8319900035858154
1.6786500215530396
1.5499999523162842
1.5499999523162842
1.5531699657440186
1.5688300132751465
1.5105400085449219
1.1874099969863892
0.9348189830780029
0.9591209888458252
1.0226099491119385
1.3003499507904053
1.5351899862289429
1.3851399421691895
1.2450100183486938
1.4095100164413452
1.5741300582885742
1.422700047492981
1.2563400268554688
1.2732000350952148
1.3106499910354614
1.8896199464797974
2.5373899936676025
2.0472099781036377
1.5499999523162842
FIELD FieldData 2
Curvature 1 79 float
0.15916239496
0.14855571801
0.13091682625
0.10928983491
0.086144746968
0.063847532144
0.046388296782
0.041553607234
0.05143444136
0.069081058794
0.08870489814
0.10832022682
0.12805307847
0.14750810277
0.16356424036
0.16982447892
0.15955270358
0.13520117246
0.10402076855
0.070024594518
0.039183318109
0.044896698933
0.091242536281
0.15238181344
0.21213556093
0.25212786324
0.26648611827
0.24012905726
0.19429327504
0.15086360688
0.11679316465
0.095982325801
0.097364092587
0.13457173554
0.23135320976
0.49512298082
1.485257838
0.65702776748
0.23953774623
0.09481111004
0.030939826243
0.07145324401
0.13360377132
0.1964586328
0.23996903183
0.23615041844
0.19369757371
0.14592119847
0.10920908797
0.087736826628
0.081743118215
0.087613932328
0.099445393783
0.11436542231
0.1307127424
0.14531705734
0.15346530199
0.15214283338
0.1418099616
0.12482941175
0.10413524692
0.08332092984
0.065829233559
0.053028815446
0.042214762219
0.029523257126
0.013368350867
0.0061960607885
0.023600761495
0.038137136552
0.048149305469
0.055489160527
0.065053108672
0.082317778207
0.11007769825
0.14766964178
0.18814101029
0.21699451723
0.22129416611
Torsion 1 79 float
0.049964080911
0.067761932993
0.091587927701
0.12784818893
0.19233269138
0.32328597983
0.57037326009
0.69957811886
0.49847214311
0.33206942454
0.26632725383
0.23744960256
0.21683246206
0.19052735104
0.16319847657
0.13636323284
0.10978950686
0.082479451995
0.045708123452
-0.10471096139
-0.66484022672
-0.61756907748
-0.1073225384
0.029292532348
0.12849376351
0.1484787087
0.15402976281
0.15501516975
0.1497531979
0.1535449383
0.17637388317
0.21239164747
0.20233727529
0.12714340349
0.062799793829
0.022132879579
-0.025357329916
-0.026592226007
0.0080119389434
0.11977298191
0.94927768651
0.10104599151
-0.016569611792
-0.038191607011
-0.037778159321
-0.012907983881
0.033655083272
0.099738210587
0.18964454397
0.28611270769
0.33221968116
0.30195175907
0.25913851737
0.22341595602
0.19050453607
0.15147469506
0.10451389574
0.049615781819
0.002913927449
-0.053464885003
-0.11906565416
-0.19421018613
-0.26855532986
-0.28270934988
-0.22712874766
-0.1617918048
-0.16194763513
-0.42727025879
0.00088562849637
0.075743138314
0.16057751885
0.23432024506
0.28135938018
0.24689902205
0.18320940581
0.1253699072
0.083067332059
0.054055231269
0.034346478762
