# vtk DataFile Version 2.0
Vessel Segment
ASCII
DATASET POLYDATA
POINTS 90 float
0.0 0.0 0.0
-0.6990217883713697 -0.1272338033957033 0.10809118559517208
-1.4014875921049663 -0.194906160424524 0.24542698163759646
-2.104038902426866 -0.23005886894932256 0.39471877032075253
-2.8072308335373264 -0.2541092934689917 0.543155493120873
-3.512201437409244 -0.2866289419730138 0.681061333085321
-4.218524538348535 -0.34768336051662535 0.8008221321127795
-4.921858301815784 -0.45997115517583903 0.8976685227223162
-5.611387501638025 -0.6484005308482264 0.9716737962753342
-6.267472767454105 -0.934600582632289 1.0318745061833436
-6.866487135943573 -1.3256181392021873 1.0964876274973034
-7.391782610088468 -1.8072943953327976 1.1862899039275465
-7.843213964413418 -2.3518003496498934 1.3131653940008348
-8.237718289639695 -2.931389792872685 1.472134356884061
-8.601198653033546 -3.5283411452634 1.641350537889381
-8.958985363444326 -4.135754160870685 1.7822450367021536
-9.329722928864511 -4.748787538099637 1.8299930014088104
-9.707860207291539 -5.337911644541993 1.6831211848993886
-10.034693532736428 -5.829547382338818 1.2807176796107824
-10.256779930262018 -6.1992181512763604 0.7077461748732
-10.37483195477084 -6.492891207428667 0.06297628090929162
-10.40030748909557 -6.753617082135435 -0.6062023508967008
-10.338043763088807 -7.007297485415475 -1.2756646474162718
-10.187257644981488 -7.268878426005279 -1.9278356116344553
-9.945459942980776 -7.545330726722735 -2.5452814002693582
-9.614286140243905 -7.837009986395393 -3.112274230062858
-9.206332850200168 -8.139293420265126 -3.620847058580956
-8.745722431483202 -8.449404100083218 -4.077472598833489
-8.260845785904658 -8.770543772545038 -4.500370540366283
-7.776752272095181 -9.11153590321505 -4.90832383041002
-7.311585573744326 -9.483199111384808 -5.311296022373217
-6.875808711316095 -9.896631609317142 -5.706227880541012
-6.473832738969007 -10.36514256534387 -6.074263166321319
-6.109285579092512 -10.90900925611984 -6.368289106806308
-5.807714700125309 -11.547801832387098 -6.454107862019551
-5.695568059199167 -12.130237423477707 -6.087355175063798
-5.815541946073668 -12.417220607030837 -5.446000115642298
-6.061965147327372 -12.514138931754342 -4.779028368162997
-6.388015341003197 -12.513570245079752 -4.138812039338112
-6.772771915162867 -12.460272495617964 -3.5340334409990377
-7.198159048488497 -12.382851030275104 -2.959497029970757
-7.6426887996146595 -12.304577213544075 -2.3997614022035925
-8.079604392639505 -12.24736516248439 -1.831557907699509
-8.474819915520877 -12.234414307474983 -1.2315459623464995
-8.7952483903276 -12.285078996915995 -0.5906890127330542
-9.02829320363038 -12.40775652067781 0.0776345531899026
-9.187760276321661 -12.600455796775641 0.7513667501349182
-9.296207060744381 -12.858833633422643 1.4132148885531717
-9.370425422144441 -13.17783835567174 2.053146195417045
-9.41710523312102 -13.55092395915169 2.6657533969519127
-9.434468499536377 -13.970263197914136 3.24946887237221
-9.414970282908298 -14.427458782088694 3.8038678032312845
-9.34843665647609 -14.915608429852856 4.327383925991006
-9.224407314270621 -15.429091100961243 4.81475112060982
-9.035053653096096 -15.962782507729088 5.257216498389796
-8.776960838410105 -16.509922879314395 5.6451035637545806
-8.450697556887238 -17.060407508575572 5.972149298422796
-8.057330605010142 -17.597799450470553 6.242197427125801
-7.594372148233412 -18.09797498911827 6.469905543520492
-7.057692082617243 -18.52864927982067 6.676123682678605
-6.452769616050229 -18.856577903944306 6.881701879671874
-5.802378003217219 -19.069257898132786 7.100230931674549
-5.133485071995955 -19.185766053686127 7.3357662940176
-4.461887825263662 -19.238686488361434 7.58688625001455
-3.79320798188944 -19.25565818889226 7.850814550040401
-3.1282992505088925 -19.253352904126643 8.12463379073708
-2.4667354554279344 -19.236673011794 8.405995934044826
-1.8083028301758064 -19.19973416564686 8.692623518770406
-1.1540539201371027 -19.130717455035267 8.982667295285829
-0.5063089397992038 -19.020143863884424 9.27448974456271
0.1325905197034349 -18.868183726747223 9.567237157965444
0.7627448946808841 -18.687397689995972 9.862688886879209
1.3873060529853336 -18.500819599822727 10.166337711666932
2.009853734722349 -18.33913207033042 10.487577141815105
2.628679504685151 -18.238371378122988 10.83881716923093
3.2290965883970273 -18.236236427910267 11.232774184429692
3.7784572471274296 -18.362216134677517 11.676912030359462
4.234784701912404 -18.61998185273206 12.166826439098891
4.571729011768261 -18.98342557044521 12.68602278258999
4.7928693230048145 -19.418199427020166 13.213260138500209
4.9218874826356025 -19.900378882636705 13.730279117796291
4.990242619951383 -20.4198880716612 14.222406518475863
5.029515253060236 -20.975653072061984 14.676720327037474
5.066730595957947 -21.568157403237194 15.0820624426753
5.121801843675352 -22.193721906706777 15.431872270608189
5.204680588877962 -22.842583901682357 15.730113312653499
5.317564851370169 -23.502952301086356 15.99113108038641
5.459352418994112 -24.164736733703208 16.23398696883136
5.628358968891947 -24.819731960174344 16.477804976050656
5.82305706752633 -25.4603250364987 16.739918111385034
LINES 1 91
90 0 1 2 3 4 5 6 7 8 9 10 11 12 13 14 15 16 17 18 19 20 21 22 23 24 25 26 27 28 29 30 31 32 33 34 35 36 37 38 39 40 41 42 43 44 45 46 47 48 49 50 51 52 53 54 55 56 57 58 59 60 61 62 63 64 65 66 67 68 69 70 71 72 73 74 75 76 77 78 79 80 81 82 83 84 85 86 87 88 89
POINT_DATA 90
SCALARS MaximumInscribedSphereRadius float
LOOKUP_TABLE default
0.9300000071525574
1.0922600030899048
1.2325799465179443
1.0822900533676147
0.9349520206451416
0.9529520273208618
0.9769459962844849
1.094920039176941
1.2282099723815918
1.2400000095367432
1.2400000095367432
1.2400000095367432
1.2310400009155273
1.0790300369262695
0.9323440194129944
0.9562829732894897
1.0208200216293335
1.2810800075531006
1.3461400270462036
1.2806299924850464
1.2585599422454834
1.2404600381851196
1.2584500312805176
1.278630018234253
1.414199948310852
1.565060019493103
1.9221500158309937
2.2253499031066895
2.09975004196167
1.984089970588684
1.9839999675750732
1.9839999675750732
1.9245799779891968
1.827139973640442
1.3796800374984741
1.4328199625015259
1.5499999523162842
1.5499999523162842
1.693120002746582
1.8591099977493286
1.6169099807739258
1.292140007019043
1.3783899545669556
1.5532399415969849
1.908210039138794
2.0106000900268555
1.423840045928955
1.1463199853897095
1.2106800079345703
1.2400000095367432
1.2400000095367432
1.3212300539016724
1.4752399921417236
1.5499999523162842
1.5499999523162842
1.5499999523162842
1.5499999523162842
1.5499999523162842
1.5499999523162842
1.407789945602417
1.2464799880981445
1.4167300462722778
1.5237499475479126
1.3860900402069092
1.3649100065231323
1.830199956893921
2.217089891433716
2.0445499420166016
1.8974100351333618
2.0508100986480713
2.1850600242614746
2.0206100940704346
1.871649980545044
2.337430000305176
2.750230073928833
2.076349973678589
1.608199954032898
1.8448100090026855
1.9298800230026245
1.8739900588989258
1.7328499555587769
1.5646300315856934
1.5499999523162842
1.5499999523162842
1.5499999523162842
1.5690100193023682
1.7242599725723267
1.8600000143051147
1.8600000143051147
1.8600000143051147
FIELD FieldData 2
Curvature 1 90 float
0.15749052635
0.10087554036
0.056563921757
0.02184681936
0.018946227509
0.048545879055
0.081562779679
0.11572620625
0.14716680846
0.16734951689
0.16820921163
0.14876215891
0.10643816259
0.051028839099
0.062663744561
0.15888667773
0.29511354145
0.41012422098
0.34592374624
0.22286215038
0.14822064254
0.12164008569
0.12481093697
0.13829736203
0.14591683786
0.13569825212
0.10567744906
0.067041495189
0.045293131392
0.052947587779
0.071996888269
0.10849166652
0.19131887211
0.38142063228
0.78579811694
0.72329461722
0.35648588815
0.20127278723
0.12702039985
0.078252690323
0.041458789168
0.05663454432
0.11006360295
0.15449770554
0.16393967065
0.14422526976
0.12096457242
0.10560990316
0.095008616999
0.086443382272
0.082996635973
0.088279682253
0.10043812245
0.11399958756
0.12386636492
0.12766087359
0.12382472697
0.12481509486
0.14486340082
0.17332199486
0.17732810335
0.14496504655
0.098871920093
0.058754299504
0.031682533339
0.021590156417
0.029687725686
0.046039277322
0.059268309694
0.059843617593
0.043211892213
0.016050314826
0.044579261411
0.099685318138
0.15784455743
0.20919834064
0.23632084545
0.22668767868
0.18977668828
0.14498119414
0.10450578417
0.082735210067
0.085346135937
0.095108794976
0.090908865553
0.072989987022
0.052983285822
0.043667576543
0.050718312995
0.066859914804
Torsion 1 90 float
0.024989280873
0.045236243711
0.10803386021
0.55985416818
0.7309077453
0.17214564801
0.12785576676
0.1461350125
0.17183835724
0.19423168894
0.18782931996
0.15558831592
0.045448890775
-0.50528129623
-0.4903548092
-0.056581329287
0.032118895236
0.093180162058
0.16365914707
0.23265234751
0.29656269067
0.26914539921
0.16465288839
0.076574644824
0.026229178082
0.018707656362
0.083728889492
0.32650990761
0.64755151349
0.19546205636
-0.13723592656
-0.22150399223
-0.17682980345
-0.12054947576
-0.036306771049
0.076714423693
0.13299188526
0.15181062332
0.17134014508
0.22135553116
0.55918378695
0.34999625403
0.10535111254
0.0065994318208
-0.084027927251
-0.17619165286
-0.20101063198
-0.12822841931
-0.0011206285592
0.12161568329
0.18384576522
0.14814809991
0.070207999819
0.014976720787
0.0073450583097
0.05659295315
0.20729443142
0.34849617069
0.31223885311
0.20665966314
0.131464654
0.1004768306
0.099049440442
0.12148069616
0.12747477351
-0.1630521291
-0.20956634836
-0.08266454962
-0.019554547373
0.030520819225
0.18513122337
2.1999732149
0.32098225376
0.021900067958
-0.042173806202
-0.07872345325
-0.10198651396
-0.078960607999
0.0001893164555
0.10816058105
0.3332788797
0.51128270259
0.39528305032
0.22023558295
0.16585670922
0.22859766761
0.40940224346
0.54709724614
0.36653430463
0.19120358289
