# vtk DataFile Version 2.0
Vessel Segment
ASCII
DATASET POLYDATA
POINTS 94 float
0.0 0.0 0.0
-0.6414584402511265 0.1193566749295667 0.2175299526127106
-1.27264031760351 0.29801640121220546 0.4251207075420842
-1.8960202974453515 0.5067696277559043 0.6285283953238463
-2.516480041367404 0.7225186058593787 0.833582373052105
-3.1391679648516737 0.9241453191319045 1.0459707751726592
-3.7680389558593816 1.0892973606271636 1.2709737595917467
-4.4036977873057435 1.1928867883963992 1.5122944979761497
-5.040659005397625 1.2058452739959085 1.7706848701664046
-5.663497304850002 1.1006108638972902 2.041072629377396
-6.249932197657824 0.8650488712828407 2.3105699013337695
-6.782001601334949 0.5103368072428328 2.5621724330853715
-7.253808816505901 0.0605348266744381 2.7803888846829197
-7.667206736621184 -0.4614554642881552 2.9518501787531166
-8.024662181366315 -1.0382244513894612 3.062843334621688
-8.32542065566653 -1.6554406510602948 3.0978077086323115
-8.564477908826639 -2.2971328278705445 3.039808351541874
-8.734910108228137 -2.9425961724375034 2.876779880239713
-8.831986295152653 -3.5687250903572023 2.610711180356187
-8.857078159952753 -4.158176655846968 2.2579866943294236
-8.816219047992323 -4.703133933799449 1.8406123105705376
-8.716880683460625 -5.203598231831757 1.3793621421692768
-8.566466794456998 -5.664575108256197 0.8913751266385339
-8.37190252121706 -6.093740275531811 0.390088337441534
-8.13963180087849 -6.500419658915482 -0.1140098285505159
-7.875550679008208 -6.894620452180472 -0.6123492487726123
-7.58548720508321 -7.287657466214024 -1.0969769959375488
-7.27485622157247 -7.692141360463328 -1.5589136633236476
-6.949623077749954 -8.123090117482406 -1.9853367575112526
-6.6183565885635485 -8.599011749902486 -2.3549255814569734
-6.298813540612501 -9.14239204161551 -2.6275075221852178
-6.0368579503609885 -9.766738677408858 -2.7241731173359467
-5.932788627110924 -10.412202021975817 -2.539891945080322
-6.054751382948646 -10.922949420992438 -2.1055852273125515
-6.346597138999996 -11.243315613916735 -1.574955510077914
-6.741553081148307 -11.403944607814749 -1.0368527610368996
-7.20074702163784 -11.43342352803224 -0.526722557298075
-7.697646755417448 -11.350606905735638 -0.059027144142022946
-8.20942324910277 -11.170508800627625 0.3632141905150845
-8.715508993108063 -10.908209960883694 0.748159669847348
-9.197531966981959 -10.581194534934827 1.1141159334504418
-9.639311716556106 -10.211467103575023 1.4900820060610271
-10.019664844584083 -9.831731170824844 1.918699281765885
-10.299033318133867 -9.508897504406473 2.4548131451765407
-10.419008495958344 -9.360060601642303 3.109873091742975
-10.365053598601438 -9.451378042796867 3.785020652414319
-10.189959744188613 -9.733763189028593 4.384823314978324
-9.946926027384901 -10.140785168096127 4.881723048757933
-9.670436926720093 -10.631514256714878 5.275513250249134
-9.384828504302414 -11.180859897701865 5.574421446333072
-9.108751303028509 -11.771751149634119 5.792637897930621
-8.855707777217305 -12.392463917467726 5.947164242757705
-8.633377562179186 -13.034156094277977 6.057472207258553
-8.440390275178705 -13.688462199578202 6.147693865271605
-8.267283998779124 -14.347704559483692 6.242370574791974
-8.098155493640263 -15.003450351226405 6.3642640269226565
-7.911886743371393 -15.644113433367956 6.53174885734925
-7.684414977841118 -16.25255486839545 6.757437033136061
-7.393597008841354 -16.80491718206438 7.045033033566986
-7.027709395136744 -17.276930346930783 7.385074941205289
-6.591002546156269 -17.655418812954228 7.757201196160682
-6.097667376629362 -17.942658487721594 8.140433697073636
-5.562719253875816 -18.150015179187566 8.51975838424147
-4.9988394486669785 -18.290967804563017 8.887634229767881
-4.415146628947166 -18.376437581983875 9.241593106350239
-3.818633931041926 -18.41300574838479 9.582526155051719
-3.2152653966081055 -18.40294167326707 9.91303814916336
-2.610574207463498 -18.34555297336886 10.236146415175662
-2.0098039082351495 -18.239577798175173 10.554318426582705
-1.4174118387603283 -18.08619561832282 10.868857223838564
-0.8355702779696281 -17.89132993933811 11.180173398717027
-0.2633952766940009 -17.66548288807195 11.488589932645246
0.30258227326993364 -17.421996735746802 11.795094076544274
0.8670995418218347 -17.175466450780316 12.101830322481034
1.434468723299319 -16.94038500745525 12.412297200043968
2.0073225413092395 -16.731835769181334 12.73135316062006
2.5858321302413874 -16.56647647037351 13.064957669206255
3.1662984047324625 -16.464669324730625 13.419554009131677
3.7376678934343626 -16.450889655583538 13.801600501322254
4.277571864618363 -16.55063991950614 14.214593387036482
4.752466813288796 -16.781402303503736 14.653534953664742
5.127102303759841 -17.14105127595756 15.102506597365762
5.381372537876095 -17.605118705430886 15.540310373652725
5.518410811420854 -18.1392312608486 15.95040345496457
5.555081789217357 -18.714765203585756 16.32471669954309
5.51013604687147 -19.313046780541928 16.66089868491307
5.399958353725602 -19.92301028189009 16.959196142078714
5.238678493409107 -20.538396798314192 17.221083082431743
5.038451502531023 -21.15606608731502 17.448629954220003
4.810027137933216 -21.77497614150487 17.64411282848251
4.563750530686841 -22.39570312967459 17.810039469665657
4.310803400774758 -23.02035157984306 17.949124061836205
4.06518975540517 -23.65276057413084 18.064117116298846
3.8485152499947257 -24.29901190102959 18.157682749686924
LINES 1 95
94 0 1 2 3 4 5 6 7 8 9 10 11 12 13 14 15 16 17 18 19 20 21 22 23 24 25 26 27 28 29 30 31 32 33 34 35 36 37 38 39 40 41 42 43 44 45 46 47 48 49 50 51 52 53 54 55 56 57 58 59 60 61 62 63 64 65 66 67 68 69 70 71 72 73 74 75 76 77 78 79 80 81 82 83 84 85 86 87 88 89 90 91 92 93
POINT_DATA 94
SCALARS MaximumInscribedSphereRadius float
LOOKUP_TABLE default
0.9300000071525574
1.2030099630355835
1.466629981994629
1.5057300329208374
1.371150016784668
1.2405699491500854
1.2400000095367432
1.2400000095367432
1.2400000095367432
1.2400000095367432
1.1719900369644165
1.0315099954605103
0.965399980545044
1.0998899936676025
1.2340199947357178
1.1102900505065918
0.9719319939613342
1.0287200212478638
1.1696900129318237
1.1713099479675293
1.0357400178909302
0.9559040069580078
1.0836600065231323
1.2078900337219238
1.1507699489593506
1.0313299894332886
0.947646975517273
1.0682100057601929
1.1932400465011597
1.3269100189208984
1.475559949874878
1.646880030632019
1.8371800184249878
1.3826899528503418
0.9401029944419861
1.0858700275421143
1.222640037536621
1.4690200090408325
1.728790044784546
1.7380499839782715
1.486109972000122
1.3040800094604492
1.4408799409866333
1.4981000423431396
1.3062100410461426
1.2400000095367432
1.2400000095367432
1.2561299800872803
1.2734800577163696
1.315619945526123
1.3633899688720703
1.4251999855041504
1.5040299892425537
1.5767300128936768
1.439869999885559
1.2990100383758545
1.2400000095367432
1.2400000095367432
1.2400000095367432
1.2400000095367432
1.2662899494171143
1.6691499948501587
2.0604500770568848
2.079040050506592
1.9530500173568726
1.8600000143051147
1.8600000143051147
1.8600000143051147
1.8600000143051147
1.8600000143051147
2.0002200603485107
2.26665997505188
2.4327900409698486
2.1850099563598633
1.9403400421142578
1.975100040435791
2.0932199954986572
2.2178800106048584
2.353640079498291
2.455670118331909
2.2126100063323975
1.969789981842041
1.9158200025558472
1.8724700212478638
1.6788699626922607
1.4292800426483154
1.2938899993896484
1.5336699485778809
1.7730000019073486
1.8600000143051147
1.8600000143051147
1.8600000143051147
1.8600000143051147
1.8600000143051147
FIELD FieldData 2
Curvature 1 94 float
0.14881141139
0.094230754688
0.049602071633
0.011936121325
0.026385773886
0.063121707892
0.10045506337
0.14017740783
0.17790587982
0.19911713816
0.1945495743
0.1724341974
0.1510295156
0.14264623883
0.14935192801
0.16688892401
0.18443939199
0.18723190563
0.17334527885
0.15110114236
0.12731219965
0.10543943107
0.085787944782
0.068020789829
0.052564897706
0.042853227063
0.048726733566
0.075406755759
0.12245460654
0.19831784256
0.32239003778
0.50088008848
0.56468620016
0.41621070669
0.2892011035
0.2230312727
0.1855387036
0.15836123303
0.13169392578
0.10774643421
0.10206054964
0.14775266955
0.25978588147
0.41122700882
0.45257738275
0.36200376839
0.26791245631
0.20825966382
0.16926873328
0.13692862857
0.11062317819
0.086346789798
0.056132595224
0.031272329263
0.042790380349
0.077928008326
0.11788909807
0.15561589681
0.17959627474
0.17866933913
0.15963507085
0.13386096199
0.10834359306
0.087913490283
0.075081915345
0.070442463972
0.071566758576
0.073685835115
0.071779667042
0.062861438934
0.048209254775
0.031339516827
0.018093282254
0.022307776059
0.041005233862
0.066885336673
0.099063196659
0.13794085191
0.18120509166
0.21910958014
0.24049330667
0.23597093447
0.20761096483
0.17140240048
0.13920641881
0.11327670965
0.092061826036
0.075134335413
0.062780748478
0.055846185154
0.057537188165
0.072738060614
0.10728418041
0.17507914124
Torsion 1 94 float
0.01328333134
0.026143260949
0.078530893014
1.26581749
0.24969462231
0.052052173254
0.031784016386
0.025813876942
0.030697880721
0.045269286519
0.071686068303
0.10928450806
0.14594517352
0.15350982543
0.12643799067
0.091828766128
0.046137429243
0.0024761797172
-0.025463476123
-0.04955673739
-0.073249136928
-0.099316707815
-0.13205154791
-0.19079765296
-0.31423087216
-0.50725750255
-0.4469309874
-0.22673182678
-0.11625632812
-0.072624107781
-0.062463650384
-0.074377544908
-0.094836365042
-0.085840040391
-0.057024979794
-0.025179826757
0.027217634961
0.091302422138
0.19837352991
0.36870747016
0.53528229645
0.40062119178
0.25143205873
0.15267551272
0.079351290309
0.046617739153
0.051767552993
0.075135997954
0.10872553769
0.14669675289
0.18778298871
0.24872635132
0.45010995321
1.2409698934
0.74092240421
0.30567093291
0.18507301807
0.13769732991
0.11054524957
0.092475262745
0.081993580795
0.066773444427
0.042426048129
0.0022580083944
-0.059471221794
-0.10338426488
-0.10572121019
-0.080218726007
-0.046482371811
-0.019610781982
-0.001966920996
-0.0054075183467
-0.082125098006
-0.017415095682
0.053156211187
0.043619619737
0.044996829486
0.055812528419
0.054208840031
0.046417152874
0.035579061744
0.020756655956
0.0029603883106
-0.011908871273
-0.024356387054
-0.040044217593
-0.060394571175
-0.086999507151
-0.12587172621
-0.17457915019
-0.20064825045
-0.17214138897
-0.12607303547
-0.094167173329
