# vtk DataFile Version 2.0
Vessel Segment
ASCII
DATASET POLYDATA
POINTS 81 float
0.0 0.0 0.0
-0.6216230741830449 0.14289818594118334 0.4819607339628736
-1.320334290702241 0.28980069276752846 0.8437719801837472
-2.0624597706450167 0.4075469768649807 1.1201969273009165
-2.830536947160017 0.4630574671516919 1.33894957029982
-3.6080665209724216 0.4148360325472039 1.5218176314785476
-4.364770112279643 0.2185922257181169 1.6897867467312555
-5.0609177078735055 -0.13344731642740573 1.866086866099487
-5.689140807323204 -0.5845697378885656 2.0731443254372253
-6.285725035650882 -1.0571590470862418 2.3226558361892624
-6.889037623069842 -1.4993897678409378 2.6089334599139895
-7.519103229573148 -1.8907575161008578 2.9109090604014165
-8.184972445364423 -2.2292593675316077 3.1995089152384844
-8.890652646896083 -2.524347719430592 3.435963987118109
-9.633178406149012 -2.794524031515212 3.5597175164351174
-10.378507648356642 -3.0628593643298507 3.471367317095925
-11.01313827233605 -3.3362394386793253 3.0797597068066382
-11.414998838543047 -3.5920790292124916 2.4417649032815887
-11.59810828953477 -3.8098706963103015 1.695153850611291
-11.627424929544448 -3.988172212229301 0.9156221163563057
-11.545161420173391 -4.142444747270075 0.1344082923284995
-11.369102690618154 -4.307931214129655 -0.6287837960406386
-11.104052092600577 -4.527244553719499 -1.3513643400490856
-10.760904251161518 -4.81231981173014 -2.0160327179099
-10.358883267673733 -5.1419314902380515 -2.6250332437704698
-9.91488948461401 -5.494210894412942 -3.190938049093594
-9.439496692461633 -5.857704230406636 -3.7233614762410903
-8.937590743254276 -6.230727880662688 -4.223745752956412
-8.406609543850236 -6.621776322144661 -4.678071936682427
-7.8299705307670395 -7.062485370407323 -5.00944514971174
-7.356980942259209 -7.52233907529416 -4.710031642366021
-7.344564644726318 -7.693752578732902 -3.9330635290363696
-7.47937321636497 -7.76367999921146 -3.147043297719468
-7.679702316611426 -7.794118032403021 -2.3722369982213714
-7.922885747582334 -7.79307608396972 -1.6091258823844399
-8.1909002458354 -7.7482203566945005 -0.8557070258742792
-8.450583739972942 -7.633758043502296 -0.1070930488695875
-8.640901274114679 -7.429102260025479 0.6425613487847781
-8.694567729564156 -7.164532149958449 1.3953400639554183
-8.595484850248518 -6.925275122907749 2.15204365526264
-8.380976390164143 -6.794551844686464 2.91122989496299
-8.105593391480275 -6.827632943551939 3.660723875336569
-7.820518133469635 -7.06320648427905 4.3682458200300225
-7.57012661934871 -7.519134549137492 4.972760009271257
-7.382852430191041 -8.165060077467912 5.400893870503866
-7.264864756280596 -8.925608336271322 5.612357457820547
-7.198462696520279 -9.722201594175695 5.637267969851285
-7.158732683312102 -10.516631510464887 5.545073103015904
-7.125572139698047 -11.305135154066729 5.40762222959515
-7.084801705840196 -12.096857837769694 5.294280545693013
-7.026328843101623 -12.894708461598709 5.27289386659689
-6.946708399404481 -13.683235785846762 5.382791162312992
-6.84562259575445 -14.445017347982697 5.607150771221298
-6.716983214399766 -15.177722896030133 5.90360037833153
-6.545487974537004 -15.884772373637079 6.238337770906485
-6.3059895576733105 -16.562745837155525 6.590536966440981
-5.964523806007072 -17.19136138602429 6.948823615835426
-5.490573241598149 -17.725635532062388 7.307510544540025
-4.883817029884967 -18.10603780431577 7.661070995285768
-4.190712779275173 -18.304204708784763 8.006461623088589
-3.4698945336799403 -18.351743988 8.350730857709527
-2.7543624194325367 -18.30475757548462 8.707255972582573
-2.0551707149627934 -18.20987113584518 9.086328118216096
-1.3727196995808644 -18.097539125947232 9.490375706684487
-0.7031647057905609 -17.985759791776186 9.915666362588105
-0.040698628027404045 -17.882887627120823 10.354132624487006
0.6208133488609785 -17.78993173306647 10.796244178118833
1.2856589496224717 -17.702847111488914 11.234526342090735
1.9542842870760253 -17.61480132303731 11.66683334429924
2.624039038575499 -17.520515684309007 12.096056515257573
3.292128123976137 -17.420278755436474 12.526545073004588
3.9571410170447363 -17.320594502290838 12.961888163224934
4.618694053118082 -17.234166827672695 13.40520857565126
5.275641012530363 -17.18115674626377 13.860303998433237
5.922383332182121 -17.192370678082575 14.33217238473214
6.540690161030807 -17.31446694411069 14.824778524031792
7.084877426616186 -17.6071677521473 15.330360798076986
7.479603935564197 -18.104531791605908 15.812225568130819
7.677943682491754 -18.760165239045268 16.22167921896172
7.705605768641319 -19.491061270616783 16.54462744531086
7.613060705152792 -20.245425765512724 16.795531615135143
LINES 1 82
81 0 1 2 3 4 5 6 7 8 9 10 11 12 13 14 15 16 17 18 19 20 21 22 23 24 25 26 27 28 29 30 31 32 33 34 35 36 37 38 39 40 41 42 43 44 45 46 47 48 49 50 51 52 53 54 55 56 57 58 59 60 61 62 63 64 65 66 67 68 69 70 71 72 73 74 75 76 77 78 79 80
POINT_DATA 81
SCALARS MaximumInscribedSphereRadius float
LOOKUP_TABLE default
0.9300000071525574
1.2463500499725342
1.5461000204086304
1.413699984550476
1.2783700227737427
1.2570099830627441
1.2482099533081055
1.2910900115966797
1.3714599609375
1.4952000379562378
1.3837599754333496
1.0821599960327148
1.0398900508880615
1.2697099447250366
1.1714500188827515
0.7022929787635803
0.964818000793457
1.2400000095367432
1.2400000095367432
1.0970100164413452
0.8815230131149292
0.9067310094833374
0.9300000071525574
0.9300000071525574
0.9300000071525574
0.9300000071525574
1.0099899768829346
1.2187700271606445
1.4534200429916382
1.7794100046157837
1.6124000549316406
1.3819299936294556
1.2687499523162842
1.4238100051879883
1.5221799612045288
1.3603899478912354
1.1852400302886963
0.9969779849052429
1.181130051612854
1.546720027923584
1.5499999523162842
1.5011399984359741
1.3238699436187744
1.2400000095367432
1.2400000095367432
1.5174299478530884
1.8446999788284302
1.8600000143051147
1.8600000143051147
1.7093100547790527
1.5508099794387817
1.5499999523162842
1.5539499521255493
1.6996300220489502
1.8446099758148193
1.8600000143051147
1.8600000143051147
1.568560004234314
1.2400000095367432
1.2400000095367432
1.2400000095367432
1.2400000095367432
1.2400000095367432
1.2400000095367432
1.2400000095367432
1.2400000095367432
1.2662899494171143
1.422950029373169
1.5816999673843384
1.7490099668502808
1.855530023574829
1.6923799514770508
1.5518699884414673
1.5671000480651855
1.5972000360488892
1.7456400394439697
1.9059799909591675
2.078089952468872
2.106060028076172
1.9730000495910645
1.8600000143051147
FIELD FieldData 2
Curvature 1 81 float
0.26409053456
0.17929008109
0.12367549422
0.11301485237
0.14836675165
0.20057481336
0.21874909634
0.16502469674
0.092076672409
0.080550616635
0.081744474814
0.082499175846
0.10248432666
0.16772282165
0.29061810208
0.43124401234
0.44748021354
0.31613340946
0.20162987636
0.14077970023
0.1215271939
0.14217097849
0.16568802705
0.1508891403
0.11510468597
0.073568856761
0.052271843179
0.11165632694
0.28578362553
0.96238881843
1.1187178917
0.31382367793
0.12763112726
0.066880615155
0.081513529286
0.12012250711
0.16457015807
0.19681937297
0.20177334917
0.20597222057
0.22058491533
0.25928262663
0.31201252749
0.33871655635
0.32910125729
0.25556474385
0.15613770684
0.058729757815
0.036027916756
0.12232128424
0.17376253815
0.15768776073
0.10984366576
0.077928935125
0.095432182839
0.15092048022
0.21510769715
0.26348571435
0.25977413812
0.19896769192
0.12572805371
0.072180393208
0.04390747676
0.032061746117
0.024714227827
0.017432284926
0.012289689185
0.0097462453705
0.013686980653
0.016401157203
0.014219505084
0.019524967477
0.044827263619
0.08754307753
0.15163854158
0.23896431871
0.32776302332
0.35432508974
0.30521551537
0.24078102235
0.18997470153
Torsion 1 81 float
0.11768330714
0.21116920947
0.38938369936
0.46604028958
0.30258271553
0.19683204677
0.19540740149
0.33336608344
0.74900288245
0.5499136531
0.41441089951
0.48157958534
0.48150680756
0.30312030224
0.17509541598
0.10157941718
0.053876816444
-0.02027576637
-0.011935146168
0.18804335049
0.49776118737
0.29986746279
0.010311835462
-0.060954685762
-0.060053258988
-0.034081973067
0.084355271049
0.061783807339
0.026428887503
0.017657729439
0.043687049219
0.041124352183
0.016093641545
-0.20211758358
-0.34811601163
-0.32695126699
-0.37152759111
-0.51344552632
-0.57735476733
-0.48006251987
-0.3161968612
-0.1602453529
-0.033305945004
0.03704667535
0.054563358519
0.057596535672
0.062059685804
0.14952879116
0.32977893045
0.043094869895
0.0019347504519
-0.077867136524
-0.26144863863
-0.51579677068
-0.26415823645
-0.026562324991
0.069452491308
0.093216130696
0.12353378686
0.1689082103
0.26509552186
0.42632450512
0.54543795534
0.50402092519
0.43772197278
0.55830169475
0.75145153412
0.96548860425
0.40496796343
0.22099927973
0.4271720595
0.41526277259
0.1037435178
0.018262394759
-0.0084316387271
-0.014482605585
-0.01238795431
-0.0084257276209
-0.005024992168
-0.0029679647251
-0.0018651720332
