# vtk DataFile Version 2.0
Vessel Segment
ASCII
DATASET POLYDATA
POINTS 88 float
0.0 0.0 0.0
-0.5686578114155847 -0.38941561080561204 0.2570592638755084
-1.1811718184001172 -0.6967975099362143 0.5241982101089361
-1.8288605209024267 -0.9186908487261799 0.7931768422077725
-2.5010559159703356 -1.062965160610454 1.0552387606295683
-3.1883996015928506 -1.149779810304875 1.3033970882394104
-3.88462317444367 -1.2100347846563564 1.5344116765527611
-4.584886057564192 -1.282649753746603 1.748946271881091
-5.280830379852681 -1.4099290728650749 1.9506802459552186
-5.955998600630634 -1.6260830408010951 2.146528909183026
-6.590701450349958 -1.9403072803433936 2.344583511526336
-7.176479320895003 -2.33479851569148 2.5505104538429055
-7.722308223431357 -2.780054416079255 2.7635744230942345
-8.247536433101857 -3.2505453057253426 2.9747257364839674
-8.77342698581467 -3.7291302518715663 3.1644673723385797
-9.318667216939476 -4.204329109540878 3.299102628380372
-9.89105579481877 -4.664374063578954 3.3266193332886886
-10.469328981909804 -5.092707941197114 3.1838156474814157
-10.99337984875721 -5.4696162140024285 2.8360420489229496
-11.40207076470947 -5.7928171663448955 2.3193485222680232
-11.672374082892933 -6.07981938750194 1.6995062929260296
-11.806421369157757 -6.348872392866122 1.028753458551973
-11.81569136521183 -6.611081654549449 0.3418882877121464
-11.715486721217081 -6.8724812299289315 -0.33820891598132863
-11.523832429500873 -7.136751894004544 -0.9974114419204648
-11.259563168694417 -7.4074214654381 -1.6285092931743155
-10.940555184594393 -7.689495405314203 -2.2286341875850657
-10.582703306947165 -7.991139336860017 -2.7965344090642756
-10.200203006549437 -8.32611231416428 -3.328384645888753
-9.807036457285976 -8.717145894308425 -3.8116775600582007
-9.423801545484327 -9.203748418785704 -4.205801138887037
-9.10700160540354 -9.836244627754947 -4.3686154428794595
-8.999439621216311 -10.459470840670116 -4.036806837525232
-9.071539590525777 -10.79392811655902 -3.3922446187057074
-9.202056251590472 -10.893690730769174 -2.676980086657532
-9.350818218240251 -10.827770758829093 -1.9603922717938873
-9.508408151159509 -10.633541468208975 -1.2689650729232107
-9.677549795782847 -10.344404874663457 -0.6141028584880484
-9.86412846295658 -9.998911588485837 0.00838733975404187
-10.067185719846178 -9.635467683246198 0.6153545745764882
-10.272892348905028 -9.286222756976152 1.2296777463222552
-10.45623367413254 -8.977515470126344 1.871812309499402
-10.590943303439676 -8.734508543593478 2.5527177962275647
-10.658187961464385 -8.58206720521288 3.2687176413142405
-10.653405620175816 -8.53991159645411 4.002449195474377
-10.583585963247197 -8.619294532690708 4.729778334103676
-10.459911642594198 -8.82787084717653 5.423412875359011
-10.293934369920898 -9.17579108736195 6.04833072924348
-10.100145705816217 -9.676005322666434 6.547956293136417
-9.905696101938382 -10.322480197347556 6.828191248781689
-9.756934135288603 -11.037523714503433 6.809062585261993
-9.680639794467538 -11.719459902427738 6.54898629269798
-9.667176830171021 -12.35033744042387 6.170975050334914
-9.701681815483408 -12.957892645023286 5.7572078082056
-9.7751064708775 -13.573445080550973 5.360655872099808
-9.879725799641568 -14.221935751376762 5.02995093793791
-10.001338717902282 -14.913377333756303 4.812620328813373
-10.116110699020457 -15.635285292813107 4.737577002446169
-10.197040037868558 -16.363490773031227 4.797244007020682
-10.222569713649934 -17.08049114902716 4.9587336249284775
-10.175410047075719 -17.777031509890275 5.189969929768704
-10.038787761906987 -18.443245470174578 5.469689183998616
-9.795486148851056 -19.060387108023072 5.786195139190918
-9.430716855892209 -19.59457668223733 6.134115379376337
-8.944922614449618 -19.99753559449872 6.508668966535461
-8.371652081904871 -20.232215390294833 6.902645903737344
-7.765274220128551 -20.309434090821203 7.310821819908823
-7.164855340829316 -20.28123697578017 7.735036400915306
-6.584006453199794 -20.205788455443756 8.180586286191566
-6.021403572789934 -20.126362631793533 8.648429206937557
-5.469836702668792 -20.06587931923884 9.131978919362817
-4.919961473516948 -20.028447509133475 9.61978194060429
-4.361353700398332 -20.00250461443739 10.098328998483263
-3.784955982536221 -19.966018169222533 10.554451815226283
-3.186898805228964 -19.89357948582019 10.976937217813505
-2.571280065233587 -19.766087045198432 11.359120028564362
-1.9479584300157116 -19.579295870451666 11.7026045349431
-1.3261961776490452 -19.344256267673156 12.018484632091184
-0.7103494064155835 -19.08306937527535 12.325492209174037
-0.10032234319533079 -18.82670858862296 12.647662460320362
0.5032160034409016 -18.616771804688995 13.011989723494613
1.0878977453653376 -18.511799553731827 13.444010340006669
1.6109978096542514 -18.58518000614746 13.951846431739808
2.0039877443385983 -18.872639517641186 14.498852150873324
2.2365203519521346 -19.323428069795153 15.029083453611722
2.3313874040751004 -19.86340034079859 15.518504619600373
2.3209569948729025 -20.445794841700717 15.967502512605117
2.2290627547561814 -21.04657339642587 16.38206463545236
LINES 1 89
88 0 1 2 3 4 5 6 7 8 9 10 11 12 13 14 15 16 17 18 19 20 21 22 23 24 25 26 27 28 29 30 31 32 33 34 35 36 37 38 39 40 41 42 43 44 45 46 47 48 49 50 51 52 53 54 55 56 57 58 59 60 61 62 63 64 65 66 67 68 69 70 71 72 73 74 75 76 77 78 79 80 81 82 83 84 85 86 87
POINT_DATA 88
SCALARS MaximumInscribedSphereRadius float
LOOKUP_TABLE default
1.2400000095367432
1.1055899858474731
0.9622640013694763
1.2836999893188477
1.7476500272750854
1.8600000143051147
1.8600000143051147
1.8600000143051147
1.8600000143051147
1.5096900463104248
1.1316200494766235
1.1160000562667847
1.1160000562667847
1.0400700569152832
0.9523109793663025
0.8135070204734802
0.6479169726371765
0.7699480056762695
0.9300000071525574
0.9300000071525574
0.9888569712638855
1.1516900062561035
1.1699399948120117
1.0150599479675293
0.9300000071525574
0.9300000071525574
1.0309300422668457
1.3203599452972412
1.5825899839401245
1.7392200231552124
1.7441500425338745
1.294700026512146
1.4668899774551392
1.418910026550293
1.2453399896621704
1.4178099632263184
1.626270055770874
1.9708199501037598
2.0216500759124756
1.6759699583053589
1.6567200422286987
1.8224400281906128
1.7361500263214111
1.578969955444336
1.674880027770996
1.827489972114563
1.8600000143051147
1.8600000143051147
1.8600000143051147
1.8139599561691284
1.4394500255584717
1.2400000095367432
1.2400000095367432
1.2400000095367432
1.2400000095367432
1.2400000095367432
1.2400000095367432
1.1886399984359741
1.0392800569534302
0.9653900265693665
1.1080299615859985
1.2524299621582031
1.4024499654769897
1.5499999523162842
1.5499999523162842
1.5889999866485596
1.7567800283432007
1.7418299913406372
1.4261499643325806
1.3020100593566895
1.4555000066757202
1.5499999523162842
1.5499999523162842
1.5499999523162842
1.5499999523162842
1.6434600353240967
1.9410799741744995
2.1067299842834473
1.8166199922561646
1.5499999523162842
1.5499999523162842
1.586940050125122
1.8364100456237793
1.9554500579833984
1.8908699750900269
1.9919699430465698
2.24780011177063
2.4800000190734863
FIELD FieldData 2
Curvature 1 88 float
0.14264459707
0.14348774246
0.13513575464
0.11604767548
0.085543128016
0.047102051394
0.031263162346
0.077982312938
0.12712136452
0.1501889334
0.13747010125
0.096761175879
0.046672871237
0.033238765104
0.09225089849
0.16915934685
0.24975109484
0.30754689157
0.29505450535
0.24516427013
0.20268874646
0.1734530125
0.15089091596
0.12953348571
0.10842874016
0.088685008508
0.073386107297
0.075338563409
0.11470053491
0.211942602
0.43032635401
0.85387664832
0.68429554733
0.36073337284
0.23153087921
0.17821640142
0.14112337371
0.092714907927
0.040484996511
0.029931071472
0.077634893749
0.12681647456
0.16476334571
0.18381495983
0.18775094277
0.19562677315
0.22101386896
0.27859687558
0.37130786253
0.44440610386
0.36755115714
0.21348785462
0.098899808031
0.05914943991
0.11182677623
0.17122958161
0.20288215184
0.19429505135
0.16172749111
0.13948336632
0.14370572664
0.17085431813
0.21224386441
0.2547891283
0.26670765906
0.22468949173
0.14964806782
0.079641309152
0.043786152617
0.03993821631
0.034219726534
0.024266588826
0.041802950475
0.074220372597
0.098135393769
0.10038066148
0.079396017513
0.040386259935
0.027964415827
0.097562209204
0.18648226708
0.28912022402
0.35879509349
0.33275211248
0.25934494961
0.19734352997
0.15539101942
0.12735165753
Torsion 1 88 float
-0.020139379972
-0.030655106227
-0.047883559558
-0.078968279829
-0.16017089666
-0.57075904444
-1.4677720337
-0.29065149639
-0.14873002891
-0.11505288353
-0.084696898391
-0.014787176374
0.39925320962
1.0486387127
0.079211294844
-0.054111064266
-0.10557712098
-0.14447757341
-0.1828554902
-0.1941158722
-0.16218785851
-0.12176838848
-0.094770187955
-0.08824394892
-0.1070622744
-0.17051069149
-0.30584733797
-0.36078689952
-0.19284944516
-0.055606082901
0.027073717637
0.11999794632
0.13536657439
0.083640190497
0.030077458265
-0.035433331471
-0.13738696848
-0.25101828169
-0.72066836409
-1.0519722875
-0.20821031255
-0.052880372917
0.029195844957
0.072619427415
0.088723165216
0.084495489157
0.073129904433
0.056763480267
0.047536896982
0.051708223525
0.082731079897
0.16460739145
0.51855870755
1.1975326498
0.3404040838
0.17389559601
0.15564114637
0.19267786953
0.25951081772
0.27588681955
0.17933853281
0.050811384616
-0.024155325794
-0.07594133499
-0.11703164865
-0.16003572859
-0.25375473142
-0.53755129098
-0.9229899968
-0.60632849097
-0.60935316381
-1.4011452525
-0.63582755344
-0.24745004546
-0.13882112477
-0.10807321386
-0.13805582449
-0.48384041843
-1.1904455498
-0.13868773139
-0.055784744259
-0.023740934749
0.0065762887237
0.03134681341
0.043144695342
0.041983033707
0.036940312445
0.032130339695
