# vtk DataFile Version 2.0
Vessel Segment
ASCII
DATASET POLYDATA
POINTS 109 float
0.0 0.0 0.0
-0.4291250762368724 -0.031957945328729774 0.4070427689766389
-0.8899259210933305 -0.019647499166144052 0.7792288922994498
-1.374394758516123 0.019647499166144052 1.1181555899684383
-1.8777304220831927 0.07125294366101788 1.4266628658846738
-2.3970683393481966 0.1224452556329221 1.7074744598785545
-2.930479429759891 0.16174025396521022 1.962660549674469
-3.4761054435479517 0.17801496630448777 2.193226875922597
-4.031283030472087 0.159846165512907 2.3994714358526217
-4.591550274625921 0.09510400980950827 2.580859188983976
-5.149343803140171 -0.02893959460080439 2.736858481168248
-5.692892443248013 -0.2244709283682488 2.867351919557381
-6.20649574810487 -0.4991272992808366 2.9738768989499667
-6.6747430844598075 -0.8510146188862645 3.0607532503990234
-7.089538860906437 -1.2672896580961501 3.1344917618621695
-7.454327541635584 -1.7292508331931156 3.201484699671583
-7.781950098180859 -2.219029598170034 3.2643338957000636
-8.089215154584723 -2.722949686228272 3.3182476899475954
-8.39002924823238 -3.2326716900462467 3.347778763898225
-8.689541297166254 -3.7429264767900183 3.3219162164493747
-8.97692181115309 -4.244123953795244 3.194975040491349
-9.21612892828464 -4.7153185279028405 2.930792594935687
-9.36644764827808 -5.1394069641728235 2.547244198453827
-9.41509400285775 -5.523782754478008 2.099899561717335
-9.369110434129679 -5.88721069406934 1.6346818638641747
-9.238795342567402 -6.2427665401765475 1.1793477407955
-9.036812481655058 -6.594536466933919 0.7476852082710748
-8.778371562269028 -6.941511347359118 0.3429507890470939
-8.478148947971194 -7.282566919176523 -0.03746073508139852
-8.147863041185628 -7.618416569693558 -0.3971004977681247
-7.795620721092566 -7.951483783956166 -0.7379799803134449
-7.425979990773297 -8.285498042444926 -1.0589162240177084
-7.040301026976943 -8.625726220439008 -1.35322009409644
-6.636512523201728 -8.98045467272289 -1.6023107860124752
-6.211591049221496 -9.363114721402626 -1.7511491144652744
-5.814194247389765 -9.764240439326242 -1.6228466329807425
-5.652152609862717 -10.037594201136352 -1.1357317826328086
-5.702485357855819 -10.17737860618276 -0.5642261486379467
-5.876002710669126 -10.250170073419755 -0.0031955687773959447
-6.14358108298805 -10.275262794691924 0.5241613241289776
-6.491715782176504 -10.251591204147676 1.0022211222931354
-6.902765710870471 -10.170987468627969 1.420507642803381
-7.350110347606964 -10.025876363100977 1.7803844487409914
-7.804912252138534 -9.814957536018992 2.0958156451378156
-8.24373518400574 -9.543673951933272 2.3869837716405655
-8.649653690706756 -9.221496053105328 2.674009285139767
-9.00911567095532 -8.85960776586736 2.975237075699088
-9.30738550037682 -8.470792494106329 3.307712810611871
-9.522979723388149 -8.072744952112053 3.6888941609170445
-9.620863911897313 -7.697599174485345 4.1346415776535315
-9.54742114010908 -7.414007401791808 4.644718017570447
-9.275842380737139 -7.331154012943472 5.1573985469149335
-8.892056941004395 -7.483899039926319 5.576573415227302
-8.503714626967747 -7.80495267647864 5.8849034730940675
-8.163072187673311 -8.232945553723901 6.110084966826276
-7.891552124725399 -8.731068241131942 6.279044880946988
-7.696375227056896 -9.273930020200913 6.412733888113517
-7.5735168389010035 -9.84176599891661 6.528135572863023
-7.508891511656969 -10.420078160544003 6.639808905909336
-7.479893220632136 -10.999454759245605 6.76106950967653
-7.455451803911206 -11.573741700717509 6.905115049351928
-7.393785566582376 -12.134416715701732 7.085733540695293
-7.245775196341594 -12.659643605682305 7.313933385155428
-6.9790490509484675 -13.110183811196192 7.587820494280027
-6.6056737606503875 -13.455087385119619 7.889936632641471
-6.164838783094129 -13.695123024851878 8.203534130176099
-5.688714273756833 -13.847158050859457 8.52115515470014
-5.196208664811707 -13.925867697926861 8.840729528489202
-4.6982643242305215 -13.94030814701525 9.161357615967317
-4.202089624394925 -13.895449404951494 9.481979495169812
-3.7129395884215426 -13.7950796486402 9.80087886008255
-3.233791084469395 -13.64564871206019 10.115807750542977
-2.763643874678056 -13.459171301699138 10.42467651741681
-2.296485244111108 -13.25422935087159 10.726366542315356
-1.822515006413395 -13.05408131759883 11.02051718086405
-1.3320926266811746 -12.884291752100024 11.306411941617666
-0.8207244421441129 -12.768771545725075 11.582163226593861
-0.292099262022629 -12.72456410821256 11.84554565117779
0.24336186449198746 -12.757172229315142 12.096565423645067
0.7734587939522573 -12.861507380580512 12.339459692105253
1.287529694840918 -13.028633031450335 12.581880720646707
1.7759221800916831 -13.250678217217867 12.833083919439074
2.2275697162204158 -13.523263281628683 13.10254424585341
2.6272861555786555 -13.84479100468277 13.3984051232378
2.953843992855376 -14.215083039553278 13.724986382645264
3.181167906064624 -14.63106233908825 14.078962434253349
3.286816672011977 -15.082668110453733 14.446004260466161
3.264233505061371 -15.553093987162034 14.804037649473774
3.1267808718983625 -16.025294301919814 15.133259048636546
2.8994984412580194 -16.48879569375883 15.423362755702232
2.607851430949615 -16.939809421385796 15.673224402572334
2.272830867421982 -17.37898791812933 15.88761739480009
1.9104453537458475 -17.809229319925834 16.07406538640054
1.5328918939565872 -18.234618672132218 16.24056950422266
1.1500240091408074 -18.66024450320079 16.39398304961187
0.7707364650935907 -19.092142950198713 16.538448353377376
0.40413736653581633 -19.53771258449704 16.673652038697618
0.060760605122996594 -20.005599276477415 16.793125505669753
-0.24611784502644907 -20.504146948570973 16.883547346885607
-0.500311457306459 -21.03720924677065 16.926352560691406
-0.6869229077773571 -21.598535566306115 16.904432127163062
-0.8007398001013113 -22.172071024233844 16.81185022932353
-0.8500968875978339 -22.741422386589125 16.65647783187954
-0.8510721865329078 -23.29757664814577 16.45234084042479
-0.8204072380617354 -23.838444300866676 16.212228020538817
-0.7728510178789336 -24.365440267204146 15.945359719743747
-0.7215944207121583 -24.881150505598995 15.657855181341716
-0.6799509183559141 -25.388187853503535 15.353870140373377
-0.6639541487082646 -25.88855141865743 15.036792280440576
LINES 1 110
109 0 1 2 3 4 5 6 7 8 9 10 11 12 13 14 15 16 17 18 19 20 21 22 23 24 25 26 27 28 29 30 31 32 33 34 35 36 37 38 39 40 41 42 43 44 45 46 47 48 49 50 51 52 53 54 55 56 57 58 59 60 61 62 63 64 65 66 67 68 69 70 71 72 73 74 75 76 77 78 79 80 81 82 83 84 85 86 87 88 89 90 91 92 93 94 95 96 97 98 99 100 101 102 103 104 105 106 107 108
POINT_DATA 109
SCALARS MaximumInscribedSphereRadius float
LOOKUP_TABLE default
0.9300000071525574
1.2057499885559082
1.4747200012207031
1.5082000494003296
1.3882900476455688
1.276319980621338
1.261929988861084
1.2475099563598633
1.1811399459838867
1.0575300455093384
0.9309970140457153
1.058650016784668
1.190619945526123
1.2400000095367432
1.2400000095367432
1.2400000095367432
1.2400000095367432
1.2400000095367432
1.2400000095367432
1.2400000095367432
1.3578599691390991
1.5258599519729614
1.5499999523162842
1.5499999523162842
1.1809500455856323
0.7826370000839233
0.691307008266449
0.8106759786605835
0.9252660274505615
1.1437900066375732
1.365630030632019
1.5792299509048462
1.7463899850845337
1.9328099489212036
1.8196699619293213
1.6473400592803955
2.0650200843811035
1.9272899627685547
1.6177899837493896
1.6614700555801392
1.8022500276565552
1.8600000143051147
1.8600000143051147
1.8600000143051147
1.8600000143051147
1.8600000143051147
1.9872499704360962
2.1847500801086426
2.3299100399017334
2.0983400344848633
1.8600000143051147
1.8600000143051147
1.8600000143051147
1.8600000143051147
1.8600000143051147
1.7360700368881226
1.6158000230789185
1.6233700513839722
1.7884299755096436
1.9561400413513184
1.84798002243042
1.6760400533676147
1.5742199420928955
1.559730052947998
1.5935399532318115
1.7267600297927856
1.8534899950027466
1.8600000143051147
1.8600000143051147
1.8600000143051147
1.8600000143051147
1.8600000143051147
1.9725600481033325
2.1005001068115234
2.109950065612793
1.979099988937378
1.871999979019165
2.0015299320220947
2.1278200149536133
2.2504100799560547
2.3702199459075928
2.4717700481414795
2.361599922180176
2.248579978942871
2.1685800552368164
2.1183300018310547
2.05856990814209
1.9643000364303589
1.872380018234253
1.8600000143051147
1.8600000143051147
1.9428000450134277
2.178499937057495
2.4132699966430664
2.4800000190734863
2.4800000190734863
2.4800000190734863
2.4800000190734863
2.4800000190734863
2.274049997329712
1.998579978942871
1.9262800216674805
2.0569798946380615
2.157589912414551
2.0362401008605957
1.9170900583267212
1.7360199689865112
1.493190050125122
1.2400000095367432
FIELD FieldData 2
Curvature 1 109 float
0.14142749107
0.11162831794
0.086031197842
0.066800103994
0.055483180679
0.053499020196
0.060307227229
0.073478165414
0.091043938634
0.11147236974
0.13290943752
0.15056839897
0.15662294682
0.14481033317
0.11665255027
0.078626973915
0.045993881861
0.061456590398
0.11776992599
0.19346631725
0.26350550801
0.27379177295
0.22705498997
0.1811371146
0.15724631185
0.13981388531
0.11741927998
0.091619971025
0.067001327048
0.048791853807
0.047551251662
0.074047543921
0.13331612037
0.25510867471
0.55324780115
0.91433145248
0.48310895439
0.26002253072
0.19346195744
0.18182439156
0.17892971001
0.16476342082
0.14204225894
0.11989864604
0.10559030596
0.10579173244
0.12629113694
0.17143990845
0.24757355843
0.36725859367
0.5050889925
0.4951277103
0.3582714122
0.25526813102
0.19816820313
0.16430889715
0.13472461249
0.10080325339
0.06526963965
0.055890949203
0.10858043626
0.19004920304
0.25791899306
0.26580672237
0.21956410286
0.16646812636
0.12928330561
0.10890297219
0.099760896847
0.095268897796
0.087000533815
0.067498516785
0.036907955984
0.022662755444
0.061158937495
0.10085754535
0.12794656276
0.13573104145
0.12632298633
0.11147561621
0.1032168886
0.10927020746
0.13028847444
0.16122399822
0.19475236379
0.21860195689
0.22192809142
0.20326720266
0.17004542299
0.13386319966
0.099494223035
0.068920319997
0.042868220009
0.024302839357
0.024617617617
0.042543442076
0.068179355864
0.10083297661
0.13772040723
0.16777404242
0.17596680777
0.1578131065
0.12515378818
0.090679283399
0.060694109826
0.039906948561
0.03988483289
0.064145429022
0.10631519677
Torsion 1 109 float
-0.092431001725
-0.12974083094
-0.18666856134
-0.26862204381
-0.34736486624
-0.34429140383
-0.25958410386
-0.17865557349
-0.13093324419
-0.10766042183
-0.096684290828
-0.091530507814
-0.087188099753
-0.082518832754
-0.066792997005
0.039128022261
0.50889021486
0.3399370892
0.031072257347
-0.072670713864
-0.15200676586
-0.22238118839
-0.2778441041
-0.27048352415
-0.18522608151
-0.073892462793
-0.01319286497
-0.005714624666
-0.044353501768
-0.14009171239
-0.19486325735
-0.1042933261
-0.045013341789
-0.025235061935
-0.033764126332
-0.10093433238
-0.12093583833
-0.099437424444
-0.019864983267
0.063047892995
0.15886496822
0.24414950934
0.31227551923
0.3624362024
0.39158252301
0.36225392743
0.27027049741
0.17949392405
0.12469786658
0.10756070332
0.11777510008
0.14418742171
0.17693881727
0.20180791982
0.20446520924
0.18512230825
0.17706662204
0.22988770578
0.50768207277
0.83038669887
0.30155053715
0.11504331718
0.036351105671
-0.012911099806
-0.04600104732
-0.063688688446
-0.067759966
-0.05563734027
-0.036979043363
-0.015295746813
0.017014863525
0.080678711311
0.41488607772
1.3218111988
0.1866686981
0.074437434609
0.061788131682
0.083922849076
0.13126406818
0.18808380826
0.22200651711
0.18413347319
0.10202924309
0.034899698601
-0.0084833150162
-0.040895674754
-0.057425107721
-0.06604642765
-0.068500681274
-0.065991838597
-0.062222800906
-0.075980041776
-0.16371641356
-0.55455675451
-0.53437127977
-0.091364449985
0.047683859108
0.078156069452
0.071952643632
0.056570470146
0.04356959957
0.041075111165
0.055370849665
0.098372717582
0.21225601812
0.4919950687
0.52871442805
0.245430118
0.12346805164
