# vtk DataFile Version 2.0
Vessel Segment
ASCII
DATASET POLYDATA
POINTS 108 float
0.0 0.0 0.0
-0.4223618923285851 0.09522070861381572 0.41169488280236893
-0.8892081822148095 0.22369478906605375 0.762074812294901
-1.3879899503835909 0.36855346889017965 1.0581091533047617
-1.9102387405082153 0.5157966443776117 1.3092733778743642
-2.4504018789104514 0.6542201409578676 1.5252213974260735
-3.0045909776830135 0.7741700472085824 1.7151297696269698
-3.56966075861511 0.8660560988747623 1.887756799329978
-4.142274575785125 0.9188514242093166 2.05156528668237
-4.717414816118901 0.9181944945175193 2.2145395415195734
-5.285928931706693 0.8456776397503207 2.3837103027230038
-5.831620707426468 0.6812724602038218 2.5624156369099778
-6.332764012212521 0.4141384794068056 2.746901497762145
-6.773997431736288 0.05339088097210083 2.92566593289025
-7.15784156430916 -0.3758842587034897 3.08560103548547
-7.503125742464022 -0.8462731953878672 3.215741307854966
-7.83479454130593 -1.3354335002205588 3.306256672309541
-8.17409020294508 -1.8260849672602373 3.3457042774010697
-8.532156096175987 -2.3038637946990552 3.3200806097512907
-8.907622102065321 -2.756017817931534 3.2129408324906255
-9.283803002031025 -3.172302116124003 3.0083151893916593
-9.627686942503717 -3.5486023545285272 2.69774088030712
-9.895298277056018 -3.8890896957210517 2.287117770341023
-10.043077338961584 -4.204431859575642 1.802843522160644
-10.042183437226985 -4.506960484770504 1.2888949187499226
-9.896072840351795 -4.802399270142818 0.7914513897064706
-9.6382341873824 -5.088484195024661 0.3348261529661527
-9.310677450175307 -5.359907540279884 -0.08521105498810702
-8.94885694234777 -5.613098245196328 -0.48838630981519354
-8.57929080156245 -5.846983400381163 -0.8963271462992116
-8.220390107538075 -6.063347399633907 -1.3228609115515924
-7.878949195391541 -6.269464204939859 -1.7684615496579401
-7.550021770972842 -6.478678126872365 -2.2219885332151446
-7.223347001656466 -6.7073783110295535 -2.667589171321492
-6.88816851615665 -6.973082503673834 -3.085244156725566
-6.536448586479638 -7.293072047303095 -3.4468850886165905
-6.166786974943261 -7.679800192147483 -3.710920816230493
-5.790844183576921 -8.12909577563105 -3.8164523659584715
-5.4414127105338785 -8.594837332540758 -3.6998371166553925
-5.158791157630114 -8.991397828187463 -3.359410012960559
-4.955142384894643 -9.261153844968867 -2.8690574602962142
-4.816796174160481 -9.399696679987944 -2.3054708856751827
-4.727455440910876 -9.423532544168523 -1.7154877849434338
-4.677478775845625 -9.351608971925751 -1.124490875759984
-4.664768663832874 -9.203294023602048 -0.5457096764855971
-4.693573553294661 -8.99938213802289 0.015433301530997897
-4.772706872077082 -8.762936320907917 0.558759618909849
-4.913138379960077 -8.519041512097374 1.0860559425635958
-5.1250286084527215 -8.29534672303132 1.5980985406228565
-5.412131035595086 -8.121468344555527 2.0922642405466827
-5.76660967218285 -8.024815574675856 2.563071430045215
-6.169349341708239 -8.024934913114677 3.003964450879202
-6.594857364665036 -8.131955351936522 3.408986610116618
-7.01547933096952 -8.348022709927053 3.7736075933084954
-7.40367306549829 -8.667534899801028 4.09574181916686
-7.733434722432177 -9.078694464463542 4.376283189426312
-7.982156486953904 -9.563981384539062 4.619582442599309
-8.133271910641948 -10.100694079294092 4.8335045500824565
-8.1785591433398 -10.663206607965732 5.028894534573212
-8.118732510845549 -11.226256727890346 5.219159785534012
-7.961776891272901 -11.766722332407166 5.419436394955361
-7.719550547492736 -12.263807846134155 5.645395204689339
-7.405996755385625 -12.697193910888 5.911159066553031
-7.0380513442551536 -13.047572703823972 6.224891298040094
-6.634459541448753 -13.30290922752608 6.583553315186826
-6.211221790220962 -13.465049249848095 6.972843258517911
-5.777299839048981 -13.547042713214266 7.375600828809123
-5.3348389384401935 -13.565515166987247 7.777244005393056
-4.882015483393755 -13.535898776141474 8.166557816411906
-4.4160409323892065 -13.470769539015595 8.535564203091326
-3.9352169857864645 -13.38025417456102 8.879329373403476
-3.4398655732312062 -13.272757518540452 9.196601126158152
-2.9321016844124 -13.155963829857422 9.49010350329102
-2.414976618520266 -13.037561913641703 9.766193833921577
-1.8915029963045848 -12.926728327560378 10.03330423116997
-1.3638224588177268 -12.834485397134294 10.299115828409189
-0.8335300522000849 -12.773288645706717 10.568562133527939
-0.3027979890996293 -12.7559482022677 10.843305928773795
0.2246121322797077 -12.792832872315971 11.1223578416611
0.7431196061229738 -12.889724319073284 11.403626608119083
1.2460269887600322 -13.047215825064068 11.685836869617622
1.726082338988937 -13.261852258345304 11.970138537256506
2.174978706980734 -13.529404491956473 12.260399028870966
2.581192261632383 -13.847426656180025 12.562255522930037
2.9258865669324994 -14.216159701006715 12.88186332562464
3.176866669339349 -14.636911803037343 13.22292764685843
3.2871467523758557 -15.102356718684836 13.578570854349737
3.2215219765897287 -15.584128269319649 13.92294771407498
2.9994067170032173 -16.046890343206783 14.22709053372447
2.6756216427411577 -16.479084160128973 14.482720786262604
2.298445687506997 -16.890601171829672 14.696815579308117
1.9012896362227463 -17.298781253469613 14.879197460862994
1.508698280223411 -17.721142719589487 15.037440159705287
1.1402459648670893 -18.171391874027066 15.175267816508857
0.8100015555342555 -18.655725791426857 15.29241255909942
0.5216061532350899 -19.171104751268594 15.385298780538578
0.2650248159604193 -19.707488981177725 15.44849217770329
0.02096904232703712 -20.252668454027987 15.476158947839604
-0.22999891313157528 -20.795207705988897 15.463252069472368
-0.49922479731243036 -21.326056053032417 15.406923331861712
-0.7877930272435318 -21.840040742113928 15.30685080536196
-1.087945858536251 -22.33715637458976 15.16438102535781
-1.3835178022203067 -22.82352188684091 14.981087412337297
-1.64773322647436 -23.310971958189636 14.757673068602474
-1.8354810579303988 -23.813581420938352 14.49556202848849
-1.877132659296517 -24.33306626238861 14.207066502659849
-1.7186695039989373 -24.83490812325048 13.929364179652998
-1.3918610874517137 -25.276972496590137 13.698284155940678
LINES 1 109
108 0 1 2 3 4 5 6 7 8 9 10 11 12 13 14 15 16 17 18 19 20 21 22 23 24 25 26 27 28 29 30 31 32 33 34 35 36 37 38 39 40 41 42 43 44 45 46 47 48 49 50 51 52 53 54 55 56 57 58 59 60 61 62 63 64 65 66 67 68 69 70 71 72 73 74 75 76 77 78 79 80 81 82 83 84 85 86 87 88 89 90 91 92 93 94 95 96 97 98 99 100 101 102 103 104 105 106 107
POINT_DATA 108
SCALARS MaximumInscribedSphereRadius float
LOOKUP_TABLE default
0.9796000123023987
1.1110199689865112
1.2400000095367432
1.1740200519561768
1.0311399698257446
0.9300000071525574
0.9300000071525574
0.9300000071525574
1.0275399684906006
1.1564500331878662
1.2460500001907349
1.2627500295639038
1.2746000289916992
1.2577300071716309
1.2414300441741943
1.2400000095367432
1.2400000095367432
1.2400000095367432
1.2400000095367432
1.2443000078201294
1.2779699563980103
1.313330054283142
1.2185200452804565
1.1232500076293945
1.4456700086593628
1.739840030670166
1.4879900217056274
1.2464799880981445
1.2400000095367432
1.2400000095367432
1.1231800317764282
0.9853609800338745
1.0098299980163574
1.1439499855041504
1.3187299966812134
1.598140001296997
1.8600000143051147
1.8600000143051147
1.8247499465942383
1.6550899744033813
1.6065399646759033
1.7590800523757935
1.8149299621582031
1.6728899478912354
1.5669499635696411
1.7056599855422974
1.8439799547195435
1.737529993057251
1.5987999439239502
1.6468900442123413
1.7955800294876099
1.8804999589920044
1.86968994140625
1.8600000143051147
1.8600000143051147
1.8600000143051147
1.957200050354004
2.087470054626465
2.1265299320220947
2.007309913635254
1.885699987411499
1.63264000415802
1.3698699474334717
1.3554099798202515
1.4756100177764893
1.650920033454895
1.9157999753952026
2.165839910507202
2.038439989089966
1.9105199575424194
1.8600000143051147
1.8600000143051147
1.8600000143051147
1.8600000143051147
1.8600000143051147
1.868299961090088
1.878790020942688
1.880329966545105
1.8699100017547607
1.8658000230789185
1.9902600049972534
2.114140033721924
2.1700000762939453
2.1700000762939453
2.15693998336792
2.018239974975586
1.8702600002288818
1.8600000143051147
1.8600000143051147
1.8415700197219849
1.8206499814987183
1.9510400295257568
2.233139991760254
2.499769926071167
2.5237300395965576
2.547410011291504
2.4969398975372314
2.415800094604492
2.3787999153137207
2.4279699325561523
2.4769198894500732
2.3591699600219727
2.228559970855713
2.1700000762939453
2.1700000762939453
2.1700000762939453
2.1700000762939453
2.1700000762939453
FIELD FieldData 2
Curvature 1 108 float
0.16800965715
0.13960371263
0.11161693648
0.08816516751
0.070325189569
0.059058592647
0.057589141773
0.068892058442
0.092719733163
0.12658965482
0.16428813448
0.1914832373
0.18919128462
0.15806882918
0.11323471947
0.079541805999
0.085871523281
0.11647239519
0.14973653626
0.18001173888
0.20407624148
0.22553980391
0.24304207077
0.2586849448
0.24940605806
0.2043522291
0.13718647505
0.072853656806
0.038058263537
0.050734863791
0.053303151348
0.032854921792
0.035935176951
0.078546907008
0.13557210499
0.20611016225
0.29503252447
0.38890985699
0.42081015123
0.3623098951
0.27905361781
0.21599306455
0.17410317499
0.14387605149
0.11957537703
0.10424379262
0.10634964685
0.12697960518
0.15466686829
0.17710848028
0.18867382161
0.19304615469
0.19536894972
0.19515711895
0.19508003388
0.19437016555
0.19161058361
0.18548620902
0.17629960261
0.16756167772
0.16586910343
0.17403235761
0.18598326282
0.18745844018
0.16857259672
0.1382510259
0.10799783264
0.084987380388
0.071698627468
0.064867733738
0.058278460987
0.047941492572
0.033585063937
0.022546300222
0.031956932425
0.052603663601
0.073903430508
0.091720062777
0.10288970112
0.10657512813
0.10407832615
0.10239149728
0.11179594684
0.14029800512
0.19145798049
0.25856791299
0.3057716067
0.28019707468
0.20505153957
0.12745965865
0.066957504269
0.047266432692
0.072242154088
0.094984321174
0.098021440727
0.081477462399
0.064714783689
0.069507465358
0.082072497262
0.085535970886
0.079065965222
0.071745358934
0.089060128729
0.15074006048
0.25391117969
0.35500896111
0.35853957505
0.28958928871
Torsion 1 108 float
0.082843836088
0.11217722556
0.15064884759
0.20084169211
0.26866914082
0.35103085155
0.3722140078
0.28032748775
0.16683912508
0.084276234083
0.027794220329
-0.02225424359
-0.076419637393
-0.14778749028
-0.33655588773
-0.64271627601
-0.41186434806
-0.085712634318
0.059782080304
0.16051068426
0.24086936468
0.27718595905
0.28817593656
0.24004176388
0.14154604819
0.03520176574
-0.10646279733
-0.42779811279
-1.2409210838
-0.43231427488
-0.26471674087
-0.79489978822
-0.75403010016
-0.17432632621
-0.063392619173
-0.041371188033
-0.051911580899
-0.07967950403
-0.10382581406
-0.10384883273
-0.091711204641
-0.062722694787
-0.004147597248
0.095692372659
0.2427567984
0.3985449395
0.41959274753
0.31238558566
0.23109705061
0.18662557484
0.16282303393
0.14918870537
0.14191222676
0.14461721025
0.15086721368
0.16039581523
0.16821498445
0.17925608201
0.20014157666
0.22683735356
0.23304278408
0.19743067868
0.13116102894
0.045576187779
-0.028045750206
-0.095678459015
-0.17575315109
-0.25332252578
-0.27044809846
-0.22164180622
-0.16728148712
-0.17621849149
-0.36725191281
-0.96147871088
-0.42786655861
-0.083584161229
-0.0014456202351
0.0082175868262
-0.012026828932
-0.047194570945
-0.10244040581
-0.14590698428
-0.14426478542
-0.099415511171
-0.050599381759
-0.012759175191
0.015752863166
0.042052254686
0.07913274145
0.17836585075
0.56767839381
0.93818932836
0.27258182066
0.042395748148
-0.1097841523
-0.34366327854
-0.64103483131
-0.44680626993
-0.13363413205
0.025680071129
0.21776080768
0.50276704084
0.52186070255
0.28048656003
0.14472538831
0.076568512596
0.037419931914
0.01811951159
