# vtk DataFile Version 2.0
Vessel Segment
ASCII
DATASET POLYDATA
POINTS 58 float
0.0 0.0 0.0
-0.38690311972879354 0.5635901957762505 0.8901445843205444
-0.7002703784681353 1.1952423093852216 1.7637501012917598
-0.9590996416324982 1.859303235982877 2.6313210648841956
-1.185072456269659 2.5261586872995645 3.506043539103903
-1.4014338964155035 3.1718900043938194 4.398759896173122
-1.6340008088545914 3.7813010265318665 5.312631295632909
-1.9119856756708096 4.350256453976923 6.239723397563037
-2.26595347775371 4.884008543714263 7.161663960504057
-2.7248172076959336 5.389039484661183 8.05268090122526
-3.3113636460058355 5.864677823509908 8.882388293052502
-4.036901451924945 6.296396721236635 9.620879285917745
-4.896079249170173 6.654688469461837 10.246271962579776
-5.864711396175297 6.902902375569922 10.754129935112216
-6.905292962505388 7.008512388693071 11.15912632343806
-7.976082999992567 6.951067959514431 11.488228770705478
-9.036926202784267 6.721520455362535 11.771410206514382
-10.052451902745277 6.325565505565573 12.03667689504219
-10.997246391525431 5.782647545277631 12.304044539654052
-11.859178812643325 5.119258071987753 12.580498119898925
-12.639168584182356 4.361880056793766 12.859309780212774
-13.347515353580523 3.531413816148846 13.121402519612712
-14.001300047009787 2.6433901716417547 13.331114840088354
-14.622602520551043 1.7136831321074522 13.420196310626324
-15.22942138653643 0.7900106459519292 13.250873105637208
-15.791079022455019 0.016093563408613874 12.67810664777107
-16.257899740544122 -0.5412403928174007 11.825444612108528
-16.653173378393472 -1.0002266896332659 10.880158257135456
-17.00350973717015 -1.4662536539906743 9.92066773375593
-17.313590871447264 -2.0002295614972727 8.983249106271758
-17.573940496744235 -2.6304279254049625 8.091851675342815
-17.76856550119889 -3.3560664493202386 7.2581773800051845
-17.88216634158403 -4.156136105302002 6.479230259547501
-17.90355692553177 -5.0023612485005495 5.742035278146159
-17.826600915868262 -5.867360439344311 5.030779710403018
-17.65100788239292 -6.729343419297583 4.33343814731547
-17.382053529666848 -7.5755674966972295 3.646522229079781
-17.02892317907059 -8.405028688978287 2.9776566810353686
-16.602167440377176 -9.230802217061079 2.3481287046365544
-16.11258205710692 -10.08250343501416 1.8059951723399206
-15.580897350788248 -11.007852422841323 1.46982940930431
-15.107282031478926 -11.996903145196262 1.6148899687565876
-14.877732928628678 -12.818429464657642 2.3279009072900587
-14.849290752700657 -13.41986191622106 3.2730300569251987
-14.918032517007502 -13.906776407444829 4.282174285965079
-15.024045268890454 -14.355715418018773 5.305937012734266
-15.126045954034577 -14.821172712863472 6.322613775508608
-15.188272489658187 -15.34555962765568 7.31316194531978
-15.177767176338461 -15.955607997536665 8.25496153918747
-15.071665030572667 -16.650781725659105 9.129382392318128
-14.865394840873421 -17.403321013841495 9.936123416522157
-14.570389698503966 -18.175785945381882 10.69542386648424
-14.20743601265991 -18.93639386414605 11.437278787131499
-13.805732942938874 -19.666603599548715 12.189705899979533
-13.40703829045386 -20.366795375347884 12.971648048574544
-13.07619700893219 -21.06318757806416 13.787318469197963
-12.924698059277034 -21.808842205019175 14.609406065005706
-13.108938484402923 -22.640349764496815 15.329819243357962
LINES 1 59
58 0 1 2 3 4 5 6 7 8 9 10 11 12 13 14 15 16 17 18 19 20 21 22 23 24 25 26 27 28 29 30 31 32 33 34 35 36 37 38 39 40 41 42 43 44 45 46 47 48 49 50 51 52 53 54 55 56 57
POINT_DATA 58
SCALARS MaximumInscribedSphereRadius float
LOOKUP_TABLE default
0.6200000047683716
1.132099986076355
1.4548200368881226
0.9427210092544556
0.7535809874534607
1.1158100366592407
1.1705299615859985
0.9779220223426819
0.9300000071525574
0.9300000071525574
1.030869960784912
1.0963499546051025
0.9920840263366699
0.998412013053894
1.1677600145339966
1.1456799507141113
0.9820399880409241
0.9473739862442017
0.9726300239562988
1.1010500192642212
1.2697900533676147
1.5233299732208252
1.821720004081726
1.5663399696350098
1.3803800344467163
1.580299973487854
1.5580600500106812
1.446720004081726
1.2858099937438965
1.422260046005249
1.5499999523162842
1.5499999523162842
1.5499999523162842
1.5499999523162842
1.5974500179290771
1.7515300512313843
1.8319900035858154
1.7353099584579468
1.5929800271987915
1.3456799983978271
1.3748300075531006
1.6284699440002441
1.8723399639129639
2.0772500038146973
2.0878400802612305
1.929479956626892
1.9960600137710571
2.1531898975372314
2.324779987335205
2.5171399116516113
2.862600088119507
3.0469698905944824
2.8741400241851807
2.795599937438965
2.8067800998687744
2.627540111541748
2.236409902572632
1.5499999523162842
FIELD FieldData 2
Curvature 1 58 float
0.12413575572
0.090254215618
0.056463411904
0.030095458022
0.0268152591
0.041150380269
0.055893826676
0.0746276552
0.10050866342
0.12883471554
0.15342952944
0.16997928443
0.17465426663
0.17046552308
0.16312222109
0.16034081564
0.15600867515
0.14655531976
0.1309520606
0.11071497764
0.094512431342
0.10042567418
0.15343190742
0.27481882629
0.42780864517
0.3502905679
0.1747973249
0.087788577995
0.086366100393
0.1098161583
0.11868169147
0.11192598918
0.10112404299
0.093716018362
0.089604717994
0.08485522374
0.078992553147
0.08504534018
0.13115803191
0.24814489322
0.48660740452
0.64270015063
0.37286205469
0.17994611584
0.071065224308
0.022075927039
0.068483414811
0.11150021773
0.13131130675
0.12085213574
0.091906782515
0.063995988328
0.052934986915
0.062924884311
0.099854033615
0.18648815847
0.33416531261
0.43235977488
Torsion 1 58 float
-0.066424429811
-0.13037563416
-0.31217500056
-0.91831412891
-1.0031367664
-0.51702008898
-0.45134670686
-0.3369738137
-0.18763219598
-0.060924584023
0.041629458404
0.11946910063
0.18671309314
0.22369084442
0.23490863018
0.21901507414
0.18289958566
0.12573417016
0.041696941999
-0.073106414005
-0.24355338994
-0.37200515719
-0.2691860631
-0.15838545846
-0.075171783898
0.046841178146
0.1734040206
0.42062064136
0.20040197035
-0.014251881199
-0.12235798344
-0.20500893257
-0.26223656899
-0.25908991229
-0.17391146548
-0.03696618876
0.15412931142
0.32882398696
0.26682900395
0.15114924864
0.094066608432
0.059239716961
0.0387263702
0.039347271204
0.099059537027
0.75148449943
0.094261798522
0.071387523468
0.10963423214
0.18376562614
0.32605286473
0.54534457624
0.59385792732
0.45930729448
0.37172015611
0.23601291957
0.14370181101
0.070793774781
