# vtk DataFile Version 2.0
Vessel Segment
ASCII
DATASET POLYDATA
POINTS 79 float
0.0 0.0 0.0
-0.7912420620258368 0.20746482301392702 0.06348304997233468
-1.5959835367795991 0.3459650683535945 0.14169117165633024
-2.4102135313043282 0.3934966074529495 0.2272626093737398
-3.223217086667738 0.32281251838457636 0.3053880322338805
-4.012332384600855 0.10782366275502696 0.3533268240318414
-4.746310192172724 -0.2559731444478693 0.34874562126131725
-5.407315649823708 -0.7370025560632382 0.28673554656669875
-6.009419260272882 -1.2847855220811253 0.18423113457622114
-6.585179394436374 -1.8568663387606614 0.06274656233347659
-7.162986714579065 -2.4250197414846766 -0.06626360288005745
-7.757564732057449 -2.9729665447951064 -0.20656293772735926
-8.369075723808901 -3.4929361799599303 -0.3763966751770047
-8.986068243262277 -3.9819811360685495 -0.6066848132196976
-9.579418261224177 -4.439040371607354 -0.9397223390140984
-10.088588678277693 -4.8630481639972345 -1.420096401459297
-10.423181878173665 -5.249179895061603 -2.057868170672575
-10.524049477593884 -5.595879890698889 -2.791436385013087
-10.413855635340074 -5.917793644507231 -3.536376467811222
-10.149289614987138 -6.239214326082779 -4.242457465528589
-9.776573817649258 -6.583951394919888 -4.886200713966253
-9.326632922382636 -6.975973466739954 -5.448382637465882
-8.823352846084816 -7.441867433234722 -5.896277907108472
-8.297002918641834 -8.012884087690315 -6.147345294911066
-7.854915290931087 -8.664890977092794 -5.991993213767018
-7.711588867059665 -9.143955901552818 -5.35937529767058
-7.788324013465944 -9.386842347214452 -4.581876843956316
-7.955620613413931 -9.508816870979658 -3.788261481721362
-8.16218355114129 -9.577044961015059 -2.9971005581642127
-8.383883494344417 -9.632837020368894 -2.2088855851624962
-8.604681552260976 -9.70842842643771 -1.4222231655520166
-8.810509562704645 -9.831793226656776 -0.6376079319207355
-8.986885869369823 -10.025022929481503 0.1398093833248411
-9.11974231007019 -10.300222770298037 0.9008648142884981
-9.19909417209165 -10.657149333700314 1.6350056789753258
-9.221591372890499 -11.086721352615974 2.333397246429361
-9.18952295349683 -11.57723928400231 2.9899853386023634
-9.10763395397371 -12.11880579503458 3.6006787042462696
-8.979850227921496 -12.70323838321666 4.1619603028144985
-8.808708912841844 -13.323585666279243 4.6708030452829306
-8.594537683319839 -13.97207317460239 5.125325143320076
-8.335289353376286 -14.639541623355388 5.525691214396061
-8.02630158177197 -15.314780640840404 5.874436835657378
-7.660949100467502 -15.98421201639358 6.17687969751341
-7.23162361766824 -16.631473085555406 6.440709230227488
-6.732269394970774 -17.238403654713917 6.675168977809348
-6.161252740515181 -17.78651429531689 6.890323231086608
-5.523891344710843 -18.26009769207499 7.095332835245147
-4.83106244342742 -18.649886115473393 7.297234211910878
-4.0968396600943215 -18.95416161447315 7.500035133330425
-3.3348846843768474 -19.178150598706374 7.705371631896466
-2.5561582311460973 -19.330754114223623 7.9135721623716675
-1.768597046959384 -19.421159532248623 8.12528973339345
-0.9780906923948216 -19.456500796605226 8.342406913470885
-0.18954804480801984 -19.440908167420673 8.568768417735642
0.5918778228617654 -19.376091793958075 8.810428424235957
1.3602879879054175 -19.263402163614533 9.07499366441131
2.109416063971974 -19.10679789744891 9.370809697872785
2.8342966108310197 -18.91588376169212 9.704421434368669
3.5332030954901885 -18.70682425569744 10.080081621906816
4.208049683650687 -18.500669350846273 10.49878888779415
4.863287288426589 -18.32199386084241 10.959135791669977
5.503357850889756 -18.198087617380374 11.457041224594816
6.129071000327504 -18.15849282483833 11.985706719105734
6.733203267538267 -18.235637564475965 12.534315893184585
7.294803958738163 -18.462996915870065 13.085502383910649
7.773934418115204 -18.86243847650956 13.61536194021317
8.119924744718066 -19.425331921965373 14.097879150480342
8.300629476616704 -20.10575795011453 14.515580377373707
8.326580426055667 -20.844005669601092 14.87041216396419
8.243871362370054 -21.598222453956264 15.182139919241886
8.10779108161122 -22.351841622282446 15.477007061717385
7.9692254476378315 -23.101575116153825 15.780463959387617
7.877200088382817 -23.844240396162764 16.116406671458712
7.8846610241363715 -24.564866829703185 16.506686021601553
8.042385917878546 -25.22591266154412 16.963065819987296
8.369236537913308 -25.775922790757505 17.473332191501285
8.834800848903345 -26.187338687612957 18.006990676263538
9.389944430808791 -26.471038835959515 18.539271151035887
LINES 1 80
79 0 1 2 3 4 5 6 7 8 9 10 11 12 13 14 15 16 17 18 19 20 21 22 23 24 25 26 27 28 29 30 31 32 33 34 35 36 37 38 39 40 41 42 43 44 45 46 47 48 49 50 51 52 53 54 55 56 57 58 59 60 61 62 63 64 65 66 67 68 69 70 71 72 73 74 75 76 77 78
POINT_DATA 79
SCALARS MaximumInscribedSphereRadius float
LOOKUP_TABLE default
1.2300000190734863
1.0804799795150757
0.9153140187263489
0.9083150029182434
1.112470030784607
1.1242599487304688
0.8899199962615967
1.1664299964904785
1.6422799825668335
2.1122000217437744
2.566380023956299
2.1952900886535645
1.777609944343567
1.7160899639129639
1.6904200315475464
1.9614900350570679
2.160830020904541
1.9027999639511108
1.7892400026321411
1.9400500059127808
2.049999952316284
2.049999952316284
2.0073699951171875
1.784440040588379
2.0976600646972656
2.3847999572753906
2.1377499103546143
2.414750099182129
2.8005800247192383
3.0316898822784424
3.23088002204895
2.9718899726867676
2.5566999912261963
2.621730089187622
2.8311901092529297
2.869999885559082
2.869999885559082
2.555229902267456
2.166059970855713
2.1842000484466553
2.375030040740967
2.5737900733947754
2.7797300815582275
2.8965699672698975
2.881089925765991
2.869999885559082
2.869999885559082
2.8812499046325684
2.9361300468444824
2.9588699340820312
2.713409900665283
2.47094988822937
2.4311699867248535
2.4010701179504395
2.2708699703216553
2.111370086669922
2.16798996925354
2.3596699237823486
2.733520030975342
3.3059399127960205
3.690000057220459
3.690000057220459
3.616569995880127
3.2198100090026855
2.841599941253662
2.6441400051116943
2.6625399589538574
3.3222200870513916
3.5944900512695312
3.3831100463867188
3.1818199157714844
2.9863600730895996
3.027519941329956
3.4265599250793457
3.6157000064849854
3.407140016555786
3.2799999713897705
3.2799999713897705
3.2799999713897705
FIELD FieldData 2
Curvature 1 79 float
0.11500212642
0.13202456139
0.15342168491
0.17923632997
0.20491328874
0.21380506188
0.18628897971
0.1262609672
0.066458715076
0.039514207356
0.043035790151
0.053711526381
0.084159507903
0.13968520411
0.21885168404
0.29947179335
0.3230379149
0.27145110738
0.20265699086
0.15582025173
0.14776147337
0.19146421028
0.3117377944
0.56611878988
0.83917651362
0.47328812204
0.22421349838
0.10371908497
0.032221760992
0.025189423151
0.064756636619
0.096171157333
0.11640604163
0.12436858678
0.12179062444
0.11362704007
0.10498013036
0.098448062883
0.094197475732
0.091258889898
0.088813871003
0.087593921254
0.089176717737
0.095177788643
0.10531270475
0.11601262464
0.12262496314
0.12309694654
0.11645729211
0.10421259913
0.089751890686
0.076463967601
0.066973549395
0.062711125855
0.063405920688
0.066910844067
0.070122140376
0.069538985365
0.064535157987
0.060562762712
0.065207965322
0.083598333529
0.11301006147
0.15033009311
0.19505379696
0.23840655173
0.26752919937
0.26473512551
0.22366352497
0.15235739205
0.073635779206
0.012155307648
0.072762159639
0.14424105798
0.21590324897
0.26472412664
0.26660562404
0.23423054734
0.19490249924
Torsion 1 79 float
-0.035530469478
-0.047832731737
-0.06515710788
-0.085157163707
-0.09855550899
-0.08769318399
-0.061755924107
-0.024167699006
-0.086762200772
-0.21340741092
0.15356405233
0.45632268468
0.34413308096
0.25853107475
0.20315293794
0.17515501252
0.16943381452
0.18271164695
0.2251333853
0.29249803554
0.29526272915
0.17819982943
0.069604861232
0.0097854432361
-0.025133983107
-0.018631760347
-0.00030989603458
0.040142093946
0.43638617912
0.60833418725
0.091346436955
0.059617236447
0.059678998431
0.052912719633
0.03109697792
0.0048646718944
-0.0076597872692
-0.003382161319
0.016981937502
0.05878629784
0.1142756654
0.17564507066
0.22477660356
0.23167986932
0.20329327682
0.16181776615
0.12290058395
0.086080688948
0.058430817183
0.03647254843
0.032229008615
0.045729299577
0.078970954195
0.1250397875
0.15484180399
0.16928442604
0.18882663756
0.24187392179
0.34306451733
0.46296208292
0.46147194648
0.30523433535
0.16316954368
0.080078305457
0.016521323967
-0.050672506219
-0.087219751766
-0.092481764266
-0.083566260179
-0.07832528526
-0.17302881723
-5.2382506369
-0.13744556644
-0.024869307875
0.0045654719956
0.016717167222
0.015234769447
0.0097858665828
0.0061090624669
