# vtk DataFile Version 2.0
Vessel Segment
ASCII
DATASET POLYDATA
POINTS 97 float
0.0 0.0 0.0
-0.4648586104410923 0.05829479011068201 0.4745418793891676
-0.922216868393971 0.15098470262925429 0.9508642714301659
-1.3761916683023243 0.27186438653151457 1.4242174634478142
-1.8325345661711472 0.4126810271639278 1.889647751925633
-2.298070548977617 0.563138123851798 2.3428650331827257
-2.779325552889467 0.7110856295106026 2.7801710288185078
-3.280135188104375 0.84457496949167 3.199718488436773
-3.7993639685659133 0.9569374061683411 3.6028270564923437
-4.331525705405663 1.0500239675449945 3.9937893550715637
-4.869919866128183 1.1321504284113686 4.378742738251536
-5.409528527878065 1.2119675114818038 4.762441955518337
-5.9484704417855525 1.293961756062151 5.146603300184871
-6.488481733606455 1.3762871709589277 5.52918056782453
-7.034870572424076 1.4501620763744907 5.904363797068466
-7.595579064619787 1.499609708145878 6.261788490294886
-8.178059801515978 1.5001385732899861 6.585806535251807
-8.781732920258216 1.4217078724187486 6.856152323298097
-9.390423332254501 1.2395629391797323 7.055066059213514
-9.978582443834872 0.9550234180277593 7.184792901455069
-10.534061467117533 0.5971365974016072 7.27279480223194
-11.064256329302289 0.1998379907148819 7.349112560932193
-11.584812624235676 -0.20881610613747964 7.430975848429237
-12.113289933904806 -0.6067103157126886 7.515677378866328
-12.66533700016302 -0.9751593287883147 7.578329010402282
-13.248082169631267 -1.2978577292904143 7.575358551176208
-13.848255964003323 -1.5624590345095104 7.461608473097615
-14.433641681583937 -1.7720017006187767 7.223347170460553
-14.976709373216831 -1.9453007347212223 6.878598871057315
-15.462804437599313 -2.107639668313389 6.452713844128821
-15.87971134910521 -2.2859566252712415 5.964507096778078
-16.20023006969195 -2.5108149741133348 5.426126157684162
-16.368181269825282 -2.813509680140906 4.859291014634503
-16.32540111647783 -3.1972756351520832 4.3198548636578185
-16.094732806266894 -3.6200579865684763 3.8612242698899615
-15.759754660799691 -4.048583561609339 3.476137411221238
-15.384505953014104 -4.480014117334625 3.1329744480476016
-15.006154569716415 -4.925837360195996 2.812454468258138
-14.65209698457415 -5.405528119523874 2.51418208219749
-14.356334189542567 -5.949322371128554 2.2695844714529225
-14.181253383585567 -6.581251369397495 2.1965016045507975
-14.19874748703103 -7.170135781746929 2.4815699908468787
-14.333425514383617 -7.555815724898688 3.0041718606055117
-14.519928548250629 -7.783778008455607 3.6011107631794403
-14.759574973884165 -7.888218800795172 4.21336660768892
-15.077189972989206 -7.865178538951556 4.797233726784309
-15.48386334395661 -7.696897427704517 5.294947454701758
-15.92658391130588 -7.396975486075342 5.6915207606194205
-16.327711753476493 -7.005750014126791 6.051981391613565
-16.63351039421889 -6.563558311921629 6.444790940588992
-16.804695226947626 -6.1177350690602585 6.907712897240469
-16.82351149325336 -5.72307638088454 7.442462295678176
-16.7041491486336 -5.422230184455898 8.023557909577894
-16.47242436733717 -5.240811811188669 8.620166901038116
-16.149396055721365 -5.20034229483988 9.20000708982194
-15.751833016462585 -5.329672488223354 9.715611570042933
-15.309376881685369 -5.659105104893763 10.080825691320431
-14.893328746437286 -6.1593926431792045 10.199262521938001
-14.562377531281651 -6.727481952142035 10.100829385794958
-14.307281947426537 -7.307256662384206 9.893795051512035
-14.099257879802495 -7.896801526562412 9.661740359101898
-13.913151494793565 -8.50780257555736 9.471277132667694
-13.730611171899191 -9.142306013795656 9.385057003745379
-13.54384496466285 -9.77819646383451 9.444869133138562
-13.354833598969496 -10.384589460460735 9.644707123853443
-13.16701092064766 -10.948783425796663 9.945553949883447
-12.980179234869667 -11.475155348511151 10.309579383789425
-12.789781486977116 -11.97261786548515 10.710773963704414
-12.587368426691516 -12.448188513499879 11.132103824778595
-12.360594830506118 -12.904970597668806 11.561752608649327
-12.093682888288358 -13.340745402792123 11.990014380719497
-11.7690037619013 -13.745676351990099 12.408175458138563
-11.372364347840625 -14.100255089659786 12.809369408452191
-10.903501472737 -14.378258876472831 13.19214500052089
-10.379710286005485 -14.559763505126659 13.561584376538994
-9.827069505662871 -14.643045914093726 13.924553968960844
-9.266374864697125 -14.642841293651065 14.284962343041938
-8.707198192615243 -14.579767199601187 14.642617470366863
-8.151322520474501 -14.472295663705133 14.994892024451849
-7.596304994990211 -14.33458767979776 15.337957084613688
-7.038580813250539 -14.177186394887341 15.668009858625702
-6.475390432485693 -14.008832722083328 15.983003827260596
-5.905459224738234 -13.838353042880069 16.2844575890036
-5.328801041238129 -13.675888189015495 16.577407954750978
-4.746075704212787 -13.532912015711307 16.868456924385015
-4.158511251118856 -13.421274879803699 17.163354961945846
-3.5683125459261777 -13.35201463757116 17.46576571775914
-2.979209661904118 -13.33503491843848 17.777478833696478
-2.397256688349651 -13.379821611326731 18.099516939770144
-1.832224251399835 -13.496951704317402 18.433029058465852
-1.3007985579023877 -13.70016970994436 18.779639403897303
-0.8331689206150962 -14.00808664446932 19.139585335777983
-0.48359267441899506 -14.438969604409975 19.5050769538558
-0.3259471435301925 -14.983793726442602 19.84870251663019
-0.3935711698730613 -15.58007272808895 20.132308693113032
-0.640576061425364 -16.16067095691266 20.343139395721245
-1.0020728391860332 -16.69960827669771 20.49352363080774
LINES 1 98
97 0 1 2 3 4 5 6 7 8 9 10 11 12 13 14 15 16 17 18 19 20 21 22 23 24 25 26 27 28 29 30 31 32 33 34 35 36 37 38 39 40 41 42 43 44 45 46 47 48 49 50 51 52 53 54 55 56 57 58 59 60 61 62 63 64 65 66 67 68 69 70 71 72 73 74 75 76 77 78 79 80 81 82 83 84 85 86 87 88 89 90 91 92 93 94 95 96
POINT_DATA 97
SCALARS MaximumInscribedSphereRadius float
LOOKUP_TABLE default
0.9300000071525574
1.0663199424743652
1.207260012626648
1.1275700330734253
0.9785460233688354
0.9300000071525574
0.9300000071525574
0.9300000071525574
0.9300000071525574
0.8296549916267395
0.6821879744529724
0.7015600204467773
0.8426679968833923
0.8771309852600098
0.7355009913444519
0.6503720283508301
0.8031250238418579
0.8965439796447754
0.7319989800453186
0.775879979133606
1.2596999406814575
1.482740044593811
1.1729199886322021
0.9699280261993408
1.1574699878692627
1.3367600440979004
1.4569000005722046
1.4848899841308594
1.1858700513839722
0.996737003326416
1.5432300567626953
2.0804998874664307
2.130929946899414
2.086479902267456
1.7661900520324707
1.5499999523162842
1.5499999523162842
1.5514099597930908
1.6981500387191772
1.867900013923645
2.078619956970215
2.1810100078582764
2.1675899028778076
1.9760099649429321
1.8492599725723267
1.820180058479309
1.9571199417114258
2.1679000854492188
1.9995499849319458
1.8355400562286377
1.688770055770874
1.5771600008010864
1.5618200302124023
1.617650032043457
1.929419994354248
2.1737000942230225
2.188199996948242
2.1947999000549316
2.1947999000549316
2.219019889831543
2.2494399547576904
1.9898300170898438
1.6282700300216675
1.7156100273132324
1.919950008392334
1.6859400272369385
1.3567700386047363
1.3287800550460815
1.4678399562835693
1.6091599464416504
1.7546499967575073
1.8600000143051147
1.8600000143051147
1.7095099687576294
1.2349900007247925
1.0895299911499023
1.5415300130844116
1.9010800123214722
2.0463500022888184
2.127779960632324
1.8372199535369873
1.5552300214767456
1.8490400314331055
2.1427600383758545
2.048180103302002
1.9151300191879272
2.1028199195861816
2.3838999271392822
2.5388898849487305
2.6077399253845215
2.6007299423217773
2.489680051803589
2.224020004272461
1.7643699645996094
1.6236599683761597
1.75177001953125
1.8600000143051147
FIELD FieldData 2
Curvature 1 97 float
0.071157503372
0.062128347371
0.05165836792
0.041444422933
0.03511327525
0.037494890918
0.045989581706
0.050241088013
0.044664160046
0.033828538891
0.025964415065
0.019276444368
0.0072439548845
0.020567278488
0.056693165513
0.104009815
0.15434449445
0.19376821375
0.19226163896
0.14163540858
0.080235530653
0.031063784711
0.021619032419
0.068173644703
0.13221396894
0.1933232753
0.20924543343
0.1841611062
0.14944529741
0.13878535315
0.18068947646
0.27037085381
0.35348875147
0.3301393632
0.2136875207
0.1005949846
0.037788968885
0.093306407875
0.20252096522
0.39451814257
0.69848440466
0.5332629089
0.27822377837
0.19568472566
0.22827574603
0.29646689533
0.26639758295
0.16843642875
0.17292227298
0.23094637215
0.26927086685
0.26172078673
0.24419689616
0.25040359533
0.29656720316
0.39153615682
0.47454399604
0.37968078805
0.21118268015
0.086125544396
0.078127210513
0.16495952877
0.22406938582
0.22003854238
0.17023117549
0.11499434338
0.07164659195
0.046867422164
0.049292797139
0.072700807334
0.10456693261
0.13803969354
0.16214659106
0.1688002038
0.15567079082
0.12813785972
0.09592754999
0.067346836495
0.046613081789
0.035431853505
0.03005275388
0.023682109126
0.02007885928
0.030939791152
0.048581511078
0.065148990315
0.079321255237
0.093392224368
0.11150746377
0.1400021781
0.18692593309
0.25816278025
0.34152193003
0.37783305366
0.33232727992
0.26205360739
0.20491336555
Torsion 1 97 float
-0.057434442775
-0.09324312422
-0.16167604781
-0.29063409987
-0.45591479021
-0.43507143431
-0.26775246903
-0.14444614339
-0.068089963428
-0.021532099505
0.0010292934733
-0.011669975386
-0.52414279824
-0.16844305621
-0.051172924638
-0.041693830968
-0.055750791717
-0.068951108062
-0.11790708431
-0.18064915215
-0.29248384533
-0.78509395358
-1.4803392873
-0.42648030561
-0.24780933426
-0.17592947079
-0.16799761652
-0.19433810695
-0.28418995943
-0.32958818289
-0.20888300959
-0.090481098632
-0.028359423979
-0.0083094028189
-0.029868316355
-0.19530559324
-1.2960784247
-0.11419659279
0.07209035402
0.15823296389
0.19605836582
0.063852440529
-0.10065558731
-0.26002237975
-0.19834631045
-0.02974759613
0.34123830698
0.87715662342
0.58039867946
0.26714708703
0.16015287297
0.11925987186
0.092624473811
0.053274771857
0.0099743243798
-0.018962206669
-0.012299451699
0.044420040041
0.15687631136
0.83057539791
0.93429201151
0.1845333286
0.068721427273
0.030457798479
0.02213766844
0.0522657804
0.18154418971
0.49796766472
0.44343900801
0.15187193233
0.017006483912
-0.093854966467
-0.17172255634
-0.19053558242
-0.15955715078
-0.088577824891
-0.0092615972979
0.095940848221
0.25406436384
0.36773539509
0.37337448083
0.54527739858
0.92092681527
0.41200994724
0.13327782129
0.047864545345
0.02967371651
0.036631981602
0.052574925072
0.062079644469
0.05743801509
0.045286393501
0.03290287786
0.021436444201
0.012527185578
0.0072504235811
0.0044511597687
