# vtk DataFile Version 2.0
Vessel Segment
ASCII
DATASET POLYDATA
POINTS 72 float
0.0 0.0 0.0
-0.6965243300357568 0.4460972600955562 0.360127560623294
-1.4468685679533255 0.7849574787855316 0.729049616446056
-2.2385470830784078 1.024113659840432 1.0899833676569228
-3.058969245259303 1.1869932567042278 1.429112316542756
-3.899295842249621 1.3013216942973127 1.7384464468343614
-4.754142856017068 1.3872023875900552 2.015563763454424
-5.619847767857272 1.4500202104433986 2.2636051575456104
-6.492786143440752 1.4781992245478834 2.4918135785195847
-7.366505034752328 1.4437384281580643 2.7152670155184477
-8.222616963263334 1.2971931768934364 2.9576548055528336
-9.00802289626106 0.9717061366762993 3.252900284620846
-9.643382382990168 0.4515728517933177 3.6212831683945943
-10.122864662863464 -0.18082632363810922 4.049433701715837
-10.513951824872585 -0.8449938585288836 4.5192237221366245
-10.89220669211518 -1.498840099909967 5.013512693470216
-11.318471834922173 -2.124329314827526 5.505018510036517
-11.843182947249876 -2.7149092791430705 5.939630549659432
-12.5016960222552 -3.2660030212405284 6.20562038218223
-13.237116427166109 -3.773304011356984 6.140827306806469
-13.867989660115963 -4.264541097727427 5.732509746602438
-14.282499996425807 -4.809981235768085 5.149558638866113
-14.462698141835384 -5.4567395042762605 4.550543627383776
-14.430839064539217 -6.196197708754229 4.038037487422716
-14.236731991922387 -6.980527009311227 3.6382439805649973
-13.930090298561252 -7.762970919353976 3.309706767042011
-13.541425987458096 -8.508083583717394 2.980988117845389
-13.092904164799277 -9.178532045064854 2.5778757074859637
-12.615127551423893 -9.740484541063719 2.0594472332722447
-12.140940283403372 -10.197531272897498 1.4428415197336733
-11.686227396296037 -10.596605027861216 0.7728423684270584
-11.250538724232392 -11.01685883023603 0.10356040152849687
-10.86824605742274 -11.676628261698422 -0.2702980739430129
-10.960139802804958 -12.067446693511686 0.4926731668438485
-11.196515396578517 -12.03639637428904 1.3601017175835979
-11.464479625795086 -11.79732834358501 2.186787689648194
-11.742045396627343 -11.414137912522317 2.9546936384265043
-12.018086080806677 -10.940399954542642 3.671717150693607
-12.283986051321307 -10.443598270294915 4.376985000634912
-12.523772122262038 -10.031242910523828 5.141481328074698
-12.699034703851515 -9.854364524444607 6.004243901018856
-12.781326051789396 -9.97560377838021 6.891234983022661
-12.789582230768499 -10.316795274310682 7.725190363633801
-12.75225012926052 -10.799328583318475 8.486186351898244
-12.68925258239084 -11.383087593299672 9.171082912501973
-12.614319649179022 -12.048600490827033 9.77575238386976
-12.538220221518307 -12.782684091387848 10.294809036312012
-12.46633831744099 -13.569301021924234 10.731305610620527
-12.3955330458044 -14.387022188888166 11.107046909120339
-12.314856646527614 -15.215961129871854 11.455418807417836
-12.209142980117658 -16.04132826998799 11.805494660555945
-12.060443608142924 -16.852210938130263 12.1731509458065
-11.84749033284144 -17.638765393175255 12.561008210493434
-11.546860835741134 -18.389019876063237 12.962074334552554
-11.140517672230873 -19.086785318108245 13.364227360996194
-10.624512048923117 -19.714077763989728 13.756552907060748
-10.011586398576227 -20.256099294491044 14.136315316468957
-9.32274104458496 -20.701668080395702 14.511536699064363
-8.580770127192858 -21.03938261197081 14.897868021269723
-7.809381811640839 -21.25778500177122 15.311381745117542
-7.032447726441821 -21.35620032192843 15.759265547518362
-6.265294906874831 -21.356845563240658 16.2346282961886
-5.507376478433012 -21.298304476615378 16.721531038365026
-4.746981281880327 -21.21769809481996 17.20146134453619
-3.9719497037685434 -21.138843433801636 17.657610526074095
-3.1770316632489704 -21.070677698187136 18.07995468992465
-2.365529375164655 -21.01304298759068 18.471293465556645
-1.5476199258978933 -20.96682326602834 18.850678882444868
-0.7404521959647562 -20.94552613056017 19.254069651072456
0.018882254466500978 -20.987438359552364 19.738128046733173
0.6281002144031277 -21.166813625715708 20.372026366511594
0.9175754225854299 -21.53230727208663 21.135953760962554
LINES 1 73
72 0 1 2 3 4 5 6 7 8 9 10 11 12 13 14 15 16 17 18 19 20 21 22 23 24 25 26 27 28 29 30 31 32 33 34 35 36 37 38 39 40 41 42 43 44 45 46 47 48 49 50 51 52 53 54 55 56 57 58 59 60 61 62 63 64 65 66 67 68 69 70 71
POINT_DATA 72
SCALARS MaximumInscribedSphereRadius float
LOOKUP_TABLE default
1.5499999523162842
1.2696800231933594
0.9758740067481995
1.0560499429702759
1.2031300067901611
1.2400000095367432
1.2400000095367432
1.168660044670105
1.0319099426269531
1.009220004081726
1.3118599653244019
1.5273499488830566
1.4423400163650513
1.3443100452423096
1.2205599546432495
1.1490000486373901
1.3406000137329102
1.544700026512146
1.465559959411621
1.4083900451660156
1.5006799697875977
1.4779800176620483
1.319350004196167
1.212440013885498
1.1571300029754639
1.1568000316619873
1.2767000198364258
1.4040800333023071
1.6155699491500854
1.8255300521850586
1.7395999431610107
1.5726399421691895
1.5499999523162842
1.332610011100769
1.1633700132369995
1.0171300172805786
0.9300000071525574
0.9300000071525574
0.966746985912323
1.1361500024795532
1.3956300020217896
1.7428300380706787
1.8600000143051147
1.8600000143051147
1.8600000143051147
1.8600000143051147
1.7517800331115723
1.4598300457000732
1.2767900228500366
1.4229199886322021
1.5499999523162842
1.5499999523162842
1.5499999523162842
1.5499999523162842
1.5499999523162842
1.5499999523162842
1.5499999523162842
1.5499999523162842
1.5499999523162842
1.4327000379562378
1.225119948387146
1.221940040588379
1.426800012588501
1.5499999523162842
1.5499999523162842
1.5531699657440186
1.5667200088500977
1.575510025024414
1.418869972229004
1.2506599426269531
1.5241299867630005
1.809999942779541
FIELD FieldData 2
Curvature 1 72 float
0.15056216021
0.14230163112
0.1213663483
0.09445320014
0.071968592034
0.057898033219
0.046463099806
0.043811104459
0.075440709308
0.14091124184
0.23602750079
0.30005031203
0.23732481689
0.1396904461
0.053237921137
0.064078191251
0.14670361065
0.26773713692
0.41014323189
0.42015752754
0.32365855112
0.2911432033
0.28369979514
0.23281281121
0.15027774871
0.098209352601
0.13645800788
0.18482275254
0.16341523131
0.095113445819
0.13916023782
0.51281487984
2.9362450289
0.55055835446
0.26521996851
0.177190444
0.11747522862
0.077745316026
0.15988715632
0.31363090403
0.36699077826
0.28020501758
0.19256122368
0.14382966315
0.12625522855
0.12246424337
0.11106867058
0.076258036339
0.03383400851
0.028696194848
0.05393336164
0.078934642305
0.10578996574
0.13113292243
0.14555381909
0.14393777713
0.13521775377
0.13324443543
0.14068471066
0.14069528939
0.11430995991
0.068081139713
0.027436327566
0.034451271719
0.048773086085
0.043984564526
0.020082562703
0.045089567486
0.1344807964
0.28670972062
0.46807819151
0.4526241101
Torsion 1 72 float
0.04653218649
0.076008913047
0.12496355511
0.19875545234
0.25155999852
0.1576430205
-0.11933093199
-0.55309735659
-0.29848130022
-0.15564160145
-0.11637573046
-0.11348061093
-0.15124062362
-0.23872601946
-0.88312956723
-0.66763720102
-0.28494821748
-0.24664332326
-0.30989211703
-0.45435125259
-0.56716524232
-0.41367125464
-0.18830518761
0.0096036178371
0.3355271022
0.97128800789
0.47464092311
0.17965652807
0.12193711175
0.26361053895
0.16406969447
0.060749990587
0.13665650172
0.037869425934
0.020113069015
0.019017376688
0.055691891372
0.24867804635
0.08591508242
0.0095926794168
0.0065495383464
0.02490357746
0.049578949503
0.079915054954
0.088668737379
0.072636188101
0.016468026631
-0.10786323896
-0.81746339027
-0.85369975763
-0.022110262537
0.12519628499
0.11562097458
0.060703714041
-0.0048908742885
-0.086275793353
-0.17774527841
-0.22178914081
-0.1812461983
-0.10555911926
-0.02786370204
0.14181744084
1.1682018812
0.39990415244
0.0153639297
0.022898132988
1.1302803222
0.35255659572
0.01874008329
-0.01421464154
-0.010880018169
-0.0045788871092
