# vtk DataFile Version 2.0
Vessel Segment
ASCII
DATASET POLYDATA
POINTS 77 float
0.0 0.0 0.0
-0.8165830784055542 0.17934747769257972 0.09516550171252065
-1.6240177498582042 0.32783617371166224 0.28004472307262873
-2.420133856463519 0.43054845147710746 0.5329232912796015
-3.2050985179709226 0.47247072048566136 0.8337628287231094
-3.9790788541298387 0.4391843045573772 1.162521759328719
-4.741824585124145 0.31811284283609925 1.4967308727672097
-5.492328994377169 0.10313127656304354 1.8107336892299215
-6.23000356449381 -0.20441703933819239 2.0736746255074605
-6.953342618497203 -0.5961425335233317 2.2488289167599533
-7.655802098830967 -1.055617894355239 2.294440614112245
-8.31818482394407 -1.5581062004550972 2.173367553158915
-8.905608344320434 -2.079542207905888 1.8753794464639482
-9.383278168206829 -2.6072695942488604 1.4286483658536462
-9.73106955946212 -3.1450561501982954 0.8839019520143347
-9.943618693784234 -3.7064041919683994 0.29480243644757853
-10.029057666157088 -4.299026815745496 -0.2960594328403734
-10.00524510090427 -4.9220844247023345 -0.8608458235220664
-9.894568647520355 -5.570883272766585 -1.3853843411535467
-9.719331196201162 -6.240475335969663 -1.8642280013660368
-9.49814620879878 -6.928933539689026 -2.295027532275293
-9.245435559957256 -7.63768279968292 -2.6723343502804853
-8.972852853638802 -8.371250541890277 -2.981892900870962
-8.692219613171073 -9.13692926446777 -3.187315857169801
-8.424752850186652 -9.93078165810362 -3.1901656886862897
-8.23207417410942 -10.633744896533731 -2.7976837577406006
-8.158205645632075 -11.038133110105829 -2.0703210358946222
-8.140011182577588 -11.230056948654564 -1.251734919344061
-8.13053733190212 -11.337462972492341 -0.4168814143615547
-8.109659357464544 -11.432628474204863 0.4193970063791962
-8.067318089658391 -11.567368572273745 1.2492193273264196
-8.000492579137623 -11.789057317772476 2.057995754470615
-7.915389445495668 -12.138275224018066 2.817973214783079
-7.829195635594316 -12.63036532331646 3.4939382177129854
-7.7614473681796 -13.24176932831109 4.067277301408249
-7.722208610554137 -13.932575204682644 4.54595304225529
-7.711057165456226 -14.670417694164735 4.950843414691684
-7.721621692391089 -15.434673100216036 5.303667589214313
-7.7445946608166585 -16.212929782881737 5.623958586105102
-7.769581062395573 -16.997307526226095 5.9288217913911945
-7.7864337697585135 -17.782188228050774 6.233013319215489
-7.7858468515954655 -18.562792583368665 6.548357891369746
-7.759771372989207 -19.335180084403888 6.882399885058813
-7.700911637318961 -20.096081101226325 7.237738052367031
-7.601218709667506 -20.84272816277016 7.613535195315228
-7.451301899426076 -21.57190201491492 8.00643692467454
-7.23984344136336 -22.27863784175547 8.411663935457861
-6.9541806160924 -22.954770764050824 8.823430206101408
-6.582827739016437 -23.58792432495132 9.234694317880658
-6.118657032880146 -24.161899103387213 9.63824453385756
-5.562759173942924 -24.659331037546973 10.026953076776785
-4.925111770976584 -25.06588261227728 10.395539282402957
-4.222483571661345 -25.373471308787828 10.741068559920835
-3.4736567568307666 -25.5807965516124 11.063707229463818
-2.696154112077537 -25.69195957134811 11.365929303016193
-1.9048173104593304 -25.714455169006186 11.651390625048615
-1.1106298777086092 -25.65737297976163 11.924132454956233
-0.32138966931044605 -25.530933695658142 12.188020936224524
0.4581591928531921 -25.34671615655951 12.446936605427426
1.2261695957623588 -25.118194292311014 12.705181396784555
1.9836078753844155 -24.861282061061132 12.968080353220731
2.7336840902555424 -24.595038310788404 13.242591333585768
3.4805994229760855 -24.342569945602744 13.537779184957854
4.226986209503475 -24.13127860728945 13.864517885673898
4.969885470733679 -23.991172286070412 14.234026448386006
5.697063481277663 -23.950137990658675 14.6548315785869
6.3868378529757415 -24.028416401519138 15.129398892292606
7.01369433771987 -24.231206222244523 15.651867603840913
7.557758978945055 -24.548009294030113 16.209400277743192
8.008843593996648 -24.96262659561419 16.78563896905256
8.363112043731148 -25.4613667015924 17.362967736909305
8.618753166614777 -26.03482172961143 17.92276432368506
8.773402579269801 -26.67639324822512 18.44421822254443
8.823139945483987 -27.379306310749605 18.903138250046315
8.763957364843264 -28.132400976166693 19.272158772114583
8.596143298828993 -28.916336781728706 19.5248415593352
8.329053289303298 -29.704435627660015 19.64388214159332
LINES 1 78
77 0 1 2 3 4 5 6 7 8 9 10 11 12 13 14 15 16 17 18 19 20 21 22 23 24 25 26 27 28 29 30 31 32 33 34 35 36 37 38 39 40 41 42 43 44 45 46 47 48 49 50 51 52 53 54 55 56 57 58 59 60 61 62 63 64 65 66 67 68 69 70 71 72 73 74 75 76
POINT_DATA 77
SCALARS MaximumInscribedSphereRadius float
LOOKUP_TABLE default
1.2400000095367432
1.5262600183486938
1.8122899532318115
1.6830600500106812
1.4108099937438965
1.34128999710083
1.4680500030517578
1.521399974822998
1.4415700435638428
1.290719985961914
1.0103199481964111
1.0801299810409546
1.4712300300598145
1.2448099851608276
0.8826130032539368
0.9969120025634766
1.1128499507904053
1.2025400400161743
1.2863999605178833
1.2621099948883057
1.1833200454711914
1.1629999876022339
1.4796600341796875
1.8352099657058716
1.8600000143051147
1.5452200174331665
0.7225160002708435
0.9164720177650452
1.2295000553131104
1.5294400453567505
1.8296300172805786
1.7212300300598145
1.5631300210952759
1.9864000082015991
2.4491500854492188
2.0676000118255615
1.6421899795532227
1.5499999523162842
1.5499999523162842
1.6163500547409058
1.7509499788284302
1.886199951171875
2.0220799446105957
2.158440113067627
1.919510006904602
1.644670009613037
1.4589799642562866
1.3193399906158447
1.3634099960327148
1.6476900577545166
1.7917499542236328
1.5252000093460083
1.2986600399017334
1.6553000211715698
2.0067899227142334
2.0018599033355713
1.9085500240325928
1.8600000143051147
1.8600000143051147
1.8772200345993042
2.010050058364868
2.144550085067749
2.2819299697875977
2.4234399795532227
2.3074700832366943
2.0173699855804443
1.9375200271606445
2.0332698822021484
2.1016600131988525
2.1467599868774414
2.099220037460327
1.9523500204086304
1.9138200283050537
2.0595099925994873
2.2719099521636963
2.6953799724578857
3.0999999046325684
FIELD FieldData 2
Curvature 1 77 float
0.13369631733
0.1125996137
0.097926008814
0.09279432972
0.09724862739
0.10753952443
0.11864156401
0.13092388358
0.15184676673
0.18239180988
0.21628001872
0.23260116705
0.22244220211
0.19922087828
0.18168531203
0.16918252123
0.15399209672
0.13230355703
0.10596625907
0.083554302263
0.077300441254
0.10211706074
0.16770721095
0.30129815719
0.55892516042
0.61371688576
0.32005881975
0.14046128808
0.04512807485
0.054285673348
0.1133236874
0.16739210951
0.20113281967
0.19300323615
0.15668568792
0.11603976998
0.079248898501
0.04729362212
0.020318500567
0.010055306742
0.025805747901
0.039321204835
0.048537699261
0.056532598401
0.066050936809
0.078949547827
0.095546470575
0.11416437162
0.13134327734
0.14334494313
0.14753712312
0.14387035382
0.13460653319
0.12223848153
0.10879461332
0.095916440554
0.08329209204
0.069855832704
0.054472196566
0.036956833548
0.023357008966
0.036021233298
0.06790857237
0.10454435638
0.13777086722
0.16383662427
0.17649945216
0.17322975594
0.16214991103
0.15220921197
0.14783936115
0.15087220415
0.16166344526
0.17804350762
0.19450959736
0.20403554737
0.20193318522
Torsion 1 77 float
0.1468770319
0.20640669638
0.26967951948
0.29866479039
0.27580243805
0.24226218931
0.23649278875
0.2475515175
0.23623142363
0.18659897795
0.089875374985
-0.050133642145
-0.14404636693
-0.25689155726
-0.26503489851
-0.18517851663
-0.13026764435
-0.10342411778
-0.11811008684
-0.17337355181
-0.2154887545
-0.14469063972
-0.068963717039
-0.0228300825
0.02055455859
0.061894754159
0.069524457089
0.11126841131
0.56464967607
0.37532953508
0.13818187975
0.11008733261
0.10992845794
0.10359729305
0.081838451161
0.056448920868
0.013611701467
-0.060253207445
-0.45993929165
-1.7271240696
-0.18319382157
0.00033131112776
0.08264241232
0.11004556616
0.11345979598
0.090495577929
0.054903594332
0.021934098989
-0.0052383893112
-0.024166656649
-0.036399743083
-0.045960233922
-0.053669346384
-0.060535979369
-0.064327623575
-0.064370344894
-0.064460367412
-0.074978797706
-0.11824368563
-0.29161746788
-0.89972503869
-0.45430257459
-0.1291926322
-0.030641334736
0.0084307372245
0.027528046207
0.038361404289
0.02826586213
-0.01057858255
-0.046582411676
-0.076184733307
-0.088264007209
-0.083601149056
-0.068646335349
-0.052647894886
-0.039038272118
-0.028145731778
