# vtk DataFile Version 2.0
Vessel Segment
ASCII
DATASET POLYDATA
POINTS 92 float
0.0 0.0 0.0
-0.6627997129844936 0.0033458116909830366 0.23556268961426455
-1.329823230755677 -0.00027914996229894227 0.45913655299055695
-1.9972362291885444 0.0011152705636610122 0.681596475088723
-2.6656608139133615 -0.005435448551620833 0.9007797083437135
-3.3287881957821726 -0.005087175741514533 1.1352962502421244
-3.9753985402388623 0.024323266714981168 1.4107228837582126
-4.634553352287052 0.03589203872397019 1.655832502083101
-5.303534907650933 0.03658858434418279 1.8735535212498589
-5.974049793879155 0.04962089972693912 2.0859773375606108
-6.6529970028971075 0.017283370522908795 2.2632754482581796
-7.330830270636934 -0.14349770276253865 2.34990365727275
-7.973745865949767 -0.42533548041275926 2.3437012109675743
-8.54690055639856 -0.8186817044315945 2.245852502754121
-9.029383351236051 -1.2985870146171927 2.0715506016518943
-9.423706600122934 -1.8340365208726066 1.8438639288310643
-9.747707985650107 -2.400987435730689 1.5829344833570345
-10.021671075792428 -2.9848747775871085 1.3021415241371326
-10.260368220697648 -3.5776816253817465 1.0082471266866673
-10.470840645843378 -4.175089130412178 0.7022256573026149
-10.652390476323866 -4.773889726683035 0.38087220856067683
-10.796794751821109 -5.370390658978762 0.03728645924993015
-10.889068436501791 -5.958389480994184 -0.33717327589107954
-10.910463287183704 -6.527641389112931 -0.7491972909587835
-10.844603835364175 -7.064345740913155 -1.1981594924663115
-10.685355428300301 -7.55658615621853 -1.6738828703595645
-10.439340566526244 -8.000808125509115 -2.1599906268503384
-10.120285452473901 -8.403423457561809 -2.6401737577127005
-9.741924264288379 -8.777814069855012 -3.0997981584945133
-9.31505478836851 -9.141958549246308 -3.5237392183813125
-8.847903972888904 -9.520530429189089 -3.8880937248871006
-8.35252710836427 -9.949489541969594 -4.138640121049145
-7.88906904810022 -10.46493795342629 -4.127488744698069
-7.680618466252857 -10.94809801924374 -3.687029982756381
-7.759858506265248 -11.23989480412036 -3.0570762506929623
-7.999463553190708 -11.376827165626734 -2.4122079349295715
-8.347021207679308 -11.387629604524935 -1.802395537288789
-8.777862588777031 -11.281048154990897 -1.258373468619728
-9.265642586470529 -11.067592813105174 -0.8002830633450247
-9.77844239649922 -10.770395141100838 -0.42240839366522465
-10.291102631546762 -10.414968116246477 -0.09770913323230357
-10.787594766635056 -10.02050662166398 0.20677834064463935
-11.25544345702041 -9.600537466955036 0.5221393701958934
-11.678687971286998 -9.167327299034376 0.879453980509609
-12.03189110144171 -8.739203642212464 1.3100866637783743
-12.274840630772617 -8.349411927713568 1.8403798714444666
-12.3574956053238 -8.052519991382226 2.469147880810882
-12.258393380851071 -7.898638574664934 3.1450988802334927
-12.01119279638001 -7.891111495324374 3.8015359680058727
-11.666003928714346 -8.001714033601052 4.403054953195307
-11.25760354601439 -8.20521701468805 4.937389853529828
-10.80606385985497 -8.48844921286423 5.395272225618341
-10.325113731239052 -8.848761362058823 5.758928857218382
-9.831200410088185 -9.289220124000511 5.992121430724175
-9.359588512353936 -9.804947020776737 6.036724942200174
-8.970284645646295 -10.356286806314635 5.8519688750098515
-8.69910906727036 -10.887729845968291 5.483015040553805
-8.526271374184669 -11.384584211364807 5.016909708147285
-8.41748131673463 -11.863046582102427 4.512960281209005
-8.346672934869202 -12.34532765786002 4.005805946846426
-8.294194071242536 -12.85379997883031 3.522695064593761
-8.242551328217232 -13.409307406841053 3.094990132715298
-8.174183514593617 -14.025176361699573 2.7642971238061578
-8.072709844726882 -14.694387883460966 2.5796115087491778
-7.927679475742768 -15.380506920260316 2.5770326948117495
-7.738672353412293 -16.0335638010785 2.750776960632146
-7.508267291672885 -16.619610899607515 3.061607120438181
-7.234514228645056 -17.121338758095835 3.47014641347652
-6.912393782149563 -17.526302273045676 3.9453819435785173
-6.539188892553364 -17.825736197951116 4.4598546594527
-6.116920073869289 -18.018633453628972 4.987429478200215
-5.651859559893087 -18.11318362286827 5.505943886742826
-5.152441002700026 -18.12522794677732 6.000693328495054
-4.628768966282558 -18.074897873217587 6.467384875822402
-4.090252133655692 -17.98131849782039 6.910150612809661
-3.544278009178841 -17.859036129882313 7.336558826648969
-2.995586825068947 -17.7181798953212 7.7537125545953
-2.4464769160156035 -17.565482901872375 8.166064238547321
-1.8963906467369818 -17.405677898030998 8.574422416431549
-1.342549145822672 -17.24318485036739 8.976654914250235
-0.7812078159212636 -17.08324185007143 9.369346132821818
-0.2086599443190877 -16.93251781882057 9.74927654258112
0.37728945172312334 -16.798728469880782 10.114794838572587
0.9765642706085046 -16.689505896149875 10.46659723409505
1.5868435797933707 -16.611833166863306 10.807667144370578
2.2039806730520475 -16.57237307652301 11.142861778743171
2.8221840194702907 -16.57849908890994 11.478265609426797
3.4334739179829556 -16.639313071321606 11.820638718008462
4.026232496096613 -16.766223783020756 12.176908426811513
4.5831828635553356 -16.97217306489344 12.553054692974746
5.080596733541465 -17.267920237138316 12.95159323091286
5.492169933882108 -17.65526533410771 13.368766656689957
LINES 1 93
92 0 1 2 3 4 5 6 7 8 9 10 11 12 13 14 15 16 17 18 19 20 21 22 23 24 25 26 27 28 29 30 31 32 33 34 35 36 37 38 39 40 41 42 43 44 45 46 47 48 49 50 51 52 53 54 55 56 57 58 59 60 61 62 63 64 65 66 67 68 69 70 71 72 73 74 75 76 77 78 79 80 81 82 83 84 85 86 87 88 89 90 91
POINT_DATA 92
SCALARS MaximumInscribedSphereRadius float
LOOKUP_TABLE default
0.6200000047683716
0.7545880079269409
0.8864099979400635
0.9300000071525574
0.9300000071525574
0.92262202501297
0.897134006023407
0.8741999864578247
0.8741999864578247
0.8741999864578247
0.9404000043869019
1.1071300506591797
1.1538300514221191
0.8272789716720581
0.6799280047416687
0.8384870290756226
0.8701519966125488
0.7258319854736328
0.65277498960495
0.7874410152435303
0.9200339913368225
1.0523099899291992
1.1856000423431396
1.2400000095367432
1.2400000095367432
1.200719952583313
1.0693399906158447
0.9400200247764587
1.0494400262832642
1.1830799579620361
1.2400000095367432
1.2400000095367432
1.2400000095367432
1.4284700155258179
1.8374300003051758
1.578070044517517
1.2513799667358398
1.402269959449768
1.563349962234497
1.5809999704360962
1.5809999704360962
1.5727499723434448
1.559340000152588
1.5499999523162842
1.5499999523162842
1.5499999523162842
1.5499999523162842
1.5499999523162842
1.5499999523162842
1.484410047531128
1.2946499586105347
1.1121100187301636
1.029360055923462
0.9412239789962769
1.086050033569336
1.2673699855804443
1.54899001121521
1.8149499893188477
1.8600000143051147
1.8600000143051147
1.7990200519561768
1.6628899574279785
1.4895100593566895
1.1910799741744995
0.9497680068016052
1.0957200527191162
1.2366100549697876
1.1048799753189087
0.9660469889640808
1.0339800119400024
1.1746100187301636
1.2400000095367432
1.2400000095367432
1.281730055809021
1.4182599782943726
1.5594700574874878
1.8692200183868408
2.1799099445343018
2.032099962234497
1.7330700159072876
1.5742599964141846
1.5605900287628174
1.4901299476623535
1.220900058746338
0.9539160132408142
1.1717300415039062
1.4375
1.4724899530410767
1.3372399806976318
1.2794699668884277
1.4162399768829346
1.5499999523162842
FIELD FieldData 2
Curvature 1 92 float
0.066599216444
0.028922605125
0.047781985908
0.042478258318
0.035237954093
0.1324261496
0.1106322821
0.079162313048
0.11865581195
0.084936227106
0.31650588488
0.23390463343
0.23471082313
0.20950153768
0.16870092474
0.12673267802
0.091797783696
0.066794312005
0.051374862525
0.047835591749
0.06019544724
0.086071127248
0.11710920303
0.14274995967
0.15285462225
0.14300295889
0.12035281652
0.0966623006
0.0904971936
0.12739741279
0.2304124217
0.44837339221
0.82840691253
0.59664385429
0.33353141248
0.24586569552
0.22653314998
0.21606523166
0.17433669849
0.11686699188
0.067565254073
0.056600861251
0.094355579182
0.15432540095
0.22804455764
0.30554267633
0.34409306823
0.30717231194
0.2404423427
0.18830949816
0.16562752841
0.17661281694
0.22356770362
0.29980927178
0.36177420808
0.3244472828
0.21563414116
0.12074841785
0.058343978352
0.056728917049
0.10812284293
0.17094617957
0.23051407444
0.27083350265
0.26724207732
0.22570160914
0.19160762547
0.17931434623
0.17545086672
0.16734821272
0.15261069468
0.13142956158
0.10299529188
0.072745512756
0.047387113013
0.028933468754
0.017888191526
0.012040148306
0.011005091537
0.017473734558
0.027588875656
0.037496474125
0.045047235508
0.050316615247
0.055507531697
0.064012778988
0.078195928274
0.098906521927
0.12580200603
0.15576501934
0.18194851607
0.19568254262
Torsion 1 92 float
-0.014105782376
0.97322507348
-0.058327854803
-0.056756546478
-0.27071916899
-0.033359540112
0.0016103264463
0.10472825153
0.055880286567
-0.30960546434
-0.0019414923389
-0.02000934329
-0.025161637853
-0.02678251384
-0.018425931637
-0.013913428831
-0.0013678204208
0.029888918749
0.081344936202
0.10775892953
0.065587825144
0.021652063681
-0.0047698168433
-0.023415205346
-0.048591527851
-0.085679262454
-0.15158901114
-0.27873150103
-0.39768776107
-0.28905074952
-0.14171765737
-0.073978523549
-0.041877985752
-0.011577504377
-0.015164716672
-0.014599742053
-0.0021411569191
0.034585451419
0.096567658714
0.2265437063
0.6081440399
0.8106885499
0.30364214139
0.13134725468
0.076974522203
0.054072427857
0.036884702207
0.025850782272
0.021236360984
0.020768154681
0.02090316248
0.018602080782
0.015452119099
0.015249016022
0.02206790561
0.043561719138
0.092257394435
0.22101507774
0.77806051189
0.77481185721
0.22330847935
0.099674361367
0.065648012926
0.057389799347
0.073327482365
0.11450186107
0.15519371754
0.15537219572
0.13094054247
0.11834492856
0.10900897129
0.096677917573
0.052949448654
-0.0030117701062
-0.069188579254
-0.14269140396
-0.074844675599
0.39710970632
0.75383975214
0.37939700333
0.23283584414
0.19084650183
0.18789999762
0.20261342105
0.21534738135
0.1954232834
0.15512384286
0.11484644826
0.081711692824
0.057227282948
0.039918685782
0.027602556642
