# vtk DataFile Version 2.0
Vessel Segment
ASCII
DATASET POLYDATA
POINTS 77 float
0.0 0.0 0.0
-0.7840987519290397 -0.02206596548524146 -0.3121306675645165
-1.5418601384685653 -0.02928205472029758 -0.6850915750546226
-2.2875547002504235 -0.04413353134511922 -1.0815459822055455
-3.036161943870339 -0.09028193435733439 -1.469692844619459
-3.7997879032645696 -0.1988561508075256 -1.8128675793788342
-4.576754585626959 -0.41273181757668387 -2.0604727419825553
-5.330647866670558 -0.7734418572259484 -2.1660270514940567
-6.0117104985783065 -1.2710879526298318 -2.1829750188924257
-6.618936645891293 -1.8463442160208623 -2.285592640946325
-7.14712349066692 -2.4159815640638596 -2.609468457966614
-7.573532109885385 -2.945761581789919 -3.108287627978902
-7.897156668087775 -3.4760457175264112 -3.6797702079775476
-8.116484811242792 -4.048030815160854 -4.260314109166899
-8.221283743925962 -4.671114274557573 -4.819713860661514
-8.201565528032166 -5.317692833989747 -5.361576706891603
-8.049445117728377 -5.932217489831558 -5.918961586719123
-7.764082316330538 -6.44102299757433 -6.5271103500099334
-7.369305101798452 -6.79644699979991 -7.1818268144676685
-6.904131407952321 -7.0181260932956455 -7.850220080567185
-6.39566277907049 -7.162359857391771 -8.508879868128751
-5.853715913171994 -7.295266169812198 -9.14287148104646
-5.2792134262346595 -7.540270723631939 -9.704705402362881
-5.2603346068376 -8.106969783842699 -9.40893696507985
-5.714180849008032 -8.316566048834401 -8.731816856088615
-6.207043424624028 -8.3328450596348 -8.047818336910582
-6.681362459329269 -8.181982543795138 -7.367006163633413
-7.092752362773419 -7.882690081562983 -6.694167056794269
-7.4068947012557595 -7.478432247685483 -6.023424440728672
-7.604073659444447 -7.037508230515819 -5.331454455487251
-7.672875365433424 -6.652464494521682 -4.584777263678707
-7.610115073696463 -6.4510909544112645 -3.7711435978368355
-7.449770338136751 -6.544562435418736 -2.9522238945712798
-7.263835612142674 -6.904769957432203 -2.214356765135543
-7.099632373334853 -7.429600016408201 -1.5747430361205277
-6.972599435829631 -8.049998047165216 -1.0166859989457642
-6.884329972577437 -8.72997002375833 -0.5239914626665788
-6.827358235899957 -9.44870627479179 -0.08415730062423177
-6.785489234665196 -10.191943461319617 0.31481289545494767
-6.734726151389222 -10.9481860923293 0.6876073639828789
-6.647632163307389 -11.705518578466299 1.0511708716086583
-6.503062320537641 -12.45001445964557 1.4225362055863777
-6.294472691192166 -13.168079353519106 1.8147960308155704
-6.03151193395319 -13.852162692552863 2.234492678809412
-5.73188499342205 -14.502935833906767 2.681710969423626
-5.412455817328708 -15.127446027291743 3.152169900506123
-5.082706625393215 -15.734914631362129 3.6377315670313393
-4.742887876246152 -16.333104263291272 4.127825494526545
-4.384023068552535 -16.92540291618421 4.611373889759301
-3.9908414275328368 -17.508723867461196 5.078728894234703
-3.5480705780328874 -18.07347647202056 5.523932313181821
-3.0468180383861125 -18.605439000656865 5.946733687970076
-2.4849016977759226 -19.087502248227143 6.352669514653731
-1.8650814022626092 -19.49941227342809 6.751221212765519
-1.1934497780865494 -19.816760562400585 7.151871002025491
-0.48153512394029724 -20.013813090993008 7.559736880520519
0.25195218020955834 -20.073100969862868 7.972469498284521
0.9851622194536758 -19.996830715539957 8.38327206423715
1.702673783796712 -19.810241036225978 8.787109799772622
2.4013817463505953 -19.552407079134376 9.185410239066512
3.0872354998257534 -19.263108556412227 9.584634094525544
3.7684997789376755 -18.97646145436876 9.993489804733121
4.450644864240049 -18.71998701553069 10.420368133907338
5.133880804903887 -18.515441532891135 10.872544385144796
5.812523720373264 -18.381729431841332 11.356722527796935
6.4737219802981185 -18.339373916717136 11.879640139082559
7.0934897353870925 -18.413017956261886 12.447194999630078
7.631057776233854 -18.626683573860028 13.060310925698289
8.030977594612846 -18.987763700143937 13.707769291086766
8.245725865652444 -19.471740195591902 14.36276262035658
8.26454587128162 -20.030913093981823 14.993020559247812
8.11512659329365 -20.621055642146015 15.57686163228159
7.841241578763908 -21.21676109254597 16.108421266603212
7.486941239579837 -21.81020941456826 16.59355573312395
7.092193381919986 -22.404899727331728 17.045144746893303
6.699346794333907 -23.011866964035587 17.481798464416258
6.375265985576514 -23.648809223928723 17.930485998970006
LINES 1 78
77 0 1 2 3 4 5 6 7 8 9 10 11 12 13 14 15 16 17 18 19 20 21 22 23 24 25 26 27 28 29 30 31 32 33 34 35 36 37 38 39 40 41 42 43 44 45 46 47 48 49 50 51 52 53 54 55 56 57 58 59 60 61 62 63 64 65 66 67 68 69 70 71 72 73 74 75 76
POINT_DATA 77
SCALARS MaximumInscribedSphereRadius float
LOOKUP_TABLE default
1.2400000095367432
1.0894500017166138
0.9431179761886597
0.9300000071525574
0.9300000071525574
0.9300000071525574
0.9337779879570007
0.9672260284423828
0.8462979793548584
0.7814459800720215
1.0838899612426758
0.8732140064239502
0.78923499584198
1.0991100072860718
1.056249976158142
0.7133709788322449
0.8746669888496399
1.2249300479888916
1.075700044631958
0.9720079898834229
1.3552000522613525
1.6798800230026245
1.7486399412155151
0.9300000071525574
0.9300000071525574
1.0757499933242798
1.234179973602295
1.2400000095367432
1.2400000095367432
1.2400000095367432
1.2637100219726562
1.45169997215271
1.5591599941253662
1.5767899751663208
1.4492000341415405
1.280419945716858
1.3533799648284912
1.5037399530410767
1.5499999523162842
1.5499999523162842
1.437250018119812
1.2754299640655518
1.2400000095367432
1.2400000095367432
1.5114599466323853
1.8268200159072876
1.7192000150680542
1.5614299774169922
1.4030200242996216
1.2471799850463867
1.495919942855835
1.7547999620437622
1.82122004032135
1.8903299570083618
2.0365099906921387
2.120759963989258
1.631469964981079
1.2722100019454956
1.4329299926757812
1.5085599422454834
1.3514599800109863
1.2454099655151367
1.2641899585723877
1.367959976196289
1.6642800569534302
1.8041499853134155
1.6401400566101074
1.6287399530410767
1.8009999990463257
1.6482399702072144
1.334879994392395
1.4037699699401855
1.5547000169754028
1.568560004234314
1.5532599687576294
1.5628900527954102
1.5809999704360962
FIELD FieldData 2
Curvature 1 77 float
0.16015273037
0.083286644781
0.032567393316
0.058044436772
0.12355532432
0.20333653299
0.27683817371
0.23177067503
0.16720362733
0.30104909525
0.26921351483
0.16888121807
0.1418599205
0.153521682
0.15165753688
0.16188635104
0.2140183453
0.23847849417
0.18744504232
0.10623427793
0.086140723849
0.3018434283
1.789756726
0.83669799789
0.28685920981
0.2072323218
0.19355183984
0.17131199692
0.15144534639
0.18973877538
0.29288499435
0.38480712574
0.34834561469
0.24063867428
0.16087314053
0.11476863332
0.085495282932
0.061417743879
0.043218386795
0.049742231662
0.072703467461
0.086925841552
0.083909616269
0.0679517496
0.047881453929
0.029080913557
0.016311398938
0.02431056808
0.046025183273
0.068086765708
0.084084334966
0.094771996816
0.10723231594
0.12738242324
0.15130235564
0.16653380045
0.1618519775
0.13364474355
0.088230823891
0.040507343918
0.0134731873
0.041908764055
0.068262589345
0.091513514926
0.11875151227
0.15566612274
0.20137292025
0.24479044544
0.26632531106
0.25414719701
0.21421861086
0.16369178559
0.11071773041
0.06315094295
0.05683588025
0.13819834403
0.32436305401
Torsion 1 77 float
0.062747340507
0.17862432534
1.0704424782
0.35546193363
0.072473722449
0.009594954391
-0.085659264818
-0.5229361921
-1.4202273776
-0.20294156204
0.19444844773
0.49353364979
0.38578007699
-0.0045528992364
-0.35029152038
-0.53188005899
-0.29866623519
-0.064623826022
0.048279175373
0.27905604757
0.53275650683
0.090263216478
0.043936729559
-0.049869050696
-0.12381828395
-0.18316694841
-0.23075753388
-0.37393905717
-0.62510851762
-0.53093023399
-0.30476284949
-0.19482092239
-0.14566075024
-0.12103332562
-0.11265781993
-0.069759389219
0.04176913201
0.26010969766
0.72473644943
0.5812982057
0.26913299812
0.18304567823
0.1716020249
0.18339530286
0.1690250234
-0.034409351976
-0.90514901897
-0.35642829255
0.040202936464
0.1196918393
0.16380227437
0.20057532341
0.20381286065
0.15104581161
0.082950760252
0.043324550443
0.025599636724
0.027699451945
0.065826440346
0.32028477744
2.5230561664
0.16141246325
-0.00025318539591
-0.0400715442
-0.055178706024
-0.063302405502
-0.081421479353
-0.098210004732
-0.090966349277
-0.059920541775
-0.023034401461
0.014761153489
0.074649846511
0.26888564655
0.43504059813
0.1255977503
0.056948307531
