# vtk DataFile Version 2.0
Vessel Segment
ASCII
DATASET POLYDATA
POINTS 76 float
0.0 0.0 0.0
-0.7994297469990539 0.18225569256365162 -0.2366949262452735
-1.6356244433402776 0.2569061417255483 -0.38735652193249004
-2.484788286426628 0.1960149347123616 -0.43245392026308643
-3.309815140151447 -0.009511922521453376 -0.3686728512304391
-4.081278304152894 -0.34013870354389253 -0.21571750855916633
-4.793536958914564 -0.7604483998384273 -0.004075612579015105
-5.4595788797764415 -1.2366406409465005 0.23873435241259464
-6.098918734758953 -1.7434080757862551 0.4918192023758629
-6.729850613949978 -2.26359295855605 0.7386221661779941
-7.365962862388892 -2.787176344978776 0.9638515972586139
-8.014135101150051 -3.310928198694116 1.1508632510829921
-8.671394854445502 -3.8405407703390573 1.2801246409747522
-9.319907267547517 -4.3935929739467765 1.3268338177298797
-9.916697792000223 -4.99913245847073 1.260420447250134
-10.383123789770108 -5.680681469642191 1.053790453225258
-10.640286682129112 -6.417688617640027 0.71475650635024
-10.688440789893969 -7.1565651046347565 0.29257909093662565
-10.585082866119471 -7.867414465698595 -0.16815789595189945
-10.381680478638192 -8.547264225043591 -0.6429910595743631
-10.109994571741366 -9.203165710792337 -1.1175699023800918
-9.786672629719352 -9.846326857537129 -1.5771178989534351
-9.416131249430926 -10.491951838436403 -1.9953881690806488
-8.984525335203259 -11.163734606269676 -2.2909397358052286
-8.518354468189015 -11.721458537491815 -2.0032866932997577
-8.35180997053946 -11.662601897012507 -1.177954087637622
-8.299833761073415 -11.391596338797394 -0.37037210305690443
-8.275799633953048 -11.047382022674485 0.410883627297202
-8.255756075826481 -10.673272861501609 1.1784643491489057
-8.227050221091693 -10.29941964102328 1.9459608373543023
-8.179490608484425 -9.961744771633871 2.7288299660107533
-8.102460558814352 -9.716216651671042 3.542272668521072
-7.987382819058465 -9.656426961571103 4.383572409791853
-7.846571700355743 -9.88318555730776 5.189540996070226
-7.722916707576849 -10.38502694371636 5.864890734849043
-7.650387488411861 -11.054345877395148 6.38770953894375
-7.638327498089616 -11.806471345027303 6.790608788497723
-7.684019391577803 -12.597153144378742 7.1095141336609595
-7.778884295975602 -13.40473512895946 7.370329040550722
-7.908994501841688 -14.219367631723868 7.591481239174513
-8.05422140746428 -15.03807574706729 7.786817445082977
-8.188153715031552 -15.862050085182723 7.967968380977753
-8.277072857914536 -16.69264810367796 8.145299644988064
-8.281150090371366 -17.526133554375942 8.329593143841224
-8.159872268283928 -18.345946426388238 8.531893204470348
-7.885383972769576 -19.119566052729038 8.762643179139715
-7.455562353953588 -19.80532755615476 9.03042194075014
-6.895630529271513 -20.368682182656972 9.340324005025392
-6.247033072584284 -20.794393766490405 9.694644738827344
-5.551046090460217 -21.087048181745363 10.092193531963
-4.839262869836837 -21.265567221162495 10.528216043049445
-4.1303832801943345 -21.355718686092175 10.995660943964083
-3.4315683963771755 -21.383337197844586 11.485781704452387
-2.7416790393129475 -21.36994404808175 11.989151445578118
-2.0554165886733675 -21.330350589592307 12.496173201234608
-1.3668948134532701 -21.271877455185372 12.998268908459943
-0.672377060506136 -21.196061908906042 13.489663702848643
0.028408607155992607 -21.10295497690545 13.969084360439219
0.7327185214863327 -20.995996469720776 14.440350553116138
1.4364764624516888 -20.885249878269 14.911617555731963
2.1350028055333 -20.788890231618705 15.393585471184423
2.821622262056643 -20.73479967663646 15.898382324663935
3.4831997237324686 -20.76169653282291 16.436988457929978
4.093117079911219 -20.913819663267446 17.013345843641947
4.610313085630197 -21.221395987971825 17.61692203625582
4.999063613663653 -21.672934093726376 18.226639185661043
5.251818616007126 -22.220551202300015 18.829960652488726
5.380323522959936 -22.815703220344265 19.428042624528324
5.398396297241534 -23.42344978838925 20.02722854329789
5.316644303744819 -24.019238215929516 20.633157608436015
5.1432039862427725 -24.584741610351465 21.248759773938048
4.885038996971332 -25.105445056506337 21.87411198400013
4.549445063118218 -25.57193048354351 22.505519601056537
4.145339409562567 -25.986652107592946 23.13305449523008
3.681603168280982 -26.3713601293002 23.73819032645136
3.167586818191258 -26.785048170062193 24.279069388740496
LINES 1 77
76 0 1 2 3 4 5 6 7 8 9 10 11 12 13 14 15 16 17 18 19 20 21 22 23 24 25 26 27 28 29 30 31 32 33 34 35 36 37 38 39 40 41 42 43 44 45 46 47 48 49 50 51 52 53 54 55 56 57 58 59 60 61 62 63 64 65 66 67 68 69 70 71 72 73 74 75
POINT_DATA 76
SCALARS MaximumInscribedSphereRadius float
LOOKUP_TABLE default
1.2400000095367432
1.2400000095367432
1.2400000095367432
1.2400000095367432
1.2400000095367432
1.3280500173568726
1.479159951210022
1.5499999523162842
1.5499999523162842
1.5499999523162842
1.5499999523162842
1.5187699794769287
1.3842400312423706
1.2724800109863281
1.251979947090149
1.4504499435424805
1.9173400402069092
1.9919400215148926
1.8684099912643433
1.6865099668502808
1.4432400465011597
1.2400000095367432
1.2400000095367432
1.2726800441741943
1.4283599853515625
1.5585299730300903
1.7302500009536743
1.8413599729537964
1.7009400129318237
1.5601099729537964
1.8366700410842896
2.1728498935699463
1.8425899744033813
1.5499999523162842
1.5499999523162842
1.5499999523162842
1.5499999523162842
1.6208399534225464
1.7565300464630127
1.8004499673843384
1.5339399576187134
1.2629499435424805
1.2400000095367432
1.2400000095367432
1.2676899433135986
1.3051700592041016
1.5341399908065796
1.8227699995040894
1.8751399517059326
1.8630000352859497
1.8600000143051147
1.8600000143051147
1.8677500486373901
1.8795000314712524
1.9588700532913208
2.0937299728393555
2.1069700717926025
1.9620699882507324
1.8600000143051147
1.8600000143051147
1.8600000143051147
1.8600000143051147
1.8600000143051147
1.8600000143051147
1.8971999883651733
2.0594398975372314
2.2596499919891357
2.5584800243377686
2.6989800930023193
2.262160062789917
1.887470006942749
2.1928598880767822
2.4800000190734863
2.4800000190734863
2.6285600662231445
3.0999999046325684
FIELD FieldData 2
Curvature 1 76 float
0.17567551538
0.20310026132
0.22332293469
0.22190755083
0.19211772969
0.14486489009
0.095358667486
0.051857217322
0.020413483697
0.026999143307
0.051204268913
0.077174814027
0.11170284135
0.16737433103
0.24718916655
0.30891409726
0.28330103214
0.20787180473
0.13692443021
0.085318871232
0.071226588675
0.12642033744
0.2768029704
0.80637507829
1.4027883007
0.38834459437
0.16379205111
0.064545829402
0.011070908089
0.069513906849
0.14545638401
0.24817909589
0.35701515987
0.37318148484
0.2905112809
0.20438186081
0.14149696776
0.098536039597
0.06471320208
0.035181708002
0.027312915331
0.060981781682
0.10716146283
0.15505693386
0.19376043076
0.21536306431
0.21636906115
0.19976700534
0.17388585964
0.14272283038
0.10977919007
0.078280125904
0.050733909901
0.0303192958
0.022405402188
0.025335760827
0.027237646516
0.021001554971
0.0052375205791
0.024282127949
0.063155162362
0.1135016901
0.16999555439
0.2181216545
0.23121083426
0.20055557146
0.15946104229
0.13085960249
0.1171917524
0.11395088755
0.11690176477
0.12219926117
0.12461751991
0.13664115888
0.20608671428
0.48307887967
Torsion 1 76 float
0.010719321299
0.016512261469
0.025653020124
0.037284906007
0.046025721189
0.052299644362
0.076118107953
0.21120027808
1.2163533915
0.4580240771
-0.051111604465
-0.19536505217
-0.25673292805
-0.23895064657
-0.16908829996
-0.086011530318
-0.02546311858
-0.010987239822
-0.037141305826
-0.14734443738
-0.31077045144
-0.15677420009
-0.066463098063
-0.0098671317356
0.097199429271
0.055687517595
0.051431800375
0.11928061704
3.3054305045
0.12972234666
0.059138425747
0.054776914628
0.07790422495
0.10779540604
0.12243649936
0.12707158564
0.12107616313
0.085763032992
-0.023405699776
-0.44259149645
-1.0170611108
-0.23395792285
-0.094380965946
-0.072275572643
-0.07835142499
-0.094263483095
-0.11188751148
-0.12481463103
-0.12256831194
-0.10839182736
-0.093214093732
-0.045523761324
0.062092704238
0.34575203676
0.5134578209
0.14673533144
-0.051978317792
-0.15579636269
-2.4477269802
-0.21169204572
-0.073390177768
-0.03719924748
-0.0059154568818
0.025830154403
0.081851679689
0.14293869075
0.18947613371
0.20764009043
0.18535863011
0.13704038469
0.09482733698
0.02219265988
-0.084567865272
-0.19150890632
-0.21383492096
-0.18681710679
