# vtk DataFile Version 2.0
Vessel Segment
ASCII
DATASET POLYDATA
POINTS 89 float
0.0 0.0 0.0
-0.6020796078484647 0.4049314389239017 -0.014614811922012524
-1.2851885572190307 0.6402780703372939 0.03284503383700709
-2.0001310535850556 0.627980156651242 0.14028204751013795
-2.6668899322297257 0.3762813846207364 0.271014996870873
-3.2534867537723664 -0.036465963539902085 0.3830816672334904
-3.768098278485274 -0.5451431101326496 0.44819492522160137
-4.223383271090059 -1.1114101501021576 0.4447947839152243
-4.623105483783615 -1.7107402524502342 0.351176364009163
-4.959088846257384 -2.3207068358005647 0.14556302996935258
-5.211728728828048 -2.914900848074642 -0.1858624320437982
-5.359752169491097 -3.4637311244291418 -0.6369510651872634
-5.395275642563363 -3.9467250607969344 -1.1777529234733781
-5.329439302576656 -4.363377603720985 -1.7692698764396744
-5.185610841447447 -4.731484297960643 -2.37945172847661
-4.987015818561953 -5.075210433514802 -2.9886220936719976
-4.751740943377429 -5.417992698673847 -3.5852033804834256
-4.494543160346147 -5.7816863848381015 -4.159934895604442
-4.228664253549274 -6.188282016300757 -4.700808510119425
-3.9695138731362865 -6.662524452601568 -5.18640774956613
-3.740099549951837 -7.2319018491070235 -5.573034450491212
-3.5821640902126077 -7.908643123129263 -5.770255065608382
-3.5611105366771394 -8.613024344540598 -5.638727278020183
-3.692493431880124 -9.1422486112843 -5.170346773646925
-3.9042571026904387 -9.426720660922944 -4.539183124303388
-4.138664003491151 -9.531987048672809 -3.860124952045189
-4.36988741159957 -9.52113529898395 -3.1712278968671557
-4.583893464562021 -9.43648778761391 -2.4815346235341798
-4.7688147860656604 -9.309733169172933 -1.7898156166631514
-4.909386618346228 -9.17314242766708 -1.0897052707969612
-4.980938617947795 -9.072722345220786 -0.37367746146930236
-4.945415144875529 -9.08842316006817 0.34994684862605346
-4.7808960511376295 -9.31212320356524 1.0173556731129731
-4.5388926495692195 -9.730293666715351 1.5577228542434431
-4.283577087618254 -10.25727417137944 1.9876144213937033
-4.0424416604336555 -10.84047292150692 2.3485586020575697
-3.8234444097824207 -11.456298676929848 2.6671790270364166
-3.6279597434328728 -12.093466390731194 2.9579449259033015
-3.4543248487737364 -12.745755349839067 3.2284541793534007
-3.2987049073429895 -13.408969194792146 3.4831191054983774
-3.154804000021174 -14.079416619586144 3.7251949532593946
-3.0141597215479985 -14.753845135154858 3.958155690062914
-2.8658464961145187 -15.428199134639746 4.186557836442076
-2.6974208276857286 -16.097273531592897 4.416262634360695
-2.4960762992998458 -16.754265283546605 4.6542152588167385
-2.2503822816908903 -17.389986833350758 4.90728774865183
-1.9520198820563082 -17.993946592388323 5.180618953794924
-1.597297794391814 -18.555439083283126 5.476087645507642
-1.1867231420456605 -19.06542026134281 5.791886118793493
-0.7243473920939523 -19.51781154602573 6.123399206201512
-0.21581375795894142 -19.90957571695229 6.464562816428584
0.3325839111311311 -20.23977166358233 6.8091272579257724
0.9149119270198445 -20.50825587345812 7.1516011092934315
1.5255795135291197 -20.714664045725392 7.487779731505371
2.158559147434016 -20.858057829698957 7.815335186905805
2.8070132880798666 -20.93785765583795 8.13422331781543
3.4631153317919785 -20.955872609066336 8.44697629115681
4.118963813829964 -20.91861318722645 8.758687419252123
4.7681344818188895 -20.839030009701542 9.07654094953494
5.406800451879732 -20.735644463104514 9.408603248079297
6.0336087051200815 -20.630233182969437 9.761929194117684
6.64816095997153 -20.54392285898812 10.140909371903982
7.24938691018377 -20.495160361689646 10.546860749725237
7.834214362840174 -20.50065937269042 10.978662308996313
8.39688674563229 -20.575105080213852 11.432746937185966
8.928498707359998 -20.73130459118546 11.902994052209943
9.416569483165693 -20.979674978138455 12.380490443749904
9.845194880609203 -21.326654982686296 12.85330594879275
10.196697424976035 -21.7718126875283 13.306944029030948
10.455970618934586 -22.304800016505155 13.726664249028632
10.617653789213772 -22.904924957080695 14.102653563374053
10.688634326348415 -23.548387900037763 14.432755588690107
10.684141627461143 -24.215942306873636 14.72047607385799
10.622407121903496 -24.895651804901565 14.971089360435927
10.520794437134136 -25.58201669315703 15.188567310933623
10.394163839675267 -26.273590117679106 15.373995065821775
10.254416514062946 -26.971096540393862 15.524912904370428
10.11034277082448 -27.67521626554807 15.635351950272465
9.967368829786171 -28.38544837946713 15.696948980555092
9.827310503018442 -29.098857086441097 15.701152412144738
9.688576044175148 -29.81005894439549 15.642051325688373
9.547222655469092 -30.51239856310277 15.51839429945417
9.398482514972033 -31.199660404219095 15.33366099306944
9.238152191094324 -31.867280012628314 15.094464363991765
9.063352378907153 -32.51252961668783 14.808494575566428
8.872337901377888 -33.13407068674375 14.483044630761382
8.664019952603464 -33.7313826451549 14.124466508249888
8.437505773408883 -34.30428644633099 13.738155983208259
8.191734749378233 -34.85268957903773 13.328729080151787
LINES 1 90
89 0 1 2 3 4 5 6 7 8 9 10 11 12 13 14 15 16 17 18 19 20 21 22 23 24 25 26 27 28 29 30 31 32 33 34 35 36 37 38 39 40 41 42 43 44 45 46 47 48 49 50 51 52 53 54 55 56 57 58 59 60 61 62 63 64 65 66 67 68 69 70 71 72 73 74 75 76 77 78 79 80 81 82 83 84 85 86 87 88
POINT_DATA 89
SCALARS MaximumInscribedSphereRadius float
LOOKUP_TABLE default
0.6200000047683716
0.8435410261154175
1.1112600564956665
1.2400000095367432
1.2400000095367432
1.2400000095367432
1.2400000095367432
1.2400000095367432
1.2400000095367432
1.24167001247406
1.259529948234558
1.2848299741744995
1.557860016822815
1.8206299543380737
1.8600000143051147
1.8600000143051147
1.806249976158142
1.6813100576400757
1.5531200170516968
1.5635600090026855
1.5789200067520142
1.734779953956604
1.8810499906539917
1.8655799627304077
1.8600000143051147
1.8600000143051147
1.936210036277771
2.0707600116729736
2.2095301151275635
2.362760066986084
2.4739699363708496
2.3333899974823
2.2312099933624268
2.1826000213623047
2.2766900062561035
2.4128201007843018
2.420340061187744
2.2985401153564453
2.1789700984954834
2.3971199989318848
2.644700050354004
2.7245900630950928
2.478450059890747
2.227400064468384
2.1857900619506836
2.1753199100494385
2.1700000762939453
2.1700000762939453
2.1715400218963623
2.181999921798706
2.192389965057373
2.1193699836730957
2.0209898948669434
1.9357000589370728
1.8725199699401855
1.8068900108337402
1.6942499876022339
1.5809099674224854
1.6320600509643555
1.744070053100586
1.924970030784607
2.207740068435669
2.4755699634552
2.344820022583008
2.213099956512451
2.260309934616089
2.3959500789642334
2.4261701107025146
2.2868199348449707
2.163300037384033
2.1222000122070312
2.082119941711426
1.997979998588562
1.9090299606323242
1.9153399467468262
2.0403499603271484
2.1666998863220215
2.3605899810791016
2.5602900981903076
2.6113901138305664
2.547679901123047
2.4354898929595947
2.163249969482422
1.8937000036239624
2.0928099155426025
2.356489896774292
2.4372100830078125
2.303459882736206
2.1700000762939453
FIELD FieldData 2
Curvature 1 89 float
0.25560581428
0.32960554121
0.38395027411
0.34614354109
0.25128087979
0.17790525509
0.14598633576
0.15161452055
0.17985300746
0.2115808079
0.22985973702
0.22126965057
0.1879140028
0.138640197
0.091192920849
0.057147740461
0.050972995982
0.081115006764
0.13508499099
0.21677734572
0.34327052456
0.52310082018
0.60334508765
0.44624665015
0.27916223436
0.17291337091
0.1062620304
0.07132161736
0.084265726875
0.14546022032
0.24904435717
0.36758508432
0.36434197641
0.25154989841
0.16116375818
0.10407285129
0.069609339913
0.048929162932
0.036146059265
0.02710554034
0.020980764284
0.022521000975
0.034660825735
0.052604542169
0.07200029536
0.08942159839
0.10195717057
0.10810324055
0.10882869936
0.10555994516
0.10053601488
0.096302279086
0.093906619939
0.092889754958
0.091493652311
0.086742764555
0.076345954282
0.060090364764
0.041887504385
0.035353446236
0.048041459371
0.066177224147
0.085380396099
0.10412593851
0.12248815668
0.14107346476
0.1590325929
0.17403344292
0.18224281118
0.1751509863
0.15418622767
0.12610608192
0.097134308185
0.072289711591
0.055584188565
0.051094890494
0.057798956808
0.069408768231
0.08046766485
0.087658856748
0.089785364012
0.087242401555
0.081601612378
0.074574951219
0.067618629346
0.061484935462
0.056548933731
0.053055391314
0.051159526757
Torsion 1 89 float
-0.018379888702
-0.03440915261
-0.06664778882
-0.11780320571
-0.18651485072
-0.26853264544
-0.29688836304
-0.20276378273
-0.08597134476
-0.0075950691465
0.034089435518
0.05950167228
0.087429767082
0.14025080594
0.26228543307
0.57159946586
0.66932736158
0.26419335251
0.10254897226
0.037182472453
0.0019215529306
-0.018483959842
-0.027948195838
-0.032796697882
-0.049979132674
-0.093485145272
-0.21565460113
-0.50556343086
-0.46487962131
-0.25179579749
-0.17525450872
-0.15446501397
-0.1360956419
-0.12203601584
-0.11669126851
-0.11252585343
-0.099515908495
-0.060988557715
0.020780362321
0.15325459831
0.35424015723
0.37896511246
0.20248714163
0.1117505803
0.067515193977
0.038456628311
0.013164366467
-0.0075449890182
-0.022539596275
-0.033285156048
-0.035917426803
-0.029526326331
-0.0084086862794
0.024176359706
0.060801091164
0.099442192935
0.15672766124
0.28050861001
0.61055871178
0.83482381285
0.41583714571
0.20220519206
0.11338555995
0.06921810844
0.042919601949
0.025061495752
0.010012693528
-0.00044718522827
-0.013060513072
-0.021702430908
-0.017928933832
0.0028237378847
0.050139764715
0.13869799288
0.26277622845
0.29385692833
0.17358227356
0.053245423644
-0.023052771567
-0.067437813038
-0.09121124427
-0.10064984419
-0.097571733621
-0.087751115851
-0.080718088026
-0.077838493708
-0.081474976629
-0.089371594039
-0.095848936589
