# vtk DataFile Version 2.0
Vessel Segment
ASCII
DATASET POLYDATA
POINTS 82 float
0.0 0.0 0.0
-0.7486106550029643 0.2610190980515882 0.0035578157273655243
-1.540901076704542 0.2833945766998268 -0.035029176805337715
-2.3146181619574095 0.10508753041601314 -0.06839783851282488
-3.0426145249656456 -0.2149982463751017 -0.05875146742667401
-3.717735321383925 -0.6297333837436978 0.01367926606494502
-4.342171194427169 -1.1042485728230134 0.14920957327488488
-4.925172615805336 -1.613949790270043 0.33384346863724806
-5.4831079509652705 -2.1422318851062814 0.5429899451852289
-6.037643076054265 -2.678581278088208 0.740039244984927
-6.6109189464710445 -3.2154826679146513 0.8671086169551379
-7.203013987996796 -3.7438462049082775 0.8366658401612111
-7.750037582254869 -4.254654432420541 0.5755683163284347
-8.156390210164924 -4.750438090082861 0.10809184111076181
-8.381826626378558 -5.248515701844937 -0.46826676578195425
-8.442475394434746 -5.759562223076965 -1.0744377268428917
-8.373128905607164 -6.280253607207044 -1.6719878847255243
-8.209131548014001 -6.802053509590456 -2.2503237262170432
-7.980138824261102 -7.316657846549849 -2.812924641263626
-7.709868500405504 -7.817186263974056 -3.3701488657345164
-7.4203838601587915 -8.295732839844067 -3.93694103551037
-7.1477419105163 -8.735770848962561 -4.541291613534881
-7.39602963872365 -8.711338201746232 -4.722604478701543
-7.8204111471783975 -8.394415095400342 -4.130272651644126
-8.16042310514372 -8.152531887958679 -3.452859409314191
-8.43519989504144 -7.976834007087473 -2.72689457567635
-8.654152610614148 -7.859015860921272 -1.9707237507762463
-8.82708296632227 -7.785794836865373 -1.1970790585521678
-8.962376488000544 -7.738508615373176 -0.4138649128350268
-9.061770608339913 -7.698024322210958 0.37511956055184736
-9.116567606568982 -7.654770995697556 1.1682168628868037
-9.105892651198785 -7.621560693740545 1.963369825601751
-9.0012802000342 -7.64322732398189 2.7514855826431557
-8.780668477551743 -7.785241331832755 3.5010128389637574
-8.454099000119701 -8.089590673990834 4.157394398242352
-8.066010530097902 -8.538247978099534 4.685993212579543
-7.6600530474699875 -9.087089693111885 5.094166223526025
-7.262792531519416 -9.70259030575802 5.405000774513129
-6.889491091721846 -10.365297205927064 5.639608482561485
-6.549716673382238 -11.063823573465728 5.813488996772464
-6.249637011734618 -11.790500271886662 5.938422774393396
-5.991227833189687 -12.538525372859889 6.0254029984835284
-5.772039086179365 -13.301495863807821 6.086842057103999
-5.585032056842008 -14.073718334653813 6.139661820734264
-5.41874300743124 -14.849498621227172 6.207349302652096
-5.258225793878304 -15.621166832946496 6.318920533709035
-5.085689829358273 -16.375913928280415 6.503396069320922
-4.882710333950266 -17.095156767557565 6.776590769901981
-4.632682910769827 -17.76120053389736 7.133049519095332
-4.3220866535024856 -18.362799422733833 7.551027260878441
-3.939296448275191 -18.89149400701536 8.00601065997164
-3.4749034636275047 -19.336577659421646 8.474119820097169
-2.924401233517304 -19.68140488494252 8.932898574543447
-2.2938292971901326 -19.904879525485374 9.362499167917461
-1.6046657613748627 -19.993021431459358 9.749163908373074
-0.8870035032262742 -19.9524730403029 10.089886977027438
-0.16471563217568044 -19.809707954778347 10.392102233024337
0.5512382259028897 -19.5961647328725 10.667037382672536
1.258857836542112 -19.337186213319907 10.924338797058182
1.9595744702486713 -19.050453639308255 11.17104519004292
2.6554204104870123 -18.74875229840635 11.413639508173626
3.3481349751831986 -18.443587780580348 11.660899406190982
4.0388253629259765 -18.1483313044758 11.925159600468984
4.727080215411133 -17.880339098744912 12.222314131297093
5.408909255756412 -17.661917265383323 12.570043487768954
6.073419842848309 -17.520843612812666 12.98405921941396
6.697076453952751 -17.492764920865135 13.476039980782701
7.234769454008063 -17.620285241077177 14.045836461253302
7.6256801210115635 -17.92681014456918 14.664127975978069
7.837388820617547 -18.381832756552974 15.279280197173158
7.889015230413866 -18.92537696086487 15.85709458262918
7.818775140137168 -19.512410900174807 16.389481965473003
7.657933666142781 -20.12094519198809 16.876536607460856
7.426955035709504 -20.74317420879434 17.31591101381545
7.139170689021775 -21.376592473112808 17.70268604052586
6.803966646195018 -22.01844754166141 18.033375133752433
6.4302858970903545 -22.66356840301656 18.312722487686518
6.02951408358912 -23.306546506128953 18.557657513748072
5.618360822261169 -23.944163283331925 18.799476905980764
5.230531595634457 -24.572189445277555 19.096402097955952
4.9808942040358835 -25.1422127430991 19.57855842778101
5.137840452346459 -25.397152735532966 20.293608457009917
LINES 1 83
82 0 1 2 3 4 5 6 7 8 9 10 11 12 13 14 15 16 17 18 19 20 21 22 23 24 25 26 27 28 29 30 31 32 33 34 35 36 37 38 39 40 41 42 43 44 45 46 47 48 49 50 51 52 53 54 55 56 57 58 59 60 61 62 63 64 65 66 67 68 69 70 71 72 73 74 75 76 77 78 79 80 81
POINT_DATA 82
SCALARS MaximumInscribedSphereRadius float
LOOKUP_TABLE default
0.9300000071525574
0.9300000071525574
0.9300000071525574
0.9300000071525574
0.9300000071525574
0.8050119876861572
0.6689389944076538
0.7902330160140991
1.0607000589370728
1.1884900331497192
1.0351500511169434
0.9300000071525574
0.9300000071525574
1.2246899604797363
1.650480031967163
1.4733999967575073
1.1200400590896606
0.9300000071525574
0.9300000071525574
0.9300000071525574
1.075909972190857
1.2762199640274048
0.9425209760665894
0.6642069816589355
0.8237699866294861
0.9300000071525574
0.9300000071525574
0.9300000071525574
0.9300000071525574
0.9410669803619385
1.0988399982452393
1.2400000095367432
1.2400000095367432
1.2400000095367432
1.2400000095367432
1.2400000095367432
1.2400000095367432
1.2837799787521362
1.4179999828338623
1.5489000082015991
1.4148999452590942
1.2789100408554077
1.339460015296936
1.480180025100708
1.4038200378417969
1.114150047302246
1.0379899740219116
1.329990029335022
1.5151499509811401
1.371269941329956
1.2273099422454834
1.081820011138916
0.9371389746665955
1.371209979057312
1.8249599933624268
1.7747399806976318
1.6843199729919434
1.7398600578308105
1.8272099494934082
1.6864800453186035
1.4090399742126465
1.246399998664856
1.2628899812698364
1.2771999835968018
1.2771999835968018
1.2771999835968018
1.294909954071045
1.313670039176941
1.2743200063705444
1.2400000095367432
1.2400000095367432
1.2690900564193726
1.569790005683899
1.8664699792861938
1.8741600513458252
1.8628699779510498
1.7557200193405151
1.6152299642562866
1.3904600143432617
1.0716899633407593
1.292099952697754
1.8600000143051147
FIELD FieldData 2
Curvature 1 82 float
0.33264692024
0.31717282282
0.25502123611
0.1978605997
0.16102418618
0.12989630007
0.093204056099
0.050901721888
0.045065903044
0.12040638285
0.22722756837
0.31173093774
0.32605306905
0.28264509183
0.23342835214
0.1846794864
0.1345625172
0.087064249238
0.059620122625
0.10600115438
0.26228973236
1.0390916871
1.0174832114
0.26882849658
0.14956514221
0.10909002858
0.083606751314
0.062105695923
0.053616426683
0.063432762725
0.088133173071
0.13957914214
0.21838223088
0.27864851421
0.26707539118
0.21043429224
0.15596661697
0.11863884584
0.097383497398
0.086443090794
0.077173667508
0.064192389903
0.046853874799
0.035512030003
0.057180061249
0.095879413475
0.12746229192
0.13872962798
0.13486560381
0.1359569055
0.14671316657
0.16658011146
0.18746564977
0.19435716453
0.17702790063
0.13878593879
0.09641929583
0.062400229899
0.038513118227
0.021182478566
0.010109879555
0.024409262237
0.053077513771
0.089768815687
0.13302462282
0.18584625674
0.2508060262
0.30435474745
0.29850503963
0.23957116127
0.17527947816
0.13032296033
0.10710936078
0.09740708718
0.093051385684
0.081651362048
0.056045726119
0.033458461431
0.1115850175
0.32671190046
0.84457866598
0.67780339967
Torsion 1 82 float
-0.091608537511
-0.15446908392
-0.22127316067
-0.2543569133
-0.19917848168
-0.11461017063
-0.037965509269
0.18612725694
0.46401937559
0.037893080873
-0.1003389632
-0.24025163028
-0.31940954432
-0.29515099734
-0.17402495558
-0.065984610268
0.011242864341
0.11802005464
0.31181326245
0.12617759438
0.041488466131
0.042749967255
0.058381728923
0.032187420111
0.02617473214
0.0065789369899
-0.063497269241
-0.24229241323
-0.33590331816
-0.014152371196
0.32558050916
0.32542935637
0.20344715461
0.11799699628
0.08566869594
0.088918348607
0.11080390263
0.13575025651
0.1474629879
0.12997223423
0.11786218935
0.16571350513
0.40594864846
0.96156757375
0.4585350037
0.20220350206
0.16901854814
0.19764612432
0.22929252176
0.21364029536
0.14957177442
0.070183483895
-0.0049331904556
-0.042771470514
-0.054663884613
-0.051013911986
-0.037413411336
-0.022039710716
-0.036676857329
-0.23475449549
-1.5064835353
-0.31857549762
-0.082035280755
-0.039866741344
-0.026771181987
-0.018550782364
-0.010208581168
0.00360224821
0.021090800374
0.033564710232
0.021542970881
-0.037072953017
-0.099319032636
-0.1099376503
-0.046938588099
0.029560924748
0.14675212867
0.60320932336
0.11364634982
0.046540261293
0.026813712354
0.0072583626377
