# vtk DataFile Version 2.0
Vessel Segment
ASCII
DATASET POLYDATA
POINTS 47 float
0.0 0.0 0.0
-1.288492887799751 -0.25749088374168344 0.4423878329082197
-2.6740468487970968 -0.3560127107676271 0.49642466316955647
-4.052723229408855 -0.38494149259764143 0.30006551380694435
-5.411505379151231 -0.43952228285920075 -0.004639276078452596
-6.762031179081618 -0.6190993552771495 -0.29324258968932104
-8.081431535745686 -1.0351506750645492 -0.4238307285944093
-9.269780476566677 -1.7366664770739735 -0.27468418403579725
-10.259340992114971 -2.627993087007925 0.12758594818615693
-11.111818544915806 -3.594507201565931 0.6575786692641804
-11.93509736922982 -4.5847642591958495 1.1903002997213104
-12.823143383079893 -5.58116103759383 1.5856381952897114
-13.81557774471788 -6.549038956171533 1.641735046317441
-14.805201212574811 -7.413347150974816 1.2018991405872985
-15.626525993975347 -8.149250854912182 0.35683125344738775
-16.22638374024941 -8.816789978343115 -0.7068382814374388
-16.611447233445187 -9.479963107035422 -1.8688930026782966
-16.790804054116634 -10.181206929044734 -3.0586467397199577
-16.770130971428753 -10.944129048112769 -4.22329372967001
-16.557165100647865 -11.776916192376843 -5.318757596433869
-16.167162047234758 -12.673632951403908 -6.31010517674366
-15.625570810625673 -13.619064061264295 -7.1775509015960735
-14.966150257664568 -14.601828655494021 -7.912092102853456
-14.226433953701719 -15.639285304530805 -8.472649389781301
-13.51284609083957 -16.80662021165899 -8.618383821611244
-13.427045693183363 -17.782821499043926 -7.729649480386488
-13.909600921688156 -18.1712688008296 -6.48804256112266
-14.523173812537207 -18.279805738290264 -5.242888189799967
-15.146107646613773 -18.1922288289243 -4.000189446516554
-15.698301548538197 -17.918335208764425 -2.751622962465191
-16.0959868982822 -17.465740317813754 -1.4969154563060534
-16.272778453043507 -16.881438135804423 -0.2461653242155199
-16.21557643926413 -16.255340175548337 0.9962601377280679
-15.959954604685889 -15.690360285604328 2.2430802238839793
-15.556347020573435 -15.289632240942812 3.5134935990447564
-15.054355063442273 -15.168910209075252 4.804197463017661
-14.518283296560327 -15.443744697847952 6.0545513371654485
-14.029350120786178 -16.133185368656267 7.156018934697314
-13.6331751384471 -17.112593807765002 8.061209367268514
-13.321306564939604 -18.23794098903869 8.820802008679685
-13.070797307760287 -19.420845124498605 9.513913108149787
-12.867333097730146 -20.60937169819048 10.212810289320819
-12.711344149625074 -21.763320049021324 10.97807937456206
-12.619028005023917 -22.837851378491933 11.859362569922526
-12.620253379031595 -23.773184580178334 12.890023460308207
-12.748241685190406 -24.49892107960197 14.069718329367284
-13.017413516200623 -24.963969100273648 15.352664764974277
LINES 1 48
47 0 1 2 3 4 5 6 7 8 9 10 11 12 13 14 15 16 17 18 19 20 21 22 23 24 25 26 27 28 29 30 31 32 33 34 35 36 37 38 39 40 41 42 43 44 45 46
POINT_DATA 47
SCALARS MaximumInscribedSphereRadius float
LOOKUP_TABLE default
1.2400000095367432
1.2400000095367432
1.2400000095367432
1.2400000095367432
1.2694400548934937
1.312999963760376
1.287019968032837
1.698799967765808
2.032320022583008
1.326200008392334
0.8885409832000732
0.6963019967079163
1.0728000402450562
0.9500719904899597
0.9166259765625
0.9989039897918701
1.2060999870300293
1.2072199583053589
0.97809898853302
1.2205599546432495
1.557289958000183
1.6278899908065796
1.667799949645996
1.6705199480056763
1.8582700490951538
1.9149099588394165
2.162830114364624
1.7447700500488281
1.6477500200271606
1.8419500589370728
2.040560007095337
2.0243799686431885
1.6180299520492554
1.7204300165176392
1.7897599935531616
1.5702199935913086
1.9025399684906006
2.1132900714874268
2.1503500938415527
1.9558299779891968
1.8600000143051147
1.8600000143051147
2.167520046234131
2.5193099975585938
2.729180097579956
2.801259994506836
2.7899999618530273
FIELD FieldData 2
Curvature 1 47 float
0.37875152681
0.31329977512
0.18226224254
0.079198068141
0.10552553154
0.22126628929
0.31451551516
0.27613441481
0.15270290097
0.024658105423
0.12119377621
0.27034020058
0.37642447496
0.34090684712
0.23965537469
0.1735879544
0.15017926588
0.14872618365
0.15264365033
0.15201250026
0.14294891716
0.13367521736
0.18277377396
0.39044230702
1.1216018524
0.71719344754
0.27293521946
0.14969488821
0.13974106126
0.17036067312
0.18606644404
0.17029750305
0.14661237142
0.15741670765
0.21383983258
0.28852035292
0.32343046774
0.26927139458
0.170264396
0.083890071377
0.033667517169
0.06422604683
0.11198432941
0.16039829708
0.20426117895
0.23021526829
0.2274760242
Torsion 1 47 float
-0.033132719324
-0.076569011117
-0.21110421638
-1.0086422804
-0.60854655567
-0.16075595175
-0.076802240423
-0.037555693308
0.023164815394
3.2894561297
0.070421944847
-0.073948260967
-0.15970967187
-0.21605729128
-0.27152016942
-0.30056154185
-0.25801470057
-0.17752273299
-0.11227901768
-0.064971625608
-0.041502838519
-0.10650461681
-0.1826580985
-0.15021012887
-0.13447148523
0.010876007375
0.12933544405
0.30474592634
0.34110558563
0.26683947233
0.26903105766
0.36312229121
0.51678042537
0.43847355745
0.22442889236
0.11180549274
0.060161681704
0.04539125739
0.078411634255
0.2865933981
1.5625669705
0.29345309213
0.038029911863
-0.023541269208
-0.034803994266
-0.027358640026
-0.01797091065
