# vtk DataFile Version 2.0
Vessel Segment
ASCII
DATASET POLYDATA
POINTS 68 float
0.0 0.0 0.0
-0.9097287248665118 -0.27762341723425593 0.08921577601443656
-1.825917896229976 -0.547929223541529 0.11144768558655795
-2.7444819385988417 -0.8108231852001244 0.09130703976127616
-3.6641867526563 -1.069157684478262 0.07410938555199739
-4.573724291798989 -1.3399382837679197 0.16779039022519718
-5.342077063506104 -1.7019298769102031 0.5822266738644805
-5.866346374154446 -2.2507108283208956 1.158752207566433
-6.363822500663253 -2.9334595126162184 1.6019768931834404
-6.913364570595325 -3.6610525753164738 1.8845403320588443
-7.49844181454107 -4.3989062405597155 2.044348038744329
-8.083803571838855 -5.151105177744016 2.107625982862305
-8.62203940735452 -5.939410127833024 2.0812115457965046
-9.043697256012138 -6.786241467842249 1.9587439513325362
-9.265737274942177 -7.686563130221894 1.7397429699271485
-9.249491018884624 -8.596197621366711 1.4551861254005112
-9.031155110091966 -9.476092312382079 1.1572317827106284
-8.666028433516379 -10.317793351119812 0.8932921891786131
-8.192020128083458 -11.127094299277175 0.7158120353014651
-7.6409576332955815 -11.902857103446014 0.7314892646549394
-7.135310355803672 -12.536009855138644 1.1978972579957934
-6.926571789128226 -12.833108845585452 2.072755881461363
-6.895028862977888 -13.007928709011681 3.0113672420272937
-6.88828209094194 -13.255051207595107 3.9335420669053254
-6.830230494004107 -13.673003133928384 4.788260044545614
-6.695505266972008 -14.287057247295243 5.504166313568773
-6.517075527130091 -15.0474291476496 6.052093724923346
-6.353277384768227 -15.890460331612793 6.4696650919959335
-6.247434793435548 -16.776721235403418 6.80980352263983
-6.2198823029615875 -17.68131875290496 7.11573873668247
-6.265391753979251 -18.586391063388884 7.418538867291805
-6.355557115958456 -19.482248403203243 7.73862907364516
-6.446577830180737 -20.36774818847249 8.086083303029083
-6.490566856342595 -21.244983495130416 8.461851141408346
-6.4471468568848165 -22.112811739301478 8.858426510412578
-6.29265973110117 -22.963576431097977 9.263838103012638
-6.019693634342978 -23.78518212868432 9.666873918513822
-5.630530109987425 -24.563158519219503 10.060788090973656
-5.128873268171895 -25.279901112522705 10.443491168832256
-4.518998057924804 -25.913034383205563 10.81593364414787
-3.8091725822313847 -26.43715147014963 11.180109828665211
-3.0170674760963436 -26.831579397611392 11.538206125946289
-2.1691914103071763 -27.090455287742536 11.892881014255067
-1.2926220823554573 -27.225142458848566 12.247271389211805
-0.40759618397511865 -27.257094939250884 12.605271640584233
0.47438886469361097 -27.208914777707307 12.969543871010224
1.3478421371750609 -27.09932005328292 13.34103585426759
2.2111571297330324 -26.94209607214948 13.719178563652255
3.064477458183762 -26.747704136555306 14.102832133569102
3.908515312000827 -26.52628116728367 14.492376217185345
4.743745937213351 -26.290236567560235 14.892181809438052
5.569503355115126 -26.055217665653707 15.311749300442306
6.383014466617244 -25.839115730330647 15.764010456313747
7.179413776267107 -25.660609425589854 16.260679253533805
7.952849279338128 -25.540335483435722 16.80828318951679
8.696603085523968 -25.505447260165223 17.406338410345544
9.398280572248812 -25.59436810275262 18.047299875630145
10.029284183473706 -25.85378538373677 18.713601151115835
10.539325929386845 -26.31416966763699 19.37376454938268
10.878209448879364 -26.95404835121558 19.99336803225453
11.029812479123066 -27.707027887931034 20.558843755994303
11.011031709715486 -28.504063954772445 21.083711541384755
10.851888622595991 -29.292501421032583 21.598394609560987
10.591317714722033 -30.029338449393695 22.14716740613038
10.30027879071666 -30.670157771263963 22.7915115448911
10.123155506710956 -31.17723984777802 23.577602342305337
10.21053540638048 -31.57409134876962 24.43820913471975
10.543901644819062 -31.938414037276157 25.254127552542233
LINES 1 69
68 0 1 2 3 4 5 6 7 8 9 10 11 12 13 14 15 16 17 18 19 20 21 22 23 24 25 26 27 28 29 30 31 32 33 34 35 36 37 38 39 40 41 42 43 44 45 46 47 48 49 50 51 52 53 54 55 56 57 58 59 60 61 62 63 64 65 66 67
POINT_DATA 68
SCALARS MaximumInscribedSphereRadius float
LOOKUP_TABLE default
0.9300000071525574
1.0288499593734741
1.1355799436569214
1.2120599746704102
0.9348250031471252
0.7055460214614868
1.6409599781036377
1.6965999603271484
1.5780999660491943
1.7248599529266357
1.8547799587249756
1.6443699598312378
1.4228299856185913
1.366029977798462
1.466249942779541
1.498669981956482
1.157170057296753
0.8189160227775574
0.8432859778404236
1.1141300201416016
1.493690013885498
1.8350000381469727
1.3497999906539917
0.9538329839706421
1.267009973526001
1.5716099739074707
1.7107000350952148
1.837589979171753
1.8013099431991577
1.6672899723052979
1.5499999523162842
1.5499999523162842
1.5499999523162842
1.6323000192642212
1.7593300342559814
1.8439199924468994
1.7659599781036377
1.688330054283142
1.7251299619674683
1.8037899732589722
1.897629976272583
2.026520013809204
2.1547000408172607
2.281280040740967
2.4062399864196777
2.429769992828369
2.3058900833129883
2.1813299655914307
2.398819923400879
2.6530299186706543
2.730149984359741
2.600939989089966
2.461319923400879
2.181349992752075
1.9009499549865723
1.7355200052261353
1.6229100227355957
1.7034800052642822
2.1242599487304688
2.4192700386047363
2.0135300159454346
1.613420009613037
2.010200023651123
2.5944700241088867
2.568419933319092
2.218640089035034
2.1817400455474854
2.1700000762939453
FIELD FieldData 2
Curvature 1 68 float
0.10794406151
0.10339444948
0.11095596612
0.15198595087
0.26842577388
0.51976951962
0.42824964592
0.31748011139
0.25343851096
0.16854789339
0.10977739051
0.10976857774
0.17117704579
0.2443489271
0.26696934083
0.21887476945
0.16051981605
0.15461346303
0.26290296721
0.57651416143
0.7500456253
0.27262692376
0.10487466609
0.20398551735
0.27367918279
0.24990129944
0.17012803347
0.11439397489
0.092981834119
0.078198951718
0.052608845577
0.032395633218
0.059236469475
0.09555720841
0.11883536848
0.12780441121
0.12974305596
0.1334428004
0.14316148897
0.15548009948
0.16160208167
0.15416636633
0.13393904897
0.10812437781
0.08372380531
0.064552347976
0.051198303158
0.041538817851
0.032381563008
0.022880818171
0.023436644396
0.041367860605
0.063396677497
0.083974778742
0.10737281303
0.14399449795
0.19652254414
0.2490676158
0.26764748704
0.23925283827
0.1892802763
0.14861477308
0.14289829844
0.189121468
0.27080958146
0.3335779367
0.33056234168
0.27544960365
Torsion 1 68 float
0.0070040417747
0.011490072305
0.015587433594
0.014748650168
0.027040790127
0.17311126159
1.0185022196
0.49044981372
0.12302269085
-0.056129911836
-0.35931429927
-0.47111732473
-0.22458953101
-0.1231054692
-0.11160106929
-0.16865901008
-0.30146096611
-0.404320127
-0.25056256906
-0.15327300033
-0.16350824773
-0.34397890682
-1.01731006
-0.13952190682
0.01178897281
0.15732123693
0.33557184587
0.50618952755
0.45394399398
0.37406153409
0.58851168209
1.5188641797
0.49150049727
0.17699132075
0.080590960076
0.023425991767
-0.024206446613
-0.064481757031
-0.083180616885
-0.083943437297
-0.080664081002
-0.08070184902
-0.084020151011
-0.086891974398
-0.082828294176
-0.06047741153
-0.025234365886
-0.025019169665
-0.13923396987
-0.56408291809
-0.72801564094
-0.23419238998
-0.11679927029
-0.13130770707
-0.16010323006
-0.12067269376
-0.053607223625
0.023153858026
0.085062299472
0.14532976499
0.22956764155
0.37061383697
0.49929674293
0.48762014273
0.51237534538
0.49731798957
0.25072958716
0.10131115101
