# vtk DataFile Version 2.0
Vessel Segment
ASCII
DATASET POLYDATA
POINTS 92 float
0.0 0.0 0.0
-0.6462252023985594 0.07375208102670376 -0.26797370928116476
-1.3032749073875713 0.08478438849090852 -0.5186276815845959
-1.9663309724775369 0.0037724577081173476 -0.7372250879466979
-2.6142319346913547 -0.2154536916053376 -0.8933158539501495
-3.18468029062665 -0.618078298665325 -0.9351499056180256
-3.5971529837869594 -1.1740708950496002 -0.8311595512953247
-3.856536092870508 -1.7904734338996668 -0.6164731392238415
-4.024919316405918 -2.4141411508359174 -0.33830233822105304
-4.154472334365191 -3.0312417009285877 -0.02611947413162604
-4.280182294242572 -3.6426169603328793 0.2989139900673377
-4.429010546324887 -4.253573945824618 0.6145882424523069
-4.626586358374913 -4.870746428373588 0.8875905632617708
-4.892186296598217 -5.49776433285783 1.0592560381364469
-5.210584657744874 -6.122408466284211 1.0547855691857257
-5.5183676532573545 -6.71848875414733 0.8495982375932627
-5.758684665174136 -7.281814464826515 0.5050790702324556
-5.9149152998426135 -7.831869969401088 0.09582069220268544
-5.989225523446895 -8.385627331310001 -0.33138749783869526
-5.9874098949666115 -8.950000058853092 -0.7511227049201401
-5.915544042793966 -9.52408100383148 -1.1511644039659894
-5.77928798557366 -10.10249121701304 -1.527598936520576
-5.583736938960194 -10.677199572860255 -1.883151743428112
-5.332803229326712 -11.23850051810288 -2.225016070318482
-5.029001828478624 -11.774867542660287 -2.563947151490888
-4.673239884614812 -12.27002925850117 -2.9145406151613753
-4.265866403356577 -12.696888442921248 -3.296703102569389
-3.812957013096123 -13.000411438521809 -3.7382285155792885
-3.360187491500694 -13.040568398291901 -4.262582819934787
-3.170433668031906 -12.57047913971874 -4.693702004266787
-3.388053325821353 -11.913218965690927 -4.7235233357327555
-3.746679247111879 -11.344586238235916 -4.523083546256016
-4.143088357114636 -10.858433396505202 -4.20601327138584
-4.544386209980668 -10.435695675414541 -3.812537407101046
-4.934300085596144 -10.06533677125216 -3.3592097429280394
-5.299630378230226 -9.744145033052565 -2.8511960948950956
-5.624733110720441 -9.476100723397625 -2.288289990210987
-5.886631191609402 -9.27461391705698 -1.6680457253615522
-6.049217192000134 -9.165524350832206 -0.9939546886423336
-6.064232426211256 -9.186616545518056 -0.29374417779148904
-5.907861922877754 -9.363170763256006 0.36574989862915963
-5.625361853671794 -9.679822764213629 0.9243960034013479
-5.289503886882378 -10.103748702915745 1.3727656564198303
-4.955670685529522 -10.610223795633408 1.7279694577060645
-4.656967164500984 -11.180393746321176 2.0110290015721266
-4.408059552386586 -11.796447279549941 2.241639128136136
-4.208806648438778 -12.442183607662173 2.437119574375827
-4.050131642338664 -13.105170404460887 2.6112986889733905
-3.9173669734139005 -13.776537332418417 2.775142175266829
-3.792424293070374 -14.449999626186283 2.9364720218373797
-3.656726378427646 -15.120667210818686 3.1004540447133198
-3.4936501716680617 -15.783723275908653 3.270234622816461
-3.290347736847133 -16.43351046697653 3.44762672046204
-3.0380872730196944 -17.063044009307447 3.6345871668778895
-2.731143489497367 -17.663803237036298 3.8336296017868974
-2.3666510767709132 -18.225591724482726 4.048735619853457
-1.9451002412091845 -18.736328149194836 4.285421374809671
-1.4705405136853011 -19.182672370735496 4.55011283275157
-0.9509350835280505 -19.551354849041356 4.847558867877401
-0.39780646457048874 -19.831690284145733 5.178947697798621
0.1755065348327821 -20.019558544801722 5.540087924853296
0.7570597967298431 -20.11914969658874 5.922807888797625
1.3387529272919299 -20.14219672237864 6.317680441608888
1.9168148008934487 -20.104274331042642 6.716882928664584
2.4911048828281124 -20.021793779277083 7.114898530191349
3.063509401949979 -19.91025984162067 7.508653465764931
3.6364021293169113 -19.783291729799323 7.8971007185214255
4.2115094438800815 -19.65192374940103 8.280729162747159
4.7895713174816 -19.524605965917115 8.66121455825739
5.369783838318202 -19.406787262912225 9.041560085102596
5.950310397609849 -19.301259685356765 9.425000039651175
6.529028321854464 -19.209490522150986 9.814648164803103
7.104317132661536 -19.133365336107683 10.212649779463366
7.675548087079712 -19.077004924515013 10.619646281367295
8.242993929005793 -19.048650215908026 11.034716535449506
8.806801354027739 -19.062408630257703 11.455310602738335
9.364637219604672 -19.138533816301006 11.876903731920201
9.907688134736828 -19.303145248169564 12.291939018836157
10.41623136882824 -19.581176180507324 12.689186008746544
10.86299176208872 -19.97940091899037 13.05715615592267
11.228950394406986 -20.477062953728897 13.392288137736477
11.51319460453168 -21.04121255744921 13.701118150112862
11.725512927709818 -21.644493417396095 13.993885411883275
11.876498903715627 -22.26966838570831 14.278942246983839
11.973456403469854 -22.906695225257653 14.561338080732291
12.020004362169722 -23.54965149714219 14.84315445858278
12.016498487476731 -24.19495456541347 15.12341338219718
11.960962135435501 -24.840124591942665 15.398399340395274
11.850063268122431 -25.482703884472894 15.662368185195453
11.680056485755674 -26.119570124822932 15.907997833611208
11.447589477780715 -26.746350876990313 16.126758857172085
11.150588464888587 -27.357154199478078 16.30945148744765
LINES 1 93
92 0 1 2 3 4 5 6 7 8 9 10 11 12 13 14 15 16 17 18 19 20 21 22 23 24 25 26 27 28 29 30 31 32 33 34 35 36 37 38 39 40 41 42 43 44 45 46 47 48 49 50 51 52 53 54 55 56 57 58 59 60 61 62 63 64 65 66 67 68 69 70 71 72 73 74 75 76 77 78 79 80 81 82 83 84 85 86 87 88 89 90 91
POINT_DATA 92
SCALARS MaximumInscribedSphereRadius float
LOOKUP_TABLE default
0.9796000123023987
1.135640025138855
1.3152600526809692
1.527459979057312
1.296720027923584
0.971701979637146
1.2269799709320068
1.5447700023651123
1.5499999523162842
1.5499999523162842
1.4333699941635132
1.2885299921035767
1.3473600149154663
1.5197999477386475
1.4132000207901
1.312980055809021
1.5247700214385986
1.652750015258789
1.5988199710845947
1.5608099699020386
1.8169000148773193
2.0648999214172363
2.1700000762939453
2.1700000762939453
2.154279947280884
1.7675299644470215
1.3408700227737427
1.2400000095367432
1.3229000568389893
1.8527899980545044
1.6553200483322144
1.4898799657821655
1.3344999551773071
1.33256995677948
1.5962200164794922
1.8630800247192383
1.8748699426651
1.8631999492645264
1.8600000143051147
1.8600000143051147
2.206239938735962
2.397520065307617
2.062839984893799
1.9729499816894531
2.274399995803833
2.395009994506836
2.112600088119507
1.8600000143051147
1.8600000143051147
1.8600000143051147
1.9713499546051025
2.108220100402832
2.1700000762939453
2.1700000762939453
2.0829999446868896
1.8023600578308105
1.605239987373352
2.119499921798706
2.6357600688934326
2.2260100841522217
1.762619972229004
1.63618004322052
1.5968799591064453
1.6807399988174438
1.8480000495910645
1.9763799905776978
2.02810001373291
2.080889940261841
2.151740074157715
2.2225399017333984
2.214940071105957
2.185149908065796
2.1500699520111084
2.1093099117279053
2.1158699989318848
2.299190044403076
2.486639976501465
2.629889965057373
2.753190040588379
2.349179983139038
1.991070032119751
2.0808300971984863
2.1671600341796875
2.7097299098968506
3.258039951324463
3.1160900592803955
2.7081499099731445
2.4800000190734863
2.4800000190734863
2.4800000190734863
2.4800000190734863
2.4800000190734863
FIELD FieldData 2
Curvature 1 92 float
0.13524283815
0.16676129602
0.21345554639
0.28327668992
0.37028337505
0.39548333041
0.29100605059
0.17160820834
0.0846014856
0.021827558992
0.047367292741
0.11638393871
0.20145545179
0.2790167356
0.30067260175
0.24368636987
0.1769164732
0.1401242471
0.12338031819
0.11282347872
0.10218433691
0.090889754678
0.082531491986
0.084239136951
0.1051153676
0.1539873519
0.24966031521
0.45288589173
0.94886812222
1.006710582
0.46642377107
0.25169950268
0.15761310087
0.11533319815
0.10880995808
0.12983811879
0.17090765953
0.22861466622
0.30009213714
0.34552226211
0.31036876561
0.23851204362
0.18467763866
0.15229619996
0.1266890969
0.10002003591
0.072123073897
0.042738679232
0.012602401787
0.016426431519
0.04153714201
0.061400676809
0.076343867309
0.089146148793
0.10103460729
0.11273355809
0.12474031918
0.13572289692
0.14244972231
0.14121919988
0.12995207599
0.11066365328
0.087555295745
0.063744632557
0.041639396812
0.02297528257
0.0096928102329
0.0086954154819
0.01402461141
0.018261047498
0.021693346988
0.025334220804
0.031058061049
0.042817039911
0.064074848367
0.094606503429
0.13357670766
0.17445874443
0.1992049411
0.1910445716
0.15874972682
0.1234246874
0.096458370068
0.079729042122
0.071612226606
0.07041599452
0.073839741044
0.080147246425
0.088240508422
0.097389464869
0.10694898674
0.11600594065
Torsion 1 92 float
-0.0050474126331
-0.0072104743285
-0.011024433357
-0.01827774904
-0.032030603595
-0.051760354263
-0.071423803873
-0.1088109417
-0.19723728758
-1.4625568247
-0.34502860842
-0.14083679386
-0.16115885222
-0.22767563561
-0.27165456367
-0.32372916912
-0.33660508188
-0.27243644937
-0.16198288497
-0.060073751741
0.029556871624
0.12164861705
0.21975561495
0.27624342618
0.23966703129
0.1688822173
0.1144793221
0.073221436114
0.039972972035
-0.030577162658
-0.054580792508
-0.074411179561
-0.10252437937
-0.13340831819
-0.12736422704
-0.082007698925
-0.045645359078
-0.023638543628
-0.0049640650164
0.055281079816
0.1508501339
0.23755772444
0.27513904946
0.24263648825
0.17969511422
0.13412212786
0.10960490538
0.084676238379
0.086113079664
0.058887325798
0.025350709316
-0.003073283821
-0.029343703009
-0.04847315778
-0.076434569494
-0.094834288055
-0.095340600319
-0.077776338493
-0.04930927953
-0.019619463817
0.0066425321804
0.027846370725
0.050346241701
0.082286936898
0.1407832906
0.30989135026
1.1326016045
1.0218405586
0.40427766681
0.27807090158
0.17282675956
0.018729925361
-0.11737128386
-0.15616861978
-0.10373483635
-0.050136823869
-0.004823373642
0.03066931821
0.064802687478
0.091656336959
0.11135042468
0.12113604478
0.11524170667
0.091356415865
0.044850110163
-0.025001429613
-0.061782962059
-0.075038783935
-0.074939354272
-0.067984402984
-0.059182601475
-0.050499324601
