# vtk DataFile Version 2.0
Vessel Segment
ASCII
DATASET POLYDATA
POINTS 73 float
0.0 0.0 0.0
-0.6436052704361174 -0.06836468927650506 0.6080390762930307
-1.4014172429553822 -0.20985383712942493 1.0453001874928345
-2.240260544261357 -0.4377036065429908 1.2096375739787604
-3.0665591867125683 -0.7296815508827001 1.0789096436734626
-3.821981179631083 -1.0519174277390504 0.7409727533470672
-4.508968659863426 -1.3917050590445552 0.2903021825077157
-5.149998035354983 -1.756282524519332 -0.20685563674326757
-5.769063321654008 -2.1672563838485845 -0.6953671306382112
-6.385922861204294 -2.656122883513157 -1.1075776214398685
-7.0034882060643415 -3.2430786550705326 -1.3544799279874669
-7.599971087434633 -3.8994574032461036 -1.3826196033289269
-8.16593272632171 -4.572242128955581 -1.2510975368944113
-8.719368213763815 -5.240176230807992 -1.054210664061347
-9.281184192857687 -5.904317154899128 -0.8692324681829526
-9.862584376494134 -6.568810561022195 -0.7671708331522615
-10.45280418214194 -7.229158307352057 -0.8264500667131383
-10.999094126912881 -7.867188641211556 -1.109960029827522
-11.422155007327518 -8.459702524427557 -1.6154966582384738
-11.67002811164325 -8.997877811251005 -2.275933576633692
-11.74580081231159 -9.494153163553312 -3.008702499967907
-11.684317514493774 -9.972018690588879 -3.755673336579088
-11.523333334163635 -10.453659729221828 -4.485619038674261
-11.294071954130548 -10.95709744911329 -5.181869477507047
-11.019736618797149 -11.49730182104656 -5.83277844484345
-10.718671536250012 -12.089321472296549 -6.423879876194031
-10.408610170052604 -12.751442144359807 -6.929064863818952
-10.116278902435065 -13.508892801765196 -7.285966801705822
-9.922656063692429 -14.361884597233512 -7.302461951305085
-9.997898779444025 -14.995530778087272 -6.722826701565987
-10.24709600480572 -15.193061834967951 -5.898054079176641
-10.530693457493662 -15.151814496953424 -5.057403781678336
-10.808558660621761 -14.979996751928297 -4.23051290211381
-11.066400528847696 -14.728480632244368 -3.41747229504022
-11.297689311498807 -14.430292190050897 -2.6120163609973797
-11.498985995337549 -14.115043701636585 -1.8050630092532605
-11.669410637152946 -13.817595976457707 -0.9843468745917633
-11.809577346451702 -13.584912828728017 -0.13787347297645963
-11.920988588410495 -13.478618885576463 0.7370020727009777
-12.004965119091688 -13.556420671354626 1.6171724200704676
-12.062390246689857 -13.829504653412377 2.4599409747439536
-12.093793956121747 -14.255713896606249 3.2390204848508852
-12.097586292637121 -14.781124959395138 3.9561758842886126
-12.06909497650963 -15.364949824025695 4.6264032224633205
-12.000819459298484 -15.979974606268964 5.265227692452038
-11.88367428528805 -16.607525539957205 5.884468799144079
-11.709810630235108 -17.233673906419348 6.491625408488434
-11.473582051661573 -17.84753708580888 7.090225705788006
-11.171812005050576 -18.439991424588552 7.680710503894184
-10.800795643460297 -19.00126585163456 8.262109005038832
-10.352684142647513 -19.517250938141025 8.830787868181602
-9.812656432353158 -19.96393747355563 9.377193904886688
-9.163246565209834 -20.302667763921082 9.879043352519714
-8.403132102663378 -20.486173253696496 10.297957731895247
-7.561775999855311 -20.495038513297906 10.57801900744424
-6.692544372918258 -20.36221030744853 10.705607408052249
-5.822254458639514 -20.219678855926013 10.819276133382605
-4.957080160676209 -20.157304889012 11.013331793140582
-4.0828212482431745 -20.168666440664722 11.172287729606797
-3.197094471706859 -20.22275739529558 11.231203965561997
-2.3154073579803987 -20.21913194093554 11.33613088412671
-1.47301820520763 -20.08806803804909 11.58392449070493
-0.701321889738496 -19.85310910984952 11.955972219768112
-0.0062807418863779045 -19.548347960864643 12.418753787200986
0.6258040865777328 -19.20556081472626 12.941959944487035
1.2156537440297157 -18.84972812666671 13.504587305251068
1.7850030801544627 -18.502114936824896 14.092963730821383
2.3558517267837633 -18.185709051786347 14.697182919795827
2.9515671815821487 -17.932533679721203 15.306747595527774
3.5957548044922607 -17.79399036469719 15.902454217244214
4.297949802318799 -17.84494720515124 16.44129745331194
5.022779782942797 -18.13964084898845 16.856178610666532
5.707636936092969 -18.64124868817022 17.11331638236344
LINES 1 74
73 0 1 2 3 4 5 6 7 8 9 10 11 12 13 14 15 16 17 18 19 20 21 22 23 24 25 26 27 28 29 30 31 32 33 34 35 36 37 38 39 40 41 42 43 44 45 46 47 48 49 50 51 52 53 54 55 56 57 58 59 60 61 62 63 64 65 66 67 68 69 70 71 72
POINT_DATA 73
SCALARS MaximumInscribedSphereRadius float
LOOKUP_TABLE default
0.6200000047683716
0.6200000047683716
0.6200000047683716
0.7375029921531677
0.9088540077209473
1.277359962463379
1.6669600009918213
1.4791300296783447
1.3143999576568604
1.3143999576568604
1.2878299951553345
1.2400599718093872
1.4261000156402588
1.4988600015640259
1.3275200128555298
1.205049991607666
1.131600022315979
0.8712170124053955
0.6559929847717285
0.8411170244216919
1.0241400003433228
1.204949975013733
1.2665799856185913
1.2487900257110596
1.2400000095367432
1.2400000095367432
1.322219967842102
1.5154600143432617
1.6324299573898315
1.596459984779358
1.749650001525879
2.1137900352478027
2.0349199771881104
1.880270004272461
1.5960700511932373
1.2872600555419922
1.3769999742507935
1.5473500490188599
1.7287499904632568
1.8600000143051147
1.8600000143051147
1.9714299440383911
2.1411900520324707
2.0347700119018555
1.8735400438308716
1.8600000143051147
1.8600000143051147
1.8600000143051147
1.8600000143051147
1.8600000143051147
1.9124599695205688
2.105649948120117
2.1866400241851807
2.17182993888855
2.01924991607666
1.8660399913787842
2.2822299003601074
2.7499001026153564
2.174489974975586
1.5771000385284424
1.891379952430725
2.249000072479248
2.0074000358581543
1.8240900039672852
1.9018399715423584
1.9624300003051758
1.9752600193023682
2.0317800045013428
2.181649923324585
1.8529900312423706
1.053189992904663
1.5369000434875488
2.1700000762939453
FIELD FieldData 2
Curvature 1 73 float
0.23939992656
0.3098160674
0.37268160383
0.35150599815
0.24908855612
0.14783943507
0.077900000337
0.076856201406
0.14572902653
0.2291334784
0.27237764685
0.19889319992
0.095495573019
0.027796565911
0.096686442409
0.18817204236
0.26676548416
0.2946560618
0.27715960707
0.22604980926
0.16974849703
0.12432676588
0.093396005891
0.081820170359
0.096907145125
0.14345916695
0.24145382657
0.4686275228
0.92102262562
0.65790630398
0.31895581231
0.17698798875
0.10534539279
0.062245872976
0.041526702382
0.05777125733
0.10261246281
0.16195860223
0.21611082668
0.22999657612
0.1947156627
0.14187375098
0.096164963029
0.067861893643
0.060125562895
0.065192854269
0.072396840957
0.078561495653
0.086742001192
0.10267284001
0.13369421828
0.18126383569
0.2346254296
0.27925471725
0.30159568099
0.016347114775
0.15978313724
0.10170287302
0.14978218119
0.10249202026
0.23315991945
0.2000571258
0.15491321606
0.10776096683
0.06682175606
0.037564083974
0.043394096584
0.084482272565
0.14798779245
0.23529995695
0.31922860207
0.33153420584
0.27850313611
Torsion 1 73 float
0.0010807084336
0.0020253942429
0.0042471235851
0.010537916989
0.032743840155
0.1281915244
0.55043866952
0.66247674323
0.22369186518
0.11378510954
0.071631229968
0.066858338052
0.12182712723
0.88801123741
0.11122497516
0.10992132913
0.15150960921
0.18934816629
0.19422693175
0.19738200339
0.21580860322
0.26139247179
0.33218070967
0.35321429538
0.24154854926
0.11909131577
0.059043548695
0.031283827565
-0.0060501611083
-0.042831037177
-0.064863354422
-0.091478291636
-0.14682709709
-0.32125940253
-0.73806147853
-0.49046321248
-0.2201646043
-0.11706934251
-0.059891199322
-0.013349338923
0.034179066848
0.097967053689
0.22001273005
0.37621263435
0.36950175392
0.22326505192
0.11549342997
0.071225658098
0.058009961582
0.044404362366
0.020617073158
0.0026156011428
0.011243429117
-0.1818989861
-0.034307909928
-2.3768653871
-0.0096177738747
3.1303313697
-0.1267425397
0.66623285406
0.047874475537
0.035641349774
0.05511757035
0.100800597
0.24762649104
0.79925801771
0.65652624755
0.19979864922
0.075542600778
0.03294194557
0.01582698319
0.0081515644779
0.0042762591383
