# vtk DataFile Version 2.0
Vessel Segment
ASCII
DATASET POLYDATA
POINTS 73 float
0.0 0.0 0.0
-0.7972992624798587 0.3046682397367108 0.246758171541668
-1.6210333471555036 0.47875088613345695 0.5294114454857028
-2.4535194557655786 0.48838991673253285 0.8373494683455082
-3.2642587241717207 0.30838152619212805 1.1497984091291287
-4.01735099099819 -0.061533979454212524 1.4385511186359448
-4.687425504781884 -0.5924462537070913 1.6777056531987407
-5.267672887363412 -1.2419223142424098 1.8519653636635245
-5.765432022781821 -1.9705240909725916 1.9559373844152077
-6.193434660691242 -2.748638040099461 1.9883856396264425
-6.563262477465792 -3.555751710921976 1.9470082964127398
-6.881279661608081 -4.376479079089896 1.824203404119685
-7.14536650327503 -5.195705618490641 1.6040588051662983
-7.3396951611085335 -5.991323615486372 1.2611076275953992
-7.430230548582848 -6.724878127148234 0.770687376216035
-7.378155163010759 -7.349774322391017 0.14366978480571513
-7.177106502214114 -7.853987021508282 -0.5586759201211757
-6.856436729700176 -8.276065601598502 -1.2718056699537856
-6.45230570081114 -8.670738036605416 -1.9581481557789917
-5.995922222281976 -9.086627805936606 -2.5976327439036164
-5.515845885124924 -9.564582746926122 -3.172752013809885
-5.044432196706054 -10.14147097118831 -3.6557456922784146
-4.6303990706025715 -10.849384919473868 -3.9916227387500967
-4.3636613268884314 -11.685408936795781 -4.060672666311391
-4.39937936522276 -12.45255840429998 -3.6616697500976154
-4.701482705459612 -12.789054331847565 -2.9097258702267044
-5.0557491201403435 -12.791354478407596 -2.0968668919774838
-5.385349666981207 -12.628941197256756 -1.2878965779272604
-5.667384059849339 -12.384393797078873 -0.4812264104370685
-5.886380271847167 -12.107310452817963 0.33463928431987655
-6.023152989621703 -11.841808784931171 1.1716346245293094
-6.051710894309483 -11.643325023634386 2.036658363546867
-5.944819845921866 -11.588067543810991 2.9150310469700025
-5.702570905979555 -11.747915925461973 3.751761634239608
-5.3750934416306855 -12.128971290474563 4.482132365325708
-5.024717377473409 -12.676772104169316 5.086340732123869
-4.689105083941555 -13.332345913942959 5.583215390364319
-4.383465521317323 -14.055291758442682 6.000255232975525
-4.109653646503967 -14.820055076839516 6.361417871525207
-3.8628954749622983 -15.610634336356233 6.684917296478832
-3.635499680841657 -16.41642171299292 6.984103295404207
-3.4174764780558067 -17.23025370045412 7.268259084439875
-3.1978596986576178 -18.04664974425295 7.544016134514959
-2.965425167057963 -18.860835016687997 7.815529549092743
-2.710002660453655 -19.668567568586415 8.085628137450682
-2.4226647771666823 -20.46524710682814 8.356257074850506
-2.095893882765506 -21.245253111996327 8.630510766671728
-1.7229716606114407 -22.001298976110107 8.912899287675936
-1.2988593732254745 -22.72402306894367 9.20969745116949
-0.8208167433641681 -23.402372376840322 9.5281581386441
-0.2895486546507566 -24.024218011139485 9.876147210531784
0.2899913148208506 -24.577235047962404 10.261092926067832
0.9094061124145271 -25.049938353010145 10.68847668290135
1.5588804866253883 -25.43261174633971 11.159190546670356
2.2298386344248122 -25.71896060033236 11.666675558397403
2.9167114692919025 -25.907702465238163 12.198066748796212
3.617287376700646 -26.004027215365635 12.736504245940688
4.332098392017384 -26.01926062735247 13.26472177371048
5.063061866150297 -25.969581930415604 13.768254462490258
5.812185368366037 -25.87522870436951 14.237642453654555
6.580768211659111 -25.759214429876252 14.669295984014466
7.368598762310101 -25.64700218466299 15.06585035711595
8.173686735878043 -25.566078425015316 15.434236366479338
8.991064220511138 -25.545036468434617 15.782995245481871
9.810563522892883 -25.61134569717136 16.120401788236506
10.615227385859763 -25.786631114487417 16.453971099688097
11.383041265200216 -26.079363128132822 16.791775615014704
12.09205216754538 -26.48163751379415 17.145105276459294
12.72241173784463 -26.975807518395325 17.529511578959497
13.252918082182006 -27.540945644628202 17.96335796348583
13.65727196938763 -28.15265910381975 18.46412328843557
13.906392590920188 -28.77897128463044 19.04160198974608
13.980365997989347 -29.38028937694211 19.690038451014964
LINES 1 74
73 0 1 2 3 4 5 6 7 8 9 10 11 12 13 14 15 16 17 18 19 20 21 22 23 24 25 26 27 28 29 30 31 32 33 34 35 36 37 38 39 40 41 42 43 44 45 46 47 48 49 50 51 52 53 54 55 56 57 58 59 60 61 62 63 64 65 66 67 68 69 70 71 72
POINT_DATA 73
SCALARS MaximumInscribedSphereRadius float
LOOKUP_TABLE default
0.6200000047683716
0.6200000047683716
0.6200000047683716
0.6939089894294739
0.8390370011329651
1.0425299406051636
1.3315000534057617
1.5750600099563599
1.6872299909591675
1.795989990234375
1.6331900358200073
1.4260900020599365
1.3299399614334106
1.3643300533294678
1.4154499769210815
1.4976199865341187
1.4968700408935547
1.3514599800109863
1.266800045967102
1.4016200304031372
1.5376900434494019
1.680780053138733
1.8392499685287476
1.3579699993133545
1.0085899829864502
1.2084200382232666
1.5008699893951416
1.7843199968338013
1.7647299766540527
1.6328799724578857
1.5499999523162842
1.5499999523162842
1.5039199590682983
1.3409099578857422
1.413349986076355
1.8592400550842285
2.1344199180603027
2.0017800331115723
1.8726799488067627
1.8600000143051147
1.8600000143051147
1.7956600189208984
1.662850022315979
1.5276299715042114
1.390589952468872
1.2526400089263916
1.4908900260925293
1.766569972038269
1.6781699657440186
1.4029500484466553
1.2963299751281738
1.4345099925994873
1.5588200092315674
1.611739993095398
1.6647800207138062
1.759850025177002
1.8570899963378906
1.8769199848175049
1.865939974784851
1.9222400188446045
2.058540105819702
2.172029972076416
2.183069944381714
2.194269895553589
2.1947999000549316
2.1947999000549316
2.186000108718872
2.174760103225708
2.1700000762939453
2.1700000762939453
2.0797300338745117
1.8092700242996216
1.5499999523162842
FIELD FieldData 2
Curvature 1 73 float
0.15298793814
0.17671845523
0.20176317531
0.22190605618
0.22706729003
0.21316126163
0.18660376034
0.15548706458
0.12804318833
0.11000685635
0.10845236787
0.12892554036
0.17096890241
0.2260834278
0.26180133547
0.2383847453
0.17349185413
0.11488137281
0.085992736366
0.10352682754
0.157626804
0.24719493219
0.39871942721
0.68908338511
0.78691418119
0.42821129785
0.2214852489
0.12039641831
0.079910620787
0.10093193276
0.1595571592
0.23589409164
0.30005196303
0.2998116131
0.2468915801
0.18256239436
0.12979975335
0.089233861867
0.059533931423
0.038776840844
0.025716519675
0.020888067477
0.023819769859
0.030170253176
0.038362191016
0.04808822955
0.058832916238
0.070279979757
0.08198935655
0.093077095585
0.10306800101
0.11137420936
0.11722044966
0.11840294633
0.11442564963
0.10538122854
0.093380016031
0.08054403062
0.066779299133
0.05398017383
0.045514421777
0.051859124043
0.073268699544
0.099982580837
0.1243999119
0.13945489929
0.14146503766
0.14010860124
0.1475561472
0.16823161881
0.19632057952
0.21997094928
0.22698591924
Torsion 1 73 float
0.031822319015
0.040464218941
0.051041064638
0.06328505002
0.075948220994
0.085569822753
0.093198734107
0.10552987002
0.12701805395
0.15025705292
0.1377252093
0.076845557005
0.013275520406
-0.046432207221
-0.1151601187
-0.18195675994
-0.28496984055
-0.47486229897
-0.67142525192
-0.41622785174
-0.18101841409
-0.068482241095
0.0049853133523
0.073071221556
0.1109574473
0.1138177647
0.1625127461
0.33476340742
0.64050348434
0.43724007711
0.23628709131
0.16789821333
0.14666441614
0.13872672899
0.12710889717
0.11833715501
0.10955795159
0.095985863599
0.070555749112
-0.0077913957987
-0.16970073368
-0.31618552367
-0.2111801801
-0.096500969541
-0.076429488912
-0.085757709375
-0.10157593828
-0.10251799109
-0.10183839574
-0.10460507792
-0.10182166358
-0.078792504748
-0.0291041342
0.035103098553
0.091644399782
0.14992063597
0.19920899239
0.24754042511
0.31678528373
0.44790006359
0.65755459671
0.56113604884
0.30221742141
0.1728085179
0.12595865674
0.13217185152
0.17771581971
0.21825545767
0.21822270781
0.16963799855
0.11941138316
0.080850698802
0.053262170063
