# vtk DataFile Version 2.0
Vessel Segment
ASCII
DATASET POLYDATA
POINTS 91 float
0.0 0.0 0.0
-0.45047052270921367 0.0877528793679247 0.5423053887296535
-0.9703612676687597 0.17621649507275516 1.019046706746805
-1.533296660215689 0.2625479017668683 1.444798118059188
-2.126262358455706 0.3439719724553993 1.8288059768818536
-2.7421838909208405 0.4157956771274817 2.1769745490059296
-3.3767222394016243 0.47055221514443957 2.493353946458134
-4.026692654052533 0.49636659293831475 2.780650121513519
-4.68811148483255 0.4753876636960981 3.040637202280238
-5.353086710031207 0.3815189252764403 3.273389788946326
-6.005190011876361 0.18475075658384504 3.4752077121852953
-6.62003051979853 -0.13127462906696175 3.6378415475676418
-7.181891330546006 -0.5508396502407433 3.7524043781479315
-7.699022546731822 -1.0346896879940077 3.814059399007452
-8.193397992833155 -1.5457064014951454 3.820885994396091
-8.683152296377548 -2.058784792920132 3.7707519553031306
-9.17539417710111 -2.559986834410105 3.6609540421876305
-9.667636057824671 -3.042841298744879 3.487722911003291
-10.148358313148728 -3.5074919608323016 3.2459396324839234
-10.597648118336423 -3.9576349208976933 2.928777611240889
-10.986136057542293 -4.398178871313691 2.529053527350042
-11.274000550393792 -4.8328199123056175 2.0469803304390424
-11.423693287702822 -5.261983943128793 1.501758752540787
-11.423195500993577 -5.684962940180421 0.9315067770065408
-11.291920871926614 -6.106021321481938 0.37455262408111967
-11.061942055888336 -6.534831340503715 -0.143433103349449
-10.762842774718917 -6.98454704494673 -0.6055229444367223
-10.420790061646574 -7.470532004444822 -0.9952207630557997
-10.063235429500766 -8.011059195965156 -1.2855755458205786
-9.733984108695058 -8.62405029740761 -1.4170617681481459
-9.537641839257784 -9.276723273415932 -1.2578405522765916
-9.605696199883567 -9.744928973554938 -0.7456166720963583
-9.841293088264333 -9.915314446657545 -0.10104934560969427
-10.119059428390138 -9.892273839491478 0.551905754746102
-10.392060851051152 -9.750902414065878 1.1927037371864662
-10.642093554000025 -9.530168595875596 1.8204860213654797
-10.86097864389412 -9.253255410627489 2.437814784650347
-11.045159726314797 -8.937231381343738 3.0476062162096693
-11.19442520800145 -8.596529609858338 3.653772078630539
-11.310766235791059 -8.2457310420143 4.261358057358166
-11.397736491368153 -7.902327387355014 4.878047971760051
-11.458680775890768 -7.592134380041411 5.514932835246268
-11.49217490395098 -7.363791342671661 6.18659223729277
-11.481934332684494 -7.332217830361561 6.891888185940278
-11.394821658566608 -7.656278334447157 7.50672801567892
-11.246337444303729 -8.225108837307591 7.901261282849656
-11.072395576782483 -8.865691157386184 8.155063329844829
-10.887859126193353 -9.526256833288505 8.342800806684144
-10.69955197519087 -10.193436154951803 8.501950135101774
-10.512597122142383 -10.862678510906004 8.653846968875445
-10.331117922895594 -11.53170656086549 8.812997653660132
-10.157816260624385 -12.198459305089939 8.989713291809187
-9.991696561910269 -12.86016297295154 9.190676703803403
-9.825861700277736 -13.513261848215185 9.418024167754663
-9.646729016036378 -14.153844846477305 9.669835067912857
-9.436376831286319 -14.776578732476999 9.941200711905344
-9.175536595641901 -15.37384004518072 10.22536639179741
-8.847421910428421 -15.934108481005433 10.514581826235851
-8.440871231148936 -16.442031321253744 10.800525703337238
-7.95453090348239 -16.88085336369321 11.075874997370741
-7.398287486893875 -17.23712792443071 11.337782693887572
-6.7894916287530425 -17.503751031014815 11.589308756964181
-6.147344061092791 -17.679327999021062 11.83834453012751
-5.490191682884791 -17.766114127770418 12.094918991383436
-4.8345326648045255 -17.769591513808095 12.369557549080033
-4.194376243981253 -17.69934628129646 12.670719186356829
-3.579464526788688 -17.56917471773711 13.002957905601535
-2.9937804850843173 -17.395545831913843 13.366983764967529
-2.435858564265037 -17.19545592030315 13.759952462740134
-1.898858605271656 -16.98465647351665 14.175890558408408
-1.3728445412415737 -16.77645989510901 14.606975883165223
-0.8472367091445128 -16.581767646194344 15.04481659404028
-0.31297389886845234 -16.40968196698809 15.481519312956054
0.23606585229008883 -16.26828850059784 15.910827118687076
0.802279244917585 -16.165466722338813 16.32861394265154
1.383924364623442 -16.109621699760087 16.733835382216963
1.9747783689044511 -16.110702724303053 17.12936422280619
2.5630225534254434 -16.181289422220825 17.52225492947312
3.12853919725129 -16.337260782628206 17.923351656823794
3.638616372247904 -16.595215008271 18.344822712801847
4.047665098164767 -16.961950210829684 18.79402740595683
4.315435691277544 -17.418593560006947 19.26657110703001
4.437088469685835 -17.92437537485868 19.749973882746836
4.441610168284737 -18.443014532118074 20.235837108301727
4.365380273444103 -18.95459210339652 20.723698601620637
4.241796362142713 -19.451705376398703 21.217035918287127
4.102906155925711 -19.934617486333323 21.720378815627793
3.984851273588962 -20.407346331509537 22.238349453474875
3.938277401310513 -20.87363938455488 22.772533764007616
4.03870349625836 -21.3268825334572 23.308505935864947
4.354221272135389 -21.733450887894875 23.79413673653357
LINES 1 92
91 0 1 2 3 4 5 6 7 8 9 10 11 12 13 14 15 16 17 18 19 20 21 22 23 24 25 26 27 28 29 30 31 32 33 34 35 36 37 38 39 40 41 42 43 44 45 46 47 48 49 50 51 52 53 54 55 56 57 58 59 60 61 62 63 64 65 66 67 68 69 70 71 72 73 74 75 76 77 78 79 80 81 82 83 84 85 86 87 88 89 90
POINT_DATA 91
SCALARS MaximumInscribedSphereRadius float
LOOKUP_TABLE default
1.2771999835968018
1.2771999835968018
1.318160057067871
1.4585599899291992
1.5004299879074097
1.3497600555419922
1.2809100151062012
1.434249997138977
1.4640899896621704
1.1314400434494019
1.0208799839019775
1.2407499551773071
1.5154999494552612
1.8076499700546265
1.950219988822937
2.0576000213623047
1.8683300018310547
1.6139400005340576
1.3030099868774414
0.9667029976844788
1.1286300420761108
1.4855200052261353
1.6852600574493408
1.8463499546051025
2.142509937286377
2.4423599243164062
2.4800000190734863
2.4800000190734863
2.4800000190734863
2.444819927215576
1.9796700477600098
1.8600000143051147
1.937980055809021
2.112760066986084
2.068769931793213
1.9187400341033936
2.0348899364471436
2.325550079345703
2.4800000190734863
2.4800000190734863
2.341599941253662
1.9976600408554077
1.9869699478149414
2.1700000762939453
2.1700000762939453
2.1700000762939453
2.2476298809051514
2.406059980392456
2.4051198959350586
2.260240077972412
2.0076498985290527
1.5701299905776978
1.3163800239562988
1.6177699565887451
1.8625400066375732
1.874940037727356
1.9255599975585938
2.116460084915161
2.254199981689453
2.244580030441284
2.1905200481414795
2.0481600761413574
1.9989500045776367
2.1057701110839844
2.1070499420166016
1.9492900371551514
1.8600000143051147
1.8600000143051147
2.007699966430664
2.326580047607422
2.3547399044036865
2.041759967803955
1.9225000143051147
2.0723700523376465
2.2500100135803223
2.481339931488037
2.5522398948669434
2.2174301147460938
1.966729998588562
1.9118800163269043
2.0651800632476807
2.411449909210205
2.4800000190734863
2.477020025253296
2.3145298957824707
2.150559902191162
1.9841699600219727
2.055449962615967
2.79082989692688
2.6295199394226074
1.8600000143051147
FIELD FieldData 2
Curvature 1 91 float
0.24492114684
0.1607799502
0.11162418258
0.08148997454
0.063564244887
0.056831580996
0.063522255798
0.084538701978
0.11873451271
0.16034285118
0.18943737104
0.18252906055
0.14150847566
0.10201956618
0.086936231464
0.087836309973
0.093084373579
0.10104994815
0.11823749353
0.14806954494
0.18683732784
0.21806838786
0.21956997697
0.19084644415
0.15325241276
0.12841657395
0.13042124937
0.17499313124
0.28085621389
0.49634110908
0.76096950729
0.55879930263
0.31193897224
0.18973978243
0.1279601387
0.094583708783
0.074501744605
0.061557277671
0.055776582317
0.065269114969
0.10169072509
0.17843755032
0.33274754032
0.58708578536
0.53349007941
0.28408526563
0.14684150488
0.072833350589
0.027570741613
0.013531718981
0.029981446491
0.040601668373
0.042887762888
0.045286959209
0.058983390795
0.082697146237
0.10932567845
0.13362504577
0.15054636821
0.15457933237
0.14777889016
0.13676702368
0.12735203008
0.12041917859
0.11306969228
0.10195005472
0.086798628639
0.06833738972
0.047345764791
0.028323984377
0.023324178106
0.035235898484
0.049609125815
0.061825709367
0.071912829414
0.08317695412
0.10101193024
0.13095127601
0.17352396559
0.21948691268
0.24375971895
0.22269690708
0.1700424596
0.11698490955
0.070570966153
0.036130467893
0.054114882017
0.1180964345
0.21608487478
0.33057586981
0.36799707365
Torsion 1 91 float
-0.0086468711789
-0.010802761471
-0.022388065719
-0.061894171511
-0.14429586994
-0.25308060463
-0.27303135125
-0.21603924835
-0.1441030832
-0.073196056931
0.00043143900219
0.097259397239
0.25119399242
0.41152634005
0.33159100576
0.11425248072
-0.060866511325
-0.1938811425
-0.20887205789
-0.1993869237
-0.17438434146
-0.15780760305
-0.16142795942
-0.19226954461
-0.25767490118
-0.3362124833
-0.33688527999
-0.22299429281
-0.12145510429
-0.051151695972
0.03692483748
0.10098874566
0.12007507875
0.13965294969
0.16330132959
0.17954480778
0.19866303109
0.25055250386
0.32980453234
0.31794568087
0.18670894339
0.087796137301
0.024493801777
-0.030106365585
-0.044477989326
-0.025187424673
-0.0074608344199
0.017206252132
0.14779299905
0.45699530054
0.11617854197
0.16372516492
0.33326763352
0.48829775167
0.35352900092
0.18071124635
0.086226247713
0.033885351002
-0.014824418524
-0.062423641203
-0.1113534113
-0.15200336734
-0.18283169319
-0.1927648944
-0.18291610711
-0.17217873442
-0.18121522536
-0.20561776667
-0.30129440969
-0.66925949292
-0.86730842734
-0.30768345174
-0.083310734713
0.027741260341
0.11796212189
0.18456757482
0.21915465488
0.20136408715
0.1651326041
0.13696814386
0.11890430148
0.10715686939
0.11292169618
0.15424845227
0.27311900833
0.88722004621
0.48959253056
0.16295322632
0.082271760293
0.045610243326
0.023380287082
