# vtk DataFile Version 2.0
Vessel Segment
ASCII
DATASET POLYDATA
POINTS 64 float
0.0 0.0 0.0
-0.2570439606492944 0.5657463170402286 0.8026883586727098
-0.5953586450300782 1.0419556600825084 1.6330965154376724
-1.0035618582904786 1.4323735305606762 2.476960304092456
-1.4734688789819546 1.7395278042492428 3.3230499742021244
-1.999535988695576 1.9648348634524 4.1619062532119795
-2.578363339240338 2.1074842441813733 4.983917424150389
-3.2083121531341763 2.1648477275011366 5.778197701358604
-3.888765416423733 2.130956825037215 6.5309272265708955
-4.618497905349787 1.996197890141811 7.223561329434597
-5.392580691806501 1.7482287140715866 7.831121316848059
-6.198107958392568 1.3765267727056194 8.32315448685212
-7.01202347449787 0.8809936525595581 8.67066504299125
-7.806081115318692 0.2779158204554434 8.85660670845393
-8.558112580178747 -0.40276007922150564 8.884671436160453
-9.259042843289446 -1.1284572534748802 8.77361664326054
-9.909600116193081 -1.8733759319953573 8.544333486321978
-10.51404415902113 -2.618699842510222 8.212453307109215
-11.074539344800758 -3.350265161977557 7.786069649872054
-11.588313693722737 -4.056030711135569 7.267519834863838
-12.046960571579698 -4.725072593221276 6.656975603263137
-12.436679899286588 -5.349093200730557 5.957370545257893
-12.741496852721815 -5.924954880221158 5.178883220192841
-12.948471988369358 -6.458529636259365 4.340290341979337
-13.052373954149294 -6.965596430836153 3.4667124349170657
-13.056926542638617 -7.4674029281905625 2.583897168058929
-12.972054560766532 -7.983979166902305 1.713728998778002
-12.810677190449335 -8.531920361979623 0.8740130490371965
-12.586948606348123 -9.123564862813526 0.07962133303052504
-12.31494145430608 -9.769641668874456 -0.6550797102029018
-12.008910252144815 -10.48208389755904 -1.3104623795635122
-11.686287694327637 -11.277083461557291 -1.852130197432482
-11.378789455862883 -12.174060621781182 -2.208351311774774
-11.162820582035147 -13.1572383459159 -2.229597046337649
-11.164975547891013 -14.045211637159737 -1.767045951182384
-11.390788182249073 -14.61672479141533 -0.9676968971110416
-11.732036939236837 -14.893932420718677 -0.05503629386628224
-12.113328888717595 -14.963132537626876 0.8827139588595402
-12.490634127244048 -14.887153468355427 1.8221845178853449
-12.834219722066113 -14.709497832339885 2.7610472289195687
-13.119793944796434 -14.465676495183638 3.7046347520407314
-13.324229626612484 -14.193021936788657 4.66125337829569
-13.422193013998482 -13.941006229803051 5.639674933105808
-13.384213610162618 -13.782471754894097 6.640585898766336
-13.188570015367649 -13.820815385105869 7.6328977450221585
-12.857630553284714 -14.13930071722797 8.533659965041242
-12.465240553767195 -14.714455170404555 9.269048937827046
-12.073730486580345 -15.455833858002636 9.839833156911782
-11.708353058841064 -16.29271704313506 10.283314468588319
-11.37297244706726 -17.184029638980263 10.635914304399815
-11.063086716768908 -18.10700918551067 10.925343296476745
-10.771432084446614 -19.048199085998373 11.171966764632275
-10.48914602989932 -19.99907210147577 11.391405919830992
-10.20553428782753 -20.95275665512375 11.596337046002084
-9.907597112335111 -21.902940776210688 11.797079689455
-9.580249260011954 -22.84254255321563 12.001565784060826
-9.20821469071726 -23.763346872290448 12.214610836686202
-8.779605393234736 -24.6568954803904 12.43691302828812
-8.289848758684856 -25.516916447564252 12.665042600695042
-7.7432238439607355 -26.342084327497034 12.892927345438688
-7.149908846592828 -27.136293689106232 13.114163149750615
-6.521912503162422 -27.90672811372568 13.32364095477778
-5.870277747330853 -28.661395094108755 13.51792393189457
-5.204130002600894 -29.40758285291384 13.69502581398017
LINES 1 65
64 0 1 2 3 4 5 6 7 8 9 10 11 12 13 14 15 16 17 18 19 20 21 22 23 24 25 26 27 28 29 30 31 32 33 34 35 36 37 38 39 40 41 42 43 44 45 46 47 48 49 50 51 52 53 54 55 56 57 58 59 60 61 62 63
POINT_DATA 64
SCALARS MaximumInscribedSphereRadius float
LOOKUP_TABLE default
1.1160000562667847
0.8556069731712341
0.6428549885749817
0.9538440108299255
1.2400000095367432
1.2400000095367432
1.2351700067520142
1.0815199613571167
0.9352669715881348
1.095080018043518
1.2424099445343018
1.2627400159835815
1.2771999835968018
1.2771999835968018
1.2677199840545654
1.2482000589370728
1.1636300086975098
1.0308799743652344
0.9796000123023987
0.9796000123023987
1.2034599781036377
1.5313700437545776
1.4562100172042847
1.3114099502563477
1.2049399614334106
1.1275800466537476
1.2086900472640991
1.274839997291565
1.2570199966430664
1.2334799766540527
1.081279993057251
0.9518839716911316
1.3158199787139893
1.5499999523162842
1.5661900043487549
1.7759499549865723
1.7719199657440186
1.624619960784912
1.6756600141525269
1.8102099895477295
1.8600000143051147
1.8600000143051147
1.7567499876022339
1.5793999433517456
1.4078199863433838
1.377769947052002
1.779170036315918
1.9322999715805054
1.8834999799728394
1.8600000143051147
1.8600000143051147
1.8971799612045288
2.036220073699951
2.1707000732421875
2.1825098991394043
2.196540117263794
2.341010093688965
2.4682300090789795
2.304349899291992
2.087399959564209
1.6148500442504883
1.3467799425125122
1.926990032196045
2.4800000190734863
FIELD FieldData 2
Curvature 1 64 float
0.14161543271
0.12400377407
0.11094275048
0.10227044489
0.097690494199
0.097196556818
0.10133482194
0.11104736413
0.12692317854
0.14842860675
0.17187102481
0.18882044183
0.19386733572
0.18019217732
0.15453773192
0.12877357963
0.10988422311
0.1026792046
0.10554149634
0.11362967432
0.12133188543
0.1243108981
0.12124951827
0.11269781288
0.1031827199
0.096073045243
0.091764217261
0.089152404721
0.092066374736
0.10851694039
0.14991722717
0.23220043653
0.38394098174
0.57343434919
0.53991959659
0.35643873505
0.230745733
0.15383454227
0.10799093215
0.086740824662
0.090906429559
0.12223796361
0.18097258421
0.26203244734
0.3308998543
0.3209540938
0.24945844509
0.1781841935
0.1217993876
0.079718131875
0.049538203513
0.031044230948
0.02895931505
0.038463266783
0.05010751994
0.060430713403
0.067411743758
0.069886662851
0.067216693298
0.062042555141
0.057347218513
0.054520089514
0.053454986287
0.053330288107
Torsion 1 64 float
0.011920043117
0.013243456353
0.014959683074
0.018202965335
0.023586796556
0.030510737262
0.034853440253
0.03150987044
0.021869465142
0.010880111263
0.0037416605151
0.0059220210681
0.013896381238
0.03147245266
0.051040042028
0.074223587528
0.0899380806
0.068724813022
0.032767125089
-0.013084015901
-0.065888264759
-0.11316878764
-0.17777620317
-0.24330691018
-0.27172866983
-0.26566175558
-0.24242141069
-0.22577064367
-0.20830345524
-0.17294095465
-0.12595359836
-0.09266560611
-0.074149804488
-0.056907024176
-0.012111115897
0.029364029896
0.092805664953
0.17594660518
0.29962392279
0.44914073285
0.46958237796
0.35449870357
0.25812943749
0.20333412289
0.16054461353
0.11586925895
0.080650152882
0.060443810529
0.041447163259
0.021803550751
-0.019108143657
-0.13770601038
-0.22222624729
-0.12990495904
-0.055976228423
-0.0047351549197
0.033725764222
0.060374661279
0.08112046534
0.097518863694
0.099665737598
0.087072537095
0.068699442759
0.051403264862
