# vtk DataFile Version 2.0
Vessel Segment
ASCII
DATASET POLYDATA
POINTS 68 float
0.0 0.0 0.0
-0.912305796802688 0.1434379928046634 0.2494857683936102
-1.8029143241420509 0.2885977595142847 0.5678242538551863
-2.6793227765480987 0.41052087415911426 0.9319666673625328
-3.5469335844302434 0.48673490423598903 1.3281424655020562
-4.406703390175297 0.4910375150853488 1.7475567396194063
-5.252224787291611 0.39063110251338795 2.1829393723574197
-6.064755245432417 0.14888966886601837 2.6245397246314517
-6.8142685962604626 -0.257520105312402 3.055809433475736
-7.477813630100918 -0.8180760657234599 3.4544730489948807
-8.06179957735847 -1.4925244516866256 3.798725690856501
-8.600554305263211 -2.2362997721068347 4.0659034156887675
-9.137300904916515 -3.012013633681405 4.2224425758232105
-9.699387128363865 -3.7849551474429077 4.226841854063421
-10.274384832185364 -4.531026774374072 4.06427830917466
-10.825283173076558 -5.251468775338639 3.7611439627721186
-11.308669372980447 -5.9744952610736775 3.3633412342054525
-11.670230949543392 -6.732805344469108 2.9074942972157154
-11.841877581346019 -7.531757682021506 2.4137792777951144
-11.772550646888977 -8.329274600015426 1.894341612843135
-11.480031474349628 -9.064825896561212 1.359891319700787
-11.033842156879755 -9.714984320681923 0.8193199744132706
-10.498434309394078 -10.294953099480079 0.27874862912575443
-9.914162007790047 -10.830838812180904 -0.2570422400972548
-9.305697323690929 -11.35171189669136 -0.7807825158985938
-8.69302304830723 -11.89763825064938 -1.2726809179364216
-8.123478844460122 -12.56778220185015 -1.6321376988570764
-8.146523985656248 -13.173856647917015 -1.0915663535695603
-8.510378220904078 -13.204839458641082 -0.2101859142303397
-8.83560197807245 -13.068764602758362 0.6787491728994904
-9.089009159491123 -12.853128836379703 1.5755270860794466
-9.257119223919055 -12.599147122355031 2.482343816603564
-9.332280856174785 -12.344209677900066 3.4013059840271667
-9.314590723649165 -12.137563066913977 4.334897757903807
-9.220589893655818 -12.053316523831345 5.282068564325375
-9.097138339887731 -12.192260394917982 6.217574534932156
-9.017385918523125 -12.607466901663788 7.071892664615855
-9.013369662020246 -13.223869255290847 7.80170775466684
-9.05783483789839 -13.941252554095865 8.432740626703454
-9.110620705041807 -14.707500307019236 9.003338140328225
-9.136534861441852 -15.500934395684505 9.537598746514941
-9.105552050717785 -16.31204949731022 10.044030999571474
-8.993288379505854 -17.133769285299177 10.520725262550267
-8.784060019618844 -17.956904885781487 10.960602928962825
-8.476431551498276 -18.770133446636404 11.359265632525451
-8.082550235956674 -19.563031760847668 11.721782027562172
-7.61637630336326 -20.326659234707257 12.060746233579062
-7.085176223249126 -21.05103268021858 12.390061027684744
-6.489333017351607 -21.72286922271575 12.719797145701492
-5.825499805251634 -22.325262442305338 13.05355955174281
-5.092242991303769 -22.840349618690787 13.38780894256445
-4.294438807006849 -23.25470384507375 13.713959247554559
-3.443945422957363 -23.56423995523699 14.023212366210974
-2.5565396869073074 -23.774878256897267 14.311733521377793
-1.6478096716095665 -23.89938465936964 14.583587759231575
-0.7307416378727206 -23.953428406661704 14.851176776453215
0.18363977196369838 -23.95275998528237 15.133166955020268
1.0854940910980762 -23.9120139319496 15.450232805161734
1.9652685750100558 -23.84471839488451 15.820265545815332
2.813735135699495 -23.763335281272127 16.254787747579126
3.62255529874903 -23.679092015533232 16.758772765321062
4.385666377230611 -23.60169939565211 17.33056585394022
5.101251753761463 -23.54044928958784 17.962670274884847
5.7732125503341365 -23.50669635394472 18.64296019832058
6.4109489867414435 -23.515612438821325 19.356202530568957
7.027514124606869 -23.58638781671586 20.084362647529886
7.636669045795137 -23.741041136268127 20.805515176616115
8.24954482082123 -24.001499861153178 21.491847951925646
LINES 1 69
68 0 1 2 3 4 5 6 7 8 9 10 11 12 13 14 15 16 17 18 19 20 21 22 23 24 25 26 27 28 29 30 31 32 33 34 35 36 37 38 39 40 41 42 43 44 45 46 47 48 49 50 51 52 53 54 55 56 57 58 59 60 61 62 63 64 65 66 67
POINT_DATA 68
SCALARS MaximumInscribedSphereRadius float
LOOKUP_TABLE default
0.9800000190734863
0.9548270106315613
0.9311540126800537
0.8256959915161133
0.7164679765701294
0.6653929948806763
0.6320729851722717
0.9177889823913574
1.3859800100326538
1.4487299919128418
1.294350028038025
1.2400000095367432
1.2400000095367432
1.4806900024414062
1.8268500566482544
1.7454700469970703
1.589359998703003
1.4146499633789062
1.2448500394821167
1.4589699506759644
1.6619999408721924
1.6200000047683716
1.570770025253296
1.5499999523162842
1.5499999523162842
1.5891499519348145
1.80253005027771
1.8600000143051147
1.7052199840545654
1.5547900199890137
1.4174699783325195
1.2831000089645386
1.3345500230789185
1.480870008468628
1.5499999523162842
1.5499999523162842
1.682479977607727
1.8480499982833862
1.8600000143051147
1.8600000143051147
1.8600000143051147
1.8600000143051147
1.9531099796295166
2.0980000495910645
2.0969998836517334
1.9529800415039062
1.7599899768829346
1.4744800329208374
1.2883000373840332
1.5546900033950806
1.7982699871063232
1.5618900060653687
1.3265399932861328
1.5266900062561035
1.7577799558639526
1.387120008468628
0.8394950032234192
0.7926890254020691
1.0820900201797485
1.1732300519943237
1.026919960975647
0.9794780015945435
1.1256300210952759
1.255270004272461
1.3259600400924683
1.3974499702453613
1.4736700057983398
1.5499999523162842
FIELD FieldData 2
Curvature 1 68 float
0.1592913613
0.096091889977
0.06316856676
0.058900171609
0.079997747617
0.11535062742
0.15654393891
0.18900040343
0.19144748571
0.1576584004
0.11733737765
0.12317463079
0.16938872136
0.18146206242
0.15487921023
0.12233392147
0.14415084754
0.20849089388
0.26117777088
0.25813407145
0.20305215015
0.13160763135
0.07056211859
0.048081163003
0.12791896359
0.34641051151
1.6084732292
0.85369134112
0.27138805032
0.14006379379
0.10055672665
0.10161858711
0.1263040469
0.17589645843
0.25599180425
0.32112208095
0.27592810035
0.17445689086
0.094373415842
0.057648726339
0.068660142613
0.092138916278
0.11019205737
0.11352630935
0.10049910351
0.084823506279
0.079215062324
0.086732936782
0.10203288189
0.1174972214
0.12638418155
0.12483526964
0.11338925548
0.0950758043
0.074399269052
0.059003729054
0.057596800954
0.067035980568
0.077087605108
0.084265444414
0.086315959936
0.082540470073
0.074055937664
0.066736608598
0.070052917359
0.088382177243
0.11671783846
0.14744944528
Torsion 1 68 float
-0.13159024497
-0.22411068534
-0.39383822665
-0.39306928847
-0.19121542306
-0.073145226503
-0.028694990429
-0.026337978621
-0.067156918145
-0.20766240265
-0.51366685336
-0.49943020092
-0.13722123928
0.095594442948
0.29605521293
0.61317948135
0.35653793415
0.025442257653
-0.098690479391
-0.11718848932
-0.075823866191
-0.021333795403
0.085258971834
0.37426636771
0.081953408473
0.012897055501
-0.090379623478
-0.17745182785
-0.17313132681
-0.25225556857
-0.35462504489
-0.38907807439
-0.38604816187
-0.35577533017
-0.29295446243
-0.20165971709
-0.078538394958
0.059160802965
0.30437609271
0.64352903647
0.27279903389
0.074097033215
0.021171426613
0.028488949886
0.098087397923
0.19490076605
0.2136988441
0.12284049782
0.028160704499
-0.02341501614
-0.040594957158
-0.030625952514
0.0055055226818
0.082337186501
0.24516582803
0.45756476756
0.4676228745
0.29400292759
0.18174724782
0.12430475834
0.10270807694
0.13461005374
0.24861746593
0.40738698372
0.44516109533
0.3089403464
0.18657052787
0.11407354825
