# vtk DataFile Version 2.0
Vessel Segment
ASCII
DATASET POLYDATA
POINTS 84 float
0.0 0.0 0.0
-0.5428883745477886 -0.1250245965787234 0.5326603843694079
-1.129589151842285 -0.2657926189374702 1.012330987289418
-1.749853834823742 -0.4160055249424387 1.4447727776465984
-2.394261067830363 -0.5689839303773183 1.8394306390871706
-3.0548876876715654 -0.7185845594957917 2.20782357982979
-3.725375004798114 -0.8595840166585247 2.561394439676609
-4.400777381954888 -0.988677764411132 2.9102809419085682
-5.077631170259763 -1.1045636157868812 3.2609339654924727
-5.754277326390808 -1.207855312449508 3.615887575054247
-6.43112342461517 -1.3001655741407134 3.973451417658449
-7.110427419048956 -1.383797030682436 4.3285588288304675
-7.79528328541824 -1.462128923168323 4.673989921552279
-8.488302355348377 -1.5413059921219316 5.002524808805856
-9.190452846595289 -1.6313121592139581 5.308097848038625
-9.900129363303472 -1.7463528341219856 5.586408453272717
-10.612570647052946 -1.9049369420559488 5.834461155051472
-11.318484151030493 -2.1282612744619507 6.04826297061751
-12.002587854286823 -2.4384425028930785 6.219135094821349
-12.642532918076238 -2.8529905744813 6.3254984293571335
-13.21789229139248 -3.3635342872976217 6.317511731453749
-13.725748137972634 -3.908405054743162 6.128054513623475
-14.184760987471014 -4.396139256371679 5.749832185209024
-14.621809502249313 -4.783041122324232 5.247505872711453
-15.051485793176582 -5.084697347216122 4.683358636781998
-15.471869537290633 -5.331828704110654 4.086189462744538
-15.868985294940629 -5.550468678901796 3.4626777348153817
-16.215875305793897 -5.76296391316938 2.8079882233239073
-16.46431177920964 -5.989129913421795 2.1151295465015942
-16.54748183092063 -6.243095920920123 1.3941632592128814
-16.42798676842449 -6.524324362417128 0.6886342592609443
-16.14453040074481 -6.82567444886577 0.039320480241807655
-15.760855439052897 -7.1486798020367655 -0.5456397754967607
-15.323499321054111 -7.502788235130819 -1.0723092209528549
-14.862643781787282 -7.902208087379993 -1.5435324535273687
-14.401864410936957 -8.366596669350711 -1.9504783312378158
-13.970651568684488 -8.924139224703117 -2.258739236706754
-13.633823112695659 -9.601714415798897 -2.3699407304676434
-13.51878097301039 -10.309241371906767 -2.123193145210101
-13.628523548639823 -10.845280997369821 -1.5873834897737922
-13.834645537134344 -11.216591774375354 -0.9452119645789386
-14.066571041496086 -11.496591267767649 -0.2654850157169822
-14.291430460450048 -11.735736659147417 0.4321341871366923
-14.486954785610138 -11.97080996979882 1.1398134800775646
-14.633636113688455 -12.233760920889877 1.849413095980626
-14.718804121555378 -12.549855455040575 2.547033763611541
-14.745375180696579 -12.932225300211273 3.2155463779208495
-14.733472400840933 -13.379027766633522 3.8434348602443773
-14.709971514795651 -13.879203053753537 4.4294687977001725
-14.697223558472285 -14.420542243272427 4.978257844263834
-14.707898855000458 -14.992522375495023 5.494944832826473
-14.743148719291142 -15.587695790542412 5.983754180949457
-14.794831919442085 -16.20122286441225 6.447835159699689
-14.84882067896945 -16.830877135699104 6.889491863676344
-14.888139694434017 -17.475276587076635 7.311028387478605
-14.894668206594563 -18.1324554874882 7.714055986070932
-14.850970971958384 -18.797981421004298 8.100496447192754
-14.74115076313521 -19.463692282646996 8.47311307310812
-14.550619863587709 -20.117168958583402 8.834440660831579
-14.266395952634046 -20.74159397512196 9.184939882805239
-13.88018546153897 -21.31678453286124 9.521616001961066
-13.394371582872642 -21.823871737584486 9.838017406943633
-12.824003438003128 -22.252887780170635 10.128077722811744
-12.190355451570273 -22.60502297522469 10.389339785744598
-11.512548825670505 -22.887357506635365 10.623453667303528
-10.804792631924512 -23.107218373256398 10.835343216182197
-10.077376198057614 -23.269489325504495 11.032226122232776
-9.338286221973197 -23.376674216975 11.223433748865352
-8.59489565991091 -23.430623793711185 11.42048656907582
-7.855015436505286 -23.435177786151645 11.636806336718138
-7.126577320513196 -23.39870721312823 11.886433674030343
-6.417184970589653 -23.33561120110856 12.181447500331242
-5.732398314944979 -23.265687862371298 12.528460186278396
-5.074175394555304 -23.211039586891435 12.925935912935223
-4.441049235014348 -23.192285860785198 13.365258128184962
-3.8295724830867846 -23.22547734685878 13.833409722886318
-3.235966196589488 -23.320743345923997 14.31581469871988
-2.658149293258133 -23.482753201628988 14.799548227510503
-2.0978035204618757 -23.711944790820066 15.276638808418669
-1.5627775208491912 -24.006866427703397 15.746595191777375
-1.0710955614605902 -24.366066792679458 16.218955091490454
-0.6627646510425355 -24.78703452516955 16.717940430199786
-0.4407743587864588 -25.24821754764504 17.288300518794475
-0.6053439012755119 -25.623230306307438 17.92553952106794
LINES 1 85
84 0 1 2 3 4 5 6 7 8 9 10 11 12 13 14 15 16 17 18 19 20 21 22 23 24 25 26 27 28 29 30 31 32 33 34 35 36 37 38 39 40 41 42 43 44 45 46 47 48 49 50 51 52 53 54 55 56 57 58 59 60 61 62 63 64 65 66 67 68 69 70 71 72 73 74 75 76 77 78 79 80 81 82 83
POINT_DATA 84
SCALARS MaximumInscribedSphereRadius float
LOOKUP_TABLE default
1.2400000095367432
1.1002999544143677
0.9576190114021301
1.0468599796295166
1.192389965057373
1.1413500308990479
0.9944919943809509
1.0127999782562256
1.1602200269699097
1.1726900339126587
1.0263700485229492
0.9788910150527954
1.1231499910354614
1.1861799955368042
0.897629976272583
0.649986982345581
1.2517000436782837
1.8589199781417847
1.8600000143051147
1.730329990386963
1.139639973640442
1.218250036239624
1.6011899709701538
1.7354899644851685
1.8982900381088257
2.1127099990844727
2.046989917755127
1.5640599727630615
1.268720030784607
1.2483700513839722
1.2516000270843506
1.270169973373413
1.2771999835968018
1.2771999835968018
1.3695199489593506
1.6473300457000732
1.9288599491119385
2.15474009513855
1.7104599475860596
0.9406369924545288
1.1070899963378906
1.2792099714279175
1.5752300024032593
1.8524399995803833
1.6963900327682495
1.5499999523162842
1.5499999523162842
1.5499999523162842
1.5499999523162842
1.6104999780654907
1.7782800197601318
1.775189995765686
1.4665800333023071
1.2400000095367432
1.2400000095367432
1.2609100341796875
1.4092600345611572
1.5597000122070312
1.712649941444397
1.8440500497817993
1.531000018119812
1.260740041732788
1.5772500038146973
1.8815900087356567
1.919350028038025
1.9532599449157715
1.8070800304412842
1.622189998626709
1.5586400032043457
1.5729299783706665
1.6386100053787231
1.7704800367355347
1.9083800315856934
2.0570099353790283
2.1800599098205566
2.2217400074005127
2.3026299476623535
2.5920400619506836
2.814850091934204
2.31754994392395
1.8803199529647827
2.0582399368286133
1.9846199750900269
1.5499999523162842
FIELD FieldData 2
Curvature 1 84 float
0.10710981662
0.093895180837
0.077088281664
0.058555558492
0.040406942722
0.02558229785
0.018125293594
0.01763817712
0.017638625594
0.015596331369
0.014173030272
0.017562319223
0.024776166068
0.035026520902
0.050659623036
0.073588131444
0.10425615458
0.14164930993
0.1864954391
0.22961148946
0.26957309305
0.27601383964
0.23544140697
0.16637021891
0.10072352298
0.059360687486
0.077655736523
0.14435360638
0.22714532572
0.27651248519
0.2411380788
0.17367084994
0.11886185158
0.096204015326
0.12322427264
0.20317938682
0.36046958371
0.6066239049
0.56960599757
0.3115884638
0.15296886994
0.063675438066
0.042907378324
0.084519229706
0.11756650016
0.12588009156
0.11210087622
0.091282936526
0.078145467939
0.071638719228
0.062726774962
0.049449519953
0.037357706558
0.037632515574
0.051597783834
0.070158824617
0.088546634729
0.10771178699
0.12879634258
0.14863507129
0.16003688391
0.15551752515
0.13751332834
0.11531922892
0.095507405708
0.081176981937
0.073027797269
0.070027555265
0.070121527985
0.071780564702
0.074177973768
0.076437854633
0.077291119928
0.079006416845
0.08230037823
0.085911176478
0.08900639183
0.090661689241
0.094213578583
0.1104101009
0.16078050109
0.28839945763
0.56126482961
0.64748038396
Torsion 1 84 float
-0.025392904819
-0.03876245143
-0.063258993757
-0.11370316051
-0.22891831099
-0.47837380447
-0.67486861249
-0.38983699385
-0.071317627789
0.26597561733
0.58898419267
0.50423110321
0.40194379074
0.34835334084
0.27575497156
0.1895428792
0.10411752598
0.026685427665
-0.074367261858
-0.30739621997
-0.43820960479
-0.37016448986
-0.22535348176
-0.073453529515
0.12691792695
0.60890041192
0.42881133862
0.13140754795
0.055037289321
0.052636907155
0.098845979274
0.16708282523
0.29474563236
0.37720401219
0.20138277777
0.062417366139
-0.0099264969803
-0.056741079475
-0.073380568581
-0.08177029912
-0.15045088959
-0.57186124587
-1.0593361791
-0.26663141949
-0.16056487466
-0.18273414945
-0.25876715147
-0.32948020274
-0.3133683074
-0.17530224481
-0.005743881503
0.19980714311
0.52050208155
0.56440384867
0.31325545563
0.19192784505
0.14952461692
0.11472619243
0.074307854934
0.039019951604
0.014396155614
-0.0017227481713
0.00027010829808
0.019070983577
0.063574135948
0.12962638586
0.20169225824
0.26019498178
0.30341835541
0.3371169828
0.35959010256
0.36818574081
0.37341143646
0.35398826507
0.29894311329
0.22947112419
0.13781376651
0.013200181361
-0.13420025556
-0.2594562649
-0.27328043551
-0.22909103274
-0.16390125787
-0.074420342628
