# vtk DataFile Version 2.0
Vessel Segment
ASCII
DATASET POLYDATA
POINTS 103 float
0.0 0.0 0.0
-0.5285145444683255 0.014783420988228284 0.33742094936128997
-1.0940538842055594 0.07210801187808148 0.6042992183587709
-1.672918407185426 0.14841254610587665 0.8360340024965055
-2.255366314550685 0.22891360268338548 1.0572428283829223
-2.8361730136450634 0.3017098824639257 1.2852172321577444
-3.4111658803099054 0.3545846301788547 1.5324870353924684
-3.9754272642803348 0.37149976980942045 1.807636468314983
-4.5212326727517596 0.33033991535092455 2.115048459165251
-5.035012115386901 0.20360541835339235 2.4521551473141336
-5.496474833068309 -0.0315121547285448 2.805738443287675
-5.887960660059196 -0.3750104140757812 3.1551873522082525
-6.209656002249812 -0.8014521251266126 3.484714729063219
-6.478978458737709 -1.279516318680955 3.790059526387005
-6.719106885029647 -1.7860862745287969 4.073539868712197
-6.953095866038889 -2.306624723049803 4.33590854905711
-7.203373854072988 -2.8331162109632557 4.569709331811773
-7.490425183596962 -3.3617370276999408 4.7491321706339855
-7.820703561105913 -3.889920507540271 4.816980329956051
-8.148601678785527 -4.409330961443359 4.700393004881573
-8.381776328934482 -4.9063774881547495 4.400436054731722
-8.475560000101803 -5.380684886074838 4.001746118046523
-8.442670114658787 -5.835818765309417 3.5712309603299244
-8.309919248062505 -6.269778847266968 3.137583944675228
-8.101114778244533 -6.678932606906736 2.7095745122910184
-7.8332961154289364 -7.06108141065142 2.289334381819633
-7.516737091951374 -7.415668430649381 1.878866221671698
-7.155134757968456 -7.744255413686231 1.4843118669490156
-6.740470075470808 -8.056554584607778 1.1316677698840376
-6.316846558600443 -8.370983084352554 1.1761470830804335
-6.371600301587275 -8.433316736088079 1.7944171839314744
-6.526026827472796 -8.426989690005582 2.403102915258867
-6.711840042583809 -8.388336755789027 3.001826685643901
-6.915757929785279 -8.317606474625416 3.5917164897044946
-7.129950246777186 -8.208537520457659 4.17195978894469
-7.344330762023672 -8.053046330160521 4.7414261989274635
-7.54198433589417 -7.845994792656624 5.3004323706843275
-7.694405803549958 -7.592147012333297 5.854049500357704
-7.758682378218466 -7.3215095578824565 6.416375130852468
-7.6952828671617715 -7.1121398958459725 7.0030076114719115
-7.527638251802296 -7.058701150822084 7.603485509080573
-7.338065851237923 -7.181241515289008 8.187800462622207
-7.189904236138151 -7.443421399924566 8.737659004296999
-7.111970442735005 -7.809596652766355 9.24072010824281
-7.114163101764539 -8.2558989554956 9.68132090004049
-7.19428955419722 -8.765162237475632 10.03828758241301
-7.339005647601263 -9.322413087099317 10.28649777946585
-7.521247875513494 -9.910424493342783 10.405340496321388
-7.703865902480107 -10.510212928139433 10.391495079332172
-7.850524321362356 -11.107308036803891 10.266325316394136
-7.934659695344949 -11.697574237373644 10.069987337941358
-7.9406115398278425 -12.28564777891386 9.850469906527042
-7.860359621892109 -12.87704197410153 9.656450052606852
-7.693528739938144 -13.468936836391856 9.533034416892443
-7.45139585287125 -14.046987476602517 9.508538771058408
-7.153317897993302 -14.594465160993197 9.580395851930383
-6.8148956144267 -15.102725913858364 9.72623934249757
-6.44239212059286 -15.568260285841209 9.923204051010833
-6.03593407690439 -15.986872949501572 10.155063105742066
-5.593140626077175 -16.350103945205063 10.41248247071895
-5.113842090954708 -16.644986114483835 10.690574965870209
-4.603658131164181 -16.8595548279849 10.986710595269951
-4.074159952088294 -16.98967330883619 11.297756306070525
-3.5376703572185084 -17.042298320454563 11.619702579267246
-3.002064099235689 -17.03258729051831 11.94750689654696
-2.4696088177438127 -16.977144682174245 12.276068786483199
-1.9388891423774948 -16.889875657889224 12.600596064314141
-1.4073611106986537 -16.780493637418612 12.917035895563803
-0.8731018145093177 -16.65526114172905 13.222844317794106
-0.33637413391112025 -16.51712242795883 13.518622669237537
0.20015810429333428 -16.36764521744134 13.809188825211306
0.7330595024662085 -16.209772572405313 14.102010372966136
1.2600846995320245 -16.050083664848913 14.404316814024337
1.7812111929167416 -15.898539260804936 14.720681365972167
2.2982862707805727 -15.767480386135533 15.052400804401891
2.8134005767499755 -15.67094005862972 15.398572972601086
3.326791972507819 -15.6250818198093 15.757293483469844
3.834338468187752 -15.649264399340481 16.125968785823645
4.324205679578053 -15.764974660803144 16.500627000308715
4.774836542162605 -15.990130272942723 16.874232648841392
5.159612354559296 -16.327236961091604 17.236903792078436
5.45943786465833 -16.757689983511455 17.580790032956354
5.66976494797406 -17.25241838569026 17.904424778697912
5.795041655317078 -17.78573818424364 18.210874643312568
5.841225506990657 -18.339167713117217 18.50374880442865
5.812639088302339 -18.899926817188156 18.784679732540926
5.711838908240509 -19.459245457793095 19.05153380461996
5.540234661350177 -20.01098299473979 19.297156574399736
5.299135072319135 -20.550567704078926 19.508786557219185
4.992092308520707 -21.07411433739931 19.66887023301912
4.628454147387071 -21.57767013390001 19.759051550611897
4.225610705096062 -22.058942062149058 19.76788491948156
3.805789689150349 -22.520480059132296 19.697731928995683
3.389044967848525 -22.97076021576308 19.563647244611
2.9891711745238103 -23.421102806418 19.385282946288946
2.614387643899382 -23.88185156564156 19.180851098616042
2.269123905687766 -24.360016131598346 18.964747971885387
1.9551399869785064 -24.858622612731022 18.747147548803127
1.6722293177826497 -25.377520898527006 18.534421087105216
1.4186941556710946 -25.914605558354125 18.329920270746555
1.191864512588855 -26.467026508883222 18.13506846105017
0.988633567687058 -27.03199266544431 17.95038688129712
0.8057670158701007 -27.607162523419056 17.776162384461944
LINES 1 104
103 0 1 2 3 4 5 6 7 8 9 10 11 12 13 14 15 16 17 18 19 20 21 22 23 24 25 26 27 28 29 30 31 32 33 34 35 36 37 38 39 40 41 42 43 44 45 46 47 48 49 50 51 52 53 54 55 56 57 58 59 60 61 62 63 64 65 66 67 68 69 70 71 72 73 74 75 76 77 78 79 80 81 82 83 84 85 86 87 88 89 90 91 92 93 94 95 96 97 98 99 100 101 102
POINT_DATA 103
SCALARS MaximumInscribedSphereRadius float
LOOKUP_TABLE default
1.2400000095367432
1.2400000095367432
1.2400000095367432
1.255660057067871
1.2714799642562866
1.1851400136947632
1.038949966430664
0.9300000071525574
0.9300000071525574
0.9300000071525574
0.9300000071525574
0.9307960271835327
1.0655100345611572
1.2014399766921997
1.3345999717712402
1.4693900346755981
1.488360047340393
1.3312699794769287
1.3603500127792358
1.6286900043487549
1.7795499563217163
1.85316002368927
1.5794600248336792
1.3298399448394775
1.1651400327682495
1.0077600479125977
0.9986370205879211
1.144260048866272
1.3907099962234497
1.7546000480651855
1.7007299661636353
1.5928599834442139
1.5499999523162842
1.5499999523162842
1.5499999523162842
1.5499999523162842
1.5499999523162842
1.3964999914169312
1.2536200284957886
1.453160047531128
1.5746300220489502
1.5579700469970703
1.6237599849700928
1.768630027770996
1.8600000143051147
1.8600000143051147
1.8600000143051147
1.8600000143051147
1.8600000143051147
1.8600000143051147
1.8600000143051147
1.7538399696350098
1.6091699600219727
1.5499999523162842
1.5499999523162842
1.5499999523162842
1.5499999523162842
1.5650299787521362
1.6958500146865845
1.828660011291504
1.7553499937057495
1.616569995880127
1.6233199834823608
1.7625499963760376
1.9002799987792969
2.036679983139038
2.160710096359253
1.94582998752594
1.724370002746582
1.5261000394821167
1.335569977760315
1.4456100463867188
1.8561300039291382
2.1389200687408447
2.0038399696350098
1.8682899475097656
1.9890600442886353
2.129650115966797
2.1700000762939453
2.1700000762939453
2.1772799491882324
2.1888999938964844
2.0814900398254395
1.8503199815750122
1.6857600212097168
1.777999997138977
1.8705699443817139
1.87568998336792
1.8646999597549438
1.9421499967575073
2.0857200622558594
2.229840040206909
2.3722100257873535
2.4553399085998535
2.34879994392395
2.243849992752075
2.344130039215088
2.455670118331909
2.8199100494384766
3.343669891357422
3.567509889602661
3.027820110321045
2.4800000190734863
FIELD FieldData 2
Curvature 1 103 float
0.27225319918
0.16314439161
0.089339178903
0.040875337117
0.022313715954
0.045251995426
0.077363869878
0.11531447658
0.15871289146
0.19780634926
0.21001730563
0.18166340109
0.12926115018
0.075803472427
0.041706338365
0.073839990349
0.14180490573
0.23112569822
0.31861907574
0.34929536895
0.30300953769
0.24159198397
0.18548062748
0.13755548507
0.10395352873
0.095366224421
0.12963005257
0.24445029546
0.72163106866
2.03699877
0.36174017972
0.15280374582
0.081153970078
0.065236164582
0.080261163414
0.10300190012
0.12956415417
0.17175411883
0.24807712138
0.31605921216
0.30188778122
0.25200412124
0.22012843787
0.20747799716
0.20774274768
0.21616863361
0.22232582353
0.21478719047
0.18900946524
0.15239571882
0.13081824923
0.14469778929
0.18040238611
0.2036463284
0.18917936747
0.15203343096
0.11963755453
0.10634350459
0.11325409258
0.1298912852
0.1426340926
0.14134439636
0.12577563761
0.1002826285
0.073084625951
0.050731909892
0.036995306429
0.031118519131
0.027330244663
0.020597293563
0.015567351692
0.019845714419
0.029179759151
0.041438825706
0.059351402726
0.083582741998
0.11459911705
0.15148542331
0.18775823914
0.21018849887
0.20651286304
0.18200197463
0.15388185486
0.1327064917
0.12076354701
0.11659277622
0.11868690001
0.12646143964
0.13826975163
0.14901671052
0.14986692872
0.13452667762
0.10605161416
0.078053109849
0.061729805684
0.05850364988
0.059945874592
0.059760003013
0.056635855344
0.051553513105
0.046356402917
0.042423050937
0.040845640829
Torsion 1 103 float
-0.0023158833098
-0.0038953200201
-0.012021858458
-0.069473294262
-0.16084150418
0.058991482283
0.10461427596
0.11524909771
0.10738333758
0.084569304318
0.059591380034
0.049014868532
0.073685874908
0.22292353154
0.84478124895
0.22188107216
-0.02979082584
-0.16624343469
-0.3198299308
-0.39187941231
-0.29147515592
-0.1367447491
-0.022994241979
0.03236845631
0.041501212469
-0.0057878472162
-0.06898785725
-0.090621237735
-0.11125340818
-0.041159268626
0.015754163613
0.045961827566
0.12592830852
0.21953205133
0.22579449936
0.25802848245
0.3450668309
0.46202882857
0.49829006545
0.44721742157
0.35320949908
0.25172832284
0.13464848145
0.021099820186
-0.075741442376
-0.14467363183
-0.20120642685
-0.24076366655
-0.30653132063
-0.45524888535
-0.59658707773
-0.46976319651
-0.26277356073
-0.11973251573
-0.0038901864282
0.082924106104
0.16522603318
0.17707914811
0.09932343622
0.020173749069
-0.029495977517
-0.044557524913
-0.032458128065
0.0055605319396
0.076540278385
0.19039979778
0.28296209823
0.21080415688
-0.098876675084
-0.49887249931
-0.9918856334
-0.7216131135
-0.48808429534
-0.34429068665
-0.1940364245
-0.090449444863
-0.021747826578
0.020279861573
0.043248737447
0.05959211712
0.077302429314
0.093881394871
0.10136286285
0.091372913974
0.055091666362
-0.012269131693
-0.086111068865
-0.1419546132
-0.1677533915
-0.17121439892
-0.17544610248
-0.19905921098
-0.27130683925
-0.39676440595
-0.47560750641
-0.35689623017
-0.20670083203
-0.11351884277
-0.064495946409
-0.044294511754
-0.046270248033
-0.056566450112
-0.068016401168
