# vtk DataFile Version 2.0
Vessel Segment
ASCII
DATASET POLYDATA
POINTS 74 float
0.0 0.0 0.0
-0.7965879773697829 0.06909097605905032 0.3576970559464593
-1.6477227790745557 0.12418827293320064 0.5590215445034704
-2.5207997498099846 0.13433364863978806 0.6400060636055934
-3.3951895141463813 0.06777818245808283 0.6529505087688815
-4.254623106403648 -0.10555894772912826 0.6506768903722885
-5.077938193648275 -0.4049225955106152 0.6781371295833774
-5.840033228094543 -0.8287364077060548 0.7646313783729154
-6.524904471740316 -1.354786315212418 0.9154074749475657
-7.131152389857244 -1.9560491206527368 1.1153324287762265
-7.664286712132743 -2.616084044190753 1.3376466020612858
-8.124306604517509 -3.3346258581485073 1.540195474993278
-8.488999666007116 -4.123132731833555 1.6480297092176028
-8.699507037376485 -4.964199724416804 1.5485042741373938
-8.727057353912164 -5.768099812015101 1.206724215065689
-8.636276091711588 -6.490576670578551 0.7188921146644927
-8.497133314797862 -7.164341713722111 0.1743880323074265
-8.350118780574142 -7.83032174068306 -0.3777242477802785
-8.223044697056856 -8.52175194803786 -0.9023746205582912
-8.150981169286341 -9.271341247253567 -1.3503258195466148
-8.21368666389113 -10.104013533614618 -1.594417020100582
-8.550045402501405 -10.840833538020403 -1.3356332070468413
-9.021958837929244 -11.182613597092109 -0.689068179732221
-9.477082860912688 -11.286074076778013 0.05238663664343599
-9.886816252795846 -11.272693423829907 0.8276004325570602
-10.229295245182424 -11.20045474570602 1.6317624116361098
-10.460879042407225 -11.11535919759553 2.472655921964593
-10.485892180966955 -11.08711078179428 3.3451198664632296
-10.17935737728895 -11.228878311860639 4.144559458395724
-9.616662679660536 -11.566547341923977 4.719848300480687
-8.980680069886624 -12.018609569920667 5.118999274823135
-8.34889439619916 -12.54002466545716 5.4323549336909185
-7.749993618381421 -13.117673867066099 5.710291854910237
-7.202516984312888 -13.747709705318474 5.980006718112821
-6.723343149713244 -14.428147142876101 6.25680599608454
-6.32629064341402 -15.153729166989997 6.548474705008005
-6.015733219953636 -15.913935079767782 6.8565825256691255
-5.780212710024536 -16.69462357529815 7.179996819116114
-5.59060744820653 -17.48148653780943 7.518802658377749
-5.403450955138487 -18.26024212408297 7.877023497285712
-5.162857757356093 -19.0103643808025 8.262532761248602
-4.80944688077137 -19.694640738783793 8.68013624234315
-4.307097318223769 -20.260186425437944 9.120741135081586
-3.6697151737215075 -20.66761950934685 9.56160958739938
-2.9425150939622005 -20.91476249629595 9.983149781198225
-2.1690502994343634 -21.02672423200235 10.380464178978201
-1.377587555023885 -21.031683072125954 10.758275167885863
-0.5843924902136547 -20.950584705294144 11.1239307222697
0.20050211594547745 -20.798200561665702 11.48486305545768
0.9704860057124265 -20.586573687621048 11.848244991444924
1.7213868474551466 -20.328043842579692 12.221159276901961
2.4510619685174206 -20.036385350760174 12.611476835089489
3.1585405355120026 -19.725950115522497 13.02733214884755
3.843184083698396 -19.409532870180286 13.475546073365928
4.505334156265671 -19.0970075073924 13.959005253278006
5.148733340943143 -18.796454505306606 14.474298426939592
5.781541767586888 -18.51639284349106 15.013729821443365
6.414046600284793 -18.267045881262064 15.568377611408415
7.055221896755289 -18.060211663017636 16.130364201179635
7.709640697191834 -17.908571074341715 16.694597719769792
8.375568752455667 -17.82546098059406 17.259487635160436
9.043280891304043 -17.8263096257586 17.82816413438106
9.690012311454364 -17.932787695818266 18.41038767938549
10.263131582793129 -18.181049976930325 19.023754625317576
10.633806862899597 -18.61960018921388 19.678680579857673
10.620032538681059 -19.214399946614876 20.311147671824674
10.269690963526806 -19.81574156971421 20.84015428410577
9.7615866693094 -20.367678907960872 21.29407018667562
9.196093527761262 -20.881957669159195 21.724819327327502
8.624950744755338 -21.374109832175012 22.173567043399004
8.09154535645677 -21.852417715087103 22.679336208083814
7.659588512415938 -22.312560838256204 23.286362294199282
7.439668008498844 -22.721017242014277 24.025484378934085
7.533207888764984 -23.01358516685721 24.841224851964487
LINES 1 75
74 0 1 2 3 4 5 6 7 8 9 10 11 12 13 14 15 16 17 18 19 20 21 22 23 24 25 26 27 28 29 30 31 32 33 34 35 36 37 38 39 40 41 42 43 44 45 46 47 48 49 50 51 52 53 54 55 56 57 58 59 60 61 62 63 64 65 66 67 68 69 70 71 72 73
POINT_DATA 74
SCALARS MaximumInscribedSphereRadius float
LOOKUP_TABLE default
0.6200000047683716
0.7559159994125366
0.8980799913406372
0.9300000071525574
0.9300000071525574
1.030769944190979
1.1811000108718872
1.4181599617004395
1.7053200006484985
1.7344499826431274
1.4531099796295166
1.2400000095367432
1.2400000095367432
1.2400000095367432
1.2400000095367432
1.4479899406433105
1.7304199934005737
2.000080108642578
2.276050090789795
2.3769400119781494
1.996500015258789
2.0182600021362305
2.1700000762939453
2.1700000762939453
2.121190071105957
1.8368500471115112
1.569219946861267
1.9195799827575684
2.1037099361419678
1.930459976196289
2.0149900913238525
2.2824299335479736
2.5105199813842773
2.644289970397949
2.77947998046875
2.494849920272827
2.0896100997924805
1.8600000143051147
1.8600000143051147
1.926900029182434
2.29082989692688
2.559030055999756
1.9290000200271606
1.4389100074768066
1.8114900588989258
2.1654999256134033
2.4386000633239746
2.706279993057251
2.5134799480438232
2.10588002204895
1.878159999847412
1.923550009727478
2.0501298904418945
2.4504001140594482
2.8256800174713135
2.989269971847534
3.1490299701690674
2.7613699436187744
2.333620071411133
2.09552001953125
1.973580002784729
1.8753000497817993
1.8406200408935547
1.7811000347137451
1.626189947128296
1.9556100368499756
2.632009983062744
2.683259963989258
2.5491700172424316
2.4189200401306152
2.286129951477051
2.1700000762939453
2.1700000762939453
2.1700000762939453
FIELD FieldData 2
Curvature 1 74 float
0.22681557294
0.19685315139
0.15030953446
0.11767265291
0.1253490826
0.15502182834
0.17505717698
0.16800068673
0.1381872791
0.10867472047
0.11751994566
0.19959023555
0.32927500325
0.37182128802
0.26784481296
0.14522721943
0.048192029348
0.052108460578
0.15820941994
0.34543634936
0.75843713783
0.73903591888
0.33347339495
0.16409698442
0.10446367357
0.14854295747
0.27725480332
0.46850672112
0.49559219383
0.29384032318
0.15607483701
0.094460672677
0.08439963578
0.097862335643
0.11071559483
0.11074533586
0.092662542179
0.058999922546
0.036106065298
0.085673411689
0.16156015796
0.22493662929
0.24188902183
0.2178493819
0.17199729768
0.12903495695
0.09925169421
0.081514140541
0.070918670902
0.062394980293
0.054007958631
0.048093255211
0.047102695025
0.048385782928
0.047400305311
0.045016592807
0.046708263094
0.054560112731
0.065779488987
0.078941524046
0.098280534092
0.13481544174
0.20871379941
0.34844794434
0.51330934701
0.43987340194
0.24812479789
0.11593181506
0.042900389411
0.080031395546
0.1704248245
0.29715623901
0.4157788869
0.39878615277
Torsion 1 74 float
0.08856982787
0.17176028597
0.35119486127
0.6005070428
0.48509805247
0.25442408165
0.1266589672
0.035464451533
-0.066479696569
-0.27286068767
-0.42034231614
-0.2325230307
-0.10093084457
-0.055853031133
-0.028623530823
-0.004620068056
0.03699364621
0.023992161288
0.0064891730198
0.011953685063
0.020817918418
-0.010302680983
-0.07173802888
-0.22418725318
-0.55120267589
-0.3566186093
-0.19303752723
-0.15628953296
-0.1424576828
-0.16802926474
-0.26505906717
-0.39936457916
-0.31958429832
-0.15112455525
-0.070597694819
-0.044012915623
-0.072992245201
-0.28775456665
-1.0874256203
-0.22663349303
-0.058302146554
-0.015959514692
-0.00011106124365
0.016113708185
0.044729354411
0.077726877822
0.11029224319
0.1347851859
0.15612745505
0.19958391118
0.28409996172
0.34925643404
0.28361673016
0.19204992203
0.22857981444
0.33484975301
0.3332173102
0.18593900232
0.037005630686
-0.073755018144
-0.14986007931
-0.1856338898
-0.17348612537
-0.15140191798
-0.12597835268
-0.089764961537
-0.084993315706
-0.19990347416
-1.1193422309
-0.30414045423
-0.073969506636
-0.030128683817
-0.015345595984
-0.0074377081221
