# vtk DataFile Version 2.0
Vessel Segment
ASCII
DATASET POLYDATA
POINTS 79 float
0.0 0.0 0.0
-0.31468007825411026 -0.16651774834864508 0.7380881271020887
-0.7622831492783572 -0.2835111352579097 1.4146351001451294
-1.3161372759744157 -0.3640499712574325 2.0138905585963074
-1.948688231605423 -0.4250228053562463 2.532443808416342
-2.6376817214887445 -0.4838044330688708 2.973786842821387
-3.3666775035049596 -0.5582543478595619 3.3427906439229327
-4.122464848551184 -0.6662351403040757 3.6430269555582546
-4.892785389310756 -0.8261777209384027 3.875308769496081
-5.663268528424074 -1.05553741017606 4.038092175653705
-6.416132974492254 -1.3678702650521726 4.128455823608831
-7.131082581578482 -1.7689431071795811 4.145505422415859
-7.789930336677388 -2.254371975230157 4.093707006857667
-8.382042307454013 -2.8111660350175094 3.9835334594712135
-8.905872260992027 -3.4232497293013324 3.829030955186486
-9.366295050792294 -4.07641351052002 3.6431895539120003
-9.77394460918977 -4.757263919992192 3.4342096326216547
-10.144896493424763 -5.450779966943263 3.1998171371966366
-10.499935418773195 -6.136582657703797 2.9224754480465562
-10.859034657298015 -6.780249146507997 2.563376983799612
-11.218538068873572 -7.333226016371706 2.0776236933194197
-11.539479345163697 -7.775625165798221 1.4670010613856812
-11.78418212477193 -8.137970177174951 0.7733239646366143
-11.932838831100568 -8.460453814992032 0.034017124159309284
-11.976274271331118 -8.769296225207741 -0.7245305215112137
-11.912947632492369 -9.0800061936579 -1.480967485694545
-11.748783688883659 -9.402000487857995 -2.217270128016933
-11.494987789911677 -9.742750889301572 -2.91890525276503
-11.165766386026531 -10.109806607269672 -3.5745049121783996
-10.775491623143575 -10.512096614216546 -4.173517247376835
-10.337151238337697 -10.961802623949234 -4.7010823173837455
-9.863982286159532 -11.476702830755121 -5.128542549490424
-9.379529008231428 -12.084158666180196 -5.38144648035043
-9.007683607328712 -12.763871661454024 -5.208513065529712
-9.058832403749797 -13.105271682034708 -4.491290178602546
-9.334469133019175 -13.096827407530192 -3.7213761337273383
-9.670590901326129 -12.93761651948772 -2.990431494299802
-10.024818383461584 -12.70273700327934 -2.288554794854712
-10.380588227123996 -12.430754091301987 -1.6007219475059833
-10.728482116242125 -12.151626143094331 -0.9118329851357839
-11.060382521574695 -11.896855428277751 -0.2058959725143061
-11.364923043917024 -11.707928529671475 0.5318685064360416
-11.621885739397667 -11.643545775811257 1.3070600293071042
-11.798795845384277 -11.769794880438015 2.095485509617301
-11.866751117359646 -12.112087643408548 2.8348728749936036
-11.827293916850737 -12.623415332099285 3.473179812347202
-11.70429213363164 -13.234361612184763 4.005697937920351
-11.521211032981451 -13.897107082106311 4.453049368635229
-11.295425410414696 -14.585183052707782 4.838858871013185
-11.038461166378303 -15.28503114412043 5.181881778019824
-10.757791630921563 -15.989759508979065 5.49519022301841
-10.458122864968601 -16.695737558327917 5.787388756033579
-10.141811770370849 -17.400717176356984 6.063999526869679
-9.808531601865065 -18.10272550304082 6.328025959403753
-9.454466718083356 -18.79896933094544 6.579833512792789
-9.070929721268463 -19.48441469246667 6.817757489605585
-8.645337047396232 -20.150090804145016 7.039216447406961
-8.162181459186593 -20.781496989937867 7.241652946375862
-7.608148474301415 -21.35839304548488 7.423434808751836
-6.978285037174459 -21.858021589054157 7.5848469687928715
-6.279654110581278 -22.26252903105024 7.7291034539580075
-5.529875161844888 -22.56668715690706 7.863154182453051
-4.748106922703757 -22.776477650347775 7.9962231266026205
-3.949857404715832 -22.902476372866712 8.137856745466266
-3.146736130338542 -22.95574035126514 8.29701962828049
-2.3472694475311506 -22.947126219551798 8.48177316914063
-1.5581045318503493 -22.88855084010812 8.698888428063377
-0.7837817487550126 -22.79431323798264 8.953748571974515
-0.027247225559434 -22.681228405786268 9.25090829047361
0.7095993469701266 -22.568586944458055 9.59407753599862
1.4248005943657231 -22.476940898772494 9.985724706414977
2.1148250352395785 -22.426132881401134 10.426678279048907
2.7735758120346428 -22.432554935665674 10.91558171906345
3.392738728929395 -22.504366498597378 11.448911674988514
3.9641302494937185 -22.639399882500502 12.021869946832856
4.482147892593737 -22.82848565324825 12.629325395118995
4.944405962919539 -23.06021671365513 13.266358064659848
5.351091835716871 -23.323587865145136 13.928568121430848
5.704009517943973 -23.609002078635008 14.612183549783119
LINES 1 80
79 0 1 2 3 4 5 6 7 8 9 10 11 12 13 14 15 16 17 18 19 20 21 22 23 24 25 26 27 28 29 30 31 32 33 34 35 36 37 38 39 40 41 42 43 44 45 46 47 48 49 50 51 52 53 54 55 56 57 58 59 60 61 62 63 64 65 66 67 68 69 70 71 72 73 74 75 76 77 78
POINT_DATA 79
SCALARS MaximumInscribedSphereRadius float
LOOKUP_TABLE default
0.9300000071525574
0.9547340273857117
0.9793310165405273
0.9796000123023987
0.9907990097999573
1.419909954071045
1.8438800573349
1.5696200132369995
1.2686899900436401
1.1023999452590942
0.9486690163612366
1.0664600133895874
1.2222900390625
1.2400000095367432
1.2400000095367432
1.0932899713516235
0.9361760020256042
1.1118099689483643
1.3971600532531738
1.907189965248108
1.3660500049591064
1.2475700378417969
1.8009300231933594
1.7027100324630737
1.5499999523162842
1.5499999523162842
1.5499999523162842
1.5499999523162842
1.5499999523162842
1.4180500507354736
1.266129970550537
1.3961000442504883
1.6075199842453003
1.811169981956482
1.8560999631881714
1.5011500120162964
1.2400000095367432
1.2400000095367432
1.2400000095367432
1.2400000095367432
1.2400000095367432
1.2400000095367432
1.2451000213623047
1.2676199674606323
1.2641500234603882
1.2428200244903564
1.38031005859375
1.5326999425888062
1.6774699687957764
1.8179099559783936
1.8600000143051147
1.8600000143051147
1.795300006866455
1.652899980545044
1.5070500373840332
1.3571799993515015
1.276960015296936
1.4350899457931519
1.5499999523162842
1.5499999523162842
1.5499999523162842
1.5499999523162842
1.5225399732589722
1.4457099437713623
1.371209979057312
1.3011800050735474
1.2594200372695923
1.4082000255584717
1.5839600563049316
2.130850076675415
2.6185998916625977
2.224529981613159
1.91143000125885
2.09483003616333
2.328969955444336
2.758430004119873
3.0196900367736816
2.5866799354553223
2.1700000762939453
FIELD FieldData 2
Curvature 1 79 float
0.20153926676
0.18910253412
0.16533874707
0.13881113444
0.11618544656
0.1015951514
0.097586900998
0.10443539478
0.11904865563
0.13561867669
0.14743984627
0.14916624708
0.13814950166
0.11893796866
0.10091622698
0.086293612912
0.082466418723
0.10035063862
0.1455126453
0.20148038888
0.21909253574
0.19274940758
0.1634100749
0.14885964072
0.14121206631
0.132751801
0.12241752128
0.11190106837
0.10913576428
0.12566531143
0.17563818994
0.29105223639
0.60150662739
1.2106042277
0.56879536119
0.26176094342
0.13546915309
0.061687414811
0.01335598329
0.053153073471
0.11288665635
0.18592889551
0.2632505009
0.3076256197
0.28271216506
0.21832528793
0.1565533461
0.10685352883
0.071070362576
0.047470136754
0.033884435394
0.028965926863
0.031118593351
0.037892529491
0.0488582448
0.065401850841
0.0876225856
0.11253602333
0.13418579218
0.14553989109
0.13996587883
0.12355627714
0.10551132856
0.091029473412
0.080995010989
0.073487955449
0.066550756387
0.062486160193
0.063740019235
0.071827841749
0.084725485658
0.098568414641
0.1074993317
0.10859444919
0.10395964247
0.097264099456
0.090291325208
0.083818302959
0.078063836159
Torsion 1 79 float
-0.051049408481
-0.070812904748
-0.096254227831
-0.13199360291
-0.18315111438
-0.2353985259
-0.24937836743
-0.20894367011
-0.1431985105
-0.092808832994
-0.062299094905
-0.049516567519
-0.048074962658
-0.057375461816
-0.047082095746
0.041346859974
0.21755880116
0.24134367311
0.11135950034
-0.087372937649
-0.23211789831
-0.28870502128
-0.259981354
-0.18825973153
-0.13883532984
-0.12437000782
-0.13616571547
-0.16996322968
-0.19294311913
-0.16694720762
-0.10876918577
-0.060626721931
-0.028583051693
0.027745164543
0.041173932792
0.040316670393
0.055642930793
0.15305692827
2.7813034545
0.20960249267
0.065421435599
0.032445961765
0.012432788751
-0.006695486225
-0.024044035174
-0.03624743255
-0.044109309923
-0.052168844474
-0.063446218566
-0.078019389999
-0.10414216399
-0.1149405933
-0.094485234032
-0.075175635793
-0.072423292027
-0.075121362075
-0.07495339219
-0.071494407701
-0.068615107162
-0.071065387972
-0.087934991121
-0.10987402901
-0.13661851275
-0.16271294742
-0.1841754806
-0.21129929638
-0.26750013021
-0.33592274473
-0.35827120126
-0.28285064067
-0.18843735781
-0.093756413044
-0.006187051911
0.054129031163
0.076394660611
0.080639326151
0.077483393188
0.071930826944
0.065554230333
