# vtk DataFile Version 2.0
Vessel Segment
ASCII
DATASET POLYDATA
POINTS 64 float
0.0 0.0 0.0
-0.9597310198751803 -0.315814481762185 0.10628251431459858
-1.9297616090947114 -0.5951222869047537 0.22126205430034684
-2.9028412927683953 -0.8559250434136985 0.35323059453259903
-3.870085950195119 -1.12330120056298 0.5116942984667248
-4.8206246609387104 -1.4250584804863229 0.7051476662259759
-5.743748163348551 -1.7801108405426302 0.9366237589919633
-6.634774741842404 -2.1898701731229604 1.2014712400146363
-7.499821632374152 -2.6383620345350396 1.4891732469138792
-8.352107002369918 -3.1038428961936226 1.7877962028816625
-9.20539342721672 -3.567805780650344 2.0860150721610213
-10.0699248420087 -4.020949943219844 2.367952816204147
-10.951364246828025 -4.468631702440333 2.601249710086472
-11.843391880172915 -4.941291612568204 2.6942851247538195
-12.65320474955242 -5.476952398610194 2.432470704912757
-13.2385190134947 -6.0166598379806535 1.807212616480826
-13.698740961759539 -6.529163274231598 1.0607044113372857
-14.116590707774696 -7.031656161972171 0.2828471801939237
-14.50026089215632 -7.5387994220554235 -0.5094703750693338
-14.828918386877332 -8.063539259028872 -1.314732206065367
-15.0634285052323 -8.6184148975295 -2.1321291750099562
-15.146048320293481 -9.211718312132657 -2.950941893975087
-15.017214104016789 -9.835661913317995 -3.739416285865143
-14.664590121720511 -10.464359078434704 -4.45245280438542
-14.137726659716249 -11.078291166702298 -5.065071369813793
-13.498310106671527 -11.677661668076048 -5.577675104431315
-12.789521802620248 -12.272784919388174 -5.995626113220421
-12.037654385716385 -12.874785359662482 -6.31761087334189
-11.258988016788804 -13.491548947971161 -6.528052276940274
-10.466659853044465 -14.122572263666578 -6.586098027782495
-9.68928868321606 -14.738830502512885 -6.3907245249477
-9.07407200433037 -15.181557136661477 -5.745543709046862
-8.884644072937428 -15.22531422789583 -4.761896411055166
-8.997793167733128 -15.048678195871055 -3.769957138488116
-9.262327216360246 -14.829337241053624 -2.814422315359362
-9.624446753630812 -14.661873687533873 -1.880731319182432
-10.06125867737342 -14.620918199712104 -0.9656475988204452
-10.550381985730633 -14.76208911507788 -0.08848534069124572
-11.062197799526096 -15.094387247624194 0.722035403698531
-11.572376049605701 -15.57539024591808 1.4562059453456178
-12.06880088616831 -16.15205859777987 2.1289938866470255
-12.543483158553045 -16.78763198745139 2.7635556129864285
-12.984087132078194 -17.46375629605257 3.3807242523909027
-13.36816140314824 -18.17519430935551 3.9955667412166664
-13.66172893567755 -18.92307727720633 4.616608440622842
-13.819383501827456 -19.70561670613561 5.243384506256635
-13.79470913924192 -20.50687383552381 5.864911302570393
-13.56252420705829 -21.29194097617233 6.463523297546899
-13.1369890987041 -22.020650802183305 7.026579521571535
-12.55814697262821 -22.66741879151487 7.552694603455947
-11.869482957186364 -23.22517632034171 8.048260153051048
-11.106187312936846 -23.698372561518745 8.522507959915174
-10.293614309661706 -24.096048351944866 8.984388206654346
-9.44839804569494 -24.426217856597134 9.441010022203463
-8.580306521093132 -24.69185114880074 9.896833308449438
-7.695155594506739 -24.89084678489441 10.353808820401847
-6.798041676687503 -25.020071977946827 10.812473491864457
-5.895173622289546 -25.082072989450257 11.273949169711521
-4.993559297473812 -25.090866847648996 11.742119522425817
-4.0993070174260025 -25.071055373611646 12.223962037336108
-3.2172807707214606 -25.052890218300817 12.727860066616142
-2.3527794936598228 -25.067295525993973 13.261185540209397
-1.5135303797498363 -25.142997014091055 13.828282872220122
-0.7104127173568644 -25.303512424071553 14.428767998714486
LINES 1 65
64 0 1 2 3 4 5 6 7 8 9 10 11 12 13 14 15 16 17 18 19 20 21 22 23 24 25 26 27 28 29 30 31 32 33 34 35 36 37 38 39 40 41 42 43 44 45 46 47 48 49 50 51 52 53 54 55 56 57 58 59 60 61 62 63
POINT_DATA 64
SCALARS MaximumInscribedSphereRadius float
LOOKUP_TABLE default
1.1160000562667847
1.1804699897766113
1.2489800453186035
1.360319972038269
1.5027199983596802
1.5379300117492676
1.444949984550476
1.3389099836349487
1.2129499912261963
1.1160000562667847
1.1160000562667847
1.1213699579238892
1.3448699712753296
1.5022000074386597
1.2655600309371948
1.2400000095367432
1.2400000095367432
1.2400000095367432
1.2803599834442139
1.4197499752044678
1.5385099649429321
1.3919999599456787
1.2445600032806396
1.3822200298309326
1.5187599658966064
1.6316399574279785
1.735260009765625
1.7828199863433838
1.6766300201416016
1.5602500438690186
1.7027499675750732
1.8115299940109253
1.6104199886322021
1.334779977798462
1.0314899682998657
1.2586400508880615
1.7646299600601196
1.9360500574111938
1.8535100221633911
1.7627099752426147
1.6622400283813477
1.6032299995422363
1.7325899600982666
1.8640999794006348
2.110219955444336
2.386399984359741
2.2813398838043213
1.983180046081543
1.8600000143051147
1.8600000143051147
1.8600000143051147
1.8600000143051147
1.83965003490448
1.7024099826812744
1.5632599592208862
1.4833999872207642
1.409060001373291
1.2342100143432617
1.0231599807739258
0.9300000071525574
0.9300000071525574
0.8854849934577942
0.7508540153503418
0.6200000047683716
FIELD FieldData 2
Curvature 1 64 float
0.081838184818
0.072016130073
0.059712428037
0.051995587035
0.058580738319
0.071515552648
0.074553794597
0.059510850156
0.032560244169
0.0058009623168
0.038925331854
0.10703115209
0.23288445418
0.44411567612
0.48278223031
0.26967842421
0.14436119014
0.075635233456
0.059196295637
0.097883775759
0.15727995156
0.21650223358
0.23968634548
0.2091661687
0.15989102168
0.12074900815
0.10245876287
0.11583201607
0.17114240975
0.29248265558
0.55750281127
0.76926000271
0.3983439424
0.17981786811
0.11156521932
0.1464843235
0.19365117783
0.20553240809
0.1708756533
0.11880232779
0.074703911511
0.053420946071
0.066180515023
0.10047194749
0.14287136023
0.18391860441
0.20887898989
0.2038423902
0.17722946359
0.14409562787
0.1134069879
0.088773342523
0.073294238721
0.068063678633
0.069148304074
0.070810006853
0.067264485372
0.05374037826
0.034223927754
0.02795814332
0.048603106852
0.075607111248
0.10074722537
0.12034197264
Torsion 1 64 float
0.040093431938
0.075771503569
0.15447095798
0.25810615361
0.20720497402
0.10187416982
0.032965830572
-0.010788770126
-0.04456215526
-0.84425157497
-0.13453251551
-0.099808575408
-0.081551792824
-0.056146928557
-0.011533422628
0.012392627257
-0.019826306097
-0.083872999696
-0.098638758265
-0.0245509076
-0.0057536534412
-0.0057265793016
-0.027310936648
-0.068430192227
-0.11983908283
-0.17820256461
-0.196430824
-0.10448542747
-0.010299550383
0.035981151493
0.052691299659
-0.013148604432
-0.13264701813
-0.37930807269
-0.70828365983
-0.30219488415
-0.11823249031
-0.044328871629
-0.025822013367
-0.065512638503
-0.22650868656
-0.47925955365
-0.27446411461
-0.087095001583
-0.035220593742
-0.03479263698
-0.058829930188
-0.081622070806
-0.090936252001
-0.096314483751
-0.1064081329
-0.11541672781
-0.11340065079
-0.078435336552
-0.044951539076
-0.036712761646
-0.072652575222
-0.1899005935
-0.59705015215
-0.95147708872
-0.30958937626
-0.11974396903
-0.059260670282
-0.033697162501
