# vtk DataFile Version 2.0
Vessel Segment
ASCII
DATASET POLYDATA
POINTS 85 float
0.0 0.0 0.0
-0.45358908017421623 0.10962682894150992 0.6021890456950597
-0.9633445696398232 0.22908260826666313 1.155614038254368
-1.5254261333776835 0.34959684557033666 1.6555869028984025
-2.1367108516878885 0.4619433635411234 2.0961332644159785
-2.7938272330802745 0.5563739660825698 2.4696953867506592
-3.4919058661393523 0.6219983607508268 2.7671985068795175
-4.22283491061489 0.6473263661114945 2.9795721879021557
-4.974055993318278 0.621695532173866 3.1018240844212475
-5.7301007026404 0.537018893892244 3.1366782115885976
-6.476263827088121 0.3895904063009651 3.095398350426307
-7.201688962177395 0.18016569880158856 2.994239185312959
-7.900425526370943 -0.08679355423866247 2.84968324308028
-8.57058300412402 -0.4044838041240678 2.6749612484597733
-9.212692066466731 -0.7648901878510638 2.4787672656919004
-9.828414665470257 -1.1595450415914883 2.2645809393300254
-10.419415637287456 -1.5792250721156196 2.029450411769201
-10.985843512125125 -2.0145555719052557 1.7640788456967307
-11.52331664888281 -2.4563132477306753 1.4533450008363686
-12.020793340828183 -2.8960289937228727 1.0800092789139872
-12.4589213998526 -3.327428490175389 0.6306924249912883
-12.812221406306914 -3.7474863354003 0.10304823861724631
-13.056650213221278 -4.156052557149969 -0.4909009857027932
-13.177390850937252 -4.555773300370695 -1.1273385014112816
-13.174139048837029 -4.951411625965821 -1.7778402414583367
-13.05801149977676 -5.348864038941026 -2.417000330277787
-12.844730775064082 -5.754406301043614 -3.025388709555488
-12.548815341903003 -6.174465588309368 -3.5876591806437386
-12.182738853582627 -6.615920435557827 -4.088841917554774
-11.757463704588933 -7.087162078452491 -4.509428991768945
-11.285010747386426 -7.598929395148729 -4.8158540185914065
-10.789725957521913 -8.160745623371538 -4.937047457131978
-10.36664271060908 -8.735491189789732 -4.71121809300638
-10.245449272068509 -9.10330677936637 -4.0747791352570495
-10.394768275204529 -9.197888796196297 -3.3374838409713314
-10.661424699667819 -9.144889469105621 -2.6265000239009826
-10.980098421407925 -9.011901578512846 -1.9473449323100611
-11.321753948057674 -8.830980250309699 -1.2906438586803646
-11.667947577239309 -8.6235960306027 -0.6440745640112722
-12.002345312327897 -8.411223791620905 0.006954962984200657
-12.305822807667939 -8.223271072268895 0.6800621352809615
-12.548815341903003 -8.111603755535006 1.3924822250306101
-12.682029632908078 -8.16838267167432 2.136883896589009
-12.670463023309017 -8.469515408604183 2.8316894574454357
-12.557585834308126 -8.960112123689171 3.4010663058063666
-12.403881584969545 -9.548844044240429 3.858775837433409
-12.239592755845761 -10.18747490407062 4.240427808895472
-12.076287398576678 -10.854079914207778 4.57157518392468
-11.916913044644716 -11.537468837712781 4.868926889765058
-11.759429206257494 -12.230458869148285 5.144278820509653
-11.598768551893869 -12.92798556107483 5.406022211821964
-11.427676174074364 -13.625664388310279 5.660657783820751
-11.236850909363753 -14.319032955466984 5.913025025574018
-11.015631749812174 -15.002648279384285 6.166980675315486
-10.752603500109043 -15.669252568501022 6.426077200661076
-10.436274536779118 -16.308639778753193 6.693641389834827
-10.056513801882218 -16.906671420698835 6.9737556604623405
-9.606666997949837 -17.444521651136878 7.270957394055081
-9.086810553146638 -17.900529574569568 7.589629673754345
-8.506092774578523 -18.254736624713924 7.931588750001477
-7.882204619303377 -18.49692089505667 8.294641999695195
-7.235106095645024 -18.630778336277576 8.673268569469334
-6.580749059405089 -18.672164187441805 9.061044167369799
-5.927829016864875 -18.64287489588632 9.452750768607384
-5.279392279304524 -18.564790547316967 9.845440841699668
-4.635022817940926 -18.458370096189135 10.238281608060014
-3.9929141161084245 -18.343164011227334 10.632376949953482
-3.3516068284742375 -18.238489150539554 11.030654210290695
-2.71154690616896 -18.16435166775659 11.437541896499495
-2.0767868444707087 -18.142486723479596 11.858402237453353
-1.457359282032153 -18.19674783630761 12.298306530285728
-0.8719463987354079 -18.351835723834732 12.759675240551049
-0.34889204810848135 -18.628034132553974 13.238357453683681
0.07996675263435418 -19.030552435009483 13.720797264742105
0.3947611141250188 -19.542258104459695 14.187722879394656
0.5981673740399566 -20.132124190133712 14.623900217669151
0.7091699099453743 -20.771035166397592 15.023394199967367
0.75153103135701 -21.43898560064096 15.387437230444473
0.7488924571251334 -22.123984562746806 15.721352062105872
0.72539458184892 -22.818872860696583 16.03347747637941
0.7085499225105786 -23.518448692660563 16.335396305823632
0.7375064631416164 -24.21422898299908 16.644338955702292
0.8858500157751226 -24.87547629317229 16.988384665048766
1.2849107999914455 -25.36938290883114 17.391113009765764
1.9178230328070878 -25.49658516257396 17.78012599136868
LINES 1 86
85 0 1 2 3 4 5 6 7 8 9 10 11 12 13 14 15 16 17 18 19 20 21 22 23 24 25 26 27 28 29 30 31 32 33 34 35 36 37 38 39 40 41 42 43 44 45 46 47 48 49 50 51 52 53 54 55 56 57 58 59 60 61 62 63 64 65 66 67 68 69 70 71 72 73 74 75 76 77 78 79 80 81 82 83 84
POINT_DATA 85
SCALARS MaximumInscribedSphereRadius float
LOOKUP_TABLE default
1.5499999523162842
1.439650058746338
1.329259991645813
1.2691600322723389
1.2538700103759766
1.2400000095367432
1.2400000095367432
1.2400000095367432
1.2400000095367432
1.2400000095367432
1.3043400049209595
1.437600016593933
1.5499999523162842
1.5499999523162842
1.5499999523162842
1.5499999523162842
1.5499999523162842
1.5499999523162842
1.5499999523162842
1.5493299961090088
1.478909969329834
1.4063199758529663
1.388800024986267
1.388800024986267
1.3583699464797974
1.2970999479293823
1.2400000095367432
1.2400000095367432
1.2400000095367432
1.3251999616622925
1.4844900369644165
1.8199700117111206
2.437030076980591
2.4924399852752686
2.3398499488830566
2.0310099124908447
1.9638999700546265
2.220750093460083
2.475670099258423
2.4800000190734863
2.4800000190734863
2.8663699626922607
3.4352500438690186
2.7431700229644775
2.142699956893921
1.9978300333023071
1.86627995967865
1.8600000143051147
1.8600000143051147
1.9460400342941284
2.1791999340057373
2.4142799377441406
2.306839942932129
2.0627501010894775
1.883829951286316
2.012589931488037
2.1451399326324463
1.9473199844360352
1.669100046157837
1.7116800546646118
1.9905500411987305
2.1270198822021484
2.005270004272461
1.888100028038025
1.8750499486923218
1.8652600049972534
1.8046499490737915
1.6832499504089355
1.560130000114441
2.014549970626831
2.5372700691223145
2.721869945526123
2.590480089187622
2.366219997406006
1.9427800178527832
1.5547300577163696
1.6820900440216064
1.8048800230026245
1.9904099702835083
2.231800079345703
2.471060037612915
2.2083799839019775
1.9002799987792969
2.1699299812316895
2.4800000190734863
FIELD FieldData 2
Curvature 1 85 float
0.10174191736
0.097520289868
0.097385899226
0.10136987048
0.10908645725
0.11982398931
0.13140283565
0.13872691903
0.13854204374
0.1299609151
0.11633201526
0.10122123419
0.08634876821
0.072831050459
0.060939961509
0.052779707607
0.055109490225
0.072330479501
0.099404490309
0.12857796049
0.15257141174
0.16847695052
0.17352279379
0.16715322786
0.15182114109
0.13498127089
0.12463106895
0.12476738536
0.14225722138
0.18909397816
0.28932490442
0.50977661335
0.83050258647
0.57120670745
0.29505284757
0.16253864825
0.088381479728
0.037793263326
0.037771068257
0.092707060019
0.17393746742
0.29402627985
0.40045318084
0.35146328636
0.23492527747
0.15039961369
0.096692901351
0.060706870088
0.035390529849
0.018926711787
0.01828782715
0.030774929793
0.046673435677
0.064260600732
0.083405541042
0.10404940091
0.12548429129
0.14548017785
0.15911355737
0.16041355539
0.14849181247
0.12576570827
0.097554128021
0.069346777105
0.042012422374
0.015087422729
0.014782546005
0.043394665413
0.0748533657
0.10939735543
0.14643987532
0.18267803883
0.2083894772
0.21053029562
0.18743378257
0.15114079136
0.11332698339
0.076817588913
0.041734769178
0.037330377473
0.094336815298
0.20520210455
0.42757072269
0.65619956073
0.47596699337
Torsion 1 85 float
0.095221712687
0.10238216337
0.1039861997
0.099570080896
0.091314274602
0.082913437284
0.079619128906
0.086970050306
0.10222590347
0.11979789604
0.12997165617
0.11606073105
0.084291282122
0.035974276953
-0.081761979544
-0.25202044243
-0.33296823855
-0.18714628838
-0.045919175645
0.051036102176
0.1064371529
0.12756555536
0.1383945901
0.14321531074
0.14821853091
0.15837508582
0.16900579757
0.17217432132
0.15623647256
0.12254460572
0.087330720673
0.059659183712
0.027656436296
-0.0029966561969
-0.018657932768
-0.038461405194
-0.096790825797
-0.45881529415
-0.49764482835
-0.13224982822
-0.089655477426
-0.092087071691
-0.10880802617
-0.1026034741
-0.083673145172
-0.070412501526
-0.061630967125
-0.02077749295
0.097327401642
0.54647933078
0.64195946355
0.21130390046
0.085902552727
0.051284354302
0.048282305355
0.05683054711
0.067574136312
0.071332407368
0.065325114478
0.052844132112
0.036587931984
0.018316364707
0.0070407331466
0.0029376633055
0.022858545653
0.35478493144
0.35090474318
-0.0011479785648
-0.030465173705
-0.037856440042
-0.035934597076
-0.02975025384
-0.018861475247
-0.0038794984959
0.01233569041
0.027482563924
0.048876960356
0.10164069061
0.34958960032
0.52730177145
0.13611655945
0.065990553828
0.045211122779
0.026872791196
0.0098810150257
