# vtk DataFile Version 2.0
Vessel Segment
ASCII
DATASET POLYDATA
POINTS 79 float
0.0 0.0 0.0
-0.6728429198197168 0.08680420252749986 0.46081172570547246
-1.3780769237591926 0.1780735238996619 0.8698184704067459
-2.1062010504751805 0.2580553717581583 1.239117717036757
-2.8530018570898092 0.3139212412849742 1.5739884657973895
-3.615554481675176 0.3313790351167578 1.8757293646772837
-4.390125601659286 0.29175362213004874 2.142228658718168
-5.1687568357784235 0.16897911604123098 2.3678038917837028
-5.933015436224836 -0.06893908082331032 2.542790706749125
-6.650339953608937 -0.4474132716211254 2.656471579367102
-7.287275295262137 -0.9601136121905304 2.7053540216061687
-7.83724536176909 -1.5679799924856077 2.697802193827267
-8.32185092056875 -2.2276513537848843 2.646077749132441
-8.772188279730189 -2.9077061452314372 2.5581375200102277
-9.217247413077333 -3.585648407332129 2.4346319920363313
-9.68049536214134 -4.2418288293751205 2.268414342141487
-10.176712088467339 -4.855216593187791 2.044706931943334
-10.706625516390048 -5.403318836827362 1.7436157442515554
-11.253022558556163 -5.867948293352152 1.3471958954401777
-11.78342385066065 -6.2443115035792855 0.8484624094462717
-12.260801275694083 -6.545322154961691 0.2541571046294678
-12.654786449922106 -6.795419919843723 -0.4196437326392339
-12.94483332180352 -7.022699579995123 -1.1519092841872118
-13.118277556689412 -7.251035504819455 -1.9198229940590155
-13.169433600893086 -7.497235002572795 -2.6999147231731286
-13.098465624583648 -7.771691903489806 -3.468963685252056
-12.910160891843251 -8.080010450560225 -4.204721724831499
-12.612236949395085 -8.42584265565908 -4.8853433679940235
-12.21224407624287 -8.814224361284957 -5.485901078213499
-11.717408857377654 -9.254006043205399 -5.96766308578222
-11.14413282195829 -9.75549944657051 -6.264044448150857
-10.549259116650335 -10.311966624958615 -6.276225564943528
-10.053205011718262 -10.86664651678871 -5.947282753185304
-9.756255248858473 -11.341506407766644 -5.354681101066776
-9.66782792994207 -11.698138996584976 -4.624445993780106
-9.745375103217214 -11.930858729557007 -3.8433785363024344
-9.934571930461434 -12.050060985692577 -3.0550039575243417
-10.189540593285354 -12.071741515053313 -2.275966944307979
-10.473417144848648 -12.01279048536744 -1.5087858050964336
-10.754939558137963 -11.890746226776109 -0.7480196926814859
-11.005117859329367 -11.726071931348384 0.015589970964401548
-11.194477307967514 -11.544751400283328 0.792677850616419
-11.29183641334842 -11.384867466488117 1.5907965484410582
-11.267800971326114 -11.302611242277424 2.405237013502767
-11.11092243576818 -11.365379228395026 3.2055487769826407
-10.848888260571957 -11.614096260203864 3.939356908610148
-10.536266441663214 -12.031953480672678 4.570283776951565
-10.217799545224205 -12.571449180635598 5.098574088485372
-9.914921070974415 -13.190334321950568 5.543016034923187
-9.633643364163582 -13.860018514790163 5.923943485606519
-9.371852346670659 -14.562337336646612 6.257311922442308
-9.123461332037264 -15.285646321327201 6.554197411132117
-8.878884950672825 -16.02171217997372 6.821516781630944
-8.62423998186158 -16.76339660778039 7.062617324297105
-8.339308714400534 -17.502052792915876 7.277384429767261
-7.994774382902729 -18.222958272113615 7.461839294603351
-7.551339914719667 -18.896410054176066 7.607545353204753
-6.973679296765015 -19.468004313346576 7.703727002254874
-6.266829145924947 -19.877416837145073 7.74831430372531
-5.483164392469996 -20.115612555162226 7.758529250426653
-4.670429128881743 -20.223346034289595 7.758180001623506
-3.8505485909994044 -20.246035058288793 7.76444866916557
-3.030911985207955 -20.219294148022712 7.787217600284228
-2.213548206993523 -20.165359213951874 7.832665246367293
-1.3987832735315515 -20.101843411418333 7.90460895104029
-0.5872661216225654 -20.037738977517847 8.006418074707852
0.21994698406050459 -19.979916133752337 8.14097527517422
1.0209324647437874 -19.930635559493496 8.311252652010296
1.8131646553020893 -19.8903033242339 8.520384151793316
2.5933868687251387 -19.858675786278006 8.771788695733685
3.357564158474588 -19.836386201077634 9.069193411302672
4.100515484378704 -19.826057516198993 9.416690549720297
4.815379772388978 -19.833341212274814 9.818762653551998
5.492501958031727 -19.867697111307617 10.280167947345301
6.117477270549236 -19.942986170369956 10.805518489990096
6.667979583326727 -20.077705798633353 11.397550773632984
7.110311565577573 -20.29317193410127 12.052318422316242
7.402033014323213 -20.60584878292814 12.75011835378974
7.511251659950185 -21.013776963013846 13.450976108935373
LINES 1 80
79 0 1 2 3 4 5 6 7 8 9 10 11 12 13 14 15 16 17 18 19 20 21 22 23 24 25 26 27 28 29 30 31 32 33 34 35 36 37 38 39 40 41 42 43 44 45 46 47 48 49 50 51 52 53 54 55 56 57 58 59 60 61 62 63 64 65 66 67 68 69 70 71 72 73 74 75 76 77 78
POINT_DATA 79
SCALARS MaximumInscribedSphereRadius float
LOOKUP_TABLE default
0.9796000123023987
0.9524350166320801
0.9605889916419983
1.2569899559020996
1.5434499979019165
1.5499999523162842
1.5499999523162842
1.409500002861023
1.2459399700164795
1.2400000095367432
1.2816699743270874
1.6050900220870972
1.8556499481201172
1.8316800594329834
1.7859100103378296
1.5459400415420532
1.3415900468826294
1.7952500581741333
2.1279399394989014
1.6564799547195435
1.4369399547576904
1.8835200071334839
2.0612099170684814
1.7517399787902832
1.600890040397644
1.750499963760376
1.9385700225830078
2.2392001152038574
2.409670114517212
2.0775198936462402
1.8659299612045288
1.8820799589157104
1.9410400390625
1.897879958152771
1.6570199728012085
1.761989951133728
2.019629955291748
1.8764599561691284
1.6216800212860107
1.6568900346755981
1.8083000183105469
1.8600000143051147
1.8600000143051147
1.9969799518585205
2.150700092315674
1.7902100086212158
1.5499999523162842
1.5499999523162842
1.5084999799728394
1.3700200319290161
1.25518000125885
1.6529699563980103
2.0573599338531494
1.9668099880218506
1.6735899448394775
1.6457300186157227
1.8168599605560303
1.7204400300979614
1.5766500234603882
1.923490047454834
2.158910036087036
2.113990068435669
2.0450000762939453
1.8212499618530273
1.5987299680709839
1.3111599683761597
1.014870047569275
1.032420039176941
1.1770399808883667
1.4068900346755981
1.7035800218582153
1.7150800228118896
1.407639980316162
1.3628300428390503
1.6336100101470947
1.6908899545669556
1.575260043144226
1.6888500452041626
1.8600000143051147
FIELD FieldData 2
Curvature 1 79 float
0.18718808446
0.11132879145
0.073191463801
0.058124478109
0.063704371081
0.085292498954
0.11858222066
0.16033204967
0.1996256815
0.2094978951
0.17657258694
0.12218554382
0.071470007128
0.043772810475
0.062472061122
0.099538283293
0.13446122447
0.15862025084
0.16707040989
0.16192032791
0.15425988785
0.14884948582
0.14943274716
0.15174810413
0.15290219248
0.15336300273
0.15480388741
0.16704524928
0.20224126574
0.27007831824
0.36997579191
0.44804669922
0.42391170923
0.3456343045
0.26887230976
0.20189359704
0.14898900306
0.10749331102
0.076953733927
0.066258497874
0.085915772994
0.12859397563
0.18598954007
0.24592535951
0.27835087837
0.25903896229
0.2085519323
0.15670810617
0.11276157226
0.078515321155
0.053581204821
0.040443305607
0.04624513001
0.070238030889
0.10884623152
0.16241884262
0.22539607075
0.26731765033
0.24265161836
0.18001364453
0.12376876974
0.071268308052
0.052654974659
0.033999972143
0.036440936687
0.041746474099
0.046754796759
0.050705731178
0.055284061979
0.061116608549
0.068752237333
0.079248764822
0.094150966953
0.11532278706
0.14481083238
0.18295772996
0.22506104439
0.25546704267
0.25605612163
Torsion 1 79 float
0.08205630834
0.11755151485
0.18472122556
0.24692908259
0.20974674912
0.13988066956
0.095767002597
0.068671230606
0.044614511377
0.014775638036
-0.030492499521
-0.11401248926
-0.35932668303
-0.88322263598
-0.31290361711
-0.019952326853
0.093755116902
0.15528076055
0.21991659451
0.26484442567
0.28997539954
0.26931829942
0.21112349213
0.15021224903
0.11258531658
0.092940892657
0.093778163026
0.10305062735
0.10747334123
0.10770277
0.1048266744
0.094545256378
0.063228417151
0.01005344284
-0.059146687163
-0.10691737561
-0.15637337642
-0.2582283268
-0.470491041
-0.65732815391
-0.47248451448
-0.30855168204
-0.24371861045
-0.21341696074
-0.17987733926
-0.14029843368
-0.10762735194
-0.079345289851
-0.048993934405
-0.0063396664248
0.10115893691
0.31645045131
0.33731531503
0.19450431332
0.11269602262
0.078060108894
0.067897226307
0.070348695135
0.084326096754
0.10204235919
0.13274589631
0.22119365229
0.45867761115
-0.17653748726
0.65720039224
0.0046948150484
0.010133528609
-0.031091963366
-0.021960397285
0.0051534504215
0.041144341155
0.073046901583
0.088698979934
0.089403380992
0.076577652832
0.058427479665
0.040606749824
0.02838628211
0.01950360597
