# vtk DataFile Version 2.0
Vessel Segment
ASCII
DATASET POLYDATA
POINTS 109 float
0.0 0.0 0.0
-0.44366050646907146 0.3486059174711778 0.1781190703693172
-0.8979194418765365 0.6224742874892493 0.44103911656391503
-1.353563283813012 0.8215419032362645 0.7627189295884137
-1.8070293122631587 0.9475266357286489 1.1223318629283043
-2.2576544199850903 0.999897999172894 1.5031890592584447
-2.7056169405008803 0.9739786890407034 1.8897856603970762
-3.149969900234457 0.8604795604797897 2.2642521959552053
-3.5860382520438794 0.648273956144606 2.603508019142501
-4.002755723668606 0.33103216469473606 2.878439618133945
-4.385092072408094 -0.0809521320893997 3.0626547603558993
-4.723579255541391 -0.5588566252226237 3.147631812316898
-5.02164793598205 -1.0705519347091625 3.14419945636358
-5.2903672077235555 -1.593195568019175 3.0693422674336395
-5.541273443734952 -2.1132928695203463 2.9366688991703374
-5.7827708934172275 -2.622739822196951 2.7541106785332135
-6.018409296814178 -3.1156762510704867 2.524804243863035
-6.246592681772567 -3.5873684169537725 2.2481559025483437
-6.460395386954164 -4.03337829827218 1.9219184264723823
-6.646740373202396 -4.449503770325215 1.5437249460415614
-6.7863958374628135 -4.83260932346529 1.1141657677878063
-6.85592785198047 -5.181156548891228 0.6406394754907941
-6.835216332170084 -5.496859931539924 0.14024689948551977
-6.7187577700973 -5.785993876786086 -0.36322249412210394
-6.517973412027036 -6.058736939706013 -0.8491170062601083
-6.251799343401194 -6.3260351867368225 -1.3059566986183335
-5.938640035174984 -6.5969429945498455 -1.7298340354156592
-5.592223782468501 -6.87891651027682 -2.119212865237266
-5.221663653998315 -7.178406215428176 -2.4715468562743133
-4.83317310570754 -7.502513847477859 -2.7799724253133427
-4.4325513631430855 -7.860647064061814 -3.0289835854794185
-4.030449903822696 -8.265825340984554 -3.183966703092698
-3.6643870533189657 -8.72639197821547 -3.1681085639463267
-3.4438974054062164 -9.186722718572252 -2.884890099644373
-3.4433054058345247 -9.531482049693905 -2.4087012201412192
-3.591955426027855 -9.758303101986836 -1.8832776155345865
-3.82469478099794 -9.909142786944862 -1.360042546999471
-4.109449961061301 -10.011340310717689 -0.8505967230160437
-4.430479646815458 -10.07939260847941 -0.35718737170106135
-4.779796076641984 -10.12016552082984 0.11983109728768562
-5.153788561065489 -10.134071020778828 0.5793333768520524
-5.551806408469041 -10.113359500968443 1.0178272903003043
-5.974205157203608 -10.040040720839677 1.4265564359600176
-6.41636845217249 -9.887129883900613 1.7890689820733623
-6.860780103951306 -9.631725805576172 2.0842978704789843
-7.280397752696076 -9.278208944088918 2.30626667080108
-7.65817700273069 -8.858414090515252 2.485156638610751
-7.986248605220377 -8.402995422867724 2.6745197504160934
-8.238101814807845 -7.949765291291712 2.956434574097829
-8.318285306843245 -7.621516483973129 3.430552301619944
-8.180050867293525 -7.554529672571135 3.996748818577006
-7.930564527299648 -7.659271270766448 4.52246814079619
-7.630127848572221 -7.847154665815855 4.997001227407691
-7.2972626861569365 -8.080663225186527 5.427980301678964
-6.937709573555463 -8.34245796428298 5.819547667572088
-6.552118638038142 -8.623011583992437 6.171290223384033
-6.139247188416352 -8.917116293993091 6.478058870838232
-5.697556815888917 -9.222642250258668 6.727958876881728
-5.2279358019866695 -9.539825349663298 6.8995693380419665
-4.7413313418399055 -9.870797693619618 6.958923361829915
-4.271533123108763 -10.217213946326101 6.867910623101285
-3.8757636325151448 -10.578365288467166 6.619548461512374
-3.5979916771420752 -10.956144538501778 6.259581118514693
-3.446441479828702 -11.358483023389482 5.853160150403331
-3.40939776973732 -11.793721785713311 5.453839791072738
-3.467330768814572 -12.265473772335014 5.1011513903779
-3.5976953951829347 -12.771665573887196 4.8233788706582414
-3.776584798646017 -13.3054336071564 4.6405836244538055
-3.9790260783011107 -13.85653949632791 4.5656666147854486
-4.1798696927632015 -14.411906766591743 4.604131349587527
-4.355326175926377 -14.957272686608174 4.752722677735618
-4.484862905848914 -15.478317526032006 5.001734966594871
-4.553210921223187 -15.961608143009109 5.336552768207538
-4.55072553884594 -16.395960316841872 5.738712919573167
-4.472435993962682 -16.77314869599797 6.18821497758331
-4.317335492258924 -17.088455907341302 6.664699574699015
-4.087850724066673 -17.340427629712426 7.148877908860361
-3.7896629664957686 -17.52976139549515 7.624180199872448
-3.43235764635764 -17.65849280283541 8.078592637552077
-3.0283041121864565 -17.729752846608093 8.50590289464931
-2.589868890783444 -17.748357660602345 8.903920742052861
-2.126461332824312 -17.721840707432573 9.272232513713115
-1.6444726634276614 -17.660404244731808 9.611488336900411
-1.1478081609882564 -17.57575282075257 9.923582723113482
-0.6390124642751718 -17.480331406471933 10.212243745918197
-0.12037004828002672 -17.38611148607893 10.483281917793242
0.4052846562547354 -17.303170596610464 10.744295036864154
0.9346733599945498 -17.23903542852187 11.003036660914988
1.4647782195556007 -17.19867166744835 11.265044158675433
1.993527800783555 -17.184865492498997 11.532466844129083
2.519774222716715 -17.19899108761763 11.80475927629782
3.043079693488788 -17.241508959620752 12.079768190771937
3.5633021388460344 -17.312460870155927 12.354741269237659
4.080068596236556 -17.412131249903933 12.627311924274697
4.592038901234337 -17.54183897684289 12.896249315972788
5.096135812977088 -17.70482170735296 13.161866938862035
5.586394434922414 -17.907203730616224 13.4261589116141
6.051766553900617 -18.15904508892533 13.692634341318383
6.471389705024628 -18.475080589541555 13.965814631758013
6.806231350280674 -18.8718853739524 14.248829931287984
6.996659807359097 -19.351039612606606 14.536105906477042
7.000802111321174 -19.874629090799512 14.80855818981707
6.842890881431703 -20.390437076052212 15.05088995538762
6.578492388260996 -20.875520763228703 15.26406574205234
6.249911604061528 -21.329744144801072 15.455825633820481
5.88219169088632 -21.75919045373706 15.633547227832947
5.49016826240609 -22.170114695997384 15.803106677131037
5.083531907891932 -22.567969941040026 15.969502558174574
4.669816319224054 -22.957663039163815 16.137789476664825
LINES 1 110
109 0 1 2 3 4 5 6 7 8 9 10 11 12 13 14 15 16 17 18 19 20 21 22 23 24 25 26 27 28 29 30 31 32 33 34 35 36 37 38 39 40 41 42 43 44 45 46 47 48 49 50 51 52 53 54 55 56 57 58 59 60 61 62 63 64 65 66 67 68 69 70 71 72 73 74 75 76 77 78 79 80 81 82 83 84 85 86 87 88 89 90 91 92 93 94 95 96 97 98 99 100 101 102 103 104 105 106 107 108
POINT_DATA 109
SCALARS MaximumInscribedSphereRadius float
LOOKUP_TABLE default
0.9796000123023987
0.957368016242981
0.9353349804878235
1.0450400114059448
1.1968499422073364
1.2042900323867798
1.0471899509429932
1.0119800567626953
1.3159199953079224
1.4302500486373901
0.9576550126075745
0.7410190105438232
1.1784499883651733
1.5344899892807007
1.3994499444961548
1.2663099765777588
1.252869963645935
1.2691800594329834
1.3898199796676636
1.613669991493225
1.596250057220459
1.182770013809204
1.052690029144287
1.3580399751663208
1.5499999523162842
1.5499999523162842
1.568310022354126
1.824120044708252
2.079010009765625
2.2606499195098877
2.4091999530792236
2.273279905319214
1.698449969291687
1.7143299579620361
1.808859944343567
1.6405800580978394
1.6090500354766846
1.7486000061035156
1.883739948272705
2.0187299251556396
2.157259941101074
2.0372300148010254
1.882159948348999
2.002729892730713
2.1678600311279297
2.1700000762939453
2.1960599422454834
2.368809938430786
2.4800000190734863
2.4627299308776855
2.1828999519348145
2.012190103530884
1.9079300165176392
1.7933399677276611
1.6653200387954712
1.5609699487686157
1.697890043258667
1.8402600288391113
2.08201003074646
2.3855700492858887
2.4986000061035156
2.4986000061035156
1.95687997341156
1.32437002658844
1.3282300233840942
1.3816900253295898
1.453909993171692
1.5281800031661987
1.7496800422668457
2.033050060272217
2.0292999744415283
1.7551000118255615
1.5754899978637695
1.5605599880218506
1.6426600217819214
1.950909972190857
2.1237499713897705
1.9669300317764282
1.910140037536621
2.066699981689453
2.1387200355529785
2.0464301109313965
1.9218800067901611
1.7272100448608398
1.6833100318908691
2.1065900325775146
2.448740005493164
2.1629199981689453
1.8802800178527832
1.9893200397491455
2.1266300678253174
2.3588099479675293
2.632539987564087
2.7005999088287354
2.392590045928955
2.082740068435669
2.4433200359344482
2.832429885864258
2.9099299907684326
2.8679099082946777
2.559540033340454
2.180989980697632
2.0170700550079346
1.8733999729156494
2.2189700603485107
2.598249912261963
2.849410057067871
2.972870111465454
3.0999999046325684
FIELD FieldData 2
Curvature 1 109 float
0.22493312791
0.19198324635
0.16042817077
0.13817302007
0.12886892059
0.13408642188
0.15316329297
0.18270443584
0.2145678782
0.23271699346
0.21945109937
0.18063125471
0.13847815759
0.10595184103
0.087742429909
0.083729426237
0.089674201779
0.10152565421
0.11724879729
0.13566821012
0.15508437053
0.17066171217
0.17188693862
0.15668436168
0.13329726332
0.10761748864
0.087217228175
0.079630653402
0.092823658401
0.13234293346
0.20867474281
0.34959137453
0.56255530356
0.57581835923
0.36315484204
0.21922018056
0.13809445485
0.092291265282
0.070786566435
0.071966110441
0.092202763125
0.12621422408
0.17111695899
0.2134375621
0.21983054502
0.15275930698
0.10982221961
0.23646842971
0.54146147257
0.67163866191
0.40515175842
0.23528784212
0.15081826843
0.10633852114
0.087399409722
0.091268640376
0.11475991547
0.15499754309
0.21066513065
0.27253065574
0.30484580617
0.28180089363
0.23624982695
0.20711726098
0.19274375802
0.18759893539
0.18701277358
0.18949197825
0.19239108475
0.19215183565
0.19178967134
0.19025202518
0.18568380895
0.18025693461
0.17334280966
0.165943799
0.15803913208
0.14749363549
0.1332080012
0.11733506427
0.10088179026
0.08382315871
0.06673331239
0.05006443661
0.036480126882
0.030282189771
0.034362018349
0.042288670344
0.04784109742
0.050573270729
0.051237549464
0.050788350896
0.050400151533
0.051651400035
0.057692829462
0.072858950435
0.10114485466
0.14645552285
0.21286445408
0.2926965749
0.33598893138
0.29456759216
0.2144935365
0.14547240281
0.095009475829
0.058145409409
0.033207906059
0.034114009797
0.065131606511
Torsion 1 109 float
0.056229967168
0.076213962998
0.10150282565
0.13118174093
0.15414707629
0.15452100362
0.13417299941
0.10818736277
0.086616339647
0.073270948458
0.075032210437
0.095431989012
0.13083367133
0.16720349654
0.15302502991
0.061691135089
-0.038720356104
-0.10650848035
-0.15593899664
-0.19029110832
-0.20561006011
-0.20063517337
-0.18667469701
-0.17348952417
-0.16707123132
-0.17961053008
-0.20533919016
-0.20264051262
-0.13738491985
-0.075522786827
-0.043378514751
-0.03340312196
-0.045003183824
-0.056321081979
-0.051441861804
-0.045934722964
-0.045042885404
-0.036323527663
-0.0078868694486
0.049322482827
0.086824443529
0.088160723387
0.079742772471
0.081833222797
0.12431862157
0.38436582435
0.9514820952
0.31765334376
0.099453525426
0.018031049541
-0.023316731904
-0.045549252693
-0.069878092148
-0.10093600909
-0.11137952597
-0.060833953708
0.0016510459586
0.049848210336
0.089712519532
0.13974057531
0.21035283297
0.28417257133
0.339032272
0.32768345817
0.28313256453
0.2367294119
0.20288968216
0.18082314919
0.16249081369
0.14769611929
0.12938960887
0.10368375664
0.094032975829
0.089468051847
0.08854591216
0.083006821537
0.060679551912
0.014120591597
-0.02314093527
-0.020216738734
0.035374769693
0.095707053228
0.17905175704
0.31157767705
0.51348385268
0.65143050558
0.41556866087
0.16189120809
0.022896574589
-0.037811532773
-0.072459535789
-0.075629139033
-0.04524372973
0.018420456725
0.08330601914
0.1094702256
0.098533695881
0.080199051669
0.065822793988
0.05482058376
0.042844574223
0.030072706553
0.022301122298
0.021928558686
0.030753327842
0.063111189158
0.17938955933
0.18582117291
0.066808000063
