# vtk DataFile Version 2.0
Vessel Segment
ASCII
DATASET POLYDATA
POINTS 78 float
0.0 0.0 0.0
-0.7089878571106416 -0.3450632920709592 0.2608121563572319
-1.427396851197728 -0.6028007743658004 0.5889425755665698
-2.139538940749563 -0.7939688716826399 0.9721068106403262
-2.8367972804599875 -0.9414740641114203 1.3996812452249265
-3.5158110235906186 -1.0670654750275594 1.8623674443211842
-4.1769530258271885 -1.190000190229645 2.3510347975697754
-4.823252838569484 -1.3277937190648599 2.8552259300056684
-5.459924108412485 -1.4960505865377982 3.362404657681382
-6.093938682541433 -1.708717653521581 3.85588667819245
-6.734096271789885 -1.9762522949812384 4.313177948417649
-7.3898591776685905 -2.3045489555791194 4.703481063690849
-8.06820003898845 -2.6930265820809827 4.982636769835341
-8.765384757512521 -3.1284032791678804 5.092124139955596
-9.452938558260318 -3.5754833700082242 4.976328304952953
-10.078736058041269 -3.987866508182609 4.623793649905464
-10.594131860064978 -4.339405298150158 4.078016046686983
-10.971984286961948 -4.636242755030375 3.4017500362212747
-11.200257462201645 -4.902781531410093 2.6496154141527177
-11.27546189987598 -5.168987825012724 1.866933541126506
-11.206897618235459 -5.461673996933318 1.0929658833626001
-11.022535918340976 -5.79744043725641 0.3560225577042591
-10.760978050612279 -6.1817683620499695 -0.3326126036947283
-10.458912697875206 -6.613574827411486 -0.9752590640173704
-10.146055904144696 -7.090456457838019 -1.5798061645885348
-9.846148522956046 -7.611662792204145 -2.1533912023563455
-9.58118666489051 -8.179769780406625 -2.699003355811943
-9.376820584574654 -8.800834941993713 -3.211493891664444
-9.27480378580527 -9.485817542598706 -3.668702041195371
-9.361049818181517 -10.239114271135747 -3.9955041125476822
-9.759155195957014 -10.948168624801806 -3.987868091433928
-10.34195475640408 -11.360718004364733 -3.5807967614363307
-10.903253763932884 -11.531050514317483 -2.994843364360901
-11.403459852797697 -11.576705149365424 -2.333436959153981
-11.837508202027568 -11.556284373847031 -1.6252945582479308
-12.199589862531399 -11.503408529531038 -0.8793029512988776
-12.477665791276019 -11.445303206106868 -0.0986128084325461
-12.652398156645548 -11.41168444758946 0.7126245853914405
-12.698301362150643 -11.441568316244261 1.540710939757117
-12.596368475701189 -11.582349440319296 2.351451192666793
-12.35854987825647 -11.87246124559445 3.090470160804946
-12.036229991389549 -12.316637653514904 3.712200287946206
-11.691497598844357 -12.885906748185867 4.208172762782784
-11.365775304891917 -13.541336379661827 4.600883211687223
-11.076740110513997 -14.251636752116301 4.9209620063114485
-10.827883084870006 -14.995553508211202 5.195303045193463
-10.615714742051853 -15.759393107284524 5.445323760557258
-10.432847631402941 -16.53335918179711 5.6871258183217375
-10.269072948415392 -17.31039676386945 5.932829007337365
-10.111275039158805 -18.08511013300482 6.189489878734975
-9.943432983531565 -18.853431916563533 6.4589339212859
-9.747367889883636 -19.61131136604475 6.738172748124663
-9.504071242873588 -20.35346912992373 7.0223085712945155
-9.195780545948399 -21.07104770869376 7.306029582618669
-8.80854893823495 -21.75080003856492 7.5857671336230625
-8.337146148999407 -22.376265055568783 7.862681747524859
-7.786388428755566 -22.93119820535487 8.143331251289261
-7.168975036336812 -23.403513738976084 8.43626678529267
-6.502005877618971 -23.787508389366895 8.749197991835194
-5.802912549629292 -24.083614384137523 9.086625262792401
-5.086968677846605 -24.297360041082687 9.450142140617322
-4.3660446890385565 -24.438075064415134 9.838884961715195
-3.648507274802833 -24.51727305563639 10.250613029656153
-2.939195642797362 -24.547288729963537 10.682818870163002
-2.2409580621458516 -24.540141735601082 11.133709846929285
-1.5553868878628485 -24.507145986477884 11.602580621492182
-0.8836612463685203 -24.45861953144286 12.089804049537426
-0.22678610643789401 -24.403867534313303 12.596235482590355
0.41457475381334685 -24.351896320219964 13.122456369698039
1.040405106059178 -24.313363941232616 13.668150654315834
1.6518999092329611 -24.30449041130629 14.23102776759731
2.2512838293449526 -24.35417066074037 14.804388577397003
2.837311837138812 -24.510939456639306 15.37126666571596
3.3925686628665206 -24.837982578005008 15.89259817588953
3.874583540406968 -25.36803829771484 16.307727661383932
4.250072544158511 -26.05414896488495 16.5826658333964
4.526908273800231 -26.821662201785454 16.736141738672185
4.7301823250722155 -27.624473736178267 16.802486688498792
LINES 1 79
78 0 1 2 3 4 5 6 7 8 9 10 11 12 13 14 15 16 17 18 19 20 21 22 23 24 25 26 27 28 29 30 31 32 33 34 35 36 37 38 39 40 41 42 43 44 45 46 47 48 49 50 51 52 53 54 55 56 57 58 59 60 61 62 63 64 65 66 67 68 69 70 71 72 73 74 75 76 77
POINT_DATA 78
SCALARS MaximumInscribedSphereRadius float
LOOKUP_TABLE default
0.9300000071525574
0.9300000071525574
0.9300000071525574
0.9300000071525574
0.9607380032539368
1.116129994392395
1.2105499505996704
1.0579299926757812
0.9556310176849365
1.1121100187301636
1.2400000095367432
1.2400000095367432
1.275979995727539
1.368880033493042
1.3499499559402466
1.3589799404144287
1.5147099494934082
1.2636899948120117
1.0813599824905396
1.5220600366592407
1.667799949645996
1.6664700508117676
1.617110013961792
1.538949966430664
1.361899971961975
1.3355000019073486
1.6575599908828735
1.8600000143051147
1.8600000143051147
1.5069500207901
1.1046600341796875
1.004729986190796
1.223230004310608
1.2625800371170044
1.2435499429702759
1.1897200345993042
1.1266000270843506
1.0327999591827393
0.9362630248069763
1.1217700242996216
1.2400000095367432
1.2400000095367432
1.2400000095367432
1.2400000095367432
1.6956599950790405
2.1598498821258545
2.1820600032806396
2.194240093231201
2.183120012283325
2.1706199645996094
2.0213699340820312
1.8582600355148315
1.5344699621200562
1.279099941253662
1.6276700496673584
1.836959958076477
1.6564099788665771
1.5499999523162842
1.5499999523162842
1.4773600101470947
1.3368799686431885
1.356510043144226
1.4944700002670288
1.643180012702942
1.7997699975967407
2.152740001678467
2.6326498985290527
2.568779945373535
2.234489917755127
2.1700000762939453
2.179539918899536
2.3677101135253906
2.4644899368286133
2.4275999069213867
2.2246201038360596
2.048099994659424
1.9461699724197388
1.8600000143051147
FIELD FieldData 2
Curvature 1 78 float
0.15877939679
0.13382863745
0.10575295525
0.079826113921
0.057849789912
0.040554071794
0.032101603922
0.039341603709
0.058947605224
0.08604133943
0.12020597455
0.16626217117
0.22402914291
0.28084240027
0.30394786829
0.28104278801
0.23819120461
0.20511073534
0.18874416447
0.17952274002
0.1627078958
0.13679771386
0.107354881
0.081494649339
0.068172065095
0.078414992679
0.11595257114
0.18796109626
0.32946673325
0.60869162781
0.72707776405
0.4120418609
0.22684337766
0.14065271183
0.10631968258
0.10989901079
0.13994556997
0.18599501743
0.2342406875
0.26489001359
0.26001464966
0.2239024315
0.17357375069
0.12696462589
0.089699983875
0.060802496634
0.038871099254
0.024754913495
0.020740801719
0.027216535016
0.042326757737
0.062733688157
0.085160019123
0.10626283805
0.12132981922
0.12859896393
0.12946777176
0.12513757634
0.11743008505
0.10683635633
0.093864748243
0.079413578576
0.064833508835
0.051642291923
0.041395648224
0.035903289813
0.035682159664
0.039184246921
0.045955084686
0.058632482447
0.086021612662
0.13882508436
0.21905200211
0.30157756124
0.32088347288
0.27568441288
0.22019769399
0.17631922491
Torsion 1 78 float
0.061612696365
0.089206433843
0.13135795884
0.19406647721
0.29722202946
0.50043925352
0.75159126784
0.55789800383
0.32785272807
0.23234800588
0.18464283634
0.14451303012
0.11673937884
0.079122781282
0.018506041452
-0.067821299915
-0.16011374252
-0.23634726646
-0.267033934
-0.24364323557
-0.21362473217
-0.20462815417
-0.23432489372
-0.31653340907
-0.37716199162
-0.24325488113
-0.088794997511
-0.020076475279
0.021570430678
0.060435742822
0.083140063876
0.09466344928
0.13114227165
0.21091735041
0.30196906947
0.28775930136
0.21838483821
0.17931303225
0.17990078336
0.19961974666
0.21329273218
0.20029707109
0.17955347901
0.17295135861
0.1891381212
0.23830173355
0.36448117067
0.61720293575
0.70481823455
0.49418092491
0.2719701148
0.12627901752
0.041231233758
-0.021260766675
-0.092946069651
-0.12964832131
-0.13673717523
-0.12542901071
-0.10803299282
-0.09146580714
-0.078915704306
-0.076055061125
-0.091556115948
-0.13701824541
-0.21358785572
-0.27150337751
-0.25138671398
-0.21578128613
-0.21289785024
-0.24360095748
-0.21694849787
-0.13432756732
-0.070428668701
-0.028946277864
-0.011094520427
-0.0049618832152
-0.0026585986212
-0.0015993340456
