# vtk DataFile Version 2.0
Vessel Segment
ASCII
DATASET POLYDATA
POINTS 91 float
0.0 0.0 0.0
-0.5586094222730117 0.40663402255034675 0.16786508701092093
-1.148786742760542 0.7443415679059876 0.3753489908072845
-1.7633983384491034 1.004155768921759 0.620544383181557
-2.393900968409118 1.1754812557668284 0.9004852071330401
-3.029345679720433 1.2470909234907765 1.2107210301774887
-3.655822176903387 1.208390749245968 1.5437693606532856
-4.257298665942398 1.0533071857952778 1.8887506152749447
-4.817744699805079 0.7837475613462394 2.2324616647414453
-5.326073259793543 0.41214183684455935 2.562049595383094
-5.78122292314823 -0.040537459326076775 2.867483423328773
-6.191670255130447 -0.5522550290392264 3.141986476112309
-6.5709739886053296 -1.1046501443309835 3.3803311119445505
-6.934883051117004 -1.6838812058647554 3.575173578433214
-7.298437857047761 -2.278859847959456 3.714719690701771
-7.673363895131058 -2.8794190414410297 3.779549991993151
-8.06128293313658 -3.4734103448520286 3.740002565317171
-8.440586666611463 -4.046073516315226 3.5609076793894365
-8.757816026416867 -4.580389423131336 3.2191753482399323
-8.9448190506966 -5.060469051503701 2.732315006451801
-8.963039692407975 -5.479391601764027 2.1602175679315168
-8.82596394732347 -5.8440765265974095 1.566367697756246
-8.573494845683179 -6.169425501116807 0.9870652461130115
-8.240730728662035 -6.4703415474183705 0.4354473401261603
-7.851681571753886 -6.758756242664765 -0.08537987695107832
-7.422024912393395 -7.044557790508182 -0.5748520191589893
-6.961224654525569 -7.336362842462459 -1.0314160148709581
-6.474577136082629 -7.643492522253678 -1.4492784893549209
-5.964272551743563 -7.978022534246627 -1.8144577570217542
-5.43270987858296 -8.35782061055496 -2.093551328542066
-4.8972638528642225 -8.807109550017712 -2.2044255564705377
-4.45461284659831 -9.308445920228417 -1.9952471478118314
-4.250094999802645 -9.73231189882324 -1.4718768264578812
-4.255532770970592 -10.022562532167704 -0.8254151395749437
-4.396421825486968 -10.201021642026262 -0.15268189240970687
-4.633141999583132 -10.281670240496435 0.5122833026560621
-4.944014945679956 -10.263732465256515 1.1508355042038036
-5.31103015144486 -10.138310145304409 1.7460269696436954
-5.71024903149346 -9.896434393020156 2.28140160525297
-6.109750778013517 -9.537963775168027 2.7467223387313062
-6.475071478916078 -9.078081486349236 3.146718428084813
-6.776410477941629 -8.545247934541877 3.5079429530840485
-6.984388724571442 -7.974986434119663 3.8774298730162013
-7.049712021713074 -7.431700966191995 4.326860245714682
-6.890745105704249 -7.094486416686607 4.918874177791882
-6.550777322543353 -7.154161813281496 5.530167480373622
-6.1824905646400925 -7.491163539441693 6.032986879084676
-5.837013620201787 -7.965875439772377 6.432628711857264
-5.5211272026442 -8.520319316507395 6.74569050564988
-5.234971398219864 -9.128151545763389 6.978032984354459
-4.9777003014808034 -9.773342353999569 7.129302564881681
-4.747759493817208 -10.44247376809493 7.198510561564646
-4.541335665797207 -11.12290435074177 7.189188764346965
-4.351718147131299 -11.804182185819782 7.113907220426875
-4.168811298754893 -12.481505278230197 6.996464428936229
-3.9801124226296194 -13.155537690689336 6.869489037357508
-3.7729113853047123 -13.828715442309718 6.770690513793824
-3.536191211208548 -14.498249267635305 6.737004484501377
-3.262676844091912 -15.151695735888417 6.794277536563683
-2.9485563215061306 -15.770163744471166 6.9487253239451965
-2.5919209682604736 -16.33603340617822 7.1891180477291
-2.1905132405160805 -16.8369673651587 7.49441111593065
-1.7405171348746868 -17.26446969326783 7.840876746035856
-1.2386870953221307 -17.610666600225155 8.206338880174146
-0.6843146086965746 -17.86652538508173 8.570105835958493
-0.08220234358838635 -18.023162188531934 8.913463975827273
0.5547967863327405 -18.07731411215294 9.223912622216911
1.2086736157174243 -18.03593041063309 9.49961583702934
1.8638219972404637 -17.91449802328461 9.747918046148442
2.5107079838305855 -17.732444993882464 9.980967017540062
3.1457506206574735 -17.509403602528906 10.211049258439386
3.7699385933880265 -17.263495150924506 10.447642816114994
4.38669761703906 -17.010609326357514 10.696086458469821
5.0005963218703915 -16.764100962111566 10.957651064150628
5.616098273452442 -16.53493669026128 11.230910851442955
6.236451721765766 -16.331972588583827 11.513697177398969
6.862857502330856 -16.162567563032464 11.805036173166942
7.494037328093369 -16.03321878705991 12.106367763784906
8.125923141424225 -15.950161782632764 12.422077389797831
8.751206043121373 -15.920155037944044 12.759524630650573
9.358153641162467 -15.951482499657825 13.128552902804008
9.92845543006258 -16.05504058834956 13.539911468919273
10.433472637064682 -16.244325402165707 14.002166468640302
10.832080660233258 -16.531292427220684 14.514456169466552
11.080510159264513 -16.91534932765343 15.056540801873728
11.157507928151004 -17.375485522804933 15.590998478671366
11.075976298008477 -17.880444772697974 16.08335190212499
10.867645225967394 -18.404478651649548 16.51545889229447
10.563982512553409 -18.932142566131695 16.882248730933156
10.188945579869063 -19.45510870833997 17.184371884645724
9.759642272085154 -19.968746565712276 17.424065019031474
LINES 1 92
91 0 1 2 3 4 5 6 7 8 9 10 11 12 13 14 15 16 17 18 19 20 21 22 23 24 25 26 27 28 29 30 31 32 33 34 35 36 37 38 39 40 41 42 43 44 45 46 47 48 49 50 51 52 53 54 55 56 57 58 59 60 61 62 63 64 65 66 67 68 69 70 71 72 73 74 75 76 77 78 79 80 81 82 83 84 85 86 87 88 89 90
POINT_DATA 91
SCALARS MaximumInscribedSphereRadius float
LOOKUP_TABLE default
0.9300000071525574
1.071810007095337
1.217360019683838
1.2400000095367432
1.2400000095367432
1.1115599870681763
0.9503369927406311
0.9300000071525574
0.9301300048828125
0.9549139738082886
0.981872022151947
1.109660029411316
1.2363300323486328
1.093000054359436
0.9378160238265991
0.9300000071525574
0.9300000071525574
0.9300000071525574
0.9300000071525574
0.9300000071525574
0.9300000071525574
0.9300000071525574
0.9300000071525574
0.9503350257873535
1.0889899730682373
1.2233599424362183
1.2400000095367432
1.2400000095367432
1.1534299850463867
0.9936429858207703
1.084630012512207
1.3880300521850586
1.8431999683380127
1.8976099491119385
1.776919960975647
1.6728399991989136
1.5731099843978882
1.5499999523162842
1.5499999523162842
1.5499999523162842
1.5499999523162842
1.6709200143814087
1.841920018196106
1.3241599798202515
1.2261899709701538
1.8587299585342407
1.8600000143051147
1.754140019416809
1.3195799589157104
0.9399909973144531
1.0789200067520142
1.2192200422286987
1.4838500022888184
1.774749994277954
1.7542500495910645
1.6025300025939941
1.447059988975525
1.2883800268173218
1.1283899545669556
0.969539999961853
1.1631300449371338
1.4698100090026855
1.5499999523162842
1.5499999523162842
1.5499999523162842
1.5499999523162842
1.655150055885315
1.8092199563980103
1.9620800018310547
2.1138598918914795
1.8846900463104248
1.4312000274658203
1.3274500370025635
1.478350043296814
1.7131199836730957
2.022559881210327
2.125190019607544
1.9675099849700928
1.8636800050735474
1.8753900527954102
1.9138200283050537
2.055769920349121
2.132849931716919
1.9645400047302246
1.7930799722671509
1.6252299547195435
1.717170000076294
2.013089895248413
2.229330062866211
2.3583600521087646
2.4800000190734863
FIELD FieldData 2
Curvature 1 91 float
0.11781339086
0.12204533516
0.12838216311
0.13719728753
0.14816107888
0.15963435906
0.16840620813
0.17119052837
0.16337925197
0.14241550099
0.11442502012
0.088423267992
0.07375458478
0.083100186558
0.11480167218
0.16038112471
0.21106223853
0.2582160115
0.28939546365
0.28889228118
0.25014221037
0.19230655232
0.14246046507
0.10466525332
0.077707971871
0.063657476795
0.070073622512
0.10287221627
0.16875136332
0.29465004042
0.51822821518
0.61396607275
0.41356177337
0.26498397528
0.19687451496
0.17587292689
0.18015905115
0.19012954051
0.19227793116
0.17816323967
0.14868168058
0.15374445305
0.26225163946
0.51597791116
0.68114924359
0.4611714372
0.2731881273
0.18325326729
0.14417447142
0.1308711331
0.12620543846
0.11784030052
0.098265833908
0.064115924589
0.027793542195
0.053206640074
0.10325662787
0.14144876099
0.15707545334
0.15476650506
0.14414025623
0.1359802621
0.13712308256
0.14627203853
0.15773670808
0.15966300477
0.14520674789
0.11891597903
0.088393438208
0.059692162364
0.036514715101
0.022147005779
0.021212790291
0.030042960824
0.040621573069
0.050214301636
0.058647246395
0.067604662494
0.080392262983
0.10086564376
0.13121765852
0.17191274871
0.21907530485
0.25803409799
0.26747469418
0.24628393227
0.21047206436
0.17588738842
0.14909780959
0.12974053295
0.11591050513
Torsion 1 91 float
-0.0091954365003
-0.01000913385
-0.011143668966
-0.014165796007
-0.019964118923
-0.027079128833
-0.031509059791
-0.032856853806
-0.040857916845
-0.072590649745
-0.13260614959
-0.25436221054
-0.39968566922
-0.30280302203
-0.12461212122
0.02528912623
0.14894323534
0.22904750337
0.24475188853
0.20161213241
0.1354412286
0.10315090753
0.10165493788
0.1232600889
0.17554581859
0.2372651111
0.19784244895
0.10356827676
0.050640770786
0.026026378648
0.015999008505
0.013669868199
0.0045323124051
-0.014740327182
-0.048781252515
-0.082052993814
-0.11315541034
-0.14157871398
-0.17543180162
-0.25601499463
-0.45660843725
-0.59169436941
-0.36069571242
-0.19872094332
-0.12775664693
-0.056772247485
-0.018456680936
0.010573386573
0.03692638014
0.053884218796
0.061084180656
0.066691274716
0.082881205055
0.16565193384
0.89066789508
0.26119812409
0.043608738234
-0.034358611563
-0.08647412176
-0.1369070462
-0.18888576422
-0.21231630354
-0.18277583451
-0.13213691075
-0.072997519987
-0.0042514001298
0.051838707862
0.10440266504
0.16813659128
0.27085412608
0.48163314822
0.90413343734
0.80952624505
0.37231283766
0.15019348495
0.025061935274
-0.063255787205
-0.12234614514
-0.14624026697
-0.12693221588
-0.088543761032
-0.053844135791
-0.024144131776
0.0028658960365
0.023520149667
0.032987089212
0.038875474525
0.039108720373
0.036967108027
0.033746509581
0.030258357731
