# vtk DataFile Version 2.0
Vessel Segment
ASCII
DATASET POLYDATA
POINTS 76 float
0.0 0.0 0.0
-0.7947153837587151 0.30783040325028554 -0.05375202330518553
-1.6121124571430951 0.5543152255119449 -0.061516186566083673
-2.4472549248129294 0.7235028452926976 -0.01054857504393167
-3.2883050129738765 0.7952296147209574 0.11391785063082693
-4.113659388008729 0.7493254479788191 0.3245384834350665
-4.894375457496447 0.578195177896262 0.6224962960049314
-5.608849887819822 0.29686014272244937 0.9944583015134564
-6.255817622527143 -0.062359557533892676 1.4203429359046245
-6.8528309175142885 -0.46275958142069484 1.8813288631143927
-7.425878957328388 -0.8748026312256846 2.3623995733533376
-8.001627715623371 -1.2779870668955202 2.847857744008785
-8.606994245959617 -1.6579659250579701 3.3151721724502803
-9.27142893377409 -2.0064696636660826 3.7218170042666605
-10.017969969969876 -2.3352282209133537 3.9626460906869445
-10.757084835086518 -2.6880341171492397 3.7888167116100826
-11.173095269310686 -3.0729074240008254 3.1646320641829533
-11.28034662652803 -3.47161909646543 2.419779379409366
-11.208788853190647 -3.8886418977482844 1.6789777723571047
-11.01479099778246 -4.327521526784662 0.9731100715191461
-10.721220645629097 -4.79087018029356 0.3192223492620262
-10.337023323141024 -5.281053803547265 -0.2643726561094251
-9.865910506371229 -5.800602509449205 -0.7499998228557503
-9.31033022440757 -6.35036127845377 -1.0896433378421289
-8.684457225558242 -6.9161521432796045 -1.1785835662412232
-8.11394090813415 -7.371821936316333 -0.7846810396770257
-7.910324760925149 -7.441354975536341 0.02489231944300385
-7.964498469714239 -7.2476098095211805 0.8526947235657143
-8.100609530793765 -6.95007368243522 1.641343147661918
-8.246929565248887 -6.614988233442801 2.4133671848754896
-8.367344913202318 -6.286651361679435 3.192479400986448
-8.43822670217619 -6.011139448951296 3.9973289169947996
-8.443711832440108 -5.845410615830508 4.8339899352526645
-8.38017091175665 -5.853680157877459 5.683563059596879
-8.262372588981954 -6.08176854853214 6.495162762320862
-8.118075679157625 -6.528072739161081 7.20567141771164
-7.973358693335973 -7.150231042984257 7.7692685523292235
-7.843239750792998 -7.893480679124376 8.165701996540138
-7.7316846264613 -8.707190418754461 8.395056248389821
-7.638356937645703 -9.5517845963641 8.471001482143706
-7.562495397193968 -10.4002600508609 8.417671144322425
-7.505706272712722 -11.238862914677279 8.267383725448125
-7.471445131888771 -12.06590564113433 8.056763092643886
-7.465201933445773 -12.888053114158955 7.825467799978977
-7.491613608220097 -13.715770215492936 7.616703709944523
-7.550260080214418 -14.55579103698611 7.476205188448494
-7.629158721842214 -15.40494971853603 7.443042522215249
-7.700883881783894 -16.25035387026695 7.534767162397377
-7.72788784761958 -17.077649286117026 7.742518885373144
-7.668818080654774 -17.874541098103258 8.041742559138012
-7.48216270302358 -18.624878913140765 8.401638243757866
-7.132393907963754 -19.299347341479457 8.787776607061165
-6.606515091343507 -19.85488577679204 9.162354833005136
-5.931110143001199 -20.25409558535309 9.494403985564784
-5.1602674689371915 -20.48999783216682 9.772025130455734
-4.344110504962539 -20.586060038681477 10.002139059971078
-3.5137779879364013 -20.57697187152288 10.200608873841208
-2.684035347741756 -20.495423813798933 10.385324015400467
-1.8608747029151547 -20.36809753165771 10.574427422119518
-1.0476711468144129 -20.21628331357666 10.78693920165501
-0.2492185352174296 -20.057203671888622 11.044781365966944
0.5241309141945976 -19.905018064779284 11.37297338393813
1.2536001262385699 -19.77012256843914 11.79503387821572
1.918077867819051 -19.656441312335545 12.318430866529935
2.5130994231637085 -19.561417023479027 12.923274716099394
3.06219910741385 -19.48309236500275 13.572774173196722
3.6064554441737635 -19.42751739696013 14.228678179766671
4.182347245588526 -19.411172255999094 14.858921337051768
4.80341793885541 -19.45809804434775 15.442736842084651
5.455668209703418 -19.590993552426685 15.97714553520613
6.105834296023511 -19.827275638073242 16.47711745228064
6.707240231962088 -20.180673422998847 16.96833034220212
7.196958738742463 -20.658418732778127 17.47667319897811
7.50294215554953 -21.24510314763948 18.012634644277437
7.584956373398265 -21.89109563407236 18.561622418913828
7.465208408328551 -22.540832993404763 19.100602145182467
LINES 1 77
76 0 1 2 3 4 5 6 7 8 9 10 11 12 13 14 15 16 17 18 19 20 21 22 23 24 25 26 27 28 29 30 31 32 33 34 35 36 37 38 39 40 41 42 43 44 45 46 47 48 49 50 51 52 53 54 55 56 57 58 59 60 61 62 63 64 65 66 67 68 69 70 71 72 73 74 75
POINT_DATA 76
SCALARS MaximumInscribedSphereRadius float
LOOKUP_TABLE default
1.2400000095367432
1.2400000095367432
1.2400000095367432
1.2400000095367432
1.2400000095367432
1.2400000095367432
1.2400000095367432
1.2400000095367432
1.2399200201034546
1.180050015449524
1.1203099489212036
1.171910047531128
1.2349599599838257
1.4014500379562378
1.5499999523162842
1.5402100086212158
0.8949840068817139
0.9043920040130615
1.1999599933624268
1.1781500577926636
1.0443700551986694
1.1139299869537354
1.3861900568008423
1.5499999523162842
1.5499999523162842
1.6959099769592285
1.819949984550476
1.793720006942749
1.3881499767303467
1.1752400398254395
1.3843400478363037
1.5499999523162842
1.5499999523162842
1.5074800252914429
1.3591699600219727
1.1953699588775635
1.0154900550842285
1.0859999656677246
1.3837300539016724
1.5499999523162842
1.5499999523162842
1.5832500457763672
1.7235900163650513
1.8596800565719604
1.8600000143051147
1.8600000143051147
1.8600000143051147
1.8594000339508057
1.5591000318527222
1.2473399639129639
1.5528500080108643
1.841230034828186
1.5118800401687622
1.3241499662399292
1.824530005455017
2.2164199352264404
2.0555500984191895
1.8991700410842896
1.62785005569458
1.3405300378799438
1.3348900079727173
1.4860399961471558
1.7433500289916992
2.08092999458313
2.1700000762939453
2.1700000762939453
2.1832199096679688
2.1947999000549316
2.1947999000549316
2.159209966659546
2.0376200675964355
1.9966800212860107
2.10332989692688
2.0638999938964844
1.7888000011444092
1.5499999523162842
FIELD FieldData 2
Curvature 1 76 float
0.088750953688
0.10533634288
0.12624882566
0.15117636834
0.17595498374
0.18751766329
0.1753262638
0.14086059278
0.092912064308
0.043445190507
0.014733394571
0.064825708285
0.1392249507
0.2687888231
0.54010868129
0.74823149321
0.44534900882
0.25257096482
0.16865382582
0.13615950575
0.13545400312
0.16195935373
0.22093204137
0.34398877001
0.63691286127
0.93584391677
0.48011982951
0.21101940539
0.083707544495
0.036920294698
0.091127206131
0.15873052
0.22335020655
0.27156044539
0.2848689322
0.2695586213
0.24408054295
0.21449811744
0.18518773515
0.15315039471
0.11583413351
0.075958404584
0.043900720426
0.05437453139
0.095190489884
0.13133869895
0.14756347948
0.14666237346
0.14972446237
0.1729269797
0.21275260851
0.25034449334
0.26017536439
0.23464647161
0.18657881756
0.13528423998
0.089257496416
0.053784522729
0.042873954789
0.065896052117
0.10194094617
0.13740946763
0.15361583302
0.13107746356
0.07765318291
0.027358388833
0.067689495061
0.10909909978
0.12478017218
0.12837471652
0.1471711702
0.19517857663
0.25639867585
0.29128075661
0.27668210105
0.23526037156
Torsion 1 76 float
0.020465896712
0.019493309661
0.01761716795
0.013736418647
0.0072879717766
0.0090609443776
0.021680963579
0.057748120298
0.1203113775
0.35309072924
2.2616119651
0.17570685234
0.17166512957
0.20643869367
0.25558339969
0.27057516456
0.1676217529
0.12208101638
0.11458940295
0.11003486424
0.098885077672
0.082518637993
0.064580546202
0.045219901259
0.018883280282
-0.040021674925
-0.072754919466
-0.10356470908
-0.26269239875
-1.0016488287
-0.23961239975
-0.14916177703
-0.12713758586
-0.10717678426
-0.077817462124
-0.046208228628
-0.0080451722555
0.014060873607
0.012323085258
-0.015612002219
-0.079873292985
-0.25992585167
-0.89267137755
-0.65079791909
-0.26611939939
-0.20616065031
-0.25539136731
-0.33425460275
-0.36458980643
-0.26860659308
-0.15173184562
-0.060535770039
-0.0045046026988
0.029412240321
0.05047410955
0.081880044259
0.16771447189
0.44602373133
0.69590049138
0.27410070064
0.083728321427
0.0062961866478
-0.026399565476
-0.011839593857
0.20575844258
2.3503155226
0.16585310277
-0.13047754198
-0.27963941636
-0.39852104587
-0.39728722817
-0.2655661575
-0.1495074699
-0.080785848945
-0.042868010684
-0.023481375528
