# vtk DataFile Version 2.0
Vessel Segment
ASCII
DATASET POLYDATA
POINTS 89 float
0.0 0.0 0.0
-0.6748739601511468 0.20562894850584498 0.17714448665957344
-1.3506907664961956 0.37284451820852066 0.3882093167408183
-2.0313635072343246 0.4994679325661067 0.6117426656238262
-2.7195734876339697 0.5812273517851175 0.8325926355297609
-3.4168441923075648 0.6118159366623552 1.037715599128028
-4.121942455851942 0.5831849327390256 1.2137001914229624
-4.829867875505599 0.48417502259991296 1.3466304449837465
-5.528733953357732 0.29956518484492767 1.4233161904027274
-6.194693040075775 0.009641362692481935 1.4364358537167012
-6.791722051679514 -0.4018363474347952 1.3969330866425718
-7.2886545298180305 -0.9286316124273846 1.3405420364237106
-7.683242574328151 -1.5381996489265657 1.3090852588635251
-8.003247613977832 -2.1910390723306343 1.3246684880389847
-8.287665048461198 -2.858303213017949 1.381421746033216
-8.572009211906035 -3.524841555682098 1.4460025628982291
-8.879547115226378 -4.183552339475465 1.4579623318475639
-9.204336891939247 -4.81790948902869 1.3235085936743458
-9.480780225474776 -5.380944886172228 0.9631325942675881
-9.6266849827449 -5.838519756841249 0.42024673271953594
-9.632701502738833 -6.221655399782037 -0.1970050855182192
-9.528328982062849 -6.577611634845826 -0.8223015107974931
-9.341254195973953 -6.938424495538908 -1.4253456599227394
-9.091411014369317 -7.323372559828972 -1.9895409514309172
-8.793584979835137 -7.7448524579516755 -2.501912881612686
-8.459228493940739 -8.21112446264685 -2.9485427180923773
-8.096386163727646 -8.726394055031578 -3.31073113884841
-7.708901262537567 -9.291387033129025 -3.5512979304807826
-7.2991640851934605 -9.884647424902008 -3.5635466361669583
-6.9505280416204505 -10.274233684178201 -3.103144609388657
-6.80607349792423 -10.196316155828479 -2.402974860039677
-6.759684635700796 -9.900592861852838 -1.741149365872613
-6.746058987479245 -9.5202111039828 -1.121287439696314
-6.742579304385328 -9.113590019484816 -0.5179529713618016
-6.742724463989961 -8.72769910900085 0.09871959092984657
-6.748522553340731 -8.40370701887725 0.7496747044185361
-6.763309478399346 -8.16118541123582 1.4350575287089002
-6.786141010499481 -7.998536147953171 2.143491698214986
-6.8134655779811135 -7.93207102117278 2.8667100278348374
-6.840357431593698 -8.014700015547163 3.587102583817833
-6.856302868544527 -8.31107583650744 4.24733546975121
-6.847967942293742 -8.81677871971064 4.765794426020589
-6.811654539104263 -9.444394933719193 5.129287900745894
-6.7512045498453785 -10.122240518348042 5.385437921553726
-6.670823455634169 -10.818279440090892 5.581137953102673
-6.572683120650429 -11.519029827858406 5.750381609852936
-6.457220406180483 -12.217241996253476 5.919191170261724
-6.322766668007266 -12.906830301660923 6.108294043398208
-6.166497514966344 -13.58148652240512 6.331029705691947
-5.986453983631385 -14.23715310191847 6.589788451965898
-5.782490914397758 -14.873829348964758 6.876597563744647
-5.555334105288625 -15.495502314017907 7.1788447450942225
-5.304331029319352 -16.10623024488173 7.484353178894553
-5.025060539674543 -16.706303460765486 7.786383312073392
-4.709476646840257 -17.29043815206054 8.08370197922757
-4.346200220285689 -17.84729078690103 8.37870085765247
-3.922256756301499 -18.357624952728237 8.676236572977386
-3.4277159554583645 -18.794209053331112 8.981456070040876
-2.8655515159426237 -19.130660330567604 9.295880068510524
-2.2540977870556382 -19.358179347452108 9.61653763514484
-1.6162623368809226 -19.49129865411702 9.939369830903802
-0.968132997029089 -19.55624202437551 10.26314349038424
-0.3179755701296684 -19.577841427926796 10.589020581659431
0.33008049868363626 -19.573912786912835 10.919752916091491
0.973496990038385 -19.554350110861794 11.258820868010549
1.6098836091116207 -19.521574108989977 11.60999305724736
2.23641250855785 -19.471380682652736 11.976386267884264
2.850692011081691 -19.396326254695342 12.358942654878945
3.4513306581873047 -19.291467449343838 12.755851179354556
4.039074984984232 -19.158377174599853 13.163558887178649
4.616788091864805 -19.006478016894597 13.578948994268892
5.188325348804457 -18.851781080619094 14.001805834926973
5.756383613886404 -18.71192809638974 14.434374544371213
6.321194451241848 -18.60230736477006 14.879598406394601
6.880526204758607 -18.535226000906192 15.33985527356827
7.430079730812802 -18.520932618503327 15.816188221336938
7.963361556423849 -18.569183325465232 16.308372943549635
8.47068037708291 -18.690973961842857 16.81490185402682
8.936779054297793 -18.90017694718563 17.332027415642216
9.337890986181847 -19.212607766036427 17.85102311683063
9.643602902642245 -19.63686297755247 18.354906320704323
9.833685257491894 -20.15904769700743 18.822592249072244
9.915826930336438 -20.745842438057384 19.24354957261827
9.919038586588943 -21.365065316355192 19.625048022589663
9.883885855404843 -21.992927956073512 19.99102096160934
9.861365898027511 -22.60685968037792 20.380325714937978
9.926731051982438 -23.158936456220328 20.846040237627744
10.176101730433539 -23.526290459541315 21.41364906956475
10.596118897126551 -23.617856612966303 21.995126064278182
LINES 1 90
89 0 1 2 3 4 5 6 7 8 9 10 11 12 13 14 15 16 17 18 19 20 21 22 23 24 25 26 27 28 29 30 31 32 33 34 35 36 37 38 39 40 41 42 43 44 45 46 47 48 49 50 51 52 53 54 55 56 57 58 59 60 61 62 63 64 65 66 67 68 69 70 71 72 73 74 75 76 77 78 79 80 81 82 83 84 85 86 87 88
POINT_DATA 89
SCALARS MaximumInscribedSphereRadius float
LOOKUP_TABLE default
0.9300000071525574
1.118280053138733
1.2755600214004517
1.2577099800109863
1.2388299703598022
1.096709966659546
0.949088990688324
1.0634000301361084
1.2233099937438965
1.2400000095367432
1.2608100175857544
1.4568899869918823
1.6403100490570068
1.8030999898910522
1.7221399545669556
1.3818199634552002
1.2400000095367432
1.2400000095367432
1.4331799745559692
1.62336003780365
1.7917200326919556
1.6932799816131592
1.4109300374984741
1.3400399684906006
1.607409954071045
1.8607699871063232
1.872290015220642
1.8801000118255615
1.7343100309371948
1.7783499956130981
2.064739942550659
2.4431700706481934
2.3234000205993652
2.1206700801849365
1.7387499809265137
1.7683299779891968
2.1700000762939453
2.1700000762939453
2.1700000762939453
2.1700000762939453
2.3646399974823
2.4274098873138428
2.242460012435913
2.1700000762939453
2.1700000762939453
2.1700000762939453
2.1700000762939453
2.0989699363708496
1.9422800540924072
1.9366899728775024
2.095439910888672
2.0878899097442627
1.933709979057312
1.8600000143051147
1.8600000143051147
1.9842100143432617
2.240799903869629
2.2073400020599365
1.9169199466705322
1.8265399932861328
1.8514800071716309
1.8600000143051147
1.8600000143051147
1.8666599988937378
1.8784899711608887
2.0213799476623535
2.3157100677490234
2.4800000190734863
2.4800000190734863
2.4800000190734863
2.4800000190734863
2.3880701065063477
2.2298200130462646
2.1700000762939453
2.1700000762939453
2.177570104598999
2.189840078353882
2.2450098991394043
2.3306000232696533
2.401979923248291
2.4653100967407227
2.4800000190734863
2.4800000190734863
2.3469300270080566
2.193739891052246
2.3039000034332275
2.4728200435638428
2.6450700759887695
2.7899999618530273
FIELD FieldData 2
Curvature 1 89 float
0.16437435587
0.10233275914
0.072997117357
0.065683149835
0.074098847022
0.092185001426
0.11711692051
0.14846798013
0.18391606902
0.21320268454
0.21579790463
0.1896507648
0.14355916345
0.083983687681
0.017978597973
0.10160530275
0.23016784757
0.35355012466
0.36428540845
0.2717124112
0.18651768819
0.13676672997
0.11381190278
0.10953513636
0.1205940705
0.14862079534
0.21419805951
0.37654880278
0.82906417183
0.90592526299
0.36901957674
0.15016913357
0.048563078323
0.082448033572
0.12148631841
0.12609086091
0.11693949887
0.13039918629
0.20267506324
0.31216469081
0.36847656109
0.29684797557
0.18745320451
0.10384549011
0.046729827428
0.025551083855
0.04752415696
0.06543655241
0.067488018833
0.057515836161
0.045306905321
0.039346844649
0.04225121779
0.0542807129
0.075749135314
0.10685286067
0.14313435228
0.16912839622
0.16760896441
0.13883992032
0.098989283754
0.06213574345
0.035571845877
0.024898783498
0.03011760597
0.040488271065
0.049773639902
0.052681221184
0.046647401299
0.031711343091
0.014930890343
0.026894050202
0.047085334915
0.063511253363
0.077170450829
0.090919700449
0.10855329468
0.13436472627
0.16973648095
0.20634704483
0.21825998897
0.18884329701
0.13531032514
0.061086682389
0.04679698195
0.18820519913
0.40117823256
0.51512312103
0.39362441292
Torsion 1 89 float
-0.13009953115
-0.18657607845
-0.25468120805
-0.25297418247
-0.17606438418
-0.10040442512
-0.037471641366
0.024931122731
0.1064824669
0.20174313717
0.27569655596
0.29495595236
0.29690787114
0.31480867148
2.2674257608
0.21486969224
0.18090142668
0.23648606109
0.2587811654
0.27603434969
0.28440117336
0.29270027043
0.27515512544
0.22212795453
0.13448156809
0.048302309166
-0.014880140673
-0.056909666031
-0.11367967404
-0.13325853189
-0.07756659442
-0.070485761207
0.10341359623
0.048925768
-0.019576721411
-0.022982529797
0.027319006107
0.05021331994
0.035693746897
0.038774910084
0.043276412198
0.050979472952
0.065384389781
0.12046477385
0.42889771831
1.1935504291
0.248293075
0.038923071611
-0.06066080233
-0.1608708908
-0.31719301799
-0.33953744632
-0.069333708142
0.091914925464
0.1233596547
0.11393376088
0.085150366513
0.061129054243
0.043840105825
0.03786189059
0.049197643805
0.10127227798
0.25871953098
0.37158875902
0.082429273521
-0.080351708287
-0.10631971634
-0.084897188371
-0.036913949853
0.16682753291
1.4397848042
0.37134709628
0.060367797793
0.0055187914064
-0.0066277298115
-0.012589044467
-0.017201614805
-0.019577857723
-0.019929774245
-0.020576585778
-0.016318877462
-0.016444448141
-0.039899323911
-0.31681149511
-0.75959961747
-0.067122310953
-0.022339149155
-0.0088574723243
-0.0032925587172
