# vtk DataFile Version 2.0
Vessel Segment
ASCII
DATASET POLYDATA
POINTS 96 float
0.0 0.0 0.0
-0.5903053480215177 0.2736575123828829 0.17644218646547352
-1.1811678562799266 0.5450226165781158 0.35463580362588365
-1.7805526072104374 0.7949002489606342 0.5355253133746848
-2.3947856483373284 1.0023323503709252 0.7197146573308206
-3.026764293203819 1.1411129944755056 0.9074749667317319
-3.671415110965241 1.1807264247495377 1.0979979877937684
-4.311518376834234 1.0976600374835936 1.2890594163841824
-4.924444591096305 0.8928544396246235 1.4781663870971211
-5.498289036456338 0.5929241818355236 1.664243369857998
-6.037883245865885 0.23262803175975313 1.8466812831191972
-6.5580877168519205 -0.1587929563884711 2.0218436273453775
-7.0758269495487145 -0.5611928321797902 2.178142433345828
-7.603199693558744 -0.9655484508307525 2.2902455626612825
-8.136366422164128 -1.376102823459979 2.313623243243074
-8.640631331847638 -1.8059910377884103 2.1989591444668646
-9.064052230924702 -2.2627585091063382 1.944839785947893
-9.386014150474649 -2.746544015487903 1.6047551203920476
-9.613590274841046 -3.258151955770251 1.2302457825564137
-9.752776973310704 -3.79738187273518 0.8512891214374523
-9.801822172697602 -4.359314854643718 0.48304407167064894
-9.754730788697096 -4.931085660030198 0.13009159468479975
-9.606651371134035 -5.493088030975806 -0.21026163214415036
-9.358863762247712 -6.022143459134786 -0.5452937478155565
-9.01938625076623 -6.496429092348584 -0.8819410860720949
-8.59785170551174 -6.89903328030461 -1.2191281168391785
-8.09837014194848 -7.218366768829984 -1.538261148146351
-7.506052471696236 -7.436848431902608 -1.763613610871085
-6.955571250868604 -7.477606781288298 -1.4915057869827681
-6.8706178672890035 -7.405117082246875 -0.8318858907011774
-6.941154393435118 -7.308238421657473 -0.16889677117518168
-7.062420088099249 -7.175452219366449 0.4806861293924327
-7.202549963480193 -6.994630813672551 1.1146385068689182
-7.34598095805064 -6.761732935657525 1.7306024189760583
-7.484830348701207 -6.487468911691362 2.3306004276462304
-7.618694651031152 -6.2067375724738305 2.9286452634210955
-7.753906899655294 -5.987987348128102 3.5509415676519684
-7.896124871059182 -5.9328783178905775 4.20470066026547
-8.038545227154524 -6.111005115978253 4.835351918552452
-8.168771744966959 -6.485852404124062 5.3775469318699605
-8.282357743704246 -6.986142221470972 5.81289246546574
-8.379303223366383 -7.565861926548485 6.141119315575603
-8.459675645517187 -8.198399538658041 6.35710747075129
-8.522666756373011 -8.861995169767317 6.451021677479197
-8.566861148075839 -9.53300000805708 6.418953662495456
-8.59104708244128 -10.190734835498265 6.275791871689198
-8.594011536302776 -10.828459920619895 6.057782439563302
-8.572183544215552 -11.455001805933726 5.810062934731881
-8.517141975541845 -12.085719883293443 5.578848383356889
-8.414672357539626 -12.730383872122086 5.413185912298476
-8.247459555495562 -13.3799667726897 5.362590381925929
-8.003916885201113 -13.999501650241616 5.456841253981843
-7.6859975195515835 -14.545670470913556 5.686707859062639
-7.303672277679301 -14.990717619877474 6.016147732339061
-6.868192463446968 -15.323390508288496 6.406894104849103
-6.389662534132381 -15.542410578889497 6.826878961609026
-5.877791814996685 -15.654380070059483 7.2500306569219
-5.340596024803645 -15.673445350485583 7.656137706267798
-4.783337808022164 -15.619684266542254 8.031119275050159
-4.20861732606912 -15.51586670224584 8.36756551359741
-3.6177076750274244 -15.384023676866104 8.663791810287352
-3.0130140202699653 -15.240459044150189 8.92485071500442
-2.399272484822321 -15.093052314752057 9.161656223792228
-1.7827892792965518 -14.942210828018954 9.38908457520931
-1.170732194848339 -14.784700283834113 9.623721034097592
-0.5710509342825703 -14.618767966520426 9.882994456092272
0.0071270732832336425 -14.448253402795777 10.184475687358105
0.553488952486988 -14.286430458455245 10.544103967952077
1.0577943893034056 -14.156203940642808 10.971290828517903
1.5131837172461908 -14.083915983801756 11.46222983062853
1.91861004728861 -14.090518222180762 11.999984588064635
2.2778340403679844 -14.187261959642527 12.561446945254156
2.595531104102456 -14.377716876649663 13.123946604298766
2.8719572711889905 -14.664713788918192 13.666841451029503
3.0998702215061664 -15.049801099960515 14.16986683478924
3.2663552417748485 -15.526108010124522 14.615567075940026
3.3609495253151507 -16.072141907668826 14.998121285572362
3.381120211651243 -16.659137181781357 15.328079046818166
3.329258652597708 -17.261560594293567 15.625572476470644
3.207534219299614 -17.86014383759681 15.910173102166413
3.016365012829862 -18.44073925802179 16.1936928482964
2.7562558705576916 -18.99398190552838 16.477148369787862
2.4307303742104343 -19.51690861123725 16.75041693413078
2.0490519602369512 -20.01632271323669 16.99333992177473
1.6286088467113775 -20.50913521934821 17.178843400931765
1.1980332472344701 -21.017476092468506 17.277971744051733
0.7985523289047624 -21.559272761313945 17.271254981637007
0.47197325258846695 -22.13835222402627 17.165618685704608
0.2415554052159988 -22.746886047992692 16.99232261745463
0.10866995813034704 -23.374653806294763 16.787396311583255
0.061796559307928794 -24.01373294137589 16.579108251426327
0.0835611455563036 -24.659030426413338 16.385960292884988
0.15507582422208968 -25.308262366226327 16.219616841511094
0.2581506788643437 -25.961509554068666 16.08932312314684
0.37411869321764923 -26.620196874541854 16.00592369460416
0.4801543375144357 -27.285303405001365 15.986884234288498
LINES 1 97
96 0 1 2 3 4 5 6 7 8 9 10 11 12 13 14 15 16 17 18 19 20 21 22 23 24 25 26 27 28 29 30 31 32 33 34 35 36 37 38 39 40 41 42 43 44 45 46 47 48 49 50 51 52 53 54 55 56 57 58 59 60 61 62 63 64 65 66 67 68 69 70 71 72 73 74 75 76 77 78 79 80 81 82 83 84 85 86 87 88 89 90 91 92 93 94 95
POINT_DATA 96
SCALARS MaximumInscribedSphereRadius float
LOOKUP_TABLE default
1.5499999523162842
1.4295200109481812
1.3128000497817993
1.2876900434494019
1.417739987373352
1.5522799491882324
1.6718800067901611
1.789080023765564
1.8640899658203125
1.8742799758911133
1.8842799663543701
1.8015999794006348
1.7111599445343018
1.5730600357055664
1.3867499828338623
1.4056899547576904
1.6912000179290771
1.7569700479507446
1.4937000274658203
1.2434300184249878
1.4047600030899048
1.568429946899414
1.7858400344848633
2.091370105743408
2.401249885559082
2.1152400970458984
1.576069951057434
1.368499994277954
1.5499999523162842
1.5499999523162842
1.809340000152588
2.1956000328063965
2.449709892272949
2.3233799934387207
2.1927599906921387
2.1700000762939453
2.1700000762939453
2.0580201148986816
1.9024699926376343
1.9595799446105957
2.0891900062561035
2.1700000762939453
2.1700000762939453
2.1700000762939453
1.8890199661254883
1.5275299549102783
1.2637399435043335
1.3836599588394165
1.5062799453735352
1.7175699472427368
1.9824199676513672
2.2104198932647705
2.342560052871704
2.471169948577881
2.3630900382995605
2.239140033721924
2.2269399166107178
2.356369972229004
2.4852499961853027
2.3834099769592285
2.25504994392395
2.1732499599456787
2.1828999519348145
2.1925299167633057
2.187390089035034
2.1775999069213867
2.1997199058532715
2.3275399208068848
2.4583799839019775
2.368809938430786
2.235460042953491
2.1700000762939453
2.1700000762939453
2.195620059967041
2.3382599353790283
2.480220079421997
2.5985000133514404
2.7098701000213623
2.615689992904663
2.2602601051330566
1.9055299758911133
2.072499990463257
2.320050001144409
2.4333200454711914
2.3030200004577637
2.174560070037842
2.8526298999786377
3.5211598873138428
3.5414199829101562
3.293869972229004
3.0999999046325684
3.0999999046325684
3.0999999046325684
2.978450059890747
2.736959934234619
2.4800000190734863
FIELD FieldData 2
Curvature 1 96 float
0.072398561138
0.0315574708
0.034593490991
0.068707658586
0.11045335691
0.15430719093
0.18722133255
0.18856386025
0.15586075151
0.10469967148
0.054352362242
0.042895896278
0.088858295778
0.15260956698
0.22372756874
0.25363980995
0.21706610095
0.16906841072
0.14547658883
0.14218739318
0.14679331947
0.15304457578
0.15683497221
0.15932939325
0.16793355942
0.19979470897
0.32955844007
0.92039973301
1.1729110899
0.32424230878
0.13313519492
0.084432309529
0.084094896595
0.077297615688
0.056561551496
0.12181516638
0.26127138752
0.36541649666
0.34073599615
0.26112706035
0.20428367369
0.18557103169
0.1891014458
0.19180833858
0.17160614543
0.12064390501
0.059707202079
0.059009021313
0.12800876086
0.20240054902
0.25280240723
0.25842300803
0.23415248176
0.20713220639
0.18650094092
0.16728157129
0.14586994582
0.12171186992
0.097476841659
0.076776844447
0.059167512105
0.039263512402
0.01555416204
0.01651101839
0.044395942614
0.073331130944
0.1026077402
0.1305710277
0.14957561827
0.15654347223
0.15502948966
0.15186244097
0.15785242637
0.17352421167
0.18625843132
0.17954727501
0.15302888654
0.12278693541
0.10627589926
0.10647937862
0.11097420762
0.11020002379
0.10426310507
0.10770622603
0.13529591838
0.17526874492
0.19545906567
0.18590058392
0.1614066409
0.13451315523
0.10790115099
0.084413977733
0.07196146491
0.079551104407
0.11335955343
0.17878832677
Torsion 1 96 float
0.019639496117
0.078038834612
0.056654710685
0.010070676433
-0.0060191042903
-0.01786764317
-0.029616528344
-0.037603076702
-0.032194118449
0.010660571861
0.32077512677
0.66910086658
0.027092338172
-0.15711697407
-0.22468825359
-0.24317343173
-0.25557630848
-0.24258964763
-0.16006244947
-0.017098841266
0.099625576756
0.16117960014
0.19131687039
0.13809150533
0.023314134121
-0.13825543129
-0.22065512989
-0.28882186301
-0.080718699702
0.11096039235
0.28320569267
0.36403084264
0.18269657014
0.1076318568
0.18414983737
0.078578580228
0.030148561115
0.016025923898
0.0097071633325
0.0113112211
0.017387515909
0.020380835138
0.014648160829
0.00033874091145
-0.03620921824
-0.15593482605
-0.83738467664
-0.89403130131
-0.15605253309
-0.0072822875804
0.061205839577
0.10682063488
0.12942407679
0.13108078558
0.12336130135
0.12535576927
0.14767608175
0.19296817923
0.25661957558
0.30687211969
0.22579533358
0.058792154815
-0.7788197137
-0.80611664292
-0.1931719222
-0.18566758533
-0.21254200355
-0.22406056697
-0.22058851741
-0.20739850281
-0.18582777054
-0.14599139552
-0.08467212072
-0.0089291103907
0.053742263387
0.11893794217
0.19756749275
0.29782546563
0.30433394563
0.15067710664
-0.016296482508
-0.18906040007
-0.40447098644
-0.54135359208
-0.44329506121
-0.31593528175
-0.26538065944
-0.24344482211
-0.22623065185
-0.21347069551
-0.21766051932
-0.28819269033
-0.38941949142
-0.36815195689
-0.24331689452
-0.15531237281
