# vtk DataFile Version 2.0
Vessel Segment
ASCII
DATASET POLYDATA
POINTS 88 float
0.0 0.0 0.0
-0.6155743552494162 0.31891172006489393 -0.2463611175151943
-1.2884251702665677 0.5312776980996575 -0.4537311882276649
-2.003940081414369 0.6066182774887201 -0.6038983301884978
-2.7302493457253085 0.5262103606474411 -0.680266943212145
-3.4284340468219767 0.29658910416842454 -0.6760077466416115
-4.070369621490103 -0.05316362493400576 -0.595893953864723
-4.646438212824112 -0.48714228135166265 -0.4502801325388143
-5.16104467883595 -0.9736234838538377 -0.24922532566604633
-5.625204666032437 -1.4882313504564582 -0.0006596782587047977
-6.0521341490401985 -2.013559338910727 0.2892458066941374
-6.454537886850125 -2.5377108311074337 0.6143999598780276
-6.8435029560989635 -3.0532710994423664 0.9683390548302853
-7.22872284559456 -3.556276472000166 1.3438668561088183
-7.61915713457457 -4.044887973082999 1.7326848633254615
-8.024278018503153 -4.5207232850450145 2.122458073455983
-8.454511495167568 -4.995456332060956 2.485209685613698
-8.910886998793183 -5.525997319408854 2.6713580047849903
-8.901414803329022 -5.875604387069872 2.089855121213668
-8.604825699160596 -6.002199586155967 1.4284597382091417
-8.248683474906974 -6.108675298646957 0.7926909647577403
-7.8634635854113775 -6.230864239130322 0.17711730980371554
-7.461793757171645 -6.386832628113566 -0.4201002023507655
-7.053368879586406 -6.592733479094866 -0.9971225960078698
-6.649570153356798 -6.866999967366821 -1.5480785946060462
-6.2688293531846355 -7.234743285074481 -2.0588656495531534
-5.946245284087207 -7.728569185641726 -2.4964438242826392
-5.748421640150388 -8.368522924352172 -2.7908297991496993
-5.75796806692604 -9.0954197364965 -2.8418645260938296
-5.98795487759937 -9.748443788392155 -2.612317500926302
-6.352394201650375 -10.212162589492058 -2.17819178247645
-6.76118603402071 -10.477689391279261 -1.62914618970603
-7.1589636204750065 -10.575648111219968 -1.0187855336456344
-7.512388698609972 -10.541354645902798 -0.374645429085361
-7.798476173088867 -10.408371352256294 0.2901281788873094
-7.9982830535741485 -10.210547708319474 0.9701752293465528
-8.091174436062637 -9.986874760895065 1.6648346434428813
-8.048583870948084 -9.79242934192639 2.3723458785622995
-7.843122805472588 -9.717088762537328 3.0719983987993555
-7.495351912327838 -9.867769921315451 3.697412604593423
-7.106166950326098 -10.256220973746998 4.182059033170113
-6.7604521244505165 -10.798805641236303 4.5373202858213455
-6.483469890650688 -11.425540604138563 4.805271510253599
-6.274703430927753 -12.0986127124994 5.018148703924089
-6.1249046443427995 -12.797164368381164 5.19614558473941
-6.020118044335882 -13.509154692824017 5.352333866475555
-5.942794228398356 -14.227386049795085 5.496038682564491
-5.870759043256732 -14.947159457218028 5.634604030775894
-5.776031486251975 -15.663995825769414 5.773976819573589
-5.62483771124734 -16.36974371709327 5.919150155098303
-5.383688192034993 -17.047661169267247 6.073208838549181
-5.032099288416295 -17.67300254434061 6.235566022388225
-4.573227932015707 -18.22285557769732 6.403136205120897
-4.0270451468053565 -18.68598683096383 6.57239480004225
-3.4169043834978625 -19.061147677457267 6.741360671489996
-2.7615301402686483 -19.3508339699526 6.909664763792862
-2.075388419017995 -19.557690023847776 7.077676132622121
-1.3701545445114305 -19.68377120611658 7.246934727543475
-0.6560353220787019 -19.73128134635576 7.4194987167122655
0.057790476585027624 -19.703891393007076 7.597789721591979
0.763464836892787 -19.608284264990715 7.784672650628855
1.4557754602463386 -19.455033022126127 7.983157373415162
2.132959002850121 -19.259118383426284 8.196254459838554
2.797049122520779 -19.0392648470666 8.426608925592372
3.452372244186421 -18.814785159351292 8.676789454172297
4.103561172008895 -18.60418462599826 8.9487785818314
4.753787893963576 -18.424057446602284 9.243825635547948
5.403823435276404 -18.2900454190258 9.562664524892135
6.051414245377832 -18.2169814999542 9.905221018552473
6.690714433414248 -18.21969794577747 10.27006441304432
7.311407072605606 -18.313176175803957 10.65422055384037
7.8977707064886795 -18.511514536853458 11.051858081216386
8.428223631691107 -18.824845602944233 11.453542265511642
8.877887504285486 -19.253904684237263 11.846568347735246
9.226561297032069 -19.783638230998868 12.218806511412648
9.466707347659108 -20.38723613446445 12.56403638272968
9.604371270718742 -21.035414142251575 12.884159963969402
9.653635519608011 -21.70461536783641 13.186902563742114
9.630940989412599 -22.37881004970967 13.481978679717406
9.552243719138676 -23.047996919238987 13.779045035195074
9.432705719504192 -23.70600742446915 14.087382995145123
9.288559367170976 -24.34894232066081 14.4163479807752
9.140405837071206 -24.973960159263342 14.776499045996927
9.018323385255798 -25.57665485674786 15.18129639345468
8.97012748075458 -26.144102461665963 15.646740722399008
9.065157127683804 -26.64047376090712 16.178941322287614
9.354386105404318 -27.00823826255037 16.743294628250325
9.806216210486623 -27.226518661908067 17.279536186951532
LINES 1 89
88 0 1 2 3 4 5 6 7 8 9 10 11 12 13 14 15 16 17 18 19 20 21 22 23 24 25 26 27 28 29 30 31 32 33 34 35 36 37 38 39 40 41 42 43 44 45 46 47 48 49 50 51 52 53 54 55 56 57 58 59 60 61 62 63 64 65 66 67 68 69 70 71 72 73 74 75 76 77 78 79 80 81 82 83 84 85 86 87
POINT_DATA 88
SCALARS MaximumInscribedSphereRadius float
LOOKUP_TABLE default
0.8741999864578247
0.8965219855308533
0.9214159846305847
0.825918972492218
0.6647650003433228
0.8591210246086121
1.1833000183105469
1.3814799785614014
1.547700047492981
1.4539799690246582
1.2983499765396118
1.154229998588562
1.01596999168396
0.9300000071525574
0.9300000071525574
0.9383860230445862
0.9692509770393372
1.0857499837875366
1.1160000562667847
1.1160000562667847
1.1360199451446533
1.2089999914169312
1.2716200351715088
1.1268199682235718
0.9743000268936157
1.0361900329589844
1.198259949684143
1.2400000095367432
1.2400000095367432
1.2400000095367432
1.3500699996948242
1.5180599689483643
1.5624699592590332
1.577489972114563
1.4109300374984741
1.1840800046920776
1.1752099990844727
1.2654500007629395
1.0877000093460083
1.050279974937439
1.4278899431228638
1.5499999523162842
1.5499999523162842
1.3623000383377075
1.086859941482544
1.101699948310852
1.5111700296401978
1.8363399505615234
1.6906499862670898
1.5499999523162842
1.5499999523162842
1.5000799894332886
1.1755599975585938
0.9659429788589478
1.12076997756958
1.2400000095367432
1.2400000095367432
1.2706700563430786
1.477329969406128
1.6753499507904053
1.7686100006103516
1.8627300262451172
2.0119900703430176
2.159950017929077
2.0334599018096924
1.8878999948501587
1.6255300045013428
1.334589958190918
1.349329948425293
1.5131200551986694
1.5809999704360962
1.5809999704360962
1.6670399904251099
1.8120800256729126
1.967020034790039
2.123990058898926
1.849910020828247
1.4032100439071655
1.366919994354248
1.567710041999817
1.6396900415420532
1.5828100442886353
1.480970025062561
1.3167400360107422
1.3391200304031372
1.5242700576782227
1.5499999523162842
1.5499999523162842
FIELD FieldData 2
Curvature 1 88 float
0.17566164392
0.20445571591
0.23105110507
0.24486251367
0.23674528644
0.2091183016
0.17321276428
0.13805219359
0.10739305494
0.082058879383
0.061297610339
0.044773188802
0.037882978428
0.051536297741
0.090585688418
0.17522757931
0.42345170136
2.3407836144
0.6382464476
0.23797787996
0.12201608994
0.0756858961
0.07334124724
0.10271929261
0.15444475025
0.2350748355
0.35103128087
0.47447420708
0.51704085856
0.43645690055
0.32930942342
0.25161214008
0.19833986936
0.16451788101
0.14878892885
0.15815001761
0.20630467947
0.29416279834
0.39578120825
0.40143196388
0.30290646925
0.21037661519
0.14885940751
0.10583681749
0.071624223412
0.042436703617
0.027300892752
0.050758424167
0.092296239749
0.13656198556
0.17004307529
0.18057179477
0.16911308768
0.14936012316
0.13211115729
0.11998840006
0.11237193363
0.10732666344
0.10205233712
0.094194355083
0.082274125745
0.065104457146
0.044965908771
0.031468949072
0.036208001198
0.052073142598
0.070305347856
0.088989144488
0.10857431977
0.1299101831
0.15269286519
0.17541293713
0.19357530984
0.19747744797
0.1842840524
0.15827333394
0.12786000783
0.099561814577
0.076328256864
0.059857972185
0.052699834693
0.061352038427
0.092943037171
0.15237741859
0.2427043301
0.33318003441
0.34292446319
0.28277107973
Torsion 1 88 float
-0.0047356752616
-0.0068511253319
-0.010066243998
-0.015129015883
-0.024340206541
-0.040531540982
-0.066183213035
-0.10266954216
-0.14564897828
-0.19145542638
-0.23814774922
-0.30446942355
-0.3313791931
-0.17635858588
-0.082868156268
-0.062307304667
-0.068519473626
-0.23678610072
-0.085907850743
-0.076620192797
-0.11918466584
-0.21146507578
-0.20801047081
-0.12011187376
-0.071713813028
-0.046805393501
-0.026692438886
0.0009392526822
0.026462588324
0.059659366227
0.087754624002
0.12269243602
0.17090926118
0.23725199353
0.31717831171
0.35810102465
0.3261376414
0.29133445984
0.26514532683
0.22498890089
0.18388772726
0.15513883229
0.13192820696
0.098605515733
0.062224966565
-0.012742027594
-0.22497639998
-0.072100633716
-0.016320817401
-0.0056196270832
-0.006478122095
-0.010908743765
-0.017326345099
-0.023324301811
-0.030123327995
-0.039175887766
-0.049018567506
-0.057592813176
-0.066725984269
-0.080997826044
-0.11051766612
-0.18855272658
-0.40675562803
-0.8031863318
-0.54581522393
-0.23066896012
-0.10665902162
-0.0544782399
-0.029086149529
-0.015768116596
-0.0060976056289
0.0015219374383
0.01429320296
0.033874713989
0.056729216012
0.086666902281
0.12050838742
0.15946132875
0.22417708572
0.3293652539
0.45322008003
0.44099816514
0.29094993292
0.1722004138
0.10195782019
0.059789114121
0.032380970832
0.016790813056
