# vtk DataFile Version 2.0
Vessel Segment
ASCII
DATASET POLYDATA
POINTS 86 float
0.0 0.0 0.0
-0.46492894506052973 0.45955427037094615 0.3681499047874462
-0.9949749902822844 0.702771297002268 0.8400245504240338
-1.5448853260985211 0.7284603476717605 1.3515508639242275
-2.088149068715091 0.5860539014510248 1.852324979403574
-2.618867393373306 0.3243919199422396 2.3178514270564663
-3.1395791519703926 -0.02299993292365066 2.736631664741919
-3.654614992020244 -0.43498473588166114 3.1003747208505334
-4.167934525457945 -0.8978975547932295 3.3995248268670277
-4.681252634574807 -1.4032252239979237 3.619145130142756
-5.190689469402781 -1.9456678456502576 3.731680719707881
-5.674810425621333 -2.517680792260971 3.6816486015626575
-6.051098899688302 -3.079390201915424 3.366892212102737
-6.159079511207239 -3.50563815376478 2.7674724838895415
-6.000095394730226 -3.749377906144366 2.076127088665421
-5.695494412859211 -3.892231589108849 1.4027039225704987
-5.3173386541710554 -4.000734926376051 0.7601970646277169
-4.8997534216703285 -4.112898768201947 0.14307872565719615
-4.462230546051861 -4.253288376113302 -0.45402648119106703
-4.01865857982609 -4.440649236684809 -1.0334330772820053
-3.582777946136095 -4.693275326784897 -1.5933492669989506
-3.1722117667346827 -5.031629863921251 -2.126083717806127
-2.816383661533718 -5.482669544310925 -2.611549232897599
-2.5791395243447623 -6.081790165147729 -2.9935136255118033
-2.600945164244108 -6.809576809062189 -3.1215814338366763
-2.9476633133526975 -7.416464251439288 -2.8764971225841687
-3.436488801305632 -7.762809228487808 -2.4259061032590816
-3.954213759101325 -7.917312431602312 -1.9026547806043492
-4.465664583597001 -7.936952391664501 -1.3506535417950536
-4.955760565739179 -7.853838997690399 -0.7849133041635176
-5.413370638163581 -7.688209000174139 -0.21006168611876683
-5.82677406467819 -7.455519128870951 0.3750208285194062
-6.180213583830545 -7.171304451182262 0.9763078413537877
-6.449343279503233 -6.856996722786929 1.6052978945253629
-6.592645623532302 -6.552918466664178 2.278048781183825
-6.545227134128402 -6.348904446831876 2.9972481947541745
-6.275050562638345 -6.38586842127048 3.691804009151562
-5.88793297722517 -6.695846214312339 4.253363865117819
-5.501637224936652 -7.186688540574655 4.671396334362294
-5.163655859860368 -7.78610826878785 4.97562414417324
-4.890194804513366 -8.454826903148389 5.187030389164928
-4.687750386246698 -9.167977226111436 5.318609148360299
-4.557217078547857 -9.906890664427651 5.38178489921666
-4.4940413276914954 -10.65745362289389 5.39208986049376
-4.484632264222729 -11.41062878578061 5.373046690863514
-4.506512680966172 -12.163655819299976 5.356171337551686
-4.52891582345788 -12.91638516976379 5.377004878477759
-4.514876292938409 -13.663885838424116 5.466989196183821
-4.428103818726454 -14.391224533434409 5.640460079924052
-4.245521554573008 -15.078536964200188 5.887038503737677
-3.9622782636971707 -15.711934578211014 6.179094067650337
-3.587033816805891 -16.28633753519118 6.48929547906407
-3.1327837172429502 -16.801224533713253 6.798600992669469
-2.6131921869864914 -17.257566248429672 7.097004042405405
-2.039983523030633 -17.65536267934044 7.380845548034024
-1.4231642914365032 -17.992798529535015 7.651170961051857
-0.7710981041763396 -18.26525187788775 7.9119370447523085
-0.09214928538279829 -18.465060590440075 8.169791816655884
0.6039754184198032 -18.582293590135382 8.43212607760113
1.305177113856437 -18.607593801215565 8.705587845108552
1.997403451520072 -18.537555672552283 8.993759998251065
2.66890734528315 -18.37966187367826 9.296121235601246
3.315499867555353 -18.15250691315915 9.608936275756303
3.9412129145543937 -17.880187450965373 9.928472685955123
4.5554705051178574 -17.58755717359379 10.252414520511936
5.16977296178778 -17.299533861979054 10.580314542682993
5.794567321845047 -17.041829355924094 10.913322179386142
6.4358576317504 -16.840653295365406 11.253513378245623
7.09215761270734 -16.72169544313291 11.603129308103108
7.752728953823212 -16.705864116996768 11.964013040125506
8.398560933276903 -16.805630670231665 12.337621654532093
9.005603504222984 -17.0237575731067 12.725441074039157
9.547119861101576 -17.356137796479846 13.128710813857671
9.993686461893361 -17.794214020744636 13.546631829996418
10.314006693654422 -18.32428285509983 13.97333485235414
10.482340052124922 -18.923142113062504 14.395855712645535
10.490128683578078 -19.55898849067743 14.797542319850434
10.353390500180062 -20.20080882597535 15.165983498249652
10.108410253368925 -20.82994202339134 15.499625847927108
9.797347528437253 -21.44329623846206 15.807340929274588
9.45977872679427 -22.048234497769677 16.103921916576006
9.135819483427307 -22.656958601869903 16.407619344914174
8.878229618334835 -23.28143195561786 16.74010434488911
8.766105212392196 -23.91933932548821 17.12095652096741
8.880221219459333 -24.5280426879162 17.543962941135153
9.21475669619599 -25.048921737446943 17.96931681174162
LINES 1 87
86 0 1 2 3 4 5 6 7 8 9 10 11 12 13 14 15 16 17 18 19 20 21 22 23 24 25 26 27 28 29 30 31 32 33 34 35 36 37 38 39 40 41 42 43 44 45 46 47 48 49 50 51 52 53 54 55 56 57 58 59 60 61 62 63 64 65 66 67 68 69 70 71 72 73 74 75 76 77 78 79 80 81 82 83 84 85
POINT_DATA 86
SCALARS MaximumInscribedSphereRadius float
LOOKUP_TABLE default
0.6200000047683716
0.8009849786758423
0.8679890036582947
0.6815009713172913
0.6200000047683716
0.6200000047683716
0.8856719732284546
1.2031199932098389
1.0979299545288086
0.9331650137901306
0.9300000071525574
1.0951800346374512
1.4782899618148804
0.68367600440979
0.8275259733200073
0.9300000071525574
0.9300000071525574
0.9097840189933777
0.8820430040359497
1.0562599897384644
1.3167200088500977
1.0843900442123413
0.6320019960403442
0.6714749932289124
0.9861119985580444
1.2400000095367432
1.2640700340270996
1.6236300468444824
1.8149000406265259
1.6598000526428223
1.5073200464248657
1.3528499603271484
1.2400000095367432
1.2400000095367432
1.457610011100769
1.88332998752594
2.122580051422119
1.4742300510406494
0.9908199906349182
1.1720099449157715
1.458490014076233
1.8112900257110596
1.8740899562835693
1.8596999645233154
1.6905800104141235
1.5499999523162842
1.5499999523162842
1.4425499439239502
1.2488900423049927
1.2400000095367432
1.2400000095367432
1.2400000095367432
1.335800051689148
1.5152900218963623
1.5709799528121948
1.555109977722168
1.4548699855804443
1.3129899501800537
1.5490399599075317
1.9169000387191772
1.8184900283813477
1.656209945678711
1.4265300035476685
1.2688499689102173
1.4308700561523438
1.6340700387954712
1.9572900533676147
2.1700000762939453
2.1700000762939453
2.098360061645508
1.9444199800491333
1.9096399545669556
1.9504400491714478
1.9155800342559814
1.8600000143051147
1.8600000143051147
1.9055800437927246
2.0768699645996094
2.1700000762939453
2.1700000762939453
2.2555599212646484
2.4201600551605225
2.3677799701690674
2.1882400512695312
2.013079881668091
1.8600000143051147
FIELD FieldData 2
Curvature 1 86 float
0.32079709915
0.34222592162
0.29842628588
0.22890814167
0.17158125856
0.13329626636
0.11202319954
0.1079380045
0.12462995685
0.16842716576
0.25470068899
0.41806515821
0.59998546626
0.4851189783
0.28272882982
0.15989034235
0.092829355669
0.063264801591
0.066723761315
0.092496035308
0.13383230859
0.19958523137
0.32025525759
0.55178622294
0.75486703591
0.51818085167
0.30656349127
0.20145268213
0.14678833352
0.11781431904
0.10690233916
0.11400849075
0.14408973087
0.20778285182
0.32125432768
0.46519588061
0.45720478148
0.32481801272
0.22862217827
0.17918996604
0.15336628405
0.13542356311
0.11545833305
0.084336320704
0.05154640041
0.06169866885
0.10912691663
0.15146375467
0.17130605153
0.16781669169
0.15274184047
0.1357556247
0.1202459971
0.10763927555
0.099658091636
0.09772754498
0.10255218282
0.11274291908
0.1240511815
0.12917325791
0.1217186809
0.099414892575
0.068110474121
0.033679036771
0.0095502489724
0.042771894113
0.078935852489
0.11172369061
0.13792617134
0.1552794715
0.1656038404
0.17480633887
0.18886639962
0.20767869395
0.22184585667
0.22136075656
0.19961529506
0.15525919983
0.098859481394
0.039854081737
0.02879462236
0.10507613423
0.20745344036
0.3178325667
0.35313973653
0.29923582966
Torsion 1 86 float
-0.034570134648
-0.055044552587
-0.077003957899
-0.097789244713
-0.12050674699
-0.146664026
-0.16611373187
-0.15528972831
-0.099724799112
-0.036978404615
0.0067981421477
0.046756206213
0.098360596813
0.10672409592
0.11501567427
0.16549359891
0.28934379167
0.42950816285
0.30540189844
0.14784530512
0.07379883359
0.040518332499
0.021232662376
0.0079522440045
0.0036991253912
-0.00064417227476
-0.012526056759
-0.034339248146
-0.072814081674
-0.13206377298
-0.20475049496
-0.25938451821
-0.26333033023
-0.2414669963
-0.23241530556
-0.23619570142
-0.21434061609
-0.16854748226
-0.12821486254
-0.093445952337
-0.069194276875
-0.069142719282
-0.10274530336
-0.23640614119
-0.74867466434
-0.61202323411
-0.25670511044
-0.19065703135
-0.18505663421
-0.17372664637
-0.13667452541
-0.089482125379
-0.037538396871
0.016473300783
0.068521369524
0.12026104468
0.13760459839
0.12632252552
0.098699897816
0.068485002643
0.041084347604
0.024305576328
0.033892961009
0.1553633357
2.2208979015
0.065345771022
-0.024899337359
-0.050723820771
-0.070922014449
-0.089906320185
-0.10564704207
-0.10756341649
-0.090778304387
-0.062675213551
-0.035657985851
-0.020496083123
-0.0089203698188
-0.003287364169
-0.0048488339506
-0.038774422012
-0.091638511812
-0.0083253816392
-0.0034170189871
-0.0021079422456
-0.0011366689784
-0.0005480795056
