# vtk DataFile Version 2.0
Vessel Segment
ASCII
DATASET POLYDATA
POINTS 81 float
0.0 0.0 0.0
-0.7191191157734345 0.3035297772560139 -0.17298904119292674
-1.4863851911459174 0.5246421448321302 -0.23454213307840177
-2.2747244714465436 0.6667753544549218 -0.24469526755611734
-3.0739426546602955 0.7196954612956715 -0.23598147216039056
-3.871898366730099 0.6563828383714093 -0.23222455320062316
-4.636918524234182 0.4259178162095733 -0.25316815662244346
-5.290742876398412 -0.02789939250236368 -0.2985744255436584
-5.754152121301866 -0.6775658233990265 -0.31951802896547865
-6.072470955152954 -1.4084527559466025 -0.24829209053748558
-6.375760588441369 -2.12247167126532 -0.05124138615296405
-6.761708537739083 -2.754312558509937 0.2519697238698553
-7.248939301866533 -3.289507315403979 0.5944302689017382
-7.815069938319909 -3.7679442361465023 0.8979600461577522
-8.415974183643389 -4.267486381012849 1.0647937781621315
-8.908801445758593 -4.875504986671668 0.9469631380603353
-9.089064943265258 -5.544998923312168 0.5588569425014406
-9.02303526287902 -6.194186590997237 0.09608655678797992
-8.83533721308022 -6.818513640322319 -0.36955945764225073
-8.58984299035571 -7.417179591395419 -0.842321357131424
-8.319007861336015 -7.972759140510488 -1.3520959221028837
-8.03802112256221 -8.456791796878964 -1.9250214892966027
-7.749439735517868 -8.850893205648006 -2.559741054705197
-7.44750863096044 -9.164095829446538 -3.2325100976466636
-7.119596998556033 -9.437169252716613 -3.9109572112886872
-6.741723223102252 -9.758125858402279 -4.538481606010942
-6.346742811175617 -10.342962566388897 -4.686449932865482
-6.338988829288484 -10.730509188385195 -4.003285324393296
-6.514615642315987 -10.835869114131498 -3.231791952829273
-6.784811149783886 -10.728430990113214 -2.48779544673621
-7.1093653408127215 -10.418345663722654 -1.826696638258242
-7.439994793040905 -9.947342532910467 -1.2707976595481765
-7.739207315412755 -9.384009764270067 -0.7860438089151028
-7.990617465720015 -8.791418312034512 -0.3088053209251678
-8.186628308606744 -8.221850186216365 0.21911345493153225
-8.316209993523039 -7.732060935881736 0.8380856749600628
-8.35993754175647 -7.412623717267259 1.5675317437020462
-8.308375963646707 -7.4152614891018365 2.3585324290531084
-8.223560163738028 -7.803687114255728 3.046332197280852
-8.186388927000946 -8.406829653829588 3.5699344806151894
-8.209970302257345 -9.082558185286034 3.9996900261355317
-8.274562168285195 -9.774993113269334 4.3980271170759355
-8.35138384233914 -10.463671122292867 4.800842321240705
-8.409100729637451 -11.142356855178887 5.223082504117909
-8.419651816975758 -11.810730882332395 5.6649870473133435
-8.365932754966616 -12.46991158851678 6.117364916943291
-8.246502679804433 -13.121025744475252 6.568863021053846
-8.069598148396944 -13.763291166999062 7.014285101603251
-7.843368808406469 -14.39274243117562 7.45563007123609
-7.571574628239984 -15.003087765053841 7.898174998345121
-7.254374941514086 -15.58776475824296 8.345117228327517
-6.890970793060382 -16.141553138304463 8.796135044502874
-6.481200562176871 -16.660464228290802 9.248831581366016
-6.025706157500752 -17.13986096254192 9.701368784612562
-5.525844583039409 -17.57166954839478 10.1549458493569
-4.983296084204231 -17.941853189762337 10.61371764741939
-4.400697670467995 -18.230058732438344 11.081842862429403
-3.7848442725710405 -18.414367131075444 11.559241446397737
-3.1474869353278687 -18.482027884536848 12.039357850189848
-2.5022559253946652 -18.43829290327585 12.511959653700622
-1.8580083621859138 -18.304058714873005 12.968893397458729
-1.2171494971866115 -18.106072783148 13.407361213651194
-0.5780577868441155 -17.868228861105564 13.828482249403208
0.061545468267456 -17.608074039749603 14.235453850111941
0.7026437148725551 -17.337231287111887 14.633016381461614
1.344373578230529 -17.063558456875068 15.027613325401893
1.9847761696913935 -16.794426444120823 15.427446170197626
2.6217176385716283 -16.53993940158109 15.842052061990595
3.2528954616390418 -16.314861990273286 16.28157536809779
3.874376519062403 -16.13966667402566 16.75594394508447
4.478141431752291 -16.04189262938917 17.273039851620485
5.048733885946517 -16.055738263254394 17.834246774376286
5.560304670618481 -16.216048846500808 18.42784492537125
5.97903779861649 -16.542617197410266 19.025448144092497
6.277027969134217 -17.021838207266047 19.59193099169835
6.444317212315232 -17.612071102676968 20.105509742061297
6.4830398553191815 -18.266183437011865 20.56526536802914
6.393963405890131 -18.941439685332035 20.986042578608497
6.167039363707674 -19.592058782595398 21.392974250617858
5.781198907424028 -20.150391696653255 21.81459801633061
5.232615996283396 -20.51189587980267 22.265873987271135
LINES 1 82
81 0 1 2 3 4 5 6 7 8 9 10 11 12 13 14 15 16 17 18 19 20 21 22 23 24 25 26 27 28 29 30 31 32 33 34 35 36 37 38 39 40 41 42 43 44 45 46 47 48 49 50 51 52 53 54 55 56 57 58 59 60 61 62 63 64 65 66 67 68 69 70 71 72 73 74 75 76 77 78 79 80
POINT_DATA 81
SCALARS MaximumInscribedSphereRadius float
LOOKUP_TABLE default
0.6944000124931335
0.8223230242729187
0.9300000071525574
0.9300000071525574
0.9300000071525574
1.0859299898147583
1.2743300199508667
1.2550300359725952
1.3054900169372559
1.4883999824523926
1.435289978981018
1.2632299661636353
1.3866599798202515
1.5375299453735352
1.3403899669647217
1.1152199506759644
0.9810559749603271
1.333709955215454
1.5499999523162842
1.5499999523162842
1.5645099878311157
1.6223299503326416
1.6548500061035156
1.5956000089645386
1.5673199892044067
1.643970012664795
1.594789981842041
1.5607000589370728
1.5499999523162842
1.5499999523162842
1.5499999523162842
1.5499999523162842
1.6562600135803223
1.8102999925613403
1.9695299863815308
2.140899896621704
1.6821199655532837
1.2400000095367432
1.2400000095367432
1.383430004119873
1.5451099872589111
1.5499999523162842
1.5499999523162842
1.5499999523162842
1.5499999523162842
1.694200038909912
1.8516199588775635
1.8600000143051147
1.8600000143051147
1.725350022315979
1.5887999534606934
2.045380115509033
2.5254099369049072
2.09089994430542
1.596940040588379
1.8590799570083618
2.205049991607666
2.041019916534424
1.8225699663162231
1.6858099699020386
1.5555800199508667
1.8436599969863892
2.1496798992156982
1.8834600448608398
1.5753200054168701
1.7028499841690063
1.8685799837112427
1.8738199472427368
1.8617099523544312
1.9902900457382202
2.1439199447631836
2.180490016937256
2.1933701038360596
2.0385000705718994
1.867210030555725
2.011090040206909
2.1633100509643555
2.025330066680908
1.870919942855835
1.8719300031661987
1.8847999572753906
FIELD FieldData 2
Curvature 1 81 float
0.40339447795
0.20696449153
0.12612440364
0.1127699926
0.1531891688
0.23481904494
0.33766767553
0.36270118804
0.24853082202
0.16817244158
0.21000778251
0.18756744891
0.13625325814
0.20605687172
0.44509487378
0.58624061496
0.3668131336
0.18711876975
0.087399265104
0.075937933175
0.12395590035
0.14005484117
0.11604484721
0.082252121841
0.1967760243
0.74477270014
1.7015609744
0.46364163757
0.29826251928
0.28807969745
0.24759837565
0.15516018591
0.07048173242
0.10394842872
0.18548836404
0.29393222957
0.45155802196
0.54300875277
0.37458384816
0.19469523107
0.08416733018
0.021489464017
0.038808009888
0.06862096653
0.08448745426
0.083518810207
0.072920898388
0.063204143428
0.06129290598
0.065313434405
0.069744514858
0.072571807446
0.075057124159
0.080453670571
0.09339664735
0.11497611511
0.13810473188
0.14970968406
0.14124652705
0.11579340261
0.083117849101
0.053692467492
0.03258022109
0.018224746573
0.0053719905282
0.0098150644483
0.027179312433
0.048439060139
0.07612931344
0.11243566515
0.15673770581
0.20347866397
0.24095076369
0.24976349309
0.22713003278
0.19253971646
0.16763878493
0.1745204314
0.23129047651
0.3271836488
0.39270261943
Torsion 1 81 float
-0.1226329726
-0.18804380231
-0.311000456
-0.31201094696
-0.15167378156
-0.030988628145
0.088263128383
0.25805582677
0.6416537977
1.1305330748
0.48215819345
0.42749457382
0.85877405936
0.6032423284
0.31360870173
0.25783731261
0.16277567082
0.027351707728
-0.44380921548
-0.63198363895
-0.073486906797
0.081019952729
0.20569032846
0.58079110645
0.21175632399
0.067034600065
-0.019321432818
-0.028201004069
-0.053856318596
-0.087381445669
-0.15469479217
-0.35968611298
-1.4578384119
-0.52093961797
-0.15232727742
-0.096286328655
-0.13787736679
-0.21057142695
-0.21749151766
-0.22491100763
-0.32499401739
-1.9395706811
-0.60625133718
-0.27071522972
-0.19233196628
-0.11883398598
0.0082451175429
0.15194753135
0.16069746137
0.069699954069
-0.001624507383
-0.0097173240444
0.037038457932
0.10931279578
0.13259397663
0.095909047301
0.047123313766
0.007617894067
-0.021144653949
-0.048837145973
-0.087145827545
-0.14144769722
-0.18409402807
-0.15917281189
-0.030352360245
0.044945265858
0.078876695151
0.075812034934
0.062432781599
0.052919926612
0.047291055246
0.037060798833
0.017639551028
-0.017466136468
-0.071543785239
-0.15345982121
-0.29031831943
-0.36005765039
-0.27362509632
-0.16907918192
-0.094751755262
