# vtk DataFile Version 2.0
Vessel Segment
ASCII
DATASET POLYDATA
POINTS 78 float
0.0 0.0 0.0
0.008126257277177796 0.8234659613779192 0.10065259604199295
-0.1503304703710879 1.6199810049802967 0.27221570999931566
-0.44311982175133424 2.3608687399565857 0.5067985544671969
-0.8374250934062654 3.032245455161033 0.7964319826823274
-1.307051535370231 3.628193451836852 1.1351199365293836
-1.8331096447756772 4.145015735448223 1.518176526367796
-2.402665817699123 4.578194105381848 1.9406729485455279
-3.0068799431071103 4.919510232114267 2.397760325956251
-3.639391983663906 5.153682473543409 2.8827843818729235
-4.294261124601957 5.25540389123586 3.383174707998887
-4.960280018666372 5.188110441310641 3.8732936894076966
-5.61172289665235 4.9187705197696685 4.309510835265423
-6.213817401411886 4.460120656749699 4.648938501457077
-6.758247254223346 3.8814273908239354 4.891490492688268
-7.27441288641017 3.255489700448473 5.073158829522644
-7.802656046528447 2.6325907859971123 5.228782082766178
-8.37526940982525 2.047981388501734 5.374790642717105
-9.006384303019315 1.523846609551602 5.507898117878345
-9.690332210114004 1.0634712734566263 5.613151975453686
-10.41150081251422 0.6542865391073207 5.6714905178851875
-11.152306270164043 0.2775566838772621 5.661548282473893
-11.888183707755417 -0.09292949766449289 5.554075287864757
-12.567448075990294 -0.4949662913279669 5.299937081880146
-13.05419760498197 -0.9699666181004649 4.834795929598893
-13.17194037712109 -1.4868703954447153 4.204421532343011
-12.981727735831736 -1.97501785539271 3.5621318110278506
-12.63112602511257 -2.4307903627671665 2.9625683135490903
-12.20008373129269 -2.87243154342289 2.4055664852538015
-11.726891938515248 -3.3166194032310963 1.8859499069169672
-11.232665359531879 -3.77945914115209 1.4034725301527784
-10.730550343924495 -4.279684129031539 0.9692269057558667
-10.229503366373983 -4.843259523914576 0.6214194897621642
-9.745547348514183 -5.496887844410178 0.4754924235441163
-9.35065849553654 -6.152899072998919 0.7581440329135157
-9.122320108350548 -6.576956413598727 1.4266433924724493
-9.005562313348252 -6.767991828152729 2.225048463802762
-8.954866159154957 -6.792476776915081 3.0534432288327182
-8.958646214610827 -6.684922288573066 3.8770721776763963
-9.020105810292895 -6.466689907857713 4.676298455084187
-9.14787387876336 -6.160704448702884 5.438139482533523
-9.351151375901745 -5.7973677750341315 6.157418840799387
-9.635773723138374 -5.416036658270724 6.838819285148009
-10.001493304900265 -5.06518889916575 7.497459470215698
-10.438040343657436 -4.803572859595862 8.153799808110298
-10.91829858338783 -4.701440838864673 8.822464505915747
-11.387793381629452 -4.821814134669911 9.494415595218276
-11.778245527726677 -5.177263155308234 10.132679212691759
-12.046516627617192 -5.721282405080955 10.697815525996871
-12.189403350723968 -6.38764647211973 11.171583260059567
-12.226542552296612 -7.123686897176862 11.55463123036854
-12.181351143040608 -7.896464540297338 11.856697154409302
-12.076918491542745 -8.68687382268244 12.091830865167704
-11.934442371474708 -9.484563864866093 12.277878706550768
-11.772000286851203 -10.284660714747242 12.435563594517435
-11.603643637845252 -11.084560882638458 12.587948255472595
-11.437586052418807 -11.880672767341158 12.761046429263676
-11.27111786395362 -12.664131378725546 12.983592492666542
-11.082547634819221 -13.415561777697928 13.283965854562885
-10.825944243415007 -14.098605613693485 13.679815785072995
-10.43713607665991 -14.652690318968803 14.157782013566154
-9.879723645325882 -15.010817074786763 14.654177971390645
-9.195201364133109 -15.175931605333206 15.092606418346312
-8.448068388281344 -15.220013544021512 15.453207175011713
-7.672094466926104 -15.205655073112217 15.751205856547562
-6.8811672291810675 -15.169601540452115 16.005106241879012
-6.081587551066272 -15.132739535110296 16.230125326637335
-5.277168398968171 -15.106230417193112 16.43894949096983
-4.471131126116262 -15.093902286238134 16.642802733495074
-3.666383256509095 -15.093706730663984 16.852078835427935
-2.8658013621985976 -15.09982478450563 17.076621299387956
-2.072524127291008 -15.10617698590551 17.325665755270805
-1.290511441970041 -15.111568697468108 17.608003731307658
-0.5251458105736682 -15.124023378787125 17.93243498346232
0.21560283654121604 -15.16116478421673 18.307817449522318
0.9194757654265387 -15.246359968320531 18.74134863246776
1.569066619973473 -15.403475673496619 19.234896031711
2.1447437331790002 -15.64910933015706 19.78100184963439
LINES 1 79
78 0 1 2 3 4 5 6 7 8 9 10 11 12 13 14 15 16 17 18 19 20 21 22 23 24 25 26 27 28 29 30 31 32 33 34 35 36 37 38 39 40 41 42 43 44 45 46 47 48 49 50 51 52 53 54 55 56 57 58 59 60 61 62 63 64 65 66 67 68 69 70 71 72 73 74 75 76 77
POINT_DATA 78
SCALARS MaximumInscribedSphereRadius float
LOOKUP_TABLE default
0.6200000047683716
0.7742980122566223
0.928712010383606
0.8156939744949341
0.7028499841690063
0.9483190178871155
1.221909999847412
1.0561399459838867
0.7721620202064514
0.9000729918479919
1.197119951248169
1.082759976387024
0.9300000071525574
0.9300000071525574
0.9462260007858276
0.9734799861907959
0.9597219824790955
0.9345570206642151
0.949957013130188
0.9739890098571777
1.2655199766159058
1.6462500095367432
1.5733100175857544
1.2973099946975708
1.177839994430542
1.1503499746322632
1.2213000059127808
1.2400000095367432
1.2400000095367432
1.2400000095367432
1.2400000095367432
1.2400000095367432
1.2400000095367432
1.2400000095367432
1.2400000095367432
1.2400000095367432
1.2400000095367432
1.2400000095367432
1.3065400123596191
1.3787800073623657
1.3273799419403076
1.2559200525283813
1.25409996509552
1.2726500034332275
1.3858100175857544
1.534999966621399
1.3917200565338135
1.2427300214767456
1.2628400325775146
1.2725399732589722
1.254480004310608
1.2641199827194214
1.405310034751892
1.5448600053787231
1.5499999523162842
1.5499999523162842
1.436210036277771
1.2817000150680542
1.2400000095367432
1.2400000095367432
1.2400000095367432
1.1754599809646606
1.00068998336792
1.103700041770935
1.3959699869155884
1.5499999523162842
1.5499999523162842
1.5499999523162842
1.5499999523162842
1.538040041923523
1.2655600309371948
0.9874370098114014
1.1051199436187744
1.2359999418258667
1.0872199535369873
0.9288769960403442
0.7719420194625854
0.6200000047683716
FIELD FieldData 2
Curvature 1 78 float
0.23994244485
0.2195272805
0.18964685117
0.16142325231
0.14000508219
0.12661830988
0.12133203071
0.12602566533
0.14248934623
0.17202943439
0.21496712845
0.25977558015
0.26877892735
0.20714577541
0.11518433508
0.05691042363
0.078989442283
0.10695985562
0.10759702421
0.093973421033
0.094385492224
0.12642068325
0.21254882218
0.37885549708
0.52807979486
0.40417335194
0.24008343291
0.1368648148
0.075359575559
0.054924640054
0.09212821435
0.17347489451
0.32594042086
0.58529934626
0.6355775245
0.37623487117
0.23636617741
0.17790806657
0.1535890273
0.13938160622
0.12458741528
0.11059343082
0.11010289275
0.14169778948
0.20488136717
0.27272309042
0.30447749626
0.28847877516
0.24263296767
0.19181997361
0.14883823587
0.11113226751
0.075157158831
0.041257752217
0.018963304735
0.040847227018
0.078118246481
0.1231164959
0.18030990647
0.25221073073
0.32099691838
0.30751639063
0.21290029306
0.12847479031
0.072139570732
0.037963452475
0.024504040191
0.025501670772
0.028084883096
0.031005712499
0.036618896391
0.044837043636
0.055820494287
0.073968215574
0.099988951022
0.12978174906
0.15561111311
0.16971613674
Torsion 1 78 float
-0.039011294397
-0.051214229523
-0.063361252318
-0.072258026757
-0.070899659107
-0.051125732697
-0.021643025917
-0.0012804468982
0.032413116088
0.058581907024
0.072522242738
0.073770117961
0.065457643468
0.073108883288
0.21881742315
0.75130158021
0.15490675872
-0.088348662695
-0.22815303817
-0.35664281716
-0.43495871676
-0.35657358885
-0.22931356612
-0.14841990947
-0.0947805592
-0.074063842166
-0.076397383027
-0.12450287596
-0.29677320059
-0.48784671929
-0.13436220554
0.0030308877373
0.065737437905
0.13319818442
0.13606751049
0.077804424731
0.025121895762
-0.040872084528
-0.11043291471
-0.18387110516
-0.28852145536
-0.45254457071
-0.57416521324
-0.43646289661
-0.26803132757
-0.16907777823
-0.10599263815
-0.059350893987
-0.019028156238
0.0054263727347
0.021211178143
0.036462336132
0.044069934013
0.01858034459
-0.28699797469
-0.006525078244
0.14014668932
0.2102287777
0.26022262853
0.24924121318
0.20503361047
0.15167013741
0.13099087316
0.14830646117
0.22381562346
0.43819218594
0.58860628936
0.35597194846
0.27656535874
0.25595720282
0.13208917591
-0.078372676917
-0.24082889873
-0.23961273348
-0.16666213795
-0.10723608002
-0.067435709423
-0.042939267109
