# vtk DataFile Version 2.0
Vessel Segment
ASCII
DATASET POLYDATA
POINTS 77 float
0.0 0.0 0.0
-0.8297466002324266 0.11007435166490294 0.09327227104871066
-1.6674411106576597 0.12302821381738667 0.17718543248663718
-2.497479834350515 0.014210032885459013 0.26410670835746264
-3.2929762540744933 -0.23669253564810222 0.37426236041244393
-4.020105422243762 -0.6291757481898704 0.5317236806159552
-4.657639169358746 -1.1320648904580375 0.7529547950215101
-5.212346948487439 -1.6985564437722047 1.036618232506055
-5.712143487682038 -2.2906241433298433 1.3673370604677122
-6.187619254303493 -2.8862850013038854 1.7264711718244004
-6.664097725735913 -3.4742557988516936 2.0968900961490227
-7.161137225231679 -4.048437412592095 2.461624369669343
-7.693528844346512 -4.6068228387778625 2.7999487694165652
-8.271303616503317 -5.152420191841894 3.078346811049565
-8.888945868179132 -5.705289944504698 3.2141615038633917
-9.332495290441878 -6.330035618497946 2.942699501391782
-9.24590878088314 -6.968069920955765 2.4083008785297197
-9.011471932528387 -7.631512986501012 1.9456139820926486
-8.776867701017592 -8.326213660843441 1.5306488205062732
-8.556138736080168 -9.030276633047245 1.1238742746889676
-8.325127662985777 -9.718291545899701 0.6959536568248129
-8.044891594886888 -10.364851230438678 0.23493740369758725
-7.6766454633402414 -10.951318767832685 -0.24379755209083173
-7.191307640577224 -11.473764639227934 -0.6901877056304327
-6.565809539444428 -11.934363231527698 -1.0080355659549802
-5.8299884031006055 -12.323085902497018 -1.0099580810615387
-5.2100059754907715 -12.571144551503133 -0.5226977431919627
-4.899514206343019 -12.655893034595982 0.24964639780058595
-4.812759516565589 -12.64686709717199 1.086096693432561
-4.855802493673541 -12.59680359226198 1.9255551034974354
-4.978327760960148 -12.53896713241036 2.7569886868239877
-5.1523376958578435 -12.502359639120963 3.5804006316628096
-5.360530459470245 -12.520496002609617 4.3963727937468144
-5.589199762505321 -12.636503688624945 5.198138111195952
-5.821212743348031 -12.898185732407716 5.963044063558979
-6.033166845595527 -13.328111759893805 6.653816813172917
-6.204919499074577 -13.895523123503564 7.251065419941431
-6.329367281467743 -14.544757750288648 7.772760458322427
-6.406677575931071 -15.232772663141104 8.252665502077857
-6.435595008794233 -15.933407468896604 8.719532195040133
-6.410438117503518 -16.630532010751075 9.191833261135292
-6.321010079605277 -17.313114144595943 9.677253978413683
-6.153519320104159 -17.973130637818183 10.17270493205233
-5.891920170836761 -18.60372675164648 10.665565432085538
-5.522087087558291 -19.19537599331401 11.136527432932349
-5.037166925622735 -19.73353515774852 11.564948606139337
-4.444347595988195 -20.199926004310043 11.938125367225442
-3.7629355501103374 -20.578551485656693 12.255721355753275
-3.0180039877018534 -20.859457086379756 12.529522737096258
-2.2332894344150307 -21.03791303672703 12.776997936244163
-1.4290261226276035 -21.11200558928108 13.015195326171362
-0.6233336775126227 -21.08287852894154 13.258240451122646
0.16845161852307328 -20.95753644225751 13.516245644910994
0.9359994350323232 -20.751808993414837 13.795479805261563
1.6769440900763766 -20.490936765282257 14.099871653965495
2.3971364220216076 -20.207389698944294 14.432679583127108
3.106822870471493 -19.93779999663243 14.797916006115559
3.8142026196185674 -19.719661485300445 15.199675433752738
4.518607133166966 -19.58409786722068 15.64071729692542
5.208385347862078 -19.54565155040275 16.122042706319277
5.864915339613475 -19.597386495685253 16.646745859133173
6.466629838581348 -19.720162837705928 17.222841220291006
6.986760442250321 -19.896245135487973 17.860842843180265
7.39080106318558 -20.119724763623047 18.564202806128684
7.645697513381741 -20.401399529801264 19.31455001069783
7.742831951490497 -20.765231528404243 20.066502100908373
7.709484344797882 -21.23197308253081 20.76546546629138
7.594447481087608 -21.80175012807932 21.373913998855834
7.4445919319353235 -22.454495018765435 21.884057606813197
7.291334818300607 -23.163537639861538 22.31199416593031
7.15083005941772 -23.90596204171128 22.684543439446912
7.027610052400699 -24.66333814324029 23.03253760397191
6.91836095947479 -25.419485572697667 23.387752757554892
6.814000401217251 -26.15659416448339 23.78194038893621
6.701241866361167 -26.84963186724396 24.24666786538455
6.565225217798947 -27.460605942624472 24.80898370711958
6.394491347378964 -27.94201150663085 25.476946366960085
LINES 1 78
77 0 1 2 3 4 5 6 7 8 9 10 11 12 13 14 15 16 17 18 19 20 21 22 23 24 25 26 27 28 29 30 31 32 33 34 35 36 37 38 39 40 41 42 43 44 45 46 47 48 49 50 51 52 53 54 55 56 57 58 59 60 61 62 63 64 65 66 67 68 69 70 71 72 73 74 75 76
POINT_DATA 77
SCALARS MaximumInscribedSphereRadius float
LOOKUP_TABLE default
1.5499999523162842
1.4372999668121338
1.3126200437545776
1.175279974937439
1.0267000198364258
0.9883000254631042
1.1427899599075317
1.1882100105285645
1.0455600023269653
0.9526259899139404
1.0893299579620361
1.2283600568771362
1.375290036201477
1.5406899452209473
1.3479299545288086
1.8421800136566162
1.551800012588501
0.9752529859542847
1.176419973373413
1.3966699838638306
1.710279941558838
1.9564100503921509
1.7441600561141968
1.5824700593948364
1.8355499505996704
1.9839999675750732
1.9944100379943848
2.1091299057006836
2.1700000762939453
2.1700000762939453
2.1359500885009766
1.9983400106430054
1.8567099571228027
1.7074799537658691
1.555050015449524
1.709380030632019
1.8559999465942383
1.7092700004577637
1.5686299800872803
1.668969988822937
1.8062200546264648
1.6897599697113037
1.406149983406067
1.3642699718475342
1.6606700420379639
1.759909987449646
1.4617600440979004
1.2571799755096436
1.326159954071045
1.394469976425171
1.4673099517822266
1.5399099588394165
1.4298499822616577
1.2902100086212158
1.599560022354126
2.165299892425537
2.414720058441162
2.2674500942230225
2.2259700298309326
2.38713002204895
2.4477200508117676
2.2831499576568604
2.064500093460083
1.733739972114563
1.6285500526428223
1.8001099824905396
2.075659990310669
2.3958699703216553
2.1521201133728027
1.720479965209961
1.7207399606704712
2.005280017852783
2.1910998821258545
2.1798999309539795
2.1700000762939453
2.1700000762939453
2.1700000762939453
FIELD FieldData 2
Curvature 1 77 float
0.13401109755
0.152833347
0.17375102092
0.19318064642
0.20168752014
0.18740091637
0.14975739046
0.1004986681
0.054091497229
0.020036457694
0.034232444849
0.076384196463
0.14224353169
0.27924908575
0.67661374202
0.92503219171
0.35220949335
0.17370199822
0.082957376121
0.043265064605
0.087205772069
0.13456631275
0.172999552
0.25580136199
0.43125922479
0.67965219877
0.58191074152
0.33211451418
0.18636161782
0.10416280833
0.065501413867
0.080868979455
0.12956572974
0.18691295965
0.22511768085
0.20917496913
0.15241789969
0.095721227929
0.06375119108
0.063773615855
0.079919300468
0.098743108085
0.11843175152
0.14009161223
0.15907702298
0.16759194057
0.16293714492
0.14849033936
0.1341789395
0.12598480204
0.12228330688
0.11679430363
0.10314893148
0.078929723584
0.050516679728
0.046743729433
0.078453194994
0.11109700962
0.12752586429
0.12515313214
0.12173923858
0.13775291006
0.17098614565
0.20152953173
0.21319535114
0.21021600701
0.19668571379
0.16862623401
0.12830761897
0.085479472806
0.042616937769
0.019540500247
0.054790382052
0.10154707418
0.15443132004
0.20491439905
0.23367014597
Torsion 1 77 float
0.049231898515
0.069036316214
0.097107932833
0.13148098482
0.16182372741
0.17583702383
0.17043330288
0.15665010791
0.28323742978
1.3498062154
0.45908683018
0.15451925801
0.12195668526
0.14022846595
0.29469768351
0.64269849389
0.25894712814
0.12071168208
0.12059703047
0.51597323983
0.30615503122
0.31258716484
0.3580073339
0.32192070594
0.2576122604
0.13984449118
0.047313630089
0.034259632962
0.083077045646
0.24535161436
0.61916665888
0.42440936188
0.17474145113
0.089683897223
0.07033436776
0.090320241908
0.15946065098
0.31918583324
0.5169839409
0.30557166476
0.043080942535
-0.084128077844
-0.11518555674
-0.092031815323
-0.028013551114
0.043716105119
0.10491544445
0.16237301123
0.19425792748
0.18939474758
0.15873537732
0.13347409344
0.14200241197
0.24324611689
0.67144531163
0.85458691838
0.26108165801
0.04929969879
-0.077142173171
-0.21092386414
-0.29246943224
-0.19567754274
-0.015555082405
0.14361948123
0.28220235656
0.3183271907
0.26397728223
0.19581773754
0.16852798219
0.19819886079
0.48395513942
2.0304457899
0.33125453885
0.12873572548
0.07053525095
0.042861182786
0.02594911559
