# vtk DataFile Version 2.0
Vessel Segment
ASCII
DATASET POLYDATA
POINTS 69 float
0.0 0.0 0.0
-0.9251252126187947 0.11129374394704755 0.11778032113630617
-1.852975576516659 0.026319224195222923 0.23847225127077598
-2.7518756902311194 -0.22625209921937 0.3477920534031818
-3.6105439653256344 -0.6000801045137663 0.4343640138060925
-4.434244246639248 -1.0512701346054287 0.4899158640573856
-5.23519847908605 -1.544757381128542 0.5070233597842805
-6.026283002459644 -2.0532849527043617 0.4757235630540215
-6.8156750634599215 -2.555888905973572 0.3793751224374493
-7.60140072027224 -3.037346043889741 0.19137912716069966
-8.362876116426209 -3.4889107822822756 -0.12473483548598395
-9.05422906729928 -3.910113391128073 -0.6010195645599717
-9.612481685404697 -4.316465718365626 -1.237290395204853
-9.992512995584343 -4.729114579347976 -1.9905867517962457
-10.188781259283216 -5.163948323177171 -2.8000947321064955
-10.221585267805015 -5.628202943644214 -3.6167472702108845
-10.116873122769457 -6.123475881400192 -4.409145961931556
-9.896166347830455 -6.649392428144231 -5.156803765383032
-9.57365903685406 -7.2067055862034435 -5.842234890812178
-9.156311082778 -7.797292482807557 -6.442972975930825
-8.645714547665307 -8.42481952214453 -6.9208569385185825
-8.04422346021955 -9.088818767053942 -7.197492064872432
-7.393948579153082 -9.753101284267363 -7.124551239452919
-6.845565670120872 -10.2994152297627 -6.607281669431874
-6.5060476780024965 -10.667509660194948 -5.815445936593853
-6.341269254478345 -10.913502073992078 -4.9236903806735315
-6.299439975207314 -11.096797183312432 -4.0021374469518065
-6.347472559363595 -11.25753270148507 -3.07644837901902
-6.46449987817279 -11.425318652160959 -2.1579970977399197
-6.635200127140867 -11.626755738976644 -1.2549626426770815
-6.844626210074667 -11.889290896755334 -0.37627167713214066
-7.0740749834588925 -12.241500563810902 0.46510085165370163
-7.298259912004074 -12.70829298140658 1.2497938195602676
-7.485596133813259 -13.299537858615572 1.9560920737638146
-7.60647810739219 -14.001041998003178 2.5698965421205258
-7.6421955177748355 -14.781222330535128 3.0934626458863677
-7.587396669850654 -15.604078173524767 3.5455921360242355
-7.44367362568268 -16.440280982762452 3.9517562126800105
-7.212062659902035 -17.26778930441603 4.334607695860957
-6.890968124720316 -18.06775566952417 4.711068520006218
-6.477189760247299 -18.820789819948086 5.0935443984549496
-5.968473938089701 -19.505261763841506 5.489838766037516
-5.368017332412379 -20.099307988993623 5.902958253474311
-4.686910591776072 -20.585915124968427 6.331211294823358
-3.9432956936761103 -20.957760224134766 6.770556777595829
-3.157475015141561 -21.218152462790883 7.216857671149318
-2.3473090542264305 -21.377760718551208 7.667482053064306
-1.5264280494827749 -21.450176235204427 8.12120898385326
-0.7037604570749136 -21.44885086146558 8.57784931650306
0.11514660585410029 -21.386163865949236 9.036933320990608
0.9277562386069752 -21.27384639740985 9.497992163724136
1.733635464845622 -21.123976523531162 9.960159892027471
2.534430132513584 -20.950033882399797 10.422806314667326
3.3329209716331225 -20.767396305468655 10.886130439401583
4.13224862941023 -20.59377324211064 11.35141864520572
4.934621912671101 -20.44986284379223 11.821472728238533
5.739467105356982 -20.359126959806662 12.300249536442722
6.541389483652928 -20.347160946040656 12.791829177070488
7.327905120585207 -20.44017197277171 13.298899599500212
8.07789364552536 -20.661010074902286 13.820981212964035
8.76283554354972 -21.02284427705908 14.35323328821624
9.353244162370734 -21.522272622299965 14.887309153033334
9.82894733161173 -22.137195836971244 15.415650994772612
10.184485896455069 -22.83479915537501 15.936247669718744
10.424745771888789 -23.582230834020518 16.454014759134488
10.557304057836188 -24.350689766488852 16.979922117457274
10.586651048922036 -25.112457007071534 17.530757662640646
10.510093739334911 -25.83200130896348 18.130980579872553
10.314470542026902 -26.4454525413513 18.81416764351164
LINES 1 70
69 0 1 2 3 4 5 6 7 8 9 10 11 12 13 14 15 16 17 18 19 20 21 22 23 24 25 26 27 28 29 30 31 32 33 34 35 36 37 38 39 40 41 42 43 44 45 46 47 48 49 50 51 52 53 54 55 56 57 58 59 60 61 62 63 64 65 66 67 68
POINT_DATA 69
SCALARS MaximumInscribedSphereRadius float
LOOKUP_TABLE default
0.6200000047683716
0.9363890290260315
1.2284499406814575
1.0880099534988403
1.0151000022888184
1.1735399961471558
1.3768800497055054
1.6684800386428833
1.6494499444961548
1.3310699462890625
1.4210200309753418
1.5086400508880615
1.3573499917984009
1.414639949798584
1.5463199615478516
1.5499999523162842
1.5499999523162842
1.4054299592971802
1.25996994972229
1.499210000038147
1.8197100162506104
1.7606500387191772
1.651419997215271
1.590559959411621
1.564810037612915
1.5751999616622925
1.7341699600219727
1.8600000143051147
1.8600000143051147
1.8600000143051147
1.8600000143051147
1.841249942779541
1.6902799606323242
1.6768900156021118
2.0027499198913574
2.091020107269287
1.9300299882888794
1.945989966392517
2.0991499423980713
2.0884299278259277
1.9351199865341187
1.9399399757385254
2.096630096435547
2.0019900798797607
1.688420057296753
1.7221699953079224
2.0292201042175293
2.0067899227142334
1.7049299478530884
1.5499999523162842
1.5499999523162842
1.6804699897766113
1.9922800064086914
2.205359935760498
2.2355101108551025
2.2440600395202637
2.2009499073028564
2.1737101078033447
2.186530113220215
2.1899800300598145
2.1767399311065674
2.1700000762939453
2.1700000762939453
2.264009952545166
2.4218599796295166
2.379930019378662
2.217710018157959
2.179879903793335
2.1947999000549316
FIELD FieldData 2
Curvature 1 69 float
0.22596470348
0.21685437342
0.18289510943
0.13808243091
0.09578660066
0.064860652577
0.058168321114
0.078304999544
0.1113974346
0.15111987333
0.19368136866
0.22601626052
0.23779067406
0.2226714662
0.19390869797
0.16337888362
0.13964625147
0.13039813213
0.1409424691
0.17906506656
0.26097733913
0.40597656315
0.54230467669
0.43791206927
0.27529733268
0.16980997892
0.10804622161
0.07541933386
0.069669869954
0.085913137527
0.11344692927
0.14305052798
0.16522706892
0.17060891894
0.16051209947
0.13628781513
0.11155033283
0.098432431292
0.099419157333
0.11062445383
0.12608584433
0.13925245066
0.14469580501
0.14020659388
0.12764174647
0.11085525337
0.093790592804
0.078538793187
0.065372998453
0.05324434468
0.040669788591
0.026312155882
0.00988781662
0.010316854245
0.032815665822
0.058598959528
0.086713335953
0.11608612105
0.14415055502
0.1669641894
0.17921355789
0.17524079142
0.15706374563
0.13406250273
0.11644835171
0.11474350199
0.14059953084
0.20562667598
0.32479198666
Torsion 1 69 float
-0.027246029529
-0.044260265209
-0.071398199138
-0.11859474325
-0.22090914558
-0.43863984188
-0.48995668654
-0.19399872553
0.013450923552
0.096416951689
0.19478007777
0.23249224679
0.20503631172
0.16410005585
0.12847696428
0.10961870616
0.10621541721
0.10691114516
0.10015903229
0.08614150425
0.074103048353
0.071945554814
0.077838284978
0.087860236182
0.10323431325
0.14642610042
0.24385009713
0.4075307169
0.45695572074
0.32902858816
0.22681256254
0.17674227728
0.15700996314
0.15785317609
0.16991248918
0.21620670659
0.26969471687
0.27352940997
0.21729773418
0.14591857713
0.091905059327
0.058739607334
0.043323826642
0.039460846018
0.042009895285
0.047244317496
0.0507787926
0.04865935845
0.037052429161
0.021536217126
0.0081265209874
0.011553088262
0.21012311969
0.21665609153
-0.019617140842
-0.038951655161
-0.041233280213
-0.0422539783
-0.044837818298
-0.04780855041
-0.055650117009
-0.074180736284
-0.10630524533
-0.15947889736
-0.23561980889
-0.29386639215
-0.26388861417
-0.19186654497
-0.13689202454
