# vtk DataFile Version 2.0
Vessel Segment
ASCII
DATASET POLYDATA
POINTS 89 float
0.0 0.0 0.0
-0.6731273219944809 0.27202944285890385 0.005919730374030269
-1.384951146192032 0.41519080319070917 -0.0019498344288501653
-2.1107956018546625 0.4332405416747261 -0.018626702202723295
-2.8312966023611112 0.34169746764226916 -0.03847893593205439
-3.5346883565550864 0.16012877546760454 -0.056744863685371794
-4.215915891139758 -0.09284296365169036 -0.07089493331168839
-4.873825278677716 -0.4019054906415945 -0.0807129555417037
-5.509209672156965 -0.7550100404933232 -0.09060395886262937
-6.122358241937716 -1.144572087759061 -0.11731641513753358
-6.70561761248639 -1.5689309683701689 -0.20344374142375624
-7.217332104913758 -2.027007112981859 -0.43323916467301077
-7.571735167383006 -2.492733879123699 -0.8583925752738406
-7.755975242885332 -2.941132455680334 -1.398408583955558
-7.83069686396381 -3.382387147338046 -1.970910817104389
-7.841814775813059 -3.8328815205053512 -2.5413929887368902
-7.814164581370043 -4.3038766952098895 -3.094475366694991
-7.7623287287996785 -4.803681499801718 -3.619834569119165
-7.697569715131321 -5.340087009985946 -4.105993286712473
-7.631585169936356 -5.922985606085214 -4.534828799899987
-7.582636889962954 -6.566455753636643 -4.867067642759932
-7.5902172844056235 -7.275476690842722 -5.002504023468962
-7.714969508805721 -7.937211389145754 -4.764984997598647
-7.924550546874523 -8.358034129351998 -4.217749368923667
-8.145465686061875 -8.58299214557544 -3.5640288206036206
-8.350570091554271 -8.700524749982273 -2.876880178643203
-8.528385077053056 -8.760157186264609 -2.1745721247991607
-8.669381790688426 -8.792500202553333 -1.4620838972739827
-8.762223377338401 -8.822028627336003 -0.7417261049459238
-8.792328765839779 -8.874007688084758 -0.017471397763595267
-8.743669656226588 -8.977536185047096 0.6998542367873957
-8.60584968554839 -9.163943661249288 1.3878676358250155
-8.390566483376574 -9.453441747868357 2.0177660544705502
-8.134780152751228 -9.84459285511354 2.573663712435561
-7.880366692836024 -10.321941515732425 3.0585941444988305
-7.6582962492095445 -10.866432779988832 3.485552804348405
-7.484740330016151 -11.458862981961335 3.8691221401492024
-7.361287995235286 -12.082118744332313 4.222226001500074
-7.2794197352544545 -12.723133697825382 4.555331666939793
-7.2254178589859395 -13.373245124649653 4.876453286451346
-7.182678479746779 -14.02711163515152 5.191437609317854
-7.133153236054671 -14.681555109372093 5.5044011821671734
-7.057133102358675 -15.333111010995705 5.817797822055952
-6.933536182397704 -15.976581158547134 6.132638248243211
-6.741858920631098 -16.602579908334967 6.448128619240087
-6.466725715905932 -17.197751720722614 6.761099077097984
-6.103297784194677 -17.747368185363328 7.066994500142721
-5.658363743953711 -18.2407465229499 7.361165442082625
-5.145637155265604 -18.673408723904206 7.640421389943369
-4.57992078656972 -19.046292526394357 7.903346785961635
-3.973775647512932 -19.36264903147015 8.149862108288366
-3.336658985875849 -19.62558200099785 8.380877555057367
-2.6760789035110872 -19.837111496493787 8.598226259802118
-1.9978105456125725 -19.99745646123069 8.80491938102353
-1.307631122876802 -20.10610878157562 9.005728573915508
-0.6116903249642596 -20.162564474900783 9.207909260515915
0.08325490070812842 -20.168485582276528 9.421157598402962
0.7699116088057592 -20.129571513802443 9.656620072211492
1.4415589982067325 -20.05665514197271 9.925024902305324
2.0927537811305084 -19.965258030122072 10.234963202386153
2.71953983164906 -19.87378656017881 10.591589778375162
3.3196206551517125 -19.801520133158693 10.995395703509072
3.8922607605972868 -19.767444848712135 11.441738416504778
4.437834864577556 -19.78866995315161 11.921442438557667
4.95635776986096 -19.88086159499197 12.422147716208688
5.445208783995481 -20.05882116567086 12.929328774738893
5.896856396099341 -20.33482188147666 13.426780283399292
6.297907930520939 -20.71449292542147 13.898413547789303
6.631444575981892 -21.19220373749148 14.331877572539291
6.883150140508326 -21.7507004861941 14.722056602636087
7.047313315845211 -22.366086683762195 15.07150710631108
7.128365401090608 -23.016054213907218 15.386239179675867
7.1377658905817665 -23.684359275894753 15.671689225502414
7.089653278524331 -24.361760811213493 15.93104818707808
6.998424634227299 -25.04399906505719 16.164828481166168
6.878215654861585 -25.73093082924745 16.370387985725465
6.743159132985109 -26.424503184209694 16.54162623890681
6.607830459628997 -27.127288369148083 16.66884019812342
6.487926383775783 -27.840758398896263 16.73850099364778
6.399858179118863 -28.56199643957082 16.733851547356103
6.357935534022084 -29.280851923027498 16.638237023501965
6.3683625890498154 -29.980171538898933 16.442301039680398
6.422963686978825 -30.64371183070114 16.15155194700299
6.500577373391307 -31.266461889192176 15.784998565648454
6.576117561476755 -31.855222897969075 15.365360563293002
6.625425712242187 -32.422960705183 14.913985769653983
6.625845891406216 -32.98339257160864 14.45107436958166
6.556406212235419 -33.54722769777362 13.997884644650586
6.400395311987172 -34.11906697990132 13.57782138543728
LINES 1 90
89 0 1 2 3 4 5 6 7 8 9 10 11 12 13 14 15 16 17 18 19 20 21 22 23 24 25 26 27 28 29 30 31 32 33 34 35 36 37 38 39 40 41 42 43 44 45 46 47 48 49 50 51 52 53 54 55 56 57 58 59 60 61 62 63 64 65 66 67 68 69 70 71 72 73 74 75 76 77 78 79 80 81 82 83 84 85 86 87 88
POINT_DATA 89
SCALARS MaximumInscribedSphereRadius float
LOOKUP_TABLE default
1.2400000095367432
1.2400000095367432
1.2400000095367432
1.2753000259399414
1.3382099866867065
1.4191700220108032
1.5751800537109375
1.735010027885437
1.5612200498580933
1.3234399557113647
1.4044500589370728
1.5499999523162842
1.5499999523162842
1.5499999523162842
1.5499999523162842
1.5499999523162842
1.5499999523162842
1.606160044670105
1.975160002708435
2.364459991455078
2.4800000190734863
2.4800000190734863
2.305690050125122
2.31141996383667
2.77308988571167
3.0430500507354736
2.783050060272217
2.526249885559082
2.3719100952148438
2.234189987182617
2.335319995880127
2.647439956665039
2.6098101139068604
2.2878000736236572
2.4672999382019043
2.925290107727051
2.9436399936676025
2.6612000465393066
2.43503999710083
2.304450035095215
2.175450086593628
2.1700000762939453
2.1700000762939453
2.2511401176452637
2.394659996032715
2.4176299571990967
2.1339199542999268
1.8670099973678589
2.1429800987243652
2.4136099815368652
2.3173201084136963
2.0537400245666504
1.8834400177001953
1.9730099439620972
2.0633699893951416
1.9613800048828125
1.823740005493164
1.9165699481964111
2.2414000034332275
2.496840000152588
2.488600015640259
2.480299949645996
2.3460700511932373
2.2060201168060303
2.1700000762939453
2.1700000762939453
2.343329906463623
2.6441400051116943
2.770669937133789
2.687930107116699
2.577239990234375
2.3889000415802
2.2060298919677734
1.9580299854278564
1.7090100049972534
1.8174899816513062
2.3100900650024414
2.796070098876953
2.9343299865722656
3.0778799057006836
3.2178499698638916
3.358299970626831
3.045789957046509
2.4773199558258057
2.048150062561035
1.756019949913025
1.5499999523162842
1.5499999523162842
1.5499999523162842
FIELD FieldData 2
Curvature 1 89 float
0.19419429249
0.19045420552
0.17408811887
0.15038120171
0.12515610371
0.10236030157
0.086028464457
0.082132956379
0.10119268576
0.15659558506
0.26280596192
0.37046241089
0.32161192745
0.21773321856
0.14165127259
0.094898924281
0.071437960264
0.074969025104
0.11176494993
0.18803893971
0.33861720245
0.60174195621
0.60396993595
0.34290150139
0.18579900946
0.10315618767
0.064597970623
0.07004409901
0.10295032377
0.14450959477
0.18444944944
0.20085062765
0.18301638328
0.15606497333
0.13548989736
0.11939205483
0.099883714607
0.075878273868
0.049481896293
0.022036610018
0.0095899990142
0.037719707769
0.068292048316
0.09871987623
0.12354694941
0.1374719154
0.13769820829
0.12768572468
0.11315307537
0.09875453605
0.087188019743
0.079405409268
0.075185057444
0.073572266852
0.072952941522
0.072297245484
0.070899894251
0.069157179958
0.069037899528
0.072833016207
0.079370947393
0.087253846816
0.096266935268
0.10817930565
0.1249873915
0.14477749184
0.16261047906
0.17231943206
0.17031817946
0.15649688518
0.13581679814
0.11255515757
0.090012860488
0.070074200201
0.055417052335
0.052135184841
0.064274073974
0.088016974239
0.11730026208
0.14511828392
0.16085788906
0.15361843255
0.12332249687
0.088055190831
0.06493306361
0.070420090186
0.097735794249
0.13034129447
0.15754612214
Torsion 1 89 float
-0.017654175583
-0.024945592792
-0.033892101084
-0.041942846361
-0.041158665396
-0.029184640887
0.00046896185698
0.10699107636
0.20135294436
0.16232622157
0.063365398719
-0.072699270465
-0.127671044
-0.1375326698
-0.15878095614
-0.20765342898
-0.27326723428
-0.24211869753
-0.13932805495
-0.082669594894
-0.056787765174
-0.030308502747
0.017124978852
0.058137841722
0.11718032372
0.25842732343
0.54247449981
0.44927756129
0.23574350965
0.15800589682
0.14494046101
0.18590115411
0.25752660757
0.29673178763
0.27605669193
0.19745577019
0.1255138121
0.075879535265
0.020464254802
-0.20032402593
-1.3430511242
-0.069282934047
-0.017967531547
-0.011314896573
-0.012626753827
-0.013358337169
-0.0113475456
-0.0086327897498
-0.0074487950351
-0.011632462456
-0.026288290393
-0.051260016847
-0.08628133695
-0.132000262
-0.18386831555
-0.23723728826
-0.29003756066
-0.34164274568
-0.37039642276
-0.35198236372
-0.3121254078
-0.27533413485
-0.23944952244
-0.19130536581
-0.12961736677
-0.064316987696
0.0026771591217
0.054771022278
0.094466373688
0.10093547891
0.072462900654
0.027371314362
-0.035885123763
-0.13708452315
-0.31336229069
-0.41639595558
-0.29714728006
-0.1625093338
-0.076318268657
-0.019545325144
0.027677667746
0.095611892522
0.19466781774
0.38383332638
0.67576117743
0.5460168811
0.26972607156
0.137427877
0.076830059038
