# vtk DataFile Version 2.0
Vessel Segment
ASCII
DATASET POLYDATA
POINTS 72 float
0.0 0.0 0.0
-0.8873900841854018 -0.08731496047942487 -0.13056932771250276
-1.7565111210722455 -0.31361850294974924 -0.20265993976763258
-2.5776309642622937 -0.6841920910402697 -0.2083018137545558
-3.324689895171988 -1.1844416674260478 -0.14919622320974696
-3.986852543642064 -1.7862432674704831 -0.03967246903429559
-4.56913220066605 -2.4615702885767137 0.09447875687698948
-5.084963119621829 -3.191613067909741 0.21430238999314533
-5.545449697357415 -3.9651800952175766 0.2605117805375696
-5.945933928919025 -4.763465123877142 0.14910740169981052
-6.258925556981339 -5.536135395555813 -0.1875261209592343
-6.464989751927881 -6.232238109457365 -0.7199239596241167
-6.574781678739102 -6.853206366482504 -1.363996057868488
-6.60424479844859 -7.4259923705790545 -2.059919420644207
-6.561080960831409 -7.974331962171564 -2.7747395596589
-6.445734273437241 -8.513894451286992 -3.4882154192828243
-6.254178730517621 -9.055068538375977 -4.183781787912837
-5.980323226218064 -9.604750701253295 -4.844062103614646
-5.616734083399275 -10.167597236766767 -5.447207983049849
-5.156515678299459 -10.747011546042323 -5.961516979594987
-4.592594744136949 -11.34433620036477 -6.329135544374161
-3.933747529335845 -11.941750530250134 -6.394060651925766
-3.486782318382119 -12.277398475770077 -5.76548449095338
-3.5975615304384028 -12.163844445581262 -4.885973899562915
-3.916821907375075 -11.925899306938405 -4.077481229684501
-4.316411091413481 -11.670581022573174 -3.3101829512510252
-4.752270197413233 -11.442577060619357 -2.5539890696655623
-5.199592402512664 -11.277439084481982 -1.7884825943844571
-5.635899032274019 -11.215468146188742 -1.0021081885861736
-6.032891895252745 -11.304216207568873 -0.19863051780724753
-6.356986212057111 -11.58219166344471 0.5935634049978321
-6.5849022065539735 -12.0472448624652 1.3297861116952825
-6.718158384942053 -12.655405740999893 1.9808443633173456
-6.772517149023144 -13.355628406477726 2.5460190472547284
-6.762755323459939 -14.108804064831311 3.0417899698125583
-6.6957702401201935 -14.889042954020141 3.489289817931863
-6.5711997805403195 -15.677842870282072 3.908670825732448
-6.383853010706918 -16.459066482557024 4.318739239837392
-6.126564426116465 -17.215134818354404 4.737672723876374
-5.794498378795304 -17.925234606547765 5.1832919473333705
-5.391147945432284 -18.566969161785444 5.671540371241969
-4.931556415219903 -19.123385959437798 6.211909940423646
-4.437935998066111 -19.590123137421912 6.804755940918145
-3.92944822663373 -19.97494553192014 7.442559290288157
-3.417826080764169 -20.290497824330217 8.115020109592978
-2.9059357622588387 -20.54808169773856 8.81166002281905
-2.3892994713427704 -20.75449455981425 9.521643659807108
-1.8586925817772793 -20.911796172832187 10.234045974834974
-1.3031891937872047 -21.01828472947278 10.936595934683739
-0.7128498387894686 -21.07035142886837 11.61657925263779
-0.08158341092958508 -21.064763253462576 12.260651350882162
0.5910559054480885 -20.99992622012455 12.857797508131755
1.2993382688996726 -20.87637752817881 13.402195645220838
2.033143151610296 -20.697207034550953 13.89501069041434
2.7816351834206947 -20.468925078352093 14.343774536944279
3.536520655840556 -20.202161629999765 14.759358425195082
4.294219378777058 -19.911308336262618 15.153306589299543
5.054979881647425 -19.61393562910143 15.536373264383814
5.821704663504725 -19.33053309356318 15.91806149795811
6.597832995700054 -19.084492813747897 16.306385296161743
7.384564395644044 -18.902161043013983 16.70789140211411
8.17754660934981 -18.81298296595834 17.12759481491471
8.96290789480038 -18.84797180844945 17.56831689858348
9.714184993379074 -19.032998970388743 18.0297702642926
10.39526961265104 -19.376707254422172 18.508579694664498
10.972925693732007 -19.861050734592244 19.001797852864634
11.429488725387591 -20.445721526447425 19.5134821310885
11.760833131301963 -21.08319350326114 20.057764330485526
11.964256534383257 -21.724775823555103 20.656978577026575
12.029072990382291 -22.31205806922121 21.33643334294253
11.93959964452563 -22.762551403061266 22.109306345447365
11.699846722598467 -22.98620943302194 22.945553281778594
LINES 1 73
72 0 1 2 3 4 5 6 7 8 9 10 11 12 13 14 15 16 17 18 19 20 21 22 23 24 25 26 27 28 29 30 31 32 33 34 35 36 37 38 39 40 41 42 43 44 45 46 47 48 49 50 51 52 53 54 55 56 57 58 59 60 61 62 63 64 65 66 67 68 69 70 71
POINT_DATA 72
SCALARS MaximumInscribedSphereRadius float
LOOKUP_TABLE default
1.2400000095367432
1.0978200435638428
0.941540002822876
0.9300000071525574
0.9529939889907837
1.134850025177002
1.2400000095367432
1.2400000095367432
1.2400000095367432
1.1562199592590332
0.9355930089950562
1.1279000043869019
1.2400000095367432
1.2400000095367432
1.0821900367736816
0.7860339879989624
0.6826879978179932
0.8294990062713623
0.8785269856452942
0.715142011642456
0.8156710267066956
1.3585599660873413
2.0710198879241943
1.5738199949264526
1.9022200107574463
2.1076900959014893
1.7931900024414062
1.5862200260162354
1.7500699758529663
1.8650100231170654
1.8793200254440308
2.016969919204712
2.2238099575042725
2.229340076446533
2.197540044784546
2.1833999156951904
2.170909881591797
2.022890090942383
1.8653899431228638
2.0270299911499023
2.1417601108551025
1.9687800407409668
1.7963199615478516
1.625730037689209
1.642799973487854
1.8099100589752197
2.009200096130371
2.223210096359253
2.228369951248169
2.1946499347686768
2.1810100078582764
2.2027599811553955
2.371880054473877
2.5388400554656982
2.7032101154327393
2.639940023422241
2.320389986038208
2.253420114517212
2.412060022354126
2.2956700325012207
1.96943998336792
2.0043599605560303
2.2252700328826904
1.7575299739837646
1.287909984588623
1.6977900266647339
2.06112003326416
2.348910093307495
2.2065300941467285
1.6960899829864502
1.8445099592208862
2.1700000762939453
FIELD FieldData 2
Curvature 1 72 float
0.17681359378
0.19326523013
0.19880138219
0.1873372274
0.15975336041
0.1254911488
0.10319285433
0.12510724047
0.19864641332
0.27850230374
0.28126498614
0.21486552548
0.15046137641
0.10876187835
0.0890746327
0.087336115063
0.099124113512
0.12214441796
0.16019419637
0.23353997857
0.41080045599
1.0083079936
1.0023261124
0.36149423305
0.15570878022
0.067994947776
0.070821529948
0.12217938003
0.18088665586
0.23105022566
0.24511761879
0.216010998
0.16994199217
0.12361307227
0.088630444135
0.070650182024
0.071828585838
0.086434668483
0.10549510449
0.12201866423
0.12835024873
0.12169162055
0.10494795134
0.086075537236
0.069227566366
0.058058520665
0.055911018212
0.063489523912
0.075984067132
0.087826947885
0.095475345339
0.096378070235
0.089667539973
0.076401295471
0.058732725893
0.038116579561
0.016133903838
0.016518912671
0.043781540949
0.074681710758
0.10791374125
0.14246257512
0.17400985993
0.19460015855
0.19578980619
0.17658953096
0.15421117047
0.15245393899
0.18644078158
0.25144896113
0.31891572607
0.33336986391
Torsion 1 72 float
0.0011484320335
0.0017350798973
0.0012795018226
-0.01099247641
-0.055313498747
-0.19821535406
-0.4700574098
-0.44321664372
-0.17634934524
-0.046551192507
0.047890269953
0.10467201067
0.15876970928
0.20789473529
0.22256379838
0.18420544376
0.13353400726
0.10142490753
0.087594561268
0.081299874608
0.080049191492
0.08769114408
0.074699366647
0.076563547359
0.17629201641
0.60615038377
0.44833950047
0.12899128259
0.043693923752
0.0092382876402
-0.0076698527325
-0.0051678425938
0.023577158029
0.099002718326
0.22967521698
0.36809406137
0.3595159817
0.26248401141
0.20114525507
0.17707437234
0.16720142547
0.13802366303
0.095755551753
0.046519274055
-0.072638961482
-0.22625843028
-0.29506935481
-0.23294655847
-0.14211821327
-0.082251261339
-0.028578951962
0.018514628942
0.063775947018
0.07600325843
0.047554052293
-0.050413979617
-0.73513966589
-0.78096525184
-0.097521078464
-0.036782053624
-0.031432729657
-0.040005009543
-0.057150817625
-0.081202654467
-0.1219220279
-0.20465357391
-0.31323324014
-0.35964511816
-0.27987914147
-0.18531116642
-0.11324870541
-0.063521335621
