# vtk DataFile Version 2.0
Vessel Segment
ASCII
DATASET POLYDATA
POINTS 91 float
0.0 0.0 0.0
-0.6639100854549561 0.24569680716003425 0.05974581241653596
-1.35618272873535 0.36165923443411885 0.16426798210723145
-2.0453690079290916 0.30268930667177246 0.31985036655784066
-2.685224648571217 0.0672325605206778 0.5160400752883094
-3.258116459575496 -0.29358074411685936 0.731509709462208
-3.782208358683976 -0.7219067898446427 0.9493110386645823
-4.286878221531288 -1.1777066956537643 1.1576481915122068
-4.79832831945996 -1.6348455413001504 1.3451509555640844
-5.334496270521235 -2.0762377001280012 1.49769580547442
-5.903079631757414 -2.490934577572642 1.5985459932774058
-6.500618577240919 -2.8744883070921734 1.630820639656542
-7.113271109217491 -3.2315568906556704 1.582090772903135
-7.71921412476608 -3.5776068345121 1.4471299477771584
-8.29231809173049 -3.9351010770178263 1.2261523407716954
-8.800589891323119 -4.328116288848169 0.9232502046288084
-9.204833878287706 -4.774804938058439 0.5478203646047936
-9.465572879776447 -5.276861578285739 0.119492971855041
-9.564515684471216 -5.814301791596808 -0.333269399413807
-9.514585621143361 -6.360074682808602 -0.7849016192505976
-9.343890997221653 -6.8956048189675165 -1.2195842616504655
-9.077642675879378 -7.412422125931985 -1.6283488543432816
-8.731521339858586 -7.907700551610878 -2.0026498899572083
-8.311103660111266 -8.379954330772302 -2.3270909073856707
-7.808905582577214 -8.823676837606659 -2.560640270428549
-7.214544261918768 -9.190421079974051 -2.54630391561164
-6.795115296296752 -9.250096847248194 -2.0107710854087864
-6.679435743636174 -9.10129537138993 -1.3273554483305798
-6.680565895068232 -8.90913056430307 -0.6429497501051001
-6.736145368534405 -8.71371808724876 0.03855985088685932
-6.823223603725526 -8.533276412358795 0.7209167286973696
-6.930429041178628 -8.383697704824371 1.4077928652141405
-7.050346324953928 -8.28553213180576 2.101661392772401
-7.176478768094561 -8.270207062863548 2.8008264107130807
-7.300633782984584 -8.385886615524125 3.489964197115935
-7.410311005750946 -8.684479628387928 4.122885368661241
-7.4935744747256345 -9.167680655092058 4.634264747936537
-7.549931179867968 -9.770798965571487 5.004327378924756
-7.587715146100637 -10.428862302169655 5.270222107000148
-7.613138838745036 -11.109241751729558 5.475522398818483
-7.627758068175452 -11.798448236252835 5.650313316548161
-7.62888821960751 -12.490550818009634 5.814016896450348
-7.6108785358809214 -13.182018952418995 5.979274266193868
-7.565186203667788 -13.869743712776286 6.154560214497183
-7.480579753789928 -14.549628805273535 6.344888357129204
-7.343784284742066 -15.215741945158921 6.552448278300669
-7.141026496890366 -15.859327489633426 6.7762519373972605
-6.860441820731183 -16.468095210251175 7.012414523060152
-6.495534242818629 -17.027357179461326 7.255427388946797
-6.0479976432788245 -17.52220994619799 7.499781888714643
-5.527649118222415 -17.941214599899745 7.742018196436113
-4.949672972795847 -18.27773301630297 7.982347121049367
-4.330946718760697 -18.530702395074062 8.224018353054808
-3.6872911291437993 -18.70259856259219 8.471904070914595
-3.0324060908816732 -18.798575224911048 8.731230719868758
-2.377309570170402 -18.82527050629426 9.00616531237864
-1.7304480682670962 -18.790665511908614 9.299292110091919
-1.097357171953686 -18.703517231575102 9.611070447500053
-0.4810538736854171 -18.573358539768893 9.941090156413456
0.11750207338474204 -18.410150663951327 10.288688502023343
0.698918176164846 -18.22427106137219 10.653603151801233
1.2648041259079443 -18.02680976390291 11.036477308737364
1.8171090634032945 -17.83026713541654 11.439118676314239
2.357302589619162 -17.648625263952127 11.864472518067249
2.8853983431529837 -17.497492093065386 12.316041427871493
3.398910394960824 -17.394382949420255 12.796819835564234
3.891871269341916 -17.35730616972135 13.307584804443882
4.354826682134095 -17.40243409972944 13.844875498316386
4.776777409689146 -17.540078192617823 14.399786754944158
5.148666634038263 -17.7726388415354 14.958793968624407
5.466419561106939 -18.095172475855644 15.506515748058838
5.731558525668803 -18.49772190918313 16.028747220403055
5.949570916375958 -18.968846883934464 16.514246540200272
6.127540216630551 -19.49738732309583 16.95509416539712
6.271956715035098 -20.073315321618413 17.346047591726045
6.386768112036604 -20.688368920254867 17.683525424526746
6.472320508092251 -21.336050085026358 17.96394711102767
6.525322791776084 -22.010497249834437 18.18209378298737
6.539433352035426 -22.705495928824753 18.330443838108245
6.507123346329602 -23.412006257562822 18.400282717761346
6.423152859198893 -24.117527198664604 18.385473221477795
6.28841883889696 -24.80837300892425 18.28717328301777
6.1109721831663695 -25.47500946684462 18.115637780631864
5.9034966192457174 -26.11554366980367 17.88708839476046
5.679869756782568 -26.735194654420592 17.61920933494687
5.453297799161773 -27.343425923539154 17.32845548480987
5.236344041439005 -27.95138172666504 17.02988368754208
5.042060158322601 -28.570319463149335 16.738497747346088
4.885223296521632 -29.210154561706435 16.471024014861882
4.782814309639366 -29.876946937419728 16.24719439402156
4.752065307708935 -30.56885955056083 16.088683262840092
LINES 1 92
91 0 1 2 3 4 5 6 7 8 9 10 11 12 13 14 15 16 17 18 19 20 21 22 23 24 25 26 27 28 29 30 31 32 33 34 35 36 37 38 39 40 41 42 43 44 45 46 47 48 49 50 51 52 53 54 55 56 57 58 59 60 61 62 63 64 65 66 67 68 69 70 71 72 73 74 75 76 77 78 79 80 81 82 83 84 85 86 87 88 89 90
POINT_DATA 91
SCALARS MaximumInscribedSphereRadius float
LOOKUP_TABLE default
1.2400000095367432
1.140239953994751
1.0231300592422485
0.9695889949798584
1.1092400550842285
1.2409000396728516
1.257040023803711
1.2728899717330933
1.5243899822235107
1.8673299551010132
2.0214900970458984
1.8800499439239502
1.7860000133514404
2.0545101165771484
2.324660062789917
2.2876598834991455
2.2004499435424805
1.9892200231552124
1.719349980354309
1.5164799690246582
1.4222700595855713
1.3292700052261353
1.5430200099945068
1.83610999584198
1.8075400590896606
1.397879958152771
1.7738800048828125
1.6151700019836426
1.3266899585723877
1.499210000038147
1.8720699548721313
2.1448400020599365
2.0154199600219727
1.876389980316162
1.8600000143051147
1.8600000143051147
2.1655800342559814
2.4656500816345215
2.2327098846435547
1.9907599687576294
1.8796099424362183
1.8702199459075928
1.8608900308609009
1.8600000143051147
1.8600000143051147
1.8600000143051147
1.8600000143051147
1.8600000143051147
1.8600000143051147
1.8600000143051147
1.8350399732589722
1.7902799844741821
1.7632100582122803
1.8070499897003174
1.8505100011825562
1.8600000143051147
1.8600000143051147
1.9008300304412842
2.0256600379943848
2.1499900817871094
2.0659101009368896
1.9415500164031982
1.9499800205230713
2.211400032043457
2.4779698848724365
2.1234500408172607
1.7069799900054932
1.5587899684906006
1.572909951210022
1.745959997177124
2.127729892730713
2.3713901042938232
2.125499963760376
1.8849200010299683
2.092089891433716
2.34840989112854
2.4180400371551514
2.28944993019104
2.1809499263763428
2.313420057296753
2.447230100631714
2.5807700157165527
2.712430000305176
2.6872000694274902
2.4342899322509766
2.184770107269287
2.286789894104004
2.4114298820495605
2.59443998336792
2.847909927368164
3.0999999046325684
FIELD FieldData 2
Curvature 1 91 float
0.2082528097
0.25469400986
0.29052736448
0.27516260575
0.20271326031
0.11868943295
0.050663064652
0.030631297386
0.06516386633
0.094681925851
0.11450875499
0.12225032967
0.12255944752
0.12978223037
0.1545404616
0.19358114957
0.23111080295
0.24016763433
0.21552304761
0.17485564309
0.14044827858
0.12599334917
0.1472461679
0.23011580937
0.46202660562
1.1582477128
0.6369082308
0.25725311058
0.12446412697
0.063085281342
0.051171693295
0.083097796445
0.13507253269
0.20456761709
0.28388068295
0.32300958909
0.28134892476
0.19233232438
0.1171049196
0.065328379531
0.03338808853
0.027083841282
0.042273130937
0.062260507783
0.083133437617
0.10391474797
0.12334897795
0.13871116242
0.14746587833
0.14787490926
0.1411859533
0.13069783985
0.11931021448
0.10883592929
0.099541999503
0.090496292594
0.080463232691
0.069623069085
0.058157441114
0.04658336965
0.036863844009
0.034091059163
0.043282498123
0.06167549469
0.084614755703
0.10882504231
0.13031832937
0.14516258599
0.15111153077
0.14844139565
0.13998552683
0.12899805942
0.11791579689
0.10847375836
0.10182236268
0.10005655872
0.10484802765
0.11589188842
0.12980979142
0.14000723171
0.13946100978
0.12508764221
0.099805998436
0.069124646027
0.038307544222
0.017926405896
0.036605410647
0.068997976453
0.10484584382
0.14091038554
0.17058208359
Torsion 1 91 float
-0.001444580464
-0.0025800126355
-0.0050138364168
-0.011366261701
-0.031364501771
-0.10611092378
-0.57584500762
-1.2517021727
-0.099808776441
0.064624688713
0.13900047775
0.2356542954
0.33688225538
0.36347846595
0.2783274477
0.16898312413
0.081508875083
0.026401798379
0.0072244460057
0.01458670113
0.041304194899
0.085466789885
0.10900834701
0.096480910481
0.087375533613
0.097309635329
0.059797061314
0.067831604831
0.12787205377
0.3346355951
0.43939557812
0.16969025294
0.069844151637
0.031075847143
0.0065890334104
-0.0075362158382
-0.010151229671
0.00079374847729
0.033305132858
0.13032242199
0.43974213815
0.48478366277
0.10236986956
-0.014921848866
-0.049153350651
-0.053180796522
-0.042959888947
-0.022835659147
0.0034321933322
0.036801656328
0.069588592209
0.097709112533
0.11685328492
0.12392509246
0.11709229244
0.099534369775
0.085747443688
0.092738865016
0.12497221071
0.21305262401
0.39432253499
0.53240351618
0.35969504179
0.18026893849
0.091316740855
0.047147047067
0.026930851327
0.02458956353
0.035402972419
0.054434152627
0.073688241274
0.086372781696
0.088766105867
0.073910745079
0.038453956481
-0.00080177378117
-0.028290338487
-0.038267764145
-0.03255390511
-0.018947182203
-0.0031661037973
0.015943356853
0.044326079517
0.11005349582
0.36533824839
1.6668032129
0.41079834219
0.12241579045
0.056563554324
0.031973195779
0.019773903676
