# vtk DataFile Version 2.0
Vessel Segment
ASCII
DATASET POLYDATA
POINTS 77 float
0.0 0.0 0.0
-0.5357888234796369 0.44835381512555145 -0.4640778745191873
-1.1624925898165557 0.9633055333785341 -0.6763991877288668
-1.8212254664253797 1.481788910014298 -0.631413045140934
-2.4683962516257254 1.9547809340754914 -0.37881446718703005
-3.085227974247561 2.354616948230329 0.029767293180934483
-3.6645907581143864 2.660107002182124 0.5575000221752354
-4.2013210363945195 2.8467812903241136 1.1774776793646573
-4.688187890914132 2.8816760639091132 1.8618656002473084
-5.11610876880234 2.733683218490064 2.569712906763447
-5.483487046117244 2.398762678015093 3.2474577172821197
-5.805373970857578 1.9141668626735084 3.8550745701318077
-6.110864024809373 1.338671741926609 4.388188186444106
-6.431236923431022 0.7270196245487296 4.870431166705064
-6.792392296783532 0.12318783699575517 5.333163418434445
-7.212998054833472 -0.44061848888569977 5.795813874261228
-7.704236980539035 -0.9454804419769767 6.256865300384272
-8.271238960066126 -1.3852585180595078 6.696810175954455
-8.914339196231277 -1.7655854075239958 7.084285385769558
-9.626981988017405 -2.0999173382685035 7.38161830323869
-10.391252428914216 -2.407256621155515 7.55214832558546
-11.175367197317906 -2.710729042843214 7.567957388564149
-11.935098767541115 -3.036735433776179 7.415254061460164
-12.613263784461372 -3.412270045653133 7.091768908936705
-13.133176183630768 -3.8579342190402994 6.607089693851294
-13.414449838889734 -4.370026288384791 6.005947548036705
-13.425044814038078 -4.91617432235234 5.369322018906653
-13.202043522095 -5.460977535450697 4.769945702283454
-12.810196241093948 -5.987448843319631 4.244062202224369
-12.298607777894867 -6.492394196154733 3.8069769755626783
-11.696458419789456 -6.975560988962686 3.4724766414892914
-11.021908460995807 -7.432913155294683 3.2647808063794943
-10.293206406999513 -7.849397843310765 3.2287906092361665
-9.553404167868237 -8.183729774055273 3.4352258251412104
-8.902988811864818 -8.36527497795197 3.9278103736365795
-8.43411705591687 -8.366283794084017 4.622708266082521
-8.13451309926971 -8.234771219197333 5.397155079567318
-7.952883693708573 -8.024720143245068 6.191696419790473
-7.849540184219698 -7.773803192818115 6.988845605849415
-7.799508357130299 -7.511114047781892 7.787424616362602
-7.787736162521029 -7.267092010791622 8.593402948378497
-7.806487472231422 -7.081090534044535 9.41426492698486
-7.854669268464991 -7.007178312999451 10.250851766905472
-7.9374114373876425 -7.103121699065005 11.081635909265273
-8.059422856843085 -7.391878075570502 11.861294404818574
-8.216413251547966 -7.843931952407714 12.552578041058522
-8.396612832654856 -8.414633993646467 13.14385576140386
-8.586061766120284 -9.071609060270037 13.634371354715855
-8.769120996135667 -9.795182030021039 14.023376629061918
-8.929139443077919 -10.570897481916726 14.307819474586266
-9.050393047553404 -11.384469200223846 14.485782499101518
-9.120774412136322 -12.219734875933367 14.561982599657519
-9.131706193942422 -13.061391858934165 14.550504308953174
-9.076208475949974 -13.897935796101942 14.473421694761784
-8.944948506056608 -14.721480199161165 14.357716979972869
-8.723124433574458 -15.524103495809449 14.234612943681247
-8.389297712816589 -16.290787918233683 14.14215069499981
-7.9241260185803 -16.990639474790665 14.124080215890457
-7.332065623715983 -17.58023556760905 14.212860045113736
-6.650789154814529 -18.0332619235505 14.406269263529973
-5.922591508884258 -18.357667981658732 14.675534157598623
-5.173203912657301 -18.57787290124174 14.989533792142806
-4.41338974461088 -18.716635903527184 15.324857698686474
-3.6466806631277757 -18.790128444431087 15.665361611434404
-2.874118363085198 -18.809269603462333 16.000004286416726
-2.096359617465777 -18.782509606557884 16.321992253154384
-1.315086053796462 -18.718918708384216 16.630139070099403
-0.5326521109991081 -18.630151772540806 16.929052974058465
0.24838568800977576 -18.53074019259104 17.228320525008176
1.025034575499822 -18.4370322855363 17.540503408401996
1.7929128572377162 -18.365253549223972 17.87890528674124
2.5451847614320364 -18.32919849675101 18.255625538245564
3.271750899873713 -18.33924946900303 18.68099029417757
3.9587203034519747 -18.403641138162026 19.163316072741893
4.58870362437874 -18.527880393322434 19.70750501465015
5.142965340755697 -18.71318234469417 20.313102130194128
5.605678509280473 -18.95564764076307 20.972917762521586
LINES 1 78
77 0 1 2 3 4 5 6 7 8 9 10 11 12 13 14 15 16 17 18 19 20 21 22 23 24 25 26 27 28 29 30 31 32 33 34 35 36 37 38 39 40 41 42 43 44 45 46 47 48 49 50 51 52 53 54 55 56 57 58 59 60 61 62 63 64 65 66 67 68 69 70 71 72 73 74 75 76
POINT_DATA 77
SCALARS MaximumInscribedSphereRadius float
LOOKUP_TABLE default
1.1160000562667847
0.9068300127983093
0.7025439739227295
0.8315029740333557
0.8917080163955688
0.7245640158653259
0.6850939989089966
0.8611400127410889
1.0470499992370605
1.2339199781417847
0.8314480185508728
0.7138980031013489
0.9081140160560608
1.1172000169754028
1.2771999835968018
1.2771999835968018
1.3655500411987305
1.526129961013794
1.6521799564361572
1.7546000480651855
1.7546000480651855
1.8130899667739868
1.9481300115585327
1.8819899559020996
1.7255699634552002
1.4312000274658203
1.2771999835968018
1.2771999835968018
1.435349941253662
1.672510027885437
1.7263599634170532
1.6814299821853638
1.495460033416748
1.2408299446105957
1.2653000354766846
1.2268199920654297
1.1331499814987183
1.1864500045776367
1.27128005027771
1.3320200443267822
1.3783600330352783
1.2195500135421753
1.1466599702835083
1.2286299467086792
1.2400000095367432
1.2400000095367432
1.2400000095367432
1.353279948234558
1.5236799716949463
1.4094599485397339
1.2450000047683716
1.7125300168991089
2.144059896469116
1.660599946975708
1.2867000102996826
1.6248500347137451
1.8600000143051147
1.8600000143051147
1.7464200258255005
1.5822099447250366
1.5633000135421753
1.5499999523162842
1.5499999523162842
1.4902100563049316
1.2710700035095215
1.1809300184249878
1.4030499458312988
1.4390000104904175
1.1143900156021118
1.001870036125183
1.1676199436187744
1.2400000095367432
1.2400000095367432
1.254830002784729
1.2751400470733643
1.2592999935150146
1.2400000095367432
FIELD FieldData 2
Curvature 1 77 float
0.32126146681
0.3468285771
0.31306769341
0.25273015877
0.2063584673
0.18517865372
0.18809536818
0.21221035515
0.23883509232
0.24239593548
0.20726538788
0.14496473737
0.080997202107
0.057329066425
0.086817530659
0.11022622428
0.1220789187
0.13068179196
0.14647956801
0.16678033455
0.18681851791
0.2043973073
0.23276197197
0.28422235603
0.33213843832
0.33700605328
0.29340241658
0.22819187336
0.18049364415
0.16269685927
0.17818251627
0.23010913344
0.3211882844
0.42104598016
0.40500854246
0.28502472953
0.17982748706
0.10790465294
0.063893884609
0.0616291525
0.10038483936
0.15781099338
0.21669379743
0.24732221657
0.23172899986
0.19454434402
0.1639580605
0.14722596311
0.14280290739
0.14305010913
0.13886290895
0.12685484653
0.1110172615
0.10256152312
0.11468157041
0.15181369693
0.20387458671
0.24263697515
0.23585661446
0.19354174095
0.14525544999
0.10636135363
0.080252284235
0.065290282907
0.057178486668
0.048302520444
0.034259987843
0.017218134213
0.020521821543
0.043215247199
0.065818186119
0.085656208983
0.10479133545
0.12286345364
0.13815447203
0.14817170222
0.15094143263
Torsion 1 77 float
-0.020088921311
-0.035074868202
-0.056325161912
-0.08264565095
-0.11017493013
-0.13222508817
-0.14162421248
-0.13800445418
-0.13747726974
-0.14938490151
-0.17842703058
-0.27054132554
-0.64910243906
-0.99332177444
-0.20552274684
0.099272006142
0.21118876889
0.30999427273
0.29427710632
0.26477175816
0.24297516
0.24176101981
0.21418486089
0.1610348158
0.11472056808
0.091666531839
0.08157916952
0.091332148675
0.10833912518
0.11068758867
0.086652859513
0.050151942315
0.018289201906
-0.012483286137
-0.025413451677
-0.015159316641
0.016324218388
0.11118250987
0.42709050898
0.54757044602
0.23028791005
0.078941346004
0.00054763811983
-0.033101868156
-0.019308156252
0.020195544355
0.059458064381
0.10571841013
0.11212920889
0.10260184145
0.10748498449
0.14834321189
0.24195108252
0.34511800208
0.33872966688
0.23277269988
0.13312864269
0.059449806622
0.00800887687
-0.031389803907
-0.070951631574
-0.1174316478
-0.15563914045
-0.17038344948
-0.11910335375
-0.032288266774
0.091671402438
0.65097621074
0.50010404583
0.086603307732
-0.0046311891451
-0.029706324344
-0.032759064377
-0.037312411717
-0.034949709346
-0.027592455057
-0.020526854168
