# vtk DataFile Version 2.0
Vessel Segment
ASCII
DATASET POLYDATA
POINTS 79 float
0.0 0.0 0.0
-0.72956118250081 -0.16601669991683005 0.33673973145327196
-1.492585653123818 -0.32098482935601946 0.5962386154562972
-2.273600455905665 -0.4726222764442657 0.7981523253433863
-3.06330524131431 -0.6288080413847766 0.9591311745600919
-3.854959637764193 -0.7989640823442673 1.0941198573573674
-4.642228377592904 -0.9962489183408363 1.217249761830703
-5.415282849555997 -1.2415358582101157 1.3428164864612635
-6.154712921320381 -1.568608865072743 1.4816222861481783
-6.823481405143568 -2.0211680405276757 1.620508641873348
-7.378865715967736 -2.618786952716387 1.6828047950726417
-7.799343449187467 -3.303962532715778 1.5397759999956473
-8.092872611889641 -3.948444920159552 1.132943220332711
-8.289020368423143 -4.466550375126466 0.5303685626367125
-8.412232378089318 -4.849422380872174 -0.1837204384780298
-8.471523171399852 -5.117368804809941 -0.9566122492100297
-8.464212710928177 -5.297352682436587 -1.7569566282867113
-8.382180328356318 -5.419426063485112 -2.5642876945274646
-8.219170537482828 -5.51924583896559 -3.362277358639758
-7.976809950618633 -5.635472710622273 -4.137605989528983
-7.667522787510042 -5.804654333349791 -4.878496914064036
-7.314132742611218 -6.0549760256100305 -5.5752865059634376
-6.943849166997492 -6.403004446501128 -6.219119797637423
-6.583961967782456 -6.8556457271488975 -6.800739041304952
-6.261680496041442 -7.41647221801905 -7.304304131366772
-6.013470301476241 -8.093929909891743 -7.690751585887353
-5.932088563828752 -8.88785923984505 -7.820703967139086
-6.189799723444341 -9.504483180443701 -7.403149488615276
-6.594195682950052 -9.685117702994718 -6.717894901732212
-6.990876852638229 -9.667898849817632 -6.000232000997178
-7.356773222476201 -9.571247095457004 -5.271847401401271
-7.682548037799251 -9.448848391946294 -4.528437551516156
-7.957966034285203 -9.339606658299102 -3.7630994185251785
-8.169221146300751 -9.28445830434039 -2.972257553653467
-8.298522882628115 -9.334083922214862 -2.164440052874018
-8.333123250213378 -9.539732643798754 -1.3725416645774957
-8.280980256143426 -9.920900579504446 -0.6497619062586644
-8.17238761826602 -10.447775798559121 -0.03151290250366867
-8.039917860818807 -11.071549087552938 0.4843989495753683
-7.904766516790439 -11.752743340277016 0.9217702135099997
-7.777656834196372 -12.466912897430014 1.3058614039116119
-7.662811808426685 -13.200820233110159 1.6551895654968676
-7.5607178740200744 -13.947315998922289 1.981289703282103
-7.467963792587341 -14.702339860707413 2.289926221466323
-7.375697694847886 -15.463780320770496 2.5826444017449073
-7.268486902857477 -16.229607212032043 2.8580623982308593
-7.1244836895485095 -16.996083199063374 3.1139873826135935
-6.918752862771781 -17.75492417773814 3.349201719391788
-6.6290392678046635 -18.49151155084486 3.565247591951658
-6.243893103132823 -19.18724461931945 3.766836753953853
-5.765179550872785 -19.824742643331025 3.960384254521747
-5.204516495811017 -20.391985732479135 4.152470127741681
-4.576845533889307 -20.882564259681438 4.348698440313439
-3.896219820896762 -21.292743213241135 4.553130300973299
-3.1746584726565428 -21.618315089313967 4.768932956263822
-2.4227205267984306 -21.852440757709775 4.998948330265381
-1.6522647616463648 -21.986600255517125 5.24675187175285
-0.8782350968740077 -22.014897500397552 5.5172970025016435
-0.11858158662107078 -21.939045857318565 5.817486755328413
0.6098998351362009 -21.77257680426384 6.1562566538611785
1.2957241236167352 -21.541862374257228 6.543353204151549
1.9360245682668478 -21.28213615181932 6.986165873554873
2.5356740348236984 -21.03005229622224 7.486588503547441
3.104118880638665 -20.81786459314843 8.039163422537454
3.6509181640589548 -20.673568589623493 8.63372043069517
4.182229193614391 -20.623057629905503 9.256728824614205
4.697458255811484 -20.691891990017428 9.891018936775447
5.185170072460105 -20.903235403844143 10.51502614811112
5.620437778116928 -21.268596540774087 11.10539230583633
5.97239795333672 -21.777092589869884 11.643046542471408
6.220737211843019 -22.396633201257487 12.118973165638726
6.364943848513014 -23.088077822560912 12.535869059820934
6.421879345926194 -23.818638209767006 12.905153430729376
6.418346208435837 -24.566864381247044 13.24264818139697
6.3868327249992 -25.320718631322887 13.566197442518893
6.369370364086282 -26.07203110601858 13.896422978955552
6.428620588911206 -26.805442324943897 14.25854376861111
6.660269062308503 -27.468968469662155 14.67603729758434
7.136222553625599 -27.94922483767815 15.131476496640145
LINES 1 80
79 0 1 2 3 4 5 6 7 8 9 10 11 12 13 14 15 16 17 18 19 20 21 22 23 24 25 26 27 28 29 30 31 32 33 34 35 36 37 38 39 40 41 42 43 44 45 46 47 48 49 50 51 52 53 54 55 56 57 58 59 60 61 62 63 64 65 66 67 68 69 70 71 72 73 74 75 76 77 78
POINT_DATA 79
SCALARS MaximumInscribedSphereRadius float
LOOKUP_TABLE default
1.2400000095367432
1.0894399881362915
0.9421740174293518
0.796442985534668
0.6498709917068481
0.7405040264129639
0.8985130190849304
1.069219946861267
1.258810043334961
1.471869945526123
1.3944900035858154
1.15461003780365
0.9399880170822144
1.5342299938201904
1.7106499671936035
1.3671499490737915
1.2400000095367432
1.2400000095367432
1.353760004043579
1.512619972229004
1.42985999584198
1.2734999656677246
1.375100016593933
1.550279974937439
1.70756995677948
1.8372600078582764
1.5887500047683716
1.5499999523162842
1.566390037536621
1.5778100490570068
1.56181001663208
1.5859899520874023
1.74127995967865
1.8453799486160278
1.7871500253677368
1.7312400341033936
1.6810100078582764
1.8795000314712524
2.1539599895477295
1.7971199750900269
1.3411799669265747
1.5787400007247925
2.015660047531128
1.97871994972229
1.6795200109481812
1.6379499435424805
1.793869972229004
1.8600000143051147
1.8600000143051147
1.7591400146484375
1.6029599905014038
1.5499999523162842
1.5499999523162842
1.582990050315857
1.6389600038528442
1.7918100357055664
2.0494699478149414
2.05118989944458
1.7250100374221802
1.623729944229126
1.781440019607544
1.9382400512695312
2.0941100120544434
2.0902600288391113
1.933750033378601
1.8667900562286377
1.8797399997711182
2.2269599437713623
2.7878799438476562
2.806649923324585
2.6511900424957275
2.5144500732421875
2.3845200538635254
2.4085700511932373
2.4649100303649902
2.2534000873565674
1.9275100231170654
1.733590006828308
1.5809999704360962
FIELD FieldData 2
Curvature 1 79 float
0.14222639146
0.10409575186
0.073150776806
0.050682081647
0.043473171058
0.060029480099
0.096198499214
0.14901964362
0.21145825107
0.26303872965
0.3262265312
0.38046886478
0.32796198584
0.24628547713
0.18403872165
0.14166383864
0.11635121707
0.10322596871
0.10299996038
0.11250437128
0.12487260954
0.13626260762
0.14818763898
0.17396007238
0.24453013677
0.44412500174
0.97535342775
0.73231702251
0.30587067975
0.14153999066
0.069396104073
0.068227479916
0.11274297152
0.17210031514
0.22970941119
0.25705443802
0.23480619504
0.18421782861
0.12763672886
0.082007016387
0.051867841087
0.035026952187
0.027659261622
0.026555850399
0.034432592121
0.054086764013
0.081176886009
0.1084196841
0.12783070235
0.13540283895
0.13264691848
0.12484834004
0.11698060086
0.11380959987
0.11765090095
0.12605768976
0.13269094803
0.13361757137
0.12598966186
0.11085933578
0.094674368503
0.086752025476
0.088121532813
0.10008623377
0.12032495473
0.14713395961
0.17736792468
0.20264021311
0.2123546562
0.20142284353
0.17343490307
0.13380237798
0.08782268995
0.039149918887
0.035247954711
0.11686945025
0.24335704771
0.39296546151
0.41510948034
Torsion 1 79 float
0.040608151445
0.065037139577
0.11930559304
0.24791301967
0.37560197464
0.23726882527
0.10212522487
0.0027849499996
-0.15162065941
-0.42870787215
-0.47841171545
-0.26921327144
-0.10644268515
-0.019708798414
0.081291342839
0.19983780798
0.34045858049
0.45726127658
0.46668715175
0.39501385727
0.30328997647
0.22249910151
0.15553804729
0.093309570342
0.029234431643
-0.0073962111922
-0.025328009405
-0.04181617658
-0.085994083175
-0.20285058413
-0.60046634773
-0.57063664022
-0.24670553163
-0.15518846596
-0.12930747794
-0.11718173399
-0.1069917659
-0.099643651937
-0.10316423226
-0.13095553664
-0.15495417653
-0.10596541631
0.12840165462
0.41225219257
0.38578837378
0.22756667803
0.15394099178
0.12237956099
0.10675803222
0.095261451414
0.086608071098
0.078818814369
0.068950292543
0.060002632331
0.056640595293
0.066286698318
0.09365357343
0.13447981685
0.20579465606
0.32077860636
0.45070400878
0.48857996971
0.42417036204
0.30629383162
0.19292134394
0.098949062098
0.021906894591
-0.055469302276
-0.090614982614
-0.091271994519
-0.078197140829
-0.060178371255
-0.049074511314
-0.054695888666
-0.027449464917
-0.013418016048
-0.0087605267481
-0.0048176582826
-0.0022309835983
