# vtk DataFile Version 2.0
Vessel Segment
ASCII
DATASET POLYDATA
POINTS 73 float
0.0 0.0 0.0
-0.8404554559545236 0.055982059500941095 0.2843926170874679
-1.6897955096534514 0.11196411900188219 0.541103474418115
-2.5462278199547232 0.154499219754536 0.7758419139885342
-3.408153234696052 0.1724284980855857 0.9930047661149504
-4.2738141951330375 0.15748799156308704 1.1947862553051556
-5.141231876184359 0.10422985477044397 1.3819800907298447
-6.0079472042419715 0.008260609911687807 1.5549366107558082
-6.870180212716822 -0.13718848141078602 1.7151493631572574
-7.7210758358147045 -0.3437154630238785 1.8678918622974572
-8.548858346135129 -0.6276705762178905 2.022216750998662
-9.335071281536734 -1.0053085154558166 2.191482146222366
-10.059764632103944 -1.4804125998469664 2.3874646134991204
-10.716788199426453 -2.0363677390007866 2.6087569324513167
-11.320992810109905 -2.6481306066022166 2.83426839814615
-11.902787499139672 -3.294783152511656 3.0165398957044287
-12.495653886316092 -3.953124260294918 3.058373481593438
-13.091597887087854 -4.556274503357741 2.812296818515986
-13.614158571968005 -5.024259510984497 2.2718085315649144
-14.043561100224363 -5.394428035091238 1.5880687303194174
-14.403184271864701 -5.729442031789716 0.8474668330056828
-14.704275792349131 -6.066040094309328 0.08181993311676006
-14.940770952533887 -6.424520056542246 -0.6963083996866163
-15.089647995818495 -6.815428947215 -1.4802365925335073
-15.112321090312305 -7.240173148575136 -2.2596824657976358
-14.969860770798382 -7.69058089249776 -3.0110057228912313
-14.650578475402904 -8.150742794106282 -3.699402174772822
-14.182330294936024 -8.608268776663238 -4.299213307660304
-13.611345807472913 -9.064388376972646 -4.804372736149783
-12.977084176431005 -9.532635719309463 -5.213913258147295
-12.30740652140084 -10.035421563457433 -5.509820106055255
-11.63728800995696 -10.603506120898787 -5.623366614618142
-11.085023995605399 -11.231703042796928 -5.367534117594663
-10.86706994869848 -11.712342138131339 -4.669205824453586
-10.89659894711656 -11.946905408518363 -3.815322267677217
-11.017177366917176 -12.022398297781296 -2.9385007673067864
-11.166404748568576 -12.001217912931633 -2.0625576272435238
-11.321960012203867 -11.924582652391345 -1.19065762660944
-11.480063191233997 -11.832831716145161 -0.320514346589692
-11.650910976018706 -11.781683152723838 0.5501552791103055
-11.854626869396835 -11.85893360073117 1.4103667178705666
-12.097538753352277 -12.164858617295218 2.2048402631838595
-12.335265964731246 -12.703326172661765 2.8675765250232184
-12.509803198058087 -13.387373567640783 3.4057800694195763
-12.58670330769863 -14.147467017725035 3.858735728737039
-12.546012093086977 -14.940895414848406 4.2559725013936855
-12.376570690549814 -15.735448582517787 4.615067651093646
-12.077413574253306 -16.50322349463944 4.946655372090118
-11.657238858002598 -17.221115419736545 5.258381086827744
-11.131250221160313 -17.871793085278785 5.556923853787272
-10.516763430850585 -18.443559548091695 5.84826037845574
-9.831617247357542 -18.92981474345307 6.137400164226223
-9.092510574078148 -19.328616095406858 6.427927893382843
-8.315086270528608 -19.64296955742793 6.722313535224476
-7.513229637480731 -19.881786337890215 7.022403490282318
-6.698190894784821 -20.059426747779355 7.329568101211157
-5.877702630412186 -20.193010955615772 7.644685728318162
-5.056159998418923 -20.29859522856979 7.967774810464744
-4.235496564862893 -20.387850527783883 8.297930167181683
-3.4160635062409495 -20.465654455932288 8.633902984673481
-2.5975699914208525 -20.52931787270437 8.975157697829188
-1.7805448804730444 -20.57066743848137 9.323232275316407
-0.9674480851356342 -20.58043133942926 9.682556234523865
-0.16340351355544624 -20.552651099389912 10.06075739716486
0.6240397967802452 -20.488205602501772 10.46819798428679
1.3857684386195392 -20.396208256016745 10.917049320680396
2.111420400447554 -20.294605205633424 11.420160778358268
2.7875933539419155 -20.211536982552456 11.990696656704575
3.3930723413878177 -20.19115659284897 12.639977159429973
3.8904790667844478 -20.303666124990063 13.365207332303234
4.2235491779486525 -20.631703107970008 14.116082085046283
4.360689990712044 -21.188855306387868 14.789724933409667
4.3418748350948135 -21.894957904114616 15.326176877642549
LINES 1 74
73 0 1 2 3 4 5 6 7 8 9 10 11 12 13 14 15 16 17 18 19 20 21 22 23 24 25 26 27 28 29 30 31 32 33 34 35 36 37 38 39 40 41 42 43 44 45 46 47 48 49 50 51 52 53 54 55 56 57 58 59 60 61 62 63 64 65 66 67 68 69 70 71 72
POINT_DATA 73
SCALARS MaximumInscribedSphereRadius float
LOOKUP_TABLE default
0.9300000071525574
1.0909299850463867
1.2400000095367432
1.2400000095367432
1.2400000095367432
1.2400000095367432
1.2400000095367432
1.2400000095367432
1.2400000095367432
1.257789969444275
1.2774300575256348
1.3357199430465698
1.3841400146484375
1.343649983406067
1.3725299835205078
1.5818099975585938
1.340690016746521
0.925180971622467
1.2116600275039673
1.4799599647521973
1.735949993133545
1.8615800142288208
1.9348200559616089
1.8197699785232544
1.6056900024414062
1.5623600482940674
1.578719973564148
1.4340200424194336
1.2692300081253052
1.2986700534820557
1.374169945716858
1.316290020942688
1.2477600574493408
1.2749500274658203
1.6504700183868408
1.9278299808502197
1.725219964981079
1.5876599550247192
1.9010299444198608
2.1356201171875
1.9493399858474731
1.7518500089645386
1.5619900226593018
1.611780047416687
1.6634199619293213
1.6196600198745728
1.5851399898529053
1.62746000289917
1.6716400384902954
1.764549970626831
1.8575600385665894
1.8717299699783325
1.8838499784469604
1.7866100072860718
1.6797300577163696
1.667799949645996
1.667799949645996
1.7496399879455566
1.8445700407028198
2.116260051727295
2.421600103378296
2.2343499660491943
1.932170033454895
1.8691200017929077
1.8810700178146362
1.8765300512313843
1.8643399477005005
1.868280053138733
1.8815799951553345
2.2112700939178467
2.62037992477417
2.3760600090026855
2.1700000762939453
FIELD FieldData 2
Curvature 1 73 float
0.053579276114
0.039901933148
0.034402869262
0.036471064649
0.041348349911
0.045735766973
0.050162747086
0.057582612949
0.071670131182
0.093044727797
0.11883616708
0.13526686472
0.1233137114
0.08898223898
0.086158591841
0.18306053408
0.34931341688
0.40786736123
0.25600582456
0.13828866246
0.08067467501
0.075777448482
0.10614848402
0.15018134424
0.19244889559
0.21373252062
0.2010317303
0.16147876928
0.12662286362
0.14368542456
0.24736102906
0.48734050681
0.73203515188
0.46510431716
0.23824983785
0.12690306368
0.063117134704
0.037655293747
0.086734239001
0.17727822708
0.28628170431
0.31439752022
0.24056210524
0.17892957199
0.15504597668
0.15144219724
0.15184896154
0.14789991268
0.14066957169
0.13235305312
0.12372800469
0.11467635704
0.10376435678
0.088994495743
0.070246711332
0.04999815876
0.032013622795
0.019248076124
0.01366512402
0.016394530004
0.026144804593
0.038215742074
0.048688759169
0.05595275071
0.062628375578
0.074864261116
0.10041791427
0.14516734135
0.2161536298
0.31084771545
0.37189562075
0.33752879741
0.26568348103
Torsion 1 73 float
0.21228924301
0.32508192667
0.36951941016
0.24712332164
0.11625841921
0.051221816374
0.052048703322
0.10896008763
0.14851617974
0.13823633154
0.13202911881
0.089615878932
-0.02239372168
-0.32719196313
-0.68330798358
-0.21128370285
-0.036695582357
0.060940893409
0.12222726136
0.21321482466
0.35248226625
0.18228139922
-0.011595299416
-0.047776122478
-0.018160768398
0.021913991023
0.06110819809
0.15089559097
0.27374307646
0.24296193945
0.10310515765
0.0084396369544
-0.1047133512
-0.14650479379
-0.14030256887
-0.14309595736
-0.11802032553
0.10962038345
0.023469634416
0.0066107128443
0.052997761124
0.17489505358
0.27292494276
0.31126363791
0.2664798652
0.18578713289
0.13056167679
0.10707878017
0.098507440517
0.092156927749
0.081007332147
0.070524864352
0.065191210194
0.065727417676
0.080178746862
0.10761955765
0.14652618162
0.15916688783
-0.050395515722
-0.13864714251
0.0047932721989
0.10542122079
0.18144077991
0.27003524151
0.33525530721
0.35339656628
0.29099917804
0.24024610191
0.20805905514
0.16749061389
0.10857821743
0.058429718532
0.03056501628
