# vtk DataFile Version 2.0
Vessel Segment
ASCII
DATASET POLYDATA
POINTS 95 float
0.0 0.0 0.0
-0.45049027275536035 0.2648995636329243 0.43474708996011385
-1.0019246477127728 0.41814089219617057 0.8016504519073431
-1.6136635214470205 0.46370782502304425 1.0963206520061224
-2.2492049982567317 0.4304941418935631 1.3388745337677315
-2.8895125323683923 0.3504310747491112 1.5575981290195953
-3.5265798170675566 0.24957452945548353 1.7774702648937308
-4.155951750837342 0.1486510288789431 2.0181339475146505
-4.773846647794774 0.06345686938050857 2.292214110516181
-5.3766881945112 0.0033078484962061256 2.6038278599966564
-5.963665201982099 -0.031931231941384086 2.9480481884548175
-6.53855871228965 -0.05393891839414979 3.3131283065442703
-7.111156428954251 -0.08958230573240514 3.6807063717270045
-7.6929347449874586 -0.19482570965840898 4.017500457989032
-8.266883155724663 -0.47106646813546854 4.245135543876256
-8.734100982694246 -0.9583348271342154 4.269775731788926
-9.048213966869598 -1.5418694317422865 4.121664851778865
-9.249925769855258 -2.140524341874277 3.8687142309426688
-9.373733813570402 -2.72655689357563 3.5447465879640037
-9.436449024432493 -3.288421163348688 3.1650850256179193
-9.445427470350767 -3.819434498918126 2.73870798982269
-9.403707891088184 -4.314803159547715 2.2730417227744493
-9.3135847926861 -4.770410682939917 1.7748371196330295
-9.179582807147497 -5.1834217703837 1.250034530354541
-9.010274785888393 -5.553429539775208 0.7036292053247492
-8.815920338413562 -5.883810082495155 0.1403472861961742
-8.603475088536358 -6.180978229687216 -0.43474708996011385
-8.373679407173604 -6.453572500448723 -1.0154463958571514
-8.12234987674485 -6.711519015471483 -1.59384990811124
-7.843679414059018 -6.966224637280948 -2.1610474236886135
-7.531862223526615 -7.230583408244193 -2.706033811761294
-7.182174094897516 -7.519649966203818 -3.2140956489092165
-6.793129135931696 -7.851988950948962 -3.6632213858748317
-6.3720847021399845 -8.252037753141165 -4.01709550728757
-5.951378907567619 -8.748284558058185 -4.2073322048632695
-5.63382352052944 -9.334721416660203 -4.121395099244823
-5.5636833550728095 -9.886594541860934 -3.7426779926682863
-5.727659418129193 -10.301225432110565 -3.2321877389131837
-6.043121808775553 -10.580705796199323 -2.6991490060356362
-6.459439457113948 -10.735365417918883 -2.184202363162056
-6.941307615025467 -10.761018304485608 -1.7049673505112386
-7.449030812954042 -10.647538113159747 -1.266911124453324
-7.934881522597272 -10.3968832859665 -0.8621368244093979
-8.357612714477746 -10.033220817232564 -0.47207981059032034
-8.697039946000475 -9.596380087079835 -0.07527061400981616
-8.95323017244837 -9.12612352034729 0.3453682252796358
-9.135702632409387 -8.653909155390346 0.800907505787331
-9.255055574607647 -8.203432724352128 1.2975599052066111
-9.316622244847466 -7.7948773822260256 1.8387665387987104
-9.317433433851985 -7.453155000861146 2.4273639928762574
-9.245132029119029 -7.218566866363756 3.061325582529548
-9.08500460722853 -7.14964219681231 3.717160304268982
-8.844881073476493 -7.28735698154858 4.336338296215309
-8.563037960461873 -7.606937122094071 4.865393833560348
-8.27579335875843 -8.052621099997655 5.291365274853318
-8.002456141876912 -8.583499237399675 5.617790949275835
-7.752138666301416 -9.17553909434005 5.841179525104482
-7.5289586819310745 -9.81004147666302 5.942521496199227
-7.333795620654913 -10.45844995620632 5.8867271439074385
-7.164013762009041 -11.068649502234372 5.642437575196477
-7.011244983230967 -11.583858815833224 5.226693553368422
-6.863268657587529 -11.995633805746312 4.705400966036472
-6.709351338187184 -12.3427840716327 4.139756941782832
-6.5413257681161765 -12.676304430840775 3.569791726578136
-6.354060855020524 -13.050794985183447 3.032838041052587
-6.150794916910332 -13.523232105216236 2.5889090641222725
-5.9534036610749315 -14.114117627327165 2.3209044492442716
-5.789698638154185 -14.769506517014511 2.248874084646952
-5.665687153387114 -15.433894293295443 2.3270475964515116
-5.57428224759773 -16.081675067061436 2.5153934510857257
-5.504344879392229 -16.69913161615105 2.793726562153807
-5.440145063891708 -17.27315382255464 3.154215736758159
-5.3577862031043075 -17.78665837176118 3.5934192158367506
-5.217640426557669 -18.213648104727632 4.1038425143089405
-4.9604375014557185 -18.50753892360503 4.658550938220704
-4.542093812008418 -18.618336799384302 5.179437931050394
-4.001022376583738 -18.567055450443597 5.586676700546145
-3.408847321475943 -18.434335916093094 5.89555687184155
-2.801550673242634 -18.279182941775098 6.162791500966055
-2.1938490743078622 -18.132839717447727 6.433968766172842
-1.596840362814408 -18.01333426236139 6.739561368697154
-1.0214002656300034 -17.930160478021875 7.0943870276882075
-0.4720186495145828 -17.88262959565517 7.494409112147325
0.06074324902015262 -17.859209923282027 7.918578233108429
0.5960835697478241 -17.843811485754316 8.33985153808356
1.1527835914258417 -17.822113930216844 8.731948112828285
1.739692999813032 -17.786253320465846 9.075837527676665
2.3531596739368656 -17.7371079215014 9.36797565923991
2.983395427426344 -17.681565536746632 9.620919359217536
3.6201116797408144 -17.628789584136367 9.857863482732418
4.2506491343788975 -17.590453499963665 10.112980815151717
4.842758064103246 -17.587634376747662 10.44721675894592
5.250315006994563 -17.669709884709178 10.972039547474422
5.2108684066841775 -17.847755268606768 11.616607674787101
4.898367157685935 -18.04112422304092 12.188326537977455
LINES 1 96
95 0 1 2 3 4 5 6 7 8 9 10 11 12 13 14 15 16 17 18 19 20 21 22 23 24 25 26 27 28 29 30 31 32 33 34 35 36 37 38 39 40 41 42 43 44 45 46 47 48 49 50 51 52 53 54 55 56 57 58 59 60 61 62 63 64 65 66 67 68 69 70 71 72 73 74 75 76 77 78 79 80 81 82 83 84 85 86 87 88 89 90 91 92 93 94
POINT_DATA 95
SCALARS MaximumInscribedSphereRadius float
LOOKUP_TABLE default
1.2400000095367432
0.9590680003166199
0.6575180292129517
0.6200000047683716
0.6200000047683716
0.913582980632782
1.26951003074646
1.1759999990463257
0.8533779978752136
0.6763749718666077
0.6404460072517395
0.7624269723892212
1.1003400087356567
0.9966639876365662
0.6530870199203491
0.8785430192947388
1.0780500173568726
1.225640058517456
1.0628399848937988
0.9300000071525574
0.9300000071525574
0.9300000071525574
0.9300000071525574
0.9300000071525574
0.9300000071525574
0.9300000071525574
0.9300000071525574
0.9300000071525574
0.9300000071525574
0.9995530247688293
1.2874399423599243
1.5499999523162842
1.5499999523162842
1.5690100193023682
1.7269099950790405
1.4846400022506714
0.9664559960365295
1.347749948501587
1.4772700071334839
1.3107600212097168
1.2400000095367432
1.2400000095367432
1.3725700378417969
1.5560400485992432
1.6848000288009644
1.802150011062622
1.8795499801635742
1.9534599781036377
1.9131200313568115
1.8604700565338135
1.692770004272461
1.587249994277954
1.766319990158081
1.8600000143051147
1.8600000143051147
1.7914799451828003
1.6440099477767944
1.4920099973678589
1.3314100503921509
1.3166500329971313
1.484320044517517
1.5499999523162842
1.5499999523162842
1.58719003200531
1.6488200426101685
1.3998099565505981
1.0209300518035889
1.2368600368499756
1.5049400329589844
1.4906799793243408
1.4192399978637695
1.4320499897003174
1.5107200145721436
1.626230001449585
1.7813199758529663
1.9937900304794312
2.0869600772857666
1.60247004032135
1.2400000095367432
1.2400000095367432
1.2604800462722778
1.4150199890136719
1.5305999517440796
1.3919600248336792
1.3262699842453003
1.61558997631073
1.8211300373077393
1.5329099893569946
1.2528599500656128
1.2560399770736694
1.2736200094223022
1.3958100080490112
1.5574100017547607
1.6228699684143066
1.667799949645996
FIELD FieldData 2
Curvature 1 95 float
0.2549892578
0.25683152839
0.21170712933
0.14329801671
0.079769635645
0.033416061746
0.033086314449
0.057830144577
0.071965065145
0.069853798252
0.059088186025
0.076894167027
0.16138205609
0.33370913926
0.49652076698
0.39103494918
0.25186018885
0.17027188351
0.13020764345
0.11319209562
0.10683192225
0.10455354541
0.10005589064
0.087873100901
0.072928054831
0.062508129027
0.055849036914
0.050203495595
0.049280425532
0.059965255945
0.08551577219
0.12663761266
0.19080728718
0.29969101141
0.47940905842
0.60791526762
0.46000939002
0.30591156806
0.23578712617
0.21694699143
0.21667340619
0.21109420922
0.19289613128
0.16525598897
0.13847797841
0.12085563336
0.11410109966
0.12199266898
0.15122091286
0.20623842806
0.28295070999
0.33785213151
0.31477122945
0.24818187037
0.19507819948
0.17575564996
0.19273398721
0.24006153829
0.29249976067
0.29591207754
0.22259804094
0.1181842401
0.029716973425
0.088373326128
0.20472946612
0.32415620028
0.32263262518
0.24037317065
0.1740613642
0.14044270941
0.13824208096
0.16031440615
0.20393356175
0.288080306
0.37766550785
0.36438683036
0.22634221029
0.093565776348
0.021784122148
0.069041916457
0.10004372652
0.096545556034
0.056368231626
0.014516550422
0.057293866659
0.092901227074
0.096500682884
0.070020652528
0.026622693612
0.052834691089
0.16963309325
0.43001363129
0.83711332772
0.55620953847
0.32669018952
Torsion 1 95 float
0.014548922999
0.026677222755
0.048849088188
0.09433072078
0.23323707054
1.0064571693
0.79368172082
0.19507967455
0.074701298007
0.0020460184843
-0.12019214066
-0.15994277978
-0.054640445722
-0.0048192636499
-0.0047805631481
-0.039689721693
-0.065752500771
-0.072175521773
-0.053537604872
-0.016678734649
0.0053533227859
-0.0005254568121
-0.038948498685
-0.087552408474
-0.085925547258
0.029605067733
0.19134002129
0.31457068514
0.3726762068
0.30360976206
0.19980387683
0.15236060073
0.1326702035
0.11815744618
0.11648051458
0.11637605979
0.083968644364
0.041701675225
-0.028113054198
-0.1227889247
-0.22143524128
-0.28767217742
-0.32703034568
-0.34067659864
-0.34473360747
-0.32540986607
-0.2635239966
-0.16697098553
-0.091372651748
-0.048957997107
-0.037037589128
-0.045552339447
-0.057581280113
-0.056303595844
-0.033389775646
0.023027603616
0.085439880337
0.11629632935
0.12383614198
0.11993008018
0.11305779313
0.19575117224
2.4128422905
0.33415524132
0.098377095893
0.059133523368
0.041773809976
0.011828503129
-0.041442496715
-0.1269882375
-0.20182977043
-0.24292802606
-0.25100847219
-0.22475483551
-0.18932203122
-0.14102459042
-0.083163661652
-0.12809572764
-1.2536710229
-0.10454787285
-0.032119694427
0.01594262575
0.19331139389
3.3964602861
0.16059925664
0.010462206702
-0.035940941099
-0.094087370472
-0.75927258502
-0.28349419735
-0.06154977509
-0.034921067777
-0.019387976277
-0.0055849319716
-0.0020526907405
