# vtk DataFile Version 2.0
Vessel Segment
ASCII
DATASET POLYDATA
POINTS 78 float
0.0 0.0 0.0
-0.6919507089789593 0.4547197557164571 0.0037114331388195462
-1.4598564475682667 0.727388998050334 0.15649352188302249
-2.246173489384034 0.8377082028194239 0.39947916231214553
-3.028161836405479 0.8266603986667937 0.6804755395909586
-3.802094722242467 0.7263164567788616 0.9667465553221449
-4.568408947977331 0.5564664935195702 1.2408170209300422
-5.325810229934967 0.32947618633406317 1.4976529120598363
-6.070514007162591 0.0537575927899443 1.7440197309840704
-6.796830463941452 -0.26260905683005115 1.996486824969949
-7.498329856886779 -0.6104725636128763 2.2760804063335813
-8.170063084266426 -0.9794440600521572 2.598218649012673
-8.81318682365395 -1.3627627617988325 2.960017329118837
-9.439901625172643 -1.7649610206775115 3.329978016848083
-10.071975987766377 -2.2070666216454637 3.6382644361853433
-10.713286471895827 -2.716618084064498 3.7568305712001835
-11.291024509752548 -3.2757234694514157 3.567685873542512
-11.722741243214125 -3.8317779309869304 3.130444451684038
-12.0014289832693 -4.3758771744201965 2.568865301751628
-12.141925599267546 -4.9185736219382825 1.955837196252912
-12.158499664458231 -5.467867299124736 1.3326671279100233
-12.06582392086898 -6.0291161944134375 0.7268951887259317
-11.879399892419002 -6.607101136932359 0.15954444573442497
-11.61423529370311 -7.208008897006972 -0.349594984700554
-11.283933470759777 -7.840249959563721 -0.7755385524618755
-10.902347819571991 -8.515116674455697 -1.0717895489977012
-10.499323924084042 -9.233352900951823 -1.1200224533907501
-10.224759649151741 -9.82139802897457 -0.6510388423484059
-10.248423180694036 -9.948951021901182 0.15896885906967584
-10.41085342295801 -9.809442810872321 0.9607280576008472
-10.621434792274686 -9.55681058956459 1.7240660599394337
-10.848341749478685 -9.253224008335533 2.46415256271978
-11.074094388070865 -8.9350425308163 3.198549249781377
-11.284263725403486 -8.633928927812157 3.944490695602327
-11.46227726892702 -8.386161671934483 4.717638833500217
-11.587685965631268 -8.238573230622887 5.5252545477131525
-11.638722889213518 -8.24615886526064 6.3531510423321125
-11.605082522148903 -8.44635136707094 7.157137100746576
-11.499792623811146 -8.82785524091838 7.886257576714639
-11.35022501359904 -9.342848828073382 8.52039367186981
-11.18004479569604 -9.943014301520233 9.06952222173441
-11.002856888781778 -10.594300834851419 9.554832993305238
-10.823935931308625 -11.275433738447473 9.99693859427319
-10.643531973221107 -11.97297557991236 10.412082835185243
-10.458427390704802 -12.678184833355347 10.81180890215959
-10.263182417985487 -13.385397631636831 11.203289611529348
-10.050043934141812 -14.090318305426862 11.589410759824064
-9.80928515359598 -14.78920318244283 11.97017234704374
-9.528784158282729 -15.476908153448683 12.343926245252153
-9.19469069750139 -16.144857606196126 12.709022753871919
-8.792573429642477 -16.77909238458412 13.065378522921534
-8.31146790053487 -17.359428425638015 13.415138634943943
-7.747911154343109 -17.861105870346485 13.76291957806584
-7.109899285047844 -18.26003185613042 14.114905763650961
-6.416728599688613 -18.540021349906212 14.477033912080254
-5.692472302830029 -18.697413439632324 14.852435938224888
-4.958817902396197 -18.741195179800677 15.240124223436059
-4.230438926735317 -18.687997447263875 15.637046271221203
-3.5150145826341945 -18.557525828923488 16.03982326204695
-2.8136386420199684 -18.371044792231444 16.445567826742597
-2.1229739603500217 -18.150420733043852 16.852631837371916
-1.4373967728343466 -17.917346270368597 17.261509889579887
-0.7513489724513871 -17.693061102559323 17.67442805692923
-0.061483978811563124 -17.498351614155162 18.095755922884436
0.6313989132152924 -17.35350861114954 18.531760462470164
1.320678294602969 -17.277743871119615 18.990092574932326
1.9927091443222427 -17.287860671705218 19.47884978960643
2.6267460647942293 -17.395798111436704 20.004809403573713
3.196437782443238 -17.606363361181486 20.571450099081247
3.6719515156069287 -17.91624954973928 21.177667882034346
4.026110013444608 -18.310475893995157 21.816965385478333
4.24513257997587 -18.760439393101773 22.47981122449961
4.3314735038178975 -19.230801620701456 23.159089197846836
4.300191336745996 -19.68627300060257 23.853357193575814
4.177813242420655 -20.093262802227123 24.567512612840545
3.9998598186342984 -20.41655005585412 25.31195238293335
3.815548544508097 -20.607877579442587 26.09835926187541
3.7043352440942168 -20.593579617461533 26.918396055347184
LINES 1 79
78 0 1 2 3 4 5 6 7 8 9 10 11 12 13 14 15 16 17 18 19 20 21 22 23 24 25 26 27 28 29 30 31 32 33 34 35 36 37 38 39 40 41 42 43 44 45 46 47 48 49 50 51 52 53 54 55 56 57 58 59 60 61 62 63 64 65 66 67 68 69 70 71 72 73 74 75 76 77
POINT_DATA 78
SCALARS MaximumInscribedSphereRadius float
LOOKUP_TABLE default
1.2771999835968018
1.0823899507522583
0.9708660244941711
1.1420700550079346
1.2400000095367432
1.2400000095367432
1.1730300188064575
1.0365300178527832
1.0734399557113647
1.2362099885940552
1.3245199918746948
1.3878799676895142
1.388800024986267
1.3715100288391113
1.3203200101852417
1.1804300546646118
1.3011599779129028
1.4662799835205078
0.9265679717063904
0.7416359782218933
1.0465799570083618
1.3890600204467773
1.8216700553894043
2.1094601154327393
1.7999399900436401
1.5499999523162842
1.5499999523162842
1.7829500436782837
1.694540023803711
1.5950599908828735
1.7599799633026123
1.8054900169372559
1.6532700061798096
1.4976199865341187
1.3339999914169312
1.4013400077819824
1.771530032157898
1.8600000143051147
1.8600000143051147
1.8600000143051147
1.814460039138794
1.6572599411010742
1.6461399793624878
1.9625099897384644
2.1915500164031982
2.179260015487671
2.0907599925994873
1.7763500213623047
1.5959999561309814
1.7573000192642212
1.9257500171661377
2.1048099994659424
2.162830114364624
2.0989699363708496
1.9018000364303589
1.6370099782943726
1.8240200281143188
2.128309965133667
1.898460030555725
1.5867300033569336
1.5499999523162842
1.5499999523162842
1.8215299844741821
2.1341700553894043
2.0295000076293945
1.8690299987792969
2.328249931335449
2.747649908065796
2.232340097427368
1.8600000143051147
1.8600000143051147
1.8600000143051147
1.8600000143051147
1.5770699977874756
1.2533700466156006
1.44281005859375
1.5499999523162842
1.5499999523162842
FIELD FieldData 2
Curvature 1 78 float
0.33230230306
0.30333407025
0.22591284613
0.1544990652
0.10798921214
0.084105358657
0.07261051532
0.064114287967
0.058928420392
0.063991481871
0.074094115013
0.071535918343
0.060960885487
0.11844850911
0.26087139027
0.40546237248
0.3772866867
0.26849712775
0.1996228171
0.16241940405
0.13883908151
0.1233024066
0.12029348969
0.14058862115
0.20306319594
0.35321496121
0.73988606818
0.91674755259
0.4130271942
0.19788349479
0.091929782292
0.022961373246
0.038053197808
0.094564892492
0.15564841249
0.21735564536
0.25958424989
0.25633517717
0.21193062474
0.15583671485
0.10534561412
0.066082009695
0.038014614027
0.02082822669
0.017551409475
0.024745457888
0.036079666888
0.051115943474
0.070017649118
0.092078499308
0.11550781254
0.13717057877
0.15278685768
0.15829694911
0.15327942436
0.13834212361
0.11789324192
0.095158215986
0.070115102749
0.043345141359
0.016207383522
0.012026063962
0.037998815758
0.063577310149
0.088507929418
0.11268008725
0.13511457381
0.15447873663
0.17204860889
0.18297910618
0.17834075903
0.16227849511
0.14369407623
0.12721601911
0.1308997772
0.17537256065
0.27198017997
0.39667926699
Torsion 1 78 float
0.042672106836
0.073090057654
0.11587815037
0.17718264148
0.2217753636
0.1726736847
0.0038483445153
-0.21601896513
-0.42408889266
-0.37957854902
-0.19198552819
0.044290496949
0.46875859988
0.22277141089
0.026166864053
-0.049206153871
-0.14266783026
-0.18445741655
-0.18350081063
-0.169980598
-0.17297666963
-0.19770400683
-0.22064258898
-0.1982313698
-0.14087757794
-0.086717567179
-0.039584149924
0.02257869467
0.025587201831
0.027915989035
0.060311243036
0.74292254255
0.2758286826
0.057986940652
0.038867850112
0.04179649247
0.048912282656
0.054661291744
0.05765717942
0.05651877371
0.045331192863
0.013495909764
-0.08686777246
-0.42495297149
-0.55152303461
-0.18345184463
-0.0463791946
-0.035451841299
-0.061308381642
-0.088222519218
-0.10913325941
-0.11884559146
-0.12505032869
-0.11834119843
-0.093307482687
-0.059221957882
-0.04185998717
-0.025054607939
-0.011227220336
-0.025743436714
-0.33612241779
-0.62295748601
0.0089716291823
0.067112664674
0.088972594658
0.10172759015
0.10550884983
0.10488028962
0.10280298307
0.11430874968
0.14481842426
0.1906863054
0.27079249824
0.39151455509
0.45772606081
0.371703772
0.24678477169
0.14902253942
