# vtk DataFile Version 2.0
Vessel Segment
ASCII
DATASET POLYDATA
POINTS 74 float
0.0 0.0 0.0
-0.8441312025194142 -0.07947537410882557 0.21971544001708432
-1.6961051117664068 -0.042404209426312824 0.4221176622323761
-2.5444244345355886 0.06775868481240926 0.614205662515084
-3.3873315006706233 0.2183146402719961 0.8031435309900875
-4.226802438383332 0.3821615171224793 0.9964538958122592
-5.065836459985071 0.5325423726139301 1.2020045822165113
-5.906330481797317 0.6356245576649803 1.4287140152465716
-6.743834463201297 0.6425318345032603 1.6856740522955604
-7.555117641281594 0.4870780827920973 1.9740236769657342
-8.291787387701643 0.12240321582080231 2.271902075139996
-8.922690916701926 -0.42203094605768016 2.539528201676585
-9.471497574927577 -1.0725206572080368 2.7482273522697973
-9.980084604281755 -1.7735442191624504 2.8830459896408156
-10.479754042401575 -2.4920544312680484 2.9307832438109287
-10.985632025105877 -3.205318314804542 2.8747395806761915
-11.496142652681437 -3.8945384712878433 2.69672961783162
-11.992490194262906 -4.543627382693112 2.38162805326775
-12.439788065722615 -5.138947262930667 1.9211268104012131
-12.790474946667956 -5.671578019338037 1.3217863013715057
-12.996550932976618 -6.141783135676799 0.6130683465315718
-13.030910549581138 -6.561629501179639 -0.1542280519342109
-12.899151992605638 -6.951833943505166 -0.9270325951119298
-12.627940485769122 -7.334609144325494 -1.666876653811472
-12.246827067027342 -7.728048767014677 -2.3508504817256695
-11.778720648878098 -8.146057416661462 -2.9622578799880652
-11.238744865712107 -8.599738098864414 -3.4819495825595554
-10.63704300854068 -9.098095954841959 -3.877400353454187
-9.982882868534443 -9.641132652212843 -4.07787981125747
-9.33842660200043 -10.176036372968493 -3.8812475498969468
-8.999193760399299 -10.467357694240746 -3.1505854000027087
-8.993248699576396 -10.520953293059067 -2.2788944005342278
-9.15272308007971 -10.485456360471035 -1.4181346419336673
-9.405224738416207 -10.426614433083609 -0.5808049266884512
-9.717353772568625 -10.379489194992601 0.23720209016826868
-10.066553971403556 -10.371708085932385 1.0413061695549881
-10.428956707835944 -10.43203586162085 1.8371055075958276
-10.770812713721625 -10.592122258203268 2.627833617035699
-11.044560668668 -10.87854745084269 3.40859436924177
-11.204035049171313 -11.293145820157681 4.1629517138716725
-11.23743328356983 -11.806979178080963 4.871319468775334
-11.169411948805218 -12.38769738859472 5.523993760480531
-11.034593311434199 -13.0179889015159 6.117914508591742
-10.863839991554809 -13.692696605878213 6.650895464935385
-10.68338196439382 -14.411381084142574 7.119176983052766
-10.514552242735808 -15.173081787912354 7.518825150326429
-10.371602296368302 -15.971853656364644 7.8503644328514115
-10.255667773656068 -16.796855500043712 8.123412821734613
-10.15451002063577 -17.636107979700938 8.35632913173041
-10.047232106824431 -18.479574531924634 8.570710693194322
-9.908740539169417 -19.31799653744727 8.786578936768645
-9.712370093951725 -20.139736518862776 9.020194812827615
-9.431628979801747 -20.927142731764295 9.28301319452481
-9.044307850284861 -21.653888479037892 9.58132850881004
-8.540004933484411 -22.287634047282896 9.914266923461367
-7.928947735158287 -22.80128396714432 10.274046495609202
-7.238240896564574 -23.186094913546576 10.651137617940085
-6.500181189921275 -23.453914483857485 11.040206411900845
-5.7413917315741 -23.6283399002115 11.442914659570029
-4.980792073080148 -23.73510210292621 11.865680191684508
-4.231978726965181 -23.797265718399643 12.317472295659709
-3.505949221942199 -23.834012948141105 12.807594616469256
-2.8125058209893314 -23.86079323755345 13.343346321356307
-2.1603126372918227 -23.890196274345666 13.928427856314139
-1.5566173503641039 -23.93358854787789 14.562584075674893
-1.0064911888071424 -24.002615456745225 15.241584230684655
-0.5122334861906105 -24.110627956613364 15.957427503513665
-0.07349477216143672 -24.274159445068857 16.698415965576384
0.3115078982833069 -24.513913408820365 17.44830513423367
0.6437317904158497 -24.853837269938605 18.184283861136613
0.9213058881183382 -25.316086385701357 18.874335012885357
1.1387149658133093 -25.909587206567558 19.479971199578927
1.2904755999338822 -26.620477547500265 19.967695953652157
1.3774373445181662 -27.416635241175296 20.32167187383528
LINES 1 75
74 0 1 2 3 4 5 6 7 8 9 10 11 12 13 14 15 16 17 18 19 20 21 22 23 24 25 26 27 28 29 30 31 32 33 34 35 36 37 38 39 40 41 42 43 44 45 46 47 48 49 50 51 52 53 54 55 56 57 58 59 60 61 62 63 64 65 66 67 68 69 70 71 72 73
POINT_DATA 74
SCALARS MaximumInscribedSphereRadius float
LOOKUP_TABLE default
0.6200000047683716
0.9088940024375916
1.1862900257110596
1.0244499444961548
0.7582499980926514
0.8159030079841614
1.2328799962997437
1.5499999523162842
1.5499999523162842
1.5499999523162842
1.5499999523162842
1.5499999523162842
1.5499999523162842
1.447950005531311
1.3003499507904053
1.2821500301361084
1.3548699617385864
1.347599983215332
1.2698299884796143
1.4484299421310425
1.7828199863433838
1.6257200241088867
1.3328399658203125
1.4263900518417358
1.605679988861084
1.667799949645996
1.667799949645996
1.640220046043396
1.5748000144958496
1.8574999570846558
2.094510078430176
1.9091800451278687
1.7520500421524048
1.6074199676513672
1.7232199907302856
2.019819974899292
2.1895999908447266
2.176909923553467
2.0882198810577393
1.916260004043579
1.8600000143051147
1.8600000143051147
1.8600000143051147
1.8600000143051147
1.7521699666976929
1.6071300506591797
1.8058500289916992
2.22445011138916
2.3244199752807617
1.9169700145721436
1.5792200565338135
1.8679300546646118
2.1647400856018066
1.9190700054168701
1.6068400144577026
1.796489953994751
2.0932400226593018
2.1785199642181396
2.189850091934204
2.343780040740967
2.6102499961853027
2.6676900386810303
2.291110038757324
1.989959955215454
2.231839895248413
2.4768099784851074
2.6264700889587402
2.777669906616211
2.5047600269317627
2.186609983444214
2.323889970779419
2.4675400257110596
2.1542201042175293
1.8600000143051147
FIELD FieldData 2
Curvature 1 74 float
0.20222479737
0.1395936625
0.088313415754
0.047334585689
0.019136394231
0.038806462373
0.081846769885
0.13876537411
0.20857025361
0.26411351528
0.2515896126
0.18125940599
0.12178083883
0.10332316487
0.11839917554
0.14365339781
0.16708258285
0.18913406768
0.20888993942
0.22143183528
0.21898828531
0.19989120424
0.17174556709
0.14596004715
0.1323779275
0.13801028424
0.17222137209
0.26091319249
0.49757989217
0.91151900382
0.54035887553
0.25794466846
0.13524856209
0.07650584892
0.065003578771
0.091258352058
0.1326397243
0.17603894477
0.20405852912
0.19444020808
0.15773243768
0.12178234885
0.099067387213
0.092178832044
0.095051724391
0.096260531149
0.083121094909
0.054802781369
0.024313437294
0.036023305917
0.073675042359
0.11234725789
0.14928223759
0.17765584684
0.18800495007
0.17587994611
0.14704412924
0.1121666214
0.081318102505
0.061924976071
0.058478260363
0.065719292222
0.074472481368
0.081435278407
0.08603032584
0.089610994907
0.095725803767
0.10906156398
0.13229404547
0.16303080081
0.19225400315
0.20857564983
0.20747163701
0.19241375461
Torsion 1 74 float
-0.013280978852
-0.021790219944
-0.043374515022
-0.13031736846
-0.76585886193
-0.20917693809
-0.068401260203
-0.049874297312
-0.059062228431
-0.088277520414
-0.14633967225
-0.26105274488
-0.41858651223
-0.38212666151
-0.14932181549
0.011491507571
0.097259629561
0.15244806426
0.19548163493
0.22142625936
0.22384956683
0.21481583192
0.20828530455
0.20586268385
0.19066791072
0.14913076457
0.072401409621
0.0061779049263
-0.010396678468
0.041380081217
0.083170003961
0.11647827479
0.20673494033
0.44997486573
0.58307548055
0.35604314861
0.23942126573
0.18841970804
0.14009745621
0.049599642197
-0.067517696169
-0.18147793921
-0.27531734873
-0.28004046141
-0.20412640861
-0.11261903893
-0.01047988286
0.17916931718
1.2744135741
0.55743448909
0.090435372867
0.021049440402
0.0030636301168
0.0021916807774
0.013257264658
0.036461836609
0.077724659989
0.14986849075
0.28168528901
0.43875977984
0.41607848187
0.26163487483
0.17141955502
0.1458233513
0.15915969009
0.19778678928
0.23739340977
0.23528552654
0.18740963401
0.1276575454
0.063042075002
0.030080623685
0.01919774197
0.013885485392
