# vtk DataFile Version 2.0
Vessel Segment
ASCII
DATASET POLYDATA
POINTS 117 float
0.0 0.0 0.0
-0.48267539938193216 0.2552752167086393 0.06673946380089857
-0.9954309124197606 0.3721121132998077 0.22672770040074047
-1.493532145877045 0.3448869615075336 0.45929672004895844
-1.9532206873673381 0.20798964805135522 0.7309406650861417
-2.3749209444209924 -0.0017070905988669145 1.0182353933293162
-2.7673242051193396 -0.2592423102555135 1.3084513067783103
-3.139837863128979 -0.5498997126524904 1.5937078277116308
-3.5012580601563887 -0.8653015194197426 1.86661842556386
-3.860748845364697 -1.2021428704323702 2.1153354290666306
-4.228671543897396 -1.5634511184765412 2.3107048001906483
-4.60783696872331 -1.955623648641359 2.3662577749809914
-4.9342612828918675 -2.33319130394124 2.1475756850751573
-5.158729505926681 -2.6453408087916856 1.753144203126494
-5.331062614443452 -2.9320290153134647 1.3141833049529539
-5.479862785286496 -3.2223016916271994 0.8689385474197916
-5.6129564612229705 -3.529104975550405 0.4298672770092558
-5.728194537123944 -3.85922202941959 0.002865473505240892
-5.8147190127794435 -4.2154058521746745 -0.4096428785349951
-5.854729999854549 -4.596280469927779 -0.8067190895149077
-5.8288272125779 -4.995506311618703 -1.1863806638252217
-5.724060834057414 -5.4012903665154965 -1.5448244895283136
-5.540871302076913 -5.800405835969425 -1.87852391086113
-5.293311104734274 -6.185413631206978 -2.1864855776907097
-4.999898601069051 -6.5572492883322155 -2.469591416748857
-4.676781249353718 -6.923519031220384 -2.726575826384687
-4.337791844376322 -7.298330534087858 -2.948178050332179
-4.000345548388542 -7.705271920726863 -3.1039227372105764
-3.7186167343824366 -8.17283604690888 -3.0970891189942997
-3.634902546113679 -8.61912776394726 -2.802684316360278
-3.7366930788919284 -8.929348382560685 -2.3608568935173353
-3.9253392040366646 -9.141307226487237 -1.8882230025826479
-4.163585035741028 -9.284872074222118 -1.4118963719473332
-4.439417344381158 -9.366711511208193 -0.9413006883225
-4.747985007350053 -9.380269426567912 -0.4844290039949615
-5.084164124940706 -9.309947595303381 -0.05329297184233602
-5.43577380684544 -9.137283370075624 0.3340294868796418
-5.780054246631578 -8.857428781770121 0.6605631221210324
-6.093361608806317 -8.489947046603323 0.9264204084471551
-6.365170586616913 -8.06625115438837 1.152155809879096
-6.595700873373196 -7.612024199092081 1.3643890076518959
-6.787377504796586 -7.143743178951673 1.5846688670837632
-6.939981313159334 -6.673203207027418 1.8291980325656683
-7.048880869164268 -6.212859527473244 2.1129103933452105
-7.103550866058646 -5.781778155857035 2.4521757289150963
-7.085860824378639 -5.416666795875241 2.8635814097495373
-6.976850896136709 -5.180073919815408 3.3468520308381247
-6.784180914580357 -5.12126969427242 3.857843953203386
-6.54340020049966 -5.216282320534971 4.343815015023802
-6.280960248863756 -5.409116283700572 4.788783841964475
-6.0052940241612 -5.658825586172143 5.196331750324875
-5.7154633623775295 -5.943199129209497 5.570041107568636
-5.40557280931093 -6.253035021739681 5.905338298427485
-5.066087254849133 -6.590646876082954 6.178524826872203
-4.695188710574198 -6.972291997166706 6.309579244334661
-4.390147703368356 -7.384910721443937 6.137411694173384
-4.266808830853979 -7.762587697816652 5.7578053059815675
-4.255620765097181 -8.129298929652803 5.346013847899723
-4.301418410883347 -8.51155057245795 4.950755625337754
-4.377472240322521 -8.919484258065754 4.587021290408001
-4.468791601302363 -9.356902047249678 4.263297416971272
-4.5660074676481806 -9.825844249647899 3.98950489238724
-4.663334231813075 -10.32884417089051 3.7858686407122435
-4.755039370040321 -10.8643061437798 3.698296679969446
-4.829384532134386 -11.39949166049452 3.7934186273048307
-4.870662697606618 -11.871299336397982 4.072502186697606
-4.874355437307246 -12.270360145315493 4.452935315502728
-4.841123407912001 -12.628913817673501 4.871119954017028
-4.76909290930236 -12.973193731877558 5.2963584296395165
-4.65330402338057 -13.317363799426701 5.71184262742199
-4.487088164703765 -13.666108007826193 6.105667587649257
-4.2639428317666574 -14.01617458074131 6.468960959213108
-3.98056053653394 -14.355990726332013 6.798383193571301
-3.639090909716626 -14.668912836841429 7.098006500686895
-3.246533653468566 -14.938076034456614 7.376748431727064
-2.8136511120610037 -15.15042013004849 7.644754823182118
-2.3531634230166536 -15.29833837415973 7.910027136652163
-1.877227825449552 -15.38100560292327 8.17648463771471
-1.3951749780424836 -15.4034910555097 8.443978323849814
-0.9124551669747129 -15.374612422490815 8.709813010146457
-0.43098124822979106 -15.304896587365599 8.970401336111237
0.04976552770616136 -15.204869908050958 9.22242503927619
0.5314381164776754 -15.08439650904182 9.463542388679727
1.0156953865276923 -14.951854168708245 9.692871457590039
1.5032428004043432 -14.813028494597127 9.911321503007143
1.9936581843011196 -14.67106194197036 10.121135709252453
2.4859655446120605 -14.526560506967257 10.324716774808952
2.9794534033378746 -14.379523138423659 10.523591252830704
3.474082641568523 -14.230833339817611 10.718315997532459
3.970535978108805 -14.082969756242788 10.9090065055765
4.470207913614955 -13.94127860862643 11.095921888928729
4.975032787238081 -13.815184109261727 11.280037627931351
5.486597594071558 -13.718794457947133 11.463282674519151
6.004197134358296 -13.67272140715056 11.648577754013624
6.520408086787211 -13.705181882050997 11.839392857859728
7.01332892046379 -13.849132507033282 12.038214498457906
7.442799908584023 -14.12446814060693 12.24412328595518
7.770491401149706 -14.513884518339342 12.45363723598579
7.986632301694235 -14.974008504583686 12.66598318753939
8.101649633121218 -15.46753007857877 12.883125453343615
8.127882485944692 -15.971307861301161 13.105907280573998
8.072661153447417 -16.47145387184431 13.331676187863598
7.937682740168721 -16.958212781204043 13.552975413741434
7.720659912892388 -17.422828654703075 13.755520425620894
7.4191350498079816 -17.855165641910627 13.916428825048929
7.03701007228434 -18.241688427496467 14.005549281997672
6.593513137961317 -18.56800236942803 13.996318089723703
6.122030534574911 -18.83145643168909 13.886745920050696
5.650013677003238 -19.047057033854422 13.699747757520722
5.18898568957969 -19.237879988582858 13.463954160410466
4.740512281323363 -19.427209239037285 13.203784920457469
4.303540317139589 -19.637183222235198 12.94003889735045
3.878896931828236 -19.889422019866775 12.694208981915999
3.472572578552245 -20.202233626743674 12.491587957728083
3.097027822984111 -20.582947744868815 12.358571386325325
2.7665640491859116 -21.021440645048166 12.312112024487046
2.48813086887552 -21.495649459112805 12.35093737229755
LINES 1 118
117 0 1 2 3 4 5 6 7 8 9 10 11 12 13 14 15 16 17 18 19 20 21 22 23 24 25 26 27 28 29 30 31 32 33 34 35 36 37 38 39 40 41 42 43 44 45 46 47 48 49 50 51 52 53 54 55 56 57 58 59 60 61 62 63 64 65 66 67 68 69 70 71 72 73 74 75 76 77 78 79 80 81 82 83 84 85 86 87 88 89 90 91 92 93 94 95 96 97 98 99 100 101 102 103 104 105 106 107 108 109 110 111 112 113 114 115 116
POINT_DATA 117
SCALARS MaximumInscribedSphereRadius float
LOOKUP_TABLE default
1.1160000562667847
1.1823400259017944
1.2547199726104736
1.2656400203704834
1.2496399879455566
1.3662999868392944
1.6995699405670166
2.0323801040649414
1.7905900478363037
1.4332499504089355
1.224560022354126
1.1219099760055542
1.5799800157546997
1.7546000480651855
1.7546000480651855
1.8236099481582642
1.913830041885376
1.9279099702835083
1.863319993019104
1.8435499668121338
2.015939950942993
2.1870899200439453
2.054810047149658
1.9136199951171875
1.789720058441162
1.6738699674606323
1.6216700077056885
1.812749981880188
1.9592000246047974
1.9592000246047974
2.2181899547576904
2.466249942779541
2.4800000190734863
2.4800000190734863
2.399090051651001
2.2616500854492188
2.1190600395202637
1.9751900434494019
1.8864200115203857
2.0300800800323486
2.1679599285125732
2.070349931716919
1.91389000415802
1.8369499444961548
1.9153000116348267
2.0022099018096924
2.1012699604034424
2.1700000762939453
2.1700000762939453
2.2367498874664307
2.5046300888061523
2.7722699642181396
2.6070399284362793
2.385119915008545
2.0796899795532227
2.2968599796295166
3.0611400604248047
2.7744998931884766
2.4681200981140137
2.4242000579833984
2.4242000579833984
2.385780096054077
2.2987499237060547
2.164940118789673
1.9561699628829956
1.9918400049209595
2.140170097351074
2.2846601009368896
2.423680067062378
2.559070110321045
2.6935999393463135
2.6350300312042236
2.0905098915100098
1.560960054397583
1.5499999523162842
1.5499999523162842
1.5499999523162842
1.5499999523162842
1.6126199960708618
1.745959997177124
1.8787399530410767
2.0115599632263184
2.144979953765869
2.2005999088287354
2.2384400367736816
2.3071000576019287
2.404249906539917
2.4253499507904053
2.1719400882720947
1.9218900203704834
2.102060079574585
2.3577799797058105
2.494990110397339
2.486829996109009
2.4506399631500244
2.2997000217437744
2.171989917755127
2.1840500831604004
2.1856698989868164
2.039060115814209
1.8968900442123413
2.035789966583252
2.277559995651245
2.320549964904785
2.058929920196533
1.9114199876785278
2.105289936065674
2.2508599758148193
2.2224199771881104
2.1974899768829346
2.626849889755249
3.0621299743652344
3.023129940032959
2.7787699699401855
2.766050100326538
3.0124599933624268
3.2363998889923096
FIELD FieldData 2
Curvature 1 117 float
0.29388393402
0.3291613488
0.30040142217
0.22737660776
0.15744915601
0.10468720402
0.069701214636
0.062469110734
0.098112358397
0.18100661721
0.34516438061
0.59090530177
0.44400612561
0.21659021107
0.11402344006
0.069629808178
0.060597739759
0.07461533978
0.10126624571
0.12981391882
0.1501906003
0.1539288693
0.13359189304
0.10017784919
0.071603433606
0.089332321163
0.18203322615
0.3886677238
0.73914342948
0.54857055971
0.28560911496
0.17135366818
0.13194877357
0.13838525767
0.17003769076
0.2089148761
0.22874391849
0.20733773806
0.15472544858
0.10390224166
0.078282822538
0.083185794231
0.11269016476
0.16255545759
0.23680219214
0.33016795788
0.37510257324
0.31048175754
0.21123683841
0.13219174602
0.089048211869
0.10323948937
0.17845821486
0.3394301411
0.65435008594
0.57665300275
0.28347864279
0.16367219327
0.1120610248
0.095409442066
0.11011407945
0.16120121442
0.25315922371
0.36171612546
0.37922762648
0.25979286535
0.14857610938
0.092926985346
0.084890447963
0.099918036985
0.11800737651
0.12764900548
0.12891171133
0.12814696803
0.12842844963
0.1277632555
0.12233852714
0.11033418881
0.093423357455
0.074722538215
0.056898824556
0.04214865395
0.031667171707
0.024274864176
0.017527817347
0.012984437753
0.013587752509
0.015473483142
0.015880191354
0.01697830016
0.029412738298
0.05667657381
0.097262274849
0.15074380622
0.21488166988
0.27125401648
0.28501930112
0.24722644489
0.19901112327
0.16396468252
0.14693337278
0.14670493875
0.16096051263
0.18577171374
0.21756617329
0.24212026589
0.22613550713
0.1711080704
0.1065779934
0.052252891007
0.043236787428
0.087275419307
0.1401664719
0.1875764651
0.21638933546
0.21741738194
0.1980230833
Torsion 1 117 float
0.0092203106832
0.015721592372
0.024383705433
0.035170237251
0.054061061449
0.099546748986
0.21356076488
0.29971525763
0.1594683424
0.064220019671
0.013478625059
-0.031686612122
-0.073894730913
-0.104206805
-0.13997129669
-0.1484966821
0.045106283425
0.23898709861
0.21407708221
0.14508736744
0.10159044749
0.053369514708
0.00085943722071
-0.10181716046
-0.37544879784
-0.37077752051
-0.14094371377
-0.058181546287
-0.026569270148
-0.01675132149
-0.012527419664
-0.0032570157185
0.019766603165
0.043339017136
0.05517966088
0.067901233663
0.096337530323
0.14122959492
0.23797961948
0.39845534318
0.48285315519
0.3354673937
0.17202367531
0.096222187356
0.067734092314
0.054354164324
0.03405291543
0.0052814103519
-0.034905790782
-0.10747917737
-0.22234084067
-0.13310061387
-0.0069293898468
0.072624751892
0.20136407605
0.29710486651
0.28071508714
0.26860818318
0.27584518537
0.23167562446
0.11256648873
0.026788030099
-0.0018310836167
0.0074973703297
0.052443555994
0.14585156207
0.2859076641
0.43146613178
0.28159726411
0.073865865938
-0.055553257645
-0.17618492072
-0.24617905236
-0.26744735456
-0.23469117913
-0.16954615061
-0.095799058923
-0.027858929262
0.03245772946
0.097320832659
0.17563686962
0.26784339689
0.31408623666
0.22930631367
0.060300536854
-0.13670392406
-0.040056313126
0.088369740871
0.20744032918
0.38654259266
0.23550033812
0.11454436355
0.07282200144
0.059635229123
0.060578744577
0.073313240839
0.093249350096
0.1111198862
0.10674296827
0.070607514957
0.0044998445154
-0.070725985862
-0.13455759693
-0.16545421821
-0.16028696321
-0.13821851124
-0.11617151357
-0.12497960039
-0.2197675775
-0.75859900245
-1.0551847759
-0.27240050574
-0.11690962507
-0.06764256747
-0.042317646984
-0.026352154803
-0.016396025279
