# vtk DataFile Version 2.0
Vessel Segment
ASCII
DATASET POLYDATA
POINTS 80 float
0.0 0.0 0.0
-0.7418305008807964 0.002733524369797942 0.32499181093314883
-1.5085756498055087 0.033053862581597114 0.5846014618136054
-2.29134152180439 0.06739625516915959 0.7908874459471954
-3.0843212950469865 0.08146884359145269 0.956239592926993
-3.8822074530801545 0.048657347368120496 1.0923973314859183
-4.675829957361441 -0.06072044256682477 1.211021858177958
-5.44798002947189 -0.27633753149361395 1.3232942387334468
-6.174127279422936 -0.6155645310640944 1.4358872178261342
-6.834327103479388 -1.0709248993150813 1.5452650077610794
-7.427211972474199 -1.615152420941772 1.6350985586412572
-7.967178141295447 -2.217287094622263 1.6777228244457327
-8.472884751600946 -2.8482925102578425 1.636867219470874
-8.956393364625104 -3.4760014366281604 1.4720780373865399
-9.412878128702724 -4.067519543438072 1.1618828460218933
-9.82545316489849 -4.609093306838192 0.7241369897453113
-10.180283649255495 -5.1106980966246995 0.19655604862425877
-10.469408307094021 -5.591873549959486 -0.3873229160074303
-10.686149791847445 -6.0705563113184455 -1.0036912443609602
-10.823031561552579 -6.558488877363086 -1.635500457285975
-10.87160760881318 -7.061218062976227 -2.2685184340737288
-10.823514760304816 -7.579872865877384 -2.8885053841940116
-10.670627607168441 -8.112681557308353 -3.4785754287115056
-10.405952806193106 -8.65570338300089 -4.017254601491081
-10.02225004591672 -9.203310227964655 -4.472696269849587
-9.512202316662554 -9.744883991364775 -4.786991747768931
-8.884574690399756 -10.24278885927701 -4.833878900343142
-8.275604671830477 -10.57389351791703 -4.444064826324178
-7.898496424048908 -10.662199240361563 -3.740435405209523
-7.734994238006246 -10.601478797794739 -2.9512368539487177
-7.706283028337611 -10.469663712148776 -2.1529480302886856
-7.7632237828869375 -10.307529822255306 -1.3613365531952812
-7.875655695728879 -10.142579573920226 -0.5760772222384274
-8.020017075325784 -10.00175858391114 0.20861914382296304
-8.171615698456193 -9.920932471358377 1.0000710886299147
-8.296916037750568 -9.954710365086184 1.7986805108271453
-8.352569796258223 -10.169762955153216 2.5750121695998107
-8.315091980656144 -10.586600878118718 3.265612098011288
-8.21295450218329 -11.146270818281186 3.8408839889959867
-8.089744956220024 -11.784274179020592 4.3242315357694
-7.9741760863992734 -12.466107501498625 4.746136142794072
-7.881848309578977 -13.174642540421706 5.127988942133321
-7.819520272433281 -13.90070925724738 5.4821751614873415
-7.787190440997893 -14.639080668647876 5.814165684506463
-7.778423835064451 -15.387425148898116 6.124682241390455
-7.781157359434248 -16.145179733102633 6.411554272664982
-7.779227632353885 -16.91242342042251 6.672127253121327
-7.753331247162568 -17.687629916386395 6.906080584222291
-7.683442300017582 -18.466615333385633 7.117434786379345
-7.55026045218672 -19.241169894525072 7.31342787010814
-7.3359318932658955 -19.9985379197278 7.5040321372762735
-7.025253503149012 -20.72005336449669 7.699945454861842
-6.608094981646312 -21.380630927260245 7.911540489412868
-6.084293728542758 -21.950667781604636 8.146941115824104
-5.468407831959319 -22.4042023488561 8.410892652635376
-4.78858476968702 -22.73050608275068 8.704600795780838
-4.0757876109763505 -22.937412555440716 9.028065545260487
-3.3547868112277013 -23.043298659154136 9.381287668056475
-2.6418293532484323 -23.067964804982616 9.764828595099967
-1.9457600751509199 -23.02685226098871 10.177242565044986
-1.2698777671468648 -22.92912914825951 10.612995801705202
-0.6117687364215214 -22.778559431678506 11.060812133564118
0.0355312149144948 -22.578279684733435 11.504969193602525
0.6811982612608085 -22.336646177909415 11.930612838590935
1.3340875949887727 -22.07016168255963 12.329611523813135
2.0009624646654127 -21.80182722627271 12.703494228177984
2.68512894683282 -21.559309005542808 13.06339139659416
3.385283171842101 -21.374342057150773 13.426231858997175
4.092901091863614 -21.28322956354146 13.808912999054545
4.787120217278454 -21.32587837277462 14.2220506166547
5.42955433800489 -21.539267378566095 14.663626014788298
5.970155855661669 -21.936159163832112 15.114088435052324
6.372911507055278 -22.488647466666688 15.545200662744623
6.63527924970241 -23.145010846026807 15.93872290369593
6.779861316427848 -23.858073380560135 16.293842732067667
6.8347884312563565 -24.596887724150182 16.621224267623486
6.82487779954697 -25.342481614677865 16.937998056603412
6.772903853600437 -26.07952653045615 17.270333721588415
6.707824016338486 -26.781178479851828 17.66872160140377
6.710587381107417 -27.31090259678777 18.264085308759388
LINES 1 81
80 0 1 2 3 4 5 6 7 8 9 10 11 12 13 14 15 16 17 18 19 20 21 22 23 24 25 26 27 28 29 30 31 32 33 34 35 36 37 38 39 40 41 42 43 44 45 46 47 48 49 50 51 52 53 54 55 56 57 58 59 60 61 62 63 64 65 66 67 68 69 70 71 72 73 74 75 76 77 78 79
POINT_DATA 80
SCALARS MaximumInscribedSphereRadius float
LOOKUP_TABLE default
0.9300000071525574
0.9300000071525574
0.9300000071525574
1.031849980354309
1.1847800016403198
1.2216700315475464
1.0820000171661377
0.9796000123023987
0.9796000123023987
0.9726449847221375
0.9478849768638611
0.9300000071525574
0.9300000071525574
0.9635090231895447
1.0617400407791138
1.2699700593948364
1.6101399660110474
1.8192499876022339
1.8415100574493408
1.8600000143051147
1.8600000143051147
1.8600000143051147
1.640470027923584
1.3629399538040161
1.2400000095367432
1.2400000095367432
1.6139800548553467
1.993299961090088
1.6547399759292603
1.665560007095337
1.8279800415039062
1.788699984550476
1.6381700038909912
1.611109972000122
1.762760043144226
1.7917900085449219
1.613759994506836
1.5499999523162842
1.5499999523162842
1.6713999509811401
1.8151600360870361
1.8600000143051147
1.8600000143051147
1.8041000366210938
1.6684900522232056
1.6023199558258057
2.0109100341796875
2.419719934463501
2.247459888458252
1.9736599922180176
1.9414600133895874
2.0821499824523926
2.1141300201416016
1.9678000211715698
1.9027999639511108
2.061229944229126
2.2158100605010986
2.3569400310516357
2.4916601181030273
2.198930025100708
1.8937300443649292
1.9937900304794312
2.144439935684204
2.293519973754883
2.439379930496216
2.4800000190734863
2.4800000190734863
2.3378000259399414
2.0525600910186768
1.8086299896240234
1.656149983406067
1.6446599960327148
1.9426000118255615
2.1975998878479004
2.331890106201172
2.4623100757598877
2.4800000190734863
2.4800000190734863
2.4800000190734863
2.4800000190734863
FIELD FieldData 2
Curvature 1 80 float
0.12215891046
0.092198984438
0.068406451893
0.059529120182
0.072990582155
0.10282459372
0.13875951379
0.1661778541
0.16651888945
0.13983992744
0.11165769665
0.11743151992
0.15800182628
0.19155021881
0.18155840121
0.1478904697
0.11853655654
0.10458981289
0.10421685751
0.11078261997
0.12122452369
0.13499544074
0.15421734611
0.18685405742
0.25272091381
0.39485441341
0.63090227475
0.61487146155
0.36947021076
0.21373668119
0.12437513925
0.069497908144
0.054118626036
0.094695393378
0.16776279797
0.25620868182
0.30614765664
0.25422796867
0.16861820699
0.10793703166
0.07338276497
0.05687594881
0.048584538969
0.041075808386
0.034491886456
0.034962168165
0.045222579197
0.061105132437
0.080223101349
0.10242949227
0.12753456256
0.15350397757
0.17635744448
0.18766148955
0.18029932719
0.15720661921
0.1296668446
0.10630063688
0.090761529015
0.080607330102
0.071445119054
0.06319644075
0.05765892173
0.051772893735
0.044824774483
0.045687188354
0.072976763789
0.11951477101
0.17259229117
0.22615565213
0.2623236744
0.26218674688
0.22765229849
0.17463527877
0.12232969586
0.080861958991
0.076423997745
0.15512627735
0.39099402298
1.1430306126
Torsion 1 80 float
0.12130995726
0.21432910118
0.39533422345
0.54906312214
0.397702465
0.2209188662
0.12168325776
0.043615959246
-0.052769892154
-0.22180824784
-0.49070597517
-0.47831106185
-0.23662221856
-0.036288299448
0.10671896496
0.19601769144
0.27500266624
0.26249128682
0.17555076415
0.10430429321
0.071576652426
0.060984410978
0.06586717082
0.081941979311
0.094427191292
0.09708578073
0.089024934756
0.068407720763
0.051028292035
0.062647885988
0.13029879865
0.39598255894
0.75228155707
0.321928367
0.13719693608
0.053404792443
-0.012922430748
-0.09177900974
-0.15517211376
-0.22775685686
-0.26322353084
-0.19494354901
-0.023697183691
0.21801480925
0.50203594069
0.60644482986
0.45808549968
0.31563674001
0.22864944605
0.17105729331
0.12533017978
0.09570553693
0.07993109624
0.076998913065
0.087229588804
0.10919923363
0.13509113256
0.13728771121
0.081500397343
-0.048778138474
-0.22608698262
-0.35604117567
-0.39504912164
-0.42687010273
-0.57754831684
-0.72117067756
-0.34620433526
-0.14208631049
-0.061269482014
-0.028169201098
-0.011178619701
-0.0072921886891
-0.01508864861
-0.040412844966
-0.099589325747
-0.29149585307
-0.47548636985
-0.21878264646
-0.11640631635
-0.085029956998
