# vtk DataFile Version 2.0
Vessel Segment
ASCII
DATASET POLYDATA
POINTS 102 float
0.0 0.0 0.0
-0.43918150702091674 -0.143028857358538 0.431551838610501
-0.9945750154662901 -0.26197646078020365 0.7068033678905463
-1.6143478443741293 -0.34793409647877915 0.7957940650080831
-2.2423304930468655 -0.4083566340150184 0.7406166984710095
-2.8591073299469647 -0.45822373205029376 0.6029595905889785
-3.467693032476441 -0.5137808340193916 0.4337639481907053
-4.078300976870109 -0.5953745260229593 0.2845411840075953
-4.693017296985487 -0.7344854781304542 0.23536845933373557
-5.261658448593945 -0.9550671602920995 0.39148191472144916
-5.720135940353575 -1.2219114676580605 0.735371527471844
-6.098976884471198 -1.4964035260740576 1.1630054608313019
-6.45064082674897 -1.7713368008967874 1.6133933823795097
-6.811405761547587 -2.051518863246607 2.053099285949412
-7.205984629681323 -2.3467408597231993 2.4516599513275152
-7.649293197818223 -2.672556271418552 2.76458002995505
-8.131788654276056 -3.049183900446662 2.9184162782599263
-8.579142308895994 -3.484466790365464 2.8382113329791903
-8.878472681094296 -3.9503382734657935 2.5384373333555397
-8.98402345957601 -4.4046441002650445 2.1128889310989445
-8.926002296581332 -4.820648485330099 1.639748226871295
-8.753140700377392 -5.19083146159757 1.1556735532199656
-8.505509800362546 -5.519173620802518 0.6733685672327994
-8.211613864124768 -5.815914559007208 0.19630875224479882
-7.890603612531156 -6.094768150099596 -0.27405084200926416
-7.55568901657892 -6.374253428069384 -0.7342347321943875
-7.2171717560596855 -6.683886082813967 -1.171665839700069
-6.8932544187698 -7.090221077719447 -1.529333218331747
-6.725449331358321 -7.662717448094932 -1.4955825742353006
-6.837825100787351 -8.067029598381565 -1.0303427780123697
-7.06143863885865 -8.29298182451041 -0.4836334572445967
-7.345095581788818 -8.389872224123357 0.07388445997882301
-7.664904543356994 -8.361430643019402 0.6194557799598316
-7.992551123691219 -8.206392501934435 1.1384829904876967
-8.294347967933716 -7.940053302968532 1.6274869916994925
-8.54216813290992 -7.601788596649326 2.1025866485526636
-8.72052805706771 -7.241593264998745 2.5925393855898653
-8.821716097363725 -6.9157802643220085 3.1259772543857207
-8.843458663243052 -6.6938098354375315 3.7175604536349787
-8.796055626233354 -6.646594857879886 4.3452968770315525
-8.707760507986542 -6.797146093320426 4.952366048851548
-8.60865799879339 -7.109371798586546 5.493450463188132
-8.51530697450877 -7.533402464624352 5.954266040250654
-8.432826027654503 -8.033973327646535 6.333486117045647
-8.360142254946462 -8.589974714160473 6.6283301863541775
-8.292071966360187 -9.18629797600884 6.830707472455514
-8.220526194438909 -9.807777806096825 6.929557427448637
-8.134632450733658 -10.435134494061375 6.918054457631575
-8.022951657420696 -11.048460259189959 6.805173579802486
-7.875814424340449 -11.635872396233491 6.61834435000125
-7.686267373804297 -12.197118953746596 6.392581388833763
-7.449317889013102 -12.738772368476562 6.163848655485987
-7.1606044372904725 -13.268606969950765 5.970003361512113
-6.818547801442912 -13.789149505678804 5.85604777213493
-6.43092110548849 -14.28858357342353 5.873049672660494
-6.020225783415925 -14.735241649172744 6.050272198786174
-5.609087436672667 -15.098724404706278 6.365277808516572
-5.198770644522818 -15.369550509316607 6.764596739249415
-4.772969688066194 -15.55164027927339 7.196971337962635
-4.313228219797112 -15.650489631511858 7.621571607148478
-3.8105079336787417 -15.673370198177949 8.006353903890643
-3.268829806007962 -15.63329906877959 8.332609929238075
-2.7001253651608335 -15.547594590035697 8.598949128203978
-2.11601210433868 -15.432375626903717 8.816811181366745
-1.524953000261081 -15.298825689234086 9.003640411167982
-0.9331476859218218 -15.152699878463263 9.178334984274757
-0.34580486566350077 -14.995449627798092 9.358338017619369
0.23259488379332413 -14.827265407709243 9.556373661947898
0.7995673091421646 -14.650232749299574 9.778306117289171
1.3556814107764028 -14.469598029077565 10.023617014640745
1.9038762203889752 -14.293259744029312 10.289078000075762
2.4477054758214485 -14.131142852287693 10.57198873274427
2.989397834152888 -13.99531932406315 10.872192496436227
3.5280267390455458 -13.900641034030407 11.19278534043194
4.056792731862528 -13.865815075631213 11.540353564835735
4.559885520357074 -13.912206690331486 11.922393026524844
5.013603812057331 -14.05618428351543 12.339857886116556
5.395295484311078 -14.300086543240592 12.782142675473626
5.692566545233967 -14.6327251376193 13.23155051795442
5.904765718422341 -15.037227758376599 13.670289452370632
6.036803947419723 -15.498612335832503 14.083879955735053
6.094394743591439 -16.004239104892495 14.461362290862544
6.084143092436094 -16.542037300855434 14.796302428543244
6.014897432274506 -17.10012301296293 15.088744595899891
5.897800587017969 -17.667563477300604 15.345999528786598
5.745492924515652 -18.236267918147732 15.581332971842151
5.570122362064408 -18.80168553786656 15.808575273859976
5.382206064244671 -19.362615649186314 16.036951786638657
5.1902003774748255 -19.920827939771147 16.268710480202127
5.000615504084133 -20.480051652665406 16.4997669457576
4.818027256028487 -21.04572242933892 16.720662889126977
4.644843638150643 -21.62325602035794 16.916795637012804
4.480856097340314 -22.216243035196378 17.069558303934564
4.323511214194465 -22.8235078009016 17.1598885479263
4.168308822466282 -23.437756383405468 17.174324220512432
4.009162757725598 -24.047852589097882 17.110324484793324
3.838835895530418 -24.64348147758483 16.97633325537263
3.649345729964737 -25.217962568347296 16.786843165151282
3.4321851325305697 -25.76766788112281 16.55757277465213
3.178338739540105 -26.290062983279938 16.30351025644604
2.878218005301737 -26.78183603937224 16.039115883043454
2.5221554185551653 -27.237413399481966 15.779613247443322
LINES 1 103
102 0 1 2 3 4 5 6 7 8 9 10 11 12 13 14 15 16 17 18 19 20 21 22 23 24 25 26 27 28 29 30 31 32 33 34 35 36 37 38 39 40 41 42 43 44 45 46 47 48 49 50 51 52 53 54 55 56 57 58 59 60 61 62 63 64 65 66 67 68 69 70 71 72 73 74 75 76 77 78 79 80 81 82 83 84 85 86 87 88 89 90 91 92 93 94 95 96 97 98 99 100 101
POINT_DATA 102
SCALARS MaximumInscribedSphereRadius float
LOOKUP_TABLE default
0.9300000071525574
1.0400700569152832
1.1664799451828003
1.29885995388031
1.4293400049209595
1.5417100191116333
1.4093799591064453
1.2656899690628052
1.2400000095367432
1.2400000095367432
1.2400000095367432
1.2400000095367432
1.2400000095367432
1.2400000095367432
1.3658299446105957
1.5168800354003906
1.4480899572372437
1.3096699714660645
1.060130000114441
0.9392079710960388
1.255020022392273
1.538140058517456
1.4278600215911865
1.3066200017929077
1.2956299781799316
1.4249399900436401
1.600540041923523
2.0398600101470947
2.2212600708007812
2.0850000381469727
1.8698400259017944
1.4990899562835693
1.0654900074005127
1.0337799787521362
1.184689998626709
1.2400000095367432
1.2400000095367432
1.3392900228500366
1.5065300464630127
1.5499999523162842
1.5499999523162842
1.6802400350570679
1.8207299709320068
1.765239953994751
1.6338800191879272
1.5499999523162842
1.5499999523162842
1.5537500381469727
1.686460018157959
1.8172099590301514
1.8600000143051147
1.8600000143051147
1.902809977531433
2.0464398860931396
2.110379934310913
1.7920500040054321
1.587149977684021
1.741129994392395
1.8625199794769287
1.8743799924850464
1.881060004234314
1.8469200134277344
1.8138099908828735
1.647070050239563
1.4674700498580933
1.4270600080490112
1.4956300258636475
1.5779900550842285
1.7107399702072144
1.8430700302124023
1.7452000379562378
1.613569974899292
1.5569100379943848
1.5704200267791748
1.6445000171661377
1.918280005455017
2.1712400913238525
2.183190107345581
2.185149908065796
1.900320053100586
1.616260051727295
1.7789499759674072
2.0022799968719482
2.0135300159454346
1.9189599752426147
1.8600000143051147
1.8600000143051147
1.8628000020980835
1.9914799928665161
2.1223599910736084
2.2594499588012695
2.401289939880371
2.451859951019287
2.30610990524292
2.1793999671936035
2.3158700466156006
2.449970006942749
2.4800000190734863
2.4800000190734863
2.429229974746704
2.2999300956726074
2.1700000762939453
FIELD FieldData 2
Curvature 1 102 float
0.29551281763
0.34934959804
0.32865780382
0.23242580419
0.13109686962
0.057523892556
0.094259439497
0.22472660783
0.39382281769
0.37687526324
0.21554172685
0.093112726641
0.033433715036
0.09065627009
0.17653493233
0.2902386252
0.40493402174
0.4364304349
0.38286672374
0.29443594736
0.21327719129
0.14685405757
0.092572690657
0.05219477995
0.060038242683
0.13505232747
0.30501535199
0.85140698156
1.0283421074
0.39370000548
0.23638584017
0.20767631129
0.206417633
0.19013916614
0.14540177043
0.11915477733
0.15506980308
0.23195298458
0.31036314149
0.33089133129
0.28915561558
0.22747348472
0.18149177669
0.15953569756
0.15833024813
0.1684353497
0.17750166843
0.16888677996
0.13754363675
0.10039773383
0.081477872509
0.10524529694
0.1626059183
0.23358249125
0.27788850396
0.25863995935
0.19962724466
0.15207083472
0.14336353165
0.15382954938
0.15268955495
0.13078945401
0.096604371647
0.059800618981
0.027325013605
0.021143144093
0.037452077804
0.044970334499
0.041548396265
0.034958627503
0.035648720556
0.049548672674
0.073938923159
0.10792943964
0.14918396237
0.18521617128
0.2002178776
0.19472933675
0.17701911564
0.16008155444
0.14833325656
0.13709478809
0.12036407791
0.096694528127
0.066962012816
0.040060586386
0.022013419282
0.010014170427
0.0054731731842
0.023165705411
0.047347466823
0.075652962791
0.10287592893
0.12143680394
0.12553202863
0.11596283193
0.10005164567
0.086528365156
0.081831611074
0.088567292178
0.10504754845
0.127835799
Torsion 1 102 float
0.0050701871739
0.01023444008
0.020466773194
0.041596510667
0.11357361714
0.5957321524
0.28479823784
0.085426581337
0.052949095328
0.037814384918
0.022252180493
-0.024647887374
-0.19993252854
0.070579963966
0.10025992393
0.14287542893
0.21432800561
0.224778861
0.13534782049
0.033235390411
-0.018986560266
-0.030403294798
0.0008783412909
0.1999297168
0.27167209808
0.071553752539
0.0077771045637
-0.03001700345
0.018780735824
0.044185380291
-0.0081683437023
-0.10004070961
-0.16233831766
-0.27310947317
-0.5277309108
-0.79332417281
-0.51475762353
-0.28693640324
-0.17750693167
-0.11741794375
-0.077353203303
-0.041671108552
-0.00031599311236
0.04809311075
0.086057989964
0.10660768605
0.12543679794
0.16829139535
0.26042721564
0.46833765666
0.7031419105
0.4592466401
0.22354487157
0.10544296267
0.005999520741
-0.10192009208
-0.27552049419
-0.45394890933
-0.41425668431
-0.24411807523
-0.13974404405
-0.082381228233
-0.037240384539
0.075624415608
0.71006086075
1.0379756136
0.21739650979
0.13809237907
0.23311114238
0.4405065729
0.45869759226
0.1909339353
0.03113013203
-0.042114361286
-0.054436859564
-0.032396832227
-0.0075917295027
0.018395871398
0.044869455397
0.055888466245
0.046680343185
0.021028203322
-0.013179405667
-0.074812616233
-0.1820728586
-0.36066698351
-0.50877039334
-0.67911961614
-1.5709001948
-0.26298268872
-0.17430779583
-0.13363802508
-0.10911204223
-0.10570942568
-0.12025420511
-0.15865607908
-0.22110572906
-0.29296756047
-0.32164509464
-0.27398025211
-0.19965501351
-0.13892428925
