# vtk DataFile Version 2.0
Vessel Segment
ASCII
DATASET POLYDATA
POINTS 46 float
0.0 0.0 0.0
-1.338387702424241 0.28488719901551 -0.38553524068972905
-2.7060408402793077 0.3509214756138866 -0.7638173685887577
-4.061333072602431 0.10554557488419197 -1.10412898004712
-5.318488266677578 -0.49936403186022094 -1.3588054167792125
-6.417523751631581 -1.387745202248007 -1.499866349609334
-7.390186109468068 -2.4241463913280867 -1.5408706587747936
-8.312546755003714 -3.506544964714608 -1.5098982523653028
-9.255171162865535 -4.5690492858752085 -1.4325597505353347
-10.269671971479937 -5.56114324086501 -1.33858551459126
-11.387234348876104 -6.437674520485651 -1.279463225720051
-12.6060661269133 -7.163930453577782 -1.3505935205259196
-13.85808493295095 -7.751623673486533 -1.6712921229073878
-15.030282492613393 -8.28936595707046 -2.2665762165178713
-16.05886539128272 -8.876493999359155 -3.0521381212077285
-16.940475195517852 -9.55152869214234 -3.9398289675024483
-17.68369183985562 -10.308968973251481 -4.886120659030826
-18.281092658219308 -11.129200487948687 -5.882024180311996
-18.699843522205743 -11.99020956793283 -6.932393330573424
-18.87842350221099 -12.866456913082445 -8.035817857086975
-18.74245656909686 -13.728172465091657 -9.155044480725053
-18.257557047327033 -14.55574052356157 -10.200192466305978
-17.46029798439355 -15.354663496321718 -11.059791293561984
-16.43407133813545 -16.14554479894509 -11.637466067324768
-15.281530185117155 -16.943763991002168 -11.845734020314879
-14.135069737743198 -17.730270549714117 -11.584975868692698
-13.186266369958076 -18.43479674897615 -10.811168312838976
-12.585944794393606 -18.994833944010228 -9.657511606851575
-12.303344209832568 -19.44565729227376 -8.340599308328407
-12.223564678948364 -19.880958440900798 -6.989258273116915
-12.250543499924719 -20.397310097226658 -5.664726842011012
-12.31278368533323 -21.079118847484498 -4.419409091338759
-12.36001100379379 -21.964158741608962 -3.308987127624531
-12.370085631286512 -23.011056086490054 -2.3473158765256676
-12.337293554789596 -24.14209357672627 -1.4854738323824443
-12.249978995135164 -25.290148295970134 -0.6501453469247811
-12.08289903403703 -26.402602880625057 0.21993685235273813
-11.80887771118232 -27.444152568691635 1.1484072824258955
-11.424118580474415 -28.416167243067996 2.1126756592550096
-10.954006359227394 -29.35505140720591 3.072315635074177
-10.437189272403113 -30.299169856219077 4.002450984219745
-9.911654741308553 -31.260813857682688 4.90955837308534
-9.409208893446596 -32.21296119305313 5.839214330499612
-8.96327046282116 -33.083679637672276 6.870252219456049
-8.623434290214906 -33.75107606425538 8.075231931365533
-8.44136019629306 -34.08838295136915 9.439863324366948
LINES 1 47
46 0 1 2 3 4 5 6 7 8 9 10 11 12 13 14 15 16 17 18 19 20 21 22 23 24 25 26 27 28 29 30 31 32 33 34 35 36 37 38 39 40 41 42 43 44 45
POINT_DATA 46
SCALARS MaximumInscribedSphereRadius float
LOOKUP_TABLE default
0.9796000123023987
1.0772099494934082
1.1912699937820435
1.2400000095367432
1.2400000095367432
1.4197700023651123
1.646239995956421
1.4134900569915771
1.1336899995803833
1.049399971961975
0.9931100010871887
1.1929700374603271
1.1972800493240356
0.926190972328186
1.1803900003433228
1.5368599891662598
1.5648900270462036
1.580090045928955
1.4390599727630615
1.2829500436782837
1.2581100463867188
1.2477799654006958
1.3273500204086304
1.388800024986267
1.388800024986267
1.4962400197982788
1.7746200561523438
1.869860053062439
1.8834600448608398
2.020930051803589
2.167020082473755
2.012089967727661
1.8847999572753906
1.8847999572753906
1.9285500049591064
2.0768399238586426
2.106980085372925
1.9391100406646729
1.6804900169372559
1.3460999727249146
1.2400000095367432
1.2400000095367432
1.2400000095367432
1.2400000095367432
1.2400000095367432
1.2400000095367432
FIELD FieldData 2
Curvature 1 46 float
0.17667288868
0.21839354467
0.26554019731
0.2892438268
0.24672384178
0.158469752
0.076636719515
0.039887139168
0.076646562948
0.12641269398
0.17755106642
0.21705120052
0.21147920569
0.19042094217
0.1608830566
0.1298959311
0.11595399827
0.13249239603
0.17481029532
0.22551357474
0.2547896915
0.257149099
0.25460405251
0.27223046515
0.33337981637
0.40221637963
0.38916603423
0.26778647111
0.14514298836
0.094695947968
0.1336779071
0.17694040714
0.16173048665
0.099223950401
0.042635080169
0.069644108637
0.10447226177
0.097623020424
0.065601748029
0.042903145062
0.026557304068
0.021783290033
0.098494654391
0.20304824788
0.29547540084
0.31349882435
Torsion 1 46 float
-0.010676085875
-0.017323237256
-0.029696694344
-0.050228338964
-0.082700697528
-0.15966580995
-0.51042564858
-1.3898816622
-0.38398665698
-0.27347727461
-0.34277720642
-0.4440753202
-0.49971456225
-0.3770517826
-0.17776100585
-0.010865379164
0.11477347084
0.10872714801
0.039522547403
-0.063046766318
-0.17450947272
-0.23283184585
-0.25286377255
-0.19527124277
-0.11125457079
-0.075096027604
-0.08737074547
-0.17390563715
-0.47686437124
-0.97332016871
-0.38915258298
-0.13152937164
-0.079136343718
-0.2462523903
-1.4740869992
-0.36338087216
0.038600120027
0.24504500506
0.53428762341
0.68996285822
0.74379677959
1.4914832295
0.1607179487
0.048278944365
0.019721039435
0.009070950093
