# vtk DataFile Version 2.0
Vessel Segment
ASCII
DATASET POLYDATA
POINTS 86 float
0.0 0.0 0.0
-0.6897701761846678 0.13483910120057818 -0.27042791145955575
-1.4095629871194095 0.19136573618663774 -0.48305682455965415
-2.1476237087771493 0.13214443264210268 -0.6146014899550374
-2.868464684376396 -0.07763987008784033 -0.6464962553252284
-3.5266399788142326 -0.43603935646860703 -0.5862267871161883
-4.106951204455336 -0.900527672673276 -0.4673343545920785
-4.627442073313812 -1.425285457086985 -0.3219379218319829
-5.11461587161702 -1.9793932801240897 -0.1692043364203519
-5.589811461192886 -2.54473103084739 -0.01991512862559586
-6.06642935595383 -3.1121651108997 0.11642196267452701
-6.548662214557872 -3.6805716707020486 0.226255053738664
-7.029846908497409 -4.2569151504026514 0.28622463832434436
-7.484153461680387 -4.855794170390113 0.25290756776907564
-7.837910463968094 -5.4859681885010465 0.053382140992544416
-7.970053468592942 -6.100269794832724 -0.35173635787316376
-7.866509365515836 -6.632964499144688 -0.8706549797348823
-7.617344630969741 -7.0962561368904264 -1.4091131616843697
-7.287247018547864 -7.526529159687001 -1.9318503016835358
-6.909606427685434 -7.953059349260596 -2.424790433658775
-6.503591133984155 -8.400402890312611 -2.8747543863720533
-6.085744717332706 -8.894615385661249 -3.2595821880743387
-5.681825752960437 -9.4660921825599 -3.5342027581919147
-5.355470973761541 -10.135348176880878 -3.6048781881315386
-5.241669422748277 -10.822273028686764 -3.3500242328451324
-5.410049793213017 -11.322024802964032 -2.8239184001435587
-5.75504733766411 -11.571414450227648 -2.2068450123216845
-6.177684752203045 -11.608025242579483 -1.5867042434380163
-6.617765397500738 -11.466597269768515 -0.9936643860025451
-7.030669446435767 -11.171687430504772 -0.43835988450650987
-7.374318942598996 -10.749499841400876 0.08085862097856836
-7.604992281721827 -10.234623936385498 0.5783641241151463
-7.673871265955801 -9.67894529436889 1.0796138884919588
-7.532967375477084 -9.17372707004295 1.6153788299002252
-7.176290077904755 -8.869159550089767 2.1966632492999936
-6.7068608220009205 -8.88982295975651 2.77742358636751
-6.262810288736846 -9.203375564272452 3.293497597859073
-5.9077066661785285 -9.715256917105995 3.7126906347811324
-5.656969684635676 -10.355836896947512 4.015011883593625
-5.50768047684092 -11.074058174894121 4.178825454879772
-5.446212902155695 -11.823274567340844 4.188184679963104
-5.449805793566996 -12.56215854094557 4.047206532587175
-5.488737827965362 -13.26944834681209 3.7919013238484762
-5.536055179679769 -13.950983147492398 3.4742317455889804
-5.572366802416873 -14.628100376797166 3.1457049521466076
-5.5847948365792535 -15.324084570063023 2.8582079504488656
-5.566976037282668 -16.05178359852506 2.66736629659448
-5.518386322194863 -16.800872897436165 2.6240174048292007
-5.441120592627596 -17.537810840527875 2.7512194697548837
-5.335255961512586 -18.225821699455498 3.0359475459969376
-5.195325978801162 -18.840438183591704 3.4467552656029565
-5.010923254745487 -19.366386934395326 3.952346202432215
-4.768421648706995 -19.787541353015886 4.526669037718275
-4.453072598485402 -20.081492814199976 5.14284277467007
-4.057537523411919 -20.2267541208274 5.765529698317788
-3.589155718163963 -20.22010580799881 6.353702872951306
-3.066868403599836 -20.085940195435693 6.8785363422794825
-2.5098409992867365 -19.86521067595959 7.3345636562536445
-1.929529773645633 -19.597328383757613 7.733242511312016
-1.330949923272904 -19.312601021524188 8.091417084975262
-0.7156751231825613 -19.031638983785495 8.423387542025882
-0.08527619235410835 -18.765718608788486 8.738886534059155
0.557349422203898 -18.515737762381676 9.042630802065354
1.207027299971248 -18.272584980475315 9.336866617185166
1.8571985576998873 -18.022312104540045 9.62384096456791
2.501029418820349 -17.754317534481466 9.909092409133589
3.1338538369548807 -17.469245663085488 10.202355030494735
3.755403344859713 -17.18143306957459 10.51620680462541
4.368941675969078 -16.91611924490626 10.863600562028873
4.9773516401146765 -16.70658234616559 11.254792322624029
5.577757924555391 -16.591216402250463 11.693750546360004
6.156729134505684 -16.606055643546384 12.173789256453132
6.6909286119991505 -16.770685326693243 12.676873308992828
7.15584408386495 -17.079349114139795 13.181169748181249
7.5343903946707895 -17.506830006200303 13.671181373772656
7.818355887386387 -18.020754851724455 14.142123970961517
8.005483523565177 -18.590576933629926 14.597216647642874
8.097266243648031 -19.189882573772046 15.04377406519651
8.099777356207431 -19.795440073452593 15.491499600863996
8.026603311648477 -20.386719721120237 15.952312200656626
7.900703060162962 -20.946105138924157 16.440811555975948
7.755215680553996 -21.457574330277737 16.974179748925373
7.635573137341634 -21.90291150708775 17.569158139783276
7.5995236003961955 -22.257987818816083 18.23103958525088
7.699313825429372 -22.49924571107734 18.935630126128387
7.94617204435687 -22.624744508423202 19.63456285148879
LINES 1 87
86 0 1 2 3 4 5 6 7 8 9 10 11 12 13 14 15 16 17 18 19 20 21 22 23 24 25 26 27 28 29 30 31 32 33 34 35 36 37 38 39 40 41 42 43 44 45 46 47 48 49 50 51 52 53 54 55 56 57 58 59 60 61 62 63 64 65 66 67 68 69 70 71 72 73 74 75 76 77 78 79 80 81 82 83 84 85
POINT_DATA 86
SCALARS MaximumInscribedSphereRadius float
LOOKUP_TABLE default
0.6200000047683716
0.8619679808616638
1.1418100595474243
1.127769947052002
0.9488409757614136
1.0956100225448608
1.2112799882888794
1.069309949874878
1.078629970550537
1.363669991493225
1.5499999523162842
1.5499999523162842
1.4366799592971802
1.0825400352478027
0.9300000071525574
0.9097080230712891
0.7232270240783691
0.6891970038414001
0.8612099885940552
0.9796000123023987
0.9796000123023987
0.9994930028915405
1.1415799856185913
1.2400000095367432
1.2400000095367432
1.2400000095367432
1.3243099451065063
1.4928799867630005
1.5499999523162842
1.5499999523162842
1.5499999523162842
1.5499999523162842
1.4202799797058105
1.2295000553131104
1.023319959640503
1.154539942741394
1.5401699542999268
1.3729000091552734
1.2400000095367432
1.2400000095367432
1.3232799768447876
1.4945000410079956
1.3281699419021606
1.0033400058746338
1.0547399520874023
1.218440055847168
1.093809962272644
0.9233499765396118
0.7538819909095764
0.6840360164642334
1.0098899602890015
1.2400000095367432
1.2400000095367432
1.3216300010681152
1.5142899751663208
1.5809999704360962
1.5809999704360962
1.5809999704360962
1.581030011177063
1.7242599725723267
1.8787200450897217
1.7192800045013428
1.5574899911880493
1.731660008430481
1.883080005645752
1.8701200485229492
1.8600000143051147
1.8600000143051147
1.824180006980896
1.6799399852752686
1.6507400274276733
1.867069959640503
1.7995500564575195
1.4051200151443481
1.2400000095367432
1.2400000095367432
1.426609992980957
1.7349499464035034
1.7675100564956665
1.6103899478912354
1.6501599550247192
1.8155800104141235
1.7334799766540527
1.5597000122070312
1.5658299922943115
1.5809999704360962
FIELD FieldData 2
Curvature 1 86 float
0.16276378794
0.19735021452
0.23742357747
0.26701656637
0.25399461589
0.19535749487
0.12907332498
0.077242546587
0.041886496104
0.02391873146
0.03630977157
0.078936117904
0.15612772813
0.2865625395
0.42861674761
0.39410377281
0.25100409082
0.14710119108
0.084708024893
0.0725086094
0.11843026383
0.20701242591
0.35163497001
0.55349218869
0.61964742482
0.44263564021
0.31151546616
0.24380747885
0.21335411817
0.19795452357
0.19869687231
0.23128741752
0.30581660292
0.4138112794
0.47871499629
0.4098969729
0.31794403084
0.26817593455
0.24935276349
0.24018916661
0.22146924192
0.16814201394
0.093448759687
0.022731908351
0.06922942922
0.14359827217
0.20500871642
0.2330629994
0.2242493623
0.19859658938
0.18019452956
0.18242816668
0.20417991344
0.22722178428
0.23061981037
0.20545334741
0.15812426492
0.10639496516
0.063537583621
0.040875947859
0.038094394211
0.034609736226
0.02082584572
0.013795303379
0.027700463057
0.033254974209
0.033426193397
0.054029258442
0.094560436911
0.14181858135
0.18510803609
0.21135555649
0.21368931253
0.19754827982
0.17268435952
0.14967848728
0.1324978948
0.11897374802
0.10490914759
0.092429023055
0.095404643185
0.12830635776
0.1872809067
0.24884106599
0.27391667524
0.2522944617
Torsion 1 86 float
0.014776953417
0.023357685391
0.038807550208
0.062191030595
0.079874088673
0.09015293693
0.08072254994
0.092423367096
0.21612374317
0.36429544675
-0.17799533152
-0.18850701294
-0.14047888553
-0.11764776492
-0.11331189335
-0.11047176102
-0.12713047507
-0.20111008918
-0.43265480325
-0.53013210968
-0.21887678217
-0.097982072588
-0.062256933092
-0.051672507791
-0.02650381113
0.030601835448
0.081082912619
0.13027501044
0.18378857235
0.27753748412
0.36571301327
0.3915528294
0.35964103634
0.32168299462
0.25150057524
0.13378890495
0.041045087391
-0.051209279138
-0.11225811006
-0.12916531452
-0.11945788647
-0.12066066219
-0.2219666612
-2.8117235124
-0.3511601923
-0.11790287635
-0.053246698597
0.0021614066531
0.058726118583
0.11794666424
0.15632349329
0.15425323839
0.12462297286
0.098606915213
0.091315716775
0.093193109534
0.1155141458
0.18355009874
0.37252447059
0.58907478488
0.30909446594
-0.0096742840085
-0.55863179759
-1.4006303456
-0.41753526023
-0.51565182762
-0.8785210783
-0.49590048296
-0.21409917729
-0.11141287109
-0.057982397631
-0.016099028927
0.020575745322
0.066994408661
0.11786484538
0.16054399222
0.19473609607
0.23459099758
0.31698183584
0.47647044383
0.56836881769
0.41826337399
0.25257906292
0.14655663054
0.080909319097
0.043560832732
