# vtk DataFile Version 2.0
Vessel Segment
ASCII
DATASET POLYDATA
POINTS 47 float
0.0 0.0 0.0
-1.3470998636458018 0.198845477244265 0.28375265719601844
-2.7017096572698853 0.1356076556514442 0.5854950930056397
-3.9794797917755824 -0.28306899101938704 0.9270331390740062
-5.070725387290583 -1.0389230373277893 1.3341251533640093
-5.968537646168721 -1.9820392282452117 1.8231271342914845
-6.76131259044278 -2.975034455653901 2.3917216354820328
-7.540935409162974 -3.9484035247600535 3.0104707192274334
-8.371775677388477 -4.884976796412908 3.6190791879346627
-9.294937524243668 -5.796607950328964 4.120838171758786
-10.316944982065113 -6.703471637446761 4.368091373494419
-11.358786516865317 -7.6035168592364055 4.207121782282883
-12.283042708884302 -8.472628136151855 3.6440602980389505
-13.027462405894905 -9.312981242298964 2.8240287140812548
-13.596806535350419 -10.14801838901181 1.868102230698283
-13.997916145658502 -10.996684667907465 0.8411706461187849
-14.216209066187648 -11.864704158533236 -0.22378499548989836
-14.215282347587005 -12.738993621851154 -1.3050953357688342
-13.955898620325705 -13.583299254316014 -2.378365449871645
-13.435005106965795 -14.351691946263129 -3.4130656138004314
-12.701515620435005 -15.021275379503264 -4.386980576051423
-11.824784503805418 -15.609223092423928 -5.2938429634236375
-10.859429132864957 -16.159827815000874 -6.132015096482558
-9.837894706278737 -16.7348274624242 -6.882145063243651
-8.784197460909562 -17.430305726913435 -7.4616418303839795
-7.83561795190241 -18.4049849395672 -7.521471719058306
-7.533616866721782 -19.39609943511736 -6.642687735514548
-7.693251294283233 -20.089030198264016 -5.44989301760371
-8.004451653763581 -20.61360361630565 -4.19903866450252
-8.371462276234789 -21.03898630031171 -2.925425766243887
-8.754609240118313 -21.395638437891403 -1.6354581693150014
-9.135303096682216 -21.70247782600456 -0.33186144020330804
-9.506458120412857 -21.97963362449432 0.9811389482010244
-9.867774476251062 -22.25418603258143 2.2972743229514307
-10.220917666310239 -22.559335101563963 3.608980164755146
-10.563160519729484 -22.92776358399797 4.907071171577465
-10.881841179050527 -23.38351092431289 6.183123692295295
-11.153603277073342 -23.935492077462182 7.431632654492052
-11.351105304789431 -24.574042785163815 8.65252917165184
-11.457524573884582 -25.273760169871842 9.851102558424472
-11.478428463329255 -26.00746785119237 11.033961371226454
-11.438911729732151 -26.763104190115627 12.202578221803268
-11.368086805767062 -27.553725780895135 13.346281549046108
-11.286065873350445 -28.413458743556813 14.437813738462149
-11.20210413645914 -29.38528907636095 15.429824246123555
-11.118449078599834 -30.500320178512123 16.25623091969742
-11.034814471424937 -31.752627621789394 16.85351667506731
LINES 1 48
47 0 1 2 3 4 5 6 7 8 9 10 11 12 13 14 15 16 17 18 19 20 21 22 23 24 25 26 27 28 29 30 31 32 33 34 35 36 37 38 39 40 41 42 43 44 45 46
POINT_DATA 47
SCALARS MaximumInscribedSphereRadius float
LOOKUP_TABLE default
0.6200000047683716
0.7574689984321594
0.9222800135612488
1.3670899868011475
1.5716300010681152
1.3226799964904785
1.2955100536346436
1.3705899715423584
1.7682900428771973
1.8556599617004395
1.5705599784851074
1.7140100002288818
1.9103599786758423
2.1261699199676514
1.8945599794387817
1.5570900440216064
1.8411600589752197
2.0274899005889893
1.7906500101089478
1.644029974937439
1.595810055732727
1.5696099996566772
1.5529299974441528
1.697700023651123
1.8600000143051147
1.8406699895858765
1.3470499515533447
1.854599952697754
2.099519968032837
1.9248499870300293
1.9776500463485718
2.1690399646759033
2.311840057373047
2.3559999465942383
1.981660008430481
1.8270399570465088
1.8576300144195557
2.3896501064300537
2.7358899116516113
2.5572800636291504
2.364949941635132
2.1666500568389893
1.9796500205993652
1.9282000064849854
2.116729974746704
1.9043699502944946
1.5499999523162842
FIELD FieldData 2
Curvature 1 47 float
0.20608140638
0.25786592503
0.30500072211
0.29274928829
0.20336303392
0.1092620105
0.050204838575
0.046734891047
0.10698693401
0.20246205825
0.30143537138
0.31017866817
0.23532310905
0.16402110735
0.128986569
0.13075968474
0.1561684694
0.18622417955
0.19745733061
0.17614605401
0.12946328153
0.08178842795
0.090641301884
0.20204556642
0.48291518562
1.0281586709
0.49582518282
0.20526307767
0.094021512791
0.050200767419
0.041888601938
0.035841101265
0.02430417566
0.026657916018
0.047114764539
0.066250673623
0.078643259473
0.083780669605
0.080162403288
0.066893800287
0.046331609476
0.035768825392
0.060301586376
0.10517729651
0.15581795951
0.19723619706
0.21271418422
Torsion 1 47 float
-0.020711105903
-0.038780339903
-0.079168326981
-0.15652274151
-0.28119722676
-0.48047151876
-1.011646118
-1.1622485397
-0.40921086956
-0.23336664973
-0.18205246646
-0.17309839603
-0.18801026809
-0.21479720877
-0.18851798873
-0.074434785943
0.023449160827
0.063070369783
0.057480310136
0.021163099068
-0.086561240406
-0.40622826384
-0.45299699228
-0.12175539648
-0.026638324183
0.027520496734
0.044671299694
0.069697047642
0.15770978561
0.287093782
0.1758788977
0.12536325404
0.26618546944
0.22544562843
-0.014175431155
-0.12962046056
-0.20548546826
-0.26062304433
-0.24407832689
-0.14872634861
0.19022846526
0.77169532059
0.23060938545
0.0285585639
-0.01181588563
-0.011181599551
-0.0064437767288
