# vtk DataFile Version 2.0
Vessel Segment
ASCII
DATASET POLYDATA
POINTS 77 float
0.0 0.0 0.0
-0.7332101382628553 0.03707488782819998 0.411923377815234
-1.5295820097761155 0.040499194419429035 0.6834756686019184
-2.359521642087861 -0.025886165128951557 0.805473359892599
-3.182447816690548 -0.20216150494172283 0.812154739497346
-3.962453095398473 -0.5163026135188561 0.7763317144508698
-4.674319451043161 -0.9651320528838389 0.7784197451211494
-5.309111832472612 -1.51066072498365 0.8682687719727795
-5.875014332439867 -2.10670667915816 1.0522273001558247
-6.387892639367494 -2.723796988211698 1.3093337952297428
-6.861189147501993 -3.3532466550084625 1.6092775694095665
-7.299415978040087 -4.00457206647059 1.9157354896164258
-7.68920877907154 -4.7050816694879485 2.1729263978295696
-7.965438831931918 -5.490515668668527 2.264444575056831
-7.993161381014212 -6.290561104438843 2.0351450422044333
-7.795593225006956 -6.96743980657524 1.5782979473137542
-7.4999067399054375 -7.5616493767964075 1.0593243746537395
-7.1675642472703665 -8.141080276850126 0.5453614385220998
-6.832213142937235 -8.756417022388806 0.07782572896456585
-6.535442028631703 -9.454671361158175 -0.28466340327924144
-6.366765464049981 -10.261648230549433 -0.41993784793945016
-6.469975657410364 -11.043824360366125 -0.16984560692496117
-6.838727288964271 -11.542924213191089 0.3866217338579016
-7.3248832628743905 -11.723625668360617 1.0454631001125922
-7.82673848797974 -11.64429722624776 1.7144913803010045
-8.279161060214403 -11.365312597457368 2.366485726073977
-8.644905672770989 -10.955978951045548 3.0048704440227394
-8.909610943075954 -10.485354198402577 3.651186811657232
-9.067348838974626 -10.02165928667981 4.336081576618586
-9.110270531219756 -9.646980419321597 5.087611755144517
-9.023092463509286 -9.473543272227696 5.903189208532352
-8.805733408105466 -9.60514494898122 6.700312038444571
-8.50319990252223 -10.014979499775803 7.366836593069537
-8.16760033687364 -10.589816254544685 7.8813012299343095
-7.828743698211534 -11.248073895978127 8.28286886753737
-7.502412058169625 -11.95192418879786 8.611621412704242
-7.199545678131706 -12.68508336063703 8.896200402844258
-6.928243441361218 -13.439369707793714 9.156313916915497
-6.693179924530375 -14.209270893006405 9.40573881631988
-6.494025438585973 -14.989468092153514 9.654411960974935
-6.321422866679887 -15.774082646803308 9.909264784501602
-6.155418853940064 -16.5561417131156 10.175973672337623
-5.963611496509773 -17.325559115478484 10.461137183649258
-5.698404525471673 -18.06150790266395 10.7730230279784
-5.298173163789561 -18.715648412684217 11.117557644778987
-4.725840930934497 -19.208034235539262 11.48463853325652
-4.0285039877914315 -19.503202296549876 11.850383145813106
-3.2816499786384536 -19.65516983766714 12.208697013066724
-2.524023738029765 -19.7308071958148 12.569932689828068
-1.769486540506513 -19.769210396060252 12.943443311193413
-1.0227161481423908 -19.78616987171609 13.333654196169144
-0.28505520766130765 -19.78346466950902 13.741317895854962
0.4431689809346441 -19.752927420043772 14.16434637958059
1.1612397023124168 -19.67926063088681 14.59923172396594
1.8659249684951489 -19.544026800095473 15.040797651605667
2.5507026699521047 -19.332780131956998 15.483867088744054
3.2088599712389194 -19.04414214398082 15.923595836080068
3.840312459216368 -18.69397932093988 16.35806389287151
4.455406716067367 -18.310665228343996 16.788273067883907
5.071778717087117 -17.926800061292035 17.216086024632816
5.707339775711263 -17.574323840426093 17.642638358745927
6.373905541467878 -17.282763644767005 18.067469779709356
7.073392481294393 -17.078681342732715 18.489988599198146
7.796566091413721 -16.985858743599305 18.91130492962816
8.521119975811946 -17.024278667202523 19.338207657904096
9.207876906569872 -17.211501833727603 19.786729706026236
9.790947625533715 -17.563827544373606 20.27843942741711
10.169618796384597 -18.076388107503583 20.823240633453874
10.26294229990077 -18.68323217452083 21.394303483819076
10.0976974081512 -19.28967567730194 21.95214771439176
9.761579418411706 -19.847486461159082 22.485625813604333
9.332180032181856 -20.354477349800906 23.00372260450692
8.861989190946769 -20.828484401553084 23.518053454509523
8.39160289546773 -21.296362342682148 24.037803568324136
7.9685404921935294 -21.793983970132704 24.569745209041486
7.681990827686376 -22.37190260083369 25.107957138370995
7.698324099372443 -23.054683080448502 25.58709873379194
LINES 1 78
77 0 1 2 3 4 5 6 7 8 9 10 11 12 13 14 15 16 17 18 19 20 21 22 23 24 25 26 27 28 29 30 31 32 33 34 35 36 37 38 39 40 41 42 43 44 45 46 47 48 49 50 51 52 53 54 55 56 57 58 59 60 61 62 63 64 65 66 67 68 69 70 71 72 73 74 75 76
POINT_DATA 77
SCALARS MaximumInscribedSphereRadius float
LOOKUP_TABLE default
0.9300000071525574
0.9300000071525574
0.9300000071525574
0.850337028503418
0.6987130045890808
0.7709929943084717
1.0733799934387207
1.2400000095367432
1.2400000095367432
1.2549999952316284
1.3828500509262085
1.5157899856567383
1.4909700155258179
1.400339961051941
1.3099900484085083
1.2706199884414673
1.5588300228118896
1.8300299644470215
1.8762600421905518
1.8644499778747559
1.8600000143051147
1.8812700510025024
2.1921799182891846
2.2534499168395996
1.993690013885498
1.8157999515533447
1.7228599786758423
1.7246299982070923
1.8688100576400757
2.139280080795288
2.612190008163452
2.5616800785064697
2.2263898849487305
2.1700000762939453
2.1700000762939453
2.330980062484741
2.5862200260162354
2.7651801109313965
2.638129949569702
2.5100700855255127
2.280550003051758
2.0144400596618652
1.987720012664795
2.2958099842071533
2.4446001052856445
2.3020501136779785
2.310650110244751
2.4358999729156494
2.4301199913024902
2.2883400917053223
2.1898601055145264
2.3213999271392822
2.4546399116516113
2.643749952316284
2.8495099544525146
2.917799949645996
2.881079912185669
2.849980115890503
2.8281099796295166
2.7962400913238525
2.6633899211883545
2.5310099124908447
2.29967999458313
2.0336101055145264
1.9473199844360352
2.0916199684143066
2.139039993286133
1.960710048675537
1.9322500228881836
2.087169885635376
2.2298998832702637
2.3645501136779785
2.4800000190734863
2.4800000190734863
2.4800000190734863
2.7632100582122803
3.0999999046325684
FIELD FieldData 2
Curvature 1 77 float
0.20807180679
0.22615743346
0.22296152914
0.1985448281
0.18132565232
0.18884200397
0.18990864701
0.16322192368
0.11841184063
0.070645110405
0.060021247033
0.13882545676
0.30052161796
0.53288684457
0.45523983519
0.21468631515
0.073753708348
0.070662690905
0.18826310975
0.37539899699
0.61077200671
0.62334878252
0.42887690174
0.31331868477
0.24808340491
0.18790215138
0.13964350125
0.13639995297
0.19703370525
0.30436384859
0.40898135659
0.39643080018
0.28998401154
0.18332639195
0.11196586682
0.071141355628
0.053314945575
0.048567410073
0.045415378162
0.035937509099
0.029011249694
0.058612772461
0.12078316687
0.20844032907
0.29412851318
0.2900597474
0.19777502957
0.11075762524
0.059159978144
0.036410281426
0.032226596799
0.040669831187
0.05744701756
0.078079031453
0.094922244218
0.098258464985
0.081869021
0.048828551857
0.018060080774
0.045090593274
0.081193711535
0.11057947478
0.13482869116
0.15640769457
0.18720725833
0.24476707591
0.32469758699
0.3695171497
0.31798900706
0.22689265768
0.13764733371
0.065246743015
0.020500949006
0.088721095356
0.20731640518
0.40286508774
0.5316467404
Torsion 1 77 float
-0.057388089528
-0.10953375269
-0.21932353329
-0.41606769242
-0.57282730383
-0.45118315871
-0.27616026198
-0.15903862133
-0.045285567611
0.24334912152
0.67035994142
0.18682914486
0.044399856876
-0.0098663387624
-0.058146099165
-0.12410765866
-0.59815402321
-0.5654919132
-0.1070681856
-0.056031517126
-0.051544427281
-0.035592188301
0.025469781069
0.11707179562
0.20856443423
0.3192784127
0.53932115612
0.62553543592
0.33857031648
0.15717841509
0.05745030527
0.006927863388
0.0089705979349
0.057273349667
0.15101890331
0.29327977421
0.37089754136
0.29850262945
0.22952742021
0.29517287833
0.6100961526
0.22537371385
0.073765384994
0.026449762776
-0.0033330368653
-0.035889152636
-0.082365477715
-0.16047449802
-0.2504586524
-0.20682944254
0.11484642592
0.24666579208
0.17056548417
0.083621130123
0.02451581155
-0.0060296225639
-0.01125348483
0.030158039794
0.4183695822
0.06085916131
0.043268639975
0.067957064928
0.10359743571
0.17767244599
0.22201780518
0.2004206892
0.1578020581
0.12186346903
0.11261272011
0.10935848754
0.12400087353
0.18537643193
1.2888483797
0.11528058121
0.052242024779
0.030827179563
0.015458315672
