# vtk DataFile Version 2.0
Vessel Segment
ASCII
DATASET POLYDATA
POINTS 75 float
0.0 0.0 0.0
-0.7300568730797123 0.44671204843604967 -0.11832638236522469
-1.531839985346246 0.7417943118408958 -0.2462038982993666
-2.3785359121593137 0.8694141326435169 -0.3596242249441078
-3.2383980905487815 0.8274196744272002 -0.43010302272993634
-4.0782962824115705 0.6256197658923838 -0.42812353019099253
-4.865269310781843 0.2837239811747539 -0.32898804895788336
-5.571695376164065 -0.16952892776518563 -0.12426321861179172
-6.186129203704125 -0.7013493071542334 0.17030201315974827
-6.718896653735769 -1.2860070367266483 0.5202027606571701
-7.195038471013661 -1.911283756233759 0.8818064781402216
-7.645709504527599 -2.576488448794226 1.2018457764162462
-8.103435147438203 -3.282914514176447 1.393920566134112
-8.58086872311423 -3.992524837871729 1.3113924692368517
-9.024655849739004 -4.600245461030131 0.8941118310129098
-9.397790193329916 -5.096869937838273 0.293189763489919
-9.713440467518764 -5.556489722034068 -0.3682299292406936
-9.974876281872358 -6.034010290334112 -1.0404925139383567
-10.160667906217855 -6.551975863320816 -1.7075043551599989
-10.227102367672044 -7.101350697688309 -2.3714205720628616
-10.13227055927236 -7.642636859392522 -3.037917023021462
-9.87875271507454 -8.139002820384011 -3.698302652485462
-9.50587606661515 -8.587263501664582 -4.336917146761609
-9.050300618750994 -9.007643046947832 -4.9399910507013125
-8.531473326375444 -9.424665990040253 -5.492379440874361
-7.955593644977383 -9.862083779353775 -5.966197077857773
-7.321453526042166 -10.3454550119615 -6.296306182706285
-6.661066255207901 -10.883557736037785 -6.290023017333916
-6.277261363527707 -11.27949645739803 -5.6656950098396655
-6.313489688004961 -11.382934790779434 -4.813405293165304
-6.540072646162923 -11.35436509995617 -3.9798747972435033
-6.8527979985404945 -11.284832552127805 -3.1763797357911336
-7.207946206773408 -11.226314419459126 -2.3895774099283646
-7.579015706571624 -11.225454341440546 -1.6082835226731376
-7.942341221462099 -11.334314120805475 -0.8316363546366087
-8.270984582664445 -11.602805365240869 -0.07951454109170404
-8.541713835455436 -12.047796436954627 0.6090123815565349
-8.74411612687731 -12.640457487936569 1.2039959714626942
-8.878447510691325 -13.333700067354615 1.7025129481857633
-8.945054316023283 -14.086027872867708 2.1236672202338407
-8.93860044814341 -14.86467176783096 2.5002435172693347
-8.850737897886642 -15.64209325228975 2.868990478143335
-8.674582758363814 -16.390195760399546 3.265273066573986
-8.410394366076712 -17.07752612412499 3.718008943880619
-8.070563425151779 -17.676073539217867 4.240965923841561
-7.676431031767575 -18.177284414887488 4.824935919273165
-7.243229101978331 -18.596776799542795 5.445048887928271
-6.77328345744879 -18.9592494174096 6.0744552950207735
-6.261944096219727 -19.281439731417205 6.693363497901763
-5.704650471011327 -19.56268483315005 7.29230607288581
-5.102695160906856 -19.788011527541848 7.871113958835675
-4.464941565334421 -19.937316927107286 8.435892232450032
-3.80756702962058 -19.995103008638015 8.99490601369559
-3.150106321967855 -19.958400533325612 9.555555420409688
-2.509081475458342 -19.83777705327527 10.123691116900005
-1.89456229666453 -19.652337092508933 10.703615955314838
-1.310420778040289 -19.424489048219638 11.299805131680246
-0.756535458186049 -19.177553919467453 11.91690618590006
-0.22811435661470655 -18.93547252775857 12.557758688531806
0.28803504017436915 -18.721548227422723 13.21840365449759
0.8211209160373187 -18.553714835140728 13.878652229544509
1.412921478658116 -18.439545633312825 14.498610088709622
2.0871627352095907 -18.376226287449306 15.035860531276084
2.8254638007851405 -18.356993121032882 15.48579951365207
3.5942024365449146 -18.38057202039576 15.88191098923265
4.364541408312541 -18.453262769784235 16.268857873941595
5.1088059824014564 -18.586002845126853 16.688875497081533
5.792668541100654 -18.78937682774529 17.176833538893302
6.373609079952265 -19.067412024754695 17.75262786903761
6.8197099231360845 -19.410358696784147 18.40822110767194
7.130515898160649 -19.799267429301693 19.114845368513596
7.331681699198764 -20.21883757387328 19.843826323384953
7.459146461804214 -20.663639067321494 20.574778256187006
7.548659243160235 -21.136833496532617 21.29354634880876
7.636622154232432 -21.647902544596253 21.985986753391266
LINES 1 76
75 0 1 2 3 4 5 6 7 8 9 10 11 12 13 14 15 16 17 18 19 20 21 22 23 24 25 26 27 28 29 30 31 32 33 34 35 36 37 38 39 40 41 42 43 44 45 46 47 48 49 50 51 52 53 54 55 56 57 58 59 60 61 62 63 64 65 66 67 68 69 70 71 72 73 74
POINT_DATA 75
SCALARS MaximumInscribedSphereRadius float
LOOKUP_TABLE default
0.9300000071525574
1.2298599481582642
1.5414899587631226
1.3840800523757935
1.2400000095367432
1.2400000095367432
1.3774800300598145
1.7344199419021606
1.7829699516296387
1.6073299646377563
1.4394999742507935
1.2663400173187256
1.4088799953460693
1.4669300317764282
1.2411999702453613
1.2400000095367432
1.397879958152771
1.7570899724960327
1.7315399646759033
1.5490299463272095
1.3893100023269653
1.2771999835968018
1.2771999835968018
1.3393000364303589
1.5303599834442139
1.6489100456237793
1.5802099704742432
1.5499999523162842
1.5499999523162842
1.5755000114440918
1.7681699991226196
1.8309199810028076
1.674489974975586
1.6426199674606323
1.7981499433517456
1.8600000143051147
1.8600000143051147
1.6910899877548218
1.5499999523162842
1.5499999523162842
1.5499999523162842
1.5499999523162842
1.6368900537490845
1.8259899616241455
1.8748300075531006
1.860450029373169
1.7052799463272095
1.577370047569275
1.5602200031280518
1.4911400079727173
1.3438899517059326
1.4538899660110474
1.7762399911880493
1.9922300577163696
2.153670072555542
2.045909881591797
1.843809962272644
2.122270107269287
2.487489938735962
2.1696600914001465
1.864959955215454
1.6072499752044678
1.2594900131225586
0.9642639756202698
1.461459994316101
1.810230016708374
1.5247000455856323
1.3029799461364746
1.261680006980896
1.1567399501800537
0.9855610132217407
1.0421199798583984
1.208050012588501
1.3893400430679321
1.5809999704360962
FIELD FieldData 2
Curvature 1 75 float
0.19537193713
0.20387399801
0.20609456804
0.20482596017
0.20458258947
0.20678996859
0.20258348582
0.17811612421
0.13197129172
0.081048944781
0.089351931633
0.19133863035
0.35659101494
0.4411313208
0.28448736281
0.1316704985
0.073823263918
0.098318318321
0.14383306849
0.19104516852
0.2015767309
0.16632900157
0.11841274109
0.092298664506
0.11933082633
0.21636413702
0.44581996949
0.95683836636
0.71849920645
0.31343041636
0.1399606347
0.055801576945
0.073499076608
0.13788703666
0.19997665939
0.23178647755
0.22011428075
0.18367223259
0.14151085637
0.10424434698
0.094387181271
0.11485174926
0.1446125977
0.16120896152
0.14870518143
0.11289889472
0.079785389988
0.068556549003
0.075446037872
0.086334046002
0.09902245555
0.10948501104
0.11049587206
0.09997132674
0.082132967875
0.063930156646
0.054909868651
0.059441124117
0.068236628538
0.073785064121
0.10512598981
0.15729040319
0.15518347823
0.10666855016
0.063443399974
0.084789800835
0.13623963937
0.18351683061
0.19928246423
0.17716081247
0.13555521012
0.08981660568
0.056824828778
0.064262154475
0.11804663177
Torsion 1 75 float
-0.06361354262
-0.088899364007
-0.11932976428
-0.14875036181
-0.16296153602
-0.13961312115
-0.079720765091
0.0021206328492
0.14607920857
0.59588690751
0.63118829956
0.2022681282
0.072003930967
-0.016022399098
-0.1057767807
-0.3725029239
-0.60337127853
0.077256112239
0.30332047654
0.22864073549
0.066195840358
-0.073656979523
-0.23459298017
-0.38350733123
-0.23351890287
-0.082375421049
-0.026388326339
-0.019250187288
-0.035977636901
-0.063895525101
-0.1936909527
-0.9947096961
-0.52491361065
-0.12884484412
-0.027460861461
0.0077275084964
-0.0065900399052
-0.055686503855
-0.19771669612
-0.44733129083
-0.54846324573
-0.36366077884
-0.22296270023
-0.13721977989
-0.042460681572
0.14181175938
0.3645087578
0.29482657046
-0.054173283547
-0.21970113075
-0.24197968525
-0.21471629561
-0.18193803748
-0.17414184117
-0.20605393379
-0.30454796203
-0.3985848005
-0.33951584107
-0.32834668449
-0.54722233951
-0.42218979896
-0.13506899385
0.053229595143
0.2897262122
0.84554043154
0.44625339717
0.15894576154
0.075527046861
0.024521290614
-0.0073885010695
-0.068910775277
-0.22540839412
-0.62098073782
-0.57019314047
-0.23305167343
