# vtk DataFile Version 2.0
Vessel Segment
ASCII
DATASET POLYDATA
POINTS 95 float
0.0 0.0 0.0
-0.6039476813198906 0.19660466080740494 0.24430814353896776
-1.19861747218772 0.3703702511647739 0.5260118593841249
-1.7888876705681704 0.5140872738166095 0.8327804655093574
-2.379130881525739 0.6190606381335539 1.1548419446007967
-2.972789929150886 0.673770569891315 1.4828342311492988
-3.5715026929894456 0.6629216258929354 1.8058389849262166
-4.172438706427293 0.5674478344302935 2.109507892766198
-4.765693585266905 0.36895662425193126 2.3756475763009575
-5.333412579041389 0.06009970564181755 2.585729242049254
-5.859020912197666 -0.3463180318004439 2.7297135686991543
-6.337937148422751 -0.8225406661988753 2.8106334285363936
-6.779189865785893 -1.3396582420704692 2.8391334322146764
-7.200363940525169 -1.874094032739761 2.826332397961199
-7.62113384647891 -2.40691057803616 2.7786970263445276
-8.059691034342336 -2.920727977623954 2.696497191593478
-8.529106412597743 -3.3977576644780814 2.574275008709103
-9.033626002445157 -3.820212356688855 2.4019243303799516
-9.564422346371567 -4.175828198229677 2.168867371951836
-10.10269806178229 -4.463056625073299 1.8682981623971062
-10.625678333996055 -4.6923404847595 1.498801789687544
-11.112342530818893 -4.882411618998821 1.063209362994961
-11.544229969884451 -5.054627360213565 0.5666407819745979
-11.903820673281114 -5.22947116237082 0.0165073069958762
-12.174003329786602 -5.424392322036566 -0.5762097510591673
-12.339817911316919 -5.651317995009071 -1.195269104077346
-12.392911167932539 -5.91489772871621 -1.8195858640959237
-12.334764837661195 -6.213175577556759 -2.427797558231098
-12.176361516500299 -6.539281314734304 -3.003130860604303
-11.932052087845957 -6.886070983877487 -3.5347355421017834
-11.61497557129535 -7.2478849368734375 -4.015673264812233
-11.235642925503154 -7.620817708096583 -4.439542869051224
-10.801465410838789 -8.00230677748855 -4.798325234876814
-10.318102675415126 -8.389993958335648 -5.078410990464454
-9.790472855773485 -8.780444137239664 -5.254939578878743
-9.230703585710677 -9.163078244431036 -5.280542932501074
-8.683736635016723 -9.505286477261233 -5.079354265149933
-8.256027106036301 -9.745889633173178 -4.6166767468072845
-8.017040625266498 -9.867976878943146 -3.994584521503371
-7.937400740343069 -9.914803912988747 -3.3215541780682356
-7.974728201534367 -9.928211521699371 -2.6426637085216793
-8.102541921416723 -9.937510616555125 -1.9746196127427524
-8.305818901252744 -9.965808857119484 -1.3260488702459206
-8.573980071272869 -10.034061334702278 -0.70463004539867
-8.895839787250384 -10.160798127900122 -0.11898883260009166
-9.255700364875862 -10.359492386307783 0.4228582184386215
-9.633012809298068 -10.634188368011367 0.9177420132019511
-10.006011121405354 -10.979563125126333 1.3697749208908943
-10.35644023729142 -11.384567235655751 1.7894666150447482
-10.670686929785589 -11.837003669572542 2.1888779034608112
-10.938779988690822 -12.32649897556719 2.578249870564941
-11.151893241609478 -12.844493000124748 2.9645221393838197
-11.30093192703048 -13.383778816220465 3.3515365623319404
-11.375787327411624 -13.937146926598846 3.740167017864515
-11.365141431642543 -14.495837342304078 4.127922309826503
-11.257743054612385 -15.048463941110905 4.5093439106612685
-11.0454381392648 -15.580203559722793 4.8760098167567065
-10.72681177357157 -16.07380802213 5.218015643915293
-10.309746855244851 -16.513174190122186 5.5265352197393875
-9.809944923940204 -16.886982124915917 5.796447359458374
-9.246807366478706 -17.190313047412193 6.027483473958812
-8.63852756122864 -17.42363988006912 6.223079319196597
-8.000263444041806 -17.590620703802536 6.389231243512934
-7.343473103604482 -17.6956345492538 6.532743932820095
-6.676843919853773 -17.742818845373737 6.66076070093175
-6.006913917261576 -17.73575777894409 6.780152417202001
-5.339139695711465 -17.677948148901077 6.897927458330112
-4.678035865516907 -17.573621197617914 7.021295321571577
-4.027376167977507 -17.428356253496517 7.158070793523668
-3.3901234365910433 -17.249537589483424 7.316474114684563
-2.7684694356301107 -17.046665420990625 7.504914437512614
-2.1635849052016183 -16.83099157568666 7.730229860919853
-1.575410408719457 -16.614711155925548 7.995628032883058
-1.0017618926032854 -16.409548269276254 8.298946104225578
-0.43799109454060203 -16.226080057835283 8.633136180950364
0.12189190823292034 -16.074212190915535 8.989008403008562
0.6836010599547603 -15.964118284385663 9.357109461699379
1.2511447961199365 -15.907656097813664 9.728195522128201
1.8249884891337333 -15.918706162368279 10.093460009906863
2.399903486452274 -16.012899336359425 10.444460680856098
2.9631891534607777 -16.205328014754755 10.77310580601526
3.493998388700796 -16.506368861652224 11.072475360367134
3.9654525020994953 -16.917166914851233 11.33856090841671
4.349630414375243 -17.427211215697113 11.570944466388163
4.6238449597313505 -18.015345552323797 11.772482685121387
4.776608953666246 -18.653743321509662 11.948633288975913
4.8104726273225245 -19.314152868122708 12.10655163972205
4.73990188192238 -19.97428611493006 12.254208344196325
4.586140718775954 -20.620795853643738 12.399958419371902
4.37305541711671 -21.248763626443573 12.55273598733795
4.125848294250172 -21.85959053036751 12.723011204335974
3.872791537034458 -22.458323374133805 12.924603397914963
3.652626896211323 -23.05015659408948 13.177489686584135
3.5294831952431744 -23.630110729593895 13.508257822343309
3.595091608181048 -24.15646499190583 13.92825794669723
LINES 1 96
95 0 1 2 3 4 5 6 7 8 9 10 11 12 13 14 15 16 17 18 19 20 21 22 23 24 25 26 27 28 29 30 31 32 33 34 35 36 37 38 39 40 41 42 43 44 45 46 47 48 49 50 51 52 53 54 55 56 57 58 59 60 61 62 63 64 65 66 67 68 69 70 71 72 73 74 75 76 77 78 79 80 81 82 83 84 85 86 87 88 89 90 91 92 93 94
POINT_DATA 95
SCALARS MaximumInscribedSphereRadius float
LOOKUP_TABLE default
0.9300000071525574
1.069309949874878
1.2049700021743774
1.1405500173568726
1.0050100088119507
0.9300000071525574
0.9300000071525574
0.9300000071525574
0.9300000071525574
0.9873459935188293
1.1480300426483154
1.3048499822616577
1.4571599960327148
1.5499999523162842
1.5499999523162842
1.5266200304031372
1.447100043296814
1.4282699823379517
1.570199966430664
1.6491400003433228
1.5898300409317017
1.5688899755477905
1.6272599697113037
1.625599980354309
1.4871699810028076
1.4117200374603271
1.490440011024475
1.5499999523162842
1.5499999523162842
1.5505800247192383
1.5642399787902832
1.5778199434280396
1.4647400379180908
1.3074300289154053
1.3935199975967407
1.6784299612045288
1.7546000480651855
1.7868000268936157
1.9284800291061401
1.9446200132369995
1.880020022392273
1.7546199560165405
1.6009999513626099
1.6534500122070312
1.809689998626709
1.8600000143051147
1.8600000143051147
1.8600000143051147
1.8600000143051147
1.8600000143051147
1.8600000143051147
1.911829948425293
2.0125699043273926
2.1362900733947754
2.3007900714874268
2.35332989692688
2.0783400535583496
1.8600000143051147
1.8600000143051147
1.8600000143051147
1.8600000143051147
1.863029956817627
2.00462007522583
2.1449899673461914
1.9395899772644043
1.6573799848556519
1.6088500022888184
1.7047200202941895
1.7792500257492065
1.8306000232696533
1.927299976348877
2.0830299854278564
2.2435901165008545
2.408679962158203
2.3555901050567627
2.0412700176239014
1.9231499433517456
2.0735700130462646
2.174340009689331
2.1864800453186035
2.2402501106262207
2.382810115814209
2.4146900177001953
2.2121500968933105
2.0618600845336914
2.016350030899048
2.0081000328063965
2.0945498943328857
2.154789924621582
2.0153400897979736
1.8748600482940674
2.3802199363708496
2.994539976119995
2.8217101097106934
2.4800000190734863
FIELD FieldData 2
Curvature 1 95 float
0.095922108179
0.069659615594
0.057620230723
0.060774057334
0.076989002015
0.10249784871
0.13427069236
0.16677207562
0.18836592715
0.18506683824
0.15623619079
0.11515315345
0.073652494298
0.050296463069
0.063211048026
0.093397516807
0.1218906795
0.13886971008
0.14186338486
0.13424982139
0.12459089098
0.12231597141
0.13111593525
0.14775846361
0.16433218806
0.17452997153
0.17425213264
0.16224144433
0.14605239373
0.13205797245
0.12370679439
0.12436009549
0.13940721592
0.17660010182
0.24667971598
0.36104013611
0.47287937265
0.41864742778
0.28234802809
0.18811167145
0.13662886361
0.11663212357
0.11798830556
0.12816637137
0.13589064867
0.13415623721
0.12249160223
0.10692926254
0.094132967574
0.088553062159
0.09036034089
0.097994234227
0.11003433528
0.12532845408
0.14230370495
0.15836220703
0.16940927753
0.1719123655
0.16498801344
0.15076232106
0.1331201113
0.11527375838
0.099843538034
0.088156569761
0.080228481539
0.075035117639
0.070973817802
0.067403838937
0.064637111887
0.063288614655
0.063556598776
0.064020385691
0.062138087215
0.057811034471
0.057125122094
0.063969621279
0.07839791519
0.098865145445
0.12289667244
0.14834260495
0.17165304292
0.18910562697
0.19980135307
0.20309949209
0.1971578789
0.18086332098
0.15576925485
0.12508986106
0.091950686586
0.061725041917
0.057753359764
0.10418790411
0.19447279035
0.32436763453
0.40939852678
Torsion 1 95 float
-0.16619731213
-0.25437830958
-0.33334251367
-0.29355938918
-0.19139538579
-0.11672264737
-0.072670085187
-0.046937913621
-0.034346349576
-0.035593776551
-0.056262384982
-0.1249436323
-0.35271049447
-0.74437598293
-0.38508215461
-0.082668240296
0.049623935411
0.12820531804
0.1894624537
0.25450843229
0.30746587621
0.30919338955
0.251527469
0.17412133264
0.11057417756
0.07298587343
0.044358309277
0.03151417837
0.03047818033
0.034431839489
0.040681767379
0.047531784893
0.048561621338
0.043134234602
0.037087013165
0.03590475293
0.047156530266
0.078796470148
0.11432489081
0.17114564551
0.24440175363
0.28627768867
0.25884587558
0.21175665091
0.18662225328
0.19118264977
0.2216443865
0.260020953
0.27074969974
0.23139308877
0.16996775173
0.1063886266
0.060602425527
0.031822436735
0.017902746228
0.013378273675
0.014457404655
0.018871404005
0.025786278185
0.035592197179
0.049138396683
0.06762236688
0.08877341315
0.11014140954
0.12860306325
0.14550385625
0.16914380683
0.20644911163
0.25230938553
0.28681161489
0.28769994364
0.26812667617
0.28029136421
0.34819539272
0.36147979306
0.28344817927
0.16153486628
0.063251777857
-0.0031226204943
-0.039499119175
-0.071272887722
-0.092738026973
-0.10238411933
-0.10157948816
-0.095580134769
-0.089911924616
-0.09295550088
-0.11878242048
-0.20891624599
-0.51264284345
-0.73468819846
-0.32573673953
-0.14941091141
-0.08220819751
-0.044182328225
