# vtk DataFile Version 2.0
Vessel Segment
ASCII
DATASET POLYDATA
POINTS 71 float
0.0 0.0 0.0
-0.7362664923745132 0.5215813773186545 -0.14845140396000733
-1.5271716375179951 0.9783863861983465 -0.1472713203103743
-2.357288570979846 1.3027291714927216 0.04706125074410374
-3.1841979643015046 1.44246077967453 0.4079277116380619
-3.9852425579837756 1.4169304237126448 0.8480157352490166
-4.766380821379468 1.2791084369433117 1.3040929392346619
-5.535762436433112 1.073054741357089 1.754812112905086
-6.2937426412477535 0.8268452771762308 2.204801748812668
-7.037913614632253 0.5570150784459625 2.664424402353599
-7.76627562599678 0.27219209889832974 3.139854285045708
-8.479102468610996 -0.02634827003329028 3.6301833736402327
-9.180027101904356 -0.346693327016794 4.124056178921248
-9.878226799017026 -0.7133718298503546 4.587856779127766
-10.583966208258264 -1.1849859354551042 4.921465213870875
-11.226656052815105 -1.8162284487498657 4.883307442997277
-11.639669734367518 -2.4820832833629396 4.423050559477249
-11.855716884296521 -3.104694377188065 3.7900821088623196
-11.941389917538604 -3.706770975788298 3.106692374909103
-11.920131083157257 -4.310575244577494 2.4198490334467553
-11.793028622755955 -4.932640484732085 1.761533910962247
-11.548727047118778 -5.588503597871173 1.173538604193025
-11.16060602581156 -6.298967673882931 0.7571631571776337
-10.644564630031638 -6.974271842037046 0.9249672398441051
-10.367738839974544 -7.152615232716833 1.7627157274806755
-10.246087984803413 -7.0672142598756205 2.6646964627544687
-10.15814229413623 -6.885237043331985 3.55722786448722
-10.063474805411884 -6.658560476212307 4.438859521497223
-9.944185850408816 -6.416438849519679 5.313402012265451
-9.793007777399326 -6.185856396135283 6.186128456536153
-9.612211510939721 -6.003061265520242 7.064306506037024
-9.422875667056633 -5.926927674996559 7.955566848508387
-9.279056221386595 -6.039402989896313 8.849825053995705
-9.248075993063336 -6.383368781429227 9.69384306093385
-9.342562396998566 -6.9073137917847385 10.435923328116761
-9.529081462654814 -7.545006042735792 11.063622124725033
-9.775563853670938 -8.266917450009629 11.567306433125317
-10.055661300013654 -9.06296531652051 11.91763271957156
-10.334758881061452 -9.919428787146854 12.065176966717203
-10.567250955858322 -10.797333909812458 11.976050325965987
-10.719700088129201 -11.648256532465675 11.680417710872964
-10.78829396652432 -12.455232736034427 11.255501819999694
-10.784932201061341 -13.235689981993547 10.777801012751278
-10.721063855871142 -14.021625692649165 10.31354553448598
-10.603136935741217 -14.846508929131861 9.937326722499623
-10.438876569761236 -15.723432814842099 9.744992149166183
-10.2473599104992 -16.613194225805483 9.807044447858855
-10.051300535690157 -17.45845643253869 10.092956535444365
-9.856604062188655 -18.24308339403662 10.520870289333592
-9.654639936959457 -18.9766788857717 11.029098179715282
-9.427781418616268 -19.66916358159731 11.582751492698268
-9.149955763264257 -20.321882404307235 12.160662369512952
-8.783639430008924 -20.922366550636692 12.745169411397136
-8.283679056649847 -21.43702871823589 13.31078818341201
-7.6238199480686815 -21.813041833281027 13.816889843781807
-6.836312525415682 -22.018853956126748 14.23097617111854
-5.987752669364926 -22.080419968513723 14.566129891609902
-5.121930840809294 -22.042533662367347 14.859628045564254
-4.258698784668313 -21.937890968574724 15.144985615135253
-3.408158259584472 -21.787097186296677 15.447359956276584
-2.577668759331621 -21.605576228691643 15.786293496827803
-1.7738624060067616 -21.409122528927014 16.17712169241055
-1.0023090731353461 -21.21725108085555 16.630128686108037
-0.26623362954552027 -21.05296298897484 17.14822266497605
0.43460089457048023 -20.93806309279357 17.72512544536904
1.1040271717707697 -20.88820520842237 18.346890899222036
1.748732775953801 -20.910717448464254 18.995830118480708
2.377475626011271 -21.0049475773503 19.65400921076478
3.0000132895211933 -21.164961088054003 20.30539242485069
3.626101492888487 -21.382589152461353 20.93638204760563
4.2646442211216815 -21.649389731324288 21.535187789087516
LINES 1 72
71 0 1 2 3 4 5 6 7 8 9 10 11 12 13 14 15 16 17 18 19 20 21 22 23 24 25 26 27 28 29 30 31 32 33 34 35 36 37 38 39 40 41 42 43 44 45 46 47 48 49 50 51 52 53 54 55 56 57 58 59 60 61 62 63 64 65 66 67 68 69 70
POINT_DATA 71
SCALARS MaximumInscribedSphereRadius float
LOOKUP_TABLE default
1.2771999835968018
1.260830044746399
1.2410900592803955
1.2618900537490845
1.3425999879837036
1.5135799646377563
1.4447200298309326
1.318619966506958
1.3502700328826904
1.385740041732788
1.470420002937317
1.560520052909851
1.7715599536895752
2.041490077972412
1.3788399696350098
1.1486899852752686
1.653480052947998
1.4309799671173096
1.2730200290679932
1.2550300359725952
1.2676700353622437
1.436079978942871
1.4533499479293823
1.4053399562835693
1.895509958267212
2.3040900230407715
2.562299966812134
2.7172799110412598
2.7080399990081787
2.5477099418640137
2.272710084915161
1.8990700244903564
1.8600000143051147
1.790619969367981
1.6073299646377563
1.6625800132751465
1.8266500234603882
1.597540020942688
1.2613699436187744
1.555799961090088
1.8489099740982056
1.6926100254058838
1.5605100393295288
1.7163300514221191
1.8188899755477905
1.4713599681854248
1.2985800504684448
1.4622900485992432
1.5499999523162842
1.5499999523162842
1.5915600061416626
1.7376999855041504
1.828089952468872
1.6632800102233887
1.4986200332641602
1.3504300117492676
1.3438299894332886
1.4765100479125977
1.612720012664795
1.7576299905776978
1.7729099988937378
1.4762099981307983
1.2400000095367432
1.2400000095367432
1.2554199695587158
1.329859972000122
1.4456599950790405
1.724310040473938
1.9781800508499146
2.109489917755127
2.2381999492645264
FIELD FieldData 2
Curvature 1 71 float
0.21344220278
0.2659360966
0.30832172744
0.28557119594
0.20636565988
0.14626511235
0.11011155023
0.08124210353
0.056705695098
0.037557384454
0.028504970608
0.051230475156
0.11380765896
0.24635786472
0.50237278074
0.59158068064
0.33902286381
0.18717476907
0.12228759736
0.1209201393
0.17548751143
0.31325050753
0.73395248423
1.2634012235
0.41621141946
0.17010675771
0.071315834038
0.033222303971
0.05176044457
0.089813485451
0.1446164719
0.22599038994
0.297979203
0.28082865209
0.21298196821
0.17574760922
0.18675167549
0.23216977053
0.27006044975
0.25026153818
0.18062484818
0.10276060322
0.069176354303
0.13002664944
0.22489099863
0.28982251995
0.2620226068
0.1827713119
0.11268201993
0.071116884582
0.077089690174
0.12267525472
0.18635797407
0.24792227005
0.26185478331
0.20063874057
0.12815810047
0.077850527343
0.05556460073
0.05697477306
0.067954891627
0.079368573466
0.088257662417
0.093025342264
0.093082177213
0.089204202721
0.082129300119
0.074444353038
0.069171547354
0.06815187227
0.071032303989
Torsion 1 71 float
0.019952826429
0.039293294808
0.086022706012
0.17463507083
0.24427908762
0.19373150215
0.023847490541
-0.096544036873
-0.15123435065
-0.13492451752
0.19483214725
0.24019665306
0.13453046197
0.079525989907
0.035487835147
-0.047207212927
-0.12239321202
-0.19775636905
-0.28483208983
-0.24940130634
-0.16171522081
-0.12685451718
-0.11623100455
0.0042637058363
0.079497922444
0.12735691765
0.31501491021
0.89852763847
0.40487938674
0.25462791822
0.2364362061
0.20900821933
0.13957111574
0.043212924637
-0.053761782469
-0.11993976483
-0.14472560559
-0.13094301964
-0.11187927678
-0.11588790351
-0.17883701606
-0.49084409286
-1.1075907776
-0.35707912824
-0.12978884478
-0.055246295145
-0.010859998955
0.043082844315
0.16694572664
0.45374920478
0.39372306279
0.15128645312
0.053777749831
0.011784101085
-0.033376745997
-0.09215215033
-0.19114663525
-0.36560914164
-0.53040993905
-0.42209187409
-0.30526096173
-0.27109833858
-0.26073881365
-0.24102237223
-0.22584318839
-0.21716620804
-0.22459941588
-0.24465009416
-0.25589244763
-0.23566560644
-0.19192673113
