# vtk DataFile Version 2.0
Vessel Segment
ASCII
DATASET POLYDATA
POINTS 47 float
0.0 0.0 0.0
-1.2566181679802217 0.30167716818687423 0.5175741259712453
-2.5727257160351433 0.5353132340184005 0.9042927605094896
-3.946147379928333 0.6130518387837928 1.0991837492549323
-5.295208000614769 0.321769949141128 1.0363680386315708
-6.343091658165054 -0.551800838279468 0.8398277608417377
-7.047907335933672 -1.7481115893913381 0.8006531814003444
-7.652866359184144 -2.9905680735577094 0.9663327238018761
-8.301268554514936 -4.186046250873132 1.2629919829330214
-9.04650478153838 -5.315148473426102 1.5916062172992271
-9.902431364413022 -6.3834146608272615 1.8422175377583112
-10.857771016729044 -7.39195755456329 1.903120971741262
-11.865935081128029 -8.324839313387919 1.6912547283682613
-12.857543688153468 -9.169724629656645 1.2049853771434225
-13.780890659883429 -9.941860176210117 0.5069872232992821
-14.605974926413086 -10.67547134381085 -0.3403244508905178
-15.295214866459602 -11.406588754659367 -1.3029436312510987
-15.76414950262413 -12.161262717764501 -2.37162742709619
-15.870158943575305 -12.936030783369596 -3.5172185754559355
-15.541571800896127 -13.690012256523397 -4.634403098808335
-14.877205994177746 -14.397433031270184 -5.629504551141726
-14.01413852166304 -15.070903296761855 -6.488386358010722
-13.037274400108965 -15.73495094135088 -7.224907569261893
-11.99005597562977 -16.41410253184402 -7.841146976294939
-10.89642903699157 -17.13593476254359 -8.309527884807546
-9.784658638617673 -17.93640821372756 -8.540253906988633
-8.768900642190381 -18.831583630393098 -8.2897113069064
-8.234004686229486 -19.57913578367434 -7.287266025070063
-8.25750672472562 -19.896857838309884 -5.940603018685537
-8.509739416575998 -19.938236755993298 -4.573153419849719
-8.83570725566064 -19.85326268847307 -3.222195389912094
-9.181692217207715 -19.729017568674717 -1.8788573925305214
-9.52619985584574 -19.6272625137461 -0.533497430214721
-9.859018876972126 -19.604771127330654 0.8182099161397064
-10.172391755654244 -19.7219076527622 2.1691415151631586
-10.456823433765294 -20.034821924109693 3.4944371097574414
-10.702990633471446 -20.568582341920433 4.755087313694742
-10.906712603625095 -21.302456497117188 5.919400800108876
-11.069914082629703 -22.188998255668142 6.979811059044988
-11.196820299905628 -23.181660134623375 7.9476130112884515
-11.289229796565735 -24.246505500957703 8.839905475990582
-11.34265427299703 -25.362456361391082 9.670948261734095
-11.344089884619654 -26.517845780021155 10.448016477645089
-11.271605993381659 -27.70581394346077 11.170431014422531
-11.09454009575104 -28.919168999963475 11.829302494857217
-10.77461684154453 -30.144395501566947 12.406297363122919
-10.272597331794344 -31.35408055336471 12.874671893628795
LINES 1 48
47 0 1 2 3 4 5 6 7 8 9 10 11 12 13 14 15 16 17 18 19 20 21 22 23 24 25 26 27 28 29 30 31 32 33 34 35 36 37 38 39 40 41 42 43 44 45 46
POINT_DATA 47
SCALARS MaximumInscribedSphereRadius float
LOOKUP_TABLE default
1.2400000095367432
1.2400000095367432
1.2400000095367432
1.3164900541305542
1.529170036315918
1.1005899906158447
0.9300000071525574
0.9628710150718689
1.2249000072479248
1.3609399795532227
1.2803599834442139
1.4207600355148315
1.7798800468444824
2.1139400005340576
2.4318900108337402
2.340179920196533
2.170300006866455
2.115259885787964
1.9893900156021118
1.7378400564193726
1.6217399835586548
1.5614299774169922
1.4446099996566772
1.3133800029754639
1.7310500144958496
2.4362099170684814
2.0457100868225098
1.8600000143051147
1.8600000143051147
1.8600000143051147
1.9935699701309204
2.1598401069641113
2.1700000762939453
2.153249979019165
1.9770699739456177
1.9230400323867798
2.1022698879241943
2.1700000762939453
2.1700000762939453
2.1700000762939453
2.1700000762939453
2.1700000762939453
2.1700000762939453
2.2929699420928955
2.454440116882324
2.3394200801849365
2.1700000762939453
FIELD FieldData 2
Curvature 1 47 float
0.17601066828
0.22476216899
0.30390939407
0.43643210469
0.56112988306
0.38792542768
0.2150149146
0.14325865338
0.10110742178
0.10674483966
0.161939157
0.2118551981
0.21182590052
0.16983967693
0.12900517566
0.12806233236
0.18574429968
0.27972132078
0.32548150977
0.27816815238
0.196424626
0.13089533213
0.098213453228
0.12518259634
0.21842216312
0.41510430496
0.74093804612
0.61918215004
0.29481677246
0.13353815162
0.045970538633
0.016611908509
0.062537115625
0.10637987217
0.14630375987
0.16986831287
0.16714614456
0.14287140125
0.1109938275
0.08225167088
0.063466289929
0.059933033839
0.07120500337
0.092603959265
0.12123243205
0.15383466756
0.18451461811
Torsion 1 47 float
0.020371019919
0.035964213805
0.073916587479
0.17998551655
0.42961576294
0.57557684057
0.51141565379
0.46141540944
0.67647882306
0.64231542578
0.29329873244
0.1563379606
0.12775735838
0.17537966836
0.288574366
0.29219646124
0.12022626952
0.06015392887
0.076981127016
0.09040666956
0.11151443856
0.17240769887
0.26068861465
0.16857917746
0.069518222936
0.015641922779
-0.060382530571
-0.12841672515
-0.098444265718
-0.058215214479
0.024878098445
0.31664981437
-0.025424775704
-0.024840321848
-0.016067997298
-0.0097699583219
-0.00093944641941
0.010045962361
0.029652973865
0.077203466039
0.16970456402
0.21615717433
0.1611723962
0.099639092408
0.061342557002
0.04298799608
0.03170307792
