# vtk DataFile Version 2.0
Vessel Segment
ASCII
DATASET POLYDATA
POINTS 92 float
0.0 0.0 0.0
-0.39239586965171197 0.49552311599218457 0.30756510079053484
-0.8387463641762122 0.9013234823574883 0.6696266661329106
-1.3311753610110346 1.2305447348749095 1.049407998405095
-1.8705754203205591 1.4884684692278864 1.4203991889532432
-2.460252568859401 1.669885513848498 1.7582724409002888
-3.098588664120687 1.7590476471737848 2.0392578912961103
-3.7692708446778904 1.7355607747491093 2.2483101007357282
-4.440726219727604 1.5871235264351886 2.3941467868276614
-5.079555201330602 1.3183710456251063 2.513193256114952
-5.662903286885658 0.9497698508890167 2.649467276584002
-6.181560543036205 0.5097289721320979 2.829197107550534
-6.639463354579317 0.02362635590641175 3.0511877511085186
-7.0482854159864665 -0.4955928577330527 3.2937803731564212
-7.420050471620787 -1.047719443563691 3.52280286185617
-7.761861449552234 -1.639295713353866 3.690157557380578
-8.070410981838869 -2.2690529038947065 3.730448165792505
-8.333114707815964 -2.9067566293325435 3.598393520645979
-8.548144589160376 -3.517317405699425 3.323805533787486
-8.72787442012691 -4.098486061852352 2.969760245082975
-8.880812693101474 -4.666364892807922 2.5826667595182293
-9.001547717230169 -5.236002020345765 2.1869936986393763
-9.068981274713053 -5.812319601946382 1.7887187343512114
-9.051120683114183 -6.383362293800183 1.378279201030851
-8.921667941376969 -6.918965451794366 0.9416127495820914
-8.687441645858597 -7.393885248109309 0.47864561470209116
-8.382548190218241 -7.816278784051936 0.0053432903003601505
-8.037855000726685 -8.219475905820604 -0.45755276165144754
-7.673614005982179 -8.651501849126982 -0.8767113537676516
-7.320201757694779 -9.1929418543569 -1.1361801359183232
-7.203475542478679 -9.748656116280275 -0.8097700120328183
-7.379057081050879 -9.937597221790702 -0.16194032229585492
-7.655542847973381 -9.902086605002891 0.4823030325356961
-7.984976008088055 -9.713145499492464 1.073526570059557
-8.344296186539383 -9.399110511049084 1.589581922800791
-8.711631300441251 -8.981358824436162 2.0196403443022932
-9.062159995981217 -8.483515454372787 2.372137902834461
-9.368249790714925 -7.929137015024502 2.679071304395209
-9.59389651091919 -7.340374556240893 2.9906452140983384
-9.67166659911113 -6.76574552948168 3.383505805157951
-9.49186702640373 -6.394612173077146 3.9360548649957714
-9.134656535613663 -6.458601561511003 4.526786186771582
-8.805503683649787 -6.833319911633624 5.018230752110304
-8.563051886270944 -7.368008379872575 5.403638365208294
-8.403643725643533 -7.987992338380603 5.694468130565121
-8.305621708853343 -8.653681278529112 5.8997234386893975
-8.242195619095728 -9.343208482181286 6.02502788803228
-8.18615276555887 -10.043072216542514 6.073546680679326
-8.113094268437504 -10.742584559824753 6.048935893276814
-8.004876545607319 -11.432463154555917 5.961109582526617
-7.854116360847558 -12.107434452176511 5.829898544207131
-7.6618705697698415 -12.768552625923506 5.682936601950036
-7.431583341423195 -13.420531278648463 5.550880615616186
-7.164378590785456 -14.06596896079238 5.465306158383635
-6.857938746160082 -14.699101919828706 5.456938490666781
-6.50860370733882 -15.302280130568496 5.549756700638349
-6.115603632797472 -15.849485900105956 5.7508623751809695
-5.683435523634708 -16.318920910857816 6.0464748145365625
-5.220259163532104 -16.70278079378346 6.41099745861919
-4.7357753604069535 -17.00647925151779 6.821155342601428
-4.238987504767871 -17.23951591387943 7.261971427631844
-3.7393865087158864 -17.409710573563228 7.727539124733831
-3.246113905054024 -17.51906763502548 8.217576784569271
-2.763388398511146 -17.56264281119483 8.727866373002962
-2.282702837888661 -17.53434040568194 9.241179668259486
-1.7838046239946552 -17.43752813985835 9.727912642527635
-1.2488338358239208 -17.290516573670253 10.160782863254715
-0.6768771248085498 -17.120701469999258 10.534165390802245
-0.07908512236350071 -16.95106943839804 10.865146951682926
0.5308499901165536 -16.79503637567245 11.180307196291468
1.1412565299411301 -16.6598869407749 11.504116087361323
1.7436045457271239 -16.550544632373214 11.851720323940462
2.3334855547392728 -16.471367638677993 12.2276906724304
2.91158825666865 -16.42671683027448 12.626949397621003
3.4836090093787604 -16.42158343579039 13.037282977142738
4.056937252081734 -16.461874714795975 13.443763996075168
4.63523694089938 -16.554552770692148 13.834198043968131
5.214443859117766 -16.707983930008425 14.203446026291406
5.781717982238454 -16.931732199555018 14.554671468646394
6.315655553224164 -17.236372841384725 14.896833167063168
6.786299539568699 -17.630428430350367 15.239951467339061
7.157709578727043 -18.11403241459072 15.589510484443496
7.397535708533669 -18.67203876565147 15.942852655693198
7.489784416837618 -19.27551907883608 16.290927984320028
7.441258750605535 -19.892682855697753 16.62418755187118
7.2775611376179015 -20.500663522949345 16.937976432440536
7.033771925004022 -21.090692062567175 17.234333901354827
6.749466868331925 -21.66726212268161 17.521493759071088
6.472810807292317 -22.245175046604587 17.813182135788146
6.276699321419742 -22.842931507585536 18.126907016574865
6.273611698638482 -23.453799960707055 18.46931561919564
6.531016415414824 -24.010057859290935 18.807607042610453
LINES 1 93
92 0 1 2 3 4 5 6 7 8 9 10 11 12 13 14 15 16 17 18 19 20 21 22 23 24 25 26 27 28 29 30 31 32 33 34 35 36 37 38 39 40 41 42 43 44 45 46 47 48 49 50 51 52 53 54 55 56 57 58 59 60 61 62 63 64 65 66 67 68 69 70 71 72 73 74 75 76 77 78 79 80 81 82 83 84 85 86 87 88 89 90 91
POINT_DATA 92
SCALARS MaximumInscribedSphereRadius float
LOOKUP_TABLE default
1.1160000562667847
1.1160000562667847
1.1160000562667847
1.1627999544143677
1.2177400588989258
1.2400000095367432
1.2400000095367432
1.2108999490737915
1.1498299837112427
1.1504100561141968
1.226580023765564
1.3323400020599365
1.5043599605560303
1.6710100173950195
1.7564300298690796
1.8467899560928345
1.7252099514007568
1.5651299953460693
1.5499999523162842
1.5499999523162842
1.4333699941635132
1.2927800416946411
1.3307700157165527
1.4788600206375122
1.4710299968719482
1.3239400386810303
1.1806600093841553
1.0355600118637085
0.9844110012054443
1.1932899951934814
1.4605900049209595
1.7690600156784058
2.092859983444214
2.1875200271606445
2.176919937133789
2.2558999061584473
2.5172300338745117
2.7854299545288086
2.4081900119781494
1.8908599615097046
2.0550899505615234
2.086699962615967
1.9190200567245483
1.8671200275421143
1.8780900239944458
1.9769400358200073
2.2271599769592285
2.4741199016571045
2.4800000190734863
2.4800000190734863
2.3872900009155273
2.2522199153900146
2.116640090942383
1.9791899919509888
1.8386499881744385
1.6950600147247314
1.5579999685287476
1.8382600545883179
2.1226000785827637
2.1700000762939453
2.1700000762939453
2.177299976348877
2.189189910888672
2.1101300716400146
1.950369954109192
1.8771799802780151
1.8646299839019775
1.7776000499725342
1.6496299505233765
1.5749000310897827
1.56141996383667
1.5499999523162842
1.5499999523162842
1.5499999523162842
1.6648499965667725
1.8000999689102173
1.8600000143051147
1.8600000143051147
1.8051400184631348
1.5961999893188477
1.3922499418258667
1.4649300575256348
1.5397000312805176
1.6726700067520142
1.812000036239624
1.8600000143051147
1.8600000143051147
1.950510025024414
2.227260112762451
2.481220006942749
2.4903299808502197
2.4986000061035156
FIELD FieldData 2
Curvature 1 92 float
0.25514177619
0.1740791235
0.1305318977
0.12052808042
0.13986149774
0.17372314299
0.20073483047
0.20255222477
0.18371522882
0.16849344611
0.15696652943
0.12934025795
0.089477681449
0.074533577199
0.12412777255
0.20933928305
0.26708705249
0.22515226369
0.14008744944
0.069506825459
0.04552508667
0.078017119425
0.12719312969
0.17555778077
0.18331005151
0.13016165325
0.064131697175
0.11616380011
0.3426059594
1.1201484509
0.90966128112
0.38830875889
0.25881836849
0.21837519959
0.19561183915
0.16271370105
0.12328921793
0.14846856714
0.28665055021
0.58086756859
0.75247544187
0.49472586688
0.31908876607
0.2271084256
0.16651568769
0.12791009481
0.11079128022
0.10851075638
0.10606812171
0.090320247396
0.066476879071
0.059151383974
0.085364942823
0.12649612396
0.16491730493
0.18658221393
0.18467142165
0.16378387871
0.13458407706
0.10993699616
0.096856204778
0.099408416962
0.10778659814
0.10863775174
0.10947688424
0.12288201676
0.11843712143
0.087964031371
0.049474787193
0.036808157567
0.052191401227
0.062234662458
0.06216088158
0.058920658823
0.064520146805
0.078304511618
0.091441660532
0.10438038787
0.1251097906
0.15698908666
0.19239590184
0.21728881566
0.22219681728
0.20526617921
0.16960600757
0.12119428793
0.063288293765
0.033747575358
0.13218697135
0.28534142595
0.41573663108
0.38119851438
Torsion 1 92 float
-0.12842841757
-0.18494516161
-0.25254950609
-0.25727063736
-0.14530025632
-0.023199941436
0.088918023689
0.23288713969
0.38782697596
0.38305904758
0.21603665811
0.014448904718
-0.34185897809
-0.73513394706
-0.33325663178
-0.13155620831
-0.057683886297
-0.015294351247
0.06322815256
0.3762374758
0.63079736781
-0.092222670471
-0.22660376277
-0.19065610662
-0.084285610474
0.099415456257
0.83133057284
0.35180570482
0.050753793141
-0.01086603824
-0.0033932142748
0.018934862625
0.011657781514
-0.018530587179
-0.070126198759
-0.22059271065
-0.55268464819
-0.54140981121
-0.27637076783
-0.21406476423
-0.23636179946
-0.17225794295
-0.086238157361
0.013856578732
0.12923182431
0.26414315854
0.34219910123
0.31033689749
0.25537156236
0.29746808441
0.56386789719
0.74160029189
0.30464155887
0.065369788872
-0.034760296749
-0.081953363111
-0.10373018697
-0.089400203461
-0.049899599616
0.0036478044495
0.11023855883
0.073092849538
-0.10442366958
-0.36487320904
-0.53597329281
-0.37608391926
-0.23951290575
-0.23707627032
-0.51218500144
-0.68757690923
-0.14798025582
0.056981345826
0.23875320006
0.42140518384
0.33757167066
0.09427067573
-0.10581522605
-0.22547194607
-0.23568919761
-0.17538358693
-0.11172161236
-0.069751263901
-0.046231804965
-0.032189299059
-0.025015877572
-0.026726718665
-0.067991118894
-0.28142603653
-0.031431248103
-0.011409344909
-0.0050523822428
-0.0020831034174
