# vtk DataFile Version 2.0
Vessel Segment
ASCII
DATASET POLYDATA
POINTS 107 float
0.0 0.0 0.0
-0.4643336093177716 0.20676550058997306 0.32584999190720565
-0.9095070022592782 0.43954129640564404 0.6609888850627202
-1.348927129143347 0.6789082569515328 0.9991238661054879
-1.7916434099468717 0.9127014195049585 1.3368393262575182
-2.244548218540967 1.1307951272535264 1.6714992568702023
-2.713514847395952 1.3225150312116705 1.999925815773924
-3.203817028472087 1.4745622048321565 2.317743182887644
-3.719050410166683 1.569794590138164 2.6172833850912953
-4.258616575078376 1.586934361897596 2.886556355292397
-4.812805957959426 1.5049483201388938 3.109443117795353
-5.361242074783037 1.3152037080041656 3.2726973290528587
-5.883008322664452 1.0310085969101987 3.376618483542769
-6.369175879594003 0.6779503318658716 3.433853935856679
-6.823279237653869 0.2809601134896457 3.4592652421266648
-7.254967377331003 -0.1413179554176029 3.459624178256614
-7.672333508179675 -0.5760639108514705 3.423964902543964
-8.070700029423605 -1.0143455014762093 3.3106942620449566
-8.407576447794161 -1.4453157688934433 3.0602391471662354
-8.620274682506547 -1.854589833296537 2.673798678927918
-8.696388574903624 -2.2402507014054738 2.216998727458655
-8.656593531935696 -2.607273182257005 1.740001188473225
-8.5212677522926 -2.956975280175436 1.267318884808047
-8.307370396560097 -3.289297553508672 0.8111773639465891
-8.029526397370585 -3.6053179537552564 0.3783495449014322
-7.700800343989008 -3.907913685498255 -0.027627794027858574
-7.332699911638934 -4.201758920187869 -0.4054377916256725
-6.935531368306428 -4.493447108771703 -0.7544208741755102
-6.518046354153568 -4.791428110716594 -1.0730784261793982
-6.087136671497121 -5.105951038573899 -1.3557166232319922
-5.6483155335687645 -5.449539791196248 -1.5874133244404267
-5.210033942944025 -5.837118795693896 -1.7325686957441448
-4.801419452257431 -6.2759399336222526 -1.7121310554022158
-4.526272046477317 -6.708947220732385 -1.4125919963072582
-4.484199930990729 -7.014180104232686 -0.900055208022059
-4.621923952674061 -7.1896004213215665 -0.34113106893002054
-4.875195687375061 -7.2769202082469695 0.19897407173094356
-5.207817455186153 -7.296997769350255 0.7018024378770966
-5.595934863878725 -7.254446691320837 1.161838530059375
-6.018274660655455 -7.145610169446268 1.5788445816694048
-6.453080057741416 -6.965035575255662 1.9563550847893627
-6.8780570062754505 -6.711224293251044 2.301562479322567
-7.273965843827051 -6.39034911038059 2.6249536444287496
-7.627624240935784 -6.015416317365842 2.9391770778081985
-7.932256992371681 -5.60302499555392 3.2578346298120864
-8.184510217226231 -5.17139629752888 3.596149078919829
-8.38006753707049 -4.7427042457390005 3.9733006459098377
-8.507603030963251 -4.351769074115457 4.414038777118211
-8.542063185655785 -4.063795988787468 4.940480339558521
-8.457020471249042 -3.966766636614325 5.525954321179875
-8.270393116523142 -4.069369786779931 6.0884140954627854
-8.023893157726029 -4.293874048085048 6.590941824022388
-7.739636318762581 -4.5778908342227345 7.041330078826408
-7.424634428362445 -4.890136689561379 7.450903637707358
-7.078768603221436 -5.217064632967127 7.8224213934984625
-6.697722464910606 -5.556397591921318 8.144794620312544
-6.274363015178733 -5.917247285824675 8.376251268695215
-5.826853108066473 -6.312497692768471 8.39656773951557
-5.480746086991007 -6.695702020293773 8.097628240930671
-5.284529193430248 -7.029402882712102 7.635973506837538
-5.176172777207205 -7.345782219088635 7.133445206723588
-5.118218309524702 -7.670793169214367 6.627920247168038
-5.093047056080478 -8.020794761610654 6.136599556245454
-5.091788493408267 -8.408612675825369 5.6739857539579654
-5.109648423644986 -8.845755730190778 5.258298849780934
-5.143210094903951 -9.341452241194402 4.916447622373627
-5.188758403929317 -9.897140239573424 4.688406582768945
-5.238862001100696 -10.492922203843884 4.621462708315989
-5.280333984522877 -11.081632326178253 4.738449595179537
-5.297714952216766 -11.61778231075761 5.012517906352414
-5.278416991242861 -12.084591321952468 5.393684071076125
-5.214169710199302 -12.48901117528604 5.836940470737615
-5.0986814388337285 -12.846744183334915 6.309203253512056
-4.926077741567127 -13.173852166359984 6.786260234149579
-4.691623862188507 -13.483819234516929 7.248094436307687
-4.393463392178642 -13.78552219836983 7.677386048607626
-4.035130823619708 -14.079930985645637 8.063706490433063
-3.6245381833379624 -14.358883800268432 8.407175788196877
-3.1702547856587744 -14.608242102355158 8.716723907017432
-2.680072630995521 -14.812184124470688 9.004096860281015
-2.163100580977189 -14.956613621753649 9.280082736288255
-1.6302473218716362 -15.033788033241684 9.552952497995364
-1.0931982823043656 -15.045270845851157 9.828338813492545
-0.5608234141872963 -15.000346102618426 10.109538979807954
-0.03819411924183146 -14.912048386205216 10.398770056253806
0.4735276325444697 -14.793797221125986 10.696811071405138
0.9758221669304751 -14.657535807016764 11.003122477958328
1.4718058839934922 -14.513286349353125 11.316038766546068
1.965416221630371 -14.36968960675382 11.632982227063144
2.4608846824495196 -14.235448065707084 11.951093944665596
2.9621364159293266 -14.121206354372433 12.267887657943742
3.4718504401830166 -14.041101297969883 12.581474951334922
3.9897572673359543 -14.013682692833045 12.890363496438976
4.509569799570554 -14.061561800485695 13.192995236105839
5.015304448127179 -14.207346453125517 13.487428314441395
5.4809603127047115 -14.464117815093525 13.771445100579083
5.878622670062535 -14.825752824669731 14.044440604242542
6.190979737374366 -15.268223337104024 14.309704692253412
6.416563700563213 -15.761324134040505 14.574291774140198
6.564524010547241 -16.279446722959456 14.846190465011661
6.646408815742221 -16.805228711683267 15.131232190982201
6.67147833251267 -17.327966030400322 15.432197706838817
6.645090311307864 -17.840652708813035 15.74990233485758
6.5680059910737825 -18.3376312162171 16.083860325287787
6.435814401137046 -18.81275269950262 16.43192634888778
6.238710062286047 -19.256976955006554 16.78970011590603
5.961820853563824 -19.65484809045071 17.148633638138744
LINES 1 108
107 0 1 2 3 4 5 6 7 8 9 10 11 12 13 14 15 16 17 18 19 20 21 22 23 24 25 26 27 28 29 30 31 32 33 34 35 36 37 38 39 40 41 42 43 44 45 46 47 48 49 50 51 52 53 54 55 56 57 58 59 60 61 62 63 64 65 66 67 68 69 70 71 72 73 74 75 76 77 78 79 80 81 82 83 84 85 86 87 88 89 90 91 92 93 94 95 96 97 98 99 100 101 102 103 104 105 106
POINT_DATA 107
SCALARS MaximumInscribedSphereRadius float
LOOKUP_TABLE default
1.2400000095367432
1.2400000095367432
1.2820700407028198
1.576159954071045
1.8549799919128418
1.4396899938583374
1.0164599418640137
1.1617900133132935
1.4637199640274048
1.433899998664856
1.2663300037384033
1.2751699686050415
1.3235299587249756
1.4721399545669556
1.5762399435043335
1.5582200288772583
1.5499999523162842
1.5332800149917603
1.3016799688339233
1.5623699426651
1.8600000143051147
1.8600000143051147
1.7760200500488281
1.6211999654769897
1.5499999523162842
1.5499999523162842
1.5499999523162842
1.5499999523162842
1.579259991645813
1.8264399766921997
2.0873799324035645
2.286250114440918
2.297640085220337
1.953909993171692
1.656690001487732
1.7059299945831299
1.8497600555419922
1.5208200216293335
1.2921500205993652
1.7539000511169434
2.173520088195801
2.215169906616211
2.2555599212646484
2.248300075531006
2.239680051803589
2.3916399478912354
2.5856499671936035
2.430500030517578
2.1582400798797607
1.9606300592422485
1.776729941368103
1.6132500171661377
1.8098900318145752
2.2426400184631348
2.4128499031066895
2.2554099559783936
2.3854899406433105
2.8378000259399414
2.3364100456237793
2.2880799770355225
2.456480026245117
2.4102299213409424
2.293410062789917
2.222170114517212
2.1908600330352783
2.224910020828247
2.3842599391937256
2.4800000190734863
2.4800000190734863
2.2855300903320312
1.9648300409317017
1.8600000143051147
1.8600000143051147
1.7598600387573242
1.6055799722671509
1.65024995803833
1.807129979133606
1.8600000143051147
1.8600000143051147
1.6532599925994873
1.3559199571609497
1.3907099962234497
1.544029951095581
1.9837199449539185
2.510770082473755
2.250109910964966
1.715690016746521
1.6533700227737427
1.8029299974441528
1.7677799463272095
1.6180100440979004
1.6401100158691406
1.8070199489593506
1.7910100221633911
1.6145600080490112
1.7925000190734863
2.1698598861694336
2.1479499340057373
2.0097599029541016
2.429500102996826
2.971829891204834
2.8709700107574463
2.5679399967193604
2.7020299434661865
3.0234200954437256
2.9694199562072754
2.7899999618530273
FIELD FieldData 2
Curvature 1 107 float
0.21029323363
0.11486667338
0.064161332183
0.036365499966
0.033577068329
0.052078742588
0.079677448063
0.11382825673
0.15326127013
0.1904668504
0.20921879563
0.19124532813
0.14953302531
0.10291448209
0.074785106656
0.09521064334
0.1656677815
0.26783644038
0.32346980039
0.28315449376
0.2221663765
0.17879469634
0.14793406674
0.12395574692
0.1030519193
0.083977324779
0.067526159393
0.061340212804
0.076638520737
0.11941066467
0.19770013467
0.3332344757
0.55895061636
0.60977994516
0.39834294475
0.26012160069
0.19199434508
0.1589132234
0.14358414926
0.13793828664
0.13485837469
0.12789460909
0.11553027843
0.10219975377
0.098732022401
0.12197631026
0.18434937507
0.29105115994
0.40541593744
0.39439796414
0.27024196648
0.16493027846
0.10113136697
0.082997609854
0.12110761659
0.21564415169
0.40598153767
0.62846077525
0.42613722012
0.21898869238
0.12066218895
0.081759241513
0.087018278208
0.11850557636
0.16439139261
0.22160147037
0.28225403161
0.31129078785
0.28037274557
0.22183599663
0.1645846638
0.12394241083
0.10668951202
0.10901944896
0.11977624794
0.12367980822
0.11443769461
0.10318705673
0.10201285061
0.10982524591
0.11499128439
0.1096509506
0.094683355806
0.075070731363
0.054954410189
0.036549309818
0.020594861333
0.0089078876877
0.015675003308
0.033982527121
0.058549484674
0.089784663605
0.12721418542
0.16663788773
0.19799179174
0.20937641502
0.19723635703
0.16880389651
0.13696336486
0.11213622087
0.096722998333
0.090401863047
0.093326380122
0.10570010037
0.12813435169
0.16229283436
0.2102162161
Torsion 1 107 float
-0.0040116779562
-0.0061288378892
-0.012821608216
-0.029452732403
-0.020266669144
-0.0026220147248
-0.00094675417491
-0.0028632964677
-0.0032821004691
0.0010800080412
0.014689482585
0.033678075849
0.045916016787
0.0041931949836
-0.1934321455
-0.23496996652
-0.040070375686
0.14526391232
0.21777374694
0.18555913077
0.11184698748
0.060749428072
0.046286799282
0.05455630889
0.077633232417
0.13108103109
0.23409726732
0.31740765515
0.21270189511
0.075697432748
0.0072786827827
-0.015517835332
-0.0034255612095
0.06412643807
0.094337780941
0.063845433844
-0.015377128162
-0.11360662889
-0.19745586855
-0.2425114811
-0.25228298549
-0.25028839771
-0.27119166974
-0.33549086507
-0.40029701225
-0.3366713608
-0.21241238144
-0.11355262881
-0.046716381234
0.019707121586
0.07376061795
0.12866071733
0.19574819009
0.12936392096
-0.029751016103
-0.081468377028
-0.11128207407
-0.14196887442
-0.14348485145
-0.17588115041
-0.2760831933
-0.3833194951
-0.26114780731
-0.12653554833
-0.068278423013
-0.046292504451
-0.042044521019
-0.060051724257
-0.099569792248
-0.15616666272
-0.23665677979
-0.34463897351
-0.39138546636
-0.30820346786
-0.17481647451
-0.0078629279067
0.16945703129
0.31216913154
0.32257384498
0.24095171978
0.16564269925
0.13057763819
0.12348526883
0.13206997571
0.14811630928
0.18405947804
0.33323595717
1.4559255604
0.47772115541
0.054059343306
-0.031410877175
-0.058045892067
-0.074535286356
-0.087134056986
-0.10001183681
-0.11693332912
-0.13847297028
-0.16581925714
-0.18290952571
-0.1655282125
-0.11936833795
-0.074978554103
-0.014743261264
0.02845153172
0.04192454374
0.04078221371
0.035779467843
