# vtk DataFile Version 2.0
Vessel Segment
ASCII
DATASET POLYDATA
POINTS 75 float
0.0 0.0 0.0
-0.7498393842307829 0.2971095085819025 0.31213499110560855
-1.5419012915398174 0.49289282337575197 0.5984249730304801
-2.3612691553166116 0.5595280704301427 0.8656505755596748
-3.18072300534068 0.4731421918351621 1.1258367706453458
-3.964884823816807 0.22738367012548064 1.393147540505174
-4.685845931629671 -0.15585293939293884 1.6771183505035612
-5.338970441676226 -0.635692231515809 1.9792085100942485
-5.940143698952921 -1.1729785259843288 2.2931483934759767
-6.512808830133298 -1.740663006155921 2.607173444188339
-7.079720252996062 -2.32397569149878 2.902392893163488
-7.658910511969598 -2.9171628736952933 3.1496975294908256
-8.259482684432013 -3.51979544042573 3.3039191869354747
-8.870188131406548 -4.130071775080532 3.297479226472949
-9.439159948537332 -4.730729114873582 3.0565293832775033
-9.88001389506267 -5.2863050935956695 2.567501846445892
-10.137536973232757 -5.773357403489893 1.9036437959895802
-10.21748125353193 -6.201246261759544 1.1574354881436955
-10.149817447176812 -6.595646342924092 0.3911358794346866
-9.962192179957693 -6.98231748883364 -0.35928002211115456
-9.675301113218541 -7.384702007245088 -1.0690776582778905
-9.305116397119722 -7.824612561800329 -1.7148179969751838
-8.865893732542677 -8.324459625288972 -2.2666154943170453
-8.376437083391334 -8.905195998880163 -2.677330032797773
-7.872467593533369 -9.579013713520764 -2.8581713945652685
-7.4610668029077285 -10.283575196686815 -2.6232323995126183
-7.355533015419718 -10.70974596784426 -1.9023564590303876
-7.509754672864368 -10.733532220590257 -1.0574850743120314
-7.757660394005985 -10.519200443884378 -0.2582109681482837
-8.017071893949545 -10.178213381693354 0.49306315803701917
-8.237928798448586 -9.775914030612538 1.2264750744552042
-8.363557162466282 -9.37842335804596 1.9835880762887534
-8.317443966428028 -9.106302271838613 2.7991782776019627
-8.075206786273391 -9.10501329704614 3.6238699184599983
-7.73249999913688 -9.36537146462636 4.3716227030902575
-7.3768281237446836 -9.790769178474978 5.034707696237741
-7.045286446087582 -10.319812258038134 5.633132669268221
-6.7553047879464 -10.922960742252215 6.1810665178992235
-6.518218593461814 -11.583984522215038 6.686238177385748
-6.340295850601801 -12.289832523423641 7.153711828233931
-6.220078887745901 -13.02719571263324 7.589930706572861
-6.1477767375378125 -13.782762599849134 8.00536711840391
-6.1065590251777095 -14.545370532341831 8.412475147998961
-6.077534981597744 -15.30737738002025 8.821473237200765
-6.044303344317823 -16.065434592740537 9.237510733846094
-5.992438077795238 -16.818022261217532 9.661535124488244
-5.908286203796108 -17.564040580402775 10.091827503098372
-5.776476656974349 -18.301068013789685 10.525469250768996
-5.577343973120005 -19.022741988538286 10.95893984486171
-5.289252374585576 -19.71619937151466 11.387944067596006
-4.8952822246574 -20.361672743387082 11.807159779723921
-4.393201975489548 -20.93766062883713 12.211691497567305
-3.798640651169927 -21.430131710142916 12.601196095053702
-3.1360707565894486 -21.83596018248686 12.981083335511627
-2.42867664076319 -22.15811728017061 13.360627449897095
-1.694834793108633 -22.399617025890294 13.74970293506376
-0.9485421368487554 -22.56067397580577 14.156553005916988
-0.20181954935250637 -22.639287721292952 14.586029743552972
0.5352168921174513 -22.63427288051442 15.038829227116313
1.2554655424528998 -22.54964828688444 15.510476896082183
1.958145155178604 -22.398114313854595 15.992016259151162
2.6495933261770013 -22.200004456884493 16.473092524859823
3.3400452850819775 -21.978572468174516 16.94543545405365
4.03883504376432 -21.756367626884874 17.404984039111387
4.750479746414172 -21.554479493263706 17.853987844045047
5.474205926264386 -21.39448713498115 18.30038094272813
6.204200912999218 -21.302022847620517 18.7552068355189
6.926716631689886 -21.310747176052296 19.23005728746658
7.6113226006082995 -21.463852650115662 19.734077550156268
8.198565266909915 -21.80285731984869 20.26716484954956
8.605032622189338 -22.333274132076635 20.81100288660206
8.770923304350026 -22.998042408379092 21.333957628035296
8.70145391475787 -23.71191108389595 21.81396029402799
8.44296922372243 -24.413191168082683 22.247357185623038
8.044476504281366 -25.07248276021239 22.63971788284963
LINES 1 76
75 0 1 2 3 4 5 6 7 8 9 10 11 12 13 14 15 16 17 18 19 20 21 22 23 24 25 26 27 28 29 30 31 32 33 34 35 36 37 38 39 40 41 42 43 44 45 46 47 48 49 50 51 52 53 54 55 56 57 58 59 60 61 62 63 64 65 66 67 68 69 70 71 72 73 74
POINT_DATA 75
SCALARS MaximumInscribedSphereRadius float
LOOKUP_TABLE default
1.5809999704360962
1.3028899431228638
1.000830054283142
1.0509400367736816
1.2137600183486938
1.1228200197219849
0.986320972442627
1.121559977531433
1.2646600008010864
1.406209945678711
1.547279953956604
1.323099970817566
0.9676409959793091
1.1645599603652954
1.5709999799728394
1.3859200477600098
1.2086900472640991
1.077370047569275
1.0040700435638428
1.1205999851226807
1.2348099946975708
1.5118099451065063
1.8086899518966675
1.7563400268554688
1.5608199834823608
1.7644000053405762
1.8600000143051147
1.8952499628067017
2.068160057067871
2.05046010017395
1.7236700057983398
1.6408100128173828
1.840000033378601
1.8600000143051147
1.7426799535751343
1.4116599559783936
1.2727199792861938
1.344059944152832
1.362879991531372
1.291849970817566
1.285640001296997
1.451640009880066
1.611680030822754
1.7482500076293945
1.8056199550628662
1.503849983215332
1.258870005607605
1.4104700088500977
1.57778000831604
1.8891600370407104
2.1506800651550293
1.969290018081665
1.8073999881744385
1.7803200483322144
1.7623000144958496
1.9593700170516968
2.15871000289917
2.1700000762939453
2.1700000762939453
2.1700000762939453
2.1700000762939453
2.1700000762939453
2.1700000762939453
2.1700000762939453
2.1700000762939453
1.7520699501037598
1.2934199571609497
1.776039958000183
2.410759925842285
1.942270040512085
1.5499999523162842
1.5499999523162842
1.5499999523162842
1.5499999523162842
1.5499999523162842
FIELD FieldData 2
Curvature 1 75 float
0.13772818079
0.15351044007
0.17004158425
0.18487157893
0.1913254588
0.17862732461
0.1448827061
0.10017297754
0.055726605609
0.027990469668
0.061404373282
0.12154056467
0.19972623451
0.28724352013
0.33497910236
0.31426826196
0.25007356673
0.18849603496
0.14643687911
0.12562299867
0.12770104232
0.15475894195
0.20999527051
0.31475280203
0.53350305478
0.83860583764
0.61383156674
0.3258662596
0.16618918169
0.085812977593
0.13871291894
0.28343427455
0.41356864294
0.35828688905
0.23730623902
0.1571788694
0.11737415567
0.10266393215
0.096394557285
0.085010961567
0.064763657249
0.03807411447
0.014151319834
0.011358635836
0.024408918139
0.038194739072
0.055643609491
0.079631906155
0.1084087641
0.13531763379
0.15048424084
0.14652676491
0.1290214929
0.1096577836
0.097637640911
0.095682276442
0.099575129506
0.10264119599
0.098105386837
0.081442339138
0.055341766452
0.030469409982
0.023887176352
0.033527841565
0.050050151395
0.078804542332
0.12223408123
0.18080502329
0.25005737634
0.30938067459
0.32805035881
0.29993451321
0.25323270058
0.21020535911
0.17598566479
Torsion 1 75 float
0.071258086964
0.095439714101
0.12407699437
0.14687091456
0.14460050275
0.11607448812
0.071978629298
-0.0022203663899
-0.24673442339
-1.2691246546
-0.17368095309
0.036487620471
0.083106858265
0.11159726345
0.13318632014
0.14152037286
0.16339273125
0.20115252936
0.25335604821
0.29345243933
0.27457382082
0.20505474481
0.12793939143
0.06684694297
0.01472836305
-0.050238973749
-0.084319056614
-0.11906915789
-0.27809235121
-0.96035887564
-0.55119432855
-0.26469126886
-0.19778055958
-0.16198727831
-0.15368164102
-0.16363295042
-0.16825985161
-0.14644765568
-0.10734187001
-0.1007554468
-0.13309171491
-0.26110048923
-1.0517716553
-1.157627073
-0.29438162975
-0.15947078893
-0.07394021552
-0.01454405131
0.01609259509
0.03537014316
0.055334605237
0.085363087749
0.12603924278
0.16792547895
0.18146785663
0.14052573849
0.0852670393
0.036338888107
-0.013555324631
-0.081604141284
-0.2179819115
-0.62646086558
-0.82855854018
-0.49736346274
-0.33389828666
-0.1860506067
-0.10567474634
-0.080880928597
-0.085342126555
-0.10033285833
-0.10445466006
-0.093737416644
-0.072694140472
-0.051905605641
-0.036871565184
