# vtk DataFile Version 2.0
Vessel Segment
ASCII
DATASET POLYDATA
POINTS 83 float
0.0 0.0 0.0
-0.5933459207662687 0.11554600297458693 -0.4914592996004997
-1.2928965898507714 0.0196452198766237 -0.809444079955717
-1.9791848100974252 -0.33499069219353095 -0.8195392110382763
-2.5187877839062778 -0.8294003293991449 -0.5555995206482278
-2.932828121596273 -1.347417110725198 -0.14342313871929527
-3.282106179104931 -1.850600743901041 0.34190147294928536
-3.6108066685831406 -2.33258697155259 0.8623250306851329
-3.947583559146033 -2.797411772582423 1.3929977531937665
-4.312236844907046 -3.2550917801348107 1.9112470661483352
-4.719366401841286 -3.721858294317407 2.387719183908398
-5.176658362981756 -4.22504192749325 2.771086822485385
-5.659498440848842 -4.805645263126185 2.9541899284630206
-6.031916357581146 -5.458077174479614 2.7814929831347484
-6.144279491322103 -6.065082477054701 2.3113880849351203
-6.0422440202922205 -6.585039490440342 1.7392477157056099
-5.800979866415374 -7.039225599192296 1.1515780845335177
-5.461640684659285 -7.444725213087165 0.5764103608537797
-5.0469020115371555 -7.812018547433075 0.02531484455151178
-4.5721383347547535 -8.150891184838958 -0.49487618155582025
-4.048142380280183 -8.475321682692899 -0.9755412740950388
-3.480740028118323 -8.808836465537285 -1.3965701499324892
-2.8745893163053604 -9.196552593676829 -1.6963848792136398
-2.306642662401593 -9.706181944351396 -1.6596552495604138
-2.102495444043303 -10.191584313411678 -1.1087922648866613
-2.2494909795013207 -10.491320544754538 -0.40743984595445715
-2.6043601637465783 -10.638548611841072 0.270151395167081
-3.1103401008373086 -10.651439306291932 0.8628685918804526
-3.7210725743879327 -10.546453497656936 1.3366229036639168
-4.389190003013932 -10.353022728968226 1.691491347362587
-5.079437925864639 -10.105856418787974 1.9620307889415856
-5.772094106218314 -9.834928930797059 2.202829879561401
-6.451237532987523 -9.56338012421912 2.478028840269762
-7.081848498589874 -9.311943081868014 2.8624836012373884
-7.574162388952497 -9.105311329708227 3.427012632639247
-7.778385883609314 -8.98021449739299 4.162997453288512
-7.644126268365341 -8.959713946207653 4.927325954032692
-7.279162693584111 -9.035657739315601 5.611827975909984
-6.795624280284891 -9.192747665309591 6.20431264099484
-6.260058025925205 -9.420733818870248 6.725512291554523
-5.713310999185495 -9.715811271630336 7.199577632904791
-5.1862091923224085 -10.082949091192845 7.644444703398021
-4.710979711736387 -10.540474324508418 8.062212212063553
-4.339648176848136 -11.123485177097736 8.421663158046472
-4.153982039130716 -11.84890980340741 8.6239464206437
-4.166406929777956 -12.625118152510336 8.57921888784408
-4.260831062980187 -13.36848029826556 8.359153620584703
-4.345006031409632 -14.089788966641192 8.069977583581432
-4.376532580738176 -14.817387837732145 7.786625204943275
-4.333357974132815 -15.568639396558677 7.578673798764334
-4.2032913336679965 -16.335188426245864 7.52517078890131
-3.9896710433607554 -17.06527183113831 7.690103843804878
-3.715481447651333 -17.69047865801744 8.065396562390358
-3.4033210662078184 -18.185268936169095 8.581704162192164
-3.0607205172798113 -18.56422606440681 9.172479645752771
-2.686283130003043 -18.847865219711025 9.796801889732976
-2.2766690392673072 -19.048308224037996 10.431295541094265
-1.8302483020332314 -19.167581583124765 11.061362945501296
-1.3495824689474254 -19.199015008719915 11.676443908614479
-0.8442623588662724 -19.132172348037283 12.268385012504014
-0.32857607765148805 -18.96340344694644 12.830429510104379
0.1864814795103993 -18.70556030633905 13.358462924574702
0.7018807989224775 -18.386946616794287 13.852251243193296
1.2292614215758062 -18.04024621682052 14.313426630639292
1.781700659661327 -17.693584510405955 14.74431662483761
2.3649832928483043 -17.366344008525257 15.148937950479551
2.97443462080233 -17.067896328244867 15.536964367639314
3.5992996854312667 -16.801682419284212 15.92394291137758
4.229561668454197 -16.573354503473364 16.32597824833552
4.858425869792978 -16.395190102688627 16.754477017602383
5.481101230730618 -16.284924196883832 17.213531849894707
6.092435490952014 -16.262226443973002 17.699431125715286
6.684025240198842 -16.345189878185085 18.20260809397184
7.240715088415909 -16.549437810879294 18.71056047689872
7.735352536265542 -16.88938238947077 19.209272319505168
8.122035879620315 -17.37389943508554 19.682040593507203
8.340734745857192 -17.987776639720533 20.10877667675886
8.353826868979887 -18.67458490880835 20.47670725144343
8.177890865445649 -19.36338858067653 20.798116319219844
7.858360934635344 -20.004925663201085 21.107869924253563
7.4389271035793225 -20.564381487636066 21.455012893381763
6.964711373416564 -20.988512501558056 21.904590441866414
6.523778051683698 -21.17448112362892 22.514300232150564
LINES 1 84
83 0 1 2 3 4 5 6 7 8 9 10 11 12 13 14 15 16 17 18 19 20 21 22 23 24 25 26 27 28 29 30 31 32 33 34 35 36 37 38 39 40 41 42 43 44 45 46 47 48 49 50 51 52 53 54 55 56 57 58 59 60 61 62 63 64 65 66 67 68 69 70 71 72 73 74 75 76 77 78 79 80 81 82
POINT_DATA 83
SCALARS MaximumInscribedSphereRadius float
LOOKUP_TABLE default
0.9796000123023987
1.278689980506897
1.4972100257873535
1.2809300422668457
1.258489966392517
1.2885600328445435
1.4219399690628052
1.5432300567626953
1.3015300035476685
1.0434800386428833
1.2839299440383911
1.72747004032135
1.58719003200531
1.426650047302246
1.5307400226593018
1.4805699586868286
1.401669979095459
1.3328399658203125
1.2673799991607666
1.2400000095367432
1.2400000095367432
1.3703700304031372
1.7524800300598145
1.809399962425232
1.9394299983978271
2.220870018005371
1.8341599702835083
1.6527700424194336
2.1141700744628906
2.4553799629211426
2.313159942626953
2.167210102081299
1.8659600019454956
1.5499999523162842
1.5499999523162842
1.657729983329773
1.8548500537872314
1.681570053100586
1.5797699689865112
1.7300000190734863
1.8612699508666992
1.873170018196106
1.8836400508880615
1.8691600561141968
2.037950038909912
2.434959888458252
2.173640012741089
1.8528599739074707
1.5419000387191772
1.2556999921798706
1.5892200469970703
1.8965400457382202
2.064769983291626
2.1700000762939453
2.1700000762939453
2.1263999938964844
1.9790600538253784
1.890720009803772
2.0448598861694336
2.203670024871826
2.365600109100342
2.431809902191162
2.270159959793091
2.290649890899658
2.6096999645233154
2.653559923171997
2.339979887008667
2.1700000762939453
2.1700000762939453
2.241450071334839
2.4039199352264404
2.4483699798583984
2.327470064163208
2.3869500160217285
2.7018299102783203
2.8389499187469482
2.80118989944458
2.5536000728607178
2.229170083999634
2.297559976577759
2.4554500579833984
2.4800000190734863
2.4800000190734863
FIELD FieldData 2
Curvature 1 83 float
0.30113091783
0.43383909253
0.55662028847
0.46344628545
0.28434043621
0.16207413351
0.085443231906
0.037698030597
0.041920818625
0.092904741304
0.17503341409
0.31614618137
0.52999536464
0.55225734877
0.35602501596
0.22393232728
0.15468379659
0.11652221534
0.093030157462
0.087409764865
0.12444997104
0.23704486862
0.52536224496
0.97930274482
0.57409000574
0.34472934125
0.2872222127
0.25977286949
0.21081570653
0.13457849431
0.049057479056
0.073031870651
0.18808408424
0.32640382809
0.46835913176
0.47603871401
0.35621784213
0.239002464
0.15942683687
0.10785637052
0.10173892601
0.15135873839
0.24913675828
0.39103676869
0.44238318476
0.28196739408
0.12838526006
0.076173133236
0.13990504277
0.23401559277
0.3112601574
0.31857284414
0.25702397116
0.18433173359
0.13561503353
0.11449851582
0.11397797856
0.12467003272
0.13642217729
0.13885967872
0.12306579058
0.089375151325
0.056734395554
0.051026112756
0.059237559465
0.055866620699
0.046355917713
0.052287795843
0.072036256936
0.095078090997
0.11763470556
0.13876562224
0.16108456502
0.19157705132
0.23508350473
0.28157505977
0.29533771876
0.25460045978
0.1955655286
0.16926497185
0.22735353372
0.37702451414
0.49953411234
Torsion 1 83 float
0.0033639801354
0.0062993910828
0.017104237494
0.067630928466
0.10830588487
0.14592354492
0.24549910386
0.78950668584
0.68088126477
0.24612132952
0.17786825135
0.17709695222
0.20124319671
0.19355791387
0.14257907276
0.1019630092
0.082175901336
0.085762859357
0.15256765833
0.28303524178
0.24710961363
0.13630930629
0.073509327682
0.052054889829
0.051944286865
0.050410667321
0.035196632024
0.018585241174
0.0077051827182
-0.030397986715
-0.47656410342
-0.2404797618
0.0085563002634
0.05567154314
0.046491553091
-0.020084812234
-0.10125584698
-0.14890326709
-0.2247216399
-0.39486070412
-0.36098164786
-0.089683559943
0.045080552345
0.14359561309
0.21643165257
0.26032188112
0.51510478365
0.99595275818
0.33864436804
0.14870999386
0.059451824923
-0.011549216972
-0.082499182369
-0.14804791841
-0.18851474867
-0.15457421029
-0.068930003028
0.03043303618
0.077628602813
0.064821792339
-0.018717904874
-0.22320325666
-0.67628588328
-0.64033647066
-0.31748550986
-0.3299725123
-0.55354917268
-0.33569227969
-0.045091376634
0.066827707365
0.08373291242
0.056254511428
0.0075861690373
-0.044478913496
-0.09315467191
-0.11979211145
-0.14738442926
-0.20843285905
-0.35498490927
-0.53892184974
-0.40177102423
-0.21037098771
-0.10036912999
