# vtk DataFile Version 2.0
Vessel Segment
ASCII
DATASET POLYDATA
POINTS 69 float
0.0 0.0 0.0
-0.8227119403682011 0.031706749595599604 0.4548724997079414
-1.6908921541874138 0.12989693817152376 0.8042089468269275
-2.5887342645826643 0.25849212255609316 1.0554492012156413
-3.5075906537539665 0.37816124861676426 1.220585713974063
-4.441510320567636 0.44743263984925813 1.3144982048195595
-5.381193883576947 0.4231657501123418 1.3563405441868814
-6.308790999640626 0.26806905777346857 1.3733573392629403
-7.19965879563915 -0.03254384467385908 1.3981828835542034
-8.034366734120374 -0.46268302242966763 1.4557402642106296
-8.80677493550605 -0.9909183929157482 1.5552322065735082
-9.519953339585301 -1.5887975910038874 1.696100056088492
-10.17929340618421 -2.23595721481151 1.8765791737664537
-10.787866848598417 -2.91817196852777 2.1008550349986903
-11.34250973119315 -3.621773437389647 2.3888228359460393
-11.82546215965974 -4.312171150197198 2.804640948538828
-12.176751237459158 -4.835199505535461 3.4900178643833435
-12.41255489108268 -4.99633853459389 4.382652072877516
-12.70777633370393 -5.01084404443517 5.276125149956469
-13.037120041803384 -5.058171839474221 6.156486693320227
-13.111414003505434 -5.206573544693541 7.070692948391537
-12.594243540208465 -5.458276684284428 7.795959572922944
-11.84080476457928 -5.763539720831748 8.268125534724334
-11.075183772652288 -6.151836559220235 8.65353953826174
-10.373813374994755 -6.657197242588961 9.023704045971995
-9.802249466676138 -7.299802501648766 9.402051512773541
-9.41664835820069 -8.069048540906186 9.778445462141395
-9.22808027727709 -8.924862980502594 10.117926533519093
-9.19544243675758 -9.827447447336967 10.379951481066485
-9.253370480277049 -10.75467212703108 10.527422095361892
-9.330267949553008 -11.691938400651265 10.527236763930372
-9.354442616950793 -12.616559572771472 10.360146733738256
-9.270944156400933 -13.496548679765665 10.040471296442048
-9.06322043153606 -14.310799220518662 9.618050419068835
-8.748939114325712 -15.064797537455457 9.150719036045697
-8.357295669130709 -15.783935810201003 8.686362710212771
-7.921484817518388 -16.506514685598717 8.269335066172157
-7.491998290162577 -17.28424118966645 7.961747849328103
-7.163209689604427 -18.156215820688917 7.863278333475005
-7.005046604489472 -19.067642547664036 8.020606097018224
-6.9409822284047955 -19.950189051062573 8.340559974838344
-6.862132128448405 -20.80060050304051 8.736201790486602
-6.6862091490247835 -21.61366079922911 9.175266139813047
-6.3490531446970815 -22.34837400624854 9.65384864821008
-5.821560873443608 -22.935048966041457 10.162371493707063
-5.141671186777344 -23.337887781999076 10.670615898680133
-4.3733544649373135 -23.586224418257157 11.153010559345638
-3.559103037431055 -23.7325031253258 11.601932057919893
-2.719282079647665 -23.821296167907988 12.01810398506377
-1.8620736639251734 -23.878538252358098 12.403220926258783
-0.9903597383614013 -23.912755899233925 12.757289975531021
-0.10562827492808573 -23.91903039904159 13.079010265846792
0.7897034369856472 -23.88291216281733 13.367852405509357
1.6891257416917644 -23.786560546283656 13.62831578056436
2.5821048972044145 -23.618236543506967 13.874022694605257
3.4572594254203546 -23.37924650830675 14.12527181652658
4.306722494785794 -23.083635559315667 14.403197580171227
5.127221542391498 -22.75297934554597 14.725196754387541
5.918059136797796 -22.412057743495993 15.105319944593976
6.6775424660296885 -22.087361952613378 15.556612178011163
7.400075008569524 -21.80985473650786 16.091728310424948
8.072879980058081 -21.617919431764427 16.72026434224782
8.674627639246758 -21.556327767147682 17.439709431621626
9.182369587653389 -21.66416915652658 18.222875723568155
9.588899735747688 -21.956600208324193 19.017990572328248
9.912210307192668 -22.422518328337823 19.767617971598067
10.184816438025369 -23.038436637167642 20.423498314927617
10.439837614341148 -23.77601261624563 20.947688039927222
10.703816772098216 -24.60102683133392 21.31303547184449
LINES 1 70
69 0 1 2 3 4 5 6 7 8 9 10 11 12 13 14 15 16 17 18 19 20 21 22 23 24 25 26 27 28 29 30 31 32 33 34 35 36 37 38 39 40 41 42 43 44 45 46 47 48 49 50 51 52 53 54 55 56 57 58 59 60 61 62 63 64 65 66 67 68
POINT_DATA 69
SCALARS MaximumInscribedSphereRadius float
LOOKUP_TABLE default
0.9300000071525574
1.1677299737930298
1.4108099937438965
1.4960299730300903
1.3700900077819824
1.2411799430847168
1.1094599962234497
0.9766409993171692
1.215749979019165
1.6433700323104858
1.955739974975586
1.792389988899231
1.6296199560165405
1.5563900470733643
1.5697699785232544
1.4715800285339355
1.0108100175857544
0.7370010018348694
0.7072640061378479
0.9035670161247253
0.9300000071525574
0.9434880018234253
0.9677029848098755
1.0269900560379028
1.1323100328445435
1.2379000186920166
1.2548600435256958
1.2698500156402588
1.3938100337982178
1.6253700256347656
1.8568099737167358
1.8600000143051147
1.8600000143051147
1.8600000143051147
1.8600000143051147
1.862339973449707
1.9901800155639648
2.1342899799346924
2.0435900688171387
1.8798199892044067
1.5971100330352783
1.3137799501419067
1.2400000095367432
1.2400000095367432
1.2775800228118896
1.344689965248108
1.3291800022125244
1.1432900428771973
0.9630190134048462
1.126710057258606
1.369729995727539
1.5627100467681885
1.6105999946594238
1.65910005569458
1.7409299612045288
1.8286000490188599
1.9655100107192993
2.1956100463867188
2.4237499237060547
2.3896501064300537
2.2671799659729004
2.1997900009155273
2.3316500186920166
2.4666099548339844
2.545530080795288
2.6167500019073486
2.609070062637329
2.5428199768066406
2.4800000190734863
FIELD FieldData 2
Curvature 1 69 float
0.1683953374
0.14162290745
0.11347880824
0.095246168813
0.096159480393
0.11531429504
0.14265947223
0.1614344934
0.15908005671
0.13757217558
0.10948665905
0.086393920673
0.086228342836
0.13052679062
0.2442576048
0.48357247975
0.53929138356
0.21567001574
0.087640912591
0.29138134664
0.82174605189
0.45536196419
0.18097999867
0.14620190802
0.20083711582
0.24155189014
0.23361052913
0.19104412867
0.1556074457
0.15830989824
0.18816771441
0.20663038803
0.18771693951
0.13916523589
0.089891609205
0.085662798079
0.16523012812
0.29813279409
0.35260116601
0.21614517819
0.10663319254
0.11833167844
0.19477107609
0.2631782337
0.25894823056
0.19804720746
0.13154845346
0.078684466708
0.049386313423
0.043170335432
0.049554023951
0.060766032094
0.072166187807
0.078687736384
0.079783669074
0.075749526556
0.070121683719
0.06984757132
0.083411280109
0.11015180982
0.14726708019
0.18795667657
0.21863831157
0.22461687559
0.21009744071
0.1962545244
0.19394552977
0.19889191005
0.201745701
Torsion 1 69 float
0.097310629017
0.16386675135
0.28298393062
0.43401527913
0.46242811248
0.36689813722
0.27536484471
0.21019992878
0.14287379553
0.0914011613
0.071735135887
0.097853796782
0.14827558837
0.13745076437
0.12344294704
0.15238173846
0.45184045312
0.93197016779
1.5550875578
0.37255778184
0.012967659901
-0.21118232723
-0.50039203326
-0.39268040892
-0.10504426314
0.019757410685
0.13210197087
0.29603901762
0.49392897584
0.48705635895
0.33824087565
0.24175378472
0.20759567258
0.25760138879
0.52909621263
0.69527994305
0.30558241288
0.13889611766
-0.017528491398
-0.25050813766
-0.78250896906
-0.28474439827
0.016132798947
0.037315995513
-0.013726642113
-0.040799932071
-0.097737497335
-0.1832919677
-0.219748138
-0.026813301592
0.15626885831
0.20496374546
0.24982812891
0.28606897759
0.3192582845
0.34907289511
0.39725090294
0.39503730168
0.29614896696
0.19355282857
0.13186296749
0.1091514304
0.11960300168
0.16468037423
0.22807134649
0.25082537023
0.2230807607
0.16443584006
0.11053823175
