# vtk DataFile Version 2.0
Vessel Segment
ASCII
DATASET POLYDATA
POINTS 88 float
0.0 0.0 0.0
-0.6162386503216993 0.1561673328035823 0.36969169024370024
-1.260382617776615 0.2738043521731572 0.7042826852999574
-1.9316816733733113 0.33247532146259734 0.9980077746260484
-2.6237776612066313 0.3028475398082269 1.243058452392742
-3.316530621366404 0.14828644866719948 1.4308230919395293
-3.9717018414830103 -0.15674914304183876 1.5587489660487974
-4.554846206804938 -0.595475819402868 1.641430046845232
-5.066839912415877 -1.119146790549339 1.705939996875069
-5.534465019797673 -1.682659236001678 1.7740980919634468
-5.988442640609841 -2.2555892127268473 1.8559036736214527
-6.45344125057635 -2.8178614837239553 1.948801230850429
-6.945512131198571 -3.3572942231431924 2.0368814549822627
-7.471443532553005 -3.8681194366607907 2.093145845558915
-8.026493283630705 -4.349975232740993 2.083367814640849
-8.591174917121645 -4.806142297344494 1.969963534349116
-9.12695811959182 -5.237134238073966 1.7135285840018015
-9.572690180950802 -5.636892155486512 1.29056506780406
-9.868020120048925 -5.995491870159242 0.7235478420169611
-9.993538023554883 -6.310233114479194 0.07268313117587002
-9.967486008651903 -6.588633489156473 -0.6064968085572091
-9.821389003776037 -6.8433174412269295 -1.2802038347572156
-9.586190127125082 -7.088512875607926 -1.932236341746386
-9.288233690611673 -7.339182615412518 -2.556027390041242
-8.94875298415112 -7.61079613190382 -3.1491704009289956
-8.584023383618867 -7.917584113780238 -3.7091808498276184
-8.206667944160237 -8.27209723787995 -4.231317957618686
-7.826102805157544 -8.683750251694745 -4.707043867839364
-7.449113432906239 -9.159037716400947 -5.122052729703048
-7.079640269474516 -9.701607777057099 -5.452046310364662
-6.721040554801786 -10.310292637515118 -5.65024734504649
-6.385646438914251 -10.95816617562412 -5.618648646412763
-6.126438842646825 -11.510297132276882 -5.2285240033039795
-6.002381032298596 -11.79555674344729 -4.569120044109531
-5.986837790837808 -11.868969225256764 -3.839150019223395
-6.044707031186492 -11.832554585416416 -3.107355225862727
-6.162196510160721 -11.749873504619982 -2.386141584251402
-6.336315055028401 -11.66719381571407 -1.6764583637255237
-6.567501111304012 -11.626472666598206 -0.9798380357499725
-6.852833100781572 -11.664930601725063 -0.30372303894665587
-7.181732655492779 -11.806065516889483 0.3380206133028215
-7.537996777869351 -12.050750127448852 0.9323300284481323
-7.90703288767712 -12.38322544891145 1.474243116777831
-8.278695494900177 -12.784151162472075 1.9658045654689478
-8.645979214540567 -13.237764107967442 2.4131414765999635
-9.00260801223394 -13.732827553212273 2.823700464464352
-9.34055624722961 -14.262262343010946 3.206308898753554
-9.649679821402188 -14.821544137221226 3.570381526959357
-9.916986828617974 -15.407753445472917 3.92489465105907
-10.126936811197224 -16.017971473341078 4.2772921015651235
-10.261575773294796 -16.64782002918831 4.631805225664836
-10.301347653074556 -17.28905285761616 4.988580867808295
-10.226547456414504 -17.927877019495437 5.343750964234461
-10.022217927763673 -18.54313090727272 5.6889231110400615
-9.685291340411258 -19.109242708275165 6.013516852421015
-9.229196654114908 -19.60345222868466 6.308774413211987
-8.68042293740156 -20.01506905334588 6.572141674304843
-8.068453215311276 -20.34739022293315 6.807413625208209
-7.4169315321437335 -20.61230457034137 7.0220334004892555
-6.742276628498146 -20.824151699702302 7.224101802986862
-6.054558832302233 -20.9956722809104 7.420550447501309
-5.359688806658278 -21.13552178517762 7.616853639456193
-4.660587433827004 -21.246670506878218 7.81651407135049
-3.958493496373119 -21.325184267451352 8.021282045515795
-3.2545747904447024 -21.360285310611424 8.231304406402197
-2.5514592053475633 -21.33683856679327 8.445194831049639
-1.8551304784364013 -21.24142342758236 8.66112855098359
-1.1736156423524247 -21.070946068320612 8.878134722564852
-0.5119498610594914 -20.837469656190812 9.098227411378971
0.13154478946684395 -20.56444023906586 9.327011760558621
0.7634804851520293 -20.278844834306984 9.572193971979658
1.3914611239185406 -20.006815142549563 9.841611085227015
2.020660014864559 -19.773200237312807 10.142078840215005
2.6516471371589025 -19.60291983055994 10.478727745408253
3.2783138312725093 -19.521406545911585 10.853863815429321
3.885970606593611 -19.553851513982774 11.265297606486879
4.450097571711477 -19.722263307709664 11.703943901170254
4.938418177308095 -20.03794616596785 12.151646531535963
5.320975807593239 -20.491253591493603 12.583797917070381
5.587310274803255 -21.048849458308936 12.980615117782266
5.752380052393317 -21.669619756198106 13.337726205541562
5.843349449779914 -22.32236073546305 13.663808399849634
5.887501587284574 -22.98818583360878 13.97313536402476
5.909076695064524 -23.655463369514372 14.281885911537401
5.93101521676049 -24.314421575769103 14.607873283303652
5.978395061392845 -24.951684384455167 14.971603332454691
6.081876010444974 -25.542584624745956 15.395837079243627
6.275654511445828 -26.042179217347606 15.897112414991735
LINES 1 89
88 0 1 2 3 4 5 6 7 8 9 10 11 12 13 14 15 16 17 18 19 20 21 22 23 24 25 26 27 28 29 30 31 32 33 34 35 36 37 38 39 40 41 42 43 44 45 46 47 48 49 50 51 52 53 54 55 56 57 58 59 60 61 62 63 64 65 66 67 68 69 70 71 72 73 74 75 76 77 78 79 80 81 82 83 84 85 86 87
POINT_DATA 88
SCALARS MaximumInscribedSphereRadius float
LOOKUP_TABLE default
1.2400000095367432
1.2400000095367432
1.2400000095367432
1.2400000095367432
1.2400000095367432
1.181399941444397
1.0148799419403076
0.9300000071525574
0.9300000071525574
1.001870036125183
1.1432299613952637
1.2449500560760498
1.2614200115203857
1.2799299955368042
1.331529974937439
1.3856699466705322
1.5238499641418457
1.6569600105285645
1.3642100095748901
1.1242899894714355
1.1855599880218506
1.2400000095367432
1.2400000095367432
1.2400000095367432
1.3586299419403076
1.4939500093460083
1.628749966621399
1.7642699480056763
1.85316002368927
1.829859972000122
1.7578099966049194
1.5044200420379639
1.3436800241470337
1.2881300449371338
1.438349962234497
1.5499999523162842
1.5499999523162842
1.563599944114685
1.7136199474334717
1.8600000143051147
1.8600000143051147
1.8588099479675293
1.7123199701309204
1.5704100131988525
1.6677600145339966
1.8033900260925293
1.8600000143051147
1.8600000143051147
1.8233100175857544
1.686560034751892
1.5550199747085571
1.6956299543380737
1.841789960861206
1.9905200004577637
2.1399600505828857
2.1700000762939453
2.1700000762939453
1.986840009689331
1.7145400047302246
1.5551400184631348
1.568410038948059
1.5880199670791626
1.7200599908828735
1.8548099994659424
1.8759700059890747
1.8644299507141113
1.8600000143051147
1.8600000143051147
2.1396899223327637
2.699810028076172
3.0272700786590576
2.762160062789917
2.4947400093078613
2.2056899070739746
1.9078400135040283
2.1890299320220947
2.5919599533081055
2.4583799839019775
2.2065799236297607
2.299149990081787
2.4437999725341797
2.2761099338531494
2.00819993019104
1.9183900356292725
2.052180051803589
2.1104300022125244
1.680840015411377
1.2400000095367432
FIELD FieldData 2
Curvature 1 88 float
0.096969725446
0.11311751183
0.13558646668
0.16627489957
0.20348271467
0.23420036142
0.22062718958
0.16204020211
0.097023484657
0.050118286615
0.036349315179
0.049730128835
0.07526884245
0.10998434224
0.15189884981
0.20790486597
0.2668392432
0.29404395361
0.26790744534
0.21923550481
0.17036606669
0.12821524732
0.095555056922
0.07634482082
0.074087534468
0.083900063209
0.099421901402
0.11996032752
0.15281144154
0.21670405708
0.34444956695
0.55567129711
0.59288732612
0.36016347057
0.19750482388
0.10953637976
0.077661778004
0.099333966254
0.13569165039
0.16016922204
0.16108745218
0.14289609466
0.11893250511
0.096484695621
0.078078745779
0.065190376641
0.061016210595
0.068232853818
0.084912043848
0.10672459873
0.13104481895
0.15685252585
0.18022906134
0.19468623612
0.19454369017
0.17616726034
0.14555519337
0.11199995374
0.081512033805
0.057535169111
0.043231158241
0.040594759962
0.048470262937
0.063630568344
0.082787398746
0.099704967671
0.10511833488
0.092525061235
0.064872829846
0.036790715679
0.038570122145
0.06713611319
0.10048464164
0.13405755357
0.1674592438
0.20004785218
0.22706095618
0.2389460569
0.22219481367
0.17794094199
0.12511815039
0.075427779355
0.032285899854
0.027210202842
0.072902668431
0.13277532384
0.20538582765
0.27225689396
Torsion 1 88 float
-0.061502095515
-0.07184970915
-0.083272106827
-0.094757444634
-0.10657125748
-0.11674901706
-0.13268621426
-0.16242896117
-0.23232036711
-0.44133387048
-0.65511140977
-0.54833476077
-0.42061384473
-0.31950641194
-0.24660205331
-0.18933712802
-0.15698397519
-0.13212985878
-0.11392331445
-0.10945662068
-0.12156157619
-0.16976343009
-0.2764198357
-0.38751613333
-0.34017392667
-0.19525940208
-0.074618268801
0.0087587596901
0.068814014625
0.0922471638
0.095578954627
0.082986602917
0.025453387258
-0.058188105457
-0.1544163251
-0.40389726848
-0.72799879797
-0.42643122001
-0.20531445984
-0.10969979919
-0.056229333696
-0.030687697286
-0.030794940829
-0.059048438476
-0.1303503777
-0.24959211
-0.32813721405
-0.27251617311
-0.16181652508
-0.080933656921
-0.042504257759
-0.025186886179
-0.020116452682
-0.023179331879
-0.029606190907
-0.038844962949
-0.048258619072
-0.061775336164
-0.085790801651
-0.12499332975
-0.15529894351
-0.096310770639
0.00058211441742
0.033159168324
0.025950909449
0.0015538244338
-0.03347925868
-0.097476756238
-0.26200865922
-0.83795003421
-0.70332489324
-0.20864214195
-0.081133229531
-0.036271935585
-0.017011472426
-0.0091502014927
-0.0064077835522
-0.0029731670348
0.0061531150967
0.019673118832
0.045498428729
0.12602905489
0.70274413832
1.051905389
0.16550035823
0.060801511579
0.031734320959
0.018658487085
