# vtk DataFile Version 2.0
Vessel Segment
ASCII
DATASET POLYDATA
POINTS 77 float
0.0 0.0 0.0
-0.6410134656724147 0.3541418509364074 0.4146267027575612
-1.362788262912314 0.6147120840678252 0.7581576514262762
-2.1617410809411317 0.7171370091260507 0.9942522187172145
-2.9858985763418104 0.6027674492279661 1.1016057397679273
-3.7636056878178215 0.2848005049263613 1.1144713990124606
-4.470468813121835 -0.17151450315142294 1.097094632346417
-5.1191010468476215 -0.7081163877508583 1.0983470980593477
-5.729553791410785 -1.2864878445297527 1.1425419282732605
-6.319204610211283 -1.8807334278127394 1.2336882880437963
-6.9024225993895145 -2.4760657561545285 1.3557463302127346
-7.489400375908281 -3.0678048145438255 1.476048370835045
-8.083563098864204 -3.6600458152989916 1.5483137303097576
-8.674717354560567 -4.257298272373709 1.5111365324110448
-9.223181013672797 -4.857141708137009 1.2991861896523296
-9.657773868317156 -5.445873892734575 0.8880683030523685
-9.92035187091205 -6.010210084883069 0.3242324598019151
-9.999717723029027 -6.5471450042585895 -0.31763231605769204
-9.916508426510537 -7.059518210530909 -0.9794648372719248
-9.699964116003247 -7.551840811121539 -1.6266772911628242
-9.376733947465244 -8.02837373900297 -2.2405559915565236
-8.96803813196408 -8.49362810159671 -2.810907524756308
-8.490587366613632 -8.952784262812097 -3.330465677465784
-7.956158972131801 -9.413275750067479 -3.7899548734572557
-7.372522697648678 -9.885464884649355 -4.170497299370555
-6.746697768947292 -10.386559525633986 -4.423216516512648
-6.119284949555148 -10.933769125565457 -4.397067709452604
-5.750607485090299 -11.401362698930932 -3.8385779507656146
-5.755703395204743 -11.637207091772849 -3.035138724066623
-5.924043710442478 -11.753415513544626 -2.21891829191799
-6.164314756911014 -11.819332497191963 -1.4145596342821527
-6.4422649436441315 -11.868371469603472 -0.6210636468308558
-6.7401812822640474 -11.924179493348987 0.16466418495817936
-7.045449084709161 -12.010647431576055 0.9447941642669018
-7.346039262344722 -12.155261010852545 1.71782365093336
-7.625994031605661 -12.389099227698814 2.476315930603549
-7.865012612361265 -12.737643226154908 3.2037308072212074
-8.043044398929847 -13.20314776319767 3.8815203152665965
-8.151817699815448 -13.757041960668257 4.50575815001114
-8.194842924643494 -14.362900737482846 5.088892482128393
-8.178885937812337 -14.993821576298677 5.646295495756579
-8.10854230053838 -15.633515252242422 6.189411476837518
-7.984981618207491 -16.27212218312736 6.724174499563261
-7.80569577245815 -16.903962452880037 7.251250633485978
-7.564757062969616 -17.52477512852796 7.766380539101008
-7.253807750983212 -18.129714474405702 8.262713898215107
-6.865162541163738 -18.710844223995135 8.731643594354491
-6.3949787858435965 -19.256567118442938 9.16715667666961
-5.846598783792344 -19.752850283320452 9.569001377243616
-5.229629552545935 -20.185881539493217 9.943777839820733
-4.558272874122813 -20.544492270953686 10.303516746503538
-3.848653049476089 -20.820929858350926 10.66225256518852
-3.117145350741812 -21.011108650173544 11.032936205649017
-2.3796223109562447 -21.11486969800568 11.42542406313609
-1.6495686516151595 -21.13687509034556 11.844060727683207
-0.9360894478886413 -21.086899158851097 12.288345850392325
-0.24264411843161734 -20.97879391935245 12.75368307331313
0.43317347317642846 -20.82885815752992 13.233307328781184
1.0981475162138712 -20.654185002776135 13.719739675545034
1.7608150145700578 -20.47155885009202 14.206439724904016
2.4291054625248507 -20.29728724923093 14.688470116792585
3.1085322587636703 -20.147768975979375 15.163106021224594
3.8008749084836104 -20.04044015368 15.630298837431287
4.50310900974683 -19.994641498097046 16.092570626617675
5.205961376527374 -20.032244948639793 16.55430780734772
5.891354763661115 -20.177401900445684 17.02040591115647
6.529051986252757 -20.45405659783451 17.493805682920787
7.0745252415571365 -20.878591483547545 17.971875510522473
7.477729219984429 -21.44428212334997 18.444323185259467
7.70840151503137 -22.112839875532938 18.898282251153326
7.774309037463478 -22.832426044710864 19.32867392786875
7.70983842464541 -23.563081636524036 19.741370941086412
7.552141478582365 -24.283578472565754 20.147409648984127
7.3310183382708685 -24.98447585350463 20.55844407770659
7.069414044110716 -25.66039373399411 20.987231630277755
6.787855374786934 -26.304848293441427 21.450363991683087
6.512045847132127 -26.903920279143453 21.97341297179226
LINES 1 78
77 0 1 2 3 4 5 6 7 8 9 10 11 12 13 14 15 16 17 18 19 20 21 22 23 24 25 26 27 28 29 30 31 32 33 34 35 36 37 38 39 40 41 42 43 44 45 46 47 48 49 50 51 52 53 54 55 56 57 58 59 60 61 62 63 64 65 66 67 68 69 70 71 72 73 74 75 76
POINT_DATA 77
SCALARS MaximumInscribedSphereRadius float
LOOKUP_TABLE default
1.6399999856948853
1.6399999856948853
1.6399999856948853
1.340749979019165
0.8597999811172485
1.0412299633026123
1.3172800540924072
1.7778700590133667
2.1372199058532715
2.2906999588012695
2.303299903869629
2.015860080718994
1.758470058441162
1.5523899793624878
1.5783100128173828
1.737630009651184
1.9188300371170044
2.149780035018921
2.563390016555786
2.792109966278076
2.439429998397827
2.097870111465454
2.2233400344848633
2.3620998859405518
2.5317599773406982
2.7357399463653564
2.746999979019165
2.4881200790405273
2.628499984741211
3.1837499141693115
2.938800096511841
2.5371899604797363
2.6197900772094727
2.82177996635437
3.0318799018859863
3.252229928970337
2.878690004348755
2.4802000522613525
2.7038400173187256
2.7715001106262207
2.3546299934387207
2.1013998985290527
2.302720069885254
2.4600000381469727
2.4600000381469727
2.4996399879455566
2.705590009689331
2.7845098972320557
2.369960069656372
2.049999952316284
2.049999952316284
2.1313300132751465
2.48088002204895
2.811379909515381
3.0794999599456787
3.1253299713134766
2.5114998817443848
2.049999952316284
2.049999952316284
2.0891599655151367
2.2869699001312256
2.4842300415039062
2.6821999549865723
2.895359992980957
3.3059399127960205
3.6693499088287354
3.447279930114746
3.3717598915100098
3.7105000019073486
3.5756900310516357
3.031670093536377
3.01747989654541
3.2251200675964355
3.1410200595855713
2.948309898376465
3.2295899391174316
3.690000057220459
FIELD FieldData 2
Curvature 1 77 float
0.19196215071
0.24086636134
0.2973879726
0.3254256296
0.27761264572
0.19258133541
0.12805213443
0.091204935594
0.067781686959
0.038616696793
0.021332043884
0.07048694192
0.14196171182
0.22175481861
0.27893128763
0.28175895631
0.24936629738
0.20876845353
0.17119560556
0.14025136774
0.11626002622
0.10052489932
0.10200808291
0.13355166182
0.21392481485
0.40352525748
0.83678588703
0.67086955834
0.29974782906
0.14760379579
0.070428719239
0.028304000174
0.041574121137
0.07953526786
0.11971939382
0.15455509951
0.17070078831
0.15096633998
0.11590956235
0.087208932496
0.070246245202
0.064038017985
0.066331494046
0.075085025356
0.087826018684
0.10180271341
0.11267836024
0.11687345388
0.11504348757
0.110460416
0.10715269797
0.10612529627
0.10577248615
0.10221460228
0.092714799323
0.077234857014
0.05692141309
0.034223426536
0.013276304631
0.014937981038
0.033414740389
0.052792860984
0.074506842137
0.10075480758
0.13299848439
0.17072137078
0.21085226195
0.24085466228
0.24244465046
0.21140853946
0.16128630564
0.11384095486
0.078270958261
0.061636850799
0.074923706224
0.12116093901
0.21427752495
Torsion 1 77 float
-0.018593579633
-0.032198706791
-0.060722607008
-0.11566064314
-0.19386912301
-0.29054296444
-0.37538631975
-0.3932586326
-0.32904607894
-0.36859384033
-0.75540470689
-0.14842711643
-0.095757279761
-0.13108908764
-0.17987182927
-0.19741052906
-0.17128715902
-0.13377844578
-0.10787487129
-0.099869641811
-0.1096203422
-0.14183279463
-0.16436389307
-0.13618788863
-0.095348690149
-0.069226281961
-0.05351368096
-0.024309309592
-0.023100399982
-0.048405210278
-0.16907363157
-0.96994743564
-0.44413745721
-0.1266913396
-0.066863653896
-0.05979979822
-0.082790122512
-0.13672114136
-0.18388011598
-0.22092067376
-0.20752247308
-0.12765342509
-0.023278686302
0.027939711899
0.024036007117
-0.004365771758
-0.060420970967
-0.1173430486
-0.17116044869
-0.21252449676
-0.22187225514
-0.19705450318
-0.15499730418
-0.10681918904
-0.069112541362
-0.034412363955
0.0066303873404
0.079439465597
0.44215582469
0.35815859293
0.15784936318
0.15166432036
0.14382104199
0.13197687104
0.11421349292
0.097973052309
0.087169544325
0.083712592959
0.08652468666
0.096099466977
0.11914272616
0.16481418999
0.26691993211
0.42480686859
0.33849339469
0.19094807118
0.11944579008
