# vtk DataFile Version 2.0
Vessel Segment
ASCII
DATASET POLYDATA
POINTS 68 float
0.0 0.0 0.0
-0.2726837112024547 0.09076727217489576 -0.9091057360636279
-0.7667581320179865 0.006006657717456338 -1.7148598610468808
-1.4904203589229603 -0.32188265697540774 -2.228193594171441
-2.287974659610721 -0.8132865428656944 -2.3953307091694005
-3.0639810077419756 -1.3672356842438633 -2.348803207594735
-3.808428307120963 -1.9454024038307416 -2.19339207775032
-4.530851194869277 -2.536346228208067 -1.988210978662386
-5.243166603479347 -3.1368246897069865 -1.7757847919733785
-5.958820862700755 -3.746741405385015 -1.6063581274548993
-6.683151405291822 -4.366001810845754 -1.580614789081205
-7.329202631670988 -4.974107254623514 -1.9053580190476993
-7.6825479544561786 -5.520238466383958 -2.5955544516306963
-7.765020837939183 -6.040244445092941 -3.3907246384015375
-7.681976930985612 -6.579892540061762 -4.17407245707635
-7.488427252654823 -7.153483797699769 -4.912800429019248
-7.211453591238781 -7.7630186187000305 -5.594033247951218
-6.867641087029099 -8.405734631560028 -6.211387817115289
-6.4675773153303595 -9.077529196312888 -6.760188654527936
-6.017458062652818 -9.775734505852494 -7.231761295365585
-5.519856571706191 -10.500350560178845 -7.6047469158645296
-4.977347903746283 -11.25280673651444 -7.827089634352898
-4.416819262634006 -12.01546495638468 -7.764447995922532
-3.995778561849327 -12.641972267992577 -7.208211123569927
-3.8603914429425186 -12.991218587903063 -6.335143515264953
-3.89433278706562 -13.200307742526817 -5.404013367570651
-4.000070330609 -13.384322783736012 -4.472404942256099
-4.12668660174975 -13.605806239199405 -3.5515714024928418
-4.2376670136550505 -13.90890604293995 -2.6526658914177736
-4.3016434649115185 -14.326036869642726 -1.7963798263815507
-4.294587506103244 -14.870546847568743 -1.0125555486325717
-4.20963594430692 -15.527659380507531 -0.3255052007759445
-4.058420200279694 -16.263621343855743 0.2640092463788802
-3.8578163816867153 -17.04553887603501 0.7748624826440368
-3.620314263037064 -17.84967176718384 1.2329924308242723
-3.3494418237348778 -18.658667450562902 1.6634713857880612
-3.04004894126855 -19.457031913531356 2.087656352753026
-2.679456712336201 -20.22762263142265 2.5224261672034443
-2.2507908478187653 -20.9495690600968 2.9778855804584348
-1.7386009801814228 -21.598690901539822 3.4556549170793818
-1.1366931414600026 -22.152383627920063 3.9484890894652116
-0.45297982566862904 -22.597507334503188 4.444564820246853
0.294899979445054 -22.933557374750727 4.934252907906313
1.0874960142331342 -23.16910546563247 5.412499612874469
1.9082185920387857 -23.317060556529995 5.878542055068829
2.7443869910140455 -23.391085384176957 6.33476343913327
3.586943942384529 -23.40373791856061 6.7853600601580215
4.429118999077245 -23.36600035948589 7.235194710373323
5.266117564340128 -23.287608748053266 7.689509348868054
6.0945244086262855 -23.17806771537393 8.153063110745629
6.912587362783199 -23.04782753652308 8.629526731277828
7.720390989203804 -22.90911111437188 9.120883334969914
8.51969973222669 -22.77575349289549 9.62737024208593
9.313144573399759 -22.66236032497244 10.147720835277946
10.103023245700916 -22.583463157728293 10.679655567028908
10.889994290131048 -22.553305753370736 11.220724401126327
11.671587666470735 -22.586390107651468 11.769201537335915
12.440767533577766 -22.698638955450782 12.324495493543651
13.183441523206001 -22.907938606783826 12.88735050973466
13.87524941493822 -23.233262407587834 13.459310531534776
14.478687560189837 -23.689827496862264 14.040767228306969
14.94587790277054 -24.280055723355296 14.626504555244065
15.231577687084872 -24.984878040142004 15.201582701624497
15.311638269186647 -25.764326441374898 15.745044515051001
15.193602125791331 -26.57148175611634 16.239728262464006
14.907805049261473 -27.369531610612157 16.678497514390994
14.48989525970927 -28.137354615021813 17.062697398224145
13.970791919190859 -28.865756555526314 17.397737825728424
LINES 1 69
68 0 1 2 3 4 5 6 7 8 9 10 11 12 13 14 15 16 17 18 19 20 21 22 23 24 25 26 27 28 29 30 31 32 33 34 35 36 37 38 39 40 41 42 43 44 45 46 47 48 49 50 51 52 53 54 55 56 57 58 59 60 61 62 63 64 65 66 67
POINT_DATA 68
SCALARS MaximumInscribedSphereRadius float
LOOKUP_TABLE default
1.2400000095367432
1.1033799648284912
0.9313480257987976
1.3496299982070923
1.4937200546264648
1.3044899702072144
1.1367000341415405
0.9768210053443909
1.1803499460220337
1.5658600330352783
1.7003300189971924
1.1277799606323242
0.9869279861450195
1.562880039215088
1.3895900249481201
1.2771999835968018
1.2771999835968018
1.2645100355148315
1.1149699687957764
0.9620440006256104
1.0625300407409668
1.2520300149917603
1.4431400299072266
1.5499999523162842
1.5499999523162842
1.5499999523162842
1.5591299533843994
1.575510025024414
1.6785800457000732
1.8273299932479858
1.743190050125122
1.5960400104522705
1.5809999704360962
1.5809999704360962
1.8364200592041016
2.1181800365448
1.8041399717330933
1.348099946975708
1.2400000095367432
1.2400000095367432
1.5542800426483154
1.9417200088500977
2.0804998874664307
2.1871700286865234
2.0516300201416016
1.8990000486373901
2.0113799571990967
2.151020050048828
2.0382800102233887
1.8851499557495117
1.7313799858093262
1.5773199796676636
1.8135299682617188
2.133510112762451
2.1475300788879395
2.0888400077819824
2.191930055618286
2.338089942932129
2.414170026779175
2.4780099391937256
2.1443700790405273
1.8941199779510498
2.069459915161133
2.1700000762939453
2.1700000762939453
2.1700000762939453
2.1700000762939453
2.1700000762939453
FIELD FieldData 2
Curvature 1 68 float
0.2797008126
0.40048236991
0.52010652677
0.42686758945
0.248792922
0.13186426555
0.058498330115
0.040178363191
0.10616824877
0.22922916987
0.44462593504
0.55534785695
0.36729145096
0.24155863863
0.17585168887
0.14055129573
0.11592191577
0.098668398047
0.10126322037
0.13565689731
0.21252127277
0.36116397824
0.63510296477
0.59094931342
0.28338740619
0.12182615886
0.060213783479
0.090380273034
0.13819950538
0.17305142588
0.17928593503
0.15303062749
0.11313655341
0.074426605713
0.045537741083
0.042087926998
0.064166314568
0.093631920611
0.121227506
0.13994177881
0.14348370142
0.13355814388
0.1170139704
0.098199609988
0.080195466553
0.064752292127
0.052514441356
0.043206635056
0.035641749099
0.028249794059
0.021182082895
0.01910670922
0.026192420289
0.038205367387
0.05194550693
0.067317412042
0.085542206342
0.10801866715
0.13592195432
0.16862015975
0.20184654481
0.22709163773
0.23702483583
0.22829174298
0.20579161489
0.17972830438
0.15562232623
0.13512807219
Torsion 1 68 float
0.0028112641466
0.0058159895088
0.013077009
0.022551094876
0.028545499258
0.047233402358
0.15829743096
0.32909557585
0.064701911526
-0.0091565290188
-0.11747447965
-0.31873064073
-0.27808646625
-0.17684822318
-0.11706372657
-0.083865335006
-0.055715676504
-0.04870935811
-0.052539912399
-0.050035970443
-0.050648403007
-0.058192949083
-0.08203295346
-0.10704038571
-0.13429073122
-0.29466638914
-0.76866913444
-0.28242518755
-0.10307613462
-0.048401059448
-0.020264582453
-0.017009631763
-0.046787249653
-0.1529437011
-0.52339372881
-0.59671283057
-0.19531766624
-0.036600134224
0.018737290612
0.027179520255
0.013523838247
-0.0033171407534
-0.020728132687
-0.040456558225
-0.065211961221
-0.09897123305
-0.14203996473
-0.18891034588
-0.23977798345
-0.33774972039
-0.59546229167
-0.78754361927
-0.44950793395
-0.20552132914
-0.081072712249
-0.010050536931
0.035910333726
0.068421343883
0.087514256715
0.099242870032
0.08522198124
0.063659741127
0.04630690172
0.032053093959
0.022555358402
0.016586650554
0.012475933774
0.0095366667436
