# vtk DataFile Version 2.0
Vessel Segment
ASCII
DATASET POLYDATA
POINTS 75 float
0.0 0.0 0.0
-0.7151209634037163 0.09394766241979369 0.4754860611033275
-1.483187285612417 0.04564099608709483 0.8657083806300129
-2.2750626662325004 -0.18023931005055244 1.1210717210216226
-3.0409805500298455 -0.564617155760769 1.2229245875769037
-3.7596254114611916 -1.044231235116514 1.2060780762338366
-4.4447485678820895 -1.5649254897578344 1.1208126952535995
-5.118181137266455 -2.0949938541558364 1.0046920992103159
-5.79608436025461 -2.617065207817026 0.8786006505017411
-6.485591281888758 -3.122290050135149 0.7471795007055532
-7.186272378426988 -3.6069731654068886 0.5986544532018704
-7.888499432555381 -4.070942416254762 0.4010522196757999
-8.561331980223946 -4.517893018382085 0.09506245686444974
-9.134716666411217 -4.950144727875898 -0.3820564502195798
-9.523478277334684 -5.365722063404129 -1.0291028187410933
-9.700883058569339 -5.766430008324961 -1.7723297173789028
-9.703202814656379 -6.163614874919961 -2.5393656744280944
-9.576853979583378 -6.5706837057897145 -3.291273215101865
-9.356473872507232 -6.9995828349315845 -4.008713934592623
-9.06586991243573 -7.461919239798755 -4.67879556302864
-8.722319773857446 -7.972731169568919 -5.285615885537616
-8.342153555982996 -8.554712888208801 -5.798319687056504
-7.956229752682617 -9.246711703307476 -6.134649892202045
-7.687974142419279 -10.042540505697099 -6.048697601115468
-7.708945393207573 -10.658902157129456 -5.459153313691472
-7.884115667342131 -11.059095329321432 -4.714378818059904
-8.09727748038913 -11.36791962094868 -3.9353112780264023
-8.296771585663924 -11.651388896574382 -3.1430055539626105
-8.445811405896464 -11.947666832488464 -2.344512720730977
-8.510877695181689 -12.28262157801773 -1.5504020133089993
-8.467471206194691 -12.671124163173175 -0.7799282269209198
-8.313445959629508 -13.115409095054893 -0.05501018763299091
-8.071233914877649 -13.60946140187253 0.611633611464138
-7.777449511831688 -14.145629987047833 1.223009836563848
-7.470343315172086 -14.718240874738223 1.7936452429221645
-7.178880307616762 -15.323257853292608 2.3385813585239688
-6.919047953024958 -15.956466016068031 2.8670988471210226
-6.694110303954482 -16.613483237254837 3.3824666794819205
-6.496249044660389 -17.28992411223618 3.883653670745355
-6.309906235025345 -17.981665540970422 4.368077760249072
-6.114364731818293 -18.684236869853784 4.832992946971308
-5.888310648899567 -19.39145017001662 5.276418831369203
-5.614038427442276 -20.094966615072547 5.697755391726958
-5.279255819290493 -20.784559605395437 6.097775606839654
-4.876226478879024 -21.448108210505048 6.478199211078532
-4.401084692530664 -22.07175865032114 6.842377965093737
-3.8526254986030275 -22.63984970229989 7.194007084588588
-3.232395674388075 -23.13429710538394 7.537385085789388
-2.5458118093639586 -23.53514276020676 7.876121935412509
-1.8039603703424232 -23.822754808717235 8.213139870366186
-1.0242895297859314 -23.982582724307214 8.549297938134243
-0.22846072739630702 -24.011066951920874 8.884596138716681
0.5632425158462924 -23.918608687667213 9.218777905450866
1.3370172413730703 -23.726858305273787 9.553217058549478
2.087600963643812 -23.46261636486211 9.891609633417632
2.8162330717764004 -23.153215003169393 10.239783709835846
3.5278293174506894 -22.825282642939662 10.6059133541292
4.228294832416166 -22.50571288044845 10.999728426634508
4.92198715142856 -22.22378218509673 11.432066204817065
5.608777991156556 -22.01350080416629 11.912890164025981
6.280492465573275 -21.91396851339985 12.446935721545652
6.9185311310416076 -21.962616995382124 13.026638669188369
7.497176868290946 -22.181631479263565 13.62851741941087
7.9947699794857865 -22.56520027929961 14.2207175406589
8.40578372771893 -23.080705821562493 14.778898397905374
8.73889655207776 -23.689435229557944 15.294103109608562
9.00689390504351 -24.36102060094155 15.767947512936864
9.220044459998633 -25.07527268043987 16.206148003300882
9.38421941111702 -25.819272967723663 16.61508165576004
9.501378117861407 -26.584426069743902 17.000541712768463
9.570586642102102 -27.364396921158292 17.367453455039396
9.58885746216544 -28.153762579799753 17.720071442290255
9.551594689382377 -28.94702192444226 18.062231571545357
9.452641646014303 -29.73781427406234 18.39765393133444
9.284068267907154 -30.51795577074079 18.730060353654537
LINES 1 76
75 0 1 2 3 4 5 6 7 8 9 10 11 12 13 14 15 16 17 18 19 20 21 22 23 24 25 26 27 28 29 30 31 32 33 34 35 36 37 38 39 40 41 42 43 44 45 46 47 48 49 50 51 52 53 54 55 56 57 58 59 60 61 62 63 64 65 66 67 68 69 70 71 72 73 74
POINT_DATA 75
SCALARS MaximumInscribedSphereRadius float
LOOKUP_TABLE default
0.9300000071525574
1.1789400577545166
1.4716800451278687
1.4394899606704712
1.2892500162124634
1.258870005607605
1.2400000095367432
1.2400000095367432
1.2409299612045288
1.5220799446105957
1.8044699430465698
1.6710200309753418
1.5326999425888062
1.4350500106811523
1.4394899606704712
1.5294599533081055
1.5499999523162842
1.5499999523162842
1.3608299493789673
1.0820000171661377
1.0747599601745605
1.4111299514770508
1.456030011177063
1.2400000095367432
1.2400000095367432
1.415179967880249
1.5171600580215454
1.358299970626831
1.2798000574111938
1.441140055656433
1.4939099550247192
1.3278100490570068
1.3242599964141846
1.502020001411438
1.659890055656433
1.8025000095367432
1.7658100128173828
1.6081899404525757
1.7471400499343872
2.058039903640747
2.0721499919891357
1.9200799465179443
1.769760012626648
1.6210099458694458
1.6265699863433838
1.7736400365829468
1.7378699779510498
1.4406700134277344
1.340000033378601
1.6440900564193726
1.832129955291748
1.7376799583435059
1.6535099744796753
1.5974500179290771
1.5499999523162842
1.5499999523162842
1.5524499416351318
1.8346600532531738
2.134040117263794
1.7727099657058716
1.3025100231170654
1.592479944229126
1.8991899490356445
2.004539966583252
2.044110059738159
1.9341800212860107
1.8600000143051147
1.8600000143051147
1.8600000143051147
1.8600000143051147
1.8600000143051147
1.8600000143051147
1.861340045928955
2.0114901065826416
2.1700000762939453
FIELD FieldData 2
Curvature 1 75 float
0.21230295187
0.25963152987
0.29194147374
0.2656790008
0.1864367748
0.10620835564
0.048743485508
0.020984509822
0.025091754075
0.041270823085
0.07693406091
0.14704259652
0.24114832765
0.30000363708
0.28459179714
0.22424471026
0.16599647076
0.12441862989
0.10419117478
0.11491129849
0.16846237025
0.29372301881
0.59017953969
0.82690267863
0.40478749145
0.16908427537
0.061699885513
0.060821710236
0.10955763422
0.14599075419
0.15504473387
0.1362720091
0.10204559368
0.065627757844
0.051263524435
0.05299038971
0.051598481712
0.042444957614
0.030736289779
0.029801577369
0.045028245253
0.062578143112
0.076751696783
0.087561249933
0.096736527881
0.10672924095
0.11893112492
0.13274776191
0.14599257393
0.15443348317
0.15350648994
0.14087640198
0.11808714368
0.089623101869
0.059873034909
0.035475385564
0.038086272556
0.068307617921
0.10760862023
0.15009907822
0.18824934112
0.21238399432
0.21508356938
0.19076717217
0.15403506129
0.11938063779
0.092563000395
0.0746858409
0.064846816071
0.061478917551
0.062776870251
0.067456100757
0.075068360992
0.085810938453
0.10014950385
Torsion 1 75 float
0.0042879078601
0.0078135163201
0.015042437998
0.027277902603
0.046545399393
0.094930049493
0.28560475781
0.80892990984
-0.09578961637
-0.38769093844
-0.30857935813
-0.20009014738
-0.16059203066
-0.15729076469
-0.15317133581
-0.15352395115
-0.16998131208
-0.21263310376
-0.2623572043
-0.23548954282
-0.15387431527
-0.098196494483
-0.071490578192
-0.031905114298
0.020000904739
0.1164099004
0.59343617548
0.43586601533
0.10202904478
0.06108153477
0.079089908301
0.12747666744
0.2600806082
0.54390299748
0.57136193447
0.2548821292
0.0048570874408
-0.20077622949
-0.62188332839
-0.77175455732
-0.34026948944
-0.17948759661
-0.13151656918
-0.1187346155
-0.11736715363
-0.11312911349
-0.10482439017
-0.092558739488
-0.079025663058
-0.067332300708
-0.059528335639
-0.058983336706
-0.072582920065
-0.11851418835
-0.26778752407
-0.79762717392
-0.72933354714
-0.23774321417
-0.10339826905
-0.062046663832
-0.049711053862
-0.045058187939
-0.036254993358
-0.024581710787
-0.011725860557
0.0070034984487
0.037782134781
0.077426475588
0.1101611348
0.12308348696
0.11899100416
0.10848599499
0.097279951199
0.086948170171
0.077046309535
