# vtk DataFile Version 2.0
Vessel Segment
ASCII
DATASET POLYDATA
POINTS 51 float
0.0 0.0 0.0
-0.9773396314824374 0.15347790740211972 0.8105181219764673
-2.0528090819706644 0.14878054299420454 1.500665675669643
-3.20924571945754 -0.06563235033038615 1.9966474294294583
-4.382553219667456 -0.5093129465891344 2.2301028085200536
-5.494369019092931 -1.1371931820065115 2.1989627934122726
-6.51209425620568 -1.8753888413541033 1.9655328382012047
-7.446825319424784 -2.668173202029761 1.5984907107863366
-8.321160103002057 -3.484061815891154 1.1427131905162768
-9.151088751667212 -4.30350493024266 0.6156416640772703
-9.940127932756301 -5.107332939920638 0.008327531206145525
-10.675379567387669 -5.8638095793093425 -0.7151561765216046
-11.32702356353233 -6.51911128478839 -1.5982758184712837
-11.878519568901101 -7.04048241423908 -2.627574898407331
-12.355065977423168 -7.471465598665299 -3.7344131789190853
-12.786635121739446 -7.891407555411057 -4.863898082785083
-13.175549654843902 -8.364667019508513 -5.987633557895103
-13.495976493814862 -8.929835018758363 -7.089786580608242
-13.701021292864079 -9.60354119169337 -8.157411553601342
-13.731565057463897 -10.378678958655168 -9.173495058826875
-13.532766058151903 -11.22287766770076 -10.11163379206519
-13.080148968239284 -12.085863413056153 -10.937677429806374
-12.401503298710384 -12.924220683115095 -11.623191178790453
-11.557775536766515 -13.724749641759164 -12.154337184588956
-10.610966655278899 -14.501157392036403 -12.524007656882581
-9.61254124504606 -15.2762951589982 -12.718996706248257
-8.608263499878205 -16.0673022694288 -12.712270274121872
-7.651032189777912 -16.873923273872002 -12.457866828961649
-6.820279686349978 -17.661248764414854 -11.895620154535587
-6.234466229513238 -18.347778257919096 -10.997850910003955
-5.984776589630941 -18.858613005297084 -9.85748579636117
-6.050060096999757 -19.206447997059485 -8.630542687640231
-6.350052738716089 -19.462626271142906 -7.414263080389633
-6.808671642355412 -19.705983645978947 -6.244827576498689
-7.364030488419873 -20.00750843585177 -5.132264080449555
-7.959310348982807 -20.429010934536134 -4.081371652168256
-8.534431040404543 -21.013613673693268 -3.10012249387802
-9.031771155727679 -21.7695321983933 -2.196653457688536
-9.415659024651292 -22.666667056597678 -1.3698852393808207
-9.67921355311521 -23.658504050050137 -0.6059690885780337
-9.834038320801815 -24.704229982813196 0.11515322500599517
-9.8962169581645 -25.77599299486461 0.8118383477204961
-9.873645698453142 -26.856539957292732 1.497313960885284
-9.764115690801184 -27.932314494335287 2.1818634184387173
-9.557268520292615 -28.986749013832167 2.8768094267274527
-9.238605916961717 -29.993184762107525 3.599594583098665
-8.796259166382459 -30.90678430629297 4.377551071370445
-8.23100233488688 -31.65652051528829 5.244345253345992
-7.569456040331536 -32.15221808531139 6.217279743702463
-6.8697852007650395 -32.33296255492589 7.2696882221331975
-6.19362231305466 -32.21708164703473 8.347614198231026
LINES 1 52
51 0 1 2 3 4 5 6 7 8 9 10 11 12 13 14 15 16 17 18 19 20 21 22 23 24 25 26 27 28 29 30 31 32 33 34 35 36 37 38 39 40 41 42 43 44 45 46 47 48 49 50
POINT_DATA 51
SCALARS MaximumInscribedSphereRadius float
LOOKUP_TABLE default
1.2400000095367432
1.1170300245285034
0.9758830070495605
1.1681100130081177
1.525920033454895
1.4915900230407715
1.3908400535583496
1.4864799976348877
1.576640009880066
1.437940001487732
1.2969599962234497
1.1780500411987305
1.2597299814224243
1.5405399799346924
1.7914600372314453
1.9430099725723267
1.8887100219726562
1.7071399688720703
1.3747899532318115
1.2400000095367432
1.2400000095367432
1.2554199695587158
1.2749799489974976
1.5923700332641602
1.9391900300979614
2.0915799140930176
2.217679977416992
1.9490200281143188
1.5834800004959106
1.7469899654388428
1.8001699447631836
1.6230499744415283
1.5499999523162842
1.5499999523162842
1.6620800495147705
1.827589988708496
1.8600000143051147
1.8600000143051147
1.8600000143051147
1.8290799856185913
1.5123100280761719
1.2615400552749634
1.4324300289154053
1.5476100444793701
1.3051600456237793
1.1749099493026733
1.4220000505447388
1.4569000005722046
1.2697499990463257
1.4039100408554077
1.5809999704360962
FIELD FieldData 2
Curvature 1 51 float
0.17983939852
0.22002920237
0.26320580987
0.28607577322
0.25993127329
0.19711591756
0.1320826719
0.08369129998
0.067421446883
0.089607653767
0.13448964876
0.18141157358
0.18050411296
0.12521643449
0.076576561265
0.070256744738
0.093012635734
0.12602668948
0.16268046201
0.19730837066
0.2194746125
0.21218284857
0.18254752772
0.15198470619
0.14026950439
0.15689578379
0.20029599604
0.26824099838
0.34561604726
0.36099011674
0.29074252125
0.20154417143
0.13123374272
0.098040783854
0.11110666734
0.14180362371
0.16098457996
0.15547155091
0.13190902899
0.10318017235
0.077922441776
0.065948074484
0.068085726549
0.0817040651
0.10411639671
0.13563703023
0.17916411862
0.23012861666
0.26388768957
0.25827987757
0.22509510284
Torsion 1 51 float
-0.0018993652877
-0.002889697059
-0.0045437524048
-0.0071260227478
-0.011050225593
-0.018574155328
-0.039365519555
-0.10161066953
-0.17659023141
-0.11976440744
-0.07166945689
-0.058813662723
-0.03161084989
0.091795882089
0.36226572724
0.1936724348
-0.09447823016
-0.17419000211
-0.16933991132
-0.12828796114
-0.068148579527
0.021466461948
0.12331772652
0.23685472296
0.26372779842
0.17277064399
0.065334330514
0.0048238380419
0.0052147872425
0.064856660074
0.12401499432
0.22479028975
0.43543350259
0.67231722316
0.48819791264
0.28506984947
0.19519901473
0.15169678869
0.15478620676
0.15453445056
0.17604533394
0.18373020279
0.16847579988
0.16290586192
0.18423606383
0.20594244996
0.19382324593
0.134612107
0.086545016171
0.053864958979
0.033490313735
