# vtk DataFile Version 2.0
Vessel Segment
ASCII
DATASET POLYDATA
POINTS 73 float
0.0 0.0 0.0
-0.852253370885482 0.24278998026216808 -0.0749704030408999
-1.7230038062766884 0.3811706511147955 0.039842179935847606
-2.5703659592702675 0.3801036921919562 0.3105562902262822
-3.366945786743179 0.22891612170906447 0.6776766698659148
-4.104385726512866 -0.061808981288420266 1.0833025623011767
-4.786596547731323 -0.4708155559704526 1.4841279877227103
-5.424251232183137 -0.9732022398771277 1.8513348775452758
-6.032382196361475 -1.5433569300260137 2.166160699741012
-6.628148989492792 -2.1583340726027282 2.4128639935723215
-7.225428862686388 -2.799903766901781 2.5721445068546824
-7.823953804002979 -3.4580138689219875 2.615988206820701
-8.392597110367683 -4.133999349525468 2.5083780206426427
-8.85718732572316 -4.83248595908199 2.2156971089996356
-9.117850988290506 -5.543067031468152 1.7517294277056568
-9.14426543081269 -6.23924161397884 1.1990955940178305
-8.999835832267145 -6.911580096674365 0.6332087395603014
-8.756068795821264 -7.5694238830333855 0.08368757617996328
-8.45929646140896 -8.225844492069255 -0.44111203021872286
-8.137266546136438 -8.893826932612393 -0.935583880526085
-7.805900316219548 -9.589645296722768 -1.38309936055994
-7.467772721809117 -10.346204835059677 -1.7022829211861592
-7.216625179364391 -10.722395213682491 -1.1604967859268813
-7.151257406629045 -10.404990200640688 -0.3319904602564836
-7.08820335721763 -9.995894571358576 0.4573861222786906
-7.012698626576261 -9.569367988354534 1.2365358441687173
-6.924743214704941 -9.16142837259534 2.024134727258525
-6.828961175695338 -8.815387640863694 2.839479631176443
-6.735492860009665 -8.610305922691694 3.6999133031833753
-6.662210253675005 -8.687766461978585 4.578580268451992
-6.615610101801811 -9.131991162504796 5.342254845265607
-6.570341528234543 -9.812957763739307 5.91152068569181
-6.50399839559358 -10.594596773736276 6.3332442572649805
-6.411861658213836 -11.418035468592711 6.661233197491293
-6.299539211483079 -12.260327446355182 6.9299015963970785
-6.178233275952073 -13.112580817240664 7.161396060813163
-6.0618194064520186 -13.971058680602075 7.371279942276987
-5.962834794395801 -14.834001147914062 7.571469594418034
-5.888486925416398 -15.699176765340384 7.772727901760018
-5.835393420988945 -16.562821491784415 7.986879618915199
-5.787990929575999 -17.419360933350795 8.228868955915713
-5.716843937365114 -18.25919882077683 8.518259088051076
-5.5792639097741406 -19.061950980174196 8.878529896736138
-5.326603287267138 -19.786655051958917 9.328357403815827
-4.931825093260424 -20.37880304780564 9.861338159475013
-4.411473128031347 -20.8064146126873 10.44243214706967
-3.8055676807159116 -21.078054254714257 11.03553154289389
-3.150925619264457 -21.226306840020293 11.621249584580218
-2.4718266202144394 -21.286239313664215 12.195139479098088
-1.7823226513191182 -21.286773005160395 12.759869471893651
-1.0894396964551232 -21.248531475643567 13.319352028397
-0.39593335939058233 -21.184650278625238 13.875810969192939
0.29748307493483217 -21.10132825037512 14.429602512681779
0.991256575799607 -20.997960455716967 14.979747058262664
1.6851182831254115 -20.86818818417045 15.524021633489834
2.3780902925894845 -20.703100250789195 16.059758841056198
3.068403386136943 -20.49555532478599 16.5839800166239
3.754706054194222 -20.244610911643345 17.09435277780995
4.437904533334497 -19.958590647981886 17.59030123820051
5.122276836917704 -19.654650478437112 18.073896977421203
5.8145643981697495 -19.356357430711096 18.54963937312359
6.5217397682072145 -19.093397855739834 19.024101502932474
7.247083760903926 -18.903844291334767 19.505517948868402
7.983251280066307 -18.834440648937793 20.001582180239065
8.703793215488574 -18.930515719988605 20.514730052391354
9.365404859569942 -19.210870626841768 21.039181921780212
9.928778386479378 -19.653156481503423 21.567288634363223
10.37219889216167 -20.213928633429806 22.097814451546924
10.685478053289682 -20.848462590253174 22.63826540390932
10.856746852994567 -21.51508387364107 23.202977373750105
10.862566677127045 -22.167858120873273 23.807478408818834
10.671122345739727 -22.743027883719467 24.457219127718496
10.270949503681132 -23.161169386404485 25.130487661141412
LINES 1 74
73 0 1 2 3 4 5 6 7 8 9 10 11 12 13 14 15 16 17 18 19 20 21 22 23 24 25 26 27 28 29 30 31 32 33 34 35 36 37 38 39 40 41 42 43 44 45 46 47 48 49 50 51 52 53 54 55 56 57 58 59 60 61 62 63 64 65 66 67 68 69 70 71 72
POINT_DATA 73
SCALARS MaximumInscribedSphereRadius float
LOOKUP_TABLE default
1.5499999523162842
1.3856600522994995
1.2400000095367432
1.2400000095367432
1.2400000095367432
1.2400000095367432
1.2400000095367432
1.2400000095367432
1.2400000095367432
1.2400000095367432
1.2521599531173706
1.2906299829483032
1.2362500429153442
1.0400099754333496
1.2231500148773193
1.5466899871826172
1.3052500486373901
1.0177799463272095
1.020400047302246
1.156350016593933
1.2400000095367432
1.2400000095367432
1.2819600105285645
1.487280011177063
1.5499999523162842
1.5499999523162842
1.6154899597167969
1.7655600309371948
1.7842799425125122
1.588539958000183
1.5499999523162842
1.5813900232315063
1.7416499853134155
1.8299100399017334
1.6876599788665771
1.55076003074646
1.5499999523162842
1.5499999523162842
1.436769962310791
1.2940399646759033
1.3309600353240967
1.4802600145339966
1.473829984664917
1.3292399644851685
1.4655799865722656
1.7516900300979614
1.9913599491119385
2.211829900741577
1.9896199703216553
1.6564899682998657
1.7481199502944946
2.0416200160980225
2.0924999713897705
1.9543800354003906
1.960479974746704
2.1120100021362305
2.325040102005005
2.6106700897216797
2.6836600303649902
2.3936901092529297
2.1370699405670166
1.9905999898910522
1.8796299695968628
2.0349700450897217
2.224410057067871
2.5798699855804443
2.788170099258423
2.44992995262146
2.1942899227142334
2.3515799045562744
2.486409902572632
2.3257100582122803
2.1700000762939453
FIELD FieldData 2
Curvature 1 73 float
0.24540948211
0.25347542596
0.23926821975
0.21156723579
0.18087386095
0.1527464675
0.12750204764
0.10333660415
0.091697642995
0.10481255703
0.139623577
0.18595787033
0.24893009836
0.31011605696
0.30434366007
0.22562396903
0.14074524062
0.073022432638
0.05179910464
0.12685744022
0.31789587375
1.3396045994
0.96803136598
0.25922957173
0.092317474178
0.026937751653
0.097167828868
0.20427918016
0.35511242441
0.46481647265
0.36874094746
0.22810880708
0.13830653879
0.083144913668
0.046777478427
0.025480412303
0.024256360819
0.029650808331
0.030273589878
0.035854417345
0.067428450176
0.12427271488
0.19397004867
0.24440464172
0.24304685355
0.20544991957
0.15472040302
0.10728885201
0.069106057633
0.043288337237
0.029129245892
0.024284751011
0.025169086068
0.031035755
0.04088598229
0.050223872328
0.053698165108
0.046102215925
0.027438047602
0.013993454826
0.043870974958
0.088180631561
0.14045089232
0.19153413173
0.22147870958
0.21558916121
0.1919542318
0.1689634899
0.16412137078
0.19054124976
0.24414533524
0.3018410026
0.32101355055
Torsion 1 73 float
0.10524260157
0.15611678455
0.20565365227
0.23140413904
0.22585271531
0.21722940857
0.22908328217
0.3060488048
0.37242097174
0.22161403503
-0.020057398479
-0.19181578074
-0.23780696008
-0.24739868584
-0.1743162098
-0.1205438656
-0.12913110417
-0.29328537432
-0.47171156427
-0.067589812266
0.011065703416
0.10345019826
0.093098185806
0.045175051128
0.089236822814
0.92475864375
0.11388108997
0.044356918006
0.00279351084
-0.063939014494
-0.11091017635
-0.1129925407
-0.08476718963
-0.010690950648
0.17976655792
0.74368395889
0.66738474113
0.4055944802
0.57948583598
0.72486429261
0.34743229667
0.14531401867
0.075005547326
0.041889315406
0.030618997035
0.016214134349
-0.0017423957111
-0.030384422986
-0.06037057156
-0.068269571391
-0.032313634453
0.030756287489
0.034460383526
0.0018935708202
-0.0061569641388
0.0026776543142
0.030342234776
0.098335756372
0.41969094374
1.9775945787
0.28114957905
0.12119060597
0.087469898608
0.084409147005
0.095296973823
0.12177354416
0.15971735718
0.22843949802
0.26549414473
0.21701882064
0.14641754455
0.093458977278
0.055955217967
