# vtk DataFile Version 2.0
Vessel Segment
ASCII
DATASET POLYDATA
POINTS 77 float
0.0 0.0 0.0
-0.7171872696062211 0.41406536580284653 -0.15027916047214163
-1.493707222520682 0.7172216211372092 -0.2635337615215828
-2.3166764368772044 0.8774691165784195 -0.3280347524979095
-3.1575388045144765 0.8783063352871536 -0.3362439695312601
-3.9846965090331103 0.7318809372681926 -0.29033913991171983
-4.780114197791521 0.4718654116180458 -0.1999530720266127
-5.5423179504484725 0.13520283273241862 -0.07807064458945381
-6.279810170359937 -0.2472814930001264 0.06031329968702887
-7.0050732452396245 -0.6537240144148616 0.1955976174464426
-7.729246657601456 -1.0703857168621602 0.3013971373986447
-8.457691642898022 -1.4907318207261397 0.33750139533998863
-9.179100955324529 -1.9130894863349595 0.2454408900374133
-9.847652049161246 -2.3367876605251303 -0.03526544148698247
-10.397672785886995 -2.762831325296258 -0.5059581078145496
-10.801600455684273 -3.197084207100737 -1.1021345202233341
-11.078119095919371 -3.6486774221989005 -1.7562771439925626
-11.257381362071735 -4.125567743814979 -2.4265042729923754
-11.362845355442193 -4.6339544249831075 -3.0894424864401944
-11.408917948352604 -5.179619707128687 -3.729095155114939
-11.403221985191085 -5.770183239148573 -4.3291237322312766
-11.345925229248502 -6.417792681047547 -4.863563253599059
-11.227057747810163 -7.14012229495541 -5.276035667011432
-11.021073186040283 -7.935750087263818 -5.416012563678388
-10.732408483546031 -8.617955515231912 -5.055056262528827
-10.45765055899228 -8.94816879389272 -4.339678439845585
-10.238513355218014 -8.996921605093021 -3.5305640766966726
-10.075249316032357 -8.867500214913187 -2.715587584840994
-9.967439832080942 -8.623400632329938 -1.9172787753698846
-9.91592371981813 -8.306673924509635 -1.13882355306429
-9.921870529043145 -7.9500738768130566 -0.3760342266349123
-9.98687480989209 -7.582249666084309 0.3787983265702367
-10.111689100555445 -7.232602208485166 1.1345527790023697
-10.29614563774234 -6.936063815539308 1.900526412467066
-10.53563812080911 -6.739377334447823 2.6827507167075915
-10.813914281234299 -6.702854467152112 3.4749433559171856
-11.094705293276945 -6.883374159113204 4.245189361189429
-11.3295067951818 -7.289648118364254 4.941299969352396
-11.488581545332531 -7.866976724479944 5.53110936543617
-11.571260088311277 -8.548428016511926 6.017466329894327
-11.590191776249808 -9.288685135231528 6.417792681047547
-11.558527653406886 -10.06253245914783 6.747922078062919
-11.486822427396813 -10.856485015165957 7.019163364490862
-11.383202232480324 -11.662868032164905 7.23888534316474
-11.254449498845538 -12.476790011906528 7.412788770482955
-11.107856337535704 -13.294934433904846 7.548911105823916
-10.950540705320691 -14.115030502186977 7.659065281483475
-10.788784938007257 -14.935394592298096 7.760676311273565
-10.627447780048191 -15.753890518334432 7.876611130612895
-10.4689594025427 -16.565442242437875 8.036105288990807
-10.31180993587293 -17.357375447701227 8.274341145121662
-10.146034240561072 -18.102951461614293 8.627003548719625
-9.94532543485272 -18.761165940114836 9.110009241724404
-9.66755096655452 -19.286850514458425 9.703839364679418
-9.271078377854481 -19.651287729140158 10.348517742225008
-8.74082734664881 -19.85629035139815 10.967227161216382
-8.099332477265724 -19.92849123430075 11.505854373873461
-7.385797654163638 -19.90153983693914 11.951080572646616
-6.634316372411866 -19.803138796697088 12.317648955312261
-5.866248094429707 -19.65310716197331 12.628595818325609
-5.0934896341584475 -19.466187475218867 12.906428604339206
-4.322322528532033 -19.254591481017066 13.170950571531307
-3.5564743180990837 -19.029583410864632 13.439929450150917
-2.7990374395213458 -18.802170384036177 13.729707781347434
-2.0538464823044715 -18.5829916388756 14.055212503644428
-1.32664054874192 -18.381404272790405 14.42896834501473
-0.6252186346772187 -18.204285482256243 14.859878742966783
0.041230225350306016 -18.055731487625238 15.352542808288925
0.6625871088462074 -17.939042732068 15.908543906897863
1.228112369139811 -17.859622391859837 16.52707757387023
1.7276036015276406 -17.82817596185864 17.20389700132851
2.1566458354049076 -17.865502894641317 17.927031479596153
2.524889554219938 -18.004256117875922 18.67080663446899
2.856794645781912 -18.280807312178176 19.392366434561772
3.181797276515508 -18.71480046045911 20.034626524241258
3.5203561298130515 -19.287524014169904 20.548411838095568
3.8782150263105573 -19.951743524432658 20.920275081117136
LINES 1 78
77 0 1 2 3 4 5 6 7 8 9 10 11 12 13 14 15 16 17 18 19 20 21 22 23 24 25 26 27 28 29 30 31 32 33 34 35 36 37 38 39 40 41 42 43 44 45 46 47 48 49 50 51 52 53 54 55 56 57 58 59 60 61 62 63 64 65 66 67 68 69 70 71 72 73 74 75 76
POINT_DATA 77
SCALARS MaximumInscribedSphereRadius float
LOOKUP_TABLE default
0.6200000047683716
0.7402529716491699
0.8735010027885437
1.2008600234985352
1.6649800539016724
1.7384999990463257
1.4677499532699585
1.2764899730682373
1.1871399879455566
1.1342799663543701
1.226330041885376
1.3562999963760376
1.8230899572372437
2.105520009994507
1.747979998588562
1.6147099733352661
1.7611600160598755
1.8600000143051147
1.8600000143051147
1.8600000143051147
1.738610029220581
1.595170021057129
1.4305499792099
1.2528799772262573
1.486299991607666
1.7517800331115723
1.9990400075912476
2.2472500801086426
2.476609945297241
1.9578499794006348
1.4391100406646729
1.4501299858093262
1.7069300413131714
1.7379399538040161
1.435670018196106
1.3867700099945068
1.7756400108337402
2.1037700176239014
2.3643999099731445
2.4800000190734863
2.4800000190734863
2.4217700958251953
2.1702499389648438
1.9210599660873413
2.1437699794769287
2.5236001014709473
2.669480085372925
2.272510051727295
1.8642300367355347
1.8600000143051147
1.8600000143051147
2.170300006866455
2.4947800636291504
2.6080400943756104
2.487060070037842
2.1371099948883057
1.83896005153656
1.5701299905776978
1.4148600101470947
1.2757200002670288
1.4450199604034424
1.7193100452423096
1.9874399900436401
2.2496700286865234
2.5111899375915527
2.706389904022217
2.906330108642578
2.636929988861084
2.2674999237060547
2.2411398887634277
2.340250015258789
2.659480094909668
3.0486299991607666
2.768389940261841
2.4560699462890625
2.139169931411743
1.8600000143051147
FIELD FieldData 2
Curvature 1 77 float
0.16239488795
0.18651500406
0.20556986403
0.20858008633
0.18847951499
0.1517512483
0.11035130326
0.067482627594
0.031179351762
0.045559689856
0.099258690569
0.16955245372
0.24463410414
0.2737571644
0.24373452895
0.18868813498
0.13847287472
0.10341353139
0.08701736638
0.096298085297
0.1368836504
0.22186084483
0.39970109624
0.6940816048
0.64185677923
0.38865316515
0.24721920387
0.16905573949
0.11970976725
0.087432556178
0.071506357795
0.076809557465
0.10352825779
0.14785990673
0.20633466137
0.26571546717
0.29457580246
0.26602761951
0.20964458986
0.15665125067
0.11729840835
0.090497182364
0.073304614017
0.063032064065
0.050986945047
0.03852989766
0.027788920486
0.039386398301
0.071840383653
0.11624218436
0.16706624703
0.20557467894
0.23294721993
0.24883559017
0.25526504801
0.2396734925
0.20102811316
0.15166011389
0.10606144059
0.068124679367
0.037507230347
0.018221489902
0.027924078796
0.048618421585
0.067977821523
0.083433597504
0.094264926491
0.1035712943
0.11337378676
0.12433518011
0.13438355661
0.14549134252
0.17200355318
0.21419954775
0.24429172679
0.24068516588
0.21353598541
Torsion 1 77 float
-0.002251186212
-0.0032617555424
-0.0049872498992
-0.0087511158272
-0.015321661313
-0.021218891833
-0.0079049828125
0.10968278506
0.89172718231
0.44327908425
0.031845472102
-0.059179078275
-0.12009536638
-0.17589144876
-0.18086282353
-0.18042215255
-0.19068309378
-0.2207051786
-0.23976848613
-0.18432180475
-0.1039947248
-0.05734072915
-0.023051213309
0.013709703514
0.020859666034
-0.0068147268459
-0.054477314514
-0.10858201563
-0.18912589537
-0.31899476525
-0.46683207859
-0.44714356173
-0.31139421001
-0.2187911837
-0.16729836399
-0.13535935472
-0.10739588787
-0.079087382614
-0.052522954798
-0.028348111358
-0.00683748426
0.011288720873
0.028199531296
0.04740131512
0.046521807637
0.0238714886
-0.061750019239
-0.034288722833
0.020335823909
0.05685361356
0.1006267121
0.20281052075
0.28212458095
0.32226118429
0.24954741621
0.12911568179
0.037182948337
-0.025604268866
-0.068908588001
-0.13120061908
-0.34092637229
-1.2744921098
-0.51890340222
-0.15149869034
-0.048759105113
-0.0012793800159
0.016238409186
0.0057524422032
-0.029730137639
-0.093398261
-0.23148694467
-0.38568327338
-0.38180362619
-0.25876797207
-0.1497666732
-0.080800148835
-0.044476599694
