# vtk DataFile Version 2.0
Vessel Segment
ASCII
DATASET POLYDATA
POINTS 78 float
0.0 0.0 0.0
-0.48354211367152655 0.5653232499899719 0.36828652578205584
-1.0555355872672803 1.0252081049301216 0.756012617380703
-1.6991929189081472 1.3717486491016189 1.1495063195921933
-2.396721870406946 1.6039550719116846 1.5353376309132354
-3.1322249838541016 1.7247936628828056 1.9014010106813515
-3.8920271617900153 1.7382205221302467 2.236079539018753
-4.664597896372776 1.6473653364806995 2.5266895001865457
-5.438156084856427 1.4542014426080212 2.758237620396017
-6.199606375985714 1.161779970942651 2.9127674785918196
-6.933049740723134 0.7775135030349545 2.9705928418731298
-7.6210230921818045 0.3168870757141832 2.9137572891845984
-8.24754805936401 -0.19629358069936945 2.7322087440617837
-8.802572565805306 -0.7341032384659397 2.429325131543534
-9.279755539200211 -1.2755359172276655 2.0189465175215764
-9.665093516352789 -1.816886897337289 1.5211691992851726
-9.942523285357371 -2.3631806458991065 0.9608735586553471
-10.102820754166018 -2.916968674663392 0.3634270271098892
-10.146312717387135 -3.4754543759235648 -0.2495061123927449
-10.082639615968805 -4.032620329726699 -0.8621093150311194
-9.927201645832325 -4.582950305927959 -1.4646635834609012
-9.696971701951966 -5.123559713656961 -2.051977911017739
-9.407185011816898 -5.654696791125862 -2.6214175161713307
-9.070611703201891 -6.178996319864964 -3.1711708884240988
-8.697219011663437 -6.7012376710222545 -3.6987666435499467
-8.294829583140338 -7.228255251071686 -4.199507109052987
-7.869624234889724 -7.770431073341959 -4.6639230969289684
-7.42744913392069 -8.344236842999253 -5.070430451743613
-6.979507993466738 -8.978750995680315 -5.360875444479276
-6.590792091275312 -9.69711938797692 -5.340282670765701
-6.481484008146102 -10.271173395846374 -4.7780906787303445
-6.596641400540257 -10.580646318882264 -4.018288500794432
-6.791040200962022 -10.771748892917284 -3.2336090832933433
-7.017152218550835 -10.91598314982026 -2.4471181552946772
-7.255042982193716 -11.049343630353997 -1.662110372057254
-7.4928520471844955 -11.19637920834733 -0.8795724019180032
-7.720528908186655 -11.379245929799259 -0.10164726336668671
-7.927942932339498 -11.618949775067643 0.6662273698481119
-8.104548709010118 -11.934353706020582 1.4140858332978274
-8.23996893825359 -12.337318167364248 2.127429758490137
-8.32736607134011 -12.827186427625973 2.7922572533570333
-8.365505201720596 -13.389708356525588 3.402224103337181
-8.357514445093814 -14.00395810122941 3.9614513769779753
-8.307019964710769 -14.650663421044866 4.480643168832753
-8.2155049053327 -15.31474934353114 4.971582938339358
-8.081321153766241 -15.9843546384181 5.444976351179051
-7.899442671779167 -16.64959376880136 5.908404099590179
-7.661468638356259 -17.300994404420813 6.365899268956334
-7.357515087721052 -17.92850682550391 6.817465001533367
-6.9787664210861164 -18.521258041245368 7.259227681422075
-6.52019974247508 -19.06746930559112 7.684927934969079
-5.98255505314064 -19.555582615960567 8.087893181876709
-5.37423474522594 -19.977633924901653 8.464335432717677
-4.708831431974515 -20.32991615607523 8.815076387396784
-4.000841125186798 -20.612362536544484 9.145389536794445
-3.2641031051905567 -20.827115299235217 9.463676487489845
-2.5106427851240904 -20.977741690101244 9.779739506607342
-1.751169758488474 -21.06956194107875 10.10403916387189
-0.9952388397598734 -21.110789516177896 10.44646099618788
-0.2507496601454186 -21.11321926551398 10.815406610134493
0.4766974948660646 -21.09223920876688 11.216477862328478
1.1833782665282553 -21.065682433449833 11.652779301549728
1.8667226823377596 -21.052444895117358 12.125308594030647
2.5250838074471487 -21.071357740297078 12.631799387739354
3.1576293368381294 -21.139504628481976 13.166116035346567
3.7640544716932425 -21.270303384933925 13.718661694704123
4.344227630048766 -21.472305266166966 14.277854403530567
4.897844013087241 -21.748755044128302 14.832088632625565
5.423881994875405 -22.098203353307078 15.371792285105778
5.920093094961529 -22.516185440922296 15.890630965959401
6.382473784806109 -22.997124588404002 16.38566411288372
6.804862788055583 -23.53565028772241 16.85654568495325
7.178499593595392 -24.127091968338345 17.30456066841968
7.491671884624048 -24.76710035537329 17.7315790001003
7.729531182747899 -25.45058499435011 18.139182118447167
7.874419292768089 -26.16995920310523 18.527959834702894
7.907609419282429 -26.912992438110642 18.896943450306196
7.813465778115431 -27.661455914309514 19.24341147096718
LINES 1 79
78 0 1 2 3 4 5 6 7 8 9 10 11 12 13 14 15 16 17 18 19 20 21 22 23 24 25 26 27 28 29 30 31 32 33 34 35 36 37 38 39 40 41 42 43 44 45 46 47 48 49 50 51 52 53 54 55 56 57 58 59 60 61 62 63 64 65 66 67 68 69 70 71 72 73 74 75 76 77
POINT_DATA 78
SCALARS MaximumInscribedSphereRadius float
LOOKUP_TABLE default
1.1160000562667847
1.1863700151443481
1.2593200206756592
1.1721700429916382
1.0314799547195435
1.0712300539016724
1.2185300588607788
1.2654399871826172
1.2453999519348145
1.107890009880066
0.9521880149841309
1.3547099828720093
1.5613800287246704
1.568160057067871
1.4340499639511108
1.6075299978256226
1.866979956626892
1.7369199991226196
1.536460041999817
1.2515599727630615
1.1160000562667847
1.1160000562667847
1.1833399534225464
1.4156299829483032
1.6463199853897095
1.516469955444336
1.3405499458312988
1.3697099685668945
1.5355499982833862
1.3117899894714355
1.4431099891662598
1.7587100267410278
2.1065800189971924
2.0453898906707764
1.8971099853515625
1.7512999773025513
1.604159951210022
1.7435400485992432
2.054680109024048
2.1700000762939453
2.1700000762939453
2.1700000762939453
2.1700000762939453
2.1700000762939453
2.1700000762939453
2.07315993309021
1.9237200021743774
1.8600000143051147
1.8600000143051147
1.8600000143051147
1.8600000143051147
1.8672599792480469
1.87978994846344
1.8774199485778809
1.8651800155639648
1.9205800294876099
2.0257999897003174
2.029439926147461
1.9365299940109253
2.012969970703125
2.3023900985717773
2.4210500717163086
2.268739938735962
2.115649938583374
1.9620599746704102
1.9631099700927734
2.2691900730133057
2.507920026779175
2.598259925842285
2.6376800537109375
2.5220301151275635
2.455739974975586
2.6634600162506104
2.8359498977661133
2.5125598907470703
2.194459915161133
2.1821799278259277
2.1700000762939453
FIELD FieldData 2
Curvature 1 78 float
0.1728985252
0.1704592007
0.16260470725
0.15243763185
0.14348097198
0.13875798493
0.14039471401
0.14861855132
0.1619890316
0.1754692457
0.18541747746
0.18574638519
0.17363991161
0.15806246751
0.15465110998
0.15893841346
0.16234480362
0.1596924111
0.14871301622
0.13076848336
0.10949072311
0.087520342331
0.067170986095
0.051525094046
0.050620057343
0.075070719736
0.12940752103
0.23564160594
0.47687162918
0.92204962441
0.54343591677
0.24500736766
0.12067560031
0.05405818016
0.023234232686
0.045727647766
0.077654109212
0.10548849857
0.12582247704
0.1340878874
0.12519172222
0.10478662868
0.082128951716
0.064232046875
0.05529988381
0.058061980583
0.069870660131
0.085435206309
0.10033917062
0.11293750933
0.12098791936
0.12057232237
0.11294875109
0.10140567113
0.089615118224
0.079508650571
0.071522795117
0.064671260423
0.058229593204
0.052108375262
0.04970495766
0.054389998418
0.063866011176
0.074703353444
0.084323973706
0.0914332918
0.095193511322
0.095421382055
0.093115139685
0.090031394892
0.088330292134
0.089891493529
0.095933243525
0.10668114315
0.12146384929
0.13868680579
0.15541986557
0.16764573987
Torsion 1 78 float
0.015443558677
0.02060294714
0.027186295647
0.03556395919
0.045685175603
0.05657724996
0.066612494755
0.074421781038
0.080029929052
0.086463367302
0.098355897294
0.094397807857
0.094062732347
-0.01216509075
-0.17913663641
-0.16345555241
-0.10788163645
-0.055764837583
-0.024036381968
-0.013068186138
-0.018308689026
-0.039520769117
-0.091330906085
-0.19972883812
-0.2635428661
-0.16179824936
-0.08225987442
-0.044476765982
-0.024472692262
-0.014459753927
-0.0085057725093
-0.011414245076
-0.024256599091
-0.086704923347
-0.37558604988
-0.080250172918
-0.021379014365
-0.010404947333
-0.010793100173
-0.019616804895
-0.043238660214
-0.085682612826
-0.15206650973
-0.24201853571
-0.30074783818
-0.22431279699
-0.10914424299
-0.036128606826
-0.0044546872118
-0.0013932775254
-0.011057502097
-0.034614494747
-0.068166253705
-0.10855749854
-0.15122106532
-0.19434561359
-0.23456300114
-0.27280645354
-0.32076651171
-0.39354473233
-0.44470859481
-0.39063626485
-0.30118601698
-0.22859823043
-0.1773193103
-0.136548733
-0.098225600017
-0.055822717958
-0.0094592695865
0.037887476235
0.080665759851
0.11003329056
0.11811578742
0.10981552574
0.095479360717
0.078669911718
0.062822940949
0.048974268944
