# vtk DataFile Version 2.0
Vessel Segment
ASCII
DATASET POLYDATA
POINTS 83 float
0.0 0.0 0.0
-0.6937158662949651 -0.3426191250339884 -0.06813543758388657
-1.2439286622858252 -0.885130189527358 -0.16815929249196843
-1.6812049825549353 -1.5266563104277415 -0.24873855629196806
-2.059291534301099 -2.2092494314848303 -0.28117291162850594
-2.412643978681007 -2.9056883119690746 -0.26203986123398876
-2.752307175754146 -3.607881794491028 -0.21863778925275323
-3.0611701227097563 -4.32454263434006 -0.22579432450150494
-3.2580297325571044 -5.047969841782284 -0.42514329300295844
-3.244729911142291 -5.691985321336773 -0.858686317054514
-3.0607028116394086 -6.227029793395033 -1.3952870091533922
-2.7739295848027687 -6.691063752141363 -1.953900277956453
-2.41925531768102 -7.10819451469687 -2.5108801833041086
-2.0168240844605583 -7.4878365447200474 -3.062258289916423
-1.5854588783495434 -7.837533578060793 -3.611771602828969
-1.1471707925249504 -8.17253034030289 -4.165017470195466
-0.7230392650774747 -8.514916551565307 -4.724641021026803
-0.325663150816408 -8.884135319428923 -5.2866767870974565
0.04130065569187881 -9.292633437164262 -5.842177615819282
0.37746347031903316 -9.74927794689027 -6.379245618988508
0.6819707813935623 -10.26480068442566 -6.880535396495597
0.9513214647058778 -10.857791729207023 -7.310034325379637
1.1690261153451433 -11.560685436570894 -7.553095423048683
1.2510058288289783 -12.244445351776644 -7.260098799576779
1.1684037756816168 -12.552685959068727 -6.555571728757503
1.0061555973477436 -12.626343084918753 -5.796520582482718
0.7788065363328283 -12.57321945914708 -5.051859650120225
0.47951085633808044 -12.425905207447029 -4.346399440687461
0.10554628493782446 -12.190077788441522 -3.703395726688454
-0.32348533287586745 -11.862314704862964 -3.1399609944611715
-0.7609953086801514 -11.442071502226222 -2.6487043114580846
-1.155026810852016 -10.939771442690857 -2.199216336980828
-1.4667670588264807 -10.380302178689096 -1.752839319057599
-1.6749830694468788 -9.803178940918649 -1.2704511617006642
-1.7708070588306621 -9.269144750888664 -0.7105946970977579
-1.7520626925644978 -8.89447995464649 -0.03103390565270256
-1.6431710537738675 -8.891680538806026 0.7300392882058402
-1.5272015066764804 -9.314723157283233 1.3669753759263652
-1.447166697361616 -9.944815733995778 1.8184082545725926
-1.3909321150359149 -10.646308991675813 2.1567488871402873
-1.346519761026404 -11.373703150870766 2.438156196067571
-1.31540797019531 -12.113620504987429 2.686661838587969
-1.310819420542659 -12.865281460478288 2.898921944375883
-1.3489312345021183 -13.631176859524656 3.0456145981760114
-1.4233664703724527 -14.406794554125065 3.0931379087395503
-1.4892454630738037 -15.183579042874136 3.0475580188177744
-1.4835672626872787 -15.959850231209428 2.9647237936624466
-1.3511090524426588 -16.727098607068992 2.9207772671960757
-1.0750691449519392 -17.454228698421016 2.972190386097556
-0.6860935035030732 -18.11041577694905 3.1344378226678256
-0.22983916143262467 -18.68664556045881 3.3967105976733842
0.25830582325283036 -19.18532915154421 3.7464076310141294
0.7540724289665736 -19.60673098892997 4.177617066768362
1.2378610360073439 -19.943143036127978 4.689407249849801
1.6962160526035452 -20.179001980086642 5.275243242909619
2.142515185348383 -20.299855669632766 5.904012513353117
2.634245113530647 -20.309111395880063 6.50968178164937
3.218727388013664 -20.23738322628153 7.021004653660461
3.877146804107113 -20.124058437313227 7.424758451386367
4.568171552047759 -19.988092056104783 7.762632514647318
5.259172934434888 -19.82516701848251 8.088528579235296
5.920563484643063 -19.618436760360378 8.448492362615218
6.521892694093912 -19.351761989248505 8.86873556525196
7.051322757435568 -19.02674454364914 9.34171296776842
7.533524732127968 -18.664976420303155 9.838568482452432
8.0184803187583 -18.299598875261434 10.33005807922709
8.547591238309453 -17.967200510923192 10.798446190327294
9.128410035074115 -17.69840985913169 11.245841649678438
9.74109355908788 -17.510330875943453 11.691899709252064
10.355482791688527 -17.41270996422964 12.163555289026682
10.93328453453537 -17.419990003118414 12.68766468203881
11.413526584345824 -17.56240453533405 13.28370511699509
11.693385276309428 -17.882692867077857 13.932441180123694
11.707058761139617 -18.366995145414208 14.539588041518568
11.539373919192682 -18.93129329047623 15.051307757057655
11.294290495778526 -19.521329149060346 15.500585812435057
11.022155417338723 -20.115277068890514 15.928987672949185
10.746335164595157 -20.701657145553664 16.365346431640486
10.483994054617606 -21.273679089580387 16.8281425723731
10.255165059312693 -21.82846504362912 17.328039503273292
10.084459020002809 -22.365587288261867 17.868545209863985
9.997802718798605 -22.88391180600921 18.445881055627353
10.015969914567096 -23.37961004198079 19.048551309928428
LINES 1 84
83 0 1 2 3 4 5 6 7 8 9 10 11 12 13 14 15 16 17 18 19 20 21 22 23 24 25 26 27 28 29 30 31 32 33 34 35 36 37 38 39 40 41 42 43 44 45 46 47 48 49 50 51 52 53 54 55 56 57 58 59 60 61 62 63 64 65 66 67 68 69 70 71 72 73 74 75 76 77 78 79 80 81 82
POINT_DATA 83
SCALARS MaximumInscribedSphereRadius float
LOOKUP_TABLE default
1.5499999523162842
1.1946500539779663
0.9300000071525574
0.9300000071525574
1.0046299695968628
1.1741199493408203
1.2400000095367432
1.2384699583053589
1.0167100429534912
1.0565199851989746
1.237470030784607
1.2400000095367432
1.241760015487671
1.2610299587249756
1.2735300064086914
1.2533299922943115
1.2532099485397339
1.2914400100708008
1.4363000392913818
1.7565699815750122
1.8748699426651
1.4789999723434448
1.2400000095367432
1.1815400123596191
0.9622870087623596
1.0756200551986694
1.2372000217437744
1.2400000095367432
1.2400000095367432
1.2400000095367432
1.2566800117492676
1.4135299921035767
1.5302900075912476
1.370519995689392
1.244920015335083
1.268470048904419
1.2592600584030151
1.2400000095367432
1.2400000095367432
1.3137199878692627
1.4679499864578247
1.4737999439239502
1.3050099611282349
1.2400000095367432
1.2409100532531738
1.4235999584197998
1.4953999519348145
1.320039987564087
1.2400000095367432
1.2400000095367432
1.2400000095367432
1.2400000095367432
1.2514599561691284
1.2717900276184082
1.5496000051498413
1.841629981994629
1.5161999464035034
1.3338700532913208
1.24931001663208
1.2400000095367432
1.2400000095367432
1.2400000095367432
1.2400000095367432
1.2400000095367432
1.2785600423812866
1.447909951210022
1.613700032234192
1.775149941444397
1.7114299535751343
1.388069987297058
1.3372100591659546
1.5262500047683716
1.3655999898910522
1.320870041847229
1.507680058479309
1.421489953994751
1.258970022201538
1.2400000095367432
1.2400000095367432
1.685420036315918
2.1558899879455566
1.8574800491333008
1.5499999523162842
FIELD FieldData 2
Curvature 1 83 float
0.40416446881
0.32619322668
0.19535274649
0.11107654039
0.077191369771
0.063573368256
0.12474338322
0.31698797469
0.45500298101
0.32961575566
0.18796914806
0.10933002563
0.078440756183
0.062989757425
0.029546462928
0.026882065656
0.066616996153
0.080299622913
0.0807901059
0.096197661218
0.16047332617
0.33308575164
0.82476791912
0.85534609958
0.3598822838
0.19479587764
0.15872695229
0.16875137613
0.17353100787
0.1529818651
0.13284217081
0.13032221862
0.14447737434
0.19354478266
0.31766732387
0.54034106567
0.62344411769
0.39320964959
0.1958006312
0.081802658548
0.0523687444
0.086909744057
0.12841829994
0.14812385968
0.12536159773
0.11104696155
0.17627169761
0.23660022065
0.23098386694
0.18782794599
0.15334265111
0.14595303855
0.16309110994
0.18510325167
0.17835008832
0.16213948235
0.21469087705
0.20657533725
0.12950831654
0.047405719875
0.08333655759
0.14426101698
0.14323185324
0.084917803736
0.015254909505
0.083312368917
0.11491537237
0.11284911897
0.12028241148
0.16483172564
0.2490647049
0.37089056418
0.42927691202
0.30254154868
0.15392790986
0.063326017419
0.024538096053
0.042765293594
0.067789470648
0.09340029664
0.12039963186
0.14453652057
0.15980893639
Torsion 1 83 float
0.073717223791
0.15918640006
0.32228605028
0.54331974669
0.32623507637
-0.22193869006
-0.1544474616
0.04542906846
0.13683551897
0.13968097761
0.11994144504
0.063433108221
-0.069370140017
-0.15524727683
-0.56649254597
-0.67117181377
-0.14912109662
-0.13060860241
-0.15249689809
-0.16220546781
-0.12549991451
-0.099308675246
-0.089550833234
0.014459374881
0.11056009034
0.20359257784
0.15152225222
-0.00041540228997
-0.21090402951
-0.44253623554
-0.58489244274
-0.55516895579
-0.50109584842
-0.41165994179
-0.29189127353
-0.19748285862
-0.10614377953
-0.032368174859
0.015742728084
-0.032536107118
-0.23753137599
-0.047657277803
0.091892855211
0.27054341536
0.61359452896
1.0946655199
0.39473312171
0.1650716607
0.12068359961
0.13011240868
0.13848399395
0.11528034495
0.057992713595
-0.049534055167
-0.36745434779
-0.83697651607
-0.35750149268
-0.076449686392
0.10848341469
1.2226474949
0.29272760585
0.014135314528
-0.05586604088
-0.16802492498
-3.744904453
-0.23416508979
-0.29335688499
-0.42362401729
-0.41201819786
-0.22696828046
-0.089984718128
0.0012651893626
0.068040200885
0.073189108202
0.012594889368
-0.16757791337
-0.79224345434
-0.30872019957
-0.24557618805
-0.19897081602
-0.13789950627
-0.089358715351
-0.057463507513
