# vtk DataFile Version 2.0
Vessel Segment
ASCII
DATASET POLYDATA
POINTS 119 float
0.0 0.0 0.0
-0.47648192857825183 0.22183243718265958 0.13426030603596398
-0.9468421233571688 0.45830573661627133 0.2650496645080543
-1.4132708701542098 0.7022608103875059 0.3962185932292333
-1.877905384763929 0.9476824525870994 0.531075662299868
-2.342969339930498 1.1884396211534778 0.6726553652099482
-2.810941351358307 1.4174290777467469 0.8236167622058144
-3.284413996323467 1.6259775904626623 0.9866158107797275
-3.765586384100352 1.8028035454672748 1.163658958569922
-4.255244933566757 1.9343520444375426 1.3559397316457396
-4.7512424096180785 2.0059822251225135 1.5627517363283583
-5.247375372597549 2.0059284440517975 1.7810594448764285
-5.734306601227859 1.9292014726651674 2.0064166106936776
-6.203251423020733 1.7811132259471443 2.2345941799694136
-6.6507288064615375 1.576633458081133 2.4626621186009987
-7.0814288229046465 1.335495685014306 2.6875859330984433
-7.508029584082733 1.0779298633465944 2.9019355616921203
-7.947248728977459 0.8204716038203139 3.0887389395658293
-8.412603922862909 0.5738026544806633 3.216329358581704
-8.901275796531955 0.3424819953221464 3.2440928020872533
-9.386639617226313 0.12270978684843686 3.148386283994829
-9.836541027291918 -0.09744302612572128 2.9423334198103874
-10.23303059437745 -0.3307701329224726 2.656081602424082
-10.566999666756137 -0.5850294529925371 2.313273817923563
-10.828036435987723 -0.8613038475097453 1.9270864286341418
-11.00019998586184 -1.1529234294540076 1.5043516990394161
-11.064509735421336 -1.4460064770725494 1.0536373674049184
-11.009960215945355 -1.7234743976590992 0.59202409493964
-10.84517191251879 -1.9749133142706763 0.14147214076864903
-10.59497978592159 -2.2024941205117416 -0.2820217293242542
-10.286062349982755 -2.417059907639641 -0.6726015841392327
-9.939133590938654 -2.6314095362333174 -1.03010401196142
-9.56850858186187 -2.8570924912289395 -1.3555053460745754
-9.184165262747177 -3.10424857295911 -1.647559313590002
-8.793748302521385 -3.3830165475050724 -1.9003541337344272
-8.406205526824797 -3.70657484569486 -2.0971349344772334
-8.040785904842462 -4.093466560160383 -2.189967268040455
-7.779911513074383 -4.531655073574954 -2.042639196071969
-7.750847498483742 -4.848869273923024 -1.6142646938116285
-7.859947054561381 -5.004330698585879 -1.1079159130246006
-8.023542866169965 -5.063543657443715 -0.5946262713611853
-8.217395701312853 -5.054922138107466 -0.08843986803766402
-8.435920602646505 -4.984972615882357 0.40272610278581644
-8.678521324261931 -4.849737010813993 0.8681350777419818
-8.94254035728983 -4.643900305163774 1.2942859395785058
-9.218489479754346 -4.370933446495573 1.672664731100571
-9.492648830240528 -4.046291252880595 2.009453172686387
-9.753089353563123 -3.6893307727710027 2.3240641623615526
-9.990918039403903 -3.3180552195888318 2.6400310555695663
-10.19811013146129 -2.9498710437214455 2.9800194708629584
-10.365555426631477 -2.606086925937167 3.3640918161213538
-10.480891001283721 -2.3189135905891773 3.808353453521344
-10.527036194209035 -2.141653250013401 4.316491489161024
-10.4910856169384 -2.1448532237209768 4.853802652909818
-10.386757579509728 -2.360450159454711 5.336130428737147
-10.252117703224675 -2.739208521225865 5.696452225766462
-10.116393931514432 -3.21128738320212 5.922840023063865
-9.993683627540316 -3.7285351048199287 6.025324507443491
-9.889464186504433 -4.260152714832392 6.020823962650822
-9.804006065137402 -4.78808321874676 5.932545954950985
-9.734436113161381 -5.306307273648327 5.788417339564395
-9.675819400212538 -5.818133449637464 5.618640324703281
-9.622408074358145 -6.333048934438665 5.456671390483843
-9.568291906201969 -6.860491271711153 5.343992807575218
-9.509295623004036 -7.398452979565333 5.329623436306244
-9.44634074272603 -7.9232383250942 5.44555525686748
-9.383277783180912 -8.408115013398039 5.678395748399391
-9.320540095688488 -8.847171263703578 5.990023957152563
-9.253138968814207 -9.248703840420053 6.348286042598608
-9.172235690436242 -9.62317885018412 6.732195493267817
-9.065359257656738 -9.97943397086625 7.126950620822771
-8.91613333444281 -10.32224175536677 7.519753081810205
-8.70666382089089 -10.64916137047628 7.89802379406516
-8.425997477973803 -10.949728260935164 8.250971378898283
-8.076682701042381 -11.211578468861322 8.57210022064363
-7.673306054151178 -11.426958728935155 8.863285934142409
-7.234065707103574 -11.59489219074722 9.133237432970779
-6.773026961268728 -11.717710573988448 9.39104268382831
-6.29928321316585 -11.798450957777227 9.642438679008452
-5.817991240075475 -11.839932711320685 9.889024629676468
-5.331537318447766 -11.844867124558839 10.128849162079044
-4.8405774222077484 -11.815965487431702 10.357562990684896
-4.3448943585698405 -11.756155765539196 10.569472561757694
-3.8440547762142385 -11.669342257764999 10.758705396075843
-3.338063717116321 -11.56094754398914 10.921227137647156
-2.827561188945746 -11.437532397713243 11.056804821352811
-2.3135601116281292 -11.306200574402876 11.17002018071723
-1.7973840845014994 -11.173512847559662 11.271208748142884
-1.2808327857329955 -11.04445844574383 11.375108346945712
-0.7667244048367878 -10.922236308411593 11.497509409763214
-0.2590252796179713 -10.808419014755701 11.650693930057217
0.23859351472143683 -10.704090977327029 11.839536334486999
0.7248467915853226 -10.611692512209292 12.061379889871777
1.200764794609581 -10.536266111907754 12.310389867164595
1.6680992870350675 -10.486108023705972 12.581057197215445
2.127467975486491 -10.475480056731488 12.869032917696599
2.5746469774099605 -10.52807794389131 13.170694951064212
2.991118797894723 -10.681099569596125 13.480488010060636
3.32740873032506 -10.974183651466028 13.78429351725154
3.519455762593537 -11.396972162131469 14.05917953839926
3.5614256827788746 -11.879679508207886 14.300015762553961
3.4971154160937 -12.369202570746143 14.523435032205926
3.366537044899032 -12.846188955425193 14.745869597602185
3.1952634683201215 -13.30636539418871 14.976264278590028
2.9983197729881286 -13.75088197454892 15.216782793655106
2.782598209965525 -14.183116820010142 15.46353706873195
2.548066200334473 -14.607451277895814 15.706804623911681
2.288325089494021 -15.028157840573748 15.929662133473437
1.987731308499779 -15.44607735439955 16.09849035199325
1.622989896846709 -15.841238813457531 16.142271246309797
1.2083673177934737 -16.14464692168352 15.982888974741506
0.8040906136563053 -16.327410772308244 15.673266825782308
0.41993139128367707 -16.443749570779605 15.308590313402073
0.039209761868565327 -16.541689942528027 14.934771665407292
-0.3530723414034127 -16.653002085468074 14.577193220110152
-0.7667026855582296 -16.803876540709 14.261113431902132
-1.2017300096912213 -17.016278997195503 14.018584865479237
-1.6423978175376377 -17.298829616808934 13.881593028880939
-2.0633418701840913 -17.63853128591279 13.860985530134196
LINES 1 120
119 0 1 2 3 4 5 6 7 8 9 10 11 12 13 14 15 16 17 18 19 20 21 22 23 24 25 26 27 28 29 30 31 32 33 34 35 36 37 38 39 40 41 42 43 44 45 46 47 48 49 50 51 52 53 54 55 56 57 58 59 60 61 62 63 64 65 66 67 68 69 70 71 72 73 74 75 76 77 78 79 80 81 82 83 84 85 86 87 88 89 90 91 92 93 94 95 96 97 98 99 100 101 102 103 104 105 106 107 108 109 110 111 112 113 114 115 116 117 118
POINT_DATA 119
SCALARS MaximumInscribedSphereRadius float
LOOKUP_TABLE default
1.1160000562667847
1.1160000562667847
1.1160000562667847
1.0743199586868286
1.0173900127410889
1.015720009803772
1.1245900392532349
1.2345099449157715
1.111340045928955
0.9730389714241028
1.1281700134277344
1.418030023574829
1.6170599460601807
1.7386399507522583
1.7621899843215942
1.6429699659347534
1.5499999523162842
1.5499999523162842
1.5234500169754028
1.3795499801635742
1.2534099817276
1.1732499599456787
1.1474100351333618
1.2712199687957764
1.3770500421524048
1.1703300476074219
0.9563810229301453
1.184309959411621
1.466539978981018
1.457260012626648
1.3295300006866455
1.255929946899414
1.3136600255966187
1.3717700242996216
1.4360300302505493
1.5082099437713623
1.6427500247955322
1.8728100061416626
2.0686099529266357
2.1085801124572754
1.9582300186157227
1.9904600381851196
2.4096601009368896
2.8183701038360596
3.102530002593994
3.383239984512329
2.7973198890686035
2.140500068664551
2.0057098865509033
2.265439987182617
2.4524600505828857
2.308120012283325
2.1311399936676025
1.7942099571228027
1.5952800512313843
1.751579999923706
1.9341299533843994
2.2104101181030273
2.477060079574585
2.4800000190734863
2.4800000190734863
2.4015300273895264
2.265939950942993
2.2654099464416504
2.5689499378204346
2.7465200424194336
2.597440004348755
2.4300999641418457
2.1540799140930176
1.8803600072860718
1.7313599586486816
1.588129997253418
1.4399900436401367
1.2893699407577515
1.439020037651062
1.726789951324463
1.7884000539779663
1.6547800302505493
1.6226600408554077
1.9861899614334106
2.3483400344848633
2.363029956817627
2.2850399017333984
2.1196401119232178
1.824489951133728
1.5605599880218506
1.6957900524139404
1.8318400382995605
1.8686699867248535
1.8795900344848633
1.8791999816894531
1.8685699701309204
1.8618899583816528
1.8722599744796753
1.8827199935913086
1.910979986190796
1.945430040359497
1.8283300399780273
1.6049400568008423
1.7283200025558472
1.9452099800109863
1.8272000551223755
1.646690011024475
1.7137800455093384
2.0806000232696533
2.449359893798828
2.6009299755096436
2.7274301052093506
2.7899999618530273
2.7899999618530273
3.0742299556732178
3.4011199474334717
3.256740093231201
3.1174800395965576
3.0813000202178955
3.06003999710083
2.923880100250244
2.7006800174713135
2.4986000061035156
FIELD FieldData 2
Curvature 1 119 float
0.068616332848
0.045957416054
0.028383245917
0.015800712868
0.015484914706
0.028568062433
0.046999856475
0.069089525483
0.093830564159
0.11793511885
0.13635675116
0.14472657144
0.13763159898
0.11324785417
0.075407633063
0.038038620837
0.066492871037
0.13214349749
0.19900892703
0.23573204885
0.22335560844
0.18789081945
0.16299574075
0.16074789628
0.17977239835
0.20788089681
0.22544370911
0.21484873107
0.17883937114
0.13647503609
0.10071681589
0.078618751707
0.076892907758
0.10085136327
0.15775518991
0.27758948917
0.55814209341
0.83362472936
0.4563787792
0.23284348165
0.1452012922
0.12384729965
0.13678211432
0.1561664364
0.15720339383
0.12862931749
0.084472254853
0.053190662877
0.072358655687
0.1233729094
0.19142465456
0.2813067622
0.38448795925
0.44104793569
0.39387817441
0.30916988102
0.24933826184
0.20587964921
0.1609824754
0.10933991511
0.054774005178
0.04112380969
0.11000800475
0.19418828499
0.25038909598
0.23528041452
0.17438293166
0.11387662405
0.072499654352
0.062696544079
0.087515791681
0.12384416218
0.15043571657
0.15988156659
0.14812138871
0.12346959701
0.10054106483
0.08478204665
0.075053477019
0.069091688568
0.066194634409
0.066124632174
0.067074691442
0.065598018564
0.058834421406
0.045668077831
0.024129926436
0.0095127860041
0.037177226961
0.061870313056
0.07376053449
0.070611298705
0.062248006599
0.063093090713
0.085437908925
0.13345244845
0.21100351056
0.31402241172
0.37939217139
0.32468277817
0.22348791886
0.14634270035
0.095684108885
0.062100269902
0.042738317037
0.051351543723
0.093072978643
0.17036267008
0.30491707894
0.4614013243
0.38837748176
0.20151397733
0.084251177929
0.05657093097
0.11296940079
0.18271747484
0.2430337455
0.26712566143
0.24924505243
Torsion 1 119 float
-0.036999838111
-0.064398395006
-0.14006862701
-0.41096656244
-0.47717720156
-0.19389635128
-0.10202221267
-0.068292145393
-0.053148901533
-0.038564520021
-0.022880418251
-0.0039563802722
0.01387499727
0.013000368915
-0.11600076764
-1.0538276291
-0.31212520681
0.040286556198
0.1368220883
0.18916647448
0.21747129272
0.21358378543
0.15318670141
0.038478769568
-0.045613964302
-0.051777762356
-0.014767474185
0.039621548977
0.10039927749
0.17004759128
0.26170719344
0.33536232015
0.27709893441
0.13748100337
0.038268463823
-0.017472556452
-0.050409585306
-0.084256755166
-0.065116182358
-0.041799468314
-0.0074831472924
0.021734095252
0.012016967665
-0.020263144432
-0.072833116584
-0.1678361235
-0.41008111767
-0.96904336639
-0.51189608409
-0.20031410572
-0.11952193155
-0.097763079713
-0.095257400966
-0.089312395525
-0.067578997614
-0.043033487779
-0.023420420573
-0.014188376328
-0.018038502309
-0.046218897242
-0.22773612654
-0.49686885661
-0.077228143057
-0.015672275614
0.0058954042205
0.00054474393955
-0.042644099736
-0.1519680617
-0.4277526866
-0.58404639713
-0.26413895801
-0.048421976345
0.045868169494
0.077810506544
0.12982054003
0.16752934256
0.16393414112
0.11137611523
0.015297566622
-0.081955251504
-0.14651965341
-0.18194528765
-0.18453687737
-0.16438831082
-0.15238729553
-0.1666226456
-0.34699863192
-2.069002922
-0.17664687029
-0.064196881502
0.0077014571082
0.12239952303
0.24167250962
0.31699298459
0.20445821424
0.085751196237
0.0045649984597
-0.060364590863
-0.1139373429
-0.14928846034
-0.16889566529
-0.18368012894
-0.18170983233
-0.1086346032
0.23222605396
0.34427914008
0.15185076709
0.06080235353
0.012085509384
-0.014001812416
-0.024974222488
-0.041222229228
-0.13108665249
-0.2217719212
-0.051132167433
-0.019188114273
-0.0094936039099
-0.0050799515703
-0.0027808295126
