# vtk DataFile Version 2.0
Vessel Segment
ASCII
DATASET POLYDATA
POINTS 86 float
0.0 0.0 0.0
-0.4967826789170726 0.20702962797667523 0.525584964467307
-1.0317225322108947 0.4420349921803283 0.999656362955549
-1.6000069271407171 0.6871181621023338 1.4276289003589449
-2.199477512133143 0.9287387896098641 1.8129636847330575
-2.828953451213558 1.1555482269882018 2.1572370765225872
-3.4872617973813673 1.3564129803594858 2.461276700819976
-4.172469393412417 1.519599993820482 2.725761009390777
-4.881133060737548 1.6316492433374556 2.9519680160259165
-5.607506757553782 1.676168875259776 3.142453748307249
-6.341475384811048 1.6333044935223373 3.3008284876172245
-7.0658933332502585 1.4817730805833071 3.4325069388500613
-7.756921557747728 1.2076642237104647 3.5437299976335064
-8.391849853643812 0.8165403667660034 3.638710376093208
-8.96466180248055 0.33539901319866094 3.71624321274277
-9.489343120833059 -0.20124055540632646 3.770163632976802
-9.990036220734996 -0.7626228152497966 3.7911440007881225
-10.493061588228457 -1.3215953521204753 3.7658017475242667
-11.020300368521733 -1.850563969262077 3.676611875993826
-11.580477766878808 -2.321704972492335 3.5049262859770036
-12.162613765825443 -2.7157606590536925 3.2387121405578774
-12.742420365898381 -3.0291250506404364 2.8769166202947645
-13.292670566222903 -3.2739070051908428 2.426609680266765
-13.786745534103137 -3.473718939120443 1.8961364206260811
-14.194565328787652 -3.658564772158314 1.2923416021025707
-14.475669554076152 -3.860029087554971 0.6255282247638289
-14.580951498244536 -4.106165076918661 -0.07535261110275092
-14.47942900878549 -4.4105819376100035 -0.7531445715568172
-14.190804439719404 -4.764631919746288 -1.3485928555692128
-13.769599207664596 -5.150867481517372 -1.836350906799345
-13.265297260739121 -5.557783630087091 -2.2173969580254536
-12.710233351904668 -5.982147320466949 -2.4953427249889013
-12.12726972786559 -6.426363972553001 -2.6627424505755455
-11.54257626697819 -6.896975697344593 -2.689213544303441
-11.012930632429946 -7.395488571699719 -2.5115868396715575
-10.647375657457497 -7.88851072013827 -2.0858691144784167
-10.500505910983687 -8.327839077050944 -1.4963633794399938
-10.512613334563051 -8.71881376066852 -0.8543658456442659
-10.613384219952014 -9.09279129117444 -0.20936189556819831
-10.758898497253627 -9.476921214062157 0.4211292110324508
-10.91952948313277 -9.892034723816103 1.0279318801952135
-11.0712115037576 -10.354525108445824 1.601570736944935
-11.192211152887799 -10.87499658339051 2.130991177143935
-11.266285750199623 -11.452772131243524 2.606792412480502
-11.286439927277415 -12.076494498136672 3.0267181963854695
-11.253651916899416 -12.730750063197563 3.3967110778328102
-11.17145597942572 -13.401322895245642 3.7280494209505353
-11.041657972727009 -14.076484241454411 4.033745729791718
-10.861549827176715 -14.746305469432405 4.325527322823943
-10.624814626124737 -15.400034624772454 4.613024485784901
-10.323331029409202 -16.02518561314233 4.9033774573404
-9.94987847426521 -16.606194923163294 5.201025578324241
-9.502052975155621 -17.126740984771423 5.507773272248196
-8.985191781593384 -17.572837364212145 5.823019542727977
-8.412756351971145 -17.93861896789275 6.146010634155131
-7.802569312954633 -18.228671441256104 6.476898588574369
-7.171476492790242 -18.45593126733293 6.817787610510149
-6.532487526813222 -18.63603941288322 7.172213394681475
-5.894626684120786 -18.782833138334677 7.543484289919743
-5.263082758078453 -18.9054873204703 7.933931846637019
-4.640788295482576 -19.00738561196439 8.344683470938431
-4.028631164499914 -19.08687347981152 8.775213470282592
-3.4261301377153663 -19.138161134261885 9.223189577077981
-2.8318411742938987 -19.155232156857526 9.684477251759674
-2.244184686483256 -19.1370330109773 10.15426206863828
-1.6616574661432701 -19.091987686513598 10.62864257147214
-1.0831679661416218 -19.039196106743606 11.107173391818959
-0.5093265061955272 -19.005355276923922 11.592855925702883
0.05547616176936715 -19.020245356793296 12.089699206284003
0.6009142672377318 -19.112742859975675 12.599220426701885
1.1102778874701167 -19.30480853859899 13.117856639418187
1.5643534262455197 -19.604712906152 13.63653050405594
1.9472128657265997 -20.006741476727797 14.14339744330647
2.2495162882079893 -20.496154060963352 14.627546288923337
2.4695166445344148 -21.05369941071622 15.081704482631066
2.612143467697984 -21.66022381424998 15.503104787497955
2.6878091948689353 -22.29919054766386 15.892980572893785
2.710876554897763 -22.958408635971843 16.255054358785898
2.6988713518027634 -23.6304337564187 16.59352971326188
2.671431752043002 -24.312189926316847 16.911083956879104
2.6487170650117546 -25.003669615281986 17.207228331838184
2.650436188991953 -25.705730211353995 17.47811019492419
2.695045109756569 -26.41769505571596 17.71732459570878
2.797607464603373 -27.135675870298723 17.917143813492235
2.9672149262925305 -27.85223541449419 18.07080318192224
3.2056406874116785 -28.55802105747053 18.17496861214849
LINES 1 87
86 0 1 2 3 4 5 6 7 8 9 10 11 12 13 14 15 16 17 18 19 20 21 22 23 24 25 26 27 28 29 30 31 32 33 34 35 36 37 38 39 40 41 42 43 44 45 46 47 48 49 50 51 52 53 54 55 56 57 58 59 60 61 62 63 64 65 66 67 68 69 70 71 72 73 74 75 76 77 78 79 80 81 82 83 84 85
POINT_DATA 86
SCALARS MaximumInscribedSphereRadius float
LOOKUP_TABLE default
0.9300000071525574
0.9565550088882446
0.9907540082931519
1.1179800033569336
1.2395999431610107
1.2400000095367432
1.2400000095367432
1.1092499494552612
0.9598919749259949
1.0537899732589722
1.2134100198745728
1.100250005722046
0.9345729947090149
1.1058499813079834
1.2586100101470947
1.3404500484466553
1.2875699996948242
1.0362800359725952
1.0421899557113647
1.2369099855422974
1.3981499671936035
1.5480799674987793
1.5664199590682983
1.5944900512695312
1.716670036315918
1.774459958076477
1.6284799575805664
1.6291500329971313
1.7933299541473389
1.685789942741394
1.3923200368881226
1.309149980545044
1.459939956665039
1.5499999523162842
1.5499999523162842
1.7177300453186035
1.8847999572753906
1.8847999572753906
1.7556699514389038
1.4487099647521973
1.4727699756622314
1.925469994544983
2.0948801040649414
1.9332200288772583
1.7722599506378174
1.6138499975204468
1.6415499448776245
1.7946699857711792
1.8600000143051147
1.8600000143051147
1.9440399408340454
2.1006100177764893
2.1700000762939453
2.1700000762939453
2.0823800563812256
1.9393399953842163
2.0482699871063232
2.3121800422668457
2.179270029067993
1.7506699562072754
1.5582599639892578
1.573889970779419
1.8567899465560913
2.3624000549316406
2.429579973220825
2.229569911956787
2.282219886779785
2.4419798851013184
2.4800000190734863
2.4800000190734863
2.5537800788879395
2.641700029373169
2.3117098808288574
1.9645500183105469
2.2252700328826904
2.482909917831421
2.6374499797821045
2.788180112838745
2.823970079421997
2.856750011444092
2.667710065841675
2.4817299842834473
2.4897899627685547
2.4668099880218506
1.9980299472808838
1.5499999523162842
FIELD FieldData 2
Curvature 1 86 float
0.14209659952
0.10633715167
0.084987910273
0.074247015729
0.071373393829
0.07422637563
0.08118304972
0.092027962061
0.10780776004
0.12964536057
0.15553550013
0.17649912722
0.17719220123
0.14926866562
0.10358283775
0.063585328679
0.061251498248
0.10029250494
0.14311810502
0.16693958668
0.16897673161
0.15668204937
0.14366431571
0.15104075663
0.19087621615
0.2493702072
0.2940954089
0.28996187556
0.24156369899
0.18666523546
0.15284449511
0.15567471139
0.20685090539
0.31152419268
0.426580362
0.38999334852
0.25072624317
0.13808857642
0.07243266961
0.056085628017
0.078948345103
0.10810040648
0.12375965119
0.12127933697
0.10663379315
0.087998352328
0.073235963499
0.069381844083
0.078095162448
0.094798517153
0.11374010141
0.12922839535
0.13664493584
0.13160327648
0.11433599247
0.09033984361
0.066518089605
0.049167358452
0.041886253442
0.041831190811
0.044891903079
0.049095988564
0.052330630372
0.050171258089
0.038123390871
0.015111912851
0.027452780344
0.067496096319
0.10845318991
0.14274457974
0.16254673634
0.16745463726
0.16214225868
0.14874690391
0.13034444434
0.10797108001
0.08367801087
0.058680057169
0.037482126589
0.033411203621
0.049686359356
0.072354610968
0.094427520879
0.11212585093
0.12311878965
0.12659106032
Torsion 1 86 float
0.12551023899
0.15445371552
0.18279557501
0.19521095303
0.187749543
0.17213320347
0.16237500889
0.15898354622
0.15436768907
0.14294670045
0.12300238524
0.088242267602
0.034092083548
-0.070079292514
-0.23430383546
-0.71264189898
-0.77226220306
-0.22690032269
-0.022038686471
0.081996599802
0.14106225176
0.22053001046
0.33481099429
0.34744536038
0.24207243151
0.1543041706
0.1053384179
0.080071431653
0.072920750318
0.087587377209
0.12002962335
0.13618629183
0.11631755689
0.096604270232
0.09125670017
0.10592279758
0.13387699298
0.2401573056
0.56670451025
0.71957817717
0.32351263998
0.15269962655
0.095922199789
0.082538827855
0.10289733404
0.16494125959
0.25820021817
0.27981894125
0.20042650649
0.11814860076
0.070055706398
0.050012295935
0.048324597537
0.061646120226
0.089895036449
0.13925149276
0.22012261634
0.2958376408
0.21005519772
0.046762198592
-0.098888015729
-0.17206599191
-0.15938916524
-0.10041523984
0.012815249128
1.078237309
0.35871769456
0.030330885919
-0.010098320572
-0.02507602611
-0.025891631728
-0.023422075464
-0.022303827998
-0.023495943985
-0.022713399944
-0.01281762536
0.02358620065
0.15304809374
0.54312822744
0.71434240226
0.28571769756
0.10421545462
0.035598614254
0.014944946723
0.0088094198309
0.0059697510157
