# vtk DataFile Version 2.0
Vessel Segment
ASCII
DATASET POLYDATA
POINTS 82 float
0.0 0.0 0.0
-0.5385787065780057 0.4095994847814532 0.40470821454306327
-1.1637323319981776 0.7108626013043648 0.7802193082785067
-1.8391098964776942 0.9228035982431407 1.1296922892772165
-2.543516397318941 1.0609661799122703 1.4585722700691914
-3.2643827750154837 1.1360057904003076 1.772063562188078
-3.9934868042965888 1.1532080115771681 2.074903925237092
-4.724445753752714 1.1133584566934487 2.3710364755314894
-5.450874634464976 1.0121227078148223 2.6635404558121154
-6.164892481324659 0.8405038377151056 2.953597295967319
-6.855632396868288 0.5854805325165914 3.2379742426210814
-7.509997064403682 0.23553347455631443 3.5067262146240856
-8.116229375283977 -0.21162494563106451 3.741943637872689
-8.671646655909196 -0.7427386331963952 3.9216127862816816
-9.18437518740309 -1.3338207988906134 4.025294170279503
-9.670513268874869 -1.9555178012584709 4.0374455905578905
-10.146077176594362 -2.579029841136328 3.948124975979982
-10.618012514300084 -3.1806861805828315 3.7525960719487883
-11.079767989885045 -3.745966519517986 3.452597160656722
-11.514460443492553 -4.272583248476453 3.0566480823559448
-11.90046594565024 -4.766691842927466 2.5772178136387827
-12.214747366038404 -5.240597233784588 2.0298485538134985
-12.43371072203328 -5.70740501527425 1.4324543920024164
-12.536209171136527 -6.1776818361176 0.8072838352621885
-12.506619243703607 -6.656955584187133 0.1813261602651366
-12.339735123194652 -7.14530150979421 -0.4151228576352658
-12.043838858877924 -7.639962441530605 -0.9537329812182642
-11.637473632478718 -8.137777866319205 -1.4112277841740315
-11.143050491726221 -8.638513003188566 -1.767959410206512
-10.585108563154877 -9.14508756421945 -2.00049491235825
-9.996551797909897 -9.66428762249029 -2.0700894103162892
-9.4454742027408 -10.199345931377104 -1.9065975738434358
-9.075564742182982 -10.71894030127947 -1.4540738064560998
-8.987742361304248 -11.170123108118373 -0.8173041667228654
-9.10894201778664 -11.566466498050676 -0.14636938062603425
-9.340687391669102 -11.95215745390688 0.5023138884016909
-9.619303926988268 -12.36136112205058 1.1176206343288704
-9.904311471251225 -12.816410289887152 1.6964716144146594
-10.16477838397351 -13.332296324445705 2.234293114734607
-10.374588292094575 -13.914857144881534 2.723823480242487
-10.516540479443787 -14.556754340830828 3.1605672573376635
-10.586607549357167 -15.240471144815244 3.5489401342907314
-10.590159364053351 -15.947309359468083 3.9008602554148637
-10.53555623312442 -16.66258915404927 4.23100143142523
-10.430138071940414 -17.375737859812748 4.553567911094113
-10.279033941723618 -18.07839366216021 4.880711114699903
-10.084925763570897 -18.76329415354231 5.222609399357131
-9.847578004007698 -19.42255084381921 5.586837461407279
-9.564227471600883 -20.046853011966345 5.978525867078862
-9.22982487045821 -20.62538944575065 6.399092332237899
-8.83908461870976 -21.14592971206681 6.845778180469938
-8.388927473614691 -21.597112518905714 7.3114782773763825
-7.880932939208447 -21.970336003175817 7.786569613140536
-7.322991010637104 -22.263549593892566 8.26189723488236
-6.727489394156722 -22.482670975541296 8.731780496597297
-6.1073696383149665 -22.638746141326525 9.195114723714589
-5.473520463165608 -22.743453939571296 9.654346303856542
-4.833706195834754 -22.806263116954018 10.113103807036927
-4.193496864369261 -22.833327643937697 10.574859282621889
-3.5568942803272456 -22.82882993282772 11.042296909217631
-2.9268873860759204 -22.796004994509442 11.517466505305599
-2.3055606152399535 -22.738719942483648 12.00171053644045
-1.6939550558770078 -22.662969969056373 12.495699482896402
-1.092101936866298 -22.57783101428073 13.000057169754626
-0.4995678164143917 -22.49442808418816 13.515610597936968
0.0838213218237312 -22.42656885841008 14.043671004118874
0.6569922202823008 -22.392086908235658 14.585855517491465
1.2157469462792188 -22.41528507422167 15.14321387989821
1.749243905268205 -22.52835694457409 15.713615002521404
2.2342897284705954 -22.771149816667286 16.285831162654596
2.632454046601334 -23.175541227399524 16.832008081296383
2.907464775125915 -23.73424092660626 17.31432702134087
3.05588396247553 -24.39773496191583 17.71365276923814
3.1049443671111954 -25.114664243322025 18.039959189381612
3.086246075681612 -25.854996747812688 18.31387239211501
3.024790416243031 -26.60478182016482 18.55422696599437
2.9396243595974383 -27.357991910438496 18.776149164231917
2.8468566164400935 -28.111951305687537 18.99250067598238
2.76284077991016 -28.864845532779277 19.215929949830684
2.708171062743805 -29.613423684200086 19.461452009622572
2.714521630524171 -30.348059081680585 19.74998401979668
2.83660156279728 -31.037230710188307 20.11176084704626
LINES 1 83
82 0 1 2 3 4 5 6 7 8 9 10 11 12 13 14 15 16 17 18 19 20 21 22 23 24 25 26 27 28 29 30 31 32 33 34 35 36 37 38 39 40 41 42 43 44 45 46 47 48 49 50 51 52 53 54 55 56 57 58 59 60 61 62 63 64 65 66 67 68 69 70 71 72 73 74 75 76 77 78 79 80 81
POINT_DATA 82
SCALARS MaximumInscribedSphereRadius float
LOOKUP_TABLE default
1.5809999704360962
1.394219994544983
1.2400000095367432
1.2400000095367432
1.2400000095367432
1.2400000095367432
1.2400000095367432
1.113700032234192
0.9692230224609375
1.149649977684021
1.4600499868392944
1.6669000387191772
1.834439992904663
1.6389100551605225
1.3711700439453125
0.9853469729423523
0.7870470285415649
1.1660100221633911
1.4898300170898438
1.7359399795532227
1.7836899757385254
1.6289499998092651
1.511680006980896
1.4330099821090698
1.388800024986267
1.388800024986267
1.3647700548171997
1.2947499752044678
1.2062400579452515
1.0515400171279907
1.0265300273895264
1.4174100160598755
1.4170199632644653
1.2952300310134888
1.362339973449707
1.4390100240707397
1.52292001247406
1.5499999523162842
1.5499999523162842
1.493630051612854
1.4131200313568115
1.4435800313949585
1.5210599899291992
1.4592399597167969
1.314389944076538
1.3801599740982056
1.6707099676132202
1.9125499725341797
2.062609910964966
2.1239099502563477
1.9670000076293945
1.9651399850845337
2.2868399620056152
2.5439400672912598
2.7029199600219727
2.608099937438965
2.204279899597168
1.9562900066375732
1.8950999975204468
1.9885400533676147
2.2901899814605713
2.4800000190734863
2.4800000190734863
2.4419798851013184
2.296639919281006
2.2083899974823
2.50492000579834
2.7686901092529297
2.447200059890747
2.1389899253845215
1.96343994140625
1.7903300523757935
1.6273800134658813
1.703819990158081
1.9996999502182007
2.1058099269866943
1.826859951019287
1.5577600002288818
1.6899299621582031
1.8358099460601807
1.8600000143051147
1.8600000143051147
FIELD FieldData 2
Curvature 1 82 float
0.24155597419
0.18722566971
0.14256037463
0.11007782793
0.088025420885
0.075358324673
0.072371975248
0.07933033651
0.095380099115
0.11703047636
0.13789733969
0.14943564552
0.14576724862
0.13490690639
0.12719863766
0.12965325605
0.13863731419
0.14277561145
0.13819594158
0.13163743847
0.12951368222
0.13734467723
0.15249093256
0.16885612168
0.17980717189
0.18067586503
0.17407117748
0.16954684759
0.18107432172
0.22659397877
0.33015137248
0.46838669828
0.46450335702
0.30037053599
0.16734387249
0.093120572497
0.078006682687
0.09872346066
0.12375805094
0.13470246581
0.12420899474
0.10266956753
0.081030322543
0.065709749419
0.059329324485
0.061844985988
0.070651877272
0.0830435482
0.096966643126
0.11010472814
0.11972506379
0.12468080534
0.12037688736
0.10633309394
0.08689088404
0.067905901011
0.053985772412
0.045520945369
0.041217736735
0.03895718928
0.036518689584
0.031765328314
0.024075930051
0.01926551287
0.02746724292
0.049787219346
0.083249435144
0.1278624949
0.18349431379
0.24110680653
0.26981096162
0.24538161507
0.18575247078
0.12732128137
0.079984179822
0.041934189823
0.012655794915
0.030281910313
0.069291899652
0.12360579481
0.20807901463
0.33953938017
Torsion 1 82 float
-0.026549064923
-0.032608126108
-0.041240624151
-0.054986986601
-0.074465799655
-0.095469191468
-0.10074582394
-0.079303768986
-0.03282030299
0.017009610007
0.066693585182
0.13277549016
0.21505631586
0.30109205914
0.35176617552
0.26958064881
0.1126834451
-0.048023063428
-0.15354820894
-0.23644315323
-0.2817838618
-0.25112841608
-0.19208126278
-0.1447707099
-0.11708038471
-0.11021491082
-0.12265093332
-0.14830896878
-0.17625016349
-0.18331217447
-0.1696185847
-0.17003058773
-0.18264030841
-0.21059744846
-0.30679085355
-0.56173394276
-0.55651557963
-0.27287031027
-0.1460069965
-0.1043667896
-0.11462083577
-0.15476780277
-0.21801254448
-0.28566448412
-0.29142247386
-0.21184161474
-0.11008060482
-0.031420606073
0.019437354004
0.047100899378
0.05084276297
0.040306957377
0.01561162223
-0.015428498069
-0.055669791108
-0.10260891477
-0.14047617729
-0.15298037706
-0.13776211488
-0.11939321028
-0.11903559718
-0.18367409165
-0.41658155706
-0.75434905002
-0.4606403482
-0.17025506996
-0.070720847654
-0.032702330722
-0.014372553894
-0.0016024092822
0.0076839846034
0.014019944602
0.015876850092
0.01565431292
0.015547600491
0.019374499197
0.079564490099
0.015148849009
0.0063055366381
0.0040480536973
0.0028039610215
0.0020451850038
