# vtk DataFile Version 4.2
vtk output
ASCII
DATASET POLYDATA
POINTS 64 float
0 0 0 -0.769107 0.657636 0.270812 -1.59341 1.10524 0.544847 
-2.53504 1.32099 0.858872 -3.47881 1.19053 1.20099 -4.3201 0.754535 1.5595 
-5.0328 0.134114 1.9274 -5.64819 -0.579807 2.30246 -6.20801 -1.34147 2.67098 
-6.75164 -2.13559 2.99164 -7.32067 -2.95846 3.15443 -7.91412 -3.73774 2.91563 
-8.40973 -4.32513 2.25598 -8.78385 -4.78887 1.43527 -9.06125 -5.23416 0.567047 
-9.22862 -5.71016 -0.312807 -9.24644 -6.2348 -1.18028 -9.07713 -6.80216 -2.00316 
-8.71992 -7.38978 -2.74813 -8.21152 -7.98028 -3.39717 -7.59417 -8.57274 -3.94165 
-6.89079 -9.17396 -4.35642 -6.10908 -9.78429 -4.56444 -5.29216 -10.3448 -4.37167 
-4.66489 -10.6522 -3.6484 -4.33937 -10.6725 -2.68974 -4.1914 -10.5635 -1.6923 
-4.14124 -10.4351 -0.687222 -4.16094 -10.369 0.324766 -4.24952 -10.4387 1.3324 
-4.41572 -10.7053 2.2959 -4.6523 -11.1919 3.15261 -4.92055 -11.8679 3.85866 
-5.16581 -12.6738 4.42313 -5.34016 -13.5583 4.88798 -5.40587 -14.4838 5.29773 
-5.33166 -15.4172 5.68706 -5.09495 -16.3248 6.07254 -4.68621 -17.171 6.45308 
-4.11264 -17.9226 6.81927 -3.40003 -18.5553 7.16584 -2.58717 -19.0598 7.50234 
-1.71313 -19.4375 7.85183 -0.813232 -19.6924 8.24414 0.0809271 -19.8309 8.70239 
0.946429 -19.8701 9.22992 1.77577 -19.8426 9.81355 2.57378 -19.7872 10.4376 
3.35015 -19.7421 11.0892 4.11142 -19.7397 11.7599 4.85674 -19.8041 12.4451 
5.57764 -19.9498 13.1438 6.26245 -20.1827 13.855 6.90362 -20.5025 14.5731 
7.50241 -20.9052 15.2861 8.06713 -21.3889 15.9762 8.60508 -21.9575 16.6213 
9.11249 -22.6215 17.1961 9.57093 -23.3883 17.676 9.96081 -24.2486 18.0448 
10.2769 -25.178 18.3018 10.5301 -26.1513 18.4605 10.7309 -27.1041 18.5397 
10.9152 -28.1357 18.5546 
LINES 1 65
64 0 1 2 3 4 5 6 7 8 9 10 11 12 13 14 15 16 17 18 19 20 21 22 23 24 25 26 27 28 29 30 31 32 33 34 35 36 37 38 39 40 41 42 43 44 45 46 47 48 49 50 51 52 53 54 55 56 57 58 59 60 61 62 63 

CELL_DATA 1
FIELD FieldData 2
Length 1 1 double
63.86600407 
Tortuosity 1 1 double
0.8027781106 
POINT_DATA 64
SCALARS MaximumInscribedSphereRadius float
LOOKUP_TABLE default
0.8742 0.904215 0.991724 1.17273 1.06976 1.33449 1.82282 1.93206 1.74743 
1.55027 1.48012 1.24629 1.23711 1.12602 1.6124 1.73628 1.58746 1.77836 
1.69109 1.48041 1.30321 1.42539 1.7591 2.0153 1.984 2.0364 2.18773 
2.36429 2.10801 1.86 1.86 1.94941 2.33963 2.28294 1.94227 1.63744 
1.79377 1.55021 1.4009 1.81457 1.85843 1.75403 1.56276 1.79156 1.8848 
1.88081 1.88212 2.03758 2.0852 1.92595 2.06183 1.9274 1.69169 2.04119 
2.07832 2.13177 2.42905 2.48 2.64766 2.79 2.76664 2.58234 2.59289 
2.79 
TEXTURE_COORDINATES TCoords 2 float
0 0 0.015873 0 0.031746 0 0.047619 0 0.0634921 
0 0.0793651 0 0.0952381 0 0.111111 0 0.126984 0 
0.142857 0 0.15873 0 0.174603 0 0.190476 0 0.206349 
0 0.222222 0 0.238095 0 0.253968 0 0.269841 0 
0.285714 0 0.301587 0 0.31746 0 0.333333 0 0.349206 
0 0.365079 0 0.380952 0 0.396825 0 0.412698 0 
0.428571 0 0.444444 0 0.460317 0 0.47619 0 0.492063 
0 0.507937 0 0.52381 0 0.539683 0 0.555556 0 
0.571429 0 0.587302 0 0.603175 0 0.619048 0 0.634921 
0 0.650794 0 0.666667 0 0.68254 0 0.698413 0 
0.714286 0 0.730159 0 0.746032 0 0.761905 0 0.777778 
0 0.793651 0 0.809524 0 0.825397 0 0.84127 0 
0.857143 0 0.873016 0 0.888889 0 0.904762 0 0.920635 
0 0.936508 0 0.952381 0 0.968254 0 0.984127 0 
1 0 
FIELD FieldData 7
Curvature 1 64 double
0 0.20269580371 0.26648017979 0.34798732395 0.32282532619 0.22177609073 0.1319630659 0.07156041353 0.058400807463 
0.15902814389 0.41248607912 0.48975959296 0.23353610783 0.10657508955 0.11196058438 0.15432379362 0.19353824223 0.2009347811 
0.17554527643 0.14765282451 0.15248601231 0.2179424109 0.41295257788 0.67167118787 0.49777544746 0.21982422577 0.097432768403 
0.091407361714 0.14895568895 0.21282816862 0.2517859136 0.24114051291 0.19000124421 0.14205849105 0.12543508623 0.13836735006 
0.16110460288 0.17917850541 0.18705737524 0.1804506133 0.15958900518 0.13812180155 0.12944881654 0.13073716992 0.12139776063 
0.091893580592 0.056646883038 0.035485148507 0.047780965614 0.068277085946 0.083673120766 0.092711788421 0.094958803792 0.090799932523 
0.088420743439 0.097171825994 0.11938391734 0.14488113244 0.15714727969 0.14729886448 0.1210883753 0.088886007423 0.072890435975 
0 
Torsion 1 64 double
0 0 0.074328490851 0.066453913865 0.076209814515 0.089431093219 0.037033026385 -0.41408867318 -1.2053274685 
-0.20487276765 0.0012098999323 0.054431582782 0.27705473698 0.82668864952 0.33049060995 0.044429393656 -0.0053060308334 0.0093922720785 
0.06527684349 0.14953148054 0.16235179591 0.071726170618 -0.0055605991049 -0.016244945075 -0.0024825888466 0.14654908665 0.8039744415 
0.7032933616 0.16773086964 0.056640102373 0.064979934774 0.12693634999 0.25418393691 0.4319398469 0.46529545658 0.28239914484 
0.11878934157 0.041200390017 0.028575312489 0.067886890783 0.15353759567 0.26127645974 0.29014375576 0.20653176826 0.14408946985 
0.18068611334 0.44179663545 1.0147337712 0.39844826406 0.069655924636 -0.028560409288 -0.02658310141 0.035553824912 0.13513650072 
0.2095555425 0.15030235004 0.027656683209 -0.025569416022 -0.019111196418 0.0073382370738 0.038727923952 0.090214437971 0 
0 
Abscissas 1 64 double
0 1.0475444566 2.0247440649 3.0405354162 4.0528417853 5.0659472346 6.079961307 7.0943849515 8.1089419372 
9.1233374669 10.1369519 11.145156981 12.157975938 13.172165557 14.186585201 15.200847325 16.2147938 17.228543558 
18.242384175 19.256485815 20.270680002 21.284700027 22.298038131 23.307317826 24.312848098 25.32547807 26.339702227 
27.354197433 28.36853191 29.382446452 30.395886997 31.409142906 32.422754833 33.436822357 34.451097211 35.465370391 
36.479507691 37.493506685 38.50741553 39.52130128 40.535299772 41.549454645 42.563713539 43.577973451 44.592220165 
45.606578465 46.621068288 47.635641894 48.650218732 49.664754513 50.679233568 51.693675803 52.708091459 53.722515377 
54.736960833 55.751399019 56.765780464 57.780024527 58.794131903 59.808082514 60.822852129 61.841030195 62.817905985 
63.865937912 
ParallelTransportNormals 3 64 double
0.33212466646 0 0.94323549866 0.31965132899 0.0085844445507 0.94749635102 0.31822905071 0.0091230170821 0.9479699583 
0.3397936954 0.0081542769073 0.94046464704 0.38241456498 0.021676075608 0.92373656864 0.42363113598 0.049692238092 0.90447075249 
0.45154146648 0.07773295626 0.8888576329 0.46044734953 0.088915044986 0.88322270866 0.44021349857 0.060386640505 0.89586021751 
0.35612504066 -0.061816377036 0.93239138292 0.12690264575 -0.37769458297 0.91719273901 -0.12421853277 -0.69286531865 0.71028684792 
-0.2165110957 -0.80440581762 0.55322167892 -0.23621726517 -0.83190032288 0.50213868247 -0.237581699 -0.83472664109 0.49677597663 
-0.23656461434 -0.82923039645 0.50637351119 -0.23758663704 -0.82186418364 0.51777587193 -0.24078013038 -0.81485893618 0.52728535249 
-0.24779377836 -0.80531297654 0.53858077688 -0.26479605902 -0.78744652684 0.55660669641 -0.30117298844 -0.75456903091 0.58302693645 
-0.37713579395 -0.69259846208 0.61487881997 -0.53919023936 -0.57392964837 0.61634296013 -0.76258448555 -0.43971941146 0.47445942038 
-0.86918521927 -0.40297328342 0.28658260143 -0.89561211376 -0.4079144381 0.1774394344 -0.90343108051 -0.4172845923 0.098416725226 
-0.90476329445 -0.42579286465 0.010189084195 -0.89840536416 -0.42558231011 -0.10838587999 -0.8785398518 -0.39936011369 -0.26206722113 
-0.84313540996 -0.33315102455 -0.4220581421 -0.8048924436 -0.24508267153 -0.5404467026 -0.78224430113 -0.17972384614 -0.59648402534 
-0.77854068549 -0.16480403068 -0.60556918061 -0.78374775863 -0.2040631205 -0.58659840921 -0.78334881873 -0.29128389442 -0.54910683938 
-0.76314368639 -0.41091730036 -0.49875714149 -0.71440827404 -0.54333330981 -0.44091919036 -0.63590114825 -0.67103300492 -0.38124065361 
-0.53452803671 -0.78013731544 -0.32506237407 -0.42234686566 -0.86376601309 -0.27482976494 -0.30784101175 -0.92364974364 -0.22826533369 
-0.19432156303 -0.96413283104 -0.18079550394 -0.086521237584 -0.98777288999 -0.12968729026 0.0032001915531 -0.99683575662 -0.079424385997 
0.061891481682 -0.99724264314 -0.040945759332 0.086744014752 -0.99597647272 -0.022502037514 0.080831752402 -0.99635402454 -0.027292591981 
0.050285352485 -0.99729771982 -0.053559699062 0.0026481753778 -0.99533624447 -0.096430014076 -0.054084932672 -0.98720882442 -0.14997852196 
-0.1131587911 -0.97129739891 -0.20922822677 -0.16984093907 -0.94766909809 -0.27032820042 -0.22248251601 -0.91699701035 -0.33108611127 
-0.27310046292 -0.87843705161 -0.39212814679 -0.32663634417 -0.82734537027 -0.45695550873 -0.38830458559 -0.75462780959 -0.52892004859 
-0.45761109087 -0.65195980207 -0.60459945915 -0.52381886087 -0.52497157831 -0.67083428875 -0.57551531465 -0.39391667716 -0.71666712918 
-0.6097561546 -0.27949271705 -0.74167462748 -0.62957512693 -0.19523716063 -0.75200904959 -0.64309660388 -0.12576459533 -0.75538733418 
-0.64309660388 -0.12576459533 -0.75538733418 
FrenetTangent 3 64 double
-0.79105245005 0.54869919959 0.27049068307 -0.79105245005 0.54869919959 0.27049068307 -0.89371408039 0.33571421991 0.29760898014 
-0.94358135321 0.042684846112 0.32837818715 -0.89273199842 -0.28329158515 0.35039328873 -0.77136806436 -0.52438269036 0.36057468483 
-0.65619461707 -0.65928356795 0.36708827489 -0.57959119698 -0.72772993564 0.36671949111 -0.5440910162 -0.76712831664 0.33982217687 
-0.55041769524 -0.79990294725 0.23915609076 -0.58684022139 -0.80879305678 -0.038371159118 -0.55424147166 -0.69552205696 -0.45723676511 
-0.43202438248 -0.52213211194 -0.73534549065 -0.32163294874 -0.44875688778 -0.83376825434 -0.21959276246 -0.45486130523 -0.86306443078 
-0.091584912615 -0.49486160076 -0.86413205002 0.07506548446 -0.54110443729 -0.83759844854 0.26100680492 -0.57254770154 -0.77721591417 
0.42851398141 -0.5832197856 -0.69009452209 0.55656620464 -0.58485034219 -0.59007129831 0.65311013651 -0.59028284343 -0.47435568337 
0.73692762315 -0.60119254267 -0.30903916399 0.80673915009 -0.5908576141 -0.0076956856259 0.75303252516 -0.4525471159 0.477643302 
0.48596037445 -0.16713967042 0.85785012971 0.23503569455 0.044029486754 0.97098899406 0.097781407652 0.1171622273 0.98828731086 
0.015029664653 0.095971134384 0.99527064186 -0.053536873799 -0.00178001223 0.99856428671 -0.12639249872 -0.16683340511 0.97785047487 
-0.20032345019 -0.37460576016 0.90528505995 -0.25089196497 -0.57779243756 0.77666538548 -0.25441439279 -0.73419519892 0.62946860654 
-0.20740712192 -0.83554015609 0.50877788211 -0.11857660739 -0.89404202216 0.43200515135 0.0042009181359 -0.91870539982 0.39492118281 
0.15380980782 -0.91072995925 0.38329294846 0.3195763312 -0.86834472729 0.37927352021 0.48658433604 -0.79146489246 0.36989053507 
0.6368654501 -0.68545056957 0.35293046786 0.75458558567 -0.56252451135 0.33788573221 0.83366078346 -0.43598066724 0.33901409399 
0.87637340469 -0.31252193726 0.36646922691 0.88636151178 -0.19436103254 0.42022263083 0.86906136075 -0.087762494754 0.48685736697 
0.83627841676 -0.0057729169027 0.54827464202 0.80235842961 0.040873041351 0.59544130267 0.77601293994 0.049536563889 0.62876867438 
0.75799449666 0.023415883442 0.65184050153 0.74295427061 -0.030574590442 0.66864351205 0.72331027231 -0.10364585409 0.68270036392 
0.69362407536 -0.18681339386 0.69569130939 0.65432834694 -0.27273969781 0.70531373985 0.6118089734 -0.35648891165 0.70611998693 
0.57404643879 -0.43732735443 0.69225390658 0.54417331348 -0.51931628765 0.65892791585 0.51625158317 -0.60872001516 0.60244854222 
0.47743922327 -0.70727326379 0.52136006599 0.41960103932 -0.80480578241 0.4197887807 0.34895025402 -0.88462036367 0.30932269945 
0.2805655948 -0.93771561971 0.20487157821 0.22778204747 -0.96636875633 0.11935981589 0.19030360044 -0.98062339178 0.046500571449 
0.19030360044 -0.98062339178 0.046500571449 
FrenetNormal 3 64 double
-0.54116626862 -0.83384322902 0.1088326198 -0.54116626862 -0.83384322902 0.1088326198 -0.31745581183 -0.94195857987 0.1092512762 
-0.015760531089 -0.99632240436 0.084221566285 0.31983762948 -0.94615645058 0.049918551554 0.57455413078 -0.81747494453 0.040277361764 
0.72209813397 -0.68984480244 0.051850105605 0.75658708952 -0.64772520655 -0.089599290026 0.26803372961 -0.54271665601 -0.79600034616 
-0.15898156631 -0.18079137291 -0.97058711152 -0.068346830395 0.096699466145 -0.99296421085 0.21251651746 0.41287645754 -0.88564652126 
0.51597737556 0.52563432988 -0.67636964684 0.88534596634 0.16968868367 -0.43286056707 0.95793882839 -0.26805944439 -0.10245650461 
0.94784520766 -0.30936340515 0.076705579172 0.94969955475 -0.21730671721 0.22549622249 0.91907850706 -0.098858475224 0.38147306554 
0.84362937067 -0.015215324941 0.53671033047 0.72111477624 -0.012643265052 0.69270024349 0.5525680661 -0.056840395275 0.83152733076 
0.3562984853 -0.043055552466 0.93337967022 0.095046639271 0.11689788057 0.98858536398 -0.30223201806 0.40691299389 0.86201950248 
-0.63821378108 0.6027192042 0.47897049024 -0.79777665623 0.57941224716 0.16683481236 -0.97827905062 0.1936995943 0.073827950587 
-0.7442781822 -0.66361915702 0.075230325939 -0.45232093215 -0.89148083512 -0.025839793986 -0.35931098177 -0.91111782297 -0.20189088899 
-0.27669819925 -0.86476618307 -0.41906748281 -0.12937723134 -0.77511468823 -0.61843249599 0.119332451 -0.66974439175 -0.7329407997 
0.48821957476 -0.53909731779 -0.68630585657 0.84522931175 -0.3192033124 -0.42859847865 0.98798465076 -0.057201294316 -0.14357695426 
0.98733914028 0.15688157558 -0.02344340672 0.94183890245 0.33501127966 -0.026588048497 0.8647885042 0.49645180741 -0.075342192169 
0.75523805789 0.64667903477 -0.10687236267 0.61422902675 0.7866863128 -0.062026993729 0.43197970513 0.8972216664 0.091579559399 
0.19517384759 0.92605676106 0.3229954249 -0.042854178434 0.86928420427 0.49245151193 -0.23108571137 0.79815153675 0.55637533948 
-0.38439782732 0.70688439905 0.59376153187 -0.53877307864 0.47884972389 0.69312806296 -0.5930503066 -0.28204335199 0.75415043688 
-0.30726024466 -0.86870890729 0.3885047959 -0.22604622638 -0.95172731637 0.20764926875 -0.283928898 -0.94586817832 0.15721886057 
-0.37876934541 -0.91607976386 0.13164972167 -0.44773667599 -0.89136715312 0.070685693848 -0.45465958328 -0.88897356991 -0.054869438968 
-0.37526240367 -0.89192513837 -0.25228491024 -0.26767357814 -0.85181997253 -0.45028167846 -0.24936218959 -0.77979490465 -0.57422853037 
-0.32988588731 -0.69423453616 -0.63969813988 -0.4265374619 -0.58305101363 -0.69146027297 -0.49140634887 -0.45377581198 -0.74337562024 
-0.51221798439 -0.32678504404 -0.79425705629 -0.48738654515 -0.21927600646 -0.84520553039 -0.40304443705 -0.12123123755 -0.90711530072 
-0.40304443705 -0.12123123755 -0.90711530072 
FrenetBinormal 3 64 double
0.28526319597 -0.060288123116 0.95655122771 0.28526319597 -0.060288123116 0.95655122771 0.31701253925 0.0031617034411 0.9484160762 
0.33076552955 0.074294484857 0.94078397838 0.31738536478 0.15663284714 0.93527144799 0.27364001916 0.23823834521 0.93186030648 
0.21905001585 0.2990975185 0.92873988015 0.30273754368 0.22552427269 0.92600690174 0.79506156106 -0.34201283177 0.50090352068 
0.81961284906 -0.57224973085 -0.027659052653 0.80681302997 -0.58008879022 -0.112025578 0.80476898604 -0.58803239629 -0.08102333008 
0.73967714636 -0.6716298154 0.042321510036 0.33573019849 -0.87739558143 0.34272762877 -0.18474907237 -0.84926163653 0.49459321971 
-0.30528947919 -0.81203834863 0.49738521716 -0.30403277577 -0.81239385682 0.49757440916 -0.29524590707 -0.81388950806 0.500413552 
-0.32352009626 -0.81217188794 0.48550136122 -0.41258640227 -0.81104267772 0.4147074096 -0.51779888173 -0.8051927311 0.28904841092 
-0.57444674916 -0.79794344789 0.18247516639 -0.58321358016 -0.79826196538 0.15046512733 -0.58446370573 -0.79348782177 0.1696444912 
-0.59709771738 -0.78025245367 0.18622680913 -0.55525726386 -0.81384448891 0.17130825666 -0.18278100404 -0.97403977314 0.13355757148 
0.66770060408 -0.74188891069 0.061455248055 0.89024691939 -0.45305491076 0.046921960173 0.92461914032 -0.37686990807 0.055213383685 
0.93984499884 -0.33443978991 0.069580206133 0.95933036746 -0.25564256137 0.11971686135 0.95970468525 -0.11135465686 0.25800592535 
0.84771689413 0.10605059878 0.51973968282 0.52108252583 0.31432166322 0.79352056892 0.15449492598 0.3907792219 0.90742653563 
-0.038780988817 0.38204595609 0.92332925998 -0.10397331563 0.36571146699 0.92490252056 -0.12400212465 0.35653741309 0.92601541356 
-0.15497701243 0.33460983647 0.92952589149 -0.23091837648 0.25434389984 0.93914103521 -0.34409770775 0.070100921119 0.93631331742 
-0.44031446122 -0.21153939118 0.87256762559 -0.46100627959 -0.4544983622 0.76217087909 -0.43741484344 -0.59603009059 0.67336200208 
-0.39099452683 -0.70730553498 0.58893306936 -0.2567966514 -0.87694488791 0.4062304068 0.21469804585 -0.9581219528 -0.18949161636 
0.57535683283 -0.4947691692 -0.65128180085 0.63001750398 -0.3054182537 -0.71400114495 0.62944946648 -0.30755637884 -0.71358422277 
0.61271479912 -0.35482195833 -0.70617416607 0.60941470557 -0.36204648262 -0.70536236153 0.64728235215 -0.28747460388 -0.7059631072 
0.72776975377 -0.11495361065 -0.67611896356 0.79512656883 0.068653679998 -0.60254494584 0.81933070325 0.1462185003 -0.5543621099 
0.81438755481 0.13342765505 -0.56477426591 0.80124950009 0.11108180813 -0.58792862705 0.79796837062 0.10739797315 -0.5930532479 
0.81173621546 0.11790229658 -0.57199944491 0.842952961 0.13434827795 -0.5209422672 0.89517580476 0.1538855111 -0.41830554389 
0.89517580476 0.1538855111 -0.41830554389 
