# vtk DataFile Version 4.2
vtk output
ASCII
DATASET POLYDATA
POINTS 64 float
0 0 0 -0.888553 0.414753 0.320251 -1.80507 0.674974 0.589601 
-2.8001 0.73777 0.822295 -3.76666 0.500271 0.999435 -4.62008 -0.0277528 1.14884 
-5.31431 -0.7505 1.30607 -5.88335 -1.56948 1.49264 -6.37668 -2.42942 1.70842 
-6.83583 -3.30309 1.94359 -7.29196 -4.17857 2.17791 -7.76555 -5.05423 2.37368 
-8.25895 -5.93594 2.46442 -8.73483 -6.82377 2.34671 -9.09395 -7.67311 1.92586 
-9.25117 -8.41542 1.25273 -9.22576 -9.05413 0.465097 -9.06903 -9.6316 -0.354175 
-8.81478 -10.1817 -1.16798 -8.48025 -10.7275 -1.95461 -8.06994 -11.2873 -2.69653 
-7.57418 -11.879 -3.34734 -6.96108 -12.5336 -3.84536 -6.22625 -13.1674 -3.5982 
-5.93699 -13.2744 -2.64563 -5.91896 -13.128 -1.64091 -6.0042 -12.9022 -0.654857 
-6.14302 -12.6544 0.318809 -6.31262 -12.4258 1.29281 -6.49791 -12.2666 2.27751 
-6.68479 -12.2475 3.27454 -6.8547 -12.4527 4.25287 -6.98786 -12.9142 5.14578 
-7.07763 -13.5745 5.91072 -7.12868 -14.3524 6.5599 -7.14523 -15.1938 7.12671 
-7.12642 -16.0677 7.64174 -7.06514 -16.9553 8.12945 -6.94858 -17.8411 8.61017 
-6.75654 -18.7077 9.10155 -6.46265 -19.5301 9.61779 -6.03861 -20.2706 10.1663 
-5.46857 -20.8803 10.7426 -4.766 -21.3192 11.3279 -3.97077 -21.5818 11.9003 
-3.124 -21.6951 12.4475 -2.25237 -21.6967 12.9667 -1.36911 -21.6215 13.4603 
-0.479497 -21.499 13.9325 0.414874 -21.3535 14.3889 1.31307 -21.2053 14.837 
2.21244 -21.0698 15.2866 3.10733 -20.9553 15.7508 3.98926 -20.8632 16.2439 
4.84825 -20.7891 16.7787 5.67571 -20.7269 17.3625 6.46728 -20.6755 17.9951 
7.2232 -20.6424 18.671 7.94547 -20.6428 19.3834 8.63533 -20.7039 20.1257 
9.28587 -20.8603 20.885 9.88319 -21.1809 21.6512 10.3738 -21.678 22.354 
10.734 -22.4208 22.9724 
LINES 1 65
64 0 1 2 3 4 5 6 7 8 9 10 11 12 13 14 15 16 17 18 19 20 21 22 23 24 25 26 27 28 29 30 31 32 33 34 35 36 37 38 39 40 41 42 43 44 45 46 47 48 49 50 51 52 53 54 55 56 57 58 59 60 61 62 63 

CELL_DATA 1
FIELD FieldData 2
Length 1 1 double
63.893999317 
Tortuosity 1 1 double
0.88771128889 
POINT_DATA 64
SCALARS MaximumInscribedSphereRadius float
LOOKUP_TABLE default
0.93 1.05964 1.17831 1.08912 0.88817 0.723263 0.758931 0.946981 1.12617 
1.30105 1.47675 1.33399 1.00406 1.15567 1.25513 1.24174 1.04685 0.93 
0.930384 0.973395 1.06969 1.35359 1.61643 1.33936 1.34605 1.49108 1.33143 
1.07036 1.1116 1.27361 1.43446 1.30086 1.12808 1.39062 1.35434 1.028 
1.05417 1.21109 1.24 1.24 1.24 1.24 1.25769 1.3749 1.49721 
1.42453 1.2478 1.0421 1.1182 1.43266 1.31893 0.996712 1.10771 1.28246 
1.34889 1.36096 1.33779 1.54627 1.83199 1.7981 1.68687 1.6678 1.61926 
1.55 
TEXTURE_COORDINATES TCoords 2 float
0 0 0.015873 0 0.031746 0 0.047619 0 0.0634921 
0 0.0793651 0 0.0952381 0 0.111111 0 0.126984 0 
0.142857 0 0.15873 0 0.174603 0 0.190476 0 0.206349 
0 0.222222 0 0.238095 0 0.253968 0 0.269841 0 
0.285714 0 0.301587 0 0.31746 0 0.333333 0 0.349206 
0 0.365079 0 0.380952 0 0.396825 0 0.412698 0 
0.428571 0 0.444444 0 0.460317 0 0.47619 0 0.492063 
0 0.507937 0 0.52381 0 0.539683 0 0.555556 0 
0.571429 0 0.587302 0 0.603175 0 0.619048 0 0.634921 
0 0.650794 0 0.666667 0 0.68254 0 0.698413 0 
0.714286 0 0.730159 0 0.746032 0 0.761905 0 0.777778 
0 0.793651 0 0.809524 0 0.825397 0 0.84127 0 
0.857143 0 0.873016 0 0.888889 0 0.904762 0 0.920635 
0 0.936508 0 0.952381 0 0.968254 0 0.984127 0 
1 0 
FIELD FieldData 7
Curvature 1 64 double
0 0.1574044955 0.21242697841 0.30294312928 0.3125983559 0.2483024693 0.1570341412 0.088483134099 0.0404532264 
0.0035189130952 0.041129218387 0.10430166811 0.20559926845 0.32670927441 0.34066517124 0.23571717792 0.14489200746 0.098785790461 
0.082610522246 0.086616401763 0.12603712111 0.19696115684 0.85314184181 1.2996679145 0.38153387665 0.12819151047 0.057568455136 
0.035257684275 0.06997592735 0.13730328858 0.22216117478 0.27009098729 0.23702134217 0.16584886842 0.1067665282 0.068689250297 
0.050864556099 0.054198265991 0.076485202343 0.11088978014 0.15359978976 0.19426889336 0.21273695363 0.19587360006 0.15638638906 
0.11484479255 0.079577890621 0.050843024674 0.027504593933 0.0092569845875 0.012476092138 0.025228427165 0.037698459321 0.049461510261 
0.057822543717 0.059831482423 0.057360801716 0.058237498156 0.072943640918 0.10192088034 0.16770817619 0.2128380577 0.28740119199 
0 
Torsion 1 64 double
0 0 0.10260587907 0.10657431597 0.13319048795 0.16027442941 0.19005499672 0.18672818347 0.1606366715 
-9.5143420921 0.24543748213 0.25675060017 0.19087440109 0.13449851536 0.13273987196 0.18837204781 0.27197946154 0.3398978669 
0.33848490867 0.29926602782 0.16293018134 0.14867831538 0.01467144136 0.0053131421328 0.020862915233 0.13981152315 0.51689086087 
1.3597888523 0.36241842117 0.091014248087 0.028346404763 0.013660230905 0.017622465879 0.047172751841 0.12654644699 0.30392225242 
0.53877484528 0.46057763565 0.22177252087 0.096532413198 0.04638962276 0.025600477706 0.016118228502 0.011222500184 0.0028264185935 
-0.015147907406 -0.047047973025 -0.10827467521 -0.2632839894 -1.5321760555 -0.86836877616 -0.37133731355 -0.27496814123 -0.1910581252 
-0.083832532894 0.050378218145 0.20622874378 0.34354113072 0.29191675699 0.19302891362 0.076366684489 0.046273291412 0 
0 
Abscissas 1 64 double
0 1.0315556744 2.0216431934 3.045445333 4.0563928095 5.0710170994 6.0854364824 7.100004142 8.1146063213 
9.1292158936 10.143815841 11.15840624 12.172848742 13.187028599 14.200662878 15.214987673 16.229363389 17.243879216 
18.258535964 19.272733339 20.288718439 21.298336233 22.324261067 23.325637617 24.326890781 25.34238155 26.35755093 
27.371803836 28.386536753 29.401094687 30.41565812 31.429604602 32.44350505 33.457982344 34.472523552 35.487107084 
36.501699179 37.516290422 38.530873709 39.545437682 40.559954507 41.574375559 42.588641195 43.602917672 44.61734525 
45.63186235 46.646427318 47.661016106 48.675616551 49.690221507 50.704826959 51.719430542 52.73403013 53.748624604 
54.763209726 55.7777917 56.792368247 57.806993896 58.821422211 59.836632913 60.84868269 61.871755694 62.862590451 
63.894027296 
ParallelTransportNormals 3 64 double
0.33906795277 0 0.94076188454 0.28696837264 0.019384029326 0.95774391802 0.22936385769 0.029224534381 0.97290192074 
0.17443953498 0.024279294635 0.98436851051 0.16117237159 0.018703308621 0.98674903237 0.18388301505 0.037057871165 0.98224933238 
0.21369231909 0.073437500861 0.97413681084 0.23521396488 0.10744920788 0.965986055 0.24692460806 0.1287639001 0.96044161507 
0.2467864653 0.12849990068 0.96051247575 0.2280999294 0.093303866709 0.96915675237 0.17775322053 0.0018055663097 0.98407343858 
0.081549690271 -0.17382653783 0.98139389786 -0.041345256663 -0.42950965353 0.90211530708 -0.11417120736 -0.65397680933 0.74784976317 
-0.12548848011 -0.77255034854 0.62242959468 -0.11806171423 -0.82214204138 0.55690564319 -0.11186365701 -0.8391474052 0.53227638928 
-0.11240607005 -0.83813782059 0.5337507556 -0.12221026792 -0.82358329001 0.55387292299 -0.15166240233 -0.78616290946 0.59912135291 
-0.21774182259 -0.71186115782 0.66771415342 -0.56986775687 -0.37570176504 0.73082071907 -0.95532865756 -0.096870348296 0.27921907468 
-0.99428900683 -0.10160594096 0.032643585246 -0.991210932 -0.11864999336 -0.058506985486 -0.98562890545 -0.13044962237 -0.10732453943 
-0.98071186999 -0.13804433961 -0.13837625653 -0.9766607619 -0.14247105478 -0.16073504505 -0.97311024925 -0.14417201896 -0.17964095232 
-0.96974365981 -0.14241528462 -0.19828040994 -0.96707047981 -0.1365352137 -0.21478552677 -0.96567775309 -0.12952797408 -0.22514213535 
-0.9654085766 -0.12677885355 -0.22784512837 -0.96562281145 -0.13191097654 -0.22399125046 -0.96560272587 -0.14712930992 -0.21439296155 
-0.96431277032 -0.17550273419 -0.19824144695 -0.95979670387 -0.22053641902 -0.17364899976 -0.94800711709 -0.28748381664 -0.13651212807 
-0.9213323717 -0.38020168636 -0.081199375232 -0.86740444071 -0.49760230548 -0.0012173005301 -0.77385783683 -0.62465712866 0.10463039706 
-0.64352711345 -0.73203979293 0.22358576838 -0.50279283821 -0.79795429948 0.33236771472 -0.37957345619 -0.82616352776 0.41638661933 
-0.28463868128 -0.83250850422 0.47530033823 -0.21686444493 -0.82966701194 0.51441467885 -0.17231381883 -0.82469879759 0.5386834331 
-0.1478634206 -0.82102500084 0.55141124113 -0.14144033461 -0.81997294057 0.55465215088 -0.1510679476 -0.82149236929 0.54984430742 
-0.17372583989 -0.82465003994 0.5383044159 -0.20506470599 -0.82829303753 0.52142028186 -0.24001419777 -0.83162945015 0.50078502624 
-0.27447026528 -0.834414763 0.47793103766 -0.30768398755 -0.83674466591 0.4529778448 -0.34221433232 -0.8386302192 0.42377907712 
-0.38179275431 -0.83950535929 0.38660709315 -0.43319722767 -0.83726552607 0.3336564113 -0.5002993756 -0.82637145198 0.25847777104 
-0.59940489016 -0.78857432901 0.13734738907 -0.70648443796 -0.70769025057 -0.0073653362899 -0.81788391539 -0.54649174098 -0.18003521317 
-0.81788391539 -0.54649174098 -0.18003521317 
FrenetTangent 3 64 double
-0.89567609727 0.33492223879 0.29256011817 -0.89567609727 0.33492223879 0.29256011817 -0.95453339883 0.16129895524 0.25069630541 
-0.97516499671 -0.086850084989 0.20374074686 -0.90942359874 -0.3825231896 0.16317085366 -0.76868493215 -0.62123141215 0.15229907301 
-0.62457255986 -0.7622444475 0.16997799779 -0.52407381763 -0.82822194236 0.19848185778 -0.46948253675 -0.85450552483 0.22227563006 
-0.45105286477 -0.86198665332 0.23136620901 -0.45827108698 -0.86315982228 0.21199700952 -0.47724210346 -0.86732080438 0.14140225239 
-0.48036552059 -0.87696654037 -0.013366140179 -0.41723764116 -0.86803924734 -0.26911078738 -0.25827514986 -0.79614850269 -0.54721248946 
-0.065429049191 -0.68552211333 -0.7251058348 0.09001404134 -0.601038423 -0.79413492962 0.20278921314 -0.5563748576 -0.80580615092 
0.29045708056 -0.54062993103 -0.78952768288 0.36724174889 -0.54511340646 -0.75364771078 0.44820856715 -0.56961594563 -0.68894611895 
0.54745028499 -0.61530529867 -0.56718389865 0.71643468757 -0.68479442426 -0.13333392272 0.5876559731 -0.4250948306 0.68844378294 
0.1550672487 0.019882403202 0.98770382121 -0.033167573797 0.18367705855 0.98242691851 -0.11045352548 0.23346790501 0.96607078211 
-0.15203102621 0.23483383178 0.96007272564 -0.17499370403 0.19122156516 0.96582167949 -0.18385647504 0.088082312755 0.97899862245 
-0.17698520654 -0.09231464432 0.97987460581 -0.15082258652 -0.33178244858 0.93122121658 -0.11068463595 -0.55697347473 0.82312177702 
-0.069648188094 -0.71131945127 0.6994095854 -0.033363454212 -0.7991955441 0.60014445112 0.0011145211421 -0.84582373231 0.53346131229 
0.039482544444 -0.86837855736 0.49432763407 0.087674806867 -0.87428255412 0.47743391563 0.15220033091 -0.8642777376 0.47943618091 
0.23986251909 -0.83371601973 0.49737668861 0.35491678415 -0.77263672134 0.52637113634 0.49235794019 -0.66874123479 0.55710754762 
0.63093224714 -0.51987347479 0.57589588446 0.74190577831 -0.34747411972 0.57344359115 0.81182045365 -0.18584870785 0.55354115369 
0.84831504994 -0.056721539974 0.5264449097 0.86553704434 0.036300958487 0.49952764216 0.87396938151 0.097459042 0.47610844912 
0.87925594987 0.13208654854 0.45767031619 0.88338344542 0.14473698707 0.44574083607 0.88585573489 0.13981022318 0.44239430202 
0.88430122549 0.12321252399 0.45036653575 0.87578071211 0.10183162419 0.47184580598 0.8582103737 0.081929950051 0.50671731542 
0.83146455388 0.067199076009 0.55149884843 0.79824041434 0.056008803609 0.59972931797 0.76294571151 0.041660003324 0.64511881495 
0.72882780849 0.016123609183 0.68450716198 0.69620979401 -0.030320116468 0.71719775045 0.66207464842 -0.10743189969 0.74169774628 
0.61538672289 -0.23523489003 0.75230560798 0.54327404757 -0.40833013423 0.73356650055 0.42504392218 -0.61942309938 0.66003991408 
0.42504392218 -0.61942309938 0.66003991408 
FrenetNormal 3 64 double
-0.40827646371 -0.88007802657 -0.24243142605 -0.40827646371 -0.88007802657 -0.24243142605 -0.2167270134 -0.95291638879 -0.21208431727 
0.051533794401 -0.98363506735 -0.17264507612 0.37227849031 -0.92369327928 -0.090550822519 0.63199221067 -0.77434554221 0.031222218288 
0.78007068353 -0.59847656111 0.18252543518 0.83314007511 -0.45020057499 0.32124298828 0.82106073106 -0.32993305531 0.46583629627 
0.83398608823 -0.49939175101 -0.23468081231 -0.41274563523 -0.0045702739626 -0.91083486604 -0.18571892236 -0.057728786243 -0.98090563721 
0.083117544237 -0.030346756233 -0.99607758143 0.35623020446 0.11620651385 -0.92714404899 0.59367354005 0.31605688867 -0.74004038469 
0.76364608195 0.4333468894 -0.47859704864 0.88535272091 0.41347250242 -0.21258186498 0.9611127103 0.27061945189 0.055022453233 
0.94758253496 0.047719393927 0.31592752156 0.84346006744 -0.1463610682 0.51686898955 0.6855339271 -0.2756060982 0.67385793268 
0.53676298021 -0.2617922733 0.80209120972 0.18630237052 0.0036139219307 0.98248580972 -0.45146993167 0.53381732981 0.71499227912 
-0.73015122334 0.67577539066 0.10102877037 -0.784831 0.60383000964 -0.13939017505 -0.90641476864 0.37506045216 -0.19427280924 
-0.84643637931 -0.53247635845 -0.0037925541331 -0.21853192163 -0.96403341611 0.15127250856 -0.011276191337 -0.99610040511 0.08750331682 
0.074697216025 -0.99397989602 -0.080151682563 0.13475970511 -0.94010368684 -0.31312119039 0.18078169544 -0.82567687417 -0.53439281251 
0.2284348334 -0.69385490497 -0.6829223219 0.31489958086 -0.57830024542 -0.75260021268 0.50067619421 -0.46131080536 -0.73247231307 
0.81162785635 -0.26069252559 -0.52278067092 0.99168430278 0.031276892691 -0.12483589067 0.96017637313 0.24429571652 0.13557630827 
0.89529126836 0.38807696453 0.21874600431 0.82855470948 0.52074862866 0.20571329359 0.7377009755 0.6603113946 0.1406631896 
0.61248746334 0.789386234 0.041575002492 0.46393601965 0.88348937747 -0.064883661798 0.32150414534 0.93362367382 -0.15805669938 
0.21092787984 0.94815245753 -0.23773166973 0.14149935462 0.93901449054 -0.31341620762 0.12191735967 0.90438726026 -0.40892522653 
0.16837594402 0.8125841387 -0.5579933324 0.39488036717 0.28235193263 -0.87426934166 0.096383178925 -0.98816972821 0.11929321468 
-0.17342440198 -0.80887939062 0.56181679241 -0.33419631222 -0.5774262265 0.74491058379 -0.4502864502 -0.3537274303 0.8198286515 
-0.53029076239 -0.2000775047 0.82386934609 -0.58344160233 -0.17554747975 0.79295584935 -0.60390641738 -0.31015465199 0.73423506515 
-0.56089016501 -0.55931791621 0.61038159491 -0.43868002873 -0.80880804906 0.39164955274 -0.35630403447 -0.91579052184 0.18540538051 
-0.3482086178 -0.9373805863 -0.0082701217124 -0.41768468744 -0.88940419863 -0.18574087687 -0.51380852535 -0.7654293829 -0.38745149254 
-0.51380852535 -0.7654293829 -0.38745149254 
FrenetBinormal 3 64 double
0.17628005548 -0.33658544401 0.9250057194 0.17628005548 -0.33658544401 0.9250057194 0.20468363924 -0.25677422575 0.94454836023 
0.2154007828 -0.15785790133 0.96368220164 0.18535761035 -0.021604055822 0.98243362171 0.09853588551 0.12025187658 0.98784116408 
-0.037401151912 0.24659523121 0.96839658497 -0.17670384522 0.33371822915 0.9259632253 -0.32472361109 0.4012037974 0.85649873868 
0.31783410425 0.087102746897 0.94413695705 0.78716494551 -0.50491012448 -0.35417102473 0.85892284669 -0.49439054354 -0.13352727775 
0.87312109153 -0.4795922867 0.087468840569 0.8360698489 -0.48270478682 0.26073606683 0.76213232107 -0.51599961703 0.39102265971 
0.64231121821 -0.58503837958 0.49514280099 0.4561228255 -0.68395416793 0.5693493341 0.18745370931 -0.78562849368 0.58961765304 
-0.13312409167 -0.83990602875 0.52615191636 -0.39205689958 -0.82548762063 0.40603149592 -0.57371797525 -0.77432483695 0.26696204177 
-0.64201533357 -0.74354838112 0.18695485123 -0.67231894603 -0.72872734 0.13016796359 -0.67144274371 -0.73098115119 0.12178340828 
-0.66545724088 -0.73683940681 0.11930779159 -0.61882163302 -0.77566233479 0.12412787313 -0.40769141013 -0.89711894114 0.1701920079 
0.51032540878 -0.81321706767 0.27972482552 0.96001093889 -0.18459113097 0.21048779439 0.98288841894 0.0050486755996 0.18413274228 
0.98137483287 0.059008243015 0.18281538413 0.97933261422 0.078265348706 0.18649977458 0.97727523756 0.089656276496 0.19208035331 
0.97106470268 0.11220520979 0.21081587728 0.94853841983 0.16387589337 0.27096043562 0.86563393325 0.26790773547 0.42296966662 
0.58283904423 0.42185078905 0.69450742278 0.094209191991 0.48440868235 0.86975448065 -0.23429979033 0.43970853435 0.86704095236 
-0.37539248359 0.39282803877 0.83950379107 -0.4330486921 0.36311618333 0.82499422281 -0.46193173682 0.34172214305 0.81844061939 
-0.47621802441 0.32649799967 0.8164652163 -0.48408592809 0.31417870078 0.81667163426 -0.48742449217 0.30627943692 0.81768592439 
-0.48566552847 0.31271326193 0.81629615353 -0.48044100316 0.34195617697 0.80761526454 -0.47043987671 0.41543401235 0.77852482541 
-0.44559905307 0.56767962904 0.69222924142 -0.25239489691 0.94832936826 0.19227122848 0.45383906816 -0.063037209194 -0.88885117453 
0.433515074 -0.57491982516 -0.69392497811 0.34831159786 -0.81006744982 -0.47166699856 0.24640833434 -0.93175339459 -0.26668060377 
0.16570577225 -0.9774729031 -0.13072230394 0.14969347874 -0.98287643998 -0.10745122685 0.2306748368 -0.94977288652 -0.21147241828 
0.39269867376 -0.82879641519 -0.3986028773 0.56820045328 -0.58729058421 -0.5764009148 0.65932131388 -0.38702210148 -0.64460010707 
0.70714209306 -0.25686997282 -0.65876238302 0.72828072274 -0.20549129653 -0.6537434634 0.74521034849 -0.17445023289 -0.64360597632 
0.74521034849 -0.17445023289 -0.64360597632 
