# vtk DataFile Version 4.2
vtk output
ASCII
DATASET POLYDATA
POINTS 64 float
0 0 0 -0.539411 0.0497539 0.701926 -1.34396 0.104739 1.59493 
-2.08403 0.109717 2.18061 -2.94411 0.0564307 2.73561 -3.84964 -0.0923126 3.18185 
-4.76273 -0.36201 3.52448 -5.65753 -0.759103 3.79761 -6.50491 -1.27101 4.02177 
-7.29912 -1.87027 4.22171 -8.04494 -2.5312 4.41371 -8.75061 -3.23455 4.60586 
-9.42375 -3.96845 4.8003 -10.0685 -4.72749 4.99438 -10.6847 -5.51157 5.18178 
-11.2663 -6.32533 5.35273 -11.7995 -7.17725 5.49385 -12.2601 -8.07706 5.58801 
-12.6141 -9.0282 5.61647 -12.8246 -10.0207 5.56363 -12.8668 -11.0258 5.42417 
-12.7467 -12.0103 5.2054 -12.494 -12.9514 4.91984 -12.1496 -13.8432 4.57887 
-11.7486 -14.6903 4.18996 -11.3188 -15.5024 3.75915 -10.8814 -16.2907 3.29356 
-10.4522 -17.068 2.80315 -10.043 -17.8504 2.30084 -9.66614 -18.6535 1.81218 
-9.33438 -19.5048 1.37435 -9.06696 -20.4517 1.0595 -8.95824 -21.4448 1.15974 
-9.06044 -22.2648 1.7723 -9.32587 -22.6832 2.66178 -9.67446 -22.8358 3.61034 
-10.0745 -22.8046 4.54006 -10.516 -22.6086 5.43432 -10.9801 -22.2626 6.2689 
-11.4435 -21.7752 7.02947 -11.8768 -21.1591 7.71049 -12.2462 -20.4338 8.31749 
-12.5157 -19.6255 8.86979 -12.6469 -18.7663 9.39516 -12.5935 -17.9018 9.92717 
-12.309 -17.1094 10.499 -11.774 -16.515 11.1298 -11.0666 -16.2273 11.8013 
-10.309 -16.2696 12.4818 -9.60638 -16.575 13.1498 -9.00356 -17.0706 13.8004 
-8.51885 -17.7046 14.4289 -8.1594 -18.4438 15.0253 -7.92777 -19.2666 15.5736 
-7.82442 -20.1577 16.0498 -7.84358 -21.103 16.4208 -7.96746 -22.0858 16.6461 
-8.16029 -23.0834 16.6844 -8.37057 -24.0609 16.5196 -8.53388 -24.9966 16.1467 
-8.60183 -25.8639 15.6045 -8.57816 -26.5995 15.0094 -8.33974 -27.3996 14.1447 
-8.09272 -27.9394 13.4853 
LINES 1 65
64 0 1 2 3 4 5 6 7 8 9 10 11 12 13 14 15 16 17 18 19 20 21 22 23 24 25 26 27 28 29 30 31 32 33 34 35 36 37 38 39 40 41 42 43 44 45 46 47 48 49 50 51 52 53 54 55 56 57 58 59 60 61 62 63 

CELL_DATA 1
FIELD FieldData 2
Length 1 1 double
64.003255821 
Tortuosity 1 1 double
0.99624991823 
POINT_DATA 64
SCALARS MaximumInscribedSphereRadius float
LOOKUP_TABLE default
1.24 1.14699 1.04721 0.962495 0.93338 0.93 0.93 0.93 0.93 
1.00169 1.09889 1.20047 1.22973 1.24 1.24 1.24 1.24 1.24 
1.24 1.24 1.29246 1.37885 1.4897 1.53514 1.55 1.55 1.55 
1.55 1.55 1.55 1.55 1.58726 1.69365 1.85413 1.85885 1.88857 
1.95496 2.06585 2.11389 2.0684 1.97493 1.89129 1.87524 1.85964 1.82102 
1.69388 1.52208 1.30669 1.06075 0.95992 0.93 0.947831 1.00137 1.10542 
1.21352 1.32408 1.43829 1.55499 1.67118 1.78549 1.89313 1.99265 2.08501 
2.17 
TEXTURE_COORDINATES TCoords 2 float
0 0 0.015873 0 0.031746 0 0.047619 0 0.0634921 
0 0.0793651 0 0.0952381 0 0.111111 0 0.126984 0 
0.142857 0 0.15873 0 0.174603 0 0.190476 0 0.206349 
0 0.222222 0 0.238095 0 0.253968 0 0.269841 0 
0.285714 0 0.301587 0 0.31746 0 0.333333 0 0.349206 
0 0.365079 0 0.380952 0 0.396825 0 0.412698 0 
0.428571 0 0.444444 0 0.460317 0 0.47619 0 0.492063 
0 0.507937 0 0.52381 0 0.539683 0 0.555556 0 
0.571429 0 0.587302 0 0.603175 0 0.619048 0 0.634921 
0 0.650794 0 0.666667 0 0.68254 0 0.698413 0 
0.714286 0 0.730159 0 0.746032 0 0.761905 0 0.777778 
0 0.793651 0 0.809524 0 0.825397 0 0.84127 0 
0.857143 0 0.873016 0 0.888889 0 0.904762 0 0.920635 
0 0.936508 0 0.952381 0 0.968254 0 0.984127 0 
1 0 
FIELD FieldData 7
Curvature 1 64 double
0 0.075419210471 0.16187672229 0.11418569975 0.14575538203 0.15515049766 0.14290497825 0.12998436946 0.10229411087 
0.076617786868 0.056766369253 0.043423466101 0.036848077871 0.037464167495 0.047094544449 0.066564877897 0.096158776571 0.13188253014 
0.16601036582 0.18547041325 0.17768548681 0.15086466105 0.11482166437 0.084239715958 0.059998839696 0.041607615264 0.027558928078 
0.02308072593 0.039514618855 0.081329805197 0.16095519448 0.45140110318 0.61122465988 0.52414091909 0.27899824636 0.18674801161 
0.16987116023 0.15892765619 0.15573146152 0.15050432699 0.14291535238 0.13735401087 0.14606771527 0.18049539378 0.24064569984 
0.32139777603 0.35262211101 0.33106471031 0.26433040174 0.21103784784 0.17903968037 0.16268347469 0.15623792399 0.15830226416 
0.16629402736 0.17911314882 0.19536900294 0.20081843187 0.21254689974 0.19889860564 0.15487784143 0.21226536579 0.097174490228 
0 
Torsion 1 64 double
0 0 0.11900509871 0.31284792844 0.18122111677 0.22505910821 0.22054922405 0.16557058023 0.16404604631 
0.14324397129 0.10126278446 0.015359786938 -0.11151428142 -0.18049410845 -0.13177778842 -0.056316342164 -0.010856896633 0.0078767771289 
0.012251237533 0.0035436638254 -0.017530211767 -0.05444954982 -0.11154437536 -0.17618992884 -0.2573198364 -0.37745508101 -0.68995499595 
-1.133674878 -0.60393180408 -0.28228407521 -0.26139226141 -0.050731940366 -0.0087101194109 0.02366937858 0.088250575904 0.069428020097 
-0.00055396053206 -0.049208679249 -0.10607884869 -0.16776131512 -0.25074932393 -0.34130398335 -0.37539082497 -0.31999671846 -0.24781152949 
-0.18478685646 -0.1655293231 -0.16283615272 -0.17343128183 -0.14268355277 -0.085505263976 -0.015971025294 0.048474564443 0.10876238358 
0.16488455384 0.21095380118 0.21947783562 0.25113158859 0.23182196201 0.17455596322 0.26224526904 0.10140044517 0 
0 
Abscissas 1 64 double
0 0.8866446974 2.0898833477 3.033673852 4.0586636697 5.0790761872 6.0909343488 7.107280197 8.1223434211 
9.137160044 10.152020018 11.166712594 12.181369159 13.196034839 14.210715176 15.225416292 16.24030977 17.255556564 
18.270835096 19.286768791 20.302351974 21.317997944 22.333443078 23.348372688 24.363154944 25.377937885 26.392576466 
27.406866152 28.422754463 29.435520089 30.448713162 31.481822587 32.485803169 33.514448612 34.53263417 35.554670707 
36.56729591 37.583687723 38.599355337 39.614614763 40.630104661 41.645450067 42.660825183 43.676443264 44.692901195 
45.710650903 46.729258086 47.746113956 48.765385431 49.781818808 50.797879928 51.813638262 52.829191088 53.844737794 
54.860389043 55.876045276 56.891940324 57.908755494 58.922068813 59.942468506 60.967569387 61.914006322 63.116018796 
64.003272582 
ParallelTransportNormals 3 64 double
0 -0.99749729171 0.070704688846 0.0044071948714 -0.99784865968 0.065411230019 0.027733091184 -0.99866705168 0.043531546489 
0.070247528044 -0.99744360803 0.013097083479 0.14731502431 -0.98861636846 -0.030593457092 0.25555396979 -0.96368204992 -0.077518224888 
0.37266065035 -0.92050971245 -0.11741341053 0.4822184101 -0.86334135639 -0.14868459001 0.56584141022 -0.80673751449 -0.17028822978 
0.62460823289 -0.75864951258 -0.18524435883 0.6649829189 -0.72070054106 -0.19592970086 0.69392571986 -0.69053086732 -0.20404464364 
0.71768107613 -0.66362089661 -0.21104781103 0.74131067953 -0.6347036739 -0.21819652322 0.76929272457 -0.59737378952 -0.22656844334 
0.80545835579 -0.54333534414 -0.23669292532 0.85165366944 -0.46191550095 -0.24762895089 0.90357531965 -0.34394767198 -0.25544400691 
0.94894650008 -0.18773592128 -0.25348720648 0.97167551487 -0.008003184082 -0.23618349403 0.96496283442 0.16336100538 -0.2053287854 
0.93792671451 0.30301139522 -0.16875299278 0.9058433255 0.40149642128 -0.1350869844 0.87842519737 0.46546039169 -0.10823953253 
0.8597633112 0.50273069662 -0.089827030357 0.85066396711 0.51952205133 -0.080421721192 0.85038487037 0.5200262988 -0.080113799067 
0.85796027049 0.50593306219 -0.089083729438 0.87305424152 0.47548720709 -0.10811201253 0.89650580974 0.42073631806 -0.13877421868 
0.92934965319 0.32231918548 -0.18005433845 0.97487891667 0.085992798747 -0.20546614415 0.97627861458 -0.19379761745 -0.09655335405 
0.9264683618 -0.36093470118 0.10668887511 0.87642622223 -0.40752405823 0.25651748274 0.83064110983 -0.41489426966 0.37134632307 
0.78296756494 -0.40203831873 0.47468619374 0.73601856502 -0.3739406285 0.56430938173 0.69342274334 -0.33566842796 0.63756694197 
0.66145480566 -0.29632401273 0.68896271274 0.64538349614 -0.26946608502 0.71475042633 0.64632563744 -0.27172746411 0.71304092144 
0.65733632771 -0.31755379944 0.68342412654 0.66205570898 -0.42199774517 0.61935461674 0.62761760938 -0.59098925601 0.50678184229 
0.50430865887 -0.79970696821 0.32579371017 0.29043967204 -0.9514801557 0.10163813366 0.0514626522 -0.99157166792 -0.11890005386 
-0.13494312622 -0.94714252669 -0.29105220637 -0.26199205973 -0.8691816066 -0.41938466279 -0.34724247409 -0.78063156668 -0.5196508648 
-0.40586848807 -0.68526499378 -0.60471700712 -0.44572993591 -0.57992458727 -0.68191810162 -0.46959502101 -0.45781851367 -0.75490577212 
-0.47624032059 -0.31287316794 -0.82176975962 -0.46356964106 -0.14205673574 -0.87459880615 -0.43300220288 0.049102866666 -0.90005444324 
-0.39510503866 0.23476451495 -0.88813153922 -0.36304546611 0.39888456991 -0.84207427786 -0.3479489025 0.51648206227 -0.78241794497 
-0.34625113412 0.58325392869 -0.73479589465 -0.35435876681 0.63562842311 -0.68586177334 -0.36019909839 0.65123527846 -0.6679440258 
-0.36019909839 0.65123527846 -0.6679440258 
FrenetTangent 3 64 double
-0.64356627575 0.050155129368 0.76374531862 -0.64356627575 0.050155129368 0.76374531862 -0.72207239373 0.028031313153 0.6912493788 
-0.81403695573 -0.024575662321 0.58029291873 -0.86559117405 -0.099045108979 0.49085841727 -0.89762851518 -0.20653257133 0.38936787967 
-0.89369978655 -0.32961654832 0.30439057573 -0.85948267758 -0.44844381497 0.24533175855 -0.80979863986 -0.54814020029 0.20920918649 
-0.75932787307 -0.62134978402 0.19325016709 -0.71547532461 -0.67248716488 0.18935699866 -0.67959970495 -0.70840421787 0.19054580847 
-0.64954159776 -0.73581799584 0.19148783194 -0.62147136938 -0.76054147638 0.18801595611 -0.5903839747 -0.78755930039 0.17662703868 
-0.54957919786 -0.82115416988 0.15384581427 -0.49011286198 -0.86390143451 0.11603315891 -0.40207551855 -0.91360396067 0.060523387468 
-0.27888887386 -0.96024784356 -0.012044707269 -0.12493308855 -0.98759966011 -0.095071734724 0.038505378283 -0.98344463324 -0.17707057689 
0.18408435572 -0.95083949934 -0.2490325209 0.29457832249 -0.90425789321 -0.30909751614 0.36758411465 -0.85751504851 -0.35993035469 
0.4095486226 -0.81791442244 -0.40408652946 0.42740205574 -0.78876236837 -0.4417934008 0.42714871093 -0.77168724023 -0.47121415727 
0.41299626421 -0.76830911867 -0.48901450277 0.3875596793 -0.78171532677 -0.48858841869 0.35006647815 -0.81729259436 -0.45769670752 
0.29380470176 -0.88173910788 -0.36907308606 0.1892297148 -0.97597917437 -0.10796650512 0.0033468311177 -0.93065695622 0.36587761418 
-0.18556490795 -0.62509545235 0.75816973059 -0.30393119357 -0.28263726472 0.90980327883 -0.36958163044 -0.059931850899 0.92726349637 
-0.41628187189 0.11238815168 0.90226288104 -0.44709320651 0.26758452371 0.85352573913 -0.45809769552 0.41162161335 0.78785414182 
-0.44285033266 0.54498221905 0.71195362475 -0.39629597116 0.66225419891 0.63590005447 -0.31537299127 0.75701267847 0.57225141417 
-0.19783187753 0.82326951999 0.53206188145 -0.038444881397 0.85176861672 0.52250570778 0.16732738674 0.82049328884 0.54661897938 
0.40766019279 0.68986392761 0.59824821654 0.61983457739 0.44008007108 0.6497188836 0.72937492768 0.12217624967 0.67311602186 
0.72366262897 -0.17231491727 0.66829631805 0.64593449932 -0.39633682018 0.6524459729 0.53743309694 -0.55822240062 0.63210237917 
0.41696890806 -0.67828542736 0.60503372529 0.29192940398 -0.771458455 0.56535747568 0.1654496566 -0.8465105171 0.50601023267 
0.04159284659 -0.90724325952 0.41854474452 -0.070697676089 -0.95296461802 0.29472067353 -0.15656903616 -0.97903235521 0.13031417566 
-0.19958099034 -0.97787775101 -0.062630123583 -0.18475072841 -0.94612909082 -0.26590771304 -0.11363449083 -0.88594443118 -0.44965505375 
-0.022524232575 -0.81535868794 -0.57851782077 0.12276060264 -0.71930876062 -0.68375780898 0.23264749634 -0.64214732849 -0.73042586959 
0.23264749634 -0.64214732849 -0.73042586959 
FrenetNormal 3 64 double
-0.76222311792 -0.1326818967 -0.63357038504 -0.76222311792 -0.1326818967 -0.63357038504 -0.67704102085 -0.23403987581 -0.69773977428 
-0.48868657456 -0.51097386825 -0.70717122242 -0.3259900981 -0.63262297336 -0.70250881099 -0.095831105422 -0.77082765895 -0.62979450572 
0.15255494688 -0.86125822808 -0.48472801936 0.34689654785 -0.86421620406 -0.36440792764 0.50407522134 -0.83247622008 -0.22998155193 
0.61455440532 -0.78239801798 -0.10087727377 0.68531340482 -0.72824156155 0.0031249317783 0.72753963214 -0.68413981587 0.051369212716 
0.74843787044 -0.66313775918 -0.0094375016915 0.74116561583 -0.64852264844 -0.17347018297 0.71445889932 -0.61174422223 -0.33958428667 
0.70802572471 -0.55554518223 -0.43596917742 0.73620946738 -0.48153814605 -0.47551722791 0.78786362663 -0.37889995449 -0.48549534531 
0.84504771847 -0.23943402609 -0.4780854533 0.88695445543 -0.068228237024 -0.4567895595 0.89267199639 0.11348703132 -0.43618505314 
0.85749698806 0.27919521408 -0.43214459144 0.77862554295 0.41464120583 -0.47097232858 0.65471633266 0.51347790317 -0.55469538191 
0.46592208023 0.56834099902 -0.67816305118 0.17905423598 0.55284945357 -0.8138163566 -0.28468732743 0.37986101685 -0.88014699538 
-0.86675075772 -0.16673810323 -0.47004417763 -0.76696312866 -0.56747761937 0.29956086326 -0.54278184326 -0.57520740401 0.61198391564 
-0.419600433 -0.46589434461 0.77902370714 -0.34335943423 -0.16877983871 0.9239143169 -0.36387815797 0.33966365814 0.8673069154 
-0.32128294013 0.76775952686 0.55436682918 -0.28795905682 0.93756548765 0.19506547098 -0.28685258579 0.95653464458 -0.052507787531 
-0.22980816621 0.94710684434 -0.22400185748 -0.140551145 0.92133754216 -0.36246725237 0.0031614409941 0.88707183453 -0.46162058628 
0.19561617236 0.83366253506 -0.51646983527 0.43572422287 0.74530318238 -0.50464598278 0.70892070831 0.58881712898 -0.38823423078 
0.9234572984 0.33857919437 -0.18052907568 0.99913862465 0.024592487632 0.033424815255 0.94110324819 -0.29815682955 0.15945902681 
0.77046703078 -0.6115006866 0.18013179833 0.48968583672 -0.8638802411 0.11797758414 0.14519704367 -0.98915350749 0.022207141384 
-0.19679880959 -0.97964822556 -0.03949155233 -0.46181520619 -0.88341211212 -0.079433969393 -0.64386360268 -0.75568334645 -0.11992639844 
-0.7506880733 -0.63229433339 -0.19149750018 -0.79821837013 -0.52215477781 -0.30033618097 -0.79083615633 -0.42043097945 -0.44476506759 
-0.7192402446 -0.31795765816 -0.61773489311 -0.57121655381 -0.20354065502 -0.79516215353 -0.34428355353 -0.069565681846 -0.9362849196 
-0.08857038244 0.081657408426 -0.99271715761 0.22222523428 0.22334046966 -0.9490705874 0.46563275374 0.35231304376 -0.81182612537 
0.60135127337 0.45122812392 -0.65937078052 0.76821959289 0.50505637414 -0.39339130144 0.79236711131 0.56063635907 -0.24050204533 
0.79236711131 0.56063635907 -0.24050204533 
FrenetBinormal 3 64 double
0.069558372844 -0.98988887118 0.1236189932 0.069558372844 -0.98988887118 0.1236189932 0.14222135666 -0.9718228141 0.18797208223 
0.31389371856 -0.85924486777 0.40394181593 0.38010837318 -0.76810041008 0.51530513745 0.43020860983 -0.60263506136 0.67212464234 
0.42193326451 -0.38676503932 0.81999092962 0.37543616238 -0.22809756126 0.8983424684 0.30022380671 -0.080781580962 0.95044200352 
0.21387861997 0.042163815782 0.9759498699 0.13579615988 0.13200470106 0.98190333631 0.093969807367 0.17354012921 0.98033336109 
0.13392709536 0.13718669522 0.98144961347 0.25386387487 0.031544209736 0.9667254501 0.37549333364 -0.074292361263 0.92384273632 
0.4434662089 -0.13067279668 0.88671435185 0.46667440755 -0.14763239938 0.87202045389 0.46648277912 -0.14752161717 0.87214172544 
0.45619661281 -0.14351106607 0.87823073527 0.44463863686 -0.14139242919 0.88447988309 0.44905906372 -0.1412704749 0.88226334516 
0.48042883495 -0.1339935779 0.86673747792 0.55404501242 -0.10193298284 0.82622260392 0.66047592114 -0.031755070972 0.75017542819 
0.78433828217 0.089467907112 0.61384766247 0.88615295707 0.26872180396 0.37752023621 0.8581940948 0.51010235359 -0.057432434356 
0.2796018772 0.61798018019 -0.7347947245 -0.5114343108 0.25863159013 -0.81947827691 -0.76344045708 0.03419440853 -0.64497241098 
-0.8588447321 -0.074017601219 -0.50686006043 -0.91994370152 -0.13776072458 -0.36704981788 -0.93144054286 -0.13603760206 -0.33750894203 
-0.92862421749 -0.14071597054 -0.34330173073 -0.90813292594 -0.20269961265 -0.36634335788 -0.88381277003 -0.28539384536 -0.37070923991 
-0.87971450476 -0.30059529067 -0.368435695 -0.88337593375 -0.28202066604 -0.37431444481 -0.88889622941 -0.2089765724 -0.4076668806 
-0.87499594055 -0.089449195384 -0.47579506667 -0.80814225533 0.077087887225 -0.58392084463 -0.63084966966 0.28324228719 -0.72235898349 
-0.32876916866 0.45562202163 -0.8272360045 0.015620493497 0.5233406473 -0.85198037951 0.29381324321 0.48774303477 -0.82205870238 
0.49009562506 0.38749796343 -0.78080189974 0.61319888942 0.24503154914 -0.75096382199 0.66852825922 0.081537124278 -0.73920339825 
0.6615002857 -0.10294135926 -0.74284618097 0.60786128181 -0.25000033026 -0.75366073067 0.54461484323 -0.3425352994 -0.76554832715 
0.51244935976 -0.37434309797 -0.77282785838 0.52690099325 -0.36360176047 -0.76822464364 0.58924068509 -0.32658495977 -0.73901128482 
0.69351532475 -0.27534087179 -0.66575062799 0.81774903684 -0.22456544384 -0.52995931371 0.92571862447 -0.1914582549 -0.32617290651 
0.97587023505 -0.19258029944 -0.10290827283 0.9573312455 -0.23443288616 0.16899144441 0.87765217549 -0.30162556931 0.37248983181 
0.79866720539 -0.362744249 0.48015341804 0.62830604927 -0.47698319241 0.6145881081 0.563941046 -0.5228132376 0.639247069 
0.563941046 -0.5228132376 0.639247069 
