# vtk DataFile Version 4.2
vtk output
ASCII
DATASET POLYDATA
POINTS 64 float
0 0 0 -0.8673 0.509284 0.286714 -1.74535 0.885537 0.51085 
-2.69425 1.17316 0.731008 -3.67201 1.33165 0.951622 -4.66118 1.3335 1.17432 
-5.63635 1.16219 1.39283 -6.56945 0.829087 1.60909 -7.44274 0.371386 1.84698 
-8.25074 -0.166945 2.14062 -9.00059 -0.746093 2.50314 -9.71672 -1.33996 2.90796 
-10.4366 -1.94321 3.29144 -11.1944 -2.57312 3.52883 -11.9212 -3.2405 3.33528 
-12.3039 -3.85649 2.63403 -12.2728 -4.45571 1.81959 -11.8758 -5.14214 1.19534 
-11.2168 -5.87998 0.995109 -10.4938 -6.5763 1.13637 -9.77943 -7.2534 1.38314 
-9.08449 -7.97945 1.51825 -8.55026 -8.74103 1.15753 -8.4261 -9.24625 0.293523 
-8.57309 -9.52027 -0.673911 -8.83886 -9.68547 -1.63211 -9.11257 -9.75612 -1.35184 
-8.95637 -9.5767 -0.333283 -8.87323 -9.33406 0.658143 -8.93048 -9.06426 1.63266 
-9.21226 -8.8504 2.58156 -9.78464 -8.87416 3.41278 -10.485 -9.26396 4.02928 
-11.0909 -9.92779 4.49665 -11.513 -10.7519 4.90868 -11.722 -11.6609 5.30529 
-11.7231 -12.5987 5.69026 -11.5604 -13.5302 6.05688 -11.3075 -14.4489 6.4054 
-11.0325 -15.3648 6.7444 -10.7663 -16.2826 7.0852 -10.5018 -17.1941 7.44394 
-10.2013 -18.0736 7.85031 -9.79997 -18.8549 8.35578 -9.24837 -19.3996 9.00547 
-8.60182 -19.5891 9.76019 -7.95276 -19.5023 10.5342 -7.30766 -19.2969 11.2898 
-6.6313 -19.0727 12.012 -5.89686 -18.8638 12.6798 -5.10154 -18.6582 13.275 
-4.25782 -18.439 13.7938 -3.38074 -18.2106 14.2497 -2.48407 -17.9909 14.6706 
-1.58424 -17.7946 15.0962 -0.703227 -17.629 15.5711 0.137602 -17.5016 16.124 
0.933727 -17.4291 16.7484 1.70153 -17.4404 17.4112 2.46305 -17.5774 18.0667 
3.21679 -17.8864 18.6708 3.91436 -18.4 19.1986 4.4639 -19.0877 19.6343 
4.81066 -19.9965 20.0144 
LINES 1 65
64 0 1 2 3 4 5 6 7 8 9 10 11 12 13 14 15 16 17 18 19 20 21 22 23 24 25 26 27 28 29 30 31 32 33 34 35 36 37 38 39 40 41 42 43 44 45 46 47 48 49 50 51 52 53 54 55 56 57 58 59 60 61 62 63 

CELL_DATA 1
FIELD FieldData 2
Length 1 1 double
63.250962962 
Tortuosity 1 1 double
1.2040152336 
POINT_DATA 64
SCALARS MaximumInscribedSphereRadius float
LOOKUP_TABLE default
1.55 1.36478 1.18542 1.01281 1.03227 1.21581 1.40188 1.53042 1.43558 
1.38979 1.39297 1.4486 1.49322 1.19931 0.988601 1.11757 1.20724 1.24 
1.24 1.24 1.36357 2.01085 2.26402 1.88 2.05916 2.16849 1.84495 
1.66042 1.60573 1.72633 1.90614 2.14422 2.52426 2.71745 2.55976 2.58128 
2.73086 2.63833 2.45761 2.27979 2.11069 1.95341 1.98173 2.17259 2.47038 
2.50032 2.23089 2.17 2.0604 1.69565 1.66497 1.83448 1.86 1.80826 
1.66404 1.77044 2.13007 1.94117 1.67976 1.5896 1.62156 1.75186 1.55373 
1.24 
TEXTURE_COORDINATES TCoords 2 float
0 0 0.015873 0 0.031746 0 0.047619 0 0.0634921 
0 0.0793651 0 0.0952381 0 0.111111 0 0.126984 0 
0.142857 0 0.15873 0 0.174603 0 0.190476 0 0.206349 
0 0.222222 0 0.238095 0 0.253968 0 0.269841 0 
0.285714 0 0.301587 0 0.31746 0 0.333333 0 0.349206 
0 0.365079 0 0.380952 0 0.396825 0 0.412698 0 
0.428571 0 0.444444 0 0.460317 0 0.47619 0 0.492063 
0 0.507937 0 0.52381 0 0.539683 0 0.555556 0 
0.571429 0 0.587302 0 0.603175 0 0.619048 0 0.634921 
0 0.650794 0 0.666667 0 0.68254 0 0.698413 0 
0.714286 0 0.730159 0 0.746032 0 0.761905 0 0.777778 
0 0.793651 0 0.809524 0 0.825397 0 0.84127 0 
0.857143 0 0.873016 0 0.888889 0 0.904762 0 0.920635 
0 0.936508 0 0.952381 0 0.968254 0 0.984127 0 
1 0 
FIELD FieldData 7
Curvature 1 64 double
0 0.12958923067 0.10885146694 0.12892193856 0.15357098619 0.17028416356 0.16371129761 0.13665755321 0.11486934398 
0.096394509466 0.054510860996 0.022942303884 0.14990347389 0.44598860289 0.66921912519 0.44059077993 0.43163650345 0.52421522692 
0.352508015 0.10488921142 0.12042006556 0.55334846126 0.7889907348 0.37453316208 0.15832669093 4.8527711767 1.5510317867 
0.091629111586 0.13909216233 0.23002430792 0.39992604075 0.45615514594 0.32667860872 0.24734380446 0.22673617693 0.20681282832 
0.16150027273 0.090455295859 0.023535850951 0.0089184124057 0.018546498557 0.06588711151 0.1686649403 0.31515078263 0.38751357988 
0.27517603138 0.11715748599 0.048079464036 0.078865687187 0.092332350385 0.089054103858 0.069844591312 0.039886531994 0.023390578926 
0.059368838511 0.093205192289 0.098032008202 0.09393089746 0.12303301657 0.17609486928 0.22191120811 0.24886946107 0.29754852559 
0 
Torsion 1 64 double
0 0 0.25209059897 0.08349288208 0.015749553868 0.021493086669 0.10920922372 0.27567889302 0.35612791327 
0.23488012005 -0.029392424346 -1.5921221754 0.17503522728 0.17765899251 0.24349041415 0.61908706636 0.47685784546 0.16380671173 
0.10469887679 0.41412652167 0.37384120434 0.021982047437 -0.011514307903 -0.069384288001 -3.5345744785 -0.043871544132 0.08775863094 
5.8950087813 0.4941426755 0.40714860662 0.29778259705 0.31567215494 0.46180744103 0.41563688403 0.19673828772 0.062813250668 
-0.0019588023962 -0.061539408398 -0.41387333043 -1.2905693898 -1.3465058729 -0.23863346634 -0.013375373998 0.036622721874 0.040641075834 
0.0090920957455 -0.30640415542 -1.5033831875 -0.063545499901 0.17196062913 0.10378587927 -0.095871316238 -0.57372742535 -1.8288474765 
-0.25633426676 0.03837414971 0.2857368011 0.55683880087 0.31495162562 0.0068184784155 -0.13750276645 -0.19739077823 0 
0 
Abscissas 1 64 double
0 1.0458414976 2.0270568789 3.0427325175 4.0575213164 5.0714543278 6.0853825343 7.0994811345 8.1137425255 
9.1280848739 10.142535113 11.157125452 12.171621017 13.185201355 14.190781823 15.199554958 16.211160284 17.220331734 
18.229714528 19.243401033 20.258106981 21.272179314 22.269943204 23.278485331 24.2946645 25.302664388 25.700735237 
26.746701422 27.770769236 28.783563884 29.79625725 30.805761901 31.816936501 32.82999342 33.843401888 34.856939249 
35.870733896 36.884967544 37.89952942 38.9141336 39.928735131 40.943323103 41.957676379 42.9711056 43.982563595 
44.994265195 46.00810587 47.022655296 48.03717356 49.051590269 50.065996394 51.080450301 52.094986247 53.109576439 
54.124150598 55.138612171 56.152981766 57.167389527 58.181758799 59.195843132 60.209995651 61.224383781 62.206608263 
63.250914103 
ParallelTransportNormals 3 64 double
0.31387586837 0 0.94946402736 0.25847192606 0.027970066725 0.96561376275 0.23622847379 0.036076898216 0.9710275823 
0.22586740572 0.03847566059 0.97339793434 0.21954513965 0.038990833385 0.97482287959 0.21206425207 0.038345469729 0.9765031377 
0.21255899271 0.038476240845 0.97639042064 0.23817881174 0.049691916347 0.96994926006 0.29197508924 0.081561722109 0.9529418832 
0.35213098389 0.124712639 0.92760472608 0.38724798548 0.15281161888 0.90922362864 0.37169953528 0.13984980545 0.91775894841 
0.26189430548 0.048212696888 0.96389154401 -0.051675249546 -0.22584395195 0.97279194998 -0.36697595288 -0.59040046431 0.71885738624 
-0.41083895211 -0.74177892336 0.53007111248 -0.41417822602 -0.73175884403 0.5412812497 -0.50175731471 -0.61363621223 0.60966400268 
-0.60639511098 -0.50503687317 0.61418460264 -0.64866277393 -0.46464872215 0.60277538994 -0.62667792095 -0.4865385651 0.60873229589 
-0.50609581476 -0.63265993421 0.5861812296 -0.41336121241 -0.81068541097 0.41463438415 -0.41465791771 -0.857069921 0.30576128237 
-0.4230520004 -0.86598295234 0.26664682861 0.68856119071 -0.46707409015 0.55472991713 0.88372646078 -0.46492047082 -0.053632996627 
0.89416205454 -0.44642974397 0.034273953943 0.89585345502 -0.41190927224 0.16666534901 0.8653039211 -0.36832982555 0.33997391626 
0.77656937518 -0.34863083137 0.52478238248 0.72133110313 -0.36656859683 0.58762990349 0.77423053477 -0.32391383486 0.54373422424 
0.85768993189 -0.2031265568 0.47234265386 0.91766126443 -0.038439293584 0.39549996773 0.93701896022 0.13167651234 0.3235069772 
0.92527698985 0.26749877831 0.26889941549 0.90868787457 0.34134256711 0.24035723098 0.90389752324 0.35799181932 0.23411775836 
0.90603966505 0.35073320808 0.23680866137 0.90476282826 0.35513391077 0.23512577491 0.88962234529 0.40312375809 0.21462366696 
0.83784508169 0.52564586424 0.14735007468 0.70833260697 0.70581289452 -0.0096475818369 0.51595099563 0.82371098545 -0.23514842665 
0.37166029973 0.83517826164 -0.4053959705 0.30540952476 0.82021901596 -0.48370010134 0.27903122314 0.81164509039 -0.51319959447 
0.25720305004 0.80494487468 -0.53470584415 0.21859690644 0.79448318804 -0.56657908223 0.16700741436 0.78111097032 -0.60164289707 
0.12467653443 0.77009980297 -0.62562133533 0.10947812307 0.76626090961 -0.63313407662 0.12736219229 0.77040198469 -0.62470765479 
0.17664007547 0.78041636389 -0.599790449 0.24681696352 0.79235693836 -0.55789951492 0.32208399422 0.80155090003 -0.50376388847 
0.39496748561 0.80440350651 -0.44377436162 0.46982519815 0.7971429546 -0.37924582148 0.55989574534 0.77063114849 -0.30437540524 
0.67835734711 0.70348635663 -0.21198645159 0.80943178817 0.57668945183 -0.11067726253 0.93399169394 0.35728824562 0.0021506246808 
0.93399169394 0.35728824562 0.0021506246808 
FrenetTangent 3 64 double
-0.86287339979 0.43779548219 0.25255615554 -0.86287339979 0.43779548219 0.25255615554 -0.91624226394 0.33294351115 0.22281995456 
-0.95089334896 0.22017682844 0.21754080794 -0.97245969707 0.079272909323 0.21917559953 -0.97225341901 -0.083874534639 0.21837662801 
-0.94416163778 -0.24957026092 0.21511273002 -0.89269307781 -0.3908044795 0.22443468456 -0.83019431464 -0.4918247548 0.26246106475 
-0.76878612211 -0.55146652268 0.32380946992 -0.72277411824 -0.57833334395 0.37832276865 -0.70776064877 -0.59001864618 0.38852652576 
-0.73069241964 -0.60978062864 0.30701168188 -0.7528265726 -0.65784340278 0.022230812254 -0.5784693948 -0.66912139311 -0.46652944234 
-0.1780930166 -0.6155290373 -0.76772839056 0.21661027249 -0.65051445753 -0.72794981311 0.54005302104 -0.72839098684 -0.42165069044 
0.69358695019 -0.7197647205 -0.029595432969 0.70961689207 -0.67804553163 0.19156754299 0.6959393332 -0.69289730152 0.18857829686 
0.6326522606 -0.76568074486 -0.11612111828 0.35001858518 -0.6734663158 -0.65109915644 -0.011469741346 -0.39148859039 -0.9201114762 
-0.20456358208 -0.21767699579 -0.95434295009 -0.60081424164 -0.26266332708 -0.75500345936 -0.089794745004 0.083115104423 0.99248616272 
0.11575081714 0.20411893697 0.97207880745 0.012742589088 0.25221060935 0.96758846363 -0.16849876201 0.24037991991 0.95594228974 
-0.43061740182 0.095837098756 0.89743183794 -0.64557079216 -0.20976972888 0.73432623074 -0.65384756062 -0.52739367831 0.54253043744 
-0.51119019343 -0.73990305659 0.43729629884 -0.31336944194 -0.86056742983 0.40152620285 -0.10419811622 -0.91591102397 0.38762062476 
0.079952222513 -0.92484267456 0.37185167666 0.20506537963 -0.91292651804 0.35286451044 0.26016846138 -0.90415875948 0.3388352245 
0.26671147697 -0.90367547814 0.33501584777 0.2615420835 -0.90152260881 0.34475023475 0.27861622098 -0.88318810999 0.37729532701 
0.34736069874 -0.82198972201 0.45130194092 0.47642057753 -0.66293768953 0.57752666874 0.60308511563 -0.3695571695 0.70690582243 
0.64569647603 -0.051183455765 0.76187683696 0.63914496341 0.14430845557 0.75542622763 0.65145532969 0.21178469439 0.72852810285 
0.69589352276 0.21363149467 0.68563385962 0.75483718045 0.20452942517 0.62320826795 0.808684979 0.20959225297 0.54963596338 
0.84864930359 0.22074319666 0.48069408219 0.87431397969 0.22087629286 0.43219061555 0.8853910471 0.20502254744 0.41719114175 
0.87807536988 0.17844119423 0.44400719026 0.84963604596 0.14457931958 0.50716408563 0.80788120346 0.098655910812 0.58102923537 
0.77175768316 0.030201145058 0.63519915721 0.75539509451 -0.07325151827 0.65116239622 0.75002567328 -0.22076227454 0.62347855421 
0.71990349659 -0.40803972128 0.56146463954 0.62934502774 -0.60622711279 0.48622373839 0.44716188395 -0.79649029717 0.40700056027 
0.44716188395 -0.79649029717 0.40700056027 
FrenetNormal 3 64 double
-0.50324559928 -0.79050910887 -0.34905474584 -0.50324559928 -0.79050910887 -0.34905474584 -0.36260930217 -0.92567474605 -0.10789234685 
-0.22451011752 -0.97445938637 0.0049103412703 -0.077998737645 -0.99684837751 0.014474431756 0.080550372362 -0.99645922224 -0.024096803162 
0.25261433086 -0.96747031845 -0.013681475088 0.42854006159 -0.89023795484 0.15436903631 0.55493707772 -0.68423006989 0.47315330626 
0.58848809655 -0.41188090948 0.69572686927 0.60332953478 -0.2610717541 0.75354828092 -0.16186275162 -0.3999025125 -0.90215211031 
-0.25164169048 -0.17747527625 -0.95140894779 0.057138996566 -0.098961155569 -0.99344945758 0.56230642434 0.087215765186 -0.82231678534 
0.96504601627 0.04319402772 -0.25849654244 0.86937337772 -0.21070394958 0.44698297031 0.52270827033 -0.10237710537 0.84634212492 
0.17419888615 0.12771576018 0.97639307283 -0.087177402124 0.1853046797 0.97880655711 -0.15365574839 -0.4002122006 -0.90344900546 
-0.28731107786 -0.092814498039 -0.95332985556 -0.59336237335 0.3784428745 -0.71042387673 -0.73069704616 0.63143725421 -0.25955504374 
-0.7474998921 0.66420459121 0.0087276754468 -0.73265021639 -0.19686068566 0.65151326224 0.93158977871 0.35945050057 0.054183224672 
-0.72013331032 0.69128774656 -0.059407632802 -0.97701645337 0.20905998026 -0.041626608138 -0.96451936419 -0.24018107442 -0.10961499715 
-0.74227421398 -0.60325218117 -0.29174611768 -0.2862141303 -0.82500139889 -0.48729268766 0.29349999304 -0.83768345485 -0.46059112406 
0.73588733862 -0.639656185 -0.22205807763 0.92702318296 -0.36893085496 -0.067216385719 0.98912244829 -0.13612051785 -0.055749322094 
0.9928455994 0.040696207253 -0.11225611109 0.97017339048 0.14198008653 -0.19648218096 0.91234214677 0.11529861529 -0.39285879975 
-0.95772665757 -0.20962278486 0.19702268258 -0.089843733876 0.33289287272 0.93867483122 0.53252561509 0.46899631028 0.7045984177 
0.58772659301 0.56585211485 0.57826363882 0.47970555005 0.74647535388 0.46114762419 0.24793344847 0.92915541786 0.27422475196 
0.003990239338 0.99796352895 0.063662177804 -0.036577834166 0.98683079477 -0.15756600058 0.63187397995 0.38003822834 -0.6755044178 
0.71800903981 -0.1883977842 -0.67005170969 0.64188287584 -0.034879678741 -0.76600899585 0.5292211331 0.14870020714 -0.83535216566 
0.46343180914 0.12781158234 -0.87686667042 0.47562053174 -0.21239935906 -0.85362264617 0.1326889571 -0.97160896512 0.19588174893 
-0.3066209879 -0.50255115187 0.80834764151 -0.41896577171 -0.39901819623 0.81562991682 -0.44437428836 -0.54561853162 0.71051524248 
-0.29372827363 -0.86900284358 0.39819311786 -0.048091506164 -0.99724965275 -0.056394477825 -0.043665970934 -0.95712328898 -0.28637090054 
-0.24979061063 -0.90705146256 -0.33891340356 -0.52258194343 -0.79321984621 -0.31258660878 -0.77318822739 -0.57297337033 -0.27181148231 
-0.77318822739 -0.57297337033 -0.27181148231 
FrenetBinormal 3 64 double
0.046833350694 -0.42828782911 0.90242793214 0.046833350694 -0.42828782911 0.90242793214 0.17033674806 -0.17965211638 0.96887073923 
0.21306582558 -0.044170901501 0.97603887496 0.2196322711 -0.0030196185658 0.97557805807 0.21962451305 -0.0058378805602 0.97556701073 
0.21152967073 0.041423034428 0.97649338483 0.13947216369 0.23398342368 0.96218463561 -0.053124756157 0.53845856109 0.84097570611 
-0.25029913836 0.72542318048 0.64117981141 -0.3370327083 0.7728984943 0.53762149421 0.6876593006 -0.70139573542 0.18753322011 
0.63463772934 -0.77244424475 -0.023766389181 0.65573415853 -0.74662490389 0.1120890995 0.59091847527 -0.73801759572 0.32579960711 
0.1922734093 -0.78692965391 0.58632129065 -0.44415078517 -0.72968129083 0.51989931126 -0.65963535275 -0.67746992448 0.32544692782 
-0.69899348394 -0.68236898502 0.21396419719 -0.69917377457 -0.71127802772 0.072385082925 0.70146871312 0.59976955911 -0.38499106545 
0.71916859059 0.63648917187 -0.2787078621 0.72485038726 0.63499930097 -0.26714753201 0.6826055023 0.66934570858 -0.29330197858 
0.63197915487 0.71515661678 -0.29858560128 -0.31975913978 0.94459189444 -0.07416363986 -0.35224620362 0.92945533355 -0.10970594778 
-0.68411239113 -0.69314984746 0.22700996732 -0.21278269731 -0.94481941829 0.24907788047 0.203250002 -0.94049484081 0.27232130121 
0.51341761219 -0.79177146729 0.33090829405 0.70803942257 -0.52475646988 0.4725577461 0.69738161831 -0.1419237033 0.70250732444 
0.44402073262 0.20828689789 0.8714712601 0.20597963761 0.35116053733 0.91337761409 0.10382453886 0.37759528703 0.92013165599 
0.088686289114 0.37816642637 0.92147973178 0.12927405959 0.3826314515 0.91481221561 0.31613949283 0.41134312559 0.85489920698 
-0.10781761191 -0.37340181879 -0.92138289776 -0.96100147869 -0.27647661944 0.0060693381664 -0.79924306108 0.0046068776354 0.60099027113 
-0.73069692543 0.06437609052 0.6796600048 -0.73682156494 0.057342530855 0.67365110821 -0.75816709797 0.0098847320539 0.65198538606 
-0.7635837471 -0.038066372939 0.64458576808 -0.7682159708 0.073075660397 0.63600642297 -0.41993002618 0.90039890506 0.1137566916 
-0.013972248319 0.9585759539 -0.28449414209 -0.13493407542 0.97823878591 -0.15761241398 -0.25681432403 0.96641571588 0.0093309742802 
-0.25500062314 0.96692121734 0.0061677913563 -0.096747995849 0.95189294331 -0.29075702876 0.44550682866 -0.11807528928 -0.887458107 
0.36737884341 -0.84593207763 -0.38656397331 0.32029091705 -0.90547297001 -0.27844645631 0.38711684662 -0.83220636216 -0.39695480579 
0.56401576197 -0.49388454995 -0.66178869102 0.65350245464 0.011284731515 -0.75684027153 0.65996573578 0.18756073106 -0.72750683829 
0.6475674532 0.1037363491 -0.75491401062 0.57518079633 -0.057366918181 -0.81601230888 0.44969569107 -0.19314430723 -0.87204877273 
0.44969569107 -0.19314430723 -0.87204877273 
