# vtk DataFile Version 4.2
vtk output
ASCII
DATASET POLYDATA
POINTS 64 float
0 0 0 -1.04403 0.0270342 0.0787288 -2.01032 -0.0467412 0.158849 
-3.01155 -0.237367 0.268472 -3.95588 -0.566998 0.427138 -4.82777 -1.03091 0.657798 
-5.61157 -1.59617 0.96613 -6.32004 -2.21831 1.34057 -6.98024 -2.86168 1.76431 
-7.62017 -3.5036 2.22021 -8.26454 -4.13178 2.68884 -8.93566 -4.74057 3.14514 
-9.6587 -5.32756 3.54767 -10.4698 -5.8819 3.79905 -11.3486 -6.33173 3.61918 
-11.9872 -6.5633 2.86961 -12.2961 -6.6891 1.91164 -12.3958 -6.82888 0.912195 
-12.3335 -7.03348 -0.079162 -12.1246 -7.335 -1.02459 -11.7771 -7.75396 -1.88005 
-11.307 -8.29614 -2.59618 -10.7442 -8.94955 -3.12928 -10.1304 -9.6908 -3.4479 
-9.51402 -10.4914 -3.5296 -8.95283 -11.3169 -3.35422 -8.51597 -12.1183 -2.91428 
-8.26189 -12.8388 -2.24869 -8.19598 -13.4528 -1.44441 -8.27672 -13.9812 -0.582323 
-8.45596 -14.465 0.291187 -8.69287 -14.9467 1.15215 -8.95193 -15.4664 1.98407 
-9.19639 -16.0619 2.76803 -9.38392 -16.7635 3.47597 -9.47094 -17.5793 4.07181 
-9.4341 -18.4818 4.53268 -9.28465 -19.4261 4.87175 -9.0514 -20.3799 5.12675 
-8.76076 -21.3283 5.33988 -8.43016 -22.2645 5.5484 -8.06682 -23.1823 5.78301 
-7.66832 -24.0712 6.06624 -7.22396 -24.9162 6.40941 -6.71884 -25.6988 6.81129 
-6.14057 -26.4011 7.25989 -5.48446 -27.0104 7.7366 -4.75486 -27.5207 8.22267 
-3.96596 -27.9335 8.70881 -3.13981 -28.2559 9.20152 -2.30061 -28.4966 9.71827 
-1.47226 -28.667 10.2786 -0.676646 -28.7838 10.8971 0.068766 -28.8691 11.58 
0.752922 -28.9513 12.3245 1.37049 -29.0626 13.1217 1.91922 -29.2378 13.9567 
2.39654 -29.5121 14.8086 2.79845 -29.9144 15.6485 3.12459 -30.453 16.4436 
3.38646 -31.108 17.1704 3.61285 -31.8574 17.8328 3.81682 -32.6159 18.4058 
4.05622 -33.4666 18.9679 
LINES 1 65
64 0 1 2 3 4 5 6 7 8 9 10 11 12 13 14 15 16 17 18 19 20 21 22 23 24 25 26 27 28 29 30 31 32 33 34 35 36 37 38 39 40 41 42 43 44 45 46 47 48 49 50 51 52 53 54 55 56 57 58 59 60 61 62 63 

CELL_DATA 1
FIELD FieldData 2
Length 1 1 double
63.887191822 
Tortuosity 1 1 double
0.6516274914 
POINT_DATA 64
SCALARS MaximumInscribedSphereRadius float
LOOKUP_TABLE default
1.24 1.24 1.26637 1.39477 1.57313 1.75065 1.79244 1.63769 1.84266 
2.19065 2.0225 1.54116 1.4606 1.56474 1.67643 1.81636 1.86 1.82169 
1.6488 1.70002 2.03369 2.07783 1.95244 2.01405 2.20978 2.53022 2.68418 
2.31284 2.05489 1.8793 1.87202 1.95183 2.22716 2.40736 2.26072 2.17802 
2.17098 2.03569 1.86491 1.86 1.90057 2.03643 2.1724 2.18584 2.18931 
2.17619 2.27387 2.46743 2.74944 2.99268 2.79612 2.50539 2.48738 2.42206 
2.27349 2.18741 2.19597 2.32095 2.46236 2.48 2.48 2.48 2.48 
2.48 
TEXTURE_COORDINATES TCoords 2 float
0 0 0.015873 0 0.031746 0 0.047619 0 0.0634921 
0 0.0793651 0 0.0952381 0 0.111111 0 0.126984 0 
0.142857 0 0.15873 0 0.174603 0 0.190476 0 0.206349 
0 0.222222 0 0.238095 0 0.253968 0 0.269841 0 
0.285714 0 0.301587 0 0.31746 0 0.333333 0 0.349206 
0 0.365079 0 0.380952 0 0.396825 0 0.412698 0 
0.428571 0 0.444444 0 0.460317 0 0.47619 0 0.492063 
0 0.507937 0 0.52381 0 0.539683 0 0.555556 0 
0.571429 0 0.587302 0 0.603175 0 0.619048 0 0.634921 
0 0.650794 0 0.666667 0 0.68254 0 0.698413 0 
0.714286 0 0.730159 0 0.746032 0 0.761905 0 0.777778 
0 0.793651 0 0.809524 0 0.825397 0 0.84127 0 
0.857143 0 0.873016 0 0.888889 0 0.904762 0 0.920635 
0 0.936508 0 0.952381 0 0.968254 0 0.984127 0 
1 0 
FIELD FieldData 7
Curvature 1 64 double
0 0.10125055748 0.11458084934 0.15264242179 0.16539491926 0.15167543533 0.11234734642 0.070225094766 0.036969518363 
0.018700614968 0.034270238053 0.075753869957 0.17429898767 0.4639148458 0.72230912962 0.41015242404 0.21010689409 0.17111099865 
0.17804506903 0.19914522199 0.2193609778 0.23010584726 0.23410274523 0.24118532563 0.26152133496 0.29173959325 0.30026472094 
0.25409210888 0.17576741621 0.10596230639 0.05742279931 0.051239459382 0.088482787304 0.13910138553 0.18536889425 0.19910007368 
0.16749519119 0.11611545389 0.069305199669 0.040856439941 0.044447082999 0.064773873155 0.084989640679 0.10233241709 0.11530349766 
0.1214502227 0.12061604313 0.11124834605 0.095440683009 0.083861653692 0.081190360013 0.083328195582 0.085192821715 0.084618551601 
0.08739054557 0.098623187324 0.12028926853 0.1456587401 0.1587370276 0.14630668995 0.11494794774 0.076086207175 0.063913812464 
0 
Torsion 1 64 double
0 0 0.15293182967 0.1217607715 0.12336612256 0.1223880509 0.15891144707 0.26254980678 0.57884543983 
1.7129992282 0.72161766911 0.33954063485 0.239074391 0.13542100183 0.12442380543 0.27897428976 0.47883542951 0.32151346491 
0.18165268118 0.10599490207 0.073018063586 0.065738123573 0.072774533762 0.082614879921 0.084372493795 0.076235984642 0.071508473333 
0.084599468424 0.13594405502 0.28736307664 0.81066225359 0.9547900475 0.33590339636 0.14926783459 0.085524247672 0.064513064953 
0.071476693885 0.12325165765 0.31517210053 0.79789054805 0.47901579245 0.058459157395 -0.093185871413 -0.1401723149 -0.13917261292 
-0.11717662137 -0.062719934961 0.044472648557 0.20445456747 0.34309610102 0.3673551504 0.32947920335 0.31718060988 0.35246761797 
0.37515631816 0.32964688001 0.23167605889 0.14809546495 0.10688457392 0.11771004484 0.16552704483 0.34851800125 0 
0 
Abscissas 1 64 double
0 1.0473421672 2.0197472136 3.0448431426 4.0575638804 5.0717615534 6.0861251038 7.1006154133 8.1151861468 
9.1297835041 10.144391855 11.15891333 12.173489154 13.187604968 14.19105756 15.202631943 16.217003492 17.231093942 
18.245260002 19.259358316 20.273291223 21.287121311 22.300921646 23.314715241 24.328412455 25.341887512 26.35508679 
27.368395369 28.382353924 29.39672132 30.411241879 31.425818052 32.440362346 33.454770373 34.468966335 35.482929392 
36.496969948 37.511300558 38.525792745 39.540360251 40.554945824 41.569508004 42.584025119 43.598499006 44.612922796 
45.627307246 46.641685459 47.656077124 48.670521642 49.685011984 50.699519435 51.714022077 52.728516714 53.743010585 
54.757506664 55.771986865 56.786427434 57.800754806 58.815030551 59.829271849 60.842050446 61.867516587 62.839788054 
63.887190587 
ParallelTransportNormals 3 64 double
0.075195099317 0 0.99716884079 0.082618274241 0.0001866727826 0.99658124903 0.10816242475 0.0035809523522 0.994126786 
0.15976064788 0.017403471379 0.98700235794 0.23119911718 0.048611521996 0.97169125145 0.30477942729 0.094348212057 0.94773831598 
0.36314884201 0.14079245638 0.9210322485 0.40305321324 0.17768931735 0.89776088899 0.42661540995 0.20098261032 0.88181930255 
0.43416100003 0.20844473743 0.87638748136 0.42241520654 0.19740005437 0.88464603759 0.37819768656 0.1594743712 0.91188509957 
0.25349277687 0.066703388702 0.96503475068 -0.12099362605 -0.15565639674 0.98037320884 -0.63878619332 -0.38833246331 0.66419131066 
-0.82619339308 -0.45901314525 0.32666712372 -0.8623302717 -0.48250133479 0.15355443478 -0.8642968578 -0.50059220243 0.048973344397 
-0.85419827733 -0.51943289144 -0.02312518745 -0.83797076667 -0.54044633135 -0.075648907025 -0.81913852838 -0.56258514323 -0.11184823623 
-0.80196764188 -0.5824611182 -0.13261578778 -0.79135855377 -0.59503675956 -0.14029573816 -0.79140752303 -0.5949753853 -0.14027980392 
-0.80447464173 -0.57693094354 -0.14131962778 -0.82866156035 -0.5375047908 -0.15623257747 -0.85370225508 -0.48234805877 -0.19629775819 
-0.86667449733 -0.42825857302 -0.25587088602 -0.86612556784 -0.38589693949 -0.31766342695 -0.85795812048 -0.35409579683 -0.372188165 
-0.84716254515 -0.3290493182 -0.41718361459 -0.83669597209 -0.30791751348 -0.45290910256 -0.82864237135 -0.29007965637 -0.47875423065 
-0.82442444416 -0.27741403631 -0.49332118171 -0.82387030207 -0.27435117405 -0.49595277866 -0.82414929593 -0.28390462093 -0.49007765122 
-0.82221057488 -0.30312581375 -0.48175150398 -0.81745281476 -0.32672343977 -0.4743655653 -0.81010650708 -0.35339728814 -0.46780103027 
-0.79969622108 -0.38497913991 -0.46073529909 -0.78440459134 -0.42583454844 -0.45097048068 -0.76151722207 -0.48011106214 -0.43541346844 
-0.72782168486 -0.5494275848 -0.4103716902 -0.68036494621 -0.63077375313 -0.37313270069 -0.61814945897 -0.71604864096 -0.32429244541 
-0.54355778893 -0.79531023572 -0.26837764261 -0.46166295621 -0.86147809015 -0.21147769401 -0.37921145802 -0.91160115348 -0.15868839618 
-0.30243964249 -0.94654674748 -0.11215844814 -0.23441434287 -0.96954608163 -0.070924688639 -0.1787088359 -0.98328129571 -0.034943461126 
-0.13994851718 -0.99013538792 -0.0068063302012 -0.1216202598 -0.99253882481 0.0086714275346 -0.12498701 -0.99214416979 0.0053097718192 
-0.14871306068 -0.98861774072 -0.022790092634 -0.18991985923 -0.97849742359 -0.080456442289 -0.24460560008 -0.95453820206 -0.17036701918 
-0.30586448275 -0.90739401772 -0.28824124409 -0.36276430817 -0.83386246071 -0.41602338076 -0.40562951859 -0.74683846375 -0.52696964117 
-0.43348052878 -0.66680038677 -0.6061945854 -0.44899353821 -0.61236312575 -0.65070439131 -0.45899728347 -0.57602315489 -0.67640137404 
-0.45899728347 -0.57602315489 -0.67640137404 
FrenetTangent 3 64 double
-0.99662504146 -0.023172156841 0.078750097606 -0.99662504146 -0.023172156841 0.078750097606 -0.98659493163 -0.13258156911 0.095144986248 
-0.95759679278 -0.25606830656 0.13205076615 -0.89916948648 -0.39286515415 0.19274647917 -0.8185842753 -0.50882954701 0.26648128702 
-0.73671316459 -0.58620309423 0.33707513322 -0.67496202927 -0.62408853957 0.39362387355 -0.64083340799 -0.63351871689 0.43357419037 
-0.63293378603 -0.62593581649 0.45563052591 -0.64840209008 -0.60969973489 0.4558957807 -0.6875914281 -0.5897513779 0.42356975845 
-0.75915730882 -0.56477833854 0.32358246055 -0.8591096411 -0.51049877168 0.036354211313 -0.79635515538 -0.35760954059 -0.48778466865 
-0.47727294395 -0.18001384127 -0.86011949979 -0.20256130786 -0.13165979137 -0.9703785941 -0.018508421144 -0.17042500576 -0.98519681067 
0.13424975565 -0.25054095747 -0.95875243506 0.27573405001 -0.35704664266 -0.89246200403 0.40566056485 -0.47687909213 -0.77976011543 
0.51281588699 -0.5935883404 -0.62021991921 0.58430466397 -0.69259393537 -0.42296772969 0.61121334464 -0.76606635929 -0.19889841754 
0.58588814892 -0.80905044242 0.046609640398 0.49768740467 -0.81127016454 0.3068354076 0.34479074792 -0.75945403907 0.55167826012 
0.15912623542 -0.66362622043 0.73094396554 -0.0073398967369 -0.5654283551 0.82476475504 -0.12832566675 -0.499619912 0.85668691293 
-0.20517768033 -0.47602782891 0.85516058469 -0.24450584847 -0.49367556013 0.834566553 -0.24842041726 -0.55020300381 0.79722264825 
-0.2134786206 -0.64099480258 0.7372601587 -0.13596017111 -0.75143490079 0.64564728897 -0.024868299089 -0.85155090488 0.52368179661 
0.092167594399 -0.91371138497 0.39577346995 0.1889522385 -0.93715771184 0.29331292967 0.25835363264 -0.93806121618 0.2308561353 
0.30623263029 -0.92898935462 0.20784695126 0.34207771488 -0.91392910922 0.21844088516 0.37566330651 -0.89088436761 0.25534706516 
0.41579276787 -0.85535310684 0.30901041537 0.46858958284 -0.80325675785 0.36769876776 0.53491915686 -0.73316292044 0.41992097795 
0.60960265552 -0.64773868919 0.45696738715 0.68429992614 -0.55288788239 0.47544568627 0.74964600891 -0.45571151607 0.47995611825 
0.79693124019 -0.36277705893 0.4830045589 0.82150839987 -0.27777373733 0.49796154449 0.8225590446 -0.20278511853 0.5312954111 
0.80110241993 -0.14167638452 0.58151759634 0.76020159111 -0.099698068021 0.64199208415 0.70522334501 -0.08262956926 0.70415366784 
0.64218941306 -0.095460146554 0.76057880471 0.57554368572 -0.14138222444 0.80545672288 0.50670142681 -0.22198023821 0.83305368249 
0.43459084979 -0.33443347621 0.83623264901 0.36006049593 -0.465325906 0.80859646331 0.29087261638 -0.59044136152 0.7528426925 
0.23994876321 -0.69017418739 0.68270358289 0.21557969901 -0.75534991363 0.61884723588 0.21964780254 -0.7972046768 0.56233401651 
0.21964780254 -0.7972046768 0.56233401651 
FrenetNormal 3 64 double
0.028790821174 -0.99706224933 0.070978585357 0.028790821174 -0.99706224933 0.070978585357 0.15041173214 -0.96495119141 0.21504769011 
0.28575122815 -0.90267099464 0.321762818 0.43736889623 -0.79249134462 0.4250481353 0.56869296279 -0.65280755884 0.50043041994 
0.65451199313 -0.49291903517 0.57327556691 0.66936319657 -0.29344545145 0.68252668674 0.53341509252 0.03871356141 0.84496721785 
-0.23030381396 0.71409343314 0.66108299178 -0.76037383266 0.54815332649 -0.34836699795 -0.66624033147 0.28050155175 -0.69097228612 
-0.4969801211 0.18189746205 -0.84848339556 -0.17167552313 0.22053436752 -0.96015212727 0.37677049523 0.33757910217 -0.86260323655 
0.81921734286 0.26300219321 -0.50962024246 0.97853493036 -0.06558955509 -0.19536478782 0.92744914894 -0.37101467159 0.046756706484 
0.80712682859 -0.53366838713 0.25247640512 0.68389308838 -0.57956697404 0.44316178339 0.55061099469 -0.55344576885 0.62492024569 
0.39711422086 -0.4764950713 0.78438048332 0.21510271148 -0.37037816279 0.9036320269 0.010762292061 -0.24323609724 0.96990740489 
-0.20850402759 -0.094913708459 0.97340508445 -0.42345607123 0.081467667773 0.90224607222 -0.60636815448 0.26843497309 0.74850539507 
-0.73300285546 0.4165530581 0.53776422685 -0.81755294869 0.47832379922 0.32064547274 -0.90575686714 0.4108552627 0.10393483893 
-0.97616585255 0.036391210411 -0.2139530512 -0.42053239284 -0.72154440325 -0.55002380014 0.16022452835 -0.83502544999 -0.52636546086 
0.39951023664 -0.74595027268 -0.53286936627 0.53171392205 -0.60523268008 -0.59243034026 0.61114865732 -0.4275042482 -0.66613619961 
0.65809095353 -0.2423902375 -0.71285571447 0.70359174377 -0.079161581208 -0.70618135218 0.80518276807 0.077050955416 -0.58799988118 
0.95104939322 0.2890291426 -0.10939472737 0.71532590403 0.40401678907 0.57015724601 0.52864702924 0.43229836078 0.7305138231 
0.52505621463 0.5031970535 0.68637358401 0.57875940777 0.59359610082 0.55917905631 0.61919780093 0.67832692659 0.39555867325 
0.6249837108 0.74733317492 0.22558476655 0.59431760779 0.80066115363 0.075685521325 0.51927322342 0.85460819851 0.00038273983143 
0.37960404413 0.9227394118 0.066728911164 0.1514885052 0.94825513214 0.27904020708 -0.12979884459 0.8426518697 0.5225802201 
-0.38248202239 0.626135978 0.67945657669 -0.5739506963 0.35996260332 0.73553213555 -0.70403002977 0.035601875501 0.70927725442 
-0.74249226904 -0.32407322571 0.58624378444 -0.67911467619 -0.63134298989 0.37444530401 -0.57866823324 -0.80384123759 0.13777641519 
-0.50595109283 -0.85879623657 -0.080514071584 -0.46680434004 -0.84028767186 -0.27569972186 -0.42727785912 -0.78420441636 -0.44995229133 
-0.32374768165 -0.71988024939 -0.61397057353 -0.14432032593 -0.6514354545 -0.74485132217 0.29104234491 -0.49661659137 -0.81772019337 
0.29104234491 -0.49661659137 -0.81772019337 
FrenetBinormal 3 64 double
0.076874022541 0.073006315552 0.994364351 0.076874022541 0.073006315552 0.994364351 0.06329890765 0.22647588331 0.97195777818 
0.036805136499 0.34585271116 0.93756668249 -0.014236684748 0.46649162839 0.88441103422 -0.080672785434 0.56119050528 0.8237457851 
-0.16990516172 0.64295937436 0.74681689787 -0.31044994787 0.72415693175 0.61580643718 -0.55208774871 0.77275823872 0.31311950149 
-0.73915828872 0.313488313 -0.59612926604 -0.037501522428 -0.57253311165 -0.81902348677 0.28868988332 -0.75730587726 -0.58578661605 
0.42034621409 -0.80494642158 -0.41877239485 0.4821391286 -0.83111707771 -0.27710334501 0.47314105763 -0.87072140565 -0.13409613465 
0.3179520123 -0.94785276458 0.021946629706 -0.037925013049 -0.98912269694 0.14211961084 -0.37349098314 -0.91285455078 0.16492742234 
-0.57491154596 -0.80772970801 0.13057347786 -0.67547093004 -0.73254338954 0.08437538214 -0.72956633602 -0.68284999262 0.038063748059 
-0.76113084396 -0.64854092328 -0.0086318713239 -0.78250807227 -0.61897791336 -0.067434854504 -0.79139270935 -0.59496095179 -0.14042451864 
-0.7831099204 -0.58002480082 -0.22429909273 -0.75696248452 -0.57896782228 -0.30299184444 -0.71654518446 -0.59259786344 -0.36795484895 
-0.66135138549 -0.62135641088 -0.42015539455 -0.57580665331 -0.6719353528 -0.46577846628 -0.40390224174 -0.76261254687 -0.50525744178 
0.070727277678 -0.87867695196 -0.47214877558 0.87371013307 -0.48544630545 -0.031184738061 0.95530905827 -0.0030253046169 0.29559338749 
0.89152591065 0.1807867632 0.41532842051 0.83593967305 0.26275272184 0.481835937 0.7911250763 0.30348175262 0.53105549567 
0.74727600753 0.32615713658 0.57896467149 0.68502241545 0.33980710293 0.64441867069 0.53379219786 0.33779328734 0.7752171209 
0.041552711068 0.23117295198 0.97202491659 -0.60933708898 -0.038781664183 0.79196230625 -0.76118946303 -0.13943877082 0.63336200594 
-0.74258490805 -0.12314133332 0.65833416011 -0.66742891065 -0.049216359661 0.74304535472 -0.57485265847 0.048422234128 0.8168229357 
-0.48762686926 0.14808010061 0.86040241758 -0.42251649927 0.23077414625 0.87648337193 -0.41034885253 0.24894144124 0.87729241309 
-0.46989506071 0.13017212996 0.87307150251 -0.54970463136 -0.153798424 0.82107908452 -0.5536685634 -0.49881461707 0.66680964278 
-0.46037204014 -0.76673433412 0.4474103771 -0.3044242748 -0.92762450347 0.21642236822 -0.083676465235 -0.99594420564 -0.033066424377 
0.19052030907 -0.94120343433 -0.27899481542 0.45557954564 -0.76250711192 -0.45938021493 0.63905926166 -0.5518732088 -0.53576041428 
0.7450800527 -0.38810214384 -0.54243196902 0.80774386249 -0.27818775983 -0.5197705483 0.85605300779 -0.19079421368 -0.48038611125 
0.91521146718 -0.073702222451 -0.3961766686 0.96576241224 0.071262589059 -0.24944860493 0.93115476496 0.34327345435 0.12293957551 
0.93115476496 0.34327345435 0.12293957551 
