# vtk DataFile Version 4.2
vtk output
ASCII
DATASET POLYDATA
POINTS 64 float
0 0 0 -1.02712 -0.036364 0.185796 -1.9014 -0.412554 0.420011 
-2.72623 -0.94375 0.692382 -3.48293 -1.55185 0.98791 -4.20453 -2.19275 1.30043 
-4.91873 -2.8432 1.61072 -5.65498 -3.49629 1.85641 -6.42732 -4.14917 1.81932 
-7.0349 -4.70944 1.24341 -7.38046 -5.18569 0.418366 -7.57412 -5.67482 -0.448938 
-7.66137 -6.21313 -1.30423 -7.65278 -6.81067 -2.12384 -7.54399 -7.46589 -2.89039 
-7.32233 -8.17079 -3.58505 -6.96759 -8.91175 -4.17937 -6.45169 -9.6642 -4.62039 
-5.75531 -10.3749 -4.80577 -4.94168 -10.9296 -4.58543 -4.22035 -11.2102 -3.93691 
-3.73515 -11.2566 -3.0494 -3.4701 -11.1781 -2.07404 -3.37707 -11.0532 -1.07187 
-3.41517 -10.9404 -0.0645445 -3.54825 -10.8968 0.94006 -3.73739 -10.9881 1.93212 
-3.93672 -11.2819 2.88144 -4.09866 -11.8103 3.73063 -4.19367 -12.5367 4.43103 
-4.22298 -13.3856 4.98511 -4.20075 -14.2968 5.43037 -4.13528 -15.2369 5.80594 
-4.02471 -16.1875 6.14269 -3.85773 -17.1351 6.46429 -3.61437 -18.0649 6.78914 
-3.26887 -18.9555 7.13008 -2.7967 -19.776 7.49364 -2.18878 -20.4902 7.87901 
-1.46136 -21.0707 8.28164 -0.647916 -21.5095 8.6991 0.217111 -21.8118 9.13395 
1.10524 -21.9859 9.59192 1.9935 -22.0411 10.0786 2.86394 -21.9926 10.5973 
3.70573 -21.8658 11.1491 4.5163 -21.6967 11.7353 5.30041 -21.5297 12.3572 
6.06527 -21.414 13.0135 6.81402 -21.397 13.6975 7.54159 -21.5159 14.394 
8.23592 -21.7869 15.0817 8.88325 -22.2051 15.741 9.47089 -22.7557 16.3575 
9.98614 -23.4222 16.9222 10.4142 -24.1893 17.4291 10.7386 -25.042 17.8721 
10.9457 -25.9636 18.2412 11.0345 -26.9338 18.5229 11.0239 -27.9315 18.7043 
10.95 -28.9409 18.7763 10.8581 -29.9554 18.733 10.7931 -30.918 18.5893 
10.8066 -31.9286 18.3113 
LINES 1 65
64 0 1 2 3 4 5 6 7 8 9 10 11 12 13 14 15 16 17 18 19 20 21 22 23 24 25 26 27 28 29 30 31 32 33 34 35 36 37 38 39 40 41 42 43 44 45 46 47 48 49 50 51 52 53 54 55 56 57 58 59 60 61 62 63 

CELL_DATA 1
FIELD FieldData 2
Length 1 1 double
63.873415043 
Tortuosity 1 1 double
0.66508643181 
POINT_DATA 64
SCALARS MaximumInscribedSphereRadius float
LOOKUP_TABLE default
0.9796 0.946422 1.07421 1.33991 1.46611 1.48031 1.24573 1.02612 1.02572 
1.00561 0.976447 1.21534 1.24 1.24 1.24 1.33893 1.522 1.67325 
1.59414 1.52615 1.94456 1.73196 1.60699 1.60746 1.77723 1.69772 1.55 
1.58908 1.77394 1.7231 1.73375 2.24004 2.15784 1.72397 1.88369 2.07739 
1.68671 1.41809 1.32999 1.7001 1.98054 2.02317 1.47539 1.24119 1.50397 
1.71818 1.86418 1.87836 1.87403 1.86 1.86 1.86 1.86 1.86 
1.86 1.86 1.86 1.98122 2.31207 2.18611 1.82738 1.64092 1.66973 
1.86 
TEXTURE_COORDINATES TCoords 2 float
0 0 0.015873 0 0.031746 0 0.047619 0 0.0634921 
0 0.0793651 0 0.0952381 0 0.111111 0 0.126984 0 
0.142857 0 0.15873 0 0.174603 0 0.190476 0 0.206349 
0 0.222222 0 0.238095 0 0.253968 0 0.269841 0 
0.285714 0 0.301587 0 0.31746 0 0.333333 0 0.349206 
0 0.365079 0 0.380952 0 0.396825 0 0.412698 0 
0.428571 0 0.444444 0 0.460317 0 0.47619 0 0.492063 
0 0.507937 0 0.52381 0 0.539683 0 0.555556 0 
0.571429 0 0.587302 0 0.603175 0 0.619048 0 0.634921 
0 0.650794 0 0.666667 0 0.68254 0 0.698413 0 
0.714286 0 0.730159 0 0.746032 0 0.761905 0 0.777778 
0 0.793651 0 0.809524 0 0.825397 0 0.84127 0 
0.857143 0 0.873016 0 0.888889 0 0.904762 0 0.920635 
0 0.936508 0 0.952381 0 0.968254 0 0.984127 0 
1 0 
FIELD FieldData 7
Curvature 1 64 double
0 0.37395291526 0.16412194805 0.10215426563 0.049530861946 0.011935346595 0.066447442554 0.28329936991 0.60878248075 
0.37626719062 0.15483218719 0.11491270983 0.11525174885 0.12413520618 0.1394578447 0.16700870417 0.21941837121 0.31547890337 
0.46381774964 0.54265461067 0.41767282447 0.2656513831 0.17663101803 0.12864916033 0.11463407202 0.14329871249 0.20373957048 
0.25517343417 0.25390706335 0.1983134397 0.13237114013 0.084655516802 0.058763612576 0.056870920651 0.07637578566 0.10778127045 
0.14320878097 0.17026595607 0.17660405028 0.16293464614 0.14361878079 0.12914666254 0.11932147033 0.1071994529 0.087338445726 
0.06110462234 0.043238313722 0.062918656996 0.10111565943 0.13488133732 0.15251282854 0.15367230924 0.14802699307 0.14282016879 
0.14182198119 0.14549154065 0.15140480342 0.15149494887 0.14058786683 0.12384237754 0.11318342479 0.10834546233 0.14306279934 
0 
Torsion 1 64 double
0 0 0.1097164152 0.10776310149 0.080015279555 -3.7996894598 0.11696494433 0.15455778487 0.11661575765 
0.28247463406 0.73317059789 0.41090715003 0.11988894247 0.00048360282563 -0.038354388931 -0.034008889516 0.0052058010535 0.060107597894 
0.084343106307 0.093591592547 0.12659103379 0.18446877722 0.27183059843 0.44361435557 0.59077250567 0.41745271867 0.20241720364 
0.099636083855 0.056665492095 0.045542330856 0.080169992483 0.21237877183 0.45665911026 0.46533181036 0.22277947758 0.086179161271 
0.038160652913 0.032810623714 0.049388050278 0.080338923028 0.11481813262 0.13211322539 0.13027071441 0.13740599248 0.20383959233 
0.46493396283 1.0431752429 0.5168279585 0.1885665484 0.086477578342 0.042523883147 0.015428541502 -0.009503459035 -0.036176514451 
-0.051968368733 -0.037729574549 0.0096016844242 0.078423182405 0.17105803406 0.29310410935 0.35801934044 0.41699706363 0 
0 
Abscissas 1 64 double
0 1.0444268503 2.024596987 3.0427832737 4.0575296858 5.0719920862 6.0866074217 7.1009831298 8.1129754276 
9.1203167017 10.133690036 11.148071762 12.16243097 13.176761416 14.19103648 15.205218282 16.219160798 17.232493437 
18.24463027 19.253720343 20.263488965 21.276029575 22.289800533 23.304005542 24.318348447 25.332665923 26.346706623 
27.36025343 28.373454361 29.387007949 30.401094291 31.415502577 32.430021827 33.444570932 34.459097805 35.473549844 
36.487855018 37.501953158 38.515937142 39.52996055 40.544121018 41.558367996 42.572678397 43.587027256 44.601437027 
45.615932281 46.630494307 47.645060584 48.659532769 49.673853595 50.688035657 51.702167566 52.716329113 53.730527322 
54.744746803 55.758957776 56.773134254 57.787283156 58.801473855 59.815561024 60.830214518 61.849740906 62.825217919 
63.873453453 
ParallelTransportNormals 3 64 double
0.17800112729 0 0.98403028342 0.25208953613 0.016537678013 0.9675625928 0.2914840155 0.037495816723 0.95584053714 
0.3215471705 0.059156539643 0.94504387251 0.33979983385 0.074578163622 0.93753622353 0.33959930401 0.0743978066 0.93762320742 
0.29144977816 0.031125121795 0.95607962723 0.080637471227 -0.1513660387 0.98518319137 -0.31119394276 -0.49587544387 0.81071935597 
-0.46796815194 -0.6662657281 0.58059950769 -0.49092808914 -0.70736527291 0.50855086469 -0.49248238148 -0.71305034762 0.49901934401 
-0.49198983757 -0.70593709392 0.5095084093 -0.49304709104 -0.69465324774 0.52379521897 -0.49571341596 -0.68367859041 0.53558546867 
-0.49921823205 -0.67488721142 0.54342286356 -0.50376957863 -0.66708075517 0.54883465428 -0.51683036784 -0.65131866622 0.55558110652 
-0.56607370646 -0.61006370652 0.55442116919 -0.66470629594 -0.55638336994 0.49860112895 -0.75430978583 -0.53208400824 0.3845820526 
-0.80391745643 -0.53420034359 0.26143204882 -0.82506294788 -0.54620797237 0.14466507161 -0.82816004295 -0.55961267947 0.031378212645 
-0.81836496684 -0.56856412564 -0.08374733473 -0.79890030686 -0.56568204722 -0.20435782626 -0.77379036501 -0.54078812604 -0.32984340792 
-0.75036848601 -0.4874777264 -0.44644439907 -0.73603865484 -0.41750058693 -0.5328605432 -0.73110947675 -0.35505278639 -0.58259458621 
-0.73094382503 -0.31392993052 -0.60594481875 -0.73178530199 -0.29616690604 -0.61382036098 -0.73126561701 -0.30174874534 -0.61171749367 
-0.72682697502 -0.3321059587 -0.60118897244 -0.71416589424 -0.39003041064 -0.58124293913 -0.68616832531 -0.47657771926 -0.54958776082 
-0.63312411842 -0.58758219551 -0.50388591386 -0.5487689279 -0.70744304969 -0.44539532465 -0.43892459837 -0.81394623001 -0.380574213 
-0.31919354038 -0.89315285026 -0.31684928571 -0.20111634546 -0.94528250962 -0.25689140233 -0.088438376893 -0.97589694005 -0.19950893686 
0.017084072882 -0.98951825524 -0.14339371327 0.10920091871 -0.98986977713 -0.090735790448 0.17890200324 -0.98273602616 -0.047159051317 
0.21816392481 -0.97570477106 -0.020117197583 0.22153263301 -0.97499474686 -0.017565195873 0.18752134135 -0.98120011687 -0.045629783989 
0.11931261521 -0.98717861411 -0.10603246532 0.025364196284 -0.9806963308 -0.19388492542 -0.078975839216 -0.95208624022 -0.29545660934 
-0.17886178986 -0.9007777523 -0.39573716163 -0.26755580248 -0.83119997654 -0.48736074069 -0.34350504519 -0.74738134794 -0.56870502431 
-0.40708344396 -0.65075861705 -0.6409339217 -0.45817249105 -0.54078177681 -0.70543110104 -0.49537412037 -0.41658984886 -0.7622711976 
-0.51642379708 -0.28201423146 -0.80856319176 -0.52177964099 -0.14724233211 -0.84027715778 -0.51655887009 -0.023230086209 -0.8559365028 
-0.50789067095 0.082601815277 -0.85745204325 -0.50170990109 0.16073594173 -0.84997125374 -0.49998196317 0.22345511038 -0.83671133024 
-0.49998196317 0.22345511038 -0.83671133024 
FrenetTangent 3 64 double
-0.95525645204 -0.20726563193 0.21101201069 -0.95525645204 -0.20726563193 0.21101201069 -0.85308623067 -0.45557883994 0.25434583471 
-0.77899926434 -0.56117224017 0.27972461997 -0.72874009387 -0.61570481752 0.29974231145 -0.70762562438 -0.63643436321 0.3069483296 
-0.71526853207 -0.64282179041 0.27417343561 -0.75195678597 -0.65096071478 0.10397663127 -0.7124278875 -0.62632766779 -0.31648089624 
-0.4798487912 -0.52182573902 -0.7052964169 -0.266732801 -0.4775388599 -0.83714410358 -0.13869976576 -0.50730016565 -0.85053448896 
-0.038839645852 -0.56084418473 -0.82700984418 0.057976127501 -0.61876279336 -0.78343562224 0.16331205227 -0.67218617068 -0.72214605554 
0.28521328182 -0.71543762908 -0.6378106167 0.43207978516 -0.74114727919 -0.51381686408 0.6059273118 -0.73131843287 -0.31309015087 
0.7663358119 -0.64219517038 0.017742224966 0.78651325033 -0.42800773499 0.44520364536 0.6092317176 -0.16511746245 0.7756113317 
0.37353195221 0.015982180507 0.92747962273 0.17727134115 0.10069561072 0.97899707129 0.027135954995 0.11742593288 0.99271082911 
-0.084523024974 0.077225010281 0.99342445915 -0.15927365202 -0.023578113482 0.98695287443 -0.19260077036 -0.19093016041 0.96252304757 
-0.17971257353 -0.40900065317 0.89466298494 -0.12780928543 -0.62414918351 0.77078050266 -0.061617504189 -0.78077577309 0.62176561125 
-0.0034980176505 -0.86960323003 0.49373878336 0.043265659608 -0.91331614979 0.40494653133 0.086800848165 -0.93225787781 0.35122764985 
0.13684519911 -0.93590064812 0.32459724017 0.20238354203 -0.92595087955 0.31883517776 0.29067928607 -0.89860548246 0.32865443789 
0.40417519202 -0.84579834034 0.34823495176 0.53454113046 -0.7595297137 0.37064861238 0.66106534309 -0.64094664765 0.39010255963 
0.7623014198 -0.50427173526 0.40571734297 0.82965365363 -0.36631945788 0.42128953203 0.86607117522 -0.23534507567 0.44105942321 
0.87724258964 -0.11323608077 0.46650083488 0.86815157315 -0.0033066511489 0.49628813414 0.84474189705 0.086484964904 0.52813963893 
0.81476214526 0.14590547486 0.56113656008 0.78607443418 0.16567640488 0.59551516588 0.76376969366 0.13939418508 0.63025797592 
0.74706064965 0.065495668867 0.66152150616 0.72948658476 -0.050351375733 0.68213932713 0.70309871609 -0.19279722535 0.68445702957 
0.66345224147 -0.34080982559 0.666092926 0.61054976068 -0.47895925734 0.6307353007 0.54514875574 -0.60160180979 0.58385622937 
0.4662444686 -0.70857816245 0.52965373896 0.37196443481 -0.80071841976 0.4695662589 0.2628053735 -0.87732002867 0.40155062315 
0.14631324933 -0.93543451095 0.32179917462 0.038652438004 -0.97268255226 0.22889875834 -0.041732712553 -0.99125989925 0.12514868295 
-0.08163938466 -0.9965617419 0.014131717659 -0.078760409938 -0.99246417623 -0.093870425187 -0.025515224725 -0.97759852813 -0.20892604218 
-0.025515224725 -0.97759852813 -0.20892604218 
FrenetNormal 3 64 double
0.24434789014 -0.95500213362 0.16812207875 0.24434789014 -0.95500213362 0.16812207875 0.50387646433 -0.84588524016 0.17489044907 
0.62178269459 -0.74892265202 0.22913127676 0.68467857717 -0.64720410863 0.33517471226 0.61142159804 -0.76926353233 -0.18546494891 
-0.32533785245 -0.040930309166 -0.94471159173 -0.13293625572 -0.0047472822555 -0.99111322019 0.28249227863 0.15686445498 -0.94635704429 
0.71392710583 0.23501714037 -0.65960217654 0.96193765787 -0.078367886705 -0.26179078806 0.90298035901 -0.41746246436 0.10174262674 
0.81095592893 -0.50124335429 0.30183701084 0.78770520648 -0.45376284751 0.41667707628 0.79081758689 -0.34844672347 0.50318229814 
0.78082010677 -0.21248628703 0.58751130941 0.72479220518 -0.053646925205 0.68687572873 0.57401094346 0.12943604736 0.80855287176 
0.26576840107 0.3420443308 0.90131727641 -0.17972002327 0.53106473823 0.82805250863 -0.58080422143 0.5730178989 0.57820147345 
-0.82342533717 0.46610949932 0.32359333853 -0.95516646493 0.25728761816 0.14649268177 -0.99503640081 -0.091939463736 0.038074874555 
-0.80803422431 -0.58868690869 -0.022987298264 -0.38263852485 -0.92009614186 -0.083730812935 -0.049651794421 -0.97773534208 -0.20388305512 
0.14478966123 -0.91056232662 -0.38718497303 0.26104804363 -0.77092142376 -0.58097683026 0.32572327562 -0.60457373597 -0.72690779711 
0.3801806667 -0.45782384931 -0.80365414432 0.49722721921 -0.3318759405 -0.80163798101 0.74627718737 -0.17270511089 -0.64284003008 
0.96451876471 0.05120030613 -0.25900208721 0.97303631086 0.22691447814 0.041354048798 0.92432146254 0.3524828416 0.14623843637 
0.86506455575 0.47715176226 0.15488547432 0.78138630809 0.61125916332 0.1256887934 0.66320645222 0.74228891591 0.095730700667 
0.51624844988 0.85182609783 0.088768446307 0.3503360227 0.92916123829 0.11800027317 0.17439735442 0.96906566363 0.17463476843 
0.00075324794664 0.97210441568 0.23454730361 -0.16263777736 0.94286500444 0.29078262806 -0.3198643735 0.87278528032 0.36869043523 
-0.49739276999 0.6732138485 0.54715952569 -0.59677214179 -0.047663323186 0.80099389411 -0.29550887553 -0.79256474993 0.53340005779 
-0.15398062216 -0.95102018216 0.26804958707 -0.15293033976 -0.98404668869 0.090908886546 -0.21284925278 -0.97547185044 -0.056123654471 
-0.29943835717 -0.93677915914 -0.18105655817 -0.39413256696 -0.87453512083 -0.28257360474 -0.49541874896 -0.79300916596 -0.35453734059 
-0.60082499506 -0.69307718821 -0.39831311363 -0.69635783361 -0.57519639533 -0.42922590133 -0.75757888112 -0.44535699841 -0.4772120942 
-0.76372326092 -0.31357022741 -0.56426987622 -0.69092130144 -0.19150345062 -0.69710414116 -0.49851074202 -0.087894246261 -0.86241616495 
-0.15078935957 -0.0016654904346 -0.9885645124 0.21797119833 0.074740018566 -0.97308914613 0.55222990556 0.16042816425 -0.81811058881 
0.55222990556 0.16042816425 -0.81811058881 
FrenetBinormal 3 64 double
0.16667099154 0.21216004006 0.96291686971 0.16667099154 0.21216004006 0.96291686971 0.13547099957 0.27735551389 0.9511685062 
0.080909992357 0.35242102398 0.9323373826 -0.012374229547 0.4494823906 0.89320348129 0.35416042293 0.056435087925 0.93348030278 
0.61850320031 -0.76492147019 -0.17985809865 0.64566937665 -0.75909657563 -0.082966528937 0.64237420374 -0.7636145594 0.065178117759 
0.50995414024 -0.82003953675 0.25977284889 0.059410060199 -0.87510862847 0.48026589836 -0.40668027518 -0.75390425969 0.51598403173 
-0.58381672059 -0.65894529382 0.47428803118 -0.61331825044 -0.64127364188 0.46109526121 -0.58986160906 -0.6532615348 0.47467109592 
-0.55585370803 -0.6655813825 0.49802417466 -0.53664077237 -0.66919557528 0.51399801893 -0.55078446747 -0.66964144092 0.49821361984 
-0.58489022935 -0.68599638404 0.43279600356 -0.59084483606 -0.7312862795 0.34076789331 -0.53991033574 -0.80273701243 0.25319975954 
-0.42713533543 -0.88458267254 0.1872669236 -0.2371326546 -0.96107412593 0.14179079166 0.095740278937 -0.98881660852 0.11434821247 
0.58304077953 -0.80466391824 0.11215804956 0.91006574656 -0.39098230433 0.13752517816 0.98002022559 -0.087059029962 0.17883255502 
0.97300531597 0.059955942567 0.22285856509 0.95682741677 0.12695650876 0.26146383958 0.94345515574 0.15773328733 0.29156916704 
0.92490563007 0.18489874345 0.33220781166 0.86654092528 0.23603383372 0.43976681794 0.65995149243 0.3179122425 0.68073183685 
0.22578074322 0.34852332131 0.9097002531 -0.11064013583 0.30186882627 0.9469075837 -0.24725571084 0.26127386642 0.93305979454 
-0.29716279803 0.23864484752 0.92452307068 -0.32202673395 0.22243392111 0.92022928304 -0.35092707775 0.19543428609 0.91578142912 
-0.39036403954 0.14178263674 0.90967774544 -0.43467169935 0.049693541292 0.89921691807 -0.46851497545 -0.074326542582 0.88032339674 
-0.48004673892 -0.20540349321 0.85285668985 -0.46889423051 -0.33315859507 0.81801195048 -0.42906632346 -0.48038131241 0.76494175253 
-0.29793133273 -0.72491013691 0.62108148772 0.16109002052 -0.98502768311 0.061404143181 0.57387312145 -0.5936416245 -0.56414471737 
0.64667639028 -0.30211079174 -0.70038469127 0.66667955859 -0.17063661224 -0.72554911117 0.67848905004 -0.1062256979 -0.72688975098 
0.68568782514 -0.079331392135 -0.72355976717 0.68694141628 -0.076068076384 -0.72272065029 0.67629364723 -0.095977732639 -0.7303527761 
0.64932689826 -0.13251791909 -0.74887487627 0.61378190492 -0.167329373 -0.77153914621 0.5975011084 -0.17879236915 -0.78168133801 
0.62874415607 -0.16320535591 -0.76029257395 0.72189593727 -0.13120625341 -0.67944917015 0.86587840994 -0.09837892871 -0.49048564259 
0.98518910871 -0.082836711145 -0.15013493722 0.97277199514 -0.097101949121 0.21044205129 0.83330132888 -0.13624948406 0.53576578221 
0.83330132888 -0.13624948406 0.53576578221 
