# vtk DataFile Version 4.2
vtk output
ASCII
DATASET POLYDATA
POINTS 64 float
0 0 0 -0.834903 -0.0305022 0.632325 -1.70537 0.0021655 1.07275 
-2.65821 0.0677496 1.42897 -3.63399 0.149071 1.69553 -4.62441 0.225067 1.90112 
-5.62376 0.270485 2.07024 -6.62557 0.249511 2.22868 -7.61471 0.113861 2.40706 
-8.55867 -0.178891 2.63347 -9.42249 -0.626728 2.91897 -10.2019 -1.18295 3.25368 
-10.9223 -1.79546 3.62134 -11.6155 -2.42877 4.00587 -12.31 -3.06226 4.38758 
-13.0311 -3.68717 4.73217 -13.8038 -4.30374 4.95779 -14.5978 -4.90065 4.78522 
-15.0574 -5.37115 4.02209 -15.153 -5.76883 3.0955 -15.0626 -6.19217 2.17825 
-14.8582 -6.67461 1.30974 -14.5748 -7.23224 0.511313 -14.2358 -7.87807 -0.193335 
-13.8646 -8.62536 -0.76949 -13.4941 -9.48413 -1.15969 -13.176 -10.4382 -1.27637 
-12.9762 -11.403 -1.04703 -12.9162 -12.267 -0.521409 -12.9551 -13.0059 0.172071 
-13.0432 -13.6637 0.939426 -13.1412 -14.2964 1.7265 -13.2121 -14.9584 2.49199 
-13.217 -15.694 3.19006 -13.1259 -16.5175 3.77467 -12.939 -17.4041 4.23009 
-12.682 -18.3192 4.58463 -12.3831 -19.2415 4.88367 -12.0597 -20.161 5.1653 
-11.717 -21.0709 5.455 -11.3473 -21.9627 5.76726 -10.9307 -22.823 6.10712 
-10.4389 -23.6315 6.47231 -9.84932 -24.3623 6.85577 -9.15885 -24.9911 7.25132 
-8.38646 -25.506 7.66004 -7.56125 -25.907 8.09258 -6.71246 -26.1996 8.56466 
-5.86746 -26.3908 9.09223 -5.05087 -26.4922 9.68539 -4.28005 -26.525 10.344 
-3.55922 -26.5234 11.0579 -2.87937 -26.5316 11.811 -2.22543 -26.5999 12.5835 
-1.58576 -26.7765 13.3506 -0.960417 -27.0905 14.0847 -0.359661 -27.5399 14.7672 
0.203829 -28.0976 15.4 0.71813 -28.7289 16.0051 1.16863 -29.4043 16.6132 
1.5324 -30.1028 17.253 1.77239 -30.8055 17.9504 1.8511 -31.4548 18.6762 
1.68171 -32.0607 19.5131 
LINES 1 65
64 0 1 2 3 4 5 6 7 8 9 10 11 12 13 14 15 16 17 18 19 20 21 22 23 24 25 26 27 28 29 30 31 32 33 34 35 36 37 38 39 40 41 42 43 44 45 46 47 48 49 50 51 52 53 54 55 56 57 58 59 60 61 62 63 

CELL_DATA 1
FIELD FieldData 2
Length 1 1 double
63.883390291 
Tortuosity 1 1 double
0.70039943542 
POINT_DATA 64
SCALARS MaximumInscribedSphereRadius float
LOOKUP_TABLE default
1.24 1.24 1.33091 1.50759 1.39794 1.21348 1.03246 1.02767 1.24745 
1.6276 1.76698 1.57951 1.78288 1.94062 1.89475 1.54111 1.12464 1.21465 
1.15605 1.29302 1.74157 2.0589 1.75348 1.62755 1.79983 1.87252 1.8848 
1.88204 1.86833 1.9639 2.12985 2.17 2.41467 2.81728 2.15002 1.82577 
2.39981 2.5156 2.40145 2.03165 2.16522 2.58793 2.36298 2.11838 2.2185 
2.22574 2.1948 2.19642 2.30506 2.47923 2.48717 2.48556 2.51615 2.73141 
2.89715 2.84999 2.65865 2.37201 2.04271 2.23417 2.72759 2.17067 1.96334 
2.17 
TEXTURE_COORDINATES TCoords 2 float
0 0 0.015873 0 0.031746 0 0.047619 0 0.0634921 
0 0.0793651 0 0.0952381 0 0.111111 0 0.126984 0 
0.142857 0 0.15873 0 0.174603 0 0.190476 0 0.206349 
0 0.222222 0 0.238095 0 0.253968 0 0.269841 0 
0.285714 0 0.301587 0 0.31746 0 0.333333 0 0.349206 
0 0.365079 0 0.380952 0 0.396825 0 0.412698 0 
0.428571 0 0.444444 0 0.460317 0 0.47619 0 0.492063 
0 0.507937 0 0.52381 0 0.539683 0 0.555556 0 
0.571429 0 0.587302 0 0.603175 0 0.619048 0 0.634921 
0 0.650794 0 0.666667 0 0.68254 0 0.698413 0 
0.714286 0 0.730159 0 0.746032 0 0.761905 0 0.777778 
0 0.793651 0 0.809524 0 0.825397 0 0.84127 0 
0.857143 0 0.873016 0 0.888889 0 0.904762 0 0.920635 
0 0.936508 0 0.952381 0 0.968254 0 0.984127 0 
1 0 
FIELD FieldData 7
Curvature 1 64 double
0 0.18952459404 0.1153262308 0.09083603504 0.061189567806 0.047077182311 0.065449165233 0.11417641229 0.16686419969 
0.18074566749 0.14260899376 0.085627930366 0.037095151464 0.0030206869668 0.045166941524 0.12684224321 0.40632468367 0.76994691294 
0.41415252693 0.18458076565 0.13411938528 0.12652725804 0.13698070358 0.16336059329 0.21342949565 0.29306562092 0.36925863951 
0.34431199756 0.22833853083 0.11727036238 0.03247553702 0.04410324841 0.11671140922 0.16914074495 0.16924157185 0.1230548116 
0.068004339855 0.029329867328 0.022363203492 0.038452689971 0.061143464189 0.092289988281 0.12316352709 0.14067489318 0.13765109222 
0.12470847845 0.1148496726 0.11276868502 0.11190659507 0.10259515522 0.079901244164 0.055954341537 0.066395026335 0.1066067309 
0.13875014769 0.14363613624 0.12181510407 0.090322207847 0.075536296 0.092687221052 0.13268308782 0.16906986271 0.26468912649 
0 
Torsion 1 64 double
0 0 0.085056486651 0.14092083255 0.39485271973 0.81205543132 0.52792844922 0.19963592968 0.093246428668 
0.064947599125 0.067858914478 0.092511981978 0.091087122992 -6.741545851 0.29856373863 0.38010372654 0.22302902712 0.16195499458 
0.36240654488 0.63933569654 0.41503365042 0.26792637183 0.19767964222 0.15805760507 0.11201107541 0.063165687108 0.027989728313 
0.0087780912037 -0.004959375184 -0.029925886171 -0.42626083194 -0.20164879028 -0.0073895894038 0.010264052329 0.020257274013 0.046187720263 
0.1518038434 0.72320144788 0.78064569509 -0.033627703892 -0.16763875261 -0.1147489138 -0.040401137194 0.028756460513 0.10742430034 
0.1927473198 0.24485842473 0.23529830635 0.20450840638 0.21787791608 0.37204984501 0.85972471506 0.65326285512 0.21651186476 
0.066706283788 -0.015716981811 -0.12672293726 -0.35508997586 -0.5409162101 -0.32143948854 -0.12231437514 -0.06793985093 0 
0 
Abscissas 1 64 double
0 1.0477727823 2.0238608451 3.0432210729 4.0580214147 5.0724061425 6.0869835908 7.1014658949 8.1156662907 
9.1295819014 10.143610737 11.157988501 12.172531459 13.187134783 14.201724043 15.216210764 16.230187416 17.238423523 
18.245880932 19.258723044 20.272998543 21.287298945 22.301573904 23.315761893 24.329756065 25.343182845 26.355583936 
27.367275921 28.380365279 29.394478944 30.408983371 31.423593831 32.438085424 33.452253309 34.466202032 35.480350192 
36.494789472 37.509362892 38.523960715 39.538551326 40.553109485 41.567611025 42.58198316 43.596221542 44.610430087 
45.6246941 46.639031205 47.653386488 48.667742853 49.682108956 50.696534429 51.711058427 52.72561105 53.740084201 
54.754363534 55.768537304 56.782772057 57.797169112 58.811674446 59.826016239 60.840659339 61.859356432 62.836363179 
63.883375906 
ParallelTransportNormals 3 64 double
0.60375004647 0 0.79717368333 0.45147717581 0.000392852213 0.89228258158 0.35052556682 0.0057985773567 0.9365352121 
0.26445471946 0.012356079419 0.9643189455 0.20448174104 0.017154514586 0.97872005201 0.16768743298 0.019399727962 0.98564931663 
0.15577697233 0.019545193675 0.98759886609 0.17464180106 0.021029404421 0.98440743875 0.22374880496 0.031912850517 0.97412424375 
0.28628066811 0.057529792218 0.9564171172 0.33844398434 0.089401106453 0.93673001 0.37190334745 0.11547368421 0.92106119689 
0.38787333353 0.12954873246 0.91256309538 0.38576870597 0.12762746456 0.91372519708 0.35614122507 0.10128981764 0.92892615457 
0.26275603588 0.023677305417 0.96457174477 -0.048479608855 -0.21736366215 0.97488602713 -0.48162470318 -0.58618713946 0.65147700099 
-0.57352807149 -0.72968818177 0.37231802079 -0.57374767696 -0.76369804627 0.29593731991 -0.57290910149 -0.76627524791 0.29085633202 
-0.58069196553 -0.7496795263 0.31745464088 -0.60002809717 -0.71229444545 0.36414681871 -0.63470941585 -0.64426838287 0.42668748314 
-0.69007674407 -0.5243803728 0.49881791459 -0.76641577609 -0.32339270545 0.55499911371 -0.84122799043 -0.046168809959 0.5387057723 
-0.87678493597 0.20400297366 0.43546637391 -0.87871778697 0.35045438725 0.32409377243 -0.8727920988 0.41559064627 0.25596555825 
-0.87062217154 0.43063766993 0.23784076956 -0.87400913332 0.40466816624 0.26898273198 -0.87791432754 0.33262930132 0.34441861362 
-0.87147663726 0.21617801732 0.4402221434 -0.85049613002 0.08711441873 0.51871708172 -0.82574256013 -0.013366824575 0.56388877662 
-0.80792875873 -0.072248458228 0.58483440485 -0.79880894819 -0.099236902561 0.59334332512 -0.79506609627 -0.10951628354 0.59655350658 
-0.79162728911 -0.11821404427 0.59945948559 -0.78229020185 -0.13901888479 0.60720325244 -0.75993006964 -0.18009544373 0.6245573796 
-0.71933185867 -0.23788764873 0.65266464871 -0.66371884215 -0.29695550179 0.68650908845 -0.60716206824 -0.34117314934 0.71760372425 
-0.56519736329 -0.36523098831 0.73970147067 -0.5458825723 -0.37323398916 0.75013905817 -0.55071736409 -0.37185285364 0.74728564828 
-0.57601574782 -0.36739821116 0.73022216667 -0.61393714532 -0.36419261897 0.70031772638 -0.65518471225 -0.3633288058 0.66236332304 
-0.69355034772 -0.36314752448 0.62218308451 -0.72723557909 -0.36121529818 0.58365393931 -0.75643330914 -0.35568787948 0.54890325306 
-0.78213948622 -0.34571862645 0.51839797011 -0.8056829532 -0.33106098495 0.49119609441 -0.8292325621 -0.31068945756 0.46459166902 
-0.85589124951 -0.28127949216 0.43397236812 -0.8879504478 -0.23785955177 0.39365827297 -0.92560622854 -0.17432593865 0.33595174773 
-0.96504743261 -0.082831283773 0.24864116962 -0.99083788788 0.027653769272 0.13219511709 -0.98050805958 0.18578183044 -0.063945731529 
-0.98050805958 0.18578183044 -0.063945731529 
FrenetTangent 3 64 double
-0.84645640227 0.0010748409182 0.53245695016 -0.84645640227 0.0010748409182 0.53245695016 -0.91523622142 0.04931895826 0.39988785847 
-0.94912547315 0.072296117593 0.30648671683 -0.96942848559 0.077564829241 0.23279198567 -0.98096413682 0.059857566229 0.18473341343 
-0.98679522897 0.012053621662 0.16152364003 -0.98303708349 -0.077333554443 0.16630578415 -0.95652800469 -0.21197996442 0.20029645761 
-0.89513888626 -0.36670939795 0.25347700441 -0.81222705622 -0.49629337051 0.30656173852 -0.73991987183 -0.5765849649 0.34650881882 
-0.69675894808 -0.61406034128 0.3707517573 -0.68386855185 -0.62428808886 0.37760850876 -0.69783909588 -0.62034529705 0.3580395351 
-0.73792849886 -0.61328426845 0.28168055779 -0.79030597111 -0.61212771919 0.026760557106 -0.66195573941 -0.56363920126 -0.494090528 
-0.2805206155 -0.43865723462 -0.85374938641 -0.0025765183988 -0.40677238998 -0.91352590784 0.14565727145 -0.44753587749 -0.88232397544 
0.24095532003 -0.5137558551 -0.82340479419 0.30757175332 -0.59471409607 -0.74277504031 0.35135912417 -0.68922223779 -0.63365564213 
0.3679460343 -0.79674164864 -0.47939384764 0.34355006198 -0.90444519959 -0.25288779299 0.26015662051 -0.96390653864 0.056592557489 
0.13019369466 -0.91646764497 0.37833405555 0.010477012842 -0.79590397897 0.6053322133 -0.062713581115 -0.68970199046 0.72137242192 
-0.091726397981 -0.63607138109 0.76615890393 -0.083259511938 -0.6382223205 0.76533660783 -0.037430179063 -0.69013805786 0.7227090997 
0.042656994218 -0.77153957032 0.63474961384 0.13757331574 -0.84627429668 0.51467795521 0.21924782168 -0.88988248189 0.40004944835 
0.27413109752 -0.90607677347 0.32229958415 0.3067097089 -0.90775740644 0.28619162378 0.32829090077 -0.90162961801 0.28158323174 
0.35114519741 -0.88806586541 0.29670872758 0.38769355228 -0.86389180187 0.32153485687 0.44823427447 -0.8234410614 0.34789488871 
0.53410061975 -0.76027081867 0.36976318132 0.63264277621 -0.67195888786 0.38501216959 0.72290852921 -0.56518748768 0.39744982346 
0.78910267466 -0.45239033068 0.41552371479 0.82655895626 -0.3424736886 0.44666773384 0.8362700154 -0.23886554532 0.49355416379 
0.82034744934 -0.1444605273 0.55331836984 0.78350663704 -0.066237405949 0.61784298634 0.73579664701 -0.015389504857 0.67702766368 
0.69056537576 -0.0032545999047 0.72326265587 0.65772595482 -0.037724074247 0.75231207792 0.63857475609 -0.1208917686 0.76000490865 
0.62516123953 -0.24245162772 0.74188316654 0.60605557642 -0.37734497955 0.70021954036 0.57499866679 -0.49738781767 0.64960133314 
0.5317804899 -0.5866513781 0.61077792292 0.47589205946 -0.64453502576 0.59841569858 0.40175292871 -0.67786866581 0.61570175912 
0.29759606443 -0.69065755685 0.65911207059 0.16025452963 -0.67983695979 0.71563970952 -0.045194592444 -0.62558695193 0.77884428122 
-0.045194592444 -0.62558695193 0.77884428122 
FrenetNormal 3 64 double
-0.50246541337 0.32927101732 -0.79944299704 -0.50246541337 0.32927101732 -0.79944299704 -0.37339097612 0.26911320413 -0.88778221559 
-0.29090129895 0.17135996981 -0.94128220796 -0.23902622026 -0.08411696102 -0.96736280831 -0.18051762944 -0.63171713754 -0.75388781898 
-0.037992724314 -0.98663065728 -0.15848185702 0.10594077786 -0.97961288726 0.17069019511 0.26352715073 -0.92243735197 0.28224594332 
0.43538865555 -0.84127089164 0.32046841576 0.58021292516 -0.74167218353 0.33656401124 0.67267044368 -0.63858466438 0.37379687079 
0.7139446677 -0.54370241817 0.4412150178 -0.43201716212 -0.070583607693 -0.89909906348 -0.57322058152 0.18397511538 -0.79848063335 
-0.40020907277 0.061587229007 -0.91435207185 -0.064952480439 0.040269434898 -0.99707549759 0.48361860995 0.18244566631 -0.85605292999 
0.90130542102 0.18550021774 -0.39145652027 0.98944193089 -0.13341413859 0.056615660519 0.82995924891 -0.43012956732 0.3551847413 
0.60946601814 -0.5801618047 0.54033642585 0.39670561964 -0.62939049841 0.66820075714 0.19335345403 -0.60879993005 0.76940047244 
-0.0022372418134 -0.51631906293 0.85639337924 -0.17688093034 -0.32677403199 0.92840285894 -0.32276026755 -0.031573876918 0.94595396293 
-0.40843751759 0.29812655206 0.86272785581 -0.427203895 0.54377495695 0.72236114811 -0.40897907933 0.67708033547 0.61179925792 
-0.29612563708 0.75201820883 0.58887878264 0.59713523208 -0.64680592737 -0.47441712336 0.55143945326 -0.61739729534 -0.56101257481 
0.5559945174 -0.50952821676 -0.65669710898 0.55442640851 -0.36479426748 -0.74802172426 0.5552274971 -0.22336090024 -0.80114439068 
0.59884970508 -0.10140052097 -0.79441611582 0.81174049215 0.092464898284 -0.57665207534 0.8392012202 0.4152332743 0.35117323349 
0.68149499473 0.45971068671 0.56941255402 0.74684754919 0.49883851067 0.43974865383 0.79420513029 0.54545911633 0.26779201527 
0.77506011672 0.61502136997 0.14501906752 0.70099828401 0.70818391996 0.084124558393 0.58092292934 0.80860091271 0.093236871093 
0.41301780556 0.89147892381 0.18623002091 0.20002502241 0.9205097837 0.33563630393 -0.032745572576 0.87676118587 0.47980991072 
-0.24762890652 0.78241557558 0.57140685308 -0.43496835197 0.65161052703 0.62145494917 -0.61002963382 0.41904253327 0.67250814209 
-0.71308191595 -0.17031569028 0.68007848576 -0.37785673677 -0.88052008838 0.28619689104 -0.12975138713 -0.99035904782 -0.048513234627 
-0.10031320375 -0.96760426315 -0.23168783111 -0.16754566229 -0.92112163364 -0.35137357199 -0.29918699077 -0.86682180495 -0.39888231726 
-0.53089120654 -0.79283141732 -0.2992872709 -0.82111792689 -0.56937324138 0.039742447515 -0.91256005771 -0.24030238722 0.33089107539 
-0.9153934977 -0.010386509636 0.40242622278 -0.92509549062 0.14941904458 0.34910210877 -0.92044763356 0.32907792894 0.21091199719 
-0.92044763356 0.32907792894 0.21091199719 
FrenetBinormal 3 64 double
-0.1761819157 -0.94423484466 -0.2781734903 -0.1761819157 -0.94423484466 -0.2781734903 -0.15139959692 -0.96184495825 -0.22788689812 
-0.12057060374 -0.98255230503 -0.14161107791 -0.055451576656 -0.99343245071 0.10008540609 0.071573373087 -0.77288455148 0.6304972025 
0.15745389479 -0.16252586351 0.97406037529 0.14971520988 0.18541335572 0.97118857255 0.12493044894 0.32275970377 0.93819963577 
0.095724045702 0.39722475293 0.91271540073 0.060333826466 0.45123747913 0.89036204255 0.0057495621402 0.50966597362 0.86035314718 
-0.069354017424 0.57211675184 0.81723463126 0.58794980688 -0.77799893087 -0.22143325892 0.42946334091 -0.76244663377 -0.4839797201 
0.54340981647 -0.78745756666 -0.29088889987 0.60925991769 -0.78973288396 -0.07158438856 0.5726496653 -0.80562052459 0.15181545108 
0.33008593173 -0.87930057417 0.34332750827 -0.14490695962 -0.90373496689 0.40282140296 -0.53847154467 -0.78402818423 0.3087850416 
-0.7553090139 -0.63203417765 0.17332366198 -0.8648839621 -0.50018271106 0.042343684874 -0.91605742597 -0.3928553832 -0.080643909946 
-0.92984445505 -0.31403402773 -0.19176005537 -0.92232667282 -0.27422183164 -0.27224234729 -0.91002436368 -0.26436201515 -0.31932488542 
-0.90345359377 -0.2668475495 -0.33550557258 -0.90409461026 -0.26616846632 -0.33431614265 -0.91038624738 -0.25665810658 -0.32453581761 
-0.95073438719 -0.17286356395 -0.25733696447 0.79780785173 0.41750971479 0.4349577793 0.83337477229 0.37753150967 0.40367864462 
0.83009064413 0.38093003 0.40723682886 0.82078312626 0.38825887909 0.41901086198 0.80227976365 0.39776761642 0.4451158323 
0.75248333676 0.41078317264 0.51480677247 0.49699751295 0.4091781197 0.76522332589 -0.43355091568 0.12101801451 0.89296598126 
-0.64207602547 0.0022590290471 0.76663764211 -0.54028922606 0.069649802117 0.8385919492 -0.41027337986 0.15626634574 0.89847458671 
-0.33766602353 0.20913392063 0.91773888432 -0.32918767219 0.21667207604 0.91906946851 -0.37407460294 0.16348598636 0.91287486749 
-0.45467929483 0.024664085242 0.89031366481 -0.5261086221 -0.18807846959 0.82935891328 -0.54733918991 -0.41741235512 0.72538730136 
-0.51547064612 -0.60576977734 0.60608001935 -0.44375655769 -0.75565622284 0.48172999739 -0.2940529546 -0.90783617379 0.29894203692 
0.12096959511 -0.98538417545 -0.11993491499 0.65162938457 -0.47250531022 -0.59339521146 0.75854258841 -0.067632364152 -0.64810416207 
0.77402240648 0.070421574442 -0.62922978006 0.77757642026 0.095633166076 -0.62147341714 0.76148780538 0.035004532571 -0.6472333466 
0.65982121622 -0.16510149689 -0.73306033746 0.31510648656 -0.51028297304 -0.80019946861 -0.076346089275 -0.69480129145 -0.71513805663 
-0.27109283797 -0.7231073638 -0.63531442107 -0.34426271794 -0.71798026242 -0.60496902715 -0.38824425648 -0.70735329381 -0.59069257237 
-0.38824425648 -0.70735329381 -0.59069257237 
