# vtk DataFile Version 4.2
vtk output
ASCII
DATASET POLYDATA
POINTS 64 float
0 0 0 -0.308675 0.665585 0.630333 -0.719831 1.43165 1.28596 
-1.16738 2.12453 1.81023 -1.69979 2.84223 2.31966 -2.29789 3.52306 2.76655 
-2.96919 4.17116 3.16813 -3.71031 4.76913 3.51797 -4.51868 5.30579 3.81514 
-5.38884 5.76848 4.05708 -6.31361 6.143 4.24241 -7.28382 6.41123 4.37175 
-8.28647 6.54805 4.44984 -9.3004 6.52278 4.48901 -10.2925 6.30961 4.51271 
-11.2227 5.90511 4.55309 -12.0602 5.33816 4.63899 -12.7973 4.65548 4.7825 
-13.4447 3.89857 4.97671 -14.0184 3.09231 5.20142 -14.5293 2.24526 5.4276 
-14.9776 1.35489 5.61727 -15.3464 0.414752 5.71991 -15.5943 -0.568369 5.67048 
-15.6621 -1.5485 5.41207 -15.5177 -2.44591 4.95981 -15.1816 -3.21719 4.39132 
-14.6925 -3.8632 3.77996 -14.087 -4.40464 3.17154 -13.397 -4.86733 2.58881 
-12.6507 -5.279 2.03826 -11.8725 -5.66713 1.51557 -11.0838 -6.057 1.01014 
-10.3026 -6.46946 0.511142 -9.5425 -6.92035 0.0123791 -8.81354 -7.42058 -0.484247 
-8.12057 -7.98402 -0.970049 -7.47793 -8.62112 -1.41799 -6.8973 -9.38255 -1.78359 
-6.50405 -10.3115 -1.87254 -6.6622 -11.1433 -1.30808 -7.1801 -11.4921 -0.505892 
-7.80767 -11.5576 0.293532 -8.46915 -11.4738 1.0562 -9.14723 -11.2578 1.78081 
-9.81825 -10.9312 2.46801 -10.4603 -10.503 3.12701 -11.047 -9.98946 3.77639 
-11.5503 -9.41542 4.44496 -11.9385 -8.82168 5.17072 -12.174 -8.27827 5.99591 
-12.2119 -7.90951 6.94298 -12.0358 -7.86627 7.94059 -11.6962 -8.1988 8.83984 
-11.2803 -8.8158 9.53217 -10.8437 -9.60084 10.0054 -10.4123 -10.4798 10.2734 
-10.0005 -11.4046 10.3484 -9.62012 -12.3391 10.2341 -9.283 -13.2472 9.9369 
-9.00567 -14.0918 9.42837 -8.80346 -14.8061 8.7787 -8.70428 -15.3554 7.85113 
-8.70505 -15.6499 6.92705 
LINES 1 65
64 0 1 2 3 4 5 6 7 8 9 10 11 12 13 14 15 16 17 18 19 20 21 22 23 24 25 26 27 28 29 30 31 32 33 34 35 36 37 38 39 40 41 42 43 44 45 46 47 48 49 50 51 52 53 54 55 56 57 58 59 60 61 62 63 

CELL_DATA 1
FIELD FieldData 2
Length 1 1 double
63.956385559 
Tortuosity 1 1 double
2.3308751205 
POINT_DATA 64
SCALARS MaximumInscribedSphereRadius float
LOOKUP_TABLE default
0.93 1.18864 1.44289 1.45959 1.35402 1.23085 1.10832 1.00647 1.06867 
1.30689 1.4302 1.29208 1.06108 0.93 0.937162 0.977079 1.11169 1.19396 
1.1132 0.989315 0.864275 0.734779 0.624703 0.621195 0.647445 0.787623 0.894291 
0.93 0.950386 1.01913 1.14566 1.29641 1.64042 1.97846 2.07344 2.00862 
1.89084 1.76282 1.61529 1.43456 1.31659 1.35903 1.49484 1.66972 1.80542 
1.86 1.86 1.86 1.86 1.84045 1.72442 1.64389 1.70056 1.82727 
1.86 1.8581 1.75863 1.64117 1.62053 1.69672 1.78443 1.78294 1.6638 
1.55 
TEXTURE_COORDINATES TCoords 2 float
0 0 0.015873 0 0.031746 0 0.047619 0 0.0634921 
0 0.0793651 0 0.0952381 0 0.111111 0 0.126984 0 
0.142857 0 0.15873 0 0.174603 0 0.190476 0 0.206349 
0 0.222222 0 0.238095 0 0.253968 0 0.269841 0 
0.285714 0 0.301587 0 0.31746 0 0.333333 0 0.349206 
0 0.365079 0 0.380952 0 0.396825 0 0.412698 0 
0.428571 0 0.444444 0 0.460317 0 0.47619 0 0.492063 
0 0.507937 0 0.52381 0 0.539683 0 0.555556 0 
0.571429 0 0.587302 0 0.603175 0 0.619048 0 0.634921 
0 0.650794 0 0.666667 0 0.68254 0 0.698413 0 
0.714286 0 0.730159 0 0.746032 0 0.761905 0 0.777778 
0 0.793651 0 0.809524 0 0.825397 0 0.84127 0 
0.857143 0 0.873016 0 0.888889 0 0.904762 0 0.920635 
0 0.936508 0 0.952381 0 0.968254 0 0.984127 0 
1 0 
FIELD FieldData 7
Curvature 1 64 double
0 0.076161601337 0.10084224019 0.073235547114 0.092761133314 0.089757201731 0.097576581009 0.10240804995 0.10819623187 
0.11512613001 0.12521496672 0.14122755714 0.16329040646 0.18584797384 0.19778589105 0.188518973 0.1599422878 0.1237937411 
0.091282258484 0.072839626356 0.082136936511 0.12471199372 0.19497134154 0.27256838394 0.29640619671 0.2535949891 0.19828350196 
0.15283112837 0.11528995864 0.080269853031 0.047092880183 0.019699393182 0.023953981908 0.042600981572 0.056779316146 0.07137654016 
0.094373941963 0.15632498753 0.37242302521 1.0178161275 0.69647360181 0.30012363702 0.15344381857 0.13528533854 0.11389727141 
0.10652087525 0.099473179972 0.10205136953 0.12677208191 0.18499126664 0.28709504884 0.39572192819 0.42700838049 0.35944875363 
0.27340776571 0.2217808038 0.19532233544 0.18808628421 0.18608953661 0.2228632715 0.20274989343 0.31200524627 0.24077462805 
0 
Torsion 1 64 double
0 0 0.11306615478 0.17665232049 0.080214975625 0.091539786995 0.054987199454 0.048922484287 0.048526357146 
0.064974884888 0.094332344788 0.12680839788 0.14918780599 0.15798110623 0.15540652656 0.14204439919 0.10724954801 0.025112428449 
-0.15581528201 -0.42986014397 -0.40461299671 -0.16963406875 -0.040501588436 0.024488580483 0.071228475082 0.12063372789 0.1531324291 
0.15525497207 0.14869777839 0.17069739573 0.30986426816 1.3161903577 0.67131931836 0.087282296595 -0.072494137425 -0.16514266708 
-0.21088019735 -0.21384008671 -0.087618211379 -0.010752036518 0.010133325023 0.036823990864 0.0015400159562 -0.069542175504 -0.14809657141 
-0.24420633373 -0.38478475155 -0.50015366207 -0.47408203761 -0.35218823077 -0.21511948937 -0.12267759029 -0.070546473776 -0.034445209795 
-0.0032109985124 0.011443899065 0.014916407884 0.012853980785 0.016040572543 0.011077245333 0.018462684642 0.0091467906637 0 
0 
Abscissas 1 64 double
0 0.96726635986 2.0561840047 3.0335565574 4.0621790511 5.0726079443 6.0884471527 7.102958445 8.1177403411 
9.1325255407 10.14732447 11.162201061 12.177153292 13.192157485 14.207153773 15.222300498 16.237344132 17.252187147 
18.266953581 19.281663641 20.296401785 21.311149497 22.326253412 23.34134984 24.35724115 25.372484175 26.387896942 
27.402925977 28.417802539 29.432571542 30.447246448 31.461867652 32.476480402 33.491069913 34.505881887 35.51990834 
36.536608792 37.546327938 38.571302904 39.583961991 40.60157285 41.618142731 42.636575664 43.649606981 44.665239594 
45.679735965 46.694563123 47.709293674 48.724058535 49.738943175 50.754653009 51.771689009 52.785655496 53.80278643 
54.819161185 55.834466516 56.849606695 57.864685717 58.880109285 59.893304811 60.917446753 61.903940282 62.986518003 
63.956403756 
ParallelTransportNormals 3 64 double
-0.90718945944 -0.4207223368 0 -0.89094610205 -0.45316730361 -0.029230774413 -0.86119263704 -0.50346667793 -0.069774967659 
-0.83193106002 -0.54566106215 -0.10072098406 -0.78732881679 -0.60079628974 -0.13840936557 -0.73568654676 -0.65487245982 -0.1729374635 
-0.6716613149 -0.71135324895 -0.20699669868 -0.59645683793 -0.7664232803 -0.23840007528 -0.50922245188 -0.81836056362 -0.2664178718 
-0.40861521089 -0.86528668723 -0.2903662486 -0.29151074327 -0.90500705788 -0.30981238152 -0.15265253222 -0.93351679948 -0.32441268392 
0.010593052844 -0.9425472269 -0.33390494499 0.18983726737 -0.92124159027 -0.3395228185 0.36162027177 -0.86604483521 -0.3452493627 
0.49879281728 -0.79066209631 -0.35504813038 0.59202068433 -0.71667468522 -0.36863112306 0.6511318682 -0.6552094805 -0.38305068447 
0.69193815682 -0.6029698252 -0.39705034572 0.72748924149 -0.54877623231 -0.4118301232 0.76685186297 -0.47748026553 -0.42889487789 
0.81543885865 -0.36864296731 -0.44627550959 0.87053569551 -0.19682625486 -0.45102885521 0.90958399948 0.045957129917 -0.41297081022 
0.89906606385 0.3036106439 -0.31543745772 0.8404734281 0.50708377608 -0.1909724082 0.75949518006 0.64615176097 -0.075199556292 
0.67623099876 0.73647967316 0.017587704095 0.60326866234 0.79303065665 0.084671711026 0.54937737785 0.82583685712 0.12719269684 
0.51936266842 0.84158348591 0.14832280637 0.51439057319 0.84405227168 0.15158529244 0.53112032393 0.83550204257 0.14088129179 
0.563523726 0.81735169037 0.11990506449 0.60527165547 0.7906848981 0.091997907609 0.65406878679 0.75418631054 0.058284055711 
0.71049971314 0.7034454342 0.018832916288 0.78724919363 0.61579217918 -0.032228856548 0.91388479478 0.39560044267 -0.091185917879 
0.98713113388 -0.14992606409 0.055626430999 0.83637306338 -0.41308564567 0.3603336623 0.7177897801 -0.45600481297 0.52615343973 
0.64738270367 -0.45498268817 0.61146249963 0.58586970181 -0.44122582902 0.67976206154 0.53978562184 -0.42268815998 0.7279877759 
0.50920417579 -0.40510912189 0.75934031022 0.50099975529 -0.39882127348 0.768076062 0.51822944009 -0.41601401474 0.74724198689 
0.55912690753 -0.46958710845 0.68327523653 0.61312537207 -0.5680293623 0.5490172326 0.65192087438 -0.69741086471 0.29768651184 
0.62525344039 -0.77663925797 -0.076743718013 0.52054618795 -0.71799718074 -0.46207327844 0.39238093581 -0.55690611487 -0.73204697966 
0.28204569995 -0.37542990297 -0.88289445071 0.19031609294 -0.1995793463 -0.96122207075 0.11147676267 -0.030935833663 -0.99328540993 
0.039813053789 0.13726808355 -0.98973349645 -0.024592759875 0.30267521245 -0.95277642285 -0.090856170677 0.491623854 -0.86605493038 
-0.13790141888 0.64476973957 -0.75183454404 -0.18418769474 0.83695919944 -0.51533890944 -0.19511071557 0.93450527134 -0.29771077661 
-0.19511071557 0.93450527134 -0.29771077661 
FrenetTangent 3 64 double
-0.35034716555 0.69679486093 0.62588639974 -0.35034716555 0.69679486093 0.62588639974 -0.41613908072 0.70702287987 0.57179271841 
-0.48884478525 0.70365667182 0.51565304628 -0.5550467071 0.68663655666 0.46952464472 -0.62711594054 0.65652540748 0.41916582214 
-0.69650452928 0.61447266375 0.37054660463 -0.76459308772 0.55988094564 0.31926593448 -0.82828014502 0.49313465957 0.26602670711 
-0.88588526538 0.41320395158 0.2108786167 -0.93551095346 0.31731201714 0.15534587134 -0.97441297433 0.20005763913 0.10245143477 
-0.99679493242 0.055139072077 0.05796158578 -0.99252939007 -0.11797373271 0.031106401843 -0.95158005827 -0.30575997885 0.031721097742 
-0.87466777486 -0.48067872747 0.062483954589 -0.7782501468 -0.61763277993 0.11338632265 -0.68347975115 -0.71067550854 0.16672057861 
-0.60231833789 -0.77104745132 0.20663602698 -0.53479234513 -0.81521111582 0.22232405231 -0.4730449756 -0.85683680672 0.20508324581 
-0.40334745765 -0.90359842268 0.14429386312 -0.30523445688 -0.95191298854 0.026336069824 -0.15689581824 -0.97569348507 -0.15298995197 
0.038128465741 -0.93456511793 -0.35374321258 0.23854650876 -0.82842874253 -0.50675574166 0.4084492441 -0.701515949 -0.58399022962 
0.54084484933 -0.5867225202 -0.60269688339 0.63937808641 -0.49557614525 -0.58787749309 0.70832072214 -0.43119606557 -0.55888434191 
0.75146639674 -0.39424257491 -0.52902839877 0.77219124605 -0.38341012949 -0.50667282553 0.77369772721 -0.39541417158 -0.49501460567 
0.75966640785 -0.42552235069 -0.49176994402 0.73425536322 -0.46899731793 -0.49082642284 0.70066677988 -0.5241317649 -0.48409911857 
0.65985010286 -0.59311967519 -0.4613099746 0.60309218764 -0.68949801273 -0.40108889744 0.48618470332 -0.84387833867 -0.22692241796 
0.12784676461 -0.9574919867 0.25858132221 -0.35058226235 -0.61222892281 0.70870856028 -0.56926549557 -0.20589508719 0.795954778 
-0.63645207584 0.0090354232226 0.77126332487 -0.6618605092 0.14812753621 0.73484617396 -0.66564887348 0.26771983856 0.69659002668 
-0.64799487273 0.37249066491 0.6643443004 -0.6062039978 0.46460750224 0.6454894127 -0.5377929104 0.53659964175 0.65026118598 
-0.44013906059 0.57653986018 0.68838898667 -0.30849199502 0.56245235522 0.76712452517 -0.13589172743 0.45338932437 0.88089247866 
0.069355059667 0.20676052108 0.97593030623 0.25955167549 -0.14559973023 0.95469034053 0.37748979161 -0.47443788868 0.79524219393 
0.42355831764 -0.69659299739 0.5790997734 0.43015950607 -0.82463780279 0.36733539654 0.41733461778 -0.89275510019 0.1697649784 
0.39189524892 -0.91980439615 -0.019441879795 0.35524523586 -0.91229974715 -0.20374001509 0.30350332024 -0.86573330751 -0.39798439024 
0.23972333871 -0.77929846139 -0.57898758964 0.14749907053 -0.61840162635 -0.7718960116 0.048305707001 -0.41419089245 -0.90890729081 
0.048305707001 -0.41419089245 -0.90890729081 
FrenetNormal 3 64 double
-0.74692517626 0.19533723844 -0.63556757654 -0.74692517626 0.19533723844 -0.63556757654 -0.77431694384 0.054141055885 -0.63047760987 
-0.81309464477 -0.15334296441 -0.5615719312 -0.78799280288 -0.25323017143 -0.56119677734 -0.75916685733 -0.39472331945 -0.51755114125 
-0.70535226291 -0.49148607668 -0.5108029186 -0.6375780195 -0.58457200125 -0.50176672309 -0.55616806318 -0.66592698689 -0.49721055262 
-0.46212360543 -0.74624527282 -0.47912395692 -0.3531626001 -0.82774359918 -0.43602375155 -0.22366797252 -0.90804849802 -0.35414765751 
-0.067212119983 -0.97015983631 -0.23296442417 0.11511875861 -0.99000194064 -0.081509686253 0.30736350276 -0.94799688774 0.082641260927 
0.48087751168 -0.84428418462 0.23651857086 0.6127798696 -0.70750592813 0.35204572583 0.70580143243 -0.58510066869 0.39937644583 
0.78552334258 -0.52645861377 0.32526052057 0.83842475393 -0.5446631881 0.019645445502 0.74154440708 -0.51290746203 -0.43247870204 
0.62242890475 -0.38651927445 -0.6805770412 0.60763681105 -0.21598600765 -0.76428237606 0.65324439032 0.01365771326 -0.75702393185 
0.70958929537 0.27457210631 -0.64891693639 0.74512118084 0.49078965574 -0.45157495466 0.75687778512 0.61790984369 -0.21289303294 
0.7443602154 0.66753213505 0.018130593097 0.71465853497 0.66509301348 0.21659746491 0.68323375768 0.61777691427 0.38928564907 
0.6590739907 0.48541696372 0.57444916757 0.51667635818 -0.085224890093 0.85192855276 -0.30247356579 -0.91707089691 0.25978974583 
-0.48488682071 -0.87454303509 0.0076974585553 -0.52369108876 -0.85137657199 0.030092793549 -0.51521039311 -0.84104980013 0.16490447091 
-0.47298651317 -0.8049072652 0.35834069374 -0.44308765508 -0.70768806874 0.55031893233 -0.48531100628 -0.47669902694 0.7329606162 
-0.64162773146 0.11896285459 0.75773457982 -0.55621865524 0.7449315559 0.36837180211 -0.35743992651 0.93382998808 -0.014080209574 
-0.23740187702 0.9490949435 -0.20702448409 -0.10739099273 0.95143486323 -0.28851148281 0.053826411136 0.94822791713 -0.31299606169 
0.26693359766 0.92799337133 -0.25995145163 0.54106452315 0.83577448578 -0.093435489552 0.79623063951 0.57679869566 0.18253775879 
0.88543189309 0.15120661239 0.43948483828 0.80917429935 -0.26879465707 0.52248099065 0.68078036875 -0.60323718926 0.41550328882 
0.54533969586 -0.82703278356 0.13646021779 0.38596971539 -0.8905429336 -0.2407502071 0.21280266037 -0.79135091294 -0.57313066602 
0.076374818886 -0.60953864994 -0.78906876841 -0.022699730375 -0.41665757433 -0.9087800548 -0.098281754946 -0.23005545043 -0.96820203799 
-0.16412387608 -0.049102721783 -0.9852168675 -0.22385152388 0.12858897651 -0.96610318826 -0.27642623787 0.31972206402 -0.90629263309 
-0.3257672427 0.49723120995 -0.80413731877 -0.3611949537 0.69285170077 -0.62409512588 -0.37927935653 0.83420692608 -0.40030734966 
-0.37927935653 0.83420692608 -0.40030734966 
FrenetBinormal 3 64 double
-0.56511914201 -0.6901596084 0.4520177765 -0.56511914201 -0.6901596084 0.4520177765 -0.47671955695 -0.70511516322 0.52492958634 
-0.31608206937 -0.6937962406 0.64710038012 -0.26644041652 -0.68147246411 0.68161923763 -0.17433094919 -0.64278137062 0.74594961609 
-0.13175593311 -0.61714243246 0.77574196235 -0.094295701168 -0.58720431032 0.80392749591 -0.068037393101 -0.55978518707 0.82583984977 
-0.040608741446 -0.52190084038 0.85203899144 -0.0097690254639 -0.46276734737 0.8864259407 0.022180927194 -0.368001177 0.92956072432 
0.043386560397 -0.23611347851 0.97075642241 0.04041140013 -0.077319828816 0.99618701197 0.0048031117419 0.088389683601 0.99607439178 
-0.06093523101 0.23692230069 0.96961575949 -0.13721348487 0.34346049381 0.92908952677 -0.18627873671 0.39063733701 0.90150025135 
-0.14200597908 0.35822779875 0.92277144847 0.10507654158 0.19690822272 0.97477488285 0.47575239714 -0.052503543137 0.87801083967 
0.67074070022 -0.18469634812 0.71832734325 0.73321854327 -0.21728255048 0.64434374449 0.74071281124 -0.21871371711 0.6352234577 
0.70358315216 -0.22627018978 0.67362641665 0.62280814784 -0.26987280775 0.73435596179 0.51020116954 -0.35505323315 0.78334664628 
0.39168191008 -0.45842941983 0.79776421852 0.28365267671 -0.55861934059 0.77941362018 0.17740740391 -0.65758774109 0.73219189821 
0.030327040072 -0.78034810403 0.62460956379 -0.3698191726 -0.91963764098 0.13228903532 -0.55668803554 -0.051269903006 -0.82913800307 
-0.43334942007 0.23260526399 -0.87069114575 -0.43199155678 0.23494562871 -0.87073753015 -0.4935831383 0.13386981256 -0.85933378781 
-0.58385066594 -0.018257747247 -0.81165574879 -0.66328963743 -0.15417550975 -0.73230920319 -0.72670328295 -0.24622629273 -0.6413072207 
-0.75628636045 -0.26278686163 -0.59914439525 -0.75346724208 -0.26505230259 -0.6016929383 -0.74038739487 -0.29252139484 -0.60519231578 
-0.73387267557 -0.31486052365 -0.60190842053 -0.74189476413 -0.26987021704 -0.61380959988 -0.74432136521 -0.17085053469 -0.64559724294 
-0.71333659611 0.008888606375 -0.70076521983 -0.5828944114 0.29261045398 -0.75803247119 -0.27712010794 0.61592539252 -0.73745532517 
0.14929156053 0.80295600751 -0.57703871617 0.50006963743 0.78191865334 -0.37220099044 0.71977185826 0.65615776612 -0.22668360773 
0.83534094346 0.52274932983 -0.17011362773 0.88524590174 0.43096867865 -0.17494482407 0.9012305393 0.38558063019 -0.19776524632 
0.90264347258 0.37844528036 -0.20497300109 0.90246746289 0.38258196504 -0.19794827215 0.903422666 0.38737942746 -0.18375164146 
0.90525215668 0.3892926862 -0.17020498611 0.90757441439 0.38881106783 -0.15853906735 0.91185210951 0.38507615097 -0.14227469321 
0.91455367501 0.38138567347 -0.13467198524 0.9207509053 0.37085839517 -0.12116856492 0.92402041557 0.36406690194 -0.11679709982 
0.92402041557 0.36406690194 -0.11679709982 
