# vtk DataFile Version 4.2
vtk output
ASCII
DATASET POLYDATA
POINTS 64 float
0 0 0 -1.01465 -0.113794 0.201553 -1.99326 -0.126131 0.339653 
-2.97992 -0.252201 0.52904 -3.85576 -0.672516 0.808018 -4.47853 -1.42583 1.06533 
-4.87781 -2.35455 1.07693 -5.17039 -3.24751 0.704987 -5.43019 -3.96802 0.0420126 
-5.67947 -4.54064 -0.757029 -5.90496 -5.03248 -1.61518 -6.07192 -5.49402 -2.50298 
-6.12629 -5.95786 -3.40316 -6.01476 -6.4356 -4.29038 -5.74522 -6.92353 -5.1376 
-5.3877 -7.43728 -5.93596 -5.01692 -8.02194 -6.67722 -4.70219 -8.74823 -7.30925 
-4.53657 -9.6866 -7.63785 -4.61098 -10.6149 -7.28765 -4.86083 -11.0611 -6.42191 
-5.18981 -11.003 -5.46882 -5.53385 -10.5956 -4.60783 -5.84768 -10.0205 -3.83339 
-6.11345 -9.41951 -3.06049 -6.32458 -8.92764 -2.20005 -6.48141 -8.73445 -1.22067 
-6.59457 -9.01798 -0.260267 -6.66581 -9.73103 0.450706 -6.66738 -10.6659 0.838071 
-6.57017 -11.6659 0.97077 -6.37223 -12.6607 0.981959 -6.1076 -13.6383 1.03731 
-5.83806 -14.5944 1.24066 -5.60895 -15.5316 1.55425 -5.41307 -16.473 1.87798 
-5.21098 -17.4275 2.15579 -4.94602 -18.3746 2.40438 -4.5439 -19.2543 2.70635 
-3.95504 -19.9333 3.16948 -3.25587 -20.3337 3.78344 -2.52867 -20.56 4.45342 
-1.78009 -20.7216 5.11887 -0.995961 -20.8496 5.7497 -0.173082 -20.9231 6.33838 
0.669035 -20.9226 6.90407 1.4995 -20.8713 7.48461 2.29528 -20.8245 8.11204 
3.04707 -20.8387 8.79286 3.76373 -20.9454 9.50275 4.46684 -21.1516 10.2042 
5.17339 -21.4623 10.8622 5.87341 -21.9022 11.4491 6.5203 -22.506 11.9431 
7.05771 -23.2645 12.3476 7.47061 -24.1138 12.7175 7.77844 -24.9923 13.1202 
7.99844 -25.8628 13.5921 8.1301 -26.7237 14.1122 8.15137 -27.6198 14.5859 
8.03295 -28.5945 14.8294 7.81079 -29.5767 14.7344 7.56635 -30.4818 14.4249 
7.31506 -31.3894 13.979 
LINES 1 65
64 0 1 2 3 4 5 6 7 8 9 10 11 12 13 14 15 16 17 18 19 20 21 22 23 24 25 26 27 28 29 30 31 32 33 34 35 36 37 38 39 40 41 42 43 44 45 46 47 48 49 50 51 52 53 54 55 56 57 58 59 60 61 62 63 

CELL_DATA 1
FIELD FieldData 2
Length 1 1 double
63.811900631 
Tortuosity 1 1 double
0.81637667496 
POINT_DATA 64
SCALARS MaximumInscribedSphereRadius float
LOOKUP_TABLE default
0.93 0.932525 1.0936 1.04308 0.703201 1.02695 0.936288 0.688463 0.988094 
1.25609 1.22038 1.03212 1.05368 1.16537 1.00759 1.1115 1.24 1.30195 
1.74885 1.86 1.86 1.86 1.86 1.86 1.86 1.86461 2.00642 
2.17 2.11165 1.95117 2.22696 2.18774 1.65272 1.80344 2.0301 2.01929 
1.60008 1.55 1.55 1.57698 1.67283 1.81675 1.87341 2.04864 2.4575 
2.24368 2.17 2.25431 2.41844 2.02964 2.14571 2.30217 1.95487 2.01766 
2.26791 2.47015 2.4739 2.30304 2.06427 1.87005 1.90314 2.10779 2.03152 
1.86 
TEXTURE_COORDINATES TCoords 2 float
0 0 0.015873 0 0.031746 0 0.047619 0 0.0634921 
0 0.0793651 0 0.0952381 0 0.111111 0 0.126984 0 
0.142857 0 0.15873 0 0.174603 0 0.190476 0 0.206349 
0 0.222222 0 0.238095 0 0.253968 0 0.269841 0 
0.285714 0 0.301587 0 0.31746 0 0.333333 0 0.349206 
0 0.365079 0 0.380952 0 0.396825 0 0.412698 0 
0.428571 0 0.444444 0 0.460317 0 0.47619 0 0.492063 
0 0.507937 0 0.52381 0 0.539683 0 0.555556 0 
0.571429 0 0.587302 0 0.603175 0 0.619048 0 0.634921 
0 0.650794 0 0.666667 0 0.68254 0 0.698413 0 
0.714286 0 0.730159 0 0.746032 0 0.761905 0 0.777778 
0 0.793651 0 0.809524 0 0.825397 0 0.84127 0 
0.857143 0 0.873016 0 0.888889 0 0.904762 0 0.920635 
0 0.936508 0 0.952381 0 0.968254 0 0.984127 0 
1 0 
FIELD FieldData 7
Curvature 1 64 double
0 0.11064154379 0.12302006064 0.32801363577 0.42835833111 0.38074537384 0.40713753977 0.34161744802 0.19782943751 
0.1002583479 0.070313437054 0.11046916089 0.16352435466 0.15987438462 0.1012509044 0.089597514617 0.18400547168 0.40673424037 
0.82439697566 0.83761907634 0.54601822237 0.36514450006 0.18769989481 0.053106243632 0.14689252214 0.32687948437 0.49855004433 
0.52185181274 0.40584142009 0.27917725744 0.15455264625 0.079649127752 0.14628769464 0.11601673131 0.034009575967 0.04681205084 
0.067834278875 0.15849600009 0.31823439264 0.33678519794 0.18158173326 0.066434115994 0.058274167682 0.076926809107 0.077701765593 
0.052691284008 0.056883098565 0.089817255932 0.10048997602 0.098181000325 0.11039797899 0.14431198991 0.19229107163 0.20620140732 
0.1545463782 0.11105574293 0.10929952011 0.098493129241 0.12182423952 0.27884400008 0.35702006632 0.23103543237 0.12209597213 
0 
Torsion 1 64 double
0 0 -0.043157470225 -0.16303874759 -0.33736890188 -0.6085969476 -0.39659340361 -0.20606735556 -0.061649784614 
0.36840744212 0.8720445016 0.27101188878 0.077252391734 0.12081188377 0.5670424398 0.85529644092 0.087194923615 -0.11363361808 
-0.058864543716 0.0019271280312 0.055727423341 -0.0078439211735 -0.22172530472 -2.7620436676 -0.45372137582 -0.15953754305 -0.079866968342 
-0.0059468613168 0.10057788606 0.22390982061 0.55898220323 1.6665784291 0.3546892898 0.33676657918 2.0008401967 0.95608705658 
1.1393235589 0.4429118921 0.13590384851 0.05617432346 -0.063763671625 -0.78299294245 -0.26531884618 0.2608809352 0.42362263512 
0.99956041682 0.90480480276 0.39937482231 0.36632213138 0.38754165018 0.15810750293 -0.093722272702 -0.15930896958 -0.20950174303 
-0.41645434171 -0.61377925743 -0.17151225948 0.57021034405 0.91948259726 0.23350088817 0.11045932531 0.12297766751 0 
0 
Abscissas 1 64 double
0 1.0407125061 2.0290986476 3.0416466019 4.0523854976 5.0630966975 6.0740742096 7.0846788543 8.0976781482 
9.1118266122 10.126310672 11.140748972 12.154868565 13.168681747 14.182844139 15.197301723 16.211589654 17.2245126 
18.232449815 19.227381213 20.232875807 21.242814256 22.255569351 23.269949479 24.284435794 25.297780781 26.30827892 
27.316032624 28.325488594 29.337457826 30.350835533 31.365262193 32.379494973 33.393462539 34.407960464 35.422534645 
36.43705123 37.451448259 38.464701585 39.47577487 40.488768324 41.503110377 42.517659403 43.532151873 44.546576459 
45.561059605 46.575611974 47.590074423 48.604419787 49.61877776 50.633137875 51.647371788 52.661295959 53.674782193 
54.688495072 55.702716579 56.717037665 57.73134799 58.745742462 59.759538144 60.771133861 61.782576321 62.769894691 
63.811858235 
ParallelTransportNormals 3 64 double
0.19483660998 0 0.98083571275 0.1397746377 -0.0034135798393 0.9901774579 0.18850894391 -1.5287551015e-05 0.98207147287 
0.29032376454 0.029869184798 0.95646220184 0.32312538493 0.055557772987 0.94472393823 0.23525558817 -0.089047647212 0.9678457133 
0.11215632171 -0.41317612199 0.90371812625 0.020482368804 -0.68096206139 0.73203220115 -0.029560703722 -0.8080861507 0.58832213781 
-0.052862957505 -0.86033215535 0.50698529583 -0.06130043829 -0.88082934728 0.46944852458 -0.062454555538 -0.88565511818 0.46012437464 
-0.062676127314 -0.88200672118 0.46705015454 -0.065990563393 -0.87360703232 0.48213690859 -0.07830128326 -0.85394146584 0.51444424573 
-0.10983139134 -0.80638795978 0.58109854913 -0.17172857978 -0.68800253478 0.70509701959 -0.2662466381 -0.36009375328 0.89411700383 
-0.30071606327 0.35763895939 0.88411776592 -0.1745750383 0.89485362301 0.41080475823 -0.022108128164 0.99741441719 -0.068379171205 
0.098415592151 0.91413861901 -0.39327465778 0.15982838023 0.82243402162 -0.54594612275 0.16823527448 0.80537573657 -0.56838966859 
0.13826333871 0.87405869335 -0.4657302328 0.081206102479 0.98024281975 -0.18035959426 0.01646575027 0.95842119756 0.28488188277 
-0.030032028852 0.70725851685 0.70631683229 -0.044401636978 0.3824696296 0.9229005781 -0.031853854861 0.1284435271 0.99120512119 
-0.014101361457 0.0084398055869 0.99986495152 -0.02386494763 0.050071563869 0.9984604663 -0.062707971878 0.19067975752 0.97964735509 
-0.090460331665 0.29604911594 0.95087951358 -0.092818503897 0.3064730066 0.94734313823 -0.083508613325 0.26211985551 0.96141535917 
-0.07637776751 0.23308581402 0.96945213391 -0.095005771866 0.28409037358 0.95407890814 -0.19084740966 0.43478240971 0.8800804068 
-0.34119905537 0.5608277499 0.75435763372 -0.43240172023 0.60090758196 0.67226395879 -0.4514680033 0.60591860075 0.65501090927 
-0.43776632059 0.60332937331 0.6665990668 -0.42828220033 0.60214036761 0.67379621146 -0.44513311633 0.60287862025 0.66211319122 
-0.48222210213 0.60173107105 0.63669581619 -0.51693719787 0.59963791508 0.61090940757 -0.53109485121 0.59933944714 0.59894113744 
-0.5172419287 0.59819948406 0.61206058888 -0.47734364158 0.58940726186 0.65172243134 -0.41438249184 0.56631947118 0.71243905495 
-0.33112901539 0.52188818658 0.78612104404 -0.23785699395 0.4496050933 0.86097578973 -0.16763391972 0.36883215378 0.91425472998 
-0.14702280264 0.33396383187 0.93104911498 -0.15978879145 0.36456896035 0.91736416721 -0.18046619558 0.43308767354 0.88310079792 
-0.19121246565 0.48599565062 0.85278720708 -0.18854960578 0.4553949288 0.87009453796 -0.19870013277 0.26022483543 0.9448816287 
-0.25041466731 -0.036898931075 0.96743525018 -0.29951947789 -0.23530217894 0.92461936328 -0.32858166765 -0.34161060197 0.88053181902 
-0.32858166765 -0.34161060197 0.88053181902 
FrenetTangent 3 64 double
-0.98387811921 -0.062258575199 0.16765356052 -0.98387811921 -0.062258575199 0.16765356052 -0.98402710403 -0.069301539634 0.16397547114 
-0.93278937206 -0.27364407643 0.23456962038 -0.75779787214 -0.59346565089 0.27118426613 -0.51450071586 -0.84673717061 0.13537051851 
-0.34912900837 -0.91926275765 -0.18183761413 -0.27690177885 -0.80881397923 -0.5187922049 -0.25237758068 -0.64107221615 -0.72479788248 
-0.23433598779 -0.52539377498 -0.81795355983 -0.19355073842 -0.47019363402 -0.86107842743 -0.10927778539 -0.45689081578 -0.8827848821 
0.028282294947 -0.46588671148 -0.88439226809 0.1885186948 -0.47772595811 -0.85804347831 0.30951299596 -0.4944233805 -0.81224825401 
0.35935958058 -0.54198016227 -0.75968295726 0.33960961428 -0.64945960493 -0.68034368627 0.24247002033 -0.84028314374 -0.48490465824 
0.048800876881 -0.99874166655 0.011556726078 -0.17399892804 -0.73756168777 0.65247768527 -0.29717559918 -0.199253809 0.93380114738 
-0.33818274515 0.23390678094 0.91154816039 -0.32598483353 0.48684387695 0.81038073014 -0.28577783878 0.57988372993 0.76293242599 
-0.23582413729 0.54041259085 0.80767642526 -0.18421874242 0.34297428111 0.9211037387 -0.13771029889 -0.046078385028 0.98940014959 
-0.09433897916 -0.50984983687 0.85507502645 -0.036740303428 -0.83155275114 0.5542293498 0.047681215628 -0.96462532932 0.2592768322 
0.14599497646 -0.98672172424 0.071173771632 0.22820327014 -0.97305995395 0.032826719504 0.26408295179 -0.95598256742 0.12789654168 
0.24625178554 -0.9349813502 0.25528402397 0.20948094538 -0.9259770982 0.31414033031 0.19619287061 -0.93464791878 0.29654953286 
0.23034196804 -0.93784003614 0.25961248887 0.33003915881 -0.90381273939 0.27239068591 0.49567802701 -0.77964590951 0.38269511276 
0.6452865733 -0.54076615616 0.53960837897 0.70652333653 -0.31042283144 0.63597361632 0.72779236993 -0.1912955847 0.658577456 
0.75571645997 -0.14279015736 0.63914286595 0.79265141534 -0.099389183977 0.60151934621 0.82127093668 -0.036007738022 0.56940099348 
0.82461692341 0.025538341101 0.56511478724 0.80182739989 0.048368973157 0.5955948818 0.76358727112 0.016085380819 0.64550425243 
0.72477052742 -0.059672141043 0.6864014264 0.7007016776 -0.15442640146 0.6965412016 0.69597531628 -0.25520271262 0.6711854696 
0.69536684279 -0.3710748541 0.61544163541 0.66748895404 -0.51722758285 0.53566232253 0.5873440257 -0.67562120676 0.44560406242 
0.47002437494 -0.79521922954 0.38301888197 0.35587120241 -0.85312744269 0.38148296664 0.26059599793 -0.86350311328 0.43180099492 
0.17355682891 -0.85450718892 0.48958706195 0.075544605542 -0.86792417595 0.49091815751 -0.048431615202 -0.93264032417 0.35754217146 
-0.17098597534 -0.98244878528 0.074553206109 -0.23497332046 -0.9504176292 -0.20370043882 -0.24475613622 -0.89498231556 -0.37296258341 
-0.24475613622 -0.89498231556 -0.37296258341 
FrenetNormal 3 64 double
-0.13687346607 0.86550484561 -0.48183712655 -0.13687346607 0.86550484561 -0.48183712655 0.12862451034 -0.9135837284 0.38577260988 
0.33372576262 -0.90155808501 0.27535456183 0.60420857969 -0.79514630519 -0.051714075246 0.5953679853 -0.46635926026 -0.6542522468 
0.26660901967 0.088585314211 -0.95972510269 0.098429210147 0.51318834061 -0.85261328728 0.053729663444 0.7386053032 -0.67199354859 
0.23198699289 0.78685241674 -0.57187875411 0.80976502381 0.41896325608 -0.41079240047 0.99349579703 -0.021605726546 -0.11180024089 
0.99355391171 -0.084060738922 0.076055352839 0.96714704592 -0.06142060932 0.24668623859 0.84588535444 -0.24703809722 0.47270513607 
0.1448323149 -0.77180774947 0.61914166264 -0.29656895897 -0.76037594425 0.57781941468 -0.37055788038 -0.5421384841 0.7541702204 
-0.33246588576 -0.0053321856562 0.94310020814 -0.23853621695 0.67442039832 0.69875431987 -0.15016040595 0.97556684393 0.16037825762 
-0.038996306841 0.96430368412 -0.26191161266 0.16090327403 0.87327069685 -0.45990045274 0.88057594533 0.47297650838 -0.029651762773 
0.36201557771 -0.72244336182 0.58908429826 0.16491806131 -0.91307068986 0.37296641722 0.090341214049 -0.99533779616 -0.033780713121 
0.084432318684 -0.85990862809 -0.50341666133 0.17508140612 -0.55138191986 -0.81567424851 0.35151637639 -0.22676292763 -0.90830325981 
0.63701481055 0.038719940112 -0.7698784952 0.81532218502 0.20942112483 0.53980786128 0.033395630084 0.14158754956 0.98936226818 
-0.34101600409 0.16296816123 0.92582366754 -0.9502318012 -0.11701427361 0.2887337593 0.12959806059 -0.27505814976 -0.95265279979 
0.90186560012 0.10553908831 -0.41892712989 0.84957606201 0.41017846317 0.33162349617 0.59073134645 0.62566069436 0.50949501652 
0.32515327791 0.83358973065 0.44654619786 0.14620255573 0.94330005082 0.29800977639 0.31094498178 0.94797287694 -0.068268901435 
0.59396047867 0.56054394016 -0.57706277035 0.49077069266 0.68939414944 -0.53280374806 0.24049523159 0.92685815583 -0.28826377252 
-0.21623811357 0.93734538575 0.27317522958 -0.59153917735 -0.076833027039 0.8026070568 -0.47605891861 -0.66136375626 0.57962564464 
-0.3407273843 -0.89693606723 0.28179875955 -0.13440336888 -0.98738531332 -0.083701717294 0.030997276779 -0.92316424579 -0.38315394311 
-0.042562026754 -0.87614123022 -0.4801718636 -0.26988134713 -0.83851054763 -0.47335411691 -0.52328802461 -0.73702794228 -0.42773760134 
-0.78962914159 -0.57274158984 -0.22012017178 -0.92275541895 -0.25616784465 0.28792442093 -0.78368596308 0.072011736188 0.61696889802 
-0.87397173446 0.095499477065 0.47650105693 -0.88411915319 -0.28597041026 -0.36953247139 -0.49839446714 -0.28764985879 -0.81783892905 
-0.29301573209 -0.021539257523 -0.95586497014 -0.12296104247 0.23694907952 -0.96370935232 0.052423782247 0.37188422104 -0.92679764415 
0.052423782247 0.37188422104 -0.92679764415 
FrenetBinormal 3 64 double
-0.11510647604 -0.49701632976 -0.86007282664 -0.11510647604 -0.49701632976 -0.86007282664 0.12307068647 0.4007019688 0.90790502715 
0.13612899299 0.33512973427 0.93228587809 0.24632169456 0.12466304409 0.96113721613 0.61711099119 -0.25601797646 0.7440623766 
0.89834768667 -0.38354742145 0.21415603973 0.95584365639 -0.28715444288 -0.062491843269 0.96613595319 -0.20853925232 -0.15196282508 
0.94407027279 -0.32376635941 -0.062503316379 0.55391219329 -0.77678036573 0.29965571166 0.032007294502 -0.88926035278 0.45628013113 
-0.10977584578 -0.88084241737 0.46050613399 -0.17054997294 -0.87635918304 0.45045231604 -0.4343727345 -0.83337728511 0.34176399487 
-0.92189169234 -0.33252112949 -0.19886026761 -0.89258734164 0.0055357902352 -0.45084054006 -0.89660200007 -0.0031784263331 -0.44282586993 
-0.94185185099 -0.049866334317 -0.33230774815 -0.95541867589 -0.034057056065 -0.29328360112 -0.94294141692 -0.092559454566 -0.31983469423 
-0.94027215153 -0.12412099992 -0.31698936645 -0.93158146435 -0.019527659834 -0.36300777648 -0.37804368977 0.66334612555 -0.64579786802 
0.90184904378 0.43131174413 -0.025268193738 0.96895071494 0.2206140472 0.11164208071 0.98634392512 0.084731658593 0.14123104265 
0.99195329556 0.02470415321 0.12417070605 0.98386820832 0.067067134486 0.16584736397 0.93496670465 0.13444905612 0.32826926829 
0.75689999207 0.15773713944 0.63420926897 -0.53214002116 -0.096421566516 0.84114795333 -0.96392163917 -0.25700252257 0.069316498211 
-0.9072310307 -0.31504166899 -0.27871240326 -0.23060194602 -0.35899035276 -0.90440514656 0.97196332246 0.22533593181 0.067164109627 
0.36548736925 0.33063207264 0.87011574831 -0.41145433345 0.12196786654 0.90323262287 -0.63666299552 -0.026475485322 0.77068753643 
-0.69128907425 -0.11269483263 0.71373614909 -0.69242298318 -0.11756989345 0.71184811057 -0.61125402623 0.25446694062 0.74940982883 
-0.27586877662 0.81572143659 0.50842399233 -0.36172898831 0.71753571119 0.59522654694 -0.51737422834 0.37368088226 0.7698613551 
-0.52273129604 -0.34746427291 0.77847323087 0.084582636844 -0.99587003589 -0.032994683706 0.43623661629 -0.74989282063 -0.49735135686 
0.59884266061 -0.43811519819 -0.67040475905 0.70068030758 -0.034967550336 -0.71261797409 0.71739635346 0.28747060851 -0.63458893882 
0.71739349581 0.30770114943 -0.62503325896 0.69399031313 0.17139337518 -0.69928660522 0.6174112396 0.018049855132 -0.78643344534 
0.39441463681 -0.19898102483 -0.89713078536 -0.14791255558 -0.45447948458 -0.87839072969 -0.56384930357 -0.49917600423 -0.6579492987 
-0.45392888707 -0.51058526611 -0.7302405436 0.46111423263 -0.40611396092 -0.78895190932 0.86559651904 -0.21780630034 -0.45089143013 
0.94069419951 -0.18528476648 -0.2841900391 0.96419298935 -0.20139876816 -0.17254105446 0.96816640142 -0.2463915197 -0.044102587037 
0.96816640142 -0.2463915197 -0.044102587037 
