# vtk DataFile Version 4.2
vtk output
ASCII
DATASET POLYDATA
POINTS 64 float
0 0 0 -0.96782 -0.0159555 0.359933 -1.92795 -0.0535391 0.629726 
-2.89405 -0.177636 0.905397 -3.82104 -0.438184 1.22245 -4.66471 -0.868987 1.58267 
-5.39541 -1.4798 1.92873 -6.01456 -2.25632 2.1245 -6.53288 -3.11081 1.9809 
-6.94842 -3.87087 1.45928 -7.26497 -4.4757 0.710563 -7.47205 -4.9665 -0.152047 
-7.5345 -5.38793 -1.07197 -7.41907 -5.78153 -1.99898 -7.14307 -6.19716 -2.88173 
-6.77556 -6.69868 -3.68258 -6.39051 -7.36196 -4.34375 -6.08354 -8.25525 -4.69409 
-6.03021 -9.19836 -4.38874 -6.24464 -9.68244 -3.53636 -6.53432 -9.67209 -2.56878 
-6.78731 -9.32092 -1.65354 -6.95028 -8.76966 -0.818582 -6.99995 -8.13989 -0.0251047 
-6.93973 -7.54779 0.795828 -6.8139 -7.14023 1.71385 -6.73719 -7.10216 2.71894 
-6.83516 -7.49235 3.6442 -7.10086 -8.18511 4.33046 -7.44455 -9.05369 4.71892 
-7.77961 -10.0048 4.81015 -8.05449 -10.9707 4.6727 -8.2529 -11.9318 4.41609 
-8.37423 -12.9008 4.14166 -8.4181 -13.8904 3.92352 -8.37695 -14.8965 3.80319 
-8.22832 -15.8993 3.7947 -7.92449 -16.8605 3.8973 -7.39962 -17.6999 4.10616 
-6.65231 -18.3097 4.41155 -5.79212 -18.6734 4.80421 -4.91871 -18.8613 5.28362 
-4.07639 -18.9271 5.84448 -3.27578 -18.8842 6.46558 -2.50717 -18.7227 7.10725 
-1.75175 -18.4434 7.72377 -0.990041 -18.0896 8.29277 -0.20626 -17.7377 8.83236 
0.602043 -17.4758 9.38587 1.40442 -17.4032 9.9998 2.12252 -17.6044 10.6835 
2.6823 -18.0757 11.3831 3.08385 -18.7378 12.0368 3.3709 -19.5175 12.6182 
3.58246 -20.3692 13.1267 3.73655 -21.2668 13.5734 3.83288 -22.196 13.9689 
3.86214 -23.1492 14.3146 3.8129 -24.1216 14.5988 3.67259 -25.1055 14.8008 
3.42705 -26.0842 14.9 3.06697 -27.0299 14.8848 2.60066 -27.903 14.7602 
2.00853 -28.7157 14.5257 
LINES 1 65
64 0 1 2 3 4 5 6 7 8 9 10 11 12 13 14 15 16 17 18 19 20 21 22 23 24 25 26 27 28 29 30 31 32 33 34 35 36 37 38 39 40 41 42 43 44 45 46 47 48 49 50 51 52 53 54 55 56 57 58 59 60 61 62 63 

CELL_DATA 1
FIELD FieldData 2
Length 1 1 double
63.799147852 
Tortuosity 1 1 double
0.97868761651 
POINT_DATA 64
SCALARS MaximumInscribedSphereRadius float
LOOKUP_TABLE default
0.93 0.969443 0.76303 1.04862 1.67152 1.33968 1.02735 0.794646 0.970917 
1.1903 1.15106 1.22705 1.24 1.24 1.24 1.29736 1.59482 2.03129 
1.84285 1.58289 1.57371 1.76288 1.86 1.86 1.86913 2.35672 2.02492 
2.11242 2.17 2.17 2.3026 2.39088 2.23578 2.39762 2.32864 2.09807 
1.87423 2.34289 1.92713 1.56658 1.55051 1.63159 2.07421 1.96723 1.72573 
1.62198 1.85017 2.29075 2.49028 2.48048 2.43628 2.20043 1.77354 1.70964 
1.90103 1.98901 2.31221 2.34801 2.18163 2.19985 2.40363 2.64242 2.61897 
2.17 
TEXTURE_COORDINATES TCoords 2 float
0 0 0.015873 0 0.031746 0 0.047619 0 0.0634921 
0 0.0793651 0 0.0952381 0 0.111111 0 0.126984 0 
0.142857 0 0.15873 0 0.174603 0 0.190476 0 0.206349 
0 0.222222 0 0.238095 0 0.253968 0 0.269841 0 
0.285714 0 0.301587 0 0.31746 0 0.333333 0 0.349206 
0 0.365079 0 0.380952 0 0.396825 0 0.412698 0 
0.428571 0 0.444444 0 0.460317 0 0.47619 0 0.492063 
0 0.507937 0 0.52381 0 0.539683 0 0.555556 0 
0.571429 0 0.587302 0 0.603175 0 0.619048 0 0.634921 
0 0.650794 0 0.666667 0 0.68254 0 0.698413 0 
0.714286 0 0.730159 0 0.746032 0 0.761905 0 0.777778 
0 0.793651 0 0.809524 0 0.825397 0 0.84127 0 
0.857143 0 0.873016 0 0.888889 0 0.904762 0 0.920635 
0 0.936508 0 0.952381 0 0.968254 0 0.984127 0 
1 0 
FIELD FieldData 7
Curvature 1 64 double
0 0.083880310288 0.085016930183 0.14483954936 0.19096958597 0.20972009375 0.24747885473 0.36646963634 0.41103965426 
0.29142244754 0.19143074164 0.16690628203 0.17672671323 0.16458041905 0.1465734451 0.21123519758 0.40199196579 0.80436349253 
0.89633339236 0.54149945046 0.34935646378 0.2307125694 0.14071736896 0.11647283782 0.21547474704 0.38878777888 0.48755257181 
0.43103271398 0.35771702269 0.30843483455 0.23405328707 0.13845981216 0.077387415359 0.095414595568 0.12753715545 0.15179759758 
0.19194055529 0.27206804496 0.33535511552 0.28311891219 0.1930984752 0.14671892156 0.12799211906 0.12154773755 0.11822054571 
0.086259549732 0.035786907334 0.091870103869 0.19541847103 0.29394948348 0.3135803561 0.24957887171 0.1759020841 0.12422587083 
0.093583892342 0.08118656403 0.084619639013 0.098953067328 0.12022979258 0.1439133402 0.1620775704 0.16783837528 0.17032713298 
0 
Torsion 1 64 double
0 0 0.73031025605 0.085891414593 -0.12625477169 -0.39829500316 -0.5607746094 -0.31013221773 -0.14217243565 
0.0093658995382 0.28883078896 0.40280736002 0.34567525718 0.45418878859 0.6872970067 0.34047096499 0.055881717975 -0.023217368097 
-0.053820670989 -0.11166198184 -0.17352263817 -0.30230337109 -0.72618174439 -1.1963234052 -0.53971208845 -0.24828661285 -0.12555280956 
-0.0036754481617 0.11606199137 0.14000625675 0.17348140158 0.41320618637 1.0693438205 0.43742923137 0.038830939167 -0.15152075566 
-0.20144995722 -0.086995241327 0.034129126719 0.1599971047 0.28276743725 0.15570768526 -0.14454968678 -0.33440782638 -0.32683130414 
-0.43931194157 -2.3274282144 -0.49579551992 -0.14937127714 -0.046775747999 0.014046891085 0.076571641492 0.12515398395 0.094936766038 
-0.030505334762 -0.11543744838 -0.048987448503 0.02643907114 0.021847346785 -0.013129664078 -0.035993992913 -0.047676385652 0 
0 
Abscissas 1 64 double
0 1.0327057802 2.0307286834 3.0430263382 4.0567948271 5.0702617043 6.0835592019 7.0958139507 8.1054876348 
9.1166498378 10.129861911 11.143696469 12.157484249 13.171186718 14.185176549 15.19905121 16.21164601 17.21908682 
18.211827617 19.215251176 20.225323333 21.23773725 22.251441025 23.265679524 24.279655744 25.291934664 26.300658667 
27.309595207 28.320275384 29.331930406 30.344447939 31.358087051 32.372443342 33.386869501 34.401117419 35.415185319 
36.429030462 37.442272824 38.454121798 39.465807793 40.478931503 41.492823483 42.50692892 43.521114606 44.535299223 
45.549561937 46.564066627 47.578609148 48.592666239 49.605581886 50.617316285 51.629684531 52.643085525 53.657113797 
54.671415019 55.685824412 56.700252789 57.714630808 58.728914797 59.74305523 60.756976771 61.768999051 62.766658474 
63.79913665 
ParallelTransportNormals 3 64 double
0.34857575248 0 0.93728061155 0.27059745843 -0.0021805448016 0.96269011666 0.27461012082 -0.0018450097343 0.96155388694 
0.32166801034 0.0077137481521 0.94682109673 0.37938606226 0.030250683062 0.92474380881 0.39824191549 0.042726143981 0.91628481018 
0.33114666436 -0.026238942573 0.94321440011 0.16728466278 -0.26123973336 0.95066799847 -0.0073206435655 -0.56310649955 0.8263519095 
-0.10787128967 -0.75056859301 0.65192834887 -0.15201601493 -0.84293261942 0.51609662887 -0.16654732268 -0.89211349653 0.41999464117 
-0.1650551138 -0.91506705807 0.36797973945 -0.16696059246 -0.91112750158 0.37679017561 -0.19649277712 -0.86903717583 0.45405393465 
-0.27087459004 -0.75390203589 0.59854713828 -0.40539322401 -0.4511261857 0.79507326612 -0.53866436952 0.23179629373 0.81000689826 
-0.47391319451 0.81157712478 0.34168531518 -0.34771267381 0.93063819148 -0.11405460543 -0.26295304285 0.87423818976 -0.40812165443 
-0.22517738217 0.7923061976 -0.56705029389 -0.21892025167 0.75755859596 -0.61496251682 -0.21856219066 0.79897603752 -0.56023910992 
-0.19871547201 0.90556537081 -0.37478463198 -0.16189619205 0.98649077495 -0.025011476227 -0.16622317311 0.91478012324 0.36816732994 
-0.22894360534 0.72797849276 0.64624464381 -0.32191890628 0.4897631704 0.81024703313 -0.41822395502 0.23158411881 0.87832654484 
-0.48731851416 0.014433088703 0.87310500612 -0.5199730766 -0.11851359479 0.84592111184 -0.52840850797 -0.16943411351 0.83191137141 
-0.52765460841 -0.16049531502 0.8341593781 -0.52760241013 -0.12213083011 0.8406662579 -0.53103122139 -0.085836533912 0.84299343494 
-0.53273262732 -0.07845194306 0.84263944865 -0.51717084569 -0.11225721072 0.8484884413 -0.47953271291 -0.15513151776 0.86370283631 
-0.46600674368 -0.16332466224 0.86957620111 -0.50053735955 -0.15233599827 0.85220660366 -0.55622557329 -0.14410190368 0.81844227223 
-0.6017993667 -0.14346709331 0.78565559591 -0.61590300574 -0.14530429407 0.77430623764 -0.59474054048 -0.13918459469 0.79177732861 
-0.55652152237 -0.12323496785 0.82164282863 -0.52933036288 -0.11081748844 0.84114734214 -0.53607750835 -0.1134185581 0.83651487477 
-0.5956351286 -0.12578335999 0.79334566232 -0.70180976995 -0.11679316832 0.70272498364 -0.80007069092 -0.065089751294 0.59636416208 
-0.85318788592 -0.0024710001931 0.521597858 -0.87353676592 0.040132319588 0.48510093333 -0.88027533847 0.062178786473 0.47037126507 
-0.88359746765 0.078072942091 0.46169268013 -0.88663810085 0.10025459818 0.45146638155 -0.88875199931 0.13193738947 0.43899021513 
-0.88836049203 0.16966650434 0.42664846597 -0.884298667 0.21158537233 0.41623010193 -0.87461314237 0.26084778205 0.40866891953 
-0.85616719475 0.31944996644 0.40611507429 -0.82719715809 0.38313337501 0.41103975306 -0.78552442635 0.44968223428 0.42513205453 
-0.78552442635 0.44968223428 0.42513205453 
FrenetTangent 3 64 double
-0.95024660115 -0.026388313046 0.31037888771 -0.95024660115 -0.026388313046 0.31037888771 -0.95904367615 -0.080498521435 0.27157911422 
-0.9368675714 -0.190356162 0.29333203924 -0.87747861248 -0.34260992161 0.33563332113 -0.78111242196 -0.51679028153 0.35041573764 
-0.67154497077 -0.6901925103 0.26955825152 -0.57183455218 -0.81994962021 0.026227185346 -0.47158720186 -0.8153270436 -0.3359275562 
-0.36546818259 -0.68136952987 -0.6341676208 -0.25952297525 -0.54301892604 -0.79861021236 -0.13340086291 -0.45149756002 -0.88224382291 
0.026234868296 -0.40358694924 -0.91456509122 0.19370830988 -0.40046645964 -0.89560242596 0.31820378945 -0.45351381231 -0.83250920141 
0.37346134299 -0.57803730538 -0.72553394054 0.34930219257 -0.78569026911 -0.51056711536 0.19247284179 -0.98100794266 -0.024033759874 
-0.087328089938 -0.77364264821 0.62757538 -0.25891648688 -0.24331260479 0.93475196131 -0.27235157333 0.18143705135 0.94493662057 
-0.20667715989 0.44838792887 0.86961647686 -0.10511984999 0.58384987253 0.80502741784 0.0052106676996 0.60348292948 0.79735889207 
0.092358953789 0.49625122154 0.86325230888 0.1020646921 0.2245630836 0.96909969565 -0.010834016243 -0.17944080881 0.98370911362 
-0.18410363841 -0.54823016753 0.81581219269 -0.30606932768 -0.78419080854 0.53978360706 -0.33928702914 -0.9096089794 0.23978285272 
-0.30311564052 -0.95267691513 -0.02296962886 -0.23395202095 -0.95253562703 -0.19478791321 -0.1577254468 -0.95210334255 -0.26195783732 
-0.081526646321 -0.96657304744 -0.24308424445 -0.0013436807282 -0.9859200807 -0.1672118088 0.093859919917 -0.99354478941 -0.063710806575 
0.22425211318 -0.97341428276 0.046643583068 0.4130144469 -0.89739806401 0.15522815907 0.63744005685 -0.72613770519 0.25767073374 
0.80184442142 -0.48559656223 0.34819750516 0.85929913505 -0.27341316777 0.43226176814 0.84834760515 -0.12544186028 0.51436434609 
0.81170482999 -0.011313771951 0.58395827551 0.77509413278 0.10096007408 0.62372762386 0.75266345017 0.21769508436 0.62137475088 
0.74853080531 0.31236318842 0.58491954321 0.76182222944 0.34786241776 0.54646008915 0.78566619079 0.30289981504 0.5394259344 
0.79847323775 0.16582361736 0.57874261682 0.75907866255 -0.064202438853 0.64782530894 0.63903965726 -0.33630273197 0.69175775306 
0.47826934646 -0.56387556333 0.6732776406 0.34097338946 -0.71393446531 0.61158378569 0.24630730501 -0.80589140474 0.53839739529 
0.18044633179 -0.86326983713 0.47138552125 0.12353505683 -0.90118074638 0.41546642715 0.061959588089 -0.92867984672 0.36567027736 
-0.0098612540184 -0.95039415366 0.31089179526 -0.09361859894 -0.96621487655 0.24013406726 -0.19075780467 -0.97027717611 0.14890823175 
-0.29993137748 -0.95305328414 0.041600557648 -0.41265387005 -0.90820898374 -0.069808490751 -0.52329001517 -0.83345529543 -0.17753825092 
-0.52329001517 -0.83345529543 -0.17753825092 
FrenetNormal 3 64 double
-0.29314196098 -0.26124116391 -0.91968518798 -0.29314196098 -0.26124116391 -0.91968518798 0.09017146336 -0.99565349573 0.023307158412 
0.27385800408 -0.92102439702 0.27697626919 0.42727660541 -0.87630162198 0.22255374582 0.5297434342 -0.84557130877 -0.066189543769 
0.44341310819 -0.66579797666 -0.6000815526 0.27400306135 -0.22102904058 -0.93598530202 0.25684706674 0.23742913615 -0.93683349087 
0.34119928252 0.53581301779 -0.77232600602 0.56271361809 0.58703214677 -0.58201945214 0.84904171993 0.40711604986 -0.33672641681 
0.98722899924 0.15426694217 -0.03975693161 0.95539391307 -0.13044133318 0.26496703468 0.61086456308 -0.57346080363 0.54588203146 
0.084038579757 -0.75782561523 0.64702229793 -0.19329223419 -0.59358969112 0.7812102091 -0.35567479697 -0.092567528303 0.93001435016 
-0.34980428786 0.61368004542 0.7078373839 -0.14317265719 0.96672979429 0.21197899674 0.10768396791 0.98163868464 -0.1574473114 
0.38645844636 0.85394668538 -0.34846079803 0.78747957602 0.54323518469 -0.29115537339 0.92061304791 -0.31422534418 0.23180605922 
0.30086882543 -0.84034220761 0.45089125518 -0.12736929904 -0.96321882956 0.23661476716 -0.37216701489 -0.91236650664 -0.17052586485 
-0.3981273528 -0.71727043894 -0.5718546392 -0.21912881702 -0.49373904053 -0.84154876353 0.028922842297 -0.26486977791 -0.96385033586 
0.2554139692 -0.057996779998 -0.96509070965 0.54102593861 0.038915292281 -0.84010507306 0.96954441684 -0.09897748181 -0.22402473495 
0.79079259499 -0.21118154781 0.57449928248 0.65078311697 -0.12782001776 0.7484272695 0.69294871856 0.019246062102 0.72072995118 
0.79508884887 0.2104264231 0.56881846214 0.80950261248 0.43983399414 0.38891075838 0.66622164052 0.68743339361 0.28910907119 
0.39288270554 0.86750770605 0.30507959558 0.063819675803 0.89584133648 0.43976738037 -0.20837695118 0.81400404738 0.54219595818 
-0.3187497634 0.82921588739 0.45912917618 -0.2569294885 0.95221456241 0.16515043166 -0.10940523104 0.97198894676 -0.2080095738 
0.069444760656 0.84032023889 -0.53762377303 0.59774260048 -0.052373965689 -0.79997546918 0.26405759376 -0.95271265313 0.15037349412 
-0.02517205272 -0.9512816231 0.30729406326 -0.28275544415 -0.92887282231 0.23925851871 -0.50638227034 -0.86090103481 0.049258548046 
-0.62959831983 -0.75463026535 -0.18476774145 -0.63974056308 -0.65291267513 -0.40550838536 -0.59350918223 -0.56458787181 -0.57357421979 
-0.59845279152 -0.47669549442 -0.64390656303 -0.69264632251 -0.37811954324 -0.61422038629 -0.77160452817 -0.27695957209 -0.57264286211 
-0.77300104224 -0.18998125165 -0.60529043666 -0.73917258222 -0.09412671107 -0.66690633222 -0.71522977298 0.033479875925 -0.69808700729 
-0.69669825741 0.18904907534 -0.69200576966 -0.66677200818 0.35338873089 -0.65614898764 -0.6172510971 0.51436168374 -0.5953428772 
-0.6172510971 0.51436168374 -0.5953428772 
FrenetBinormal 3 64 double
0.10535268252 -0.9649127998 0.24050800626 0.10535268252 -0.9649127998 0.24050800626 0.26852250265 0.046841269031 0.9621338582 
0.217441825 0.33982141145 0.91500844863 0.21786690229 0.3386944182 0.91532513566 0.33050760685 0.13392896141 0.93425251143 
0.59364313162 -0.28345608655 0.75315368901 0.77325776253 -0.52804240695 0.35106074852 0.84358466994 -0.52808069201 0.097445817628 
0.86603467432 -0.49863811901 0.036660184906 0.78485744523 -0.60043626192 0.15321581526 0.51120677578 -0.79398140737 0.32903063255 
0.15713253877 -0.90184216189 0.40247991292 -0.22293398474 -0.90697942276 0.35733564774 -0.72497643683 -0.68225210058 0.09455811599 
-0.92383123048 -0.30261065826 -0.23444113782 -0.91685663572 -0.17418978046 -0.3592100081 -0.91457621004 -0.17045430222 -0.36673653606 
-0.93274367588 -0.15771447216 -0.32421502182 -0.95522973313 -0.078946064984 -0.28513799426 -0.95615311722 0.058873501748 -0.28688870182 
-0.89885172349 0.26405174451 -0.34977457799 -0.60731024566 0.60333644052 -0.51687465121 0.39044137198 0.73285113556 -0.55721158292 
0.94918268712 0.21808186362 -0.22691964926 0.98659001631 -0.1475835623 -0.069708190719 0.92810254666 -0.36795156433 -0.056897356611 
0.89866593419 -0.43007766837 -0.086213327789 0.92644704555 -0.37585440753 -0.020720428008 0.94023815124 -0.32008671536 0.11617535712 
0.91808747557 -0.29840085269 0.26090672338 0.80781024111 -0.30192959323 0.50624217039 0.18736677188 -0.28931416003 0.93871774757 
-0.60663042921 -0.14539222066 0.78157573179 -0.75926249031 -0.10781297483 0.64179189249 -0.71485130543 -0.11179597728 0.6902820225 
-0.56351105769 -0.090472949384 0.8211394116 -0.41728238285 -0.034968161473 0.90810387107 -0.38706446443 -0.01262388383 0.9219662347 
-0.45020962177 -0.10782559391 0.8863887058 -0.50747615263 -0.35030492367 0.7872448253 -0.48670872917 -0.56715231687 0.66441919178 
-0.48942196242 -0.55881393206 0.66947227877 -0.5772489266 -0.28826114997 0.76399554066 -0.64925205137 0.088579555298 0.75539753519 
-0.6594536062 0.44304755346 0.60731359828 -0.2496611189 0.93608157018 -0.24783183751 0.55946601669 0.024296143927 -0.82849711741 
0.60150382905 -0.25993422529 -0.75539879677 0.58638634266 -0.36479216934 -0.72324112876 0.57896918117 -0.38177202718 -0.72044764315 
0.61226169887 -0.33552572435 -0.71593163109 0.68881721786 -0.25298738682 -0.6793586847 0.76621117331 -0.1782682775 -0.61736606574 
0.78057246791 -0.16591140376 -0.60264419722 0.71061956182 -0.21189354256 -0.67091054916 0.63307776895 -0.24667212597 -0.73373387596 
0.63432810466 -0.24628860451 -0.73278221794 0.66697784942 -0.23993535503 -0.70538753447 0.67235246099 -0.23966914577 -0.70035767203 
0.65165382446 -0.23653727973 -0.72069231185 0.6205899392 -0.22421607151 -0.75139555538 0.58751054727 -0.20195130309 -0.78361152877 
0.58751054727 -0.20195130309 -0.78361152877 
