# vtk DataFile Version 4.2
vtk output
ASCII
DATASET POLYDATA
POINTS 64 float
0 0 0 -1.01889 -0.218552 0.0892002 -1.95939 -0.270939 0.33778 
-2.91834 -0.218384 0.695385 -3.83348 -0.0818373 1.10752 -4.73754 0.097245 1.53206 
-5.64759 0.287174 1.9385 -6.57936 0.455694 2.30274 -7.54214 0.565286 2.60296 
-8.53158 0.570847 2.82604 -9.52238 0.429786 2.99064 -10.4723 0.120194 3.16472 
-11.3305 -0.339204 3.44795 -12.0661 -0.873315 3.89711 -12.7067 -1.41028 4.47207 
-13.3149 -1.93701 5.09013 -13.9482 -2.47953 5.6679 -14.6398 -3.0805 6.10217 
-15.3609 -3.7765 6.24699 -15.9724 -4.54251 5.99608 -16.3302 -5.2988 5.42544 
-16.409 -5.99775 4.6957 -16.2539 -6.63411 3.92156 -15.9215 -7.22179 3.16468 
-15.459 -7.78237 2.45696 -14.902 -8.34234 1.82059 -14.2757 -8.93904 1.28979 
-13.6114 -9.62657 0.956912 -13.0782 -10.4225 1.19638 -13.0902 -10.8245 2.13142 
-13.3594 -10.8299 3.1079 -13.6793 -10.6759 4.05818 -13.9962 -10.4347 4.99128 
-14.2718 -10.1582 5.92777 -14.4589 -9.9093 6.89316 -14.4884 -9.80199 7.90071 
-14.3186 -9.98631 8.88137 -14.0401 -10.4636 9.73114 -13.774 -11.111 10.4652 
-13.575 -11.8464 11.1351 -13.458 -12.6278 11.7713 -13.4149 -13.4318 12.3887 
-13.4188 -14.2451 12.9952 -13.4245 -15.0613 13.5979 -13.3642 -15.8729 14.2035 
-13.1447 -16.6545 14.811 -12.6773 -17.3388 15.3939 -11.9698 -17.8516 15.9074 
-11.1211 -18.1939 16.3446 -10.214 -18.4181 16.7399 -9.29069 -18.5671 17.133 
-8.37452 -18.6621 17.5584 -7.48359 -18.7078 18.0414 -6.63302 -18.6996 18.5942 
-5.83177 -18.635 19.2131 -5.07727 -18.5217 19.8818 -4.35335 -18.3816 20.5788 
-3.63518 -18.2466 21.2826 -2.89817 -18.1514 21.9733 -2.12697 -18.1255 22.6321 
-1.3235 -18.184 23.2455 -0.48655 -18.3321 23.8204 0.3143 -18.5399 24.3318 
1.17126 -18.8368 24.8542 
LINES 1 65
64 0 1 2 3 4 5 6 7 8 9 10 11 12 13 14 15 16 17 18 19 20 21 22 23 24 25 26 27 28 29 30 31 32 33 34 35 36 37 38 39 40 41 42 43 44 45 46 47 48 49 50 51 52 53 54 55 56 57 58 59 60 61 62 63 

CELL_DATA 1
FIELD FieldData 2
Length 1 1 double
63.86886353 
Tortuosity 1 1 double
1.0465658835 
POINT_DATA 64
SCALARS MaximumInscribedSphereRadius float
LOOKUP_TABLE default
0.9796 0.762299 0.79556 1.15249 1.24 1.18971 1.0229 1.0479 1.24312 
1.44631 1.32907 1.05696 1.2115 1.423 1.4995 1.33461 1.11142 1.00182 
1.11089 1.10724 1.02839 1.00826 1.16365 1.1538 1.05163 1.16886 1.3406 
1.29735 1.09857 1.33919 1.18442 1.0168 1.17488 1.24 1.36743 1.7743 
1.85724 1.73697 1.5798 1.55 1.64514 1.78491 1.56242 1.34816 1.46798 
1.41781 1.28824 1.48466 1.55 1.49348 1.32319 1.25353 1.26806 1.25458 
1.24923 1.268 1.25699 1.16465 0.97613 1.08708 1.24788 1.29505 1.15937 
0.93 
TEXTURE_COORDINATES TCoords 2 float
0 0 0.015873 0 0.031746 0 0.047619 0 0.0634921 
0 0.0793651 0 0.0952381 0 0.111111 0 0.126984 0 
0.142857 0 0.15873 0 0.174603 0 0.190476 0 0.206349 
0 0.222222 0 0.238095 0 0.253968 0 0.269841 0 
0.285714 0 0.301587 0 0.31746 0 0.333333 0 0.349206 
0 0.365079 0 0.380952 0 0.396825 0 0.412698 0 
0.428571 0 0.444444 0 0.460317 0 0.47619 0 0.492063 
0 0.507937 0 0.52381 0 0.539683 0 0.555556 0 
0.571429 0 0.587302 0 0.603175 0 0.619048 0 0.634921 
0 0.650794 0 0.666667 0 0.68254 0 0.698413 0 
0.714286 0 0.730159 0 0.746032 0 0.761905 0 0.777778 
0 0.793651 0 0.809524 0 0.825397 0 0.84127 0 
0.857143 0 0.873016 0 0.888889 0 0.904762 0 0.920635 
0 0.936508 0 0.952381 0 0.968254 0 0.984127 0 
1 0 
FIELD FieldData 7
Curvature 1 64 double
0 0.23102555965 0.14473995514 0.1049702735 0.044424480193 0.021307965828 0.050614558655 0.089940333525 0.12905578018 
0.15438603528 0.17009727302 0.20325833022 0.21598372889 0.15419823549 0.053358427521 0.048631891513 0.16202129545 0.30506608926 
0.42456012749 0.41534231594 0.32630772881 0.24309546729 0.18105131291 0.13839242835 0.11547819095 0.12829642518 0.21773256984 
0.65501391841 1.2535952197 0.48678339805 0.16591934733 0.086572763676 0.052920555373 0.094567219142 0.21249372787 0.35615202886 
0.33970605522 0.20255900841 0.12481110628 0.097289963741 0.077391167696 0.04776140131 0.0049617454012 0.064409532746 0.15851682376 
0.26494283559 0.30193994394 0.23087876655 0.13498340117 0.074876884166 0.061585520588 0.077758894901 0.094454203185 0.097318391113 
0.081644613725 0.048155881334 0.0099686590767 0.04465582248 0.081353581349 0.098655563144 0.09862019071 0.077966761083 0.074457763485 
0 
Torsion 1 64 double
0 0 0.081294059205 0.12552454459 0.59249381055 1.9644828999 0.39344622305 0.21158651514 0.23619236332 
0.36315032261 0.5093301812 0.4285246031 0.28456932248 0.21534465332 0.17571483078 0.11936464379 0.14379671633 0.14111752637 
0.14312716715 0.16300532511 0.17863876756 0.17670649392 0.19350927494 0.26362855653 0.40967637622 0.4632478128 0.28623726462 
0.0098934810961 -0.035782998509 -0.13447946384 -0.34760535224 -0.51630387075 -1.3566830534 -0.66089513183 -0.26642581965 -0.1691789378 
-0.20776103497 -0.39659070716 -0.50319712613 -0.326292552 -0.15417530173 -0.018032576422 9.5458354895 0.0875186107 0.032428763568 
0.024296260328 0.030217843877 0.066101393855 0.19798033566 0.55115844658 0.58716071989 0.18962511293 0.026717876343 -0.016469534371 
-0.0038883105628 0.1242097689 4.3226105473 0.18363900956 0.017731493033 -0.035016845296 -0.065906022829 -0.13717390204 0 
0 
Abscissas 1 64 double
0 1.0458772418 2.0200814125 3.0448929663 4.0577956638 5.0724988533 6.087126235 7.1016566701 8.1160905832 
9.1303801684 10.144618803 11.158773337 12.17257524 13.186562544 14.201037781 15.215661492 16.230159062 17.244083124 
18.256657404 19.268416945 20.281148947 21.294689402 22.308731402 23.32299765 24.337408827 25.35169147 26.366636187 
27.378944239 28.366410681 29.384279009 30.397192098 31.411624368 32.426184005 33.44075939 34.45512108 35.468810332 
36.480987338 37.494671799 38.508898141 39.523359376 40.537852913 41.552396922 42.566990637 43.581599536 44.596043469 
45.610004797 46.623161785 47.63664508 48.650899636 49.665403876 50.679962504 51.694506454 52.708997636 53.723458831 
54.737937354 55.752473669 56.767076385 57.781663195 58.796242481 59.810836643 60.823365866 61.8494667 62.822148281 
63.868788663 
ParallelTransportNormals 3 64 double
0.087212889086 0 0.99618969678 0.2542875132 0.022632023703 0.96686382295 0.35041156597 0.022757980584 0.93631928783 
0.41261925237 0.016463879735 0.91075479315 0.42727548488 0.013921347189 0.90401430084 0.41073152776 0.017286575939 0.91159244534 
0.36798280265 0.025606133996 0.92947995291 0.30117294832 0.035413482151 0.95291171705 0.21997996618 0.040202415079 0.97467562825 
0.15878512751 0.03601497766 0.98665607213 0.16806758234 0.038170477455 0.98503619345 0.2722451318 0.082478502719 0.95868654147 
0.4183504161 0.17355086342 0.89155091114 0.52024940078 0.25285894253 0.81572232786 0.55333999572 0.28104470347 0.78411014774 
0.52324893203 0.25513022488 0.81309232163 0.41813132859 0.16440385477 0.8933854513 0.21626320874 -0.020941895924 0.97611047609 
-0.029067034694 -0.2901207432 0.95654851516 -0.18482907779 -0.53471755009 0.82456979913 -0.2314186664 -0.68997475518 0.68584272108 
-0.2266146486 -0.77417537703 0.59101462473 -0.21044229622 -0.81478840827 0.54021652114 -0.20155367092 -0.82762799397 0.5238396905 
-0.21041704156 -0.81788610596 0.53552496328 -0.25194464631 -0.77729460294 0.57648676952 -0.36342803625 -0.6663593143 0.65106476384 
-0.69086468279 -0.25978643004 0.67469771071 -0.94225396429 0.31189442036 0.12198088918 -0.88849274864 0.38944422389 -0.24272171738 
-0.85574450621 0.38118807772 -0.34985281118 -0.84435523161 0.37411960544 -0.38353456647 -0.851009124 0.379933452 -0.36253833304 
-0.8726829048 0.40454883011 -0.27343151195 -0.89466773402 0.44069320265 -0.07320619403 -0.8731311489 0.42884640227 0.23180327883 
-0.81677465737 0.34569552799 0.46192397753 -0.78946662287 0.28930908057 0.54133419186 -0.78783115128 0.2844467095 0.54627112914 
-0.79292917064 0.30892269702 0.52519529474 -0.79617640307 0.34107928203 0.49976800475 -0.79672589817 0.36375782904 0.48260551695 
-0.79673316238 0.3625198238 0.4835241931 -0.79542107207 0.3234173308 0.51254906911 -0.77953759701 0.23298115599 0.58141286175 
-0.7165862416 0.098675093317 0.69048344245 -0.59779174989 -0.02237242844 0.80133919048 -0.48331268429 -0.085287527748 0.87128347099 
-0.41909351183 -0.10600849616 0.90173323499 -0.40430196436 -0.1090240589 0.90810444124 -0.42772598998 -0.10591611327 0.8976815997 
-0.47818659711 -0.10198754649 0.87231652438 -0.54150472022 -0.10062481734 0.83465399065 -0.60275985213 -0.10332410744 0.7912045813 
-0.65016512254 -0.10874499073 0.751970638 -0.67759898669 -0.11344597024 0.72662894593 -0.68423828905 -0.11471256069 0.72017983325 
-0.67167614368 -0.11272468959 0.73221875308 -0.6433939494 -0.11045362092 0.7575250646 -0.60813580228 -0.11118693229 0.78600783207 
-0.57616981925 -0.1152010953 0.80917059204 -0.55621972578 -0.1195573603 0.82239020802 -0.54716808616 -0.12229853743 0.82803994664 
-0.54716808616 -0.12229853743 0.82803994664 
FrenetTangent 3 64 double
-0.97644003956 -0.13501940634 0.1683288717 -0.97644003956 -0.13501940634 0.1683288717 -0.95266249796 8.4257653319e-05 0.30402986348 
-0.92101242531 0.092933117843 0.37828500899 -0.89743956053 0.15570469454 0.41274481619 -0.89399828666 0.18184972462 0.40950914654 
-0.90798002183 0.17670808172 0.37992964324 -0.93472034719 0.13721303786 0.32782686709 -0.96433668378 0.056882036679 0.25849408932 
-0.97916489981 -0.067000382335 0.19169519491 -0.96030700791 -0.22299213447 0.16758567516 -0.89627645499 -0.38118472574 0.22668639373 
-0.79063409985 -0.49284841848 0.36331550552 -0.6804912239 -0.52961593063 0.50639772928 -0.61566983021 -0.52441129039 0.58816958327 
-0.61204233075 -0.52712555764 0.58952763452 -0.65534882378 -0.56561620107 0.50059587718 -0.70518753876 -0.64741785206 0.28906860778 
-0.67267413186 -0.73799840233 -0.053552502045 -0.4888300686 -0.76771464821 -0.41431797325 -0.21831861504 -0.72768079066 -0.65024429966 
0.037911134632 -0.66347755196 -0.7472350928 0.24134994288 -0.60599359197 -0.75797227625 0.39279291776 -0.56740210617 -0.72371857353 
0.50339736579 -0.55329314276 -0.66366994078 0.58436383785 -0.57121284926 -0.57639811402 0.64044855862 -0.6372867623 -0.42859214454 
0.62736878717 -0.77718307597 -0.048937422427 0.29668454644 -0.68190319635 0.66857034836 -0.14240993651 -0.20632268569 0.96806526606 
-0.29159343071 0.073554036461 0.95371016294 -0.3141553701 0.19496571669 0.92913657379 -0.29210092842 0.25522493814 0.92170346564 
-0.22830894022 0.25924645638 0.93843822528 -0.10741375687 0.17664753738 0.97839559094 0.070338847833 -0.038608528653 0.996775716 
0.22445407564 -0.33125379571 0.91645583132 0.26994675648 -0.55748566457 0.7850722785 0.22970902209 -0.68295304724 0.69340385089 
0.15593894391 -0.74850693076 0.64453116323 0.078965399371 -0.78195957456 0.61830711581 0.019323801174 -0.79725817699 0.60332908925 
-0.0047313137411 -0.80303793387 0.59590913018 0.026923698037 -0.80267071271 0.5958144354 0.13838317757 -0.78796133714 0.59997252216 
0.34184044896 -0.72951616323 0.59241140691 0.58631251967 -0.59739179376 0.54713862414 0.77263514812 -0.42454653508 0.47201182976 
0.86746510149 -0.27988305007 0.41130253583 0.90273711622 -0.18405861423 0.38882917268 0.90699964869 -0.12030982143 0.4035804556 
0.89131166822 -0.069396815031 0.44804864931 0.85932060376 -0.018504073189 0.51110243516 0.81511115229 0.035923906126 0.57818965952 
0.76740240231 0.087752619612 0.63513229385 0.72880106648 0.12491633134 0.67323466612 0.71067839011 0.13557276148 0.69033053835 
0.71733610213 0.11347779525 0.6874239642 0.74389902257 0.059730264517 0.66561741243 0.77775561935 -0.016101879877 0.62836050643 
0.80566598896 -0.10146836831 0.58361501392 0.82001794225 -0.17819283413 0.54389143057 0.82156440872 -0.2501151011 0.51232251417 
0.82156440872 -0.2501151011 0.51232251417 
FrenetNormal 3 64 double
0.034181014441 0.67343820777 0.73845286821 0.034181014441 0.67343820777 0.73845286821 0.20785724532 0.72996825198 0.65110806835 
0.30220239222 0.78321973559 0.54336043279 0.27817480841 0.92591249115 0.25554810641 -0.27653356215 0.49519189613 -0.82359830926 
-0.41881176636 -0.41086279953 -0.80980767119 -0.33659124113 -0.63780844101 -0.69275300719 -0.20270742689 -0.78670133493 -0.58310437205 
-0.0089560392812 -0.92883382934 -0.37038831897 0.23489546919 -0.97048199717 0.05467002575 0.44195151176 -0.72504963441 0.52818736154 
0.55937515332 -0.34010585969 0.75592819901 0.60499993626 -0.016188520383 0.79606093293 0.59074406666 0.18681980335 0.78493299637 
-0.50255011932 -0.31633719816 -0.80459564667 -0.35440772571 -0.35500388961 -0.86508230956 -0.099477768025 -0.31332482976 -0.94442137032 
0.26171493164 -0.16960365495 -0.95012625202 0.62258895216 0.025672828588 -0.78212780446 0.85571218744 0.17757654529 -0.48602800621 
0.95009123117 0.25565418088 -0.17879483283 0.95981935198 0.2642920096 0.094321499335 0.91776802721 0.19184760771 0.34770151516 
0.79856573144 0.0045898111312 0.60189011141 0.52415823048 -0.27655265978 0.80546680614 0.1794603052 -0.41842874103 0.89034340989 
-0.1924185113 -0.21560791845 0.95733397621 -0.57445504235 0.43182842668 0.69536006086 -0.54358671683 0.83364654546 0.097708333988 
-0.29685339748 0.94085240672 -0.16332424553 0.03408820505 0.98037131508 -0.19419083102 0.75906507841 0.64814268336 0.061084112156 
0.91083401711 -0.28358536177 0.29993455264 0.72923599055 -0.65489835333 0.19830031997 0.56290891273 -0.82341041604 -0.071615939124 
0.31985949354 -0.86330358496 -0.39038035887 -0.06100729039 -0.82360611945 -0.56387150178 -0.52490797977 -0.68688979277 -0.50264701866 
-0.82088302155 -0.46112962263 -0.3369132471 -0.92939076674 -0.28207815563 -0.23804351873 -0.9565186063 -0.19039443754 -0.22095726726 
-0.3522715984 -0.55637695183 -0.75256189675 0.99670371332 0.067185936863 0.045472604232 0.98303977306 0.18289735478 0.013467077995 
0.92796354646 0.36159408987 -0.090185201756 0.79144165875 0.56648871928 -0.22958796075 0.60071847155 0.72941373265 -0.32725055319 
0.42008527837 0.85498372979 -0.30418938294 0.21137640537 0.97699576737 -0.028271643051 -0.11364997541 0.85284131093 0.50965221618 
-0.31463852988 0.61684765966 0.72145794076 -0.41610109665 0.55576092325 0.71971499467 -0.49398203049 0.5644721856 0.66132662523 
-0.55753174888 0.58051102373 0.59343516943 -0.6189470991 0.54067817445 0.56971185715 -0.55452204404 -0.49591811184 0.66825932767 
0.41019178958 -0.86631362421 -0.28503227935 0.40843243848 -0.82897499636 -0.38207773897 0.33509902924 -0.83514289064 -0.43617082986 
0.22040213342 -0.86313970695 -0.45432669509 0.10002804913 -0.89105188486 -0.44274250742 -0.062107032858 -0.93254505704 -0.35567180526 
-0.062107032858 -0.93254505704 -0.35567180526 
FrenetBinormal 3 64 double
-0.21306456155 0.72680859944 -0.65295692996 -0.21306456155 0.72680859944 -0.65295692996 -0.22187728716 0.68348104875 -0.69543089193 
-0.24578410559 0.61476034468 -0.74943971875 -0.34237554112 0.34415419048 -0.87426362272 -0.3525567365 -0.8495385004 -0.39241315459 
0.012999396713 -0.89440819194 0.44706263752 0.11403599841 -0.75787398347 0.64235723414 0.17018948086 -0.61470760815 0.77017536775 
0.20286914094 -0.36438807093 0.90888142539 0.15044789499 0.091865124646 0.98434050499 -0.036978067651 0.57358629037 0.81831008182 
-0.24899228502 0.80089227778 0.54458644988 -0.41340872187 0.84808307248 0.33143375032 -0.52150945138 0.8307172561 0.19477354167 
0.61061244906 -0.78871377796 -0.071295255823 0.66701805307 -0.74434572038 0.032192630047 0.70200762734 -0.6947500816 0.15654908263 
0.69210895593 -0.65314084115 0.30723319277 0.61108768657 -0.64027738114 0.46542100783 0.46914138017 -0.66253093322 0.5839170557 
0.30966013356 -0.70316319432 0.64005634427 0.14316779193 -0.75028094749 0.64543123816 -0.058442895031 -0.80078046013 0.59609989321 
-0.32997555165 -0.83297396827 0.44415144208 -0.61949742084 -0.7728094896 0.13779854266 -0.74673934048 -0.6471344306 -0.15361440721 
-0.75457506014 -0.5911849896 -0.28481008879 -0.76287592977 -0.59036619205 -0.26360590863 -0.82718371071 -0.51231278202 -0.23087382293 
-0.90931365962 -0.33073637915 -0.25251161545 -0.94875939928 -0.029333494343 -0.31463494465 -0.58180516873 0.71747563928 -0.38305541724 
0.34388431354 0.92323919839 -0.17138541787 0.6757789246 0.73478146026 -0.058472649396 0.82352049304 0.56613131717 -0.036184655071 
0.92049458028 0.38075956066 -0.087817336834 0.96094061168 0.10432015051 -0.25634049039 0.81957634052 -0.24851065942 -0.51627228689 
0.54939431259 -0.47654679281 -0.68634469733 0.36055133947 -0.55585172292 -0.74902042278 0.29103049069 -0.57282576529 -0.76627142457 
0.93588585609 -0.21348246823 -0.28025506262 -0.076529878687 0.59262616955 0.80183377381 -0.12034492403 0.58793323498 0.79990725116 
-0.14842090114 0.58056513998 0.80057189206 -0.17279389475 0.56763859601 0.80494018055 -0.20535882214 0.53639150456 0.81860363303 
-0.26651952386 0.4366558142 0.85924329693 -0.3746808165 0.10771117434 0.92087598984 -0.40550625194 -0.50812128988 0.75985356116 
-0.32644464401 -0.78401724907 0.52796860471 -0.29736842017 -0.83113620753 0.46987724697 -0.3026145452 -0.82467000955 0.47785333774 
-0.31662580742 -0.80950999319 0.49441042566 -0.29283697514 -0.83190325269 0.47136343108 0.43294517956 -0.85772096436 -0.27726020053 
0.56317991116 0.48643961032 -0.66798569833 0.52895858763 0.55608699941 -0.64106946711 0.53179398001 0.54979730964 -0.64414135184 
0.54984108051 0.49466556027 -0.67303846076 0.56352902656 0.41746119862 -0.71285425149 0.56672271773 0.26038846517 -0.7816797352 
0.56672271773 0.26038846517 -0.7816797352 
