# vtk DataFile Version 4.2
vtk output
ASCII
DATASET POLYDATA
POINTS 64 float
0 0 0 -0.72023 0.458134 0.60881 -1.44702 0.784898 1.17093 
-2.26666 1.02554 1.72732 -3.14914 1.1344 2.21544 -4.08468 1.08451 2.60229 
-5.03499 0.851046 2.86667 -5.94675 0.439541 3.03238 -6.79434 -0.102513 3.16168 
-7.59059 -0.714564 3.30539 -8.36407 -1.34764 3.47964 -9.14738 -1.97131 3.64304 
-9.96028 -2.5764 3.66937 -10.73 -3.1548 3.36269 -11.309 -3.7201 2.75243 
-11.7008 -4.34759 2.05893 -11.9534 -5.08609 1.41175 -12.0853 -5.92397 0.85594 
-12.1026 -6.81647 0.37433 -12.0096 -7.72316 -0.0709197 -11.8099 -8.61706 -0.506858 
-11.505 -9.48225 -0.939819 -11.0914 -10.3146 -1.34604 -10.5539 -11.1159 -1.6572 
-9.8752 -11.8643 -1.72187 -9.14897 -12.4248 -1.30985 -8.61828 -12.6683 -0.48507 
-8.34772 -12.684 0.490844 -8.29978 -12.5793 1.49804 -8.44052 -12.4282 2.49084 
-8.73852 -12.2945 3.45097 -9.15894 -12.2479 4.37263 -9.65275 -12.3763 5.24848 
-10.1322 -12.7738 6.04685 -10.4728 -13.4583 6.71009 -10.6113 -14.3252 7.21601 
-10.5852 -15.2645 7.59733 -10.463 -16.2263 7.89608 -10.2997 -17.1967 8.14301 
-10.1291 -18.1728 8.36087 -9.96174 -19.1511 8.5716 -9.78561 -20.1225 8.80558 
-9.56849 -21.0646 9.11233 -9.25735 -21.9112 9.57359 -8.8044 -22.5085 10.2517 
-8.22773 -22.7751 11.0411 -7.55543 -22.8479 11.7969 -6.79445 -22.8558 12.4674 
-5.96314 -22.8576 13.0488 -5.0879 -22.8736 13.5616 -4.18989 -22.9064 14.0326 
-3.28172 -22.946 14.4833 -2.36935 -22.9714 14.9264 -1.45603 -22.9571 15.3679 
-0.54623 -22.8826 15.8106 0.35361 -22.7423 16.2577 1.23919 -22.5525 16.715 
2.11315 -22.3538 17.1905 2.98216 -22.2071 17.6929 3.84348 -22.1866 18.2275 
4.67142 -22.3569 18.7876 5.4298 -22.7343 19.3535 6.07162 -23.2474 19.8788 
6.66198 -23.9299 20.4124 
LINES 1 65
64 0 1 2 3 4 5 6 7 8 9 10 11 12 13 14 15 16 17 18 19 20 21 22 23 24 25 26 27 28 29 30 31 32 33 34 35 36 37 38 39 40 41 42 43 44 45 46 47 48 49 50 51 52 53 54 55 56 57 58 59 60 61 62 63 

CELL_DATA 1
FIELD FieldData 2
Length 1 1 double
63.868176948 
Tortuosity 1 1 double
0.9865054521 
POINT_DATA 64
SCALARS MaximumInscribedSphereRadius float
LOOKUP_TABLE default
1.116 1.20781 1.26251 1.24775 1.13077 0.959051 0.932598 1.03719 1.27537 
1.00181 0.921925 1.55418 1.67546 1.26172 0.84705 1.24278 1.4648 1.51489 
1.34701 1.17417 1.00392 1.02727 1.2083 1.49958 1.65418 1.40904 1.58745 
1.80667 2.01017 2.2301 2.31848 2.21427 2.22863 2.23298 2.17493 2.17 
2.23867 2.40668 2.48 2.48 2.24275 1.94008 1.86 1.76878 1.63079 
1.78965 1.47545 1.42952 1.78077 1.51883 1.20337 1.00851 1.03723 1.19756 
1.24 1.24581 1.26831 1.37945 1.52489 1.55 1.62631 1.75225 1.68623 
1.55 
TEXTURE_COORDINATES TCoords 2 float
0 0 0.015873 0 0.031746 0 0.047619 0 0.0634921 
0 0.0793651 0 0.0952381 0 0.111111 0 0.126984 0 
0.142857 0 0.15873 0 0.174603 0 0.190476 0 0.206349 
0 0.222222 0 0.238095 0 0.253968 0 0.269841 0 
0.285714 0 0.301587 0 0.31746 0 0.333333 0 0.349206 
0 0.365079 0 0.380952 0 0.396825 0 0.412698 0 
0.428571 0 0.444444 0 0.460317 0 0.47619 0 0.492063 
0 0.507937 0 0.52381 0 0.539683 0 0.555556 0 
0.571429 0 0.587302 0 0.603175 0 0.619048 0 0.634921 
0 0.650794 0 0.666667 0 0.68254 0 0.698413 0 
0.714286 0 0.730159 0 0.746032 0 0.761905 0 0.777778 
0 0.793651 0 0.809524 0 0.825397 0 0.84127 0 
0.857143 0 0.873016 0 0.888889 0 0.904762 0 0.920635 
0 0.936508 0 0.952381 0 0.968254 0 0.984127 0 
1 0 
FIELD FieldData 7
Curvature 1 64 double
0 0.11650897982 0.11988295419 0.15676506732 0.19206741274 0.21785797932 0.20369573277 0.14659693537 0.085666352355 
0.042290110091 0.01690716223 0.13821205094 0.33820054335 0.36164843913 0.21068041365 0.18042590802 0.17753779828 0.14371419946 
0.11409609037 0.10512462865 0.10632390279 0.11375448097 0.1557932692 0.28737037699 0.54053070702 0.5920700284 0.38196769686 
0.25236162206 0.19129423135 0.15809656675 0.15168652262 0.19169157297 0.27853054283 0.34806062115 0.31416417963 0.2154187443 
0.12558430422 0.064869863914 0.029647096737 0.0079023160145 0.025056212169 0.086172509652 0.2010924311 0.36256019095 0.37393603927 
0.21532732035 0.13588070504 0.11082876527 0.080479315606 0.049069650097 0.023023288947 0.016168141811 0.038625067857 0.058650858925 
0.064869022775 0.051049872968 0.022691360433 0.057132611408 0.12736876658 0.19180072939 0.21399001381 0.18077238835 0.15882847807 
0 
Torsion 1 64 double
0 0 -0.15600043475 -0.056631642146 0.016276917398 0.098916809156 0.1882195269 0.31477092668 0.49364849727 
0.60965906839 2.5512145428 0.32057352998 0.19858663608 0.30019327609 0.74622550433 0.47563639979 0.049712566259 -0.21037617857 
-0.34312751755 -0.22327133063 0.03387756402 0.33288783403 0.4160349915 0.24090846814 0.11241196662 0.097423495196 0.15022844587 
0.21118616063 0.27865909389 0.40583504596 0.53612162895 0.44593644676 0.27151993918 0.17450104434 0.12763669481 0.068481496987 
-0.048191427845 -0.24963974058 -0.52008073021 -1.2311301508 -0.26088468192 -0.061758482718 -0.034362996681 -0.069660775419 -0.16338259984 
-0.486419927 -0.63251017422 -0.3341114435 -0.20246893808 -0.12379603468 0.38431135629 1.2440438959 0.16642695118 0.073607334626 
0.10328167531 0.27528487369 2.082500819 0.42123912912 0.075559366608 0.015378986702 0.0014178808829 -0.00039554439177 0 
0 
Abscissas 1 64 double
0 1.0484596278 2.023645474 3.0430890174 4.0574335203 5.0710332412 6.0846797339 7.0986356292 8.1130080028 
9.1275417305 10.142141698 11.156650849 12.170374074 13.180823724 14.194364101 15.208370054 16.222281582 17.236370824 
18.250671358 19.265054462 20.279445355 21.293824283 22.308144542 23.321991856 24.334388461 25.3400008 26.350543827 
27.363388997 28.37714962 29.391193784 30.405363567 31.419450551 32.433079712 33.445628463 34.457776364 35.471007792 
36.485095229 37.499563293 38.514132169 39.528730984 40.543336974 41.557915835 42.572183889 43.585303736 44.596090029 
45.609396711 46.623572888 47.637867574 48.652293328 49.666823298 50.681404044 51.69600678 52.710600197 53.725157397 
54.739677624 55.754203157 56.768779538 57.783372457 58.797853777 59.811810422 60.82578708 61.844539602 62.819833083 
63.868171163 
ParallelTransportNormals 3 64 double
0.64556181748 0 0.76370802 0.61616526419 0.015846094658 0.78745747091 0.56805829648 0.033580185132 0.82230295084 
0.48812638915 0.049975923849 0.87134094088 0.37913570869 0.053508115444 0.92379272349 0.25973276188 0.035567712581 0.9650253003 
0.1759504064 0.0065489763376 0.9843772475 0.15411063684 -0.0052876331069 0.98803944888 0.17212667181 0.007360924246 0.98504732153 
0.19794938437 0.027843752936 0.97981670054 0.18863112138 0.020321415676 0.98183773614 0.079582511826 -0.06362298662 0.99479582799 
-0.1826467231 -0.25972740791 0.94825199611 -0.40404954172 -0.44743838369 0.79783636207 -0.45859757435 -0.51445266675 0.72458727458 
-0.45012337971 -0.49648884209 0.74221814362 -0.4382767514 -0.44792358888 0.77928040377 -0.43593995035 -0.42082983272 0.79552411125 
-0.43545383061 -0.43238839745 0.78956965187 -0.42908287316 -0.47157968181 0.77038983097 -0.41522556996 -0.51988803691 0.74652806721 
-0.40040233141 -0.55490795588 0.72921542325 -0.40160000796 -0.55285089631 0.73011870272 -0.45846779378 -0.48039399294 0.74768234807 
-0.63941227472 -0.31192878997 0.70274630766 -0.85064191973 -0.1767454189 0.49514581822 -0.95431650803 -0.14318091307 0.26225794293 
-0.98636593048 -0.15212636488 0.062767987831 -0.97825419105 -0.17449463081 -0.11211762352 -0.94379263803 -0.19686629969 -0.26551669713 
-0.89358000291 -0.20946293097 -0.39703911515 -0.83952094655 -0.20461890735 -0.5033246299 -0.79985932167 -0.18318334566 -0.57154958439 
-0.79213260325 -0.17298789496 -0.58532138784 -0.80086381034 -0.20125596483 -0.56401524262 -0.80345924231 -0.24293617229 -0.54353956815 
-0.80151114311 -0.26791798303 -0.53460250827 -0.80111446391 -0.27060297139 -0.53384421659 -0.8029265965 -0.26003698761 -0.53636708112 
-0.804066976 -0.25344307618 -0.53781307648 -0.80051688696 -0.27359067912 -0.53321745469 -0.785270511 -0.34777475374 -0.51225281377 
-0.73689445212 -0.51155900595 -0.44192075065 -0.61040227403 -0.7504968277 -0.25330530093 -0.4276900335 -0.90389736947 0.007126058766 
-0.29474906996 -0.94003961615 0.17160566959 -0.22347542563 -0.94405253347 0.24253566376 -0.19003996411 -0.94425552157 0.26882396103 
-0.1789136056 -0.94437134158 0.2759577702 -0.1791803657 -0.94436400303 0.27580976474 -0.17825645559 -0.94440103711 0.27628122836 
-0.16391115257 -0.94491313159 0.28332368027 -0.13007756983 -0.94511851901 0.29971788544 -0.080421038445 -0.94270075726 0.3238020056 
-0.027693660589 -0.93644247819 0.34972638763 0.0090319456251 -0.929652026 0.36832802569 0.010475945586 -0.92933321134 0.36909353403 
-0.03885976364 -0.93911036381 0.34141125252 -0.14853624676 -0.94970499314 0.27567627646 -0.30867499064 -0.93550483721 0.1719024424 
-0.47630041091 -0.87768782601 0.05293390828 -0.60132132379 -0.79776166788 -0.044598058483 -0.6984220991 -0.70416565385 -0.12789567397 
-0.6984220991 -0.70416565385 -0.12789567397 
FrenetTangent 3 64 double
-0.71629310899 0.38853436415 0.579625077 -0.71629310899 0.38853436415 0.579625077 -0.77667308479 0.28497181877 0.56175615872 
-0.83955654296 0.17238898747 0.51519593182 -0.90068930324 0.029215092343 0.43348040026 -0.9358371327 -0.14061202477 0.32316732439 
-0.92319038121 -0.3197673075 0.21323318011 -0.86977057872 -0.47141128522 0.14584423388 -0.81097444536 -0.5693679348 0.13468705872 
-0.77377384542 -0.61376596948 0.15673343883 -0.76725352297 -0.61937889429 0.16640858392 -0.78891500402 -0.60730537472 0.093772588 
-0.79290423211 -0.5929372576 -0.14045742146 -0.6770843756 -0.57416035469 -0.46032231688 -0.48150423623 -0.59160817528 -0.64664784654 
-0.31907999724 -0.67638171725 -0.66384917558 -0.19035611152 -0.78042450516 -0.59556875552 -0.073750385455 -0.85533391691 -0.51280090798 
0.037377360299 -0.88835246584 -0.4576383172 0.14447859813 -0.88878312643 -0.43496033022 0.24908231539 -0.86832875149 -0.42890929052 
0.35475057066 -0.83813955335 -0.41433575965 0.47040163138 -0.80798155919 -0.35480713804 0.60643756794 -0.77273167598 -0.18740126232 
0.71998489578 -0.6707722565 0.17800654416 0.64855738637 -0.41485546578 0.63817572744 0.4030664525 -0.13038992561 0.90583436795 
0.15841898594 0.044267588375 0.98637913883 -0.045976568346 0.126732756 0.99087081081 -0.21700815865 0.14086671605 0.96595239396 
-0.3552458497 0.08915500473 0.93051156436 -0.45296964444 -0.040528838055 0.89060424123 -0.4850067867 -0.26207286213 0.83431782421 
-0.41107931572 -0.54239082826 0.73268409673 -0.23945092948 -0.77537891864 0.58433790301 -0.055768192258 -0.89616068648 0.44021123649 
0.073252149792 -0.93903872728 0.33591723864 0.1407812677 -0.952774047 0.26907666199 0.16457316473 -0.95939311139 0.22908629655 
0.16654978636 -0.96314604525 0.21121284095 0.16928520952 -0.96088855868 0.21917047164 0.19401070257 -0.94403028035 0.2667708325 
0.26190208104 -0.88680588093 0.38076584602 0.38363820593 -0.72496064936 0.5720609966 0.51740188336 -0.43412521312 0.73744870359 
0.61964294393 -0.16838474988 0.7666088951 0.70826679545 -0.039878512606 0.70481760101 0.78611363838 -0.0047883316567 0.61806344288 
0.84178885245 -0.0087798896207 0.53973552915 0.87418434744 -0.024058331804 0.48499785913 0.89015874752 -0.035681227085 0.45425131177 
0.89719132697 -0.032032367159 0.44047888743 0.89991347677 -0.0054717570599 0.43603416633 0.89890031573 0.043782648983 0.43596020693 
0.89233869121 0.10591843822 0.43876297087 0.88018706307 0.16273517784 0.44585647454 0.86717576151 0.19146935735 0.45972348628 
0.85937442631 0.17029999657 0.48215506487 0.85482351393 0.082600745686 0.51230252472 0.83688213239 -0.074212611702 0.54232903734 
0.78493552721 -0.27101083091 0.55716186844 0.70502866971 -0.44838508814 0.54944097738 0.61084474671 -0.59270971377 0.52494179736 
0.61084474671 -0.59270971377 0.52494179736 
FrenetNormal 3 64 double
-0.49817714571 -0.86637287951 -0.034893626021 -0.49817714571 -0.86637287951 -0.034893626021 -0.49177037462 -0.83160895584 -0.25804736621 
-0.41684261336 -0.81257514439 -0.40738663503 -0.27465755373 -0.8113594455 -0.51600298291 -0.066540715567 -0.82997497544 -0.55381754515 
0.18742716174 -0.85891838305 -0.47658186106 0.43035926758 -0.86927378266 -0.24321593612 0.58491644647 -0.79444007737 0.16351670899 
0.52459863266 -0.48218903552 0.70163381378 -0.56882555479 0.53734144889 -0.62265693244 -0.21361426365 0.12794959244 -0.96850289011 
0.12044945493 0.073444219272 -0.989998927 0.53746352433 0.041462586575 -0.84226706805 0.87542829677 -0.28913736382 -0.38733045588 
0.75650107606 -0.60370485757 0.25148870128 0.66669299321 -0.5480781961 0.50510468594 0.77946767789 -0.37018954366 0.5053610995 
0.94268971082 -0.12060656871 0.31111117739 0.98918826019 0.11855734105 0.086317685264 0.96436767845 0.26315517094 0.027282536098 
0.93190967597 0.28120211868 0.22906270819 0.77973491575 0.19230403457 0.5958461374 0.49169248206 0.17922318654 0.85212531502 
0.10211825206 0.35610433054 0.92884959405 -0.35766158534 0.57399884188 0.73661626366 -0.69186152604 0.60448866383 0.39486843897 
-0.87353215118 0.47196771363 0.11911363539 -0.96834598125 0.23796197184 -0.075366839844 -0.97324155046 -0.10780942332 -0.20292366227 
-0.78951807039 -0.5615592437 -0.24761347367 -0.3770124228 -0.89653872867 -0.2325509429 0.049337788137 -0.96072049441 -0.27309689542 
0.4004803348 -0.82947205312 -0.38934767821 0.64360545146 -0.57737598523 -0.50240321908 0.75261479667 -0.32745250118 -0.57126686173 
0.74655540772 -0.17170314577 -0.64278538638 0.61614844543 -0.12841947098 -0.7770904276 0.23918799752 -0.18650418394 -0.95289311636 
-0.39973626739 -0.26176486434 -0.87845891898 0.34035408698 0.26569566937 0.90197832942 0.46376235635 0.32789258965 0.82304977157 
0.46127247306 0.46157848205 0.75774204747 0.39683363833 0.68876626217 0.60673231296 0.33068120183 0.89625311767 0.29560157614 
0.43479828293 0.88679660254 -0.15665962749 0.63696283277 0.46655359223 -0.61368240586 0.61738132313 0.053683724039 -0.78483014699 
0.53046658303 -0.17174196632 -0.83012643693 0.45046230109 -0.33281061621 -0.82844481351 0.42630581665 -0.28676477338 -0.8579215089 
0.25420069251 0.85304617574 -0.45573482419 0.025263799934 0.99889594777 -0.039605882782 -0.058286405208 0.99810069034 0.019942590473 
-0.14949603244 0.98656514065 0.065879887202 -0.27242116354 0.94245692171 0.19380830834 -0.4973243026 0.38110403594 0.77937683558 
-0.082202212045 -0.88463889122 0.4589736686 -0.055660718435 -0.96695885798 0.24878193545 -0.17108201141 -0.97659424723 0.13036342146 
-0.33545546564 -0.94194571943 0.0144184682 -0.48151819266 -0.8714557225 -0.093301414056 -0.59651451606 -0.78048622537 -0.18711409391 
-0.59651451606 -0.78048622537 -0.18711409391 
FrenetBinormal 3 64 double
0.4886140742 -0.31375003031 0.81413586395 0.4886140742 -0.31375003031 0.81413586395 0.39362522531 -0.47667348056 0.78602899115 
0.34840643917 -0.55677973357 0.75406185517 0.3366333424 -0.58381703347 0.73880691944 0.3460941985 -0.53978680851 0.76736497648 
0.33554519679 -0.40001010026 0.85287826834 0.24143330589 -0.14877664784 0.95894497645 0.013899626449 0.21138854815 0.97730327028 
-0.35506381223 0.62512804187 0.6950860526 0.29624233275 -0.57239318009 -0.76459566287 0.57617884618 -0.78409762379 -0.23067044367 
0.59732303446 -0.80189235886 0.013184737199 0.50268251245 -0.81769232662 0.28051657822 0.042177810564 -0.75259507824 0.65713140277 
-0.57087133164 -0.42195760156 0.70431364122 -0.72061432376 -0.30091175236 0.62463358354 -0.6220860228 -0.36244115708 0.69400676358 
-0.33157056873 -0.44303944747 0.83293277396 -0.025149961964 -0.44272871046 0.89630283295 0.089179487158 -0.42042185402 0.90293548149 
-0.075474422471 -0.46738362997 0.88082697165 -0.41320184699 -0.55694250897 0.72047156457 -0.62487757142 -0.60890459543 0.48863402909 
-0.68643543939 -0.65057996102 0.32488782968 -0.67190141163 -0.70598886112 0.22389332509 -0.59905347312 -0.78587016905 0.15343732839 
-0.46026623355 -0.88050375235 0.11343780829 -0.24534101931 -0.96297087625 0.11178048011 0.075553580633 -0.98414109586 0.16049286557 
0.50046138992 -0.82261935362 0.26988107799 0.80788621369 -0.44110738066 0.39082495373 0.87311751759 -0.091290451656 0.47888605525 
0.81891959168 0.13337279522 0.5581956645 0.72693553719 0.25578214209 0.63729131531 0.65609517341 0.29945097007 0.69272522688 
0.66127841774 0.29786624246 0.68846681535 0.77494627418 0.2751909425 0.56897119198 0.95692464452 0.21161532834 0.19878173336 
0.90137233439 0.061877712615 -0.42860128731 -0.92493330209 -0.078096024711 0.37202069514 -0.86445608571 -0.035962194545 0.50142037896 
-0.84772342515 -0.022817415668 0.52994750684 -0.83387336595 -0.0057526494008 0.55192582526 -0.78926879696 0.090915611373 0.60728009827 
-0.65344707146 0.43039326404 0.62271065758 -0.30436244206 0.88359348674 0.35584554803 -0.029421920268 0.99854650851 0.04515773416 
0.09998365956 0.98510284262 -0.1399130347 0.18134343656 0.94268674034 -0.28010045985 0.16087496666 0.95733631226 -0.24005505686 
-0.3611505652 0.52085136988 0.77348828029 -0.43533604806 0.046657747617 0.89905816266 -0.43425904405 -0.043336954148 0.8997449589 
-0.42589035731 -0.12438049565 0.89618463268 -0.388661091 -0.29204830528 0.87387089649 -0.025975694201 -0.9044883631 0.4257065472 
0.50469633617 -0.43406444603 -0.7462370032 0.51592503763 -0.24117977485 -0.82198155196 0.519960808 -0.20188156069 -0.82999071898 
0.52090867596 -0.19822056195 -0.83027872436 0.52064844668 -0.19878565457 -0.830306846 0.52061418301 -0.19883774091 -0.83031585872 
0.52061418301 -0.19883774091 -0.83031585872 
