# vtk DataFile Version 4.2
vtk output
ASCII
DATASET POLYDATA
POINTS 64 float
0 0 0 -0.842619 0.351885 0.51471 -1.69826 0.500751 0.958582 
-2.61885 0.398841 1.37948 -3.4698 -0.0116172 1.7449 -4.18636 -0.647813 2.07564 
-4.78136 -1.40217 2.40092 -5.29696 -2.21249 2.72769 -5.776 -3.05409 3.03027 
-6.26415 -3.91804 3.24028 -6.80002 -4.77537 3.1963 -7.3181 -5.51748 2.74709 
-7.71106 -6.12495 2.03671 -7.96774 -6.70179 1.2429 -8.09507 -7.31318 0.44372 
-8.10027 -7.98522 -0.315857 -7.99947 -8.72655 -1.00058 -7.81891 -9.53813 -1.58138 
-7.59373 -10.4169 -2.03488 -7.36377 -11.3577 -2.3352 -7.17727 -12.3492 -2.43024 
-7.12269 -13.328 -2.1736 -7.34979 -13.8081 -1.35307 -7.66884 -13.5048 -0.440745 
-7.90494 -12.91 0.345703 -8.04465 -12.2378 1.09249 -8.0802 -11.5963 1.87723 
-8.00377 -11.1071 2.76136 -7.83175 -10.947 3.74468 -7.63348 -11.2322 4.69372 
-7.4765 -11.8688 5.46515 -7.37242 -12.7 6.036 -7.30398 -13.6261 6.44359 
-7.25124 -14.597 6.73275 -7.19586 -15.5879 6.94325 -7.11974 -16.5858 7.10999 
-7.00488 -17.5821 7.26341 -6.8379 -18.5694 7.42653 -6.61279 -19.5406 7.61466 
-6.32627 -20.4881 7.83679 -5.96745 -21.3999 8.09929 -5.51226 -22.2521 8.40787 
-4.92808 -23.001 8.76258 -4.19338 -23.5812 9.15047 -3.32799 -23.9323 9.54351 
-2.39413 -24.054 9.91894 -1.4483 -24.0084 10.2825 -0.517995 -23.8689 10.6624 
0.385233 -23.6939 11.0899 1.25504 -23.5226 11.5832 2.09166 -23.3782 12.1386 
2.90177 -23.2815 12.7415 3.69251 -23.2639 13.3767 4.46065 -23.3732 14.0298 
5.17936 -23.6629 14.6834 5.79277 -24.1654 15.3143 6.23317 -24.8593 15.9071 
6.45173 -25.6732 16.47 6.43027 -26.5227 17.0224 6.18395 -27.3368 17.5737 
5.75588 -28.0785 18.1174 5.19386 -28.7491 18.6409 4.57452 -29.3383 19.1099 
3.84226 -29.9466 19.5495 
LINES 1 65
64 0 1 2 3 4 5 6 7 8 9 10 11 12 13 14 15 16 17 18 19 20 21 22 23 24 25 26 27 28 29 30 31 32 33 34 35 36 37 38 39 40 41 42 43 44 45 46 47 48 49 50 51 52 53 54 55 56 57 58 59 60 61 62 63 

CELL_DATA 1
FIELD FieldData 2
Length 1 1 double
63.834405948 
Tortuosity 1 1 double
0.77472277386 
POINT_DATA 64
SCALARS MaximumInscribedSphereRadius float
LOOKUP_TABLE default
0.62 0.790661 0.914757 0.93 0.93 0.93 0.943787 1.19753 1.50755 
1.54227 1.40959 1.15174 0.967203 1.18272 1.47213 1.69529 1.43474 1.43515 
1.72474 1.7331 1.57072 1.78139 1.8696 2.06526 2.26761 2.43641 2.14808 
1.87167 1.86804 2.05573 2.06248 1.87749 1.86 1.92216 2.09434 2.28083 
2.35626 1.9316 1.67394 2.04531 1.92607 1.64623 1.74296 1.84648 1.85039 
2.01979 2.10879 1.97304 2.19616 2.54751 2.50108 2.58691 2.74067 2.60905 
2.49261 2.47686 2.32257 2.30949 2.65342 2.65793 2.48685 2.49496 2.59567 
2.79 
TEXTURE_COORDINATES TCoords 2 float
0 0 0.015873 0 0.031746 0 0.047619 0 0.0634921 
0 0.0793651 0 0.0952381 0 0.111111 0 0.126984 0 
0.142857 0 0.15873 0 0.174603 0 0.190476 0 0.206349 
0 0.222222 0 0.238095 0 0.253968 0 0.269841 0 
0.285714 0 0.301587 0 0.31746 0 0.333333 0 0.349206 
0 0.365079 0 0.380952 0 0.396825 0 0.412698 0 
0.428571 0 0.444444 0 0.460317 0 0.47619 0 0.492063 
0 0.507937 0 0.52381 0 0.539683 0 0.555556 0 
0.571429 0 0.587302 0 0.603175 0 0.619048 0 0.634921 
0 0.650794 0 0.666667 0 0.68254 0 0.698413 0 
0.714286 0 0.730159 0 0.746032 0 0.761905 0 0.777778 
0 0.793651 0 0.809524 0 0.825397 0 0.84127 0 
0.857143 0 0.873016 0 0.888889 0 0.904762 0 0.920635 
0 0.936508 0 0.952381 0 0.968254 0 0.984127 0 
1 0 
FIELD FieldData 7
Curvature 1 64 double
0 0.20016039339 0.26295008573 0.31957696343 0.26254885919 0.16611561008 0.09462516576 0.052358110424 0.093169822355 
0.25601281959 0.43112210936 0.31966279453 0.15922723939 0.13082114303 0.13871784401 0.14377260113 0.14529875768 0.14732421373 
0.16184288032 0.21249237464 0.37901480377 0.96798726369 0.95237658277 0.32812276044 0.12674131475 0.11216822364 0.21014051484 
0.35939412501 0.46042046371 0.40233416205 0.2827079416 0.18862451963 0.12451629229 0.079031452466 0.047563037221 0.039843774453 
0.052279048119 0.06350713955 0.072077795593 0.087796845522 0.11932647614 0.16805311689 0.22527625845 0.26135666387 0.23700246012 
0.16464340939 0.094052669609 0.063475390787 0.071891409924 0.07333331488 0.070385508141 0.085293255402 0.12701197685 0.1835020687 
0.23544308417 0.2582649614 0.25126012365 0.23989491574 0.22441097953 0.19221258624 0.14867208708 0.10524945158 0.090700881604 
0 
Torsion 1 64 double
0 0 0.12950631425 0.11443010383 0.14837553194 0.16500434982 -0.045095233685 -1.1671293541 -0.51281643387 
0.010182975738 0.09553194481 0.26349629724 0.74823570398 0.54707654889 0.27914231312 0.21983614471 0.22724052635 0.24662232811 
0.23232218574 0.1636931899 0.02681692026 -0.038602523791 -0.079739431405 -0.32165932823 -1.0317294953 -1.0131729977 -0.35572777764 
-0.16633435464 -0.096158630057 -0.057910127092 -0.010803769794 0.044092532255 0.10601177631 0.24296675148 0.62589658403 0.75218539237 
0.32203074879 0.14645679059 0.048152504912 -0.030068325685 -0.066762428912 -0.063710883731 -0.042693416097 -0.014340816924 0.030609924697 
0.14542149285 0.49154383164 0.83006467844 0.40591573796 0.30708289338 0.4069720407 0.31950971269 0.10473051718 -0.015294506856 
-0.089743036731 -0.16586512162 -0.23234250321 -0.22251809457 -0.14321723052 -0.045495573745 0.052529839217 0.26754796888 0 
0 
Abscissas 1 64 double
0 1.0482152907 2.0235626151 3.0409307331 4.0539035925 5.0676052838 6.0819487456 7.0964606802 8.1110236348 
9.1253195392 10.13730528 11.147715102 12.161657871 13.175933006 14.190176471 15.204386446 16.21857888 17.2327715 
18.246936412 19.260970568 20.274326314 21.287700499 22.265103141 23.278076523 24.291992229 25.306444134 26.320632621 
27.333937119 28.344948079 29.355561053 30.367968435 31.381643031 32.395809406 33.410221495 34.424761122 35.439338862 
36.453902578 37.468438351 38.482956447 39.49744513 40.511854491 41.526099318 42.539967349 43.553331505 44.56656429 
45.580387694 46.594716621 47.609227327 48.623743104 49.638232834 50.652739769 51.667241662 52.681653912 53.69581667 
54.709545088 55.722884634 56.736214305 57.749673418 58.763223901 59.77677965 60.791150506 61.810776369 62.785795614 
63.834358364 
ParallelTransportNormals 3 64 double
0.52128462814 0 0.853382878 0.46274936736 0.017003133129 0.88632607796 0.41404927817 0.018436675956 0.91006773606 
0.38989259795 0.011440320958 0.92078927074 0.40376975408 0.020705368249 0.91462630261 0.43051302229 0.049057559009 0.90125018366 
0.44823863061 0.074030230715 0.89084322693 0.4446225874 0.068024608075 0.89313123754 0.40305779257 -0.0052713035427 0.91515934635 
0.27526711577 -0.22006280377 0.9358420686 0.059748440849 -0.5471121597 0.83492419328 -0.069661859522 -0.73880343645 0.6703109037 
-0.097649513454 -0.78982377681 0.60551050702 -0.095509730024 -0.78320273871 0.61438698029 -0.091614707166 -0.74548380439 0.66019742715 
-0.095882964723 -0.6823825043 0.72467963604 -0.11177966369 -0.59464405652 0.79618072875 -0.13881053949 -0.48203434817 0.86508642419 
-0.17485629602 -0.33793138788 0.9247851928 -0.21884756722 -0.13380795495 0.96654082869 -0.26346977887 0.23088304021 0.93663050205 
-0.1852140881 0.86967740289 0.45755541355 0.052564608372 0.9529794173 -0.29844127087 0.1412587238 0.80952416405 -0.56983910078 
0.15939845887 0.74837240766 -0.64384071847 0.15676243287 0.76813265714 -0.62080412424 0.1600093896 0.85781313468 -0.48841951355 
0.19954281868 0.96101634185 -0.19139031899 0.27885155591 0.93420671992 0.22248508763 0.34726592017 0.75676467234 0.55381730867 
0.38314986856 0.55505761319 0.73831377087 0.39897190805 0.39390803007 0.82804461258 0.40618283649 0.28103037928 0.86950412838 
0.41002062651 0.21139708734 0.8872397406 0.41205354303 0.18065177856 0.89307156073 0.41164894451 0.18487660043 0.89239329284 
0.40729617426 0.21551186093 0.88750462772 0.39788458995 0.26252225295 0.87907333015 0.3828201 0.31901632308 0.86699328524 
0.35954948627 0.38606199976 0.84951768626 0.32111209583 0.46935616564 0.82255201154 0.25601770467 0.56962725579 0.78101198733 
0.15162783953 0.6748226893 0.7222349592 0.010393037858 0.75702369273 0.65330476304 -0.13420874047 0.79502436797 0.59154396989 
-0.2486392702 0.79966012222 0.54655484835 -0.3289077079 0.79174165912 0.51474737969 -0.38378669024 0.78232883019 0.49058065376 
-0.42014348717 0.77522853964 0.47169922781 -0.43873698971 0.77178914529 0.46027314615 -0.43616722523 0.77216546564 0.4620807779 
-0.40669909843 0.77427045822 0.48487225211 -0.34551744614 0.77066774401 0.53543339713 -0.25684123327 0.74686987392 0.61336609975 
-0.16090158152 0.6898154873 0.70587907927 -0.092502800336 0.61215999582 0.78530463608 -0.067602868309 0.55518615947 0.82897417362 
-0.066403483057 0.54506406761 0.83576057555 -0.061997349634 0.57243803597 0.81760077276 -0.046595170664 0.60797298188 0.79258926524 
-0.030592498891 0.63081049362 0.77533361861 -0.02393151814 0.63789593373 0.76975064805 -0.044395763656 0.61972066769 0.78356576636 
-0.044395763656 0.61972066769 0.78356576636 
FrenetTangent 3 64 double
-0.84348508693 0.24871105067 0.47610473785 -0.84348508693 0.24871105067 0.47610473785 -0.89885023607 0.023761782301 0.43761127822 
-0.88365494916 -0.2555723838 0.39222020278 -0.78013468765 -0.5209096983 0.34647215666 -0.64898594664 -0.68807304427 0.3246116554 
-0.54803090588 -0.77209741629 0.32175721586 -0.49036738573 -0.81441308832 0.31027592332 -0.47724782285 -0.84158208769 0.25293102868 
-0.50953288067 -0.85647608419 0.0826133205 -0.53285175536 -0.80863842857 -0.24934493909 -0.45574737687 -0.67512685948 -0.5800845215 
-0.32133596058 -0.58580341363 -0.74402793027 -0.18971902638 -0.58704185022 -0.78701242501 -0.065496107659 -0.63426802421 -0.77033391029 
0.047255062086 -0.6986311396 -0.71391980634 0.13908554045 -0.76765421964 -0.62558949121 0.20058437487 -0.83565213047 -0.51132321031 
0.22515598131 -0.90013421878 -0.37291174862 0.20659575147 -0.95856757469 -0.19612852987 0.12105067937 -0.98932433392 0.081142438577 
-0.094704906754 -0.80086257965 0.59131219262 -0.29918382673 -0.09685188883 0.94926748046 -0.27755403433 0.44901600629 0.84932230874 
-0.18565981496 0.62593047229 0.75745724432 -0.086532639373 0.64862410626 0.75617383656 0.020275322258 0.56079244511 0.82770812779 
0.12468282012 0.32584639098 0.93716504622 0.18782214698 -0.063454558923 0.98015119245 0.17906468554 -0.46463614894 0.86720763805 
0.13013534929 -0.73168049452 0.66911018883 0.085460388895 -0.87050401255 0.48468472853 0.059855648935 -0.93700388556 0.34415261113 
0.053331570563 -0.96768350043 0.24646376321 0.064825199979 -0.98041512565 0.18596740263 0.094136970901 -0.98297185987 0.15781176576 
0.13894863477 -0.97792629387 0.15605588953 0.19333704294 -0.96572402203 0.17319902164 0.25232289785 -0.94625354918 0.20232986898 
0.31838746828 -0.91731187657 0.23909901954 0.40198934146 -0.87113063596 0.28202124821 0.51432780061 -0.79229695591 0.32822621341 
0.65475851151 -0.65983202285 0.3686637943 0.79632468065 -0.46348521151 0.38864953584 0.89390140448 -0.23489659066 0.38179034923 
0.93000055484 -0.037651143726 0.36562461537 0.92578077499 0.091338062779 0.36686143834 0.90412388339 0.15508184995 0.39813267048 
0.87441945086 0.17078712874 0.45411714416 0.84158209517 0.15569743558 0.51720197761 0.81212317597 0.11890421791 0.57124227261 
0.78976817947 0.056389000885 0.61080807402 0.7700417964 -0.045296964213 0.63638338825 0.73633615279 -0.19759776975 0.64711992048 
0.6617672259 -0.39354718634 0.63811029677 0.52433369973 -0.59528055715 0.60886388429 0.3277095939 -0.74984972155 0.57474500186 
0.097944231419 -0.82658638797 0.55422186059 -0.13293909668 -0.8258924975 0.54793136353 -0.33410462752 -0.77077092019 0.54248160011 
-0.48815061649 -0.69631573247 0.52616858167 -0.59307453526 -0.63245363053 0.49826198015 -0.6686189422 -0.59238771496 0.44947247445 
-0.6686189422 -0.59238771496 0.44947247445 
FrenetNormal 3 64 double
-0.36920256394 -0.91222988945 -0.17755589425 -0.36920256394 -0.91222988945 -0.17755589425 -0.10470887417 -0.98125427951 -0.16179026733 
0.20465363633 -0.96442314348 -0.16734661473 0.50930099413 -0.85043159826 -0.13182789561 0.71914397005 -0.69405708367 -0.033417285264 
0.81826599868 -0.57465024339 0.014759850231 0.67925104708 -0.58020570268 -0.44942113615 -0.096509225979 -0.23588836732 -0.96697603252 
-0.18920573358 0.017862554867 -0.98177498416 0.040157275192 0.27016526029 -0.96197615635 0.39691124569 0.42918123207 -0.81133527785 
0.83829194274 0.18948432118 -0.51123606168 0.9653084171 -0.25798959758 -0.040261984869 0.86008289731 -0.42729958464 0.27869781972 
0.7205761282 -0.47112684711 0.50873326744 0.53655785054 -0.47254548634 0.69914693474 0.29607499037 -0.44581661056 0.84474087733 
0.029196796212 -0.37633423606 0.92602380631 -0.20071296134 -0.23771054264 0.95037256119 -0.35101801348 0.033799589509 0.93575848485 
-0.35550886707 0.58202304867 0.73134302229 -0.10130358131 0.99243699312 0.069328198391 0.25357019032 0.88694647485 -0.38604159016 
0.74319019941 0.59372942415 -0.3084699311 0.90532054797 -0.26560847304 0.33143150797 0.52440936223 -0.71082059511 0.46875249586 
0.26876312641 -0.92031477009 0.28423072641 0.058847012796 -0.99539130216 -0.075717796288 -0.10513522631 -0.88544395649 -0.45269811587 
-0.18657854061 -0.68086421484 -0.70824598067 -0.1856547316 -0.49185762607 -0.85065174796 -0.12318049652 -0.34906903189 -0.92896575623 
0.03243703355 -0.24500597847 -0.96897879717 0.42378290517 -0.14167215696 -0.8946155874 0.94500803654 0.038357681533 -0.3247899308 
0.96937061555 0.16653914116 0.18051405533 0.89016197999 0.24689154582 0.38295719601 0.82906548313 0.31923246322 0.4590654192 
0.80204659413 0.39512204438 0.44788372475 0.78844202689 0.48592758053 0.37713864389 0.75289072355 0.60041443601 0.26955159697 
0.66021392 0.73674033232 0.14605225975 0.49573821867 0.86824880307 0.019688435887 0.28301603817 0.95623175101 -0.074315277658 
0.068457303174 0.99507732602 -0.071656910978 -0.16266998495 0.9721947157 0.16845150865 -0.41455397481 0.54403338401 0.72950166487 
-0.4525752814 -0.050158396712 0.8903144107 -0.44029814762 -0.35687672525 0.82387896209 -0.36567059008 -0.65919230555 0.65707725866 
-0.22083563678 -0.90285808143 0.36888874519 -0.1721083141 -0.97524479078 0.13883921015 -0.26257892497 -0.96490160438 0.0041475316675 
-0.4403198858 -0.89290217486 -0.094043098132 -0.6634227634 -0.73383379366 -0.14614445005 -0.87357355176 -0.47218429587 -0.11794592154 
-0.98829434179 -0.14624010973 -0.043452552257 -0.98779119218 0.15570453596 -0.004965696251 -0.92695316491 0.37292670849 -0.041030478491 
-0.85929826133 0.48893249213 -0.15017162253 -0.80303065743 0.50948878786 -0.30913255775 -0.68847962787 0.26477241815 -0.67519728124 
-0.68847962787 0.26477241815 -0.67519728124 
FrenetBinormal 3 64 double
0.39015685936 -0.32554483881 0.86127706519 0.39015685936 -0.32554483881 0.86127706519 0.42556351441 -0.19124700425 0.88448871026 
0.42103541414 -0.067607373594 0.90452110151 0.36332129927 0.073615099663 0.92875101647 0.24829255207 0.21175516608 0.9452568742 
0.17350182018 0.27137184366 0.94670715687 0.54603831556 -0.0096262218271 0.8377048966 0.87345319559 -0.48589738407 0.031356773856 
0.83939110902 -0.51587754975 -0.17115174484 0.84525522776 -0.52260369687 -0.11148531728 0.79671562776 -0.60000599468 0.072367222077 
0.44046545741 -0.78799115008 0.43018615531 -0.17940554872 -0.76734818279 0.61562197448 -0.50593247537 -0.64429739906 0.57350953953 
-0.69176368983 -0.53847379204 0.48115379321 -0.83232258498 -0.432906182 0.34616665369 -0.93386589435 -0.32083183537 0.15799185035 
-0.97388517351 -0.21938762715 -0.05845286887 -0.95761814029 -0.15697739543 -0.24150692475 -0.92851122085 -0.14175665791 -0.3431791991 
-0.92986258451 -0.14095495495 -0.33983418693 -0.94880273094 -0.075422319698 -0.30673254058 -0.92664228082 0.1082154187 -0.3600326465 
-0.64280538315 0.50566433013 -0.57541708754 0.41582064373 0.71325935523 -0.5642289291 0.85122484228 0.4245537835 -0.30849692512 
0.95510239045 0.21643671925 -0.2023229357 0.98043861113 0.071900448828 -0.18322242022 0.97820367132 -0.010111825523 -0.2074013703 
0.97378295274 -0.032673764461 -0.22512038128 0.97889163985 -0.017286983991 -0.20364753281 0.99057754193 0.01321095866 -0.13631435729 
0.99804988975 0.059671714452 0.01832222854 0.90344105659 0.13680344051 0.40629924432 0.31320606889 0.17970812716 0.93252718322 
-0.20251885493 0.12619381215 0.97111339975 -0.41259233778 0.080135372184 0.90738408898 -0.49898254469 0.051911993706 0.86505581612 
-0.50532235344 0.049167989078 0.86152877373 -0.4655789295 0.070751689468 0.8821737124 -0.41063666655 0.10848059127 0.90532286473 
-0.36797944432 0.1477680086 0.9180172897 -0.34656979318 0.17699004116 0.92117528396 -0.34762364881 0.17448332312 0.92125640771 
-0.36112679993 0.09167064211 0.92799996107 -0.34127471728 -0.21562651288 0.91489713864 -0.10346499627 -0.82460735923 0.55616337316 
0.17483202975 -0.9840304324 0.033434555138 0.31285318969 -0.92108485577 -0.23178776968 0.45468776825 -0.74251416907 -0.49186557323 
0.57227427361 -0.42622478269 -0.70059588237 0.61434058959 -0.21643886687 -0.75877523476 0.6235875065 -0.17297403056 -0.76237694515 
0.60678046845 -0.21873801283 -0.7641800474 0.53380184368 -0.32730570046 -0.77969646025 0.35982728043 -0.46343002258 -0.80978820838 
0.11696675393 -0.54347840208 -0.83123402538 -0.08121426742 -0.54190190999 -0.83650855508 -0.17068077788 -0.51656350886 -0.83906508292 
-0.15269405258 -0.52544211751 -0.83701559571 -0.05834688384 -0.58345829352 -0.8100444808 0.28097066062 -0.76090233391 -0.5848787277 
0.28097066062 -0.76090233391 -0.5848787277 
