# vtk DataFile Version 4.2
vtk output
ASCII
DATASET POLYDATA
POINTS 64 float
0 0 0 -0.432967 0.626357 0.706387 -1.03644 1.07065 1.35382 
-1.79599 1.35892 1.95726 -2.65979 1.45329 2.47886 -3.5656 1.32933 2.91566 
-4.43983 0.976266 3.28659 -5.21532 0.415707 3.62038 -5.86206 -0.294198 3.94553 
-6.40044 -1.08987 4.27104 -6.87848 -1.93639 4.56052 -7.34152 -2.82848 4.68463 
-7.76536 -3.7016 4.41034 -8.06587 -4.46321 3.81279 -8.24833 -5.1849 3.12383 
-8.30566 -5.92778 2.43592 -8.19024 -6.68617 1.77342 -7.8632 -7.4007 1.13358 
-7.36722 -8.03465 0.51669 -6.78777 -8.63601 -0.0593346 -6.20136 -9.30723 -0.542161 
-5.77208 -10.2054 -0.699606 -5.97407 -10.8504 -0.0107339 -6.40283 -10.7682 0.898435 
-6.72452 -10.3447 1.76013 -6.87461 -9.76376 2.57707 -6.83867 -9.17489 3.40092 
-6.60363 -8.82655 4.31756 -6.27378 -9.16835 5.19473 -6.04072 -9.96865 5.77076 
-5.86702 -10.8843 6.17087 -5.7078 -11.8356 6.48528 -5.5407 -12.7978 6.76057 
-5.34635 -13.7564 7.02998 -5.09927 -14.6995 7.31066 -4.7669 -15.6128 7.60071 
-4.3153 -16.4737 7.88927 -3.72126 -17.2459 8.16964 -2.98491 -17.8844 8.44784 
-2.13381 -18.3485 8.7436 -1.21576 -18.6151 9.08024 -0.282694 -18.6852 9.47013 
0.625624 -18.5813 9.90854 1.49125 -18.3384 10.378 2.31944 -17.9976 10.8545 
3.13326 -17.6029 11.3141 3.95641 -17.1974 11.7469 4.79952 -16.8217 12.168 
5.66247 -16.5225 12.6092 6.53202 -16.3693 13.107 7.35652 -16.4702 13.6847 
8.00278 -16.9348 14.3049 8.30814 -17.7306 14.8449 8.27517 -18.6678 15.2258 
8.03808 -19.6195 15.4831 7.70643 -20.5591 15.6733 7.33863 -21.493 15.8214 
6.96041 -22.4299 15.9132 6.58367 -23.3717 15.9207 6.22336 -24.3179 15.8555 
5.90037 -25.2787 15.812 5.64684 -26.2439 15.9734 5.49926 -27.097 16.451 
5.4436 -27.8044 17.2096 
LINES 1 65
64 0 1 2 3 4 5 6 7 8 9 10 11 12 13 14 15 16 17 18 19 20 21 22 23 24 25 26 27 28 29 30 31 32 33 34 35 36 37 38 39 40 41 42 43 44 45 46 47 48 49 50 51 52 53 54 55 56 57 58 59 60 61 62 63 

CELL_DATA 1
FIELD FieldData 2
Length 1 1 double
63.774068539 
Tortuosity 1 1 double
0.9238333803 
POINT_DATA 64
SCALARS MaximumInscribedSphereRadius float
LOOKUP_TABLE default
1.116 1.20322 1.11498 0.898268 0.703896 0.803585 1.03612 1.21733 1.05737 
1.01166 1.19894 1.24 1.24 1.08997 1.01622 1.21441 1.43418 1.34396 
0.949301 1.35311 1.55 1.67658 1.86 1.86 1.89366 2.07381 2.17 
2.09279 1.95535 2.12583 1.97007 1.76407 1.57075 1.55 1.55 1.49096 
1.28725 1.4167 1.55 1.57146 1.75403 1.96941 2.10445 1.90145 1.69375 
1.55 1.55278 1.70457 1.91233 2.11206 2.17 2.03835 1.94621 2.06763 
1.76028 1.75019 2.10732 1.7465 1.67568 1.78146 1.62741 1.772 1.72896 
1.55 
TEXTURE_COORDINATES TCoords 2 float
0 0 0.015873 0 0.031746 0 0.047619 0 0.0634921 
0 0.0793651 0 0.0952381 0 0.111111 0 0.126984 0 
0.142857 0 0.15873 0 0.174603 0 0.190476 0 0.206349 
0 0.222222 0 0.238095 0 0.253968 0 0.269841 0 
0.285714 0 0.301587 0 0.31746 0 0.333333 0 0.349206 
0 0.365079 0 0.380952 0 0.396825 0 0.412698 0 
0.428571 0 0.444444 0 0.460317 0 0.47619 0 0.492063 
0 0.507937 0 0.52381 0 0.539683 0 0.555556 0 
0.571429 0 0.587302 0 0.603175 0 0.619048 0 0.634921 
0 0.650794 0 0.666667 0 0.68254 0 0.698413 0 
0.714286 0 0.730159 0 0.746032 0 0.761905 0 0.777778 
0 0.793651 0 0.809524 0 0.825397 0 0.84127 0 
0.857143 0 0.873016 0 0.888889 0 0.904762 0 0.920635 
0 0.936508 0 0.952381 0 0.968254 0 0.984127 0 
1 0 
FIELD FieldData 7
Curvature 1 64 double
0 0.24847425073 0.22630672371 0.23211357236 0.23496612 0.23758572253 0.22973354912 0.19392780858 0.13500077494 
0.084461749162 0.1688278502 0.40840177085 0.36741660147 0.15120033816 0.12387331832 0.17182541836 0.21401864785 0.18509758273 
0.095951346664 0.11383733779 0.43708677856 1.5983360405 0.96920061953 0.36493278464 0.23425478552 0.18295681063 0.32724809677 
0.78901304689 0.59663526231 0.21520015539 0.091496155134 0.040204449416 0.027310571241 0.054551313869 0.088448219188 0.12715572023 
0.16454178401 0.19182172523 0.20614483041 0.20917315602 0.2007380246 0.17883981997 0.14536734396 0.10237207867 0.056680157864 
0.029505591962 0.036665245608 0.07936954417 0.15335526528 0.26817897086 0.41577828777 0.50206662581 0.4072856945 0.23621392316 
0.11371375296 0.054240532736 0.05574524327 0.082209066019 0.072644379839 0.044295092145 0.2133927315 0.36242660464 0.32551124318 
0 
Torsion 1 64 double
0 0 0.031057536771 0.10124322475 0.18159506556 0.2119192009 0.19539665816 0.15128225372 -0.051603109863 
-1.0829044046 -0.3473179055 0.018742916059 0.15099935438 0.79132482052 0.45267405122 -0.11812748456 -0.14769475413 -0.0073765283939 
0.83401895591 1.0050925785 -0.026248596453 -0.093513330823 -0.21032813622 -0.52229620219 -0.55893674044 -1.0802312608 -0.61987381595 
-0.14537862198 -0.076755858735 0.040435302337 0.24993206319 0.7094215876 1.0976191162 0.040456601549 -0.086560532019 -0.027109742956 
0.053885568163 0.12102511231 0.16133877149 0.15794490349 0.11568540262 0.054663464846 -0.024702551759 -0.16508847045 -0.53955560036 
-1.4185502302 -1.0377982086 -0.32567990065 -0.095182287459 -0.01777802431 0.0019772160303 0.001682498551 -0.0036674903767 -0.0046549775824 
0.065418202039 0.49459363573 0.38389762926 0.14490422673 0.39575364721 2.377816727 0.15607390353 0.052260122709 0 
0 
Abscissas 1 64 double
0 1.0386370434 2.0289559671 3.040960597 4.0544426475 5.0676760074 6.0808495051 7.0942723201 8.1081580483 
9.1225114792 10.136866022 11.14959813 12.158168462 13.171784197 14.186080712 15.200168492 16.213769747 17.227131193 
18.241255559 19.255748493 20.26942346 21.277282306 22.242347125 23.250900922 24.263491058 25.277103422 26.290408304 
27.29878435 28.296304583 29.309522964 30.323774251 31.338279477 32.352866765 33.367436899 34.381913701 35.396234381 
36.410287988 37.424077641 38.437656832 39.451163896 40.464683029 41.478360383 42.492281831 43.506497775 44.520943154 
45.535510592 46.55009312 47.564627228 48.578935176 49.592545953 50.604366121 51.613357631 52.622425912 53.634531344 
54.64852466 55.662994713 56.67755171 57.692031571 58.706424747 59.720983586 60.735565682 61.746542239 62.73527471 
63.773991478 
ParallelTransportNormals 3 64 double
0 -0.74822008041 0.66345060952 0.0511037858 -0.8005916198 0.59702718647 0.11279404033 -0.8338649475 0.54032097293 
0.1975253287 -0.85384531189 0.48159311446 0.31747630366 -0.85183841882 0.41662945747 0.47378395123 -0.80994984365 0.34570221049 
0.63821397109 -0.71889046308 0.27546221011 0.76895080547 -0.60211018987 0.21489061873 0.84710776122 -0.50282286924 0.17198140319 
0.88198489466 -0.44647312549 0.15087873876 0.88596575017 -0.43911844041 0.1491297583 0.87101959621 -0.46886863982 0.14658465681 
0.87385166309 -0.4624787911 0.14998879526 0.8906186895 -0.41098776804 0.1946468711 0.90470387915 -0.32495248249 0.27552998961 
0.89990653283 -0.20107553232 0.38695847643 0.85841564303 -0.062962975519 0.509075876 0.79719805444 0.03735007752 0.60256139415 
0.74881005607 0.092933186278 0.65623694107 0.71473890673 0.13012399288 0.68717977392 0.67209777762 0.19606709255 0.714032403 
0.63514069649 0.4621128736 0.61890870709 0.75823613967 0.57597251971 0.3055055041 0.85796953814 0.50887905232 0.07021667702 
0.91020163234 0.39770600591 -0.11559810272 0.91982149332 0.29909072758 -0.25391564959 0.90784321748 0.25776166609 -0.33072589251 
0.93315783768 0.25788731187 -0.25042081454 0.97306005429 0.17729200861 -0.14738274808 0.98352596829 0.13314513077 -0.12226628256 
0.98490479035 0.12541286283 -0.11930703155 0.98315041046 0.13570017841 -0.12247747541 0.97823428506 0.16182485535 -0.12988610287 
0.96693631136 0.21049539064 -0.14396478838 0.94228675323 0.28946500286 -0.16824293982 0.89337509023 0.40015703973 -0.20434111605 
0.80917487185 0.53165708926 -0.25015348531 0.68712573684 0.66107371531 -0.30139635812 0.53959526106 0.76354316766 -0.3547376289 
0.38950774529 0.82553182009 -0.40838821039 0.25630309773 0.84976066136 -0.4606685799 0.14872344446 0.84778506116 -0.5090597481 
0.065785762688 0.83157492278 -0.55150283882 0.0038212530966 0.810224458 -0.58610726466 -0.038901799976 0.79108784405 -0.61046430932 
-0.058432095826 0.78154039517 -0.6211121484 -0.044563533961 0.78804294359 -0.61400522026 0.016577930382 0.81222783295 -0.58310472439 
0.14497115164 0.84574655421 -0.51351351612 0.36587944535 0.85253764725 -0.37324494838 0.65985993688 0.73938868811 -0.13375063214 
0.88742249293 0.43799263365 0.14367940672 0.94087132411 0.098630133842 0.3240883339 0.90975646796 -0.1191418423 0.39767875279 
0.87811699693 -0.22436385887 0.42257709183 0.86082297447 -0.27068760621 0.43094318241 0.84906314699 -0.3001767855 0.43472482085 
0.83659206409 -0.33121012484 0.43636403553 0.83068459073 -0.34634241096 0.43590141672 0.84579996352 -0.30415736783 0.43830436605 
0.88847840912 -0.16154283372 0.42954630647 0.9326935779 0.039349230907 0.35851684446 0.95196039472 0.18598014337 0.24327513881 
0.95196039472 0.18598014337 0.24327513881 
FrenetTangent 3 64 double
-0.51479972805 0.53179181759 0.67244234158 -0.51479972805 0.53179181759 0.67244234158 -0.68501717697 0.36816562632 0.62865375116 
-0.80690880645 0.19019655924 0.55921681566 -0.87922581941 -0.014701715299 0.4761783469 -0.88467036781 -0.23707838691 0.40143763997 
-0.81945780861 -0.45381967495 0.35005228543 -0.70488508591 -0.62966678774 0.32658345347 -0.58567276068 -0.74403886585 0.32154872647 
-0.50147784271 -0.81021921115 0.3034218238 -0.46593510805 -0.86079800007 0.20477128257 -0.4476522327 -0.89098895301 -0.075803457533 
-0.36413172477 -0.82178051947 -0.4382748736 -0.23885588237 -0.73357494659 -0.63625125948 -0.11844931388 -0.72345528985 -0.68013396007 
0.028756139913 -0.74316719901 -0.66848754568 0.2195526442 -0.73087606516 -0.64623278608 0.40769901354 -0.66799576606 -0.6225457179 
0.53075573186 -0.60966093992 -0.58873754036 0.57578728091 -0.62849368833 -0.52293851539 0.51401418479 -0.79422756288 -0.32402468455 
0.13793033333 -0.93646797188 0.3224949004 -0.34889506626 -0.31130859593 0.88394524199 -0.37736002427 0.25428872298 0.89046990822 
-0.23444977249 0.49915403323 0.83419335605 -0.056556295137 0.57959163609 0.81294213869 0.13581119209 0.46971612066 0.87230848104 
0.30036725897 0.0034771466831 0.95381728816 0.29134466987 -0.59111544927 0.75213084565 0.20180221011 -0.85131951806 0.48428395199 
0.16427978835 -0.92124861238 0.35258069336 0.16085011987 -0.94320457145 0.29067572196 0.17814230957 -0.94667603258 0.26845820324 
0.21763758183 -0.93759216082 0.27120992413 0.28590118775 -0.91594911178 0.28159853598 0.3873082484 -0.87651593949 0.28585333396 
0.51741167957 -0.80810297121 0.28152218698 0.65928689907 -0.6990851873 0.27680441762 0.78733853573 -0.54686417296 0.28467104961 
0.87760955107 -0.36247382171 0.31371038305 0.91780731207 -0.16694044029 0.3602230244 0.91185365421 0.016737827478 0.4101740587 
0.8770113549 0.1714526491 0.44883746779 0.83605139064 0.28810884997 0.46691686923 0.80960497699 0.36264379751 0.46155092607 
0.80683271132 0.39440469957 0.43984759736 0.82132197522 0.38506419247 0.42089877726 0.84156886621 0.33291613216 0.42535713509 
0.85688176486 0.22375286395 0.46442254136 0.84394583554 0.026054683559 0.53579527819 0.7430462057 -0.28569681141 0.60519390954 
0.4856052752 -0.64317427642 0.59204253804 0.13748067161 -0.87467939007 0.46479568578 -0.13422401447 -0.93881350656 0.31719570274 
-0.28085580073 -0.93396236101 0.22098490314 -0.34485879471 -0.92371609298 0.16679625678 -0.36780593252 -0.92234992715 0.11827682735 
-0.37242424285 -0.92676892125 0.048985201302 -0.36351054682 -0.93115533182 -0.028457518589 -0.33682739875 -0.94004052895 -0.053582715382 
-0.28627178935 -0.95635826867 0.058543356358 -0.20375296961 -0.92364667021 0.32459444847 -0.10156087458 -0.77979593972 0.61774078799 
-0.10156087458 -0.77979593972 0.61774078799 
FrenetNormal 3 64 double
-0.77716889065 -0.62060955357 -0.10417436071 -0.77716889065 -0.62060955357 -0.10417436071 -0.63013819075 -0.7324869658 -0.257660058 
-0.43880804085 -0.82677977533 -0.3519697521 -0.17740767954 -0.91753118078 -0.35589752393 0.13108852079 -0.95280688124 -0.2738153516 
0.42507403593 -0.89091696797 -0.15993442455 0.65397795498 -0.75520133697 -0.044539589543 0.78608691541 -0.61811410826 0.001520061383 
0.69564677255 -0.5861204201 -0.41537744401 0.082717735559 -0.27278950311 -0.95851117011 0.093068936066 0.037887411446 -0.99493854946 
0.34444643694 0.31838944589 -0.88316748855 0.76489520624 0.26152327243 -0.58867724727 0.9857378467 -0.16813521684 0.007172617025 
0.9855592401 -0.090564338828 0.14307719872 0.97409282309 0.20103800751 0.10357070792 0.89423610996 0.43001319513 0.12421928862 
0.84552723869 0.33322972044 0.41718298388 0.06370990394 -0.60316782951 0.7950657945 -0.36111678969 -0.54300304171 0.75811764318 
-0.57554822199 0.18920514055 0.79557882008 -0.26557309476 0.93739343046 0.22530975984 0.30104513467 0.94302035036 -0.14171960237 
0.72462944679 0.66175960934 -0.19231844503 0.99831342111 0.043515754581 0.0384277547 0.61338217937 -0.73129261427 0.29828411681 
0.1408821498 -0.98918699287 -0.040759207645 -0.18238336584 -0.80614073376 -0.56291511371 -0.27252072121 -0.52373683847 -0.80711348678 
-0.15456786226 -0.37706292412 -0.9131989527 0.18979088684 -0.25945538968 -0.94692255229 0.97030123213 0.123624977 -0.2079239861 
0.93985614238 0.27626622175 0.20086663824 0.93985935728 0.32534074984 0.10400858148 0.91595443423 0.40113000414 -0.01105414815 
0.84873513659 0.52661018067 -0.048274066821 0.72959345038 0.68379641598 -0.01076376585 0.54782840536 0.83237755904 0.083854859625 
0.31507984082 0.92936201122 0.19238229134 0.072840600168 0.9627051373 0.26056297816 -0.13697440718 0.95431323376 0.26556404811 
-0.28905660555 0.93447737067 0.20784206143 -0.35791209104 0.93140934873 0.06614801728 -0.24810794964 0.9240472123 -0.29082502431 
0.30730454269 0.35568425436 -0.8826395806 0.52918324166 -0.78984004226 -0.31002871543 0.24559047519 -0.93721101686 0.24763042701 
0.046080781747 -0.93053285391 0.3632976319 -0.16104644406 -0.94043791904 0.29940033948 -0.43254634869 -0.89505460735 0.10853988249 
-0.70723353696 -0.68712340538 -0.16637953592 -0.84755624624 -0.34672244881 -0.40178595414 -0.85284018922 -0.053562712613 -0.51941760412 
-0.81009989074 0.10722575394 -0.5764033351 -0.64693611696 0.10514820093 -0.75525989991 -0.18213760324 -0.053272959212 -0.98182884725 
0.016917376158 -0.059552793934 -0.9980817938 0.22099043522 -0.056515875019 -0.9736370902 0.81885812928 -0.32054721903 0.47615212326 
0.31615926914 -0.036605945672 0.94799964203 0.2887157715 0.2601162133 0.92140260411 0.29801987517 0.56858593881 0.76674258013 
0.29801987517 0.56858593881 0.76674258013 
FrenetBinormal 3 64 double
0.36192506878 -0.57623020119 0.73278168633 0.36192506878 -0.57623020119 0.73278168633 0.3656191021 -0.57264030291 0.73376137515 
0.39540571741 -0.52939632787 0.75059566125 0.44214078496 -0.39739198767 0.80410890705 0.44740824763 -0.1896124614 0.87399826913 
0.38444890933 0.017738624689 0.92297582704 0.27468136097 0.18218308663 0.94411835746 0.19762281958 0.25365550509 0.94689181321 
0.51438851184 0.002771827913 0.85755278313 0.88094395469 -0.42966578881 0.19830546795 0.88935125327 -0.45244141021 0.065963009577 
0.86531193167 -0.47255151948 0.1671236738 0.59823339169 -0.62727456167 0.49864158807 -0.11954353858 -0.6695841937 0.73305276067 
-0.16687141361 -0.66294842548 0.72983101913 0.054220000231 -0.65222994175 0.75607955577 0.18472491441 -0.60734694248 0.77266189077 
-0.058155324087 -0.71921588675 0.69234851522 -0.81511352294 -0.49110513454 -0.30725509198 -0.77806431742 -0.27267246847 -0.56592017361 
-0.80605177707 -0.29534581837 -0.51288534806 -0.89874532771 -0.15614260993 -0.40972713027 -0.87576894154 0.21459232085 -0.43241056516 
-0.64803199692 0.55939205443 -0.51685110082 -0.013103385378 0.81374437908 -0.58107519893 0.77802160775 0.4945481557 -0.38743321949 
0.94336192927 0.14661856155 -0.29760925356 0.93907113213 0.02682616278 -0.34267443118 0.94074881053 0.030899873577 -0.33769346056 
0.97422837523 0.095522486625 -0.204339246 0.96855906284 0.2074802091 0.13727820155 0.16364851504 0.29752538447 0.94058375976 
-0.26325712643 0.21118218365 0.94132766383 -0.18688204667 0.23492684205 0.95387865031 -0.10497521199 0.26610999154 0.95820962074 
-0.10924203292 0.26391533781 0.95833964371 -0.18175307943 0.20905109994 0.9608659926 -0.28281101186 0.089928724771 0.95495065633 
-0.36128405691 -0.069992718779 0.92982517149 -0.39028705446 -0.21290774532 0.89573785624 -0.38698956714 -0.29833889623 0.87248666346 
-0.38379338473 -0.31201928278 0.86910678573 -0.41583290789 -0.22241833484 0.8818237222 -0.5319607378 0.12093893319 0.8380880311 
-0.50456406331 0.84730965069 0.16577533548 0.21306175107 0.47736597629 -0.85248250124 0.48108955707 -0.10393439676 -0.87048864395 
0.51344931844 -0.28990216222 -0.80766734101 0.51168297756 -0.33896559396 -0.78948265123 0.51067209874 -0.34242456367 -0.7886440425 
0.51381732249 -0.33791755788 -0.78854516877 0.51258899168 -0.33870268389 -0.78900761564 0.50462612456 -0.34023555915 -0.79346848627 
0.5146437469 -0.34090606611 -0.78671778159 0.68010739761 -0.36836454146 -0.63384658421 0.91189072234 -0.3826651326 -0.14840049464 
0.92790839296 -0.37088115528 0.037857402643 0.90499906624 -0.36021619048 0.22632053867 -0.46477808421 0.11650443901 0.87772891494 
-0.90448426142 0.28989457859 0.31284078082 -0.93548272601 0.28145405341 0.21367191009 -0.94914147668 0.26197007954 0.17464860339 
-0.94914147668 0.26197007954 0.17464860339 
