# vtk DataFile Version 4.2
vtk output
ASCII
DATASET POLYDATA
POINTS 64 float
0 0 0 -0.927436 -0.0324115 0.462972 -1.88641 -0.0426414 0.719077 
-2.89127 -0.0760906 0.839272 -3.89948 -0.182638 0.876393 -4.88564 -0.417124 0.90291 
-5.81231 -0.819575 0.98383 -6.64016 -1.38468 1.13521 -7.36502 -2.07316 1.30558 
-8.0145 -2.84633 1.39799 -8.61023 -3.66058 1.30478 -9.1474 -4.45048 0.967854 
-9.60945 -5.16237 0.414115 -9.98015 -5.7798 -0.299273 -10.2272 -6.30927 -1.12762 
-10.2913 -6.7656 -2.03005 -10.1177 -7.17743 -2.93915 -9.72408 -7.59912 -3.77239 
-9.19009 -8.09654 -4.47575 -8.61189 -8.73534 -5.00817 -8.12478 -9.5812 -5.26508 
-8.05352 -10.5205 -4.96396 -8.51944 -10.9976 -4.21261 -9.14619 -11.0257 -3.41859 
-9.76394 -10.8061 -2.64536 -10.3076 -10.4475 -1.86802 -10.7288 -10.0262 -1.04756 
-10.9689 -9.62899 -0.147039 -10.955 -9.39334 0.835988 -10.6538 -9.50317 1.79144 
-10.1773 -10.0237 2.51207 -9.69187 -10.8156 2.91246 -9.26766 -11.7261 3.04441 
-8.90357 -12.6707 2.98636 -8.56799 -13.6121 2.81239 -8.20904 -14.5367 2.59919 
-7.7464 -15.4266 2.45365 -7.09878 -16.1985 2.53066 -6.31213 -16.726 2.88506 
-5.49051 -17.0253 3.39765 -4.66171 -17.174 3.96301 -3.81945 -17.2146 4.5268 
-2.95685 -17.1616 5.05785 -2.07345 -17.0224 5.53652 -1.17539 -16.8117 5.95865 
-0.270758 -16.5617 6.34409 0.634882 -16.3268 6.73637 1.52965 -16.1859 7.19197 
2.36885 -16.2408 7.75578 3.06279 -16.5685 8.41477 3.53384 -17.1572 9.08953 
3.76486 -17.9339 9.69658 3.77963 -18.8197 10.1879 3.62076 -19.751 10.5554 
3.33824 -20.6873 10.8242 2.98083 -21.6128 11.0361 2.59241 -22.5291 11.2336 
2.21024 -23.4446 11.4458 1.86324 -24.3698 11.6762 1.56996 -25.3157 11.8962 
1.33938 -26.292 12.0464 1.17421 -27.2905 12.0501 1.07044 -28.258 11.8558 
1.01195 -29.2017 11.4295 
LINES 1 65
64 0 1 2 3 4 5 6 7 8 9 10 11 12 13 14 15 16 17 18 19 20 21 22 23 24 25 26 27 28 29 30 31 32 33 34 35 36 37 38 39 40 41 42 43 44 45 46 47 48 49 50 51 52 53 54 55 56 57 58 59 60 61 62 63 

CELL_DATA 1
FIELD FieldData 2
Length 1 1 double
63.805351276 
Tortuosity 1 1 double
1.033630316 
POINT_DATA 64
SCALARS MaximumInscribedSphereRadius float
LOOKUP_TABLE default
1.24 0.854119 0.879761 1.43588 1.13551 1.05646 1.22602 1.24 1.24 
1.24 1.22492 1.14641 1.18093 1.3417 1.58641 1.38952 1.24 1.27321 
1.49155 1.89038 2.16783 1.7245 1.38429 1.6125 1.79258 1.48469 1.23105 
1.76112 1.49551 1.4996 1.83755 1.86 1.86 1.86 1.86 1.86 
1.93243 2.16192 2.16524 2.01448 1.81304 1.62112 1.55 1.57598 1.73786 
1.95018 2.17 2.17 1.99431 1.97572 2.12628 1.98406 2.23515 2.18029 
1.66174 1.92319 2.16285 2.1718 2.18475 2.09939 1.87815 1.64367 1.79229 
2.17 
TEXTURE_COORDINATES TCoords 2 float
0 0 0.015873 0 0.031746 0 0.047619 0 0.0634921 
0 0.0793651 0 0.0952381 0 0.111111 0 0.126984 0 
0.142857 0 0.15873 0 0.174603 0 0.190476 0 0.206349 
0 0.222222 0 0.238095 0 0.253968 0 0.269841 0 
0.285714 0 0.301587 0 0.31746 0 0.333333 0 0.349206 
0 0.365079 0 0.380952 0 0.396825 0 0.412698 0 
0.428571 0 0.444444 0 0.460317 0 0.47619 0 0.492063 
0 0.507937 0 0.52381 0 0.539683 0 0.555556 0 
0.571429 0 0.587302 0 0.603175 0 0.619048 0 0.634921 
0 0.650794 0 0.666667 0 0.68254 0 0.698413 0 
0.714286 0 0.730159 0 0.746032 0 0.761905 0 0.777778 
0 0.793651 0 0.809524 0 0.825397 0 0.84127 0 
0.857143 0 0.873016 0 0.888889 0 0.904762 0 0.920635 
0 0.936508 0 0.952381 0 0.968254 0 0.984127 0 
1 0 
FIELD FieldData 7
Curvature 1 64 double
0 0.20182481735 0.14394105592 0.10807412052 0.12714542179 0.18282764199 0.19952886582 0.15842702232 0.13442608429 
0.194142445 0.24922976114 0.23953487943 0.20340864815 0.18691798314 0.20716912451 0.23909262719 0.22993542377 0.20233144141 
0.22311729265 0.35986810872 0.80207105523 1.0269720363 0.49908378481 0.24615935959 0.15419482376 0.14093045734 0.1960807141 
0.31216669774 0.46494815471 0.52948726387 0.43011471762 0.2991125457 0.19878609613 0.11649362375 0.047304994644 0.12556134707 
0.31259089016 0.40183795446 0.27833509508 0.15635282245 0.1062052463 0.098626697272 0.10035538703 0.089908638524 0.052663121022 
0.016133973696 0.11103739607 0.22747894363 0.32402143418 0.34566774191 0.31229904832 0.26639243706 0.21483156683 0.15489694402 
0.092206951569 0.034408295396 0.015538657949 0.039624719023 0.056882266555 0.096074209324 0.15877094842 0.21005414806 0.22966035518 
0 
Torsion 1 64 double
0 0 0.38363078811 0.7579762962 0.55797230093 0.16953060039 -0.049353418593 -0.40267388257 -0.77801558959 
-0.33221375615 -0.11445769682 -0.016817967612 0.10347859916 0.2545459082 0.30325880528 0.29768830735 0.37904818766 0.53082520584 
0.49286144583 0.2321052442 0.047141115177 -0.0044727855333 -0.089456390073 -0.30806810454 -0.58602798291 -0.67853180484 -0.45117784123 
-0.2793307273 -0.1874054191 -0.13995971348 -0.10202340263 -0.037272521537 0.049306792228 0.25683578108 2.1850853805 0.43673811345 
0.063069054759 -0.0024849284875 -0.077986106837 -0.2564868019 -0.37562558375 -0.25107541874 -0.12448948142 -0.063621746155 -0.10148091174 
-1.3210715428 -0.0061953643433 0.022978546997 0.036324968097 0.051950230067 0.059339056553 0.043456221625 0.0094097471726 -0.035844410753 
-0.10958458273 -0.48461364459 -1.626855259 -0.5567752151 -0.68077184168 -0.42266986324 -0.19935810055 -0.1147774352 0 
0 
Abscissas 1 64 double
0 1.037078269 2.029717943 3.0422900558 4.0567977558 5.0707932309 6.0843170022 7.0980211083 8.1121481341 
9.1261281924 10.13933887 11.152250972 12.165621566 13.179307517 14.1929804 15.206252319 16.219282607 17.232701126 
18.246254022 19.25910011 20.268432647 21.257364949 22.261992303 23.27396448 24.287727305 25.301841932 26.31580262 
27.328872186 28.339844711 29.347652989 30.356255322 31.367720793 32.380817247 33.39479189 34.409246438 35.423772303 
36.437293216 37.447760636 38.459070635 39.472656966 40.486887528 41.501239765 42.515583522 43.529926452 44.54437948 
45.558972339 46.573491349 47.587407091 48.599907637 49.611437522 50.623242189 51.635733867 52.648824036 53.662550377 
54.676755523 55.691267297 56.705868455 57.720449252 58.734992221 59.749496911 60.763868585 61.775955123 62.768180429 
63.805298701 
ParallelTransportNormals 3 64 double
0.44663726654 0 0.89471512345 0.25805816926 -0.0042126407955 0.96612019694 0.11900287957 -0.0072898473359 0.9928671476 
0.03815368342 -0.012909622721 0.99918848977 0.030263882058 -0.014258894296 0.99944023402 0.08524647051 0.0040506196994 0.99635166068 
0.15249087454 0.041132896788 0.98744853941 0.17481266068 0.05915385371 0.98282315564 0.12885719397 0.010278751458 0.99160988843 
0.020175223896 -0.12827506202 0.99153339268 -0.11639546516 -0.32165640797 0.9396750773 -0.23368087255 -0.4979304918 0.83513979377 
-0.31629178459 -0.62980230688 0.70944242983 -0.36968746531 -0.7289357817 0.57618035732 -0.39474468581 -0.80831944516 0.43680236675 
-0.38755505771 -0.8652854729 0.31793415613 -0.37284196228 -0.88690596713 0.27273920993 -0.39576043665 -0.864196268 0.31070643244 
-0.48234744142 -0.77573580198 0.40690897174 -0.65290384037 -0.53794882296 0.53322381708 -0.85102937334 0.10066191469 0.51537965098 
-0.67669235498 0.73476409937 0.047001861487 -0.42669811761 0.85079462546 -0.30672010321 -0.2954715807 0.83062131598 -0.47197963349 
-0.24344156363 0.80472276696 -0.54144018455 -0.24467606463 0.80572058647 -0.53939592132 -0.27945414168 0.84877851194 -0.44886570415 
-0.3071719549 0.92640856294 -0.2177442643 -0.24151512507 0.95247702689 0.18562854739 -0.046916169529 0.79476101872 0.60510643375 
0.15474360926 0.51970195862 0.84021681107 0.2892816039 0.26795878845 0.91897455968 0.3671979496 0.084610578787 0.92628651926 
0.40731294518 -0.023518839138 0.91298577694 0.41632685565 -0.047737275684 0.90796095829 0.37501005752 0.043510883127 0.92599906037 
0.2189267558 0.27704257987 0.93558456835 -0.041885922884 0.51335390371 0.85715420959 -0.24268030158 0.61661371142 0.74892843591 
-0.34809036522 0.64522996833 0.68008189625 -0.4002862338 0.65114325691 0.64481267823 -0.42654926159 0.65095188414 0.62794694997 
-0.4387883952 0.64960483598 0.62086898884 -0.44304858653 0.6487680206 0.61871480135 -0.44291256436 0.64880278068 0.61877573653 
-0.43765502442 0.65021095903 0.62103445022 -0.42267567787 0.65333725936 0.62808892433 -0.39149205654 0.65488197528 0.6464236754 
-0.34517549312 0.64332095562 0.68336814895 -0.29817632284 0.60635369445 0.7371743876 -0.2657729968 0.54334624479 0.79632880925 
-0.25430368932 0.46578810592 0.84756774006 -0.2601111599 0.39252815442 0.88219262776 -0.27239213304 0.34056350229 0.8998994537 
-0.28086266109 0.31591912865 0.9062622522 -0.28133528163 0.31475202549 0.9065217161 -0.27696234391 0.32514722347 0.90419640738 
-0.27569656575 0.32834251689 0.90342824576 -0.2853146654 0.30023613891 0.91019437627 -0.3084450968 0.21535936255 0.92654301963 
-0.33964908823 0.05961808758 0.93866084423 -0.36759098923 -0.14506929006 0.91860316009 -0.3859271811 -0.35977616631 0.84948297278 
-0.3859271811 -0.35977616631 0.84948297278 
FrenetTangent 3 64 double
-0.93420607983 -0.021117284356 0.3561082149 -0.93420607983 -0.021117284356 0.3561082149 -0.98189815127 -0.021839129473 0.18814641364 
-0.99457282946 -0.06916640272 0.077723198833 -0.98520565559 -0.16846823983 0.031436735823 -0.94743908147 -0.31547966995 0.05321432843 
-0.86984695069 -0.47968999555 0.11516853106 -0.76815008843 -0.62016836949 0.15917485707 -0.67921164801 -0.72236123288 0.12986834271 
-0.61719370061 -0.78681114551 -0.00039652995225 -0.56351499587 -0.79791898908 -0.21395358444 -0.49669430454 -0.74651304022 -0.44273360909 
-0.41297308256 -0.65922923787 -0.62838685936 -0.3060588188 -0.56822211904 -0.76384005058 -0.15434103973 -0.48899127443 -0.85852569966 
0.054428872104 -0.43153436278 -0.90045299246 0.28177577484 -0.41406479983 -0.865536108 0.46000455475 -0.45578980071 -0.76200489971 
0.55230306426 -0.56423599976 -0.61367667528 0.5351939859 -0.74586769632 -0.39654605916 0.29843863093 -0.9541362761 0.02362943508 
-0.21825952836 -0.78331421836 0.58204949412 -0.55779511118 -0.25789845594 0.78889352917 -0.61902985589 0.095254337223 0.77956952786 
-0.57445914543 0.28599015907 0.76694609924 -0.47696643953 0.3855335992 0.78985242891 -0.32783228342 0.4057676395 0.85315802562 
-0.113108091 0.31645258361 0.94184092185 0.16011587364 0.063934696832 0.98502551315 0.39835325656 -0.32288284712 0.85852277199 
0.48681346607 -0.66419448453 0.56732559961 0.45430946466 -0.85024434003 0.26587115783 0.39082855043 -0.91973401276 0.036638639941 
0.34552688533 -0.93138729108 -0.11458134891 0.3424104695 -0.91995673058 -0.19087871605 0.40594679263 -0.8965425623 -0.17725302691 
0.55520264499 -0.83100879757 -0.034269539733 0.72333854469 -0.65531992982 0.21757099842 0.80195253445 -0.41227766424 0.43231847065 
0.81642297493 -0.22161474869 0.5332358101 0.82495019429 -0.093451765284 0.55742617853 0.8414188826 0.0061197523664 0.54034878795 
0.86176356439 0.094862956665 0.49836189516 0.87899997392 0.17264572904 0.44446878192 0.88875798177 0.22713251425 0.39814579089 
0.89217511347 0.23897899979 0.38329180079 0.88898515109 0.18555882337 0.41865657073 0.86127142378 0.042715943999 0.50634660334 
0.76732405512 -0.19148857639 0.61200156826 0.58425938761 -0.4595874158 0.66889489102 0.35102373643 -0.6826782537 0.64088434088 
0.12242554324 -0.82807481352 0.54708691228 -0.071513985104 -0.90179047776 0.4262155372 -0.21831656756 -0.92373609501 0.31472131021 
-0.31577380912 -0.91870678217 0.23720191793 -0.36761800336 -0.90781981815 0.20179242149 -0.37977391725 -0.90277482431 0.20191430945 
-0.35942126369 -0.90731475186 0.21816575411 -0.31567937329 -0.92251548245 0.22206241898 -0.25851659934 -0.94857487556 0.18268791237 
-0.19592213449 -0.97765510542 0.076190629717 -0.13491235254 -0.98623358092 -0.095613707131 -0.080487056732 -0.94802716967 -0.30784138653 
-0.080487056732 -0.94802716967 -0.30784138653 
FrenetNormal 3 64 double
-0.35632038232 0.10328218174 -0.92863802209 -0.35632038232 0.10328218174 -0.92863802209 -0.18242173431 -0.15828756824 -0.97039546402 
-0.012914543454 -0.65918372353 -0.75187102165 0.16547311238 -0.98285858995 -0.081287399008 0.31687577064 -0.90235400989 0.29214206614 
0.48770365527 -0.80104650763 0.34708736256 0.6384243821 -0.76075101226 0.1169282074 0.54711662861 -0.61627392925 -0.56645373935 
0.26963217567 -0.21103249428 -0.93955509482 0.23190155989 0.095786127558 -0.96801171702 0.31086375732 0.32324933223 -0.89379728887 
0.44243868149 0.45786588817 -0.77110754216 0.64949298101 0.46199459006 -0.60392041394 0.86884704849 0.34653916557 -0.35357518728 
0.98260877004 0.18348195687 -0.028537283436 0.94403154576 -0.041584102921 0.32722347561 0.68217594925 -0.36791614489 0.63188106839 
0.19719657191 -0.62682099714 0.75379635816 -0.2501891323 -0.58833444166 0.76893951832 -0.58325596116 -0.16272442562 0.79582237031 
-0.63546607691 0.56672870682 0.52440579513 -0.32709139467 0.94187992982 0.076638223648 0.040704099176 0.99517475184 -0.089277038511 
0.47146572372 0.88154638505 0.024413978868 0.84878321162 0.4353578276 0.30005103168 0.90654370879 -0.11906163021 0.40497263149 
0.81300507333 -0.51544053361 0.27082061785 0.63936774014 -0.76699222201 -0.0541463225 0.34679267508 -0.81349644896 -0.46686011613 
0.017897765228 -0.64176027944 -0.76669642867 -0.20672352054 -0.39092139168 -0.89690905424 -0.29910913337 -0.16454534873 -0.93992476005 
-0.240047821 0.030313803628 -0.9702876465 0.48007183178 0.34594613727 -0.80613417397 0.80961916212 0.26282738681 0.52482242432 
0.59722377298 0.36965515813 0.71181376009 0.35060901319 0.62002978791 0.70188060379 0.11822307825 0.81889741817 0.56163183873 
0.04174998659 0.94366185404 0.32826703132 0.12258800505 0.99234343353 -0.015056259066 0.20097143235 0.92466731433 -0.32342053304 
0.20197994726 0.83698750533 -0.50858235992 0.15783785419 0.77424512253 -0.61288800121 0.11871655724 0.7249031935 -0.67854383727 
0.065380970031 -0.90796184194 0.41392103393 -0.090813047494 -0.82463240841 0.55833178434 -0.23572271241 -0.84917214775 0.47259016741 
-0.44687606867 -0.84414908583 0.29616566335 -0.64918972644 -0.75927261291 0.045362962648 -0.76932134608 -0.60043647219 -0.21822169766 
-0.80583407534 -0.4047126797 -0.43224887497 -0.79605899102 -0.20586109231 -0.56913205276 -0.78039935183 -0.028376640118 -0.62463718907 
-0.79028741108 0.11630718903 -0.6015965805 -0.87435115177 0.26347549623 -0.40754229998 0.38770952291 0.042843227631 0.92078541674 
0.86379349722 -0.23501693141 0.44567682923 0.91733769126 -0.35654158489 -0.17711481712 0.6353954675 -0.30942076518 -0.70748243084 
0.40113708206 -0.15080101141 -0.90351983728 0.28137715788 0.054390658964 -0.9580545659 0.20974586162 0.28581935608 -0.93504757592 
0.20974586162 0.28581935608 -0.93504757592 
FrenetBinormal 3 64 double
-0.017169320193 -0.99442790148 -0.10401136095 -0.017169320193 -0.99442790148 -0.10401136095 0.050973830468 -0.9871515072 0.15143833875 
0.10323808149 -0.74879424902 0.65471296853 0.044592210875 -0.074882870711 0.99619480545 -0.044146719962 0.29364914213 0.95489331783 
-0.074238985808 0.35808099752 0.93073442625 0.048577257913 0.19143952262 0.98030156543 0.48921869538 -0.313688848 0.81379627348 
0.73916873972 -0.57999440313 0.3423975271 0.79288871599 -0.5951052887 0.13106173896 0.81034467495 -0.58157385601 0.071507746309 
0.79605354481 -0.59646931219 0.10258222757 0.69605090838 -0.68094392 0.22765875945 0.47040796102 -0.80049868223 0.37137341041 
0.17753169555 -0.88323975524 0.4340161654 -0.17148426553 -0.90929703834 0.37917284021 -0.56835885133 -0.81048958531 0.14168573754 
-0.80998446728 -0.53733897507 -0.23492975256 -0.80682885145 -0.31232029127 -0.50148104663 -0.75547790659 -0.25128614752 -0.60506892559 
-0.74063867262 -0.25541614708 -0.62146355358 -0.76280786144 -0.21529185823 -0.60973238581 -0.78431193656 -0.023533476907 -0.61992012521 
-0.66911640362 0.37561363117 -0.64124694034 -0.22818868339 0.81352775357 -0.53488551947 0.2659031741 0.90618814324 -0.32881385473 
0.57116487155 0.79635345082 -0.19897706116 0.75204507835 0.63846322206 -0.16368541233 0.84914634987 0.48370465634 -0.21208555335 
0.87332257457 0.38339200626 -0.30052994907 0.86652656992 0.35251245052 -0.35336479147 0.87050948904 0.35639047965 -0.33940986361 
0.90718697915 0.36276547151 -0.21310325558 0.80764231359 0.18439328612 0.56010089209 -0.42393869118 -0.35655742698 0.83255197278 
-0.57885558474 -0.41566746616 0.701531731 -0.59485684803 -0.43141494144 0.67825251836 -0.58557274208 -0.39929205612 0.70545759452 
-0.57594310885 -0.24574215836 0.77967963098 -0.55175117396 0.080754427032 0.83008997377 -0.50162211613 0.38072681341 0.776802643 
-0.46536830575 0.53893685657 0.70212492096 -0.44994028231 0.60888253587 0.6533114111 -0.44273652309 0.65032774893 0.61729910911 
0.44693276413 -0.34423005568 -0.82568563819 0.44884116517 -0.5343681447 -0.71623480394 0.45016256779 -0.52638580111 -0.72129858654 
0.45990822312 -0.50074389263 -0.73330756188 0.48702532489 -0.46074342809 -0.74197158058 0.5337855402 -0.41644500813 -0.73596640703 
0.57934741683 -0.38794297275 -0.71683807133 0.60097906182 -0.37999361165 -0.70315647075 0.58593065118 -0.38197695359 -0.71468795914 
0.52510257033 -0.3774261334 -0.76276916853 0.31680761827 -0.32625732276 -0.89061163947 -0.83991255355 0.42797438525 0.33374365605 
-0.35309651565 0.34863588888 0.86820266506 0.24256564777 0.14779473227 0.95881104689 0.72762749243 -0.066816880625 0.6827105805 
0.89482040579 -0.14645664819 0.42171897229 0.95006607778 -0.15615690851 0.27016563025 0.97443753378 -0.13982768415 0.17584001681 
0.97443753378 -0.13982768415 0.17584001681 
