# vtk DataFile Version 4.2
vtk output
ASCII
DATASET POLYDATA
POINTS 64 float
0 0 0 -0.966862 -0.371026 0.134917 -1.863 -0.668171 0.410133 
-2.76543 -0.975434 0.75904 -3.64197 -1.34474 1.11311 -4.46349 -1.87838 1.36967 
-5.13369 -2.63489 1.40908 -5.63594 -3.5052 1.27183 -6.0744 -4.39563 1.06167 
-6.50341 -5.27091 0.78093 -6.9019 -6.10291 0.360508 -7.19329 -6.84968 -0.258549 
-7.29565 -7.47611 -1.04794 -7.18883 -8.00041 -1.90884 -6.90678 -8.47638 -2.75868 
-6.49963 -8.96318 -3.54984 -6.02139 -9.52053 -4.24919 -5.54628 -10.2174 -4.81045 
-5.22705 -11.1259 -5.11352 -5.36478 -12.0887 -4.90304 -5.9141 -12.6549 -4.27514 
-6.56312 -12.8161 -3.51593 -7.16359 -12.668 -2.71392 -7.61769 -12.288 -1.89191 
-7.84771 -11.7739 -1.04985 -7.79822 -11.2602 -0.17877 -7.43758 -10.9389 0.708454 
-6.80652 -11.081 1.47635 -6.15268 -11.7412 1.86347 -5.6626 -12.6266 1.87679 
-5.31486 -13.5615 1.69395 -5.05133 -14.5128 1.45956 -4.81589 -15.4873 1.30673 
-4.54502 -16.4609 1.37226 -4.18858 -17.3526 1.69479 -3.73117 -18.1265 2.164 
-3.16377 -18.7996 2.66741 -2.4747 -19.369 3.14599 -1.66603 -19.803 3.57661 
-0.769188 -20.0695 3.96713 0.1633 -20.1737 4.35194 1.08653 -20.1617 4.77204 
1.98025 -20.0887 5.24649 2.84725 -19.9913 5.76436 3.70264 -19.8859 6.29975 
4.56242 -19.7779 6.82747 5.43534 -19.6771 7.33466 6.32139 -19.6114 7.82443 
7.20876 -19.6397 8.31472 8.04233 -19.8837 8.8358 8.61175 -20.5059 9.385 
8.73684 -21.3839 9.87014 8.58012 -22.2969 10.2821 8.29679 -23.194 10.6618 
7.96731 -24.0785 11.034 7.64377 -24.9648 11.4071 7.36735 -25.8688 11.7751 
7.16607 -26.8013 12.1201 7.04285 -27.7622 12.4211 6.9777 -28.7439 12.6683 
6.94249 -29.7387 12.8677 6.91202 -30.7393 13.0369 6.8687 -31.7088 13.1914 
6.78213 -32.7347 13.372 
LINES 1 65
64 0 1 2 3 4 5 6 7 8 9 10 11 12 13 14 15 16 17 18 19 20 21 22 23 24 25 26 27 28 29 30 31 32 33 34 35 36 37 38 39 40 41 42 43 44 45 46 47 48 49 50 51 52 53 54 55 56 57 58 59 60 61 62 63 

CELL_DATA 1
FIELD FieldData 2
Length 1 1 double
63.814903805 
Tortuosity 1 1 double
0.77238446574 
POINT_DATA 64
SCALARS MaximumInscribedSphereRadius float
LOOKUP_TABLE default
1.24 1.26101 1.27651 1.2772 1.26318 1.24084 1.25956 1.44181 1.30357 
0.956228 1.16723 1.09525 1.00845 1.20362 1.26277 1.24163 1.24 1.38218 
1.70346 1.35797 1.43613 1.45535 1.20084 1.17327 1.27849 1.61093 1.5353 
1.32149 1.53509 1.36256 1.31665 1.48041 1.55 1.63735 2.05845 2.02918 
1.88331 1.86 1.86 1.86 1.6917 1.61879 1.7766 1.65312 1.45496 
1.69581 1.93985 2.13753 2.18359 2.10913 1.91392 2.2842 2.32304 2.07234 
2.07078 2.15981 2.17 2.07893 1.90639 2.03238 2.15951 2.1575 1.80986 
1.24 
TEXTURE_COORDINATES TCoords 2 float
0 0 0.015873 0 0.031746 0 0.047619 0 0.0634921 
0 0.0793651 0 0.0952381 0 0.111111 0 0.126984 0 
0.142857 0 0.15873 0 0.174603 0 0.190476 0 0.206349 
0 0.222222 0 0.238095 0 0.253968 0 0.269841 0 
0.285714 0 0.301587 0 0.31746 0 0.333333 0 0.349206 
0 0.365079 0 0.380952 0 0.396825 0 0.412698 0 
0.428571 0 0.444444 0 0.460317 0 0.47619 0 0.492063 
0 0.507937 0 0.52381 0 0.539683 0 0.555556 0 
0.571429 0 0.587302 0 0.603175 0 0.619048 0 0.634921 
0 0.650794 0 0.666667 0 0.68254 0 0.698413 0 
0.714286 0 0.730159 0 0.746032 0 0.761905 0 0.777778 
0 0.793651 0 0.809524 0 0.825397 0 0.84127 0 
0.857143 0 0.873016 0 0.888889 0 0.904762 0 0.920635 
0 0.936508 0 0.952381 0 0.968254 0 0.984127 0 
1 0 
FIELD FieldData 7
Curvature 1 64 double
0 0.15924434766 0.067749652533 0.065515080199 0.19534038692 0.3479817893 0.266943791 0.096392764763 0.070833886782 
0.14605346486 0.23830763192 0.27976498968 0.24064815757 0.17860800962 0.13539317596 0.13269135779 0.19289650273 0.37259123429 
0.77829137204 0.80581753588 0.44971491631 0.31609235319 0.27301606413 0.25953718497 0.27934911821 0.37015342876 0.58546887929 
0.70920335029 0.48326144857 0.2446555802 0.097516262403 0.086985244398 0.21799410905 0.2813321543 0.21017639332 0.14969127393 
0.15834748916 0.18339900214 0.18998762948 0.16280643958 0.11882133017 0.084566563019 0.05495577065 0.021849372806 0.0089487036054 
0.024693977973 0.040167730656 0.091560342976 0.22118331176 0.47837152242 0.54346184443 0.29225493367 0.12850596897 0.047070468955 
0.0060923889201 0.049185684554 0.081366986268 0.091537646005 0.079664124797 0.056265808642 0.030195300877 0.016991065889 0.04149491611 
0 
Torsion 1 64 double
0 0 -0.92993734325 -1.2899324682 -0.17543885234 -0.035102918488 -0.037135401677 -0.42420028913 -0.40426373411 
0.15982729719 0.1749903445 0.19584421926 0.27126264506 0.39644066571 0.58590179061 0.67263299303 0.476192489 0.2037616337 
0.045750671446 -0.016023967407 -0.12902118954 -0.24701038994 -0.33605062987 -0.43281714427 -0.48650143989 -0.3849157226 -0.17349475201 
-0.069318124872 -0.041799711158 -0.12064644256 -0.84808740741 -1.1644197916 -0.24205766043 -0.19700924176 -0.36621695395 -0.51279556636 
-0.1738215247 0.063919362175 0.18126116333 0.29643195252 0.4374015463 0.42855773502 0.25922825884 -0.024785370615 -1.4706326547 
-0.63097341292 -0.78568797739 -0.39384681485 -0.17646819189 -0.076821813302 -0.061957547293 -0.09829693241 -0.14379233765 -0.18378222047 
-0.91017708181 -0.15016437698 -0.15384402141 -0.17339096387 -0.20655007679 -0.2750245987 -0.60245557964 -1.824529429 0 
0 
Abscissas 1 64 double
0 1.0443590391 2.027772897 3.0429221522 4.0578507946 5.0705089513 6.0819635715 7.0961209464 8.110657978 
9.1250453513 10.138835855 11.151661761 12.164594846 13.178223506 14.192290106 15.206527789 16.220653823 17.233759805 
18.24324211 19.238356431 20.246617242 21.258362321 22.271156634 23.284195926 24.297242126 25.309759331 26.319939261 
27.3239817 28.330629691 29.342682072 30.35675047 31.371307241 32.385420171 33.398188312 34.411218851 35.425256718 
36.439377922 37.453302241 38.467053303 39.48089535 40.495027633 41.509410549 42.523897522 43.538470565 44.553076757 
45.567672917 46.582258323 47.59678504 48.610987187 49.623855061 50.630297294 51.641243344 52.655060427 53.669521876 
54.684125403 55.698715435 56.713211938 57.727620291 58.742030699 59.756483815 60.771705813 61.786949529 62.76960314 
63.814887504 
ParallelTransportNormals 3 64 double
0.13820246415 0 0.99040399782 0.27801416075 0.050034331088 0.95927300188 0.33876366386 0.070444867866 0.93823062231 
0.34675444089 0.07348391691 0.93507297666 0.27646245861 0.036096978324 0.96034656095 0.14531156206 -0.077350792732 0.98635764548 
0.063359380366 -0.1910299534 0.97953721002 0.034247234112 -0.2455186598 0.96878672299 0.0039557907077 -0.30717593188 0.95164452323 
-0.055162406767 -0.42914723397 0.90154853472 -0.13069292105 -0.60200476602 0.78772433127 -0.17595873574 -0.75986609591 0.62581310277 
-0.17561360523 -0.85033647881 0.49607230769 -0.16296007449 -0.88288799477 0.44040072981 -0.1680132494 -0.87582889166 0.45243264754 
-0.20752293704 -0.82923520056 0.5189443253 -0.29563121598 -0.71331198125 0.63544331104 -0.44086589142 -0.41962407829 0.79344369599 
-0.50488344905 0.25266106147 0.82538178493 -0.25227043436 0.81801265881 0.51692834897 0.0086850361379 0.9766042473 0.21486906318 
0.20346242265 0.97866799123 -0.028495710326 0.33748122463 0.91155829161 -0.23487848775 0.40297727393 0.82596795954 -0.39419062205 
0.41203188022 0.77439357503 -0.48015031047 0.41796955921 0.78646967282 -0.45471628661 0.52251993442 0.80519817622 -0.28040830078 
0.73367691099 0.67344330169 -0.090511378788 0.87443063428 0.48340362719 -0.0411339161 0.93252630217 0.35721015415 -0.052873448331 
0.95684164968 0.28218440431 -0.069469557438 0.9663411294 0.24552033752 -0.076841300733 0.96193274193 0.26248209878 -0.076082506662 
0.93565865497 0.34061286895 -0.092335014449 0.88719132177 0.43981333727 -0.13948400243 0.81847091471 0.53684398347 -0.20470441909 
0.71986817888 0.63434809045 -0.2817664018 0.58352648098 0.72568110305 -0.36453227933 0.42648693599 0.79017998435 -0.44014143835 
0.29574047942 0.81667734071 -0.49555594033 0.22820738143 0.82003428359 -0.52484775392 0.21507035887 0.81941963099 -0.53131554568 
0.22268628613 0.82015684324 -0.52702331111 0.22710657674 0.82067708572 -0.52432024925 0.22105649096 0.81992427315 -0.52807027383 
0.21450206097 0.81913413737 -0.53198508515 0.22880358642 0.8204873873 -0.52387915221 0.29534638701 0.82188770204 -0.48710483155 
0.47199228214 0.79392228524 -0.38328930406 0.78918483825 0.59771519799 -0.14115180896 0.9696983752 0.20849240233 0.12734197775 
0.96519320207 -0.049838359547 0.25674543927 0.93700371365 -0.16580091685 0.30746397607 0.9228167253 -0.20704527313 0.32487158445 
0.92476075667 -0.20177368391 0.32265294576 0.93804751994 -0.1621240643 0.30623951101 0.9538582877 -0.10133816121 0.28263924722 
0.96411702333 -0.041482962291 0.26221656919 0.96803283817 -0.0011017255545 0.25082107252 0.96886303681 0.015246432847 0.24712742095 
0.96876823473 0.012366294241 0.24765940754 0.96817710111 -0.003367257311 0.25024340644 0.9660420085 -0.036480212345 0.25579685673 
0.9660420085 -0.036480212345 0.25579685673 
FrenetTangent 3 64 double
-0.92170923736 -0.33057399926 0.20291109573 -0.92170923736 -0.33057399926 0.20291109573 -0.90044571354 -0.30259439959 0.31246463209 
-0.87679144137 -0.33345699281 0.34647251303 -0.84153292544 -0.44748637788 0.30261902951 -0.74798410431 -0.64691212289 0.14840648557 
-0.58398427391 -0.81030084418 -0.048733045728 -0.46425341435 -0.86894941757 -0.17145167534 -0.42782790246 -0.87083142702 -0.24210723162 
-0.40911285531 -0.84407295874 -0.34665185985 -0.34284805116 -0.78459729468 -0.51658716496 -0.1962763089 -0.68451170791 -0.7020821407 
0.0022169987542 -0.57196766576 -0.8202731705 0.1925573925 -0.49530520507 -0.84710944064 0.34058751749 -0.47577961797 -0.81094629788 
0.43748793435 -0.51593406784 -0.73648920218 0.47249528132 -0.62161115455 -0.62477818597 0.39941016923 -0.80721253342 -0.43460262609 
0.096421460564 -0.99412445237 -0.049188160525 -0.36657631476 -0.81579893705 0.44731856631 -0.60764469934 -0.36884412692 0.70336472004 
-0.6248383691 -0.0065512921277 0.78072664427 -0.52541996196 0.26311599706 0.80913771119 -0.34050730008 0.44502070121 0.82825802386 
-0.089997537608 0.51237735025 0.85403155338 0.20617451906 0.41975890869 0.88390866398 0.51177045079 0.092476403162 0.85413062265 
0.67451697288 -0.42117300463 0.60633336826 0.58240710274 -0.78691554045 0.20387716614 0.41661618113 -0.90516582527 -0.084295826573 
0.30168308889 -0.93090561172 -0.20591759504 0.24619513916 -0.95020271454 -0.19105694108 0.25130647911 -0.96693714985 -0.043331302669 
0.31273940945 -0.92992788736 0.19346365571 0.40373668685 -0.82627464311 0.39276825463 0.50673376393 -0.7154925863 0.48092749084 
0.62152548123 -0.61461524878 0.4857511422 0.74179369138 -0.49695876096 0.45030446292 0.84500243341 -0.34706564459 0.40683697703 
0.90509843005 -0.18341181588 0.38361039835 0.91646596561 -0.045533613344 0.39751330032 0.89637145458 0.041934264747 0.4413159105 
0.86809055302 0.084011944572 0.48924511743 0.84885832371 0.099946864928 0.51908589892 0.84525492769 0.10516585292 0.52391244554 
0.85396274718 0.10290790039 0.51005645811 0.86704258466 0.082072262936 0.49142781773 0.87508991507 0.018454593887 0.48360838341 
0.85423008415 -0.13516211315 0.50201809379 0.71371655682 -0.44064532158 0.54446338453 0.35614494257 -0.76930265334 0.5304094715 
-0.015788219634 -0.89399615489 0.4477963903 -0.21740921896 -0.89429027631 0.39112419154 -0.30209351155 -0.87826564409 0.37066017954 
-0.32181209795 -0.87266060611 0.36728795265 -0.29578193238 -0.88262229268 0.36536411555 -0.23565222237 -0.90595590209 0.35172707254 
-0.16011122234 -0.93422046461 0.31874209006 -0.092919317388 -0.95824880733 0.27041675929 -0.049467310648 -0.9742157545 0.22012870977 
-0.032351165236 -0.98284822757 0.18155650271 -0.03693423218 -0.98609571588 0.16202191708 -0.064064130072 -0.98416426686 0.16527698896 
-0.064064130072 -0.98416426686 0.16527698896 
FrenetNormal 3 64 double
0.088425160224 0.3302744499 0.93973388722 0.088425160224 0.3302744499 0.93973388722 0.33008649127 -0.0075453596388 0.9439205347 
0.38108276078 -0.92126873877 0.077716410078 0.26709294414 -0.83159246328 -0.48694489854 0.4346635471 -0.64642599781 -0.6270574377 
0.6303091342 -0.41479646242 -0.65624255433 0.64644840989 -0.20010943968 -0.73624769303 0.12893020449 0.20632302097 -0.96995247996 
0.20267371502 0.28635345297 -0.93644277199 0.44259203861 0.35014201285 -0.82553792051 0.67165096391 0.42780652991 -0.60486904008 
0.85899402951 0.42105543442 -0.29127577724 0.96176936485 0.2665735813 0.062755195704 0.90215619468 -0.077536015798 0.42438469182 
0.52360181123 -0.51969968219 0.67509509227 -0.01347038834 -0.71391191814 0.70010593611 -0.41915601217 -0.5823976647 0.69650642324 
-0.66070077545 -0.10088656735 0.74383895156 -0.57436615509 0.57666374625 0.58100124238 -0.22306528735 0.9292284327 0.29457833838 
0.15572152309 0.97882775961 0.13284210277 0.53289779212 0.84312158109 0.071874492331 0.85554005286 0.51203769866 0.076606873674 
0.99447004362 -0.00037182161226 0.10501997001 0.8510374549 -0.52274404688 0.049738433924 0.49796979027 -0.84207791047 -0.207197685 
0.032578482261 -0.80352012603 -0.59438543855 -0.3583929749 -0.47367863341 -0.80447686592 -0.57887819875 -0.1926497283 -0.79232954836 
-0.84280670451 -0.15942077204 -0.51406407798 -0.31321039711 -0.26454635343 0.91209345685 0.16178321452 -0.0021751115731 0.98682392573 
0.30203294504 0.29046998178 0.90796656865 0.47094082963 0.55576568579 0.68508337995 0.71839379944 0.65884277959 0.22324099246 
0.75272985944 0.64031740603 -0.15294240171 0.6405212081 0.72394792751 -0.25618739278 0.45543960255 0.86577866602 -0.20736940444 
0.21273012577 0.97648236094 -0.035044148761 -0.077912460921 0.95417632123 0.28892420533 -0.34066582388 0.70217621929 0.62521624539 
-0.47424663414 0.43153808813 0.76737540259 -0.51771493739 0.35561445583 0.77814497519 0.47970859247 0.28261330957 -0.83066803451 
0.51670644571 -0.2832623584 -0.80794609057 0.3189034412 -0.84924035732 -0.42082230299 0.017093004596 -0.99982780798 0.0072238206227 
-0.23459855346 -0.96192848328 0.14020382221 -0.56145992423 -0.82465679862 0.068585114725 -0.86313705171 -0.48830087518 -0.12867278369 
-0.96086932555 -0.11030407785 -0.25409279727 -0.96081736142 0.12549058292 -0.24714795485 -0.95245570087 0.2619322999 -0.15562650207 
0.94659648424 -0.28843378395 0.14408694704 0.93033075321 -0.35296236181 -0.099510103839 0.89897699185 -0.3407003485 -0.27525195851 
0.83044346036 -0.30204055329 -0.46811874915 0.70946727821 -0.25427557761 -0.65726715404 0.51775263277 -0.21348557405 -0.8284661254 
0.15241204804 -0.18437833475 -0.97096611542 -0.82908275122 -0.060279253901 -0.55586707329 -0.9210549409 0.12206049386 0.3698094532 
-0.9210549409 0.12206049386 0.3698094532 
FrenetBinormal 3 64 double
-0.37766793986 0.88410385066 -0.27518595248 -0.37766793986 0.88410385066 -0.27518595248 -0.28326740943 0.95308955344 0.10667651038 
0.2932792147 0.20017578501 0.93483525678 0.46955691306 -0.32895275745 0.81933289252 0.50158486872 -0.40452210645 0.76470548897 
0.51153960079 -0.41395221546 0.75297463446 0.60545290536 -0.4526401682 0.65463245988 0.89461739769 -0.44618766987 0.024005728674 
0.88969097829 -0.45336799654 0.053920523523 0.82859368884 -0.51167143366 0.2272110094 0.71439526401 -0.5902756091 0.37578466181 
0.51198080255 -0.70396399799 0.49225028934 0.19473402227 -0.82680788554 0.52770008621 -0.26479113151 -0.87614035484 0.40281973052 
-0.73105776145 -0.68097303762 0.042781671951 -0.88123025241 -0.32238074645 -0.34569335625 -0.81534026895 -0.096025444747 -0.5709635363 
-0.74443091504 -0.039223382332 -0.66654642675 -0.73193259617 -0.043943350729 -0.67995856976 -0.76223998645 0.022102712463 -0.64691705277 
-0.7650671995 0.204580785 -0.61058896375 -0.66329013767 0.46895199284 -0.58320684297 -0.39000768779 0.73469311324 -0.55508560855 
0.054127401346 0.85876033484 -0.50951046282 0.48293614283 0.74198458207 -0.46500705578 0.70008363334 0.53136889968 -0.47700104693 
0.73754016555 0.42067648761 -0.5282667858 0.72962760516 0.39546489661 -0.55789880205 0.70095006144 0.37889432689 -0.6042417566 
0.445717593 0.32863316861 -0.83266804177 -0.91721709567 -0.16471195515 -0.36274339585 -0.95429096457 -0.25500552371 0.15588758071 
-0.90053881753 -0.22552453079 0.37171026906 -0.78435414366 -0.091622686345 0.61350946257 -0.47658287991 0.23237157903 0.84786331908 
-0.21703417907 0.46069698882 0.86061283374 -0.1986824134 0.47846775038 0.85533263147 -0.28025997924 0.36051732249 0.88965251881 
-0.3681612765 0.11332389231 0.92282987052 -0.39245354159 -0.29576044031 0.87092248774 -0.28366355399 -0.71076724355 0.64369628991 
-0.14665920281 -0.89817418782 0.41445651951 -0.10682129874 -0.9292733629 0.35361027579 -0.2354225425 0.95345155128 0.18843132927 
0.061335759431 0.95350532266 -0.2950686772 0.38280249683 0.52158887945 -0.76250068148 0.48365842258 0.0019448277451 -0.87525467603 
0.46395525866 -0.23753904146 -0.85341708545 0.41877372172 -0.35464470256 -0.83597589974 0.35798772304 -0.41198990627 -0.83791951122 
0.27655175164 -0.43428548843 -0.85727197738 0.17193961004 -0.42953115753 -0.88653243325 0.039593536766 -0.40005115759 -0.91563716786 
-0.019800748552 0.39404240739 0.91887894281 0.21678961714 0.31047618202 0.92553055179 0.36919967257 0.25133080989 0.89472030589 
0.53359915256 0.18974621911 0.82417735756 0.69858584412 0.1307790269 0.70347328629 0.8540990554 0.072990227844 0.51496332899 
0.9877874112 -0.0037404868256 0.15576276525 0.55790469985 -0.15486010032 -0.81532858113 -0.38412704028 -0.12853766639 -0.91428906 
-0.38412704028 -0.12853766639 -0.91428906 
