# vtk DataFile Version 4.2
vtk output
ASCII
DATASET POLYDATA
POINTS 64 float
0 0 0 -0.498211 0.302426 0.851659 -0.996171 0.665953 1.63762 
-1.54914 1.05974 2.38886 -2.17613 1.43553 3.092 -2.8875 1.74714 3.74421 
-3.68127 1.95215 4.34082 -4.54167 2.01001 4.87364 -5.43285 1.88535 5.33989 
-6.29851 1.55925 5.75368 -7.0789 1.04585 6.14702 -7.74756 0.398196 6.54909 
-8.33401 -0.326496 6.94908 -8.89378 -1.1023 7.2859 -9.46022 -1.92622 7.44893 
-10.004 -2.77116 7.32958 -10.4656 -3.56615 6.90652 -10.7916 -4.2351 6.22124 
-10.911 -4.71137 5.3372 -10.7935 -5.00543 4.37515 -10.4913 -5.2208 3.43155 
-10.0684 -5.46925 2.54395 -9.57444 -5.84492 1.7428 -9.06394 -6.44922 1.11369 
-8.68244 -7.35235 0.922141 -8.70293 -8.20508 1.43383 -9.09372 -8.56974 2.28462 
-9.65645 -8.44947 3.11378 -10.2378 -7.99696 3.80857 -10.7515 -7.37745 4.42557 
-11.138 -6.72802 5.10085 -11.2735 -6.26615 5.98442 -11.0801 -6.25533 6.97277 
-10.7289 -6.60441 7.8555 -10.3504 -7.17215 8.60462 -10.0035 -7.90556 9.21167 
-9.72418 -8.78188 9.6356 -9.51849 -9.75698 9.81437 -9.33357 -10.7507 9.74243 
-9.08711 -11.7063 9.50932 -8.70609 -12.605 9.23575 -8.13705 -13.4207 9.04534 
-7.37956 -14.091 9.05149 -6.5134 -14.5513 9.29922 -5.63563 -14.7857 9.74638 
-4.8004 -14.8073 10.3195 -4.02428 -14.6291 10.9465 -3.29438 -14.2814 11.5585 
-2.57661 -13.8338 12.1185 -1.83593 -13.3718 12.6354 -1.05688 -12.9744 13.1491 
-0.258537 -12.725 13.7212 0.471338 -12.7462 14.4195 0.931698 -13.1539 15.2164 
1.02317 -13.8535 15.9395 0.86613 -14.6763 16.5093 0.588655 -15.5491 16.9446 
0.274284 -16.4522 17.2832 -0.0157089 -17.382 17.5671 -0.23189 -18.3344 17.8413 
-0.342827 -19.2955 18.1454 -0.346927 -20.2431 18.5015 -0.270464 -21.152 18.9085 
-0.139985 -22.0584 19.3847 
LINES 1 65
64 0 1 2 3 4 5 6 7 8 9 10 11 12 13 14 15 16 17 18 19 20 21 22 23 24 25 26 27 28 29 30 31 32 33 34 35 36 37 38 39 40 41 42 43 44 45 46 47 48 49 50 51 52 53 54 55 56 57 58 59 60 61 62 63 

CELL_DATA 1
FIELD FieldData 2
Length 1 1 double
63.774304626 
Tortuosity 1 1 double
1.1717090074 
POINT_DATA 64
SCALARS MaximumInscribedSphereRadius float
LOOKUP_TABLE default
1.24 0.984202 1.14366 1.06311 0.93 0.996723 1.22193 0.979276 1.13655 
1.08493 0.951231 0.977793 1.02202 1.47939 1.31398 1.24 1.24 1.24 
1.12732 1.0005 1.21761 1.34244 1.16922 1.04306 1.24 1.40403 1.4171 
1.29464 1.36229 1.25197 1.25464 1.47339 1.32811 1.66389 1.68845 1.25752 
1.21125 1.02089 1.12123 1.50512 1.91176 2.05491 1.78745 1.6048 1.55049 
1.66865 1.81878 1.70807 2.30663 2.35474 2.48785 2.89111 2.80478 2.49367 
2.1946 1.5235 1.25923 1.47766 2.05091 1.93945 1.86 1.86 1.78442 
1.55 
TEXTURE_COORDINATES TCoords 2 float
0 0 0.015873 0 0.031746 0 0.047619 0 0.0634921 
0 0.0793651 0 0.0952381 0 0.111111 0 0.126984 0 
0.142857 0 0.15873 0 0.174603 0 0.190476 0 0.206349 
0 0.222222 0 0.238095 0 0.253968 0 0.269841 0 
0.285714 0 0.301587 0 0.31746 0 0.333333 0 0.349206 
0 0.365079 0 0.380952 0 0.396825 0 0.412698 0 
0.428571 0 0.444444 0 0.460317 0 0.47619 0 0.492063 
0 0.507937 0 0.52381 0 0.539683 0 0.555556 0 
0.571429 0 0.587302 0 0.603175 0 0.619048 0 0.634921 
0 0.650794 0 0.666667 0 0.68254 0 0.698413 0 
0.714286 0 0.730159 0 0.746032 0 0.761905 0 0.777778 
0 0.793651 0 0.809524 0 0.825397 0 0.84127 0 
0.857143 0 0.873016 0 0.888889 0 0.904762 0 0.920635 
0 0.936508 0 0.952381 0 0.968254 0 0.984127 0 
1 0 
FIELD FieldData 7
Curvature 1 64 double
0 0.081033056136 0.069730866141 0.087883340197 0.11472507394 0.14248216888 0.17022466095 0.1932908703 0.20640739298 
0.20346839747 0.17143315216 0.10988288149 0.083273437736 0.17702602184 0.28267938381 0.31902128111 0.32164226295 0.3477952052 
0.30876487096 0.19827757893 0.13395348924 0.16602819887 0.28552852643 0.58289603854 0.97902971217 0.79846950803 0.54331328597 
0.36252830433 0.19291679039 0.13991115294 0.38215309783 0.60895055434 0.41604952354 0.25540135336 0.21734680122 0.23914713611 
0.27258762328 0.24974364154 0.17325695349 0.14829921324 0.21859091365 0.30854887302 0.33982639437 0.30104823354 0.24837839039 
0.21196714864 0.17287906216 0.1104613924 0.049478065665 0.07318496408 0.15691619394 0.30620517801 0.50193284921 0.49585458562 
0.31741449575 0.18392826447 0.10513424785 0.063777573258 0.075712531921 0.10700139138 0.11687536047 0.1011016135 0.078917055982 
0 
Torsion 1 64 double
0 0 0.7361989319 0.44263670003 0.2587868116 0.16939207445 0.15092004947 0.1829290933 0.22653063746 
0.23064145043 0.1351669401 -0.29367278439 -1.0072504925 -0.1259720015 0.010385871113 0.02355887565 0.059925662385 0.12275919823 
0.21126586971 0.47330860402 0.85721692641 0.50087451422 0.17713696329 0.048956711871 0.03090444417 0.038083763519 0.0030252814422 
-0.11979768106 -0.60374166815 -1.4950406514 -0.25679617845 -0.10814562275 -0.15133718359 -0.21864106002 -0.13351211482 0.020623660886 
0.15078138366 0.29554270974 0.65335852406 0.86211099664 0.37512630726 0.1530685025 0.065232123465 -0.0074756677448 -0.10640430345 
-0.20735221244 -0.28678434965 -0.47066922519 -1.6108038163 -0.89366225711 -0.36674980148 -0.15185634633 -0.038737807916 0.020021530005 
0.099667963998 0.2236034659 0.47122214845 1.0237918869 0.63803741763 0.27199632216 0.18175505014 0.19844084164 0 
0 
Abscissas 1 64 double
0 1.0319881016 2.0309114826 3.0434404649 4.0577060144 5.0718659514 6.0857898593 7.0994634009 8.1129379484 
9.1263174709 10.139873064 11.153892372 12.168330586 13.182558895 14.195614058 15.207494234 16.219416912 17.231068072 
18.242303595 19.255127767 20.269081181 21.283168568 22.296577791 23.307306756 24.306241965 25.30092519 26.305677258 
27.314958456 28.327586 29.341702385 30.355165779 31.361340676 32.368499198 33.380639672 34.393925686 35.407191041 
36.419955336 37.432425954 38.44575539 39.45975634 40.473527088 41.486142422 42.49764059 43.50931549 44.521931036 
45.535108431 46.548634896 47.562640108 48.577081547 49.591619322 50.605896977 51.619223659 52.629527097 53.636089858 
54.646391131 55.659454092 56.673544065 57.687974834 58.702471952 59.716845053 60.731006784 61.743356017 62.742158825 
63.774281594 
ParallelTransportNormals 3 64 double
0 -0.94234959068 0.33463001799 -0.039145075932 -0.91614139867 0.39893934461 -0.059504295277 -0.90146898752 0.42873407071 
-0.059503074546 -0.90146978375 0.42873256596 -0.032709194384 -0.91523136784 0.40159886942 0.024631060258 -0.93491191759 0.35402403481 
0.11652980807 -0.94951448697 0.2912782911 0.24590521592 -0.94457962713 0.21748552321 0.40598850375 -0.903506072 0.13729571251 
0.56875891704 -0.82049321417 0.057481995346 0.69245610626 -0.72138481162 -0.010416068071 0.76130517527 -0.64610657549 -0.054412528091 
0.79298429183 -0.60463577438 -0.074776288043 0.81332565557 -0.5757416978 -0.083802597844 0.84326764043 -0.53073417395 -0.084976015443 
0.87784509399 -0.47433062718 -0.066320789102 0.90803591437 -0.41821375421 -0.023833463932 0.93313023142 -0.35368893231 0.064591875471 
0.93328612004 -0.29540569099 0.20423637255 0.90174095643 -0.25710189509 0.34750807623 0.85331272197 -0.22612371613 0.46981428622 
0.79485469462 -0.18632837634 0.577483983 0.71715613943 -0.11050443553 0.68809580831 0.60137744723 0.085549044593 0.79437178131 
0.53145250824 0.42643336231 0.73192405275 0.59173486173 0.60604484343 0.53156326168 0.68236662325 0.62938744632 0.37181612915 
0.76687061231 0.58711924728 0.25923050254 0.83662754095 0.51884041702 0.17566724052 0.89485448045 0.43675809463 0.092075108435 
0.93783219577 0.34515886718 -0.036553098192 0.93322488162 0.30740427633 -0.18599443868 0.91760422663 0.31708724668 -0.23970432047 
0.92204947363 0.31150267868 -0.22976259348 0.93925125937 0.28064450168 -0.19759993786 0.96008984838 0.2270750257 -0.163292424 
0.97289401052 0.17820057058 -0.14738317728 0.97029731508 0.19128843374 -0.14809407641 0.95108259713 0.27811750687 -0.1345085343 
0.90527683008 0.4134773087 -0.097521157237 0.81321109228 0.57958974813 -0.052568462559 0.66249954618 0.74839343027 -0.031648457002 
0.48175330166 0.87425671616 -0.059907850803 0.31544101091 0.94052033097 -0.12616844167 0.1706167327 0.96216753951 -0.21242306003 
0.035179915311 0.94900465992 -0.31329304015 -0.085806122102 0.90675814062 -0.41282803178 -0.16557659581 0.86293947558 -0.47740952274 
-0.18631133348 0.85000863456 -0.49272041584 -0.14162316599 0.87528035615 -0.46241450776 -0.018558983546 0.92574068165 -0.37770326245 
0.20860361575 0.95959683038 -0.18883446352 0.48554747301 0.85958442746 0.15924278168 0.61240810405 0.60548071987 0.50828083965 
0.60246566077 0.37346050801 0.70538101516 0.56281443293 0.21870948641 0.7971236257 0.53264891099 0.12819166955 0.83657159495 
0.52202545703 0.095973076738 0.84751318029 0.52896031412 0.12175995493 0.83986635809 0.54167079105 0.19611283549 0.81739373003 
0.54746236522 0.29228909103 0.78412501933 0.5439931901 0.38062002728 0.74779663275 0.53591444922 0.4517935793 0.71321684277 
0.53591444922 0.4517935793 0.71321684277 
FrenetTangent 3 64 double
-0.49091829956 0.32818512641 0.80702772317 -0.49091829956 0.32818512641 0.80702772317 -0.52279440543 0.37673286862 0.76469494268 
-0.58275634853 0.38007747788 0.71828695454 -0.66091248944 0.33945372613 0.66930250943 -0.74407156241 0.25539306927 0.61735880182 
-0.81883668384 0.13012422411 0.55908333144 -0.8681581498 -0.033108943308 0.49518201179 -0.8714606548 -0.22359438512 0.43653393692 
-0.81634810556 -0.41634470641 0.40029096416 -0.71734542392 -0.57477436407 0.39376385459 -0.61970849158 -0.67759345223 0.3960157812 
-0.56551252664 -0.74030248775 0.36352140081 -0.55774059925 -0.79224201897 0.2475439503 -0.55375566407 -0.83239414324 0.021786573936 
-0.50304417944 -0.8205429304 -0.27139611808 -0.39420197266 -0.73271663212 -0.55473519969 -0.22346470666 -0.57457594031 -0.78735380465 
-0.00094968628445 -0.38509492784 -0.92287647854 0.20811024236 -0.25260288129 -0.94492428871 0.3583550494 -0.22922677162 -0.90500648934 
0.45380003429 -0.30890855696 -0.83584749346 0.5012957727 -0.48907337652 -0.71379953814 0.46115041221 -0.77931821369 -0.42426809818 
0.19825336412 -0.96425448156 0.17580926713 -0.21960234707 -0.65002262143 0.72749254346 -0.48971540557 -0.12551529302 0.86280051737 
-0.57496372334 0.28785401842 0.7658699504 -0.54285254206 0.53143566772 0.65029781536 -0.4450899133 0.62740774385 0.63894795723 
-0.26306394085 0.56004363999 0.78558798637 0.029975703424 0.24472101669 0.96913006413 0.27534759951 -0.1710228491 0.9460099812 
0.3632212492 -0.45636355106 0.81228236063 0.36008126158 -0.64587771777 0.67318902156 0.31131323183 -0.80024675838 0.51253214279 
0.24171360445 -0.92268870306 0.30036659379 0.19433031261 -0.97949527981 0.053148155543 0.21359143899 -0.96517633439 -0.15104085779 
0.31031110233 -0.91701750756 -0.25057116873 0.47167760477 -0.85115078635 -0.23035315505 0.6631133323 -0.74283014131 -0.092109118328 
0.81396941877 -0.56679335652 0.12727559199 0.87122775614 -0.3470564643 0.34715127468 0.85215703065 -0.12735072468 0.50755313815 
0.79957549335 0.077707212222 0.5955171027 0.74561026931 0.26036599814 0.6134124822 0.71479343064 0.39268264602 0.57868012842 
0.71903653193 0.44844536815 0.53092675346 0.74960142855 0.42389634388 0.50834003183 0.78040188942 0.31999886884 0.5371904829 
0.76397133002 0.11407942185 0.63508557881 0.60768701566 -0.21897928906 0.76339017675 0.28156775002 -0.56499113589 0.77556728819 
-0.032810309569 -0.76181047646 0.64696853211 -0.2152730633 -0.84005594988 0.49795934502 -0.29218424408 -0.87673140567 0.38206074101 
-0.29802784433 -0.90385156246 0.30697191574 -0.24966612881 -0.92837966704 0.27527807388 -0.16149467079 -0.94467420762 0.28549975965 
-0.056866634079 -0.9435337768 0.32635900166 0.03602800452 -0.92431246528 0.37993216424 0.10197547729 -0.89453126862 0.43521811944 
0.10197547729 -0.89453126862 0.43521811944 
FrenetNormal 3 64 double
-0.19178697597 0.86289942833 -0.46757067106 -0.19178697597 0.86289942833 -0.46757067106 -0.67992519023 0.35680050221 -0.64062089984 
-0.81046965186 -0.20716809091 -0.54792364936 -0.71803063932 -0.54537996223 -0.43242652301 -0.5665485567 -0.73094470194 -0.38045049035 
-0.38484598108 -0.84710073751 -0.36648862378 -0.15735900607 -0.92792448664 -0.33792645694 0.1212749319 -0.96063682122 -0.24993856966 
0.41304169961 -0.90528850946 -0.099243483487 0.64075163725 -0.76618949862 0.048897766509 0.73193589353 -0.68108075356 -0.01997135195 
0.31054656165 -0.59946749776 -0.73769882214 -0.040618044435 -0.27183114425 -0.96148739122 0.077427853284 -0.07752519105 -0.9939792615 
0.25811877187 0.15705047947 -0.95326273739 0.422026029 0.39188159603 -0.81751015012 0.59786678156 0.55717758017 -0.57628851773 
0.76697695417 0.59190582493 -0.24777781616 0.91497526817 0.39172817562 0.096795118994 0.87991487725 -0.24101427031 0.40946542015 
0.42131233678 -0.75215287374 0.50671685329 0.062423234186 -0.80234791193 0.59358332866 -0.22624767253 -0.56561144173 0.79302943682 
-0.49418199388 0.056566137763 0.86751624134 -0.52551362239 0.70708055219 0.47315169386 -0.32945606417 0.9428548405 -0.04983424051 
-0.046388247378 0.92309192056 -0.38177144564 0.34868831298 0.84705099068 -0.40114969723 0.88714345524 0.21177155225 0.41003572952 
0.66203448316 -0.48751879654 0.56924139531 0.57901876174 -0.79457276593 0.18273312014 0.38438043945 -0.8823801339 -0.27139818912 
0.10428169127 -0.84643449376 -0.52218193826 -0.14327192131 -0.75131712926 -0.6442016205 -0.27867306946 -0.59249803743 -0.75583556148 
-0.26809460463 -0.36099866287 -0.8931994449 -0.083013373392 -0.070408066429 -0.99405808886 0.34747465924 0.21955568008 -0.91162309346 
0.88821166148 0.37362137222 -0.26737074377 0.85042523157 0.37007763023 0.37392442166 0.61295152356 0.4682587213 0.63641511586 
0.32105105447 0.62152327691 0.71458731914 0.035764472501 0.75020195828 0.66024080782 -0.17150969295 0.84838550081 0.50082578531 
-0.27595623975 0.92825257981 0.24938985908 -0.26410893685 0.9605882427 -0.086698889614 -0.11002970809 0.8803135491 -0.46145586854 
0.44950458779 0.2825444111 -0.84741623852 0.51268741545 -0.85760194195 -0.040872034511 0.12491953053 -0.92159301527 0.36750704089 
-0.2159669163 -0.88227140673 0.41827676953 -0.554985921 -0.80466253736 0.21097115551 -0.77699315308 -0.60851665458 -0.16121141762 
-0.78389076167 -0.38195835963 -0.48951311042 -0.64179103665 -0.26262879969 -0.72050702901 -0.34104430718 -0.27771014119 -0.89809011687 
0.37214660226 -0.40615760816 -0.8345914592 0.94834145093 -0.2918894303 -0.12429421925 0.95854980462 -0.081340076864 0.27306787426 
0.892632946 0.098365536469 0.43992118038 0.79492074365 0.25690834821 0.54963543548 0.62308780695 0.39848313576 0.67303252177 
0.62308780695 0.39848313576 0.67303252177 
FrenetBinormal 3 64 double
-0.84983350076 -0.38431640531 -0.36067148709 -0.84983350076 -0.38431640531 -0.36067148709 -0.51418648888 -0.8548483768 0.069616860949 
-0.059447301627 -0.90145576315 0.42876978137 0.2182353828 -0.76637579856 0.60418660452 0.35409072695 -0.63284612891 0.6885677412 
0.42591085457 -0.51525530255 0.74371494347 0.47067990199 -0.37129495683 0.80037521507 0.47523543432 -0.1648710061 0.86427358707 
0.40369830929 0.084319630442 0.91099828485 0.27359254767 0.28738142356 0.91791014552 0.28325118399 0.27748174827 0.91802649534 
0.76403953776 -0.3042876037 0.56890477145 0.8290208673 -0.54631530492 0.11943194376 0.82907152408 -0.54873475837 0.10738050525 
0.82481589045 -0.54958570422 0.13279420389 0.81639379934 -0.55637680731 0.15474499243 0.76981740457 -0.5995128297 0.21901034369 
0.64167394358 -0.70806030178 0.29479680998 0.34570274176 -0.88472641014 0.31264803461 -0.31197991501 -0.94306267484 0.11533136587 
-0.78521426615 -0.58210098605 -0.21118001391 -0.86302137176 -0.34211848913 -0.37168407457 -0.8579931748 -0.26971618194 -0.43715088151 
-0.84645127476 -0.25886978744 -0.46530277519 -0.82195513372 -0.27840201928 -0.49687229125 -0.80724068489 -0.30865945791 -0.50308231504 
-0.81686280816 -0.25503209657 -0.51739132422 -0.76402066594 0.0089861152853 -0.64512918997 0.12194859125 0.74934126579 -0.65085805555 
0.70178893275 0.66983322128 -0.24251958589 0.81476299054 0.55566693588 -0.16551593764 0.88115570543 0.43835657219 -0.17722341383 
0.92584861235 0.27437375428 -0.25985263125 0.92185391555 0.1355158477 -0.36307136131 0.90852924667 0.092472705944 -0.40745969937 
0.93257697612 0.13537179412 -0.33462615105 0.97741726475 0.18876361148 -0.094993628958 0.91303891394 0.14223201776 0.38226953154 
0.33880239695 -0.13959212387 0.93044450387 -0.2330175158 -0.37226991081 0.89839743479 -0.42961743248 -0.47847377262 0.76582746793 
-0.48412808815 -0.54079026181 0.68787054523 -0.48957440643 -0.56280443529 0.66600906014 -0.49438124999 -0.51383249696 0.70111578553 
-0.5334108962 -0.36374267998 0.76365180454 -0.61181026126 -0.097364136089 0.78498944529 -0.69062566913 0.26617361775 0.67244909871 
-0.53003027395 0.84797724471 0.0015815031111 0.41862789247 0.29125727255 -0.86018596177 0.61267283429 -0.21969760616 -0.75918703886 
0.60803461906 -0.45670893398 -0.64939267909 0.56807316298 -0.55187523221 -0.61051339836 0.56302863357 -0.55721853654 -0.61033290942 
0.62003125514 -0.52321373211 -0.58464402262 0.73604468172 -0.47469159951 -0.4826034727 0.89348595291 -0.39270742263 -0.21786172715 
0.87902577348 -0.13449293805 0.45741156433 0.19574298604 0.23002555144 0.95329582455 -0.23473760535 0.31776474529 0.91865326608 
-0.4471829711 0.31633563389 0.83663561787 -0.60564262912 0.28221369058 0.74401104739 -0.77547571649 0.20254629095 0.59800703437 
-0.77547571649 0.20254629095 0.59800703437 
