# vtk DataFile Version 4.2
vtk output
ASCII
DATASET POLYDATA
POINTS 64 float
0 0 0 -0.933763 0.141362 0.449345 -1.83758 0.278131 0.806755 
-2.78773 0.38391 1.14991 -3.74462 0.417134 1.48708 -4.69423 0.341436 1.83506 
-5.61555 0.127334 2.20072 -6.48751 -0.231546 2.574 -7.30611 -0.713828 2.92908 
-8.08845 -1.2862 3.22781 -8.8575 -1.91972 3.41669 -9.61526 -2.59265 3.42006 
-10.3067 -3.27663 3.14034 -10.7841 -3.92245 2.5274 -10.9008 -4.48892 1.69831 
-10.6853 -4.98188 0.839946 -10.275 -5.44536 0.0365526 -9.77762 -5.92912 -0.703482 
-9.26571 -6.48406 -1.38082 -8.82119 -7.18066 -1.9667 -8.73738 -8.14726 -2.20695 
-9.3253 -8.66482 -1.60322 -9.91261 -8.61554 -0.783379 -10.3743 -8.35519 0.0808876 
-10.686 -7.99541 0.976187 -10.8251 -7.61596 1.90599 -10.7611 -7.30645 2.86873 
-10.4707 -7.19681 3.83169 -9.9946 -7.44576 4.68634 -9.49409 -8.0761 5.29789 
-9.10037 -8.92793 5.67974 -8.82628 -9.87353 5.9229 -8.64032 -10.856 6.09374 
-8.49977 -11.8513 6.23213 -8.35476 -12.8468 6.36356 -8.14786 -13.8296 6.50633 
-7.81708 -14.7729 6.6765 -7.31192 -15.6251 6.89012 -6.62061 -16.3142 7.16111 
-5.78419 -16.7775 7.49538 -4.87529 -16.9939 7.88757 -3.96188 -16.983 8.32687 
-3.0887 -16.7862 8.80323 -2.27524 -16.4524 9.30875 -1.51775 -16.031 9.83582 
-0.793548 -15.568 10.3749 -0.0701251 -15.1062 10.9159 0.682315 -14.6888 11.4533 
1.47875 -14.3648 11.9913 2.30897 -14.1956 12.548 3.11758 -14.2659 13.1536 
3.75985 -14.6614 13.8258 4.07153 -15.3452 14.5016 4.07173 -16.1627 15.0998 
3.88583 -17.0222 15.6049 3.6164 -17.9042 16.0274 3.33681 -18.8149 16.3763 
3.10409 -19.7615 16.6567 2.9571 -20.7407 16.8767 2.90325 -21.7375 17.0572 
2.91312 -22.7369 17.235 2.93395 -23.7279 17.4564 2.91233 -24.6648 17.7499 
2.77853 -25.6022 18.1924 
LINES 1 65
64 0 1 2 3 4 5 6 7 8 9 10 11 12 13 14 15 16 17 18 19 20 21 22 23 24 25 26 27 28 29 30 31 32 33 34 35 36 37 38 39 40 41 42 43 44 45 46 47 48 49 50 51 52 53 54 55 56 57 58 59 60 61 62 63 

CELL_DATA 1
FIELD FieldData 2
Length 1 1 double
63.814907653 
Tortuosity 1 1 double
1.0239268772 
POINT_DATA 64
SCALARS MaximumInscribedSphereRadius float
LOOKUP_TABLE default
0.62 1.01351 1.27195 1.33664 1.15405 0.93 0.93 1.06286 1.21444 
1.24 1.24 1.22518 1.02219 0.93 0.93 0.93 0.93 0.93 
0.93 1.07432 1.2339 1.24 1.37179 1.58077 1.70007 1.68591 1.52972 
1.32345 1.7746 1.94693 1.64357 1.74648 1.86 1.86 1.74043 1.58337 
1.54956 1.46928 1.26373 1.24 1.17036 1.07348 1.45865 1.82919 1.6166 
1.55 1.59258 1.76346 1.86 1.84268 1.66214 1.73537 1.85874 1.38271 
1.5281 1.77663 1.65927 1.62851 1.8213 1.54531 1.27116 1.24573 1.36386 
1.55 
TEXTURE_COORDINATES TCoords 2 float
0 0 0.015873 0 0.031746 0 0.047619 0 0.0634921 
0 0.0793651 0 0.0952381 0 0.111111 0 0.126984 0 
0.142857 0 0.15873 0 0.174603 0 0.190476 0 0.206349 
0 0.222222 0 0.238095 0 0.253968 0 0.269841 0 
0.285714 0 0.301587 0 0.31746 0 0.333333 0 0.349206 
0 0.365079 0 0.380952 0 0.396825 0 0.412698 0 
0.428571 0 0.444444 0 0.460317 0 0.47619 0 0.492063 
0 0.507937 0 0.52381 0 0.539683 0 0.555556 0 
0.571429 0 0.587302 0 0.603175 0 0.619048 0 0.634921 
0 0.650794 0 0.666667 0 0.68254 0 0.698413 0 
0.714286 0 0.730159 0 0.746032 0 0.761905 0 0.777778 
0 0.793651 0 0.809524 0 0.825397 0 0.84127 0 
0.857143 0 0.873016 0 0.888889 0 0.904762 0 0.920635 
0 0.936508 0 0.952381 0 0.968254 0 0.984127 0 
1 0 
FIELD FieldData 7
Curvature 1 64 double
0 0.070492682919 0.046393594649 0.070998362372 0.10686387218 0.13911096488 0.14977346577 0.13248938131 0.10946519021 
0.12337655067 0.18649182877 0.28967523743 0.40481497775 0.43866804912 0.34323241508 0.20112898909 0.10682335829 0.093472370212 
0.17815971863 0.60916347093 1.8051318358 0.66866624704 0.24756326177 0.17908404694 0.17360858773 0.21399667468 0.30127392357 
0.42764233565 0.4673454335 0.33788922414 0.20235399658 0.11688226209 0.055683780316 0.0080320637217 0.062430530965 0.12973668751 
0.19802141063 0.25141760952 0.27382599469 0.26141229012 0.2290585092 0.19028419756 0.14890312172 0.10346277025 0.053099057146 
0.0023257213273 0.051687948436 0.10060025461 0.15612180324 0.24257358756 0.37553144261 0.45082709987 0.34997719862 0.20893429132 
0.11667559319 0.077509065467 0.088054556386 0.10705638885 0.10005456917 0.062040614232 0.044376835731 0.094235597452 0.17217956406 
0 
Torsion 1 64 double
0 0 1.0312922307 0.34255189995 0.11799602194 0.014163291728 -0.073002211046 -0.22747349078 -0.49520578052 
-0.40753137004 -0.093812443066 0.083737047733 0.16711636159 0.19556667238 0.21450107559 0.31465965369 0.73695258772 0.90627251666 
0.36452015167 -0.0083780116305 -0.055722267598 -0.18808866324 -0.50407927497 -0.44812754266 -0.44397101603 -0.37567414668 -0.29900293539 
-0.21968594211 -0.18301817676 -0.198541404 -0.20186388771 -0.14686356955 0.0028659621644 6.9657420349 0.10512446507 0.040130480114 
0.050950626102 0.066559888392 0.076226226879 0.081596950273 0.085765444004 0.089139496277 0.088566781856 0.079959256521 0.088220095031 
21.989476017 -0.10778262226 -0.19651583945 -0.24683396479 -0.23632726432 -0.14446046157 -0.067512527038 -0.0023921339749 0.12527304655 
0.42331999844 0.79436795965 0.46972421744 0.23534245405 0.22699172906 0.63506918641 1.3557339078 0.32972898596 0 
0 
Abscissas 1 64 double
0 1.045852156 2.027350477 3.0430903612 4.058190658 5.0723784764 6.0864655688 7.1005926378 8.1148755379 
9.1292243462 10.143364441 11.156792463 12.168767381 13.17907882 14.189968483 15.203009362 16.217209446 17.231628696 
18.245931751 19.258895826 20.258424771 21.247369266 22.257071427 23.270924979 24.284909885 25.298740667 26.312033413 
27.323762205 28.333273359 29.344133299 30.357264397 31.37137035 32.385822963 33.400412425 34.415001709 35.429416747 
36.443402426 37.456858299 38.469848418 39.482787857 40.496061779 41.509683595 42.523637229 43.53788862 44.552348436 
45.566944842 46.581539541 47.596009753 48.610276674 49.624065847 50.636761535 51.647091096 52.657752692 53.670728985 
54.684848322 55.699277675 56.713744394 57.728121679 58.742438395 59.75681256 60.772012227 61.787631311 62.769718415 
63.814866396 
ParallelTransportNormals 3 64 double
0.43362390334 0 0.90109395207 0.36899717688 0.0097816495489 0.9293790415 0.34097513771 0.013457264974 0.93997598772 
0.3327366832 0.014057660927 0.94291499183 0.34303071726 0.014287260553 0.93921552436 0.36527908284 0.017733550631 0.93072912967 
0.38504545935 0.0240491835 0.9225842135 0.38570414795 0.024376919235 0.92230042614 0.35434269714 0.0037169533005 0.93510824894 
0.27996812598 -0.05409454011 0.95848402656 0.15065016727 -0.1647506462 0.97476240781 -0.040028014665 -0.34329868303 0.9383729388 
-0.2389714072 -0.56966538122 0.78636761122 -0.33073990299 -0.75687793895 0.56369043109 -0.3217425303 -0.8536961037 0.40949323159 
-0.30165889607 -0.88439619122 0.35615346044 -0.30795412392 -0.87782645246 0.36685825181 -0.34777910853 -0.83684035512 0.42278589347 
-0.43259197761 -0.72584354646 0.534804008 -0.58509422122 -0.24303669325 0.77369109988 -0.21567707307 0.83517187579 0.50593610075 
0.15804672484 0.98595640692 0.053955504034 0.27768194808 0.95070166183 -0.13805464826 0.32769187916 0.91060408627 -0.25182976471 
0.34223303029 0.88675679971 -0.3107071469 0.34213084334 0.8876956319 -0.30812814078 0.35983703972 0.90862319999 -0.21194618486 
0.45247870182 0.89174219065 0.0076739705022 0.61910918507 0.74176167865 0.25786319834 0.74902084712 0.52649967507 0.40220127142 
0.81295011514 0.35445229862 0.4620342826 0.83945544346 0.24337018177 0.48588631703 0.84850125631 0.18857756198 0.49445335591 
0.84846078274 0.18885972553 0.49441511326 0.83810030315 0.24710026145 0.48634282421 0.80478088192 0.36644811577 0.46695129354 
0.72506287579 0.53766257219 0.43035193111 0.57856416865 0.72636847521 0.37101528402 0.37273616659 0.88163166464 0.28947082412 
0.1465691755 0.96972296962 0.19533263676 -0.060351606237 0.99306246397 0.10091890945 -0.22773762207 0.97360496187 0.015131216374 
-0.34927858586 0.93536652138 -0.055623197863 -0.42599322761 0.89848968936 -0.1060473863 -0.46222994293 0.87686229713 -0.13212112522 
-0.46160426935 0.87726201747 -0.13165428677 -0.42437376251 0.89944267262 -0.10444993235 -0.3468043332 0.93657192617 -0.050594284053 
-0.22128168421 0.97462126809 0.033879197529 -0.037387831988 0.98570073225 0.16430525389 0.18544888573 0.91409833001 0.36060082342 
0.34403473987 0.73470074769 0.58468359743 0.38339743646 0.54546212926 0.74530361012 0.36845638359 0.41045990562 0.8341238273 
0.34426970074 0.3179481367 0.88339535629 0.32354842885 0.25028882676 0.91250858483 0.30949276956 0.19933170646 0.92977475573 
0.30281507115 0.16546278452 0.9385761022 0.30165177704 0.15401801126 0.94089566776 0.30200180442 0.16989660697 0.93804586939 
0.30132284338 0.2139264069 0.92921474186 0.30137345485 0.27872051097 0.9118601414 0.30874005225 0.36959956681 0.87639930417 
0.30874005225 0.36959956681 0.87639930417 
FrenetTangent 3 64 double
-0.90697307442 0.13727692959 0.39818951125 -0.90697307442 0.13727692959 0.39818951125 -0.92851513121 0.12147438303 0.35086126229 
-0.93964916182 0.068490448213 0.33521412737 -0.94086770985 -0.020961140592 0.33812509986 -0.92470335525 -0.14323305936 0.35271517617 
-0.88669891058 -0.28331464042 0.36537358483 -0.83531002912 -0.41562034644 0.35988454102 -0.79038084976 -0.52068050229 0.32278464472 
-0.76629375485 -0.59563838041 0.2408501631 -0.75635451954 -0.64719217063 0.095237256618 -0.72299715424 -0.67695431572 -0.1378693925 
-0.58949683911 -0.67067634442 -0.45020741632 -0.30075506767 -0.61370551799 -0.73000816876 0.049525965779 -0.53106737229 -0.84588097555 
0.31027991911 -0.47421549084 -0.82392113703 0.44808984904 -0.46761940301 -0.76193673039 0.49805755055 -0.51257054408 -0.69943556792 
0.47368764807 -0.6198452899 -0.62562914626 0.2736374452 -0.86141975998 -0.42787678798 -0.31330088231 -0.92239453792 0.22590014069 
-0.61709034679 -0.24588460261 0.74748930835 -0.5223827022 0.15418979661 0.83865476751 -0.38294297286 0.30705636658 0.87124684635 
-0.22316061526 0.36594294063 0.90348497719 -0.037262184168 0.34183989335 0.93901917816 0.17698743031 0.20932395755 0.96169586165 
0.38760404058 -0.070446324134 0.91913025363 0.49601210075 -0.44658429269 0.7446707094 0.44805015733 -0.74263515116 0.49773897655 
0.33112863211 -0.891241757 0.30990637228 0.22718902565 -0.9521482561 0.2044476584 0.16098074471 -0.97511063927 0.15246127713 
0.14072559952 -0.98107875479 0.13296910372 0.17352774788 -0.97550334861 0.13520849665 0.26564201799 -0.9515936799 0.15460849475 
0.41436441251 -0.89000615826 0.19023977478 0.59511926582 -0.76663634109 0.24104310811 0.76117478434 -0.5741707246 0.30156413364 
0.86877237478 -0.33833635926 0.36161176532 0.90501947517 -0.10205791724 0.41294543356 0.88520169797 0.10290948266 0.45368225917 
0.8339511581 0.26235245201 0.48548600066 0.77541602997 0.37276408163 0.50968315639 0.7304871321 0.43601713934 0.52562116019 
0.71341479549 0.45575752064 0.53228226718 0.72762562062 0.43346058614 0.53166989428 0.76445291638 0.36592054128 0.53076727114 
0.80456317341 0.2439428179 0.54145175371 0.81469460996 0.049165531033 0.57780225256 0.72957432109 -0.23422744477 0.64254090463 
0.48354664091 -0.54708516522 0.68328651974 0.15644442911 -0.75307831313 0.63906040003 -0.092115006365 -0.8318627896 0.54728340454 
-0.22485551287 -0.86000378664 0.45807585103 -0.27080313378 -0.88424627955 0.38049202335 -0.25276405582 -0.91635651418 0.31048521864 
-0.1874504089 -0.95070414362 0.24703031294 -0.099123615147 -0.97524522239 0.19766452675 -0.021680148786 -0.98403911147 0.17662672008 
0.015121124796 -0.98036229925 0.19662429606 -0.00039595533558 -0.96613579801 0.25803384085 -0.076955225128 -0.9280473455 0.36442559986 
-0.076955225128 -0.9280473455 0.36442559986 
FrenetNormal 3 64 double
-0.39382893736 0.058772698583 -0.91730286057 -0.39382893736 0.058772698583 -0.91730286057 -0.31425008779 -0.76040116398 -0.56836339796 
-0.10044568133 -0.99180777138 -0.078917740353 0.058549973673 -0.99312588795 0.10135517385 0.19806253532 -0.97225903286 0.12443313516 
0.32249547787 -0.94526687552 0.049670925065 0.39433054635 -0.90905992117 -0.13458632893 0.32336822309 -0.80210470249 -0.50205680809 
0.10379754487 -0.48471618584 -0.86849081104 0.056634212827 -0.20982392067 -0.97609758132 0.22435858492 -0.041327530356 -0.97362994028 
0.53536834801 0.09295923912 -0.83948752928 0.84333070298 0.18630591265 -0.5040668927 0.97249095183 0.21864948506 -0.080335243196 
0.95060546186 0.14684366456 0.27347064569 0.79371521947 -0.18409588427 0.57976275819 0.15210247556 -0.74245135254 0.6524038826 
-0.36765158674 -0.7846979826 0.49908054147 -0.62864435978 -0.49686396772 0.59827457451 -0.57845854264 0.37401506811 0.72491271424 
0.023183137425 0.94383249316 0.3296100226 0.51209017246 0.84313793469 0.1639575505 0.82164006613 0.54427869458 0.16931717089 
0.97434877255 0.11135985073 0.19555933389 0.93449525952 -0.32097388329 0.15392977679 0.75058563599 -0.66074873798 0.0056840400929 
0.44630930178 -0.85808076336 -0.25397915408 0.052358409137 -0.84066071372 -0.53902519552 -0.32044787334 -0.65316169319 -0.68607066912 
-0.58297123367 -0.45148428825 -0.67550461003 -0.73609756703 -0.3053491482 -0.60408796504 -0.79365415126 -0.21972380889 -0.56730462363 
0.54119186525 -0.036235820677 -0.84011804545 0.96449719844 0.19608916116 0.17690165366 0.93315724317 0.29408194482 0.20672051 
0.86662953851 0.44968912949 0.21617800489 0.7337154049 0.640691422 0.22622158694 0.52651241641 0.81857960048 0.22959118677 
0.27355421565 0.93657516418 0.21907773266 0.018108412531 0.97915458854 0.20230762994 -0.20912716628 0.95915941648 0.19047058067 
-0.39381990002 0.89921770107 0.19056078407 -0.52894070392 0.82430570561 0.20184606869 -0.61129254936 0.76061568812 0.21859824812 
-0.30140434287 -0.48616664984 0.82024228779 0.54644703246 -0.83478829678 -0.067261729673 0.42780389542 -0.90384470305 0.0069699238749 
0.21405146382 -0.96957612353 0.11876073223 -0.084321500196 -0.97576527785 0.20192079426 -0.44330718135 -0.87738216827 0.18351913731 
-0.75400503595 -0.65682355792 0.007695421337 -0.89683224907 -0.37937829798 -0.22751708519 -0.87617882596 -0.19342309979 -0.44147272782 
-0.69779830412 -0.18599732794 -0.6917243098 -0.12713630884 -0.35894577661 -0.92465901198 0.51767035891 -0.39919610851 -0.75674293288 
0.78064091509 -0.29682885501 -0.54999308406 0.90713264272 -0.17021049031 -0.38488798046 0.99857277739 -0.029938821741 -0.044227539036 
0.23949734079 0.19447360693 0.95122081556 -0.45278142474 0.23024175554 0.86138128342 -0.61174164273 0.33257325902 0.71775148201 
-0.61174164273 0.33257325902 0.71775148201 
FrenetBinormal 3 64 double
-0.14932719233 -0.98878754771 0.00075837217815 -0.14932719233 -0.98878754771 0.00075837217815 0.19775371914 -0.63799219751 0.74421732208 
0.32706286519 -0.10782579999 0.9388309108 0.33367626999 0.11515902599 0.93562735401 0.32510757742 0.18492339963 0.92742029273 
0.33130304666 0.16187448398 0.92953479909 0.38309342915 0.029492157348 0.92323866752 0.52031827243 -0.2924377896 0.80233972517 
0.63405043251 -0.64051942903 0.4332607876 0.65170576698 -0.73288213008 0.19535448984 0.65340518849 -0.73486385791 0.18176019917 
0.60487536619 -0.73590204572 0.30425970894 0.44535347161 -0.76723897457 0.46152425855 0.22761486624 -0.81863291454 0.52728704128 
-0.0086964174044 -0.86807638283 0.49635447605 -0.41137773101 -0.86454658597 0.2886651401 -0.85369989649 -0.43132056112 -0.2918202534 
-0.80028265184 -0.0063947395583 -0.59958884619 -0.72796209895 0.10527200335 -0.67748726025 -0.75314558459 0.096441926804 -0.65074625098 
-0.78655072693 0.22072831051 -0.57672954398 -0.68182106723 0.5151154528 -0.51939975219 -0.4222111809 0.78069013723 -0.46071751471 
-0.029048394484 0.92395061981 -0.38140718783 0.35401997058 0.88324473027 -0.3074875719 0.63662913267 0.72082909629 -0.27405977702 
0.80657988747 0.50865972808 -0.30115472128 0.86673559573 0.30635279326 -0.39359544352 0.83460422775 0.14789467472 -0.53062505426 
0.74195577342 0.043012417331 -0.66906768137 0.63760922079 -0.013251267753 -0.77024599023 0.58668414673 -0.029676404715 -0.80927190918 
0.8290402105 0.19018791287 0.52585253367 -0.19908107621 0.099710870671 0.97489715733 -0.24218149764 0.089360383292 0.96610705623 
-0.27794851435 0.075290936225 0.95764079816 -0.32786394138 0.042228216937 0.94378070209 -0.3786787861 -0.015981761369 0.9253901665 
-0.41279856094 -0.091408259231 0.90622396693 -0.42498451144 -0.17561455881 0.8880020787 -0.41555238205 -0.26348216667 0.87057071259 
-0.38656351646 -0.3501124348 0.85322325961 -0.34489376944 -0.42610684477 0.83634995346 -0.30448311763 -0.48099150637 0.82215400132 
0.63260947801 -0.74560517096 -0.20947118506 0.41467649673 0.33947079378 -0.84427660351 0.48228162488 0.22173612752 -0.84748895217 
0.55394952011 0.020348028871 -0.83230156007 0.57372691859 -0.21322493547 -0.79080500111 0.52076871351 -0.41873384734 -0.74395020809 
0.44458863213 -0.51892257202 -0.73010979478 0.41378382959 -0.53753619535 -0.73473653854 0.47310198746 -0.52018439399 -0.71104339228 
0.68008641002 -0.47518257645 -0.55828665929 0.95420229601 -0.29877490951 -0.015216166921 0.81739080714 -0.030548418356 0.57527303304 
0.59620642893 0.089745541053 0.7977992429 0.40900474012 0.14115645647 0.90154865501 0.048809624103 0.1754157748 0.98328374671 
-0.9707792619 0.032707467381 0.23773482336 -0.89162145815 -0.11649186158 -0.43753950856 -0.78730556703 -0.16769958823 -0.59331845769 
-0.78730556703 -0.16769958823 -0.59331845769 
