# vtk DataFile Version 4.2
vtk output
ASCII
DATASET POLYDATA
POINTS 64 float
0 0 0 -0.244546 0.933922 -0.323469 -0.779351 1.78183 -0.308354 
-1.51851 2.41237 -0.031874 -2.36756 2.75443 0.39812 -3.24524 2.75644 0.899361 
-4.04166 2.4005 1.41015 -4.67378 1.77581 1.89531 -5.15408 0.999018 2.33521 
-5.54849 0.109225 2.61236 -5.86084 -0.809903 2.36933 -5.991 -1.58404 1.72964 
-5.9428 -2.32559 1.04014 -5.72412 -3.08409 0.404216 -5.35546 -3.8336 -0.170728 
-4.87345 -4.52774 -0.73147 -4.31762 -5.14389 -1.31482 -3.71485 -5.71271 -1.89998 
-3.07681 -6.30854 -2.41596 -2.43789 -7.03536 -2.70678 -2.05437 -7.88669 -2.39043 
-2.25959 -8.38694 -1.54894 -2.80778 -8.45311 -0.704608 -3.48636 -8.16291 -0.0148907 
-4.1108 -7.54182 0.479924 -4.51166 -6.67968 0.824536 -4.64475 -5.72167 1.1253 
-4.56837 -4.78915 1.51288 -4.32625 -4.09162 2.19279 -4.02239 -4.2708 3.10795 
-3.78163 -5.04935 3.70431 -3.55176 -5.99295 3.98806 -3.33363 -6.97972 3.95028 
-3.20047 -7.92275 3.60756 -3.23735 -8.80719 3.1142 -3.46581 -9.70781 2.71269 
-3.77259 -10.6675 2.6691 -3.91313 -11.585 3.06186 -3.73928 -12.3316 3.71908 
-3.28868 -12.8651 4.45132 -2.66224 -13.2099 5.16935 -1.94863 -13.4092 5.86175 
-1.20376 -13.5007 6.54417 -0.448188 -13.5045 7.22099 0.330419 -13.4228 7.86586 
1.15313 -13.2699 8.43897 2.02001 -13.106 8.93982 2.90476 -13.0193 9.42793 
3.75701 -13.0805 9.97288 4.50504 -13.3269 10.6095 5.0756 -13.7611 11.3242 
5.43334 -14.3562 12.0615 5.58757 -15.0765 12.757 5.56175 -15.8863 13.3656 
5.38482 -16.7464 13.8722 5.10446 -17.6285 14.287 4.77643 -18.5276 14.6234 
4.43647 -19.4515 14.8669 4.0967 -20.4019 14.9597 3.76355 -21.3503 14.8345 
3.44086 -22.2506 14.499 3.13261 -23.0982 14.0374 2.85648 -23.9268 13.5373 
2.64233 -24.8121 13.0702 
LINES 1 65
64 0 1 2 3 4 5 6 7 8 9 10 11 12 13 14 15 16 17 18 19 20 21 22 23 24 25 26 27 28 29 30 31 32 33 34 35 36 37 38 39 40 41 42 43 44 45 46 47 48 49 50 51 52 53 54 55 56 57 58 59 60 61 62 63 

CELL_DATA 1
FIELD FieldData 2
Length 1 1 double
63.700808392 
Tortuosity 1 1 double
1.2614371808 
POINT_DATA 64
SCALARS MaximumInscribedSphereRadius float
LOOKUP_TABLE default
0.93 0.695165 0.977401 1.36422 1.40889 0.906865 0.646731 0.859151 1.12737 
1.15872 0.993839 1.42778 1.25688 1.17895 1.13819 0.956 1.10272 1.25398 
1.42813 1.55 1.85069 2.00805 1.86025 1.86625 1.87945 1.85332 1.67787 
1.55092 1.55 1.60509 1.4084 1.01439 1.50493 1.31971 1.59572 1.86 
1.53797 1.08729 1.57391 1.77555 1.42812 1.77865 2.05541 1.86898 1.86 
1.88222 2.0836 2.17 2.08655 1.91175 1.77931 1.80569 1.84082 1.67138 
1.82541 2.17 2.12655 1.91062 2.11263 2.17 2.50278 2.35315 1.49967 
1.24 
TEXTURE_COORDINATES TCoords 2 float
0 0 0.015873 0 0.031746 0 0.047619 0 0.0634921 
0 0.0793651 0 0.0952381 0 0.111111 0 0.126984 0 
0.142857 0 0.15873 0 0.174603 0 0.190476 0 0.206349 
0 0.222222 0 0.238095 0 0.253968 0 0.269841 0 
0.285714 0 0.301587 0 0.31746 0 0.333333 0 0.349206 
0 0.365079 0 0.380952 0 0.396825 0 0.412698 0 
0.428571 0 0.444444 0 0.460317 0 0.47619 0 0.492063 
0 0.507937 0 0.52381 0 0.539683 0 0.555556 0 
0.571429 0 0.587302 0 0.603175 0 0.619048 0 0.634921 
0 0.650794 0 0.666667 0 0.68254 0 0.698413 0 
0.714286 0 0.730159 0 0.746032 0 0.761905 0 0.777778 
0 0.793651 0 0.809524 0 0.825397 0 0.84127 0 
0.857143 0 0.873016 0 0.888889 0 0.904762 0 0.920635 
0 0.936508 0 0.952381 0 0.968254 0 0.984127 0 
1 0 
FIELD FieldData 7
Curvature 1 64 double
0 0.46828966705 0.40738197952 0.34759077901 0.35149507932 0.37163366306 0.31648342245 0.21651142755 0.21291937986 
0.55906159614 0.47869312564 0.18475843432 0.17606352937 0.15876776669 0.12392593243 0.10698736017 0.064868535916 0.080042312093 
0.25846771673 0.75774145414 1.0795416372 0.59313576429 0.41935836649 0.39458827828 0.36549283331 0.28672724246 0.22529630076 
0.42068466258 1.1694874061 0.7788941513 0.35707087179 0.32564203324 0.32017861777 0.23182152331 0.21004525574 0.37624227601 
0.48763767844 0.45956818853 0.3609299597 0.25609360113 0.16812948284 0.10988483573 0.086201533899 0.09169266357 0.10752909702 
0.083145506088 0.07812925295 0.15837561089 0.22848969943 0.26805416618 0.26579279747 0.23984917743 0.21589318042 0.18571866591 
0.13683807063 0.090882316761 0.094392417743 0.14971399008 0.21492052184 0.21278918193 0.13445072125 0.052202996845 0.086164575266 
0 
Torsion 1 64 double
0 0 -0.13124904094 -0.1404791349 -0.056955532675 0.028829174475 0.042521987202 -0.27811534478 -0.79918133611 
-0.040068629193 0.20837617564 1.1145664886 0.27762492113 -0.18801305899 -0.46287962552 -0.20751364849 0.73666879922 1.0490512954 
0.21032741457 0.063429303527 0.044081370806 0.014740251187 -0.16802578992 -0.30749694549 -0.35985136269 -0.49823011889 -0.95929639874 
-0.35688095696 -0.0088298369605 0.1085591997 0.23464038927 -0.041755628287 -0.26196975423 -0.74177104685 -1.1508084907 -0.50393448591 
-0.34939384251 -0.26667001572 -0.14985755317 -0.017955227314 0.13296176111 0.21365159265 -0.076057375418 -0.3772763771 -0.37921034066 
-0.80032369969 -1.1342808532 -0.29275874797 -0.10979481817 -0.015882689962 0.062370855885 0.10388462556 0.069916869918 0.039552074962 
0.12522869964 0.39903071611 0.25493532515 0.0037344663903 -0.03817665374 -0.0271595378 0.091042763782 1.4174815555 0 
0 
Abscissas 1 64 double
0 1.0181579972 2.020754041 3.0308907217 4.0422189234 5.0529396405 6.0638221711 7.0763456236 8.0900542792 
9.1020340888 10.102743917 11.115382334 12.129104721 13.142781394 14.156799109 15.170994236 16.185338341 17.199876648 
18.213951303 19.224427376 20.210298177 21.210530581 22.219383034 23.229525482 24.2397375 25.251040885 26.263928768 
27.276670528 28.280391306 29.261188886 30.271008071 31.28280892 32.294109918 33.306281809 34.319695483 35.331881182 
36.340338496 37.348187228 38.357941698 39.36980811 40.383148602 41.39723421 42.411586259 43.425978727 44.440263191 
45.454509328 46.468985876 47.483168319 48.496605666 49.509296695 50.521693672 51.534407768 52.547493818 53.560865233 
54.574658706 55.588910033 56.603319225 57.617532347 58.631097837 59.644077842 60.657584033 61.670702126 62.67719242 
63.700769094 
ParallelTransportNormals 3 64 double
-0.96738550967 -0.25330865695 0 -0.84444639588 -0.53347674038 0.048092119504 -0.64826861058 -0.76140451153 0.0033133601688 
-0.41512061841 -0.90421087136 -0.10038711212 -0.143265088 -0.95836546711 -0.24700353439 0.13548826046 -0.89943870474 -0.41551527973 
0.33179400938 -0.7647251101 -0.55236603926 0.43684872203 -0.6323912694 -0.63972218693 0.52881600597 -0.45714283554 -0.71510422999 
0.69026808436 -0.043604482956 -0.72223861762 0.78344946312 0.31226811234 -0.53730397798 0.790567599 0.44375991022 -0.42199527661 
0.77687177034 0.52074042116 -0.35397692894 0.74823266899 0.59427599926 -0.2949303473 0.70110014153 0.67426411245 -0.23200538402 
0.64566159351 0.74425619832 -0.17089124592 0.60856924015 0.78219315183 -0.13348165856 0.61393688538 0.77715495108 -0.13824501001 
0.69796834869 0.69010156228 -0.19131131164 0.91997856708 0.34603360747 -0.18412001146 0.97854519515 -0.088382642885 0.18611235718 
0.82863728573 -0.20167581451 0.52219451792 0.66512954174 -0.17184507171 0.72668560192 0.55742057658 -0.096517144531 0.82460095902 
0.54576582496 -0.079660597278 0.83414258586 0.57286973718 -0.17201400566 0.80139344025 0.57829821285 -0.35305303124 0.73547585559 
0.51350471157 -0.68368122208 0.51854883836 0.24568535179 -0.93265353901 -0.26418948519 0.052692317147 -0.59693206965 -0.80055956926 
-0.029959377191 -0.29452553861 -0.95517388094 -0.10192012214 0.015549134246 -0.99467105775 -0.15692443256 0.31768791741 -0.93511983702 
-0.16578512126 0.4856799152 -0.85827170147 -0.17297679623 0.43731986681 -0.88251366112 -0.26220585439 0.12726004431 -0.95658401149 
-0.36821758052 -0.31765500799 -0.87379122752 -0.36138638751 -0.66207462669 -0.65654936419 -0.26993259333 -0.8496758223 -0.45297614954 
-0.16249937228 -0.93730881136 -0.30829555001 -0.068876204723 -0.9753256388 -0.20975215545 0.0058911080409 -0.99023647366 -0.13927318864 
0.068751374179 -0.99423099743 -0.082328441668 0.12915375706 -0.9911617899 -0.03029213232 0.17807458537 -0.9839926788 0.0069173781809 
0.18086492331 -0.9834695448 0.0086910280231 0.1135396855 -0.99310072466 -0.029320479248 -0.0069022958671 -0.99486717651 -0.10095374887 
-0.14572289393 -0.9681784904 -0.20345822398 -0.27136700713 -0.90331853537 -0.3322281913 -0.36144764114 -0.80343897848 -0.47311881233 
-0.41052388924 -0.67736401737 -0.61044911691 -0.42239734398 -0.53591924189 -0.73100687409 -0.40594048723 -0.40035042428 -0.82154236568 
-0.37775594489 -0.29296636973 -0.87833430555 -0.35054833257 -0.21331296933 -0.91192842024 -0.31988307788 -0.12962340493 -0.93854812843 
-0.27174922146 0.003107305792 -0.96236308392 -0.20272429255 0.19787539977 -0.95903502927 -0.13521823495 0.38816315473 -0.911616912 
-0.094013558963 0.50230886918 -0.85956224363 -0.08260527547 0.53503609504 -0.84078103301 -0.097578385422 0.48276372102 -0.87029744821 
-0.097578385422 0.48276372102 -0.87029744821 
FrenetTangent 3 64 double
-0.39578875949 0.90489172453 -0.15659573663 -0.39578875949 0.90489172453 -0.15659573663 -0.64560843949 0.74923506339 0.14777199546 
-0.79735391731 0.48828998182 0.35468242726 -0.86692897835 0.17274514187 0.46753958385 -0.84210919852 -0.17803459741 0.50907345235 
-0.71478160332 -0.49066615663 0.49833119739 -0.5522639625 -0.69576955717 0.4592485591 -0.43428336382 -0.82744003582 0.35600694802 
-0.36386145411 -0.93128743161 0.017565931075 -0.2257541282 -0.86384819111 -0.45033473807 -0.040622321277 -0.75122703488 -0.65879266016 
0.13215569812 -0.74280621211 -0.65633360627 0.29058916589 -0.74609511069 -0.59908265078 0.42024181545 -0.71318120904 -0.56104311743 
0.51237047873 -0.64687582453 -0.5648257786 0.57136152529 -0.58436586937 -0.57624867734 0.61215601787 -0.57458235445 -0.54324959986 
0.63602361896 -0.6587807605 -0.40184806298 0.54368235581 -0.83918126665 0.013575628329 0.099685998338 -0.75565624434 0.64733788869 
-0.39007724583 -0.29326312169 0.87283244884 -0.62052644387 0.11331890736 0.77595473946 -0.65716734842 0.45960149488 0.5974090241 
-0.51550281494 0.74574224659 0.42204898938 -0.2664906299 0.90842324985 0.32210238016 -0.028175359385 0.93928004323 0.34199290856 
0.161319292 0.82561540562 0.54068039361 0.30954562095 0.29388076116 0.9043315801 0.29117198285 -0.51203420862 0.80810880802 
0.23644413185 -0.86520682082 0.44216663116 0.22434982001 -0.96669259045 0.12317708321 0.17581400735 -0.96582848728 -0.1904331063 
0.047854105769 -0.90830749223 -0.4155568362 -0.13172439822 -0.88616841849 -0.44424567189 -0.26946717491 -0.93657505706 -0.22408615339 
-0.228098172 -0.95721975191 0.17804934844 0.016926273822 -0.84560422977 0.53354192699 0.31382990407 -0.64333996219 0.6983011416 
0.53619863599 -0.43725685857 0.72200932293 0.66333493183 -0.2693335186 0.69817349131 0.72012878203 -0.14358340044 0.67882129048 
0.74029882437 -0.047020130557 0.67063161121 0.75706437852 0.038440927059 0.65220841907 0.79057140305 0.11582215221 0.60131695946 
0.8335688647 0.15629505351 0.52984413184 0.86411517556 0.12362608776 0.4878745267 0.85941329123 0.012616750021 0.51112582842 
0.79502648425 -0.15281660822 0.58700934711 0.65700281557 -0.33911691267 0.67331049292 0.46244759896 -0.51276277265 0.7233370979 
0.25454746753 -0.6540065668 0.71237700507 0.063741528801 -0.75952814637 0.64734381311 -0.10045823846 -0.82739892375 0.55255693218 
-0.22602281292 -0.8611095212 0.45541638149 -0.30020224551 -0.87890977466 0.37066996074 -0.32966255663 -0.89967674337 0.28618937123 
-0.33618164776 -0.92699354219 0.1663276058 -0.33399287784 -0.94243840651 -0.016081277497 -0.32548528031 -0.91748745591 -0.22863967405 
-0.31203282785 -0.86442802297 -0.39420769583 -0.2894528884 -0.83024830747 -0.47634522496 -0.24174024963 -0.84506484506 -0.47689313201 
-0.24174024963 -0.84506484506 -0.47689313201 
FrenetNormal 3 64 double
-0.65339395285 -0.15765352938 0.74041995317 -0.65339395285 -0.15765352938 0.74041995317 -0.50278527268 -0.56266947967 0.65620882821 
-0.31594736126 -0.83845971286 0.4440299256 -0.083645556114 -0.975140549 0.20519339815 0.22167051863 -0.97478066837 0.025784292732 
0.52363241907 -0.84782187682 -0.083708750272 0.69430823074 -0.68878595221 -0.20859049059 0.39424759816 -0.52995775565 -0.75080863645 
0.14756614215 -0.076255232536 -0.98610819548 0.40226170886 0.33835793044 -0.85070525359 0.94882374886 0.17766068616 -0.26109418644 
0.94976805976 -0.094607390365 0.29831204191 0.92431991191 0.057020581137 0.37733453828 0.89229920891 0.43716165116 0.11265794481 
0.67201043294 0.71152098579 -0.20527996687 0.70216620698 0.71156084236 -0.025372926315 0.43251606095 -0.33182802074 0.8383436179 
0.012234123423 -0.51207757077 0.85885207558 -0.36007092718 -0.21860805594 0.90695063001 -0.68376013948 0.42061155643 0.59628683556 
-0.61370160991 0.78948664607 -0.0090094214574 -0.31621077824 0.86933401852 -0.3798277346 0.13970581594 0.85312635874 -0.50265067494 
0.62013403491 0.66458580848 -0.41684467362 0.93198826352 0.32806861412 -0.15417153139 0.91799976931 -0.11107886488 0.38070711751 
0.40791575685 -0.55464862951 0.72523763905 0.076666155236 -0.9556595797 0.28431860362 -0.10585361088 -0.85676631315 -0.50472417984 
-0.032129571286 -0.46178330649 -0.88641066583 -0.035814839324 -0.13449287719 -0.99026711713 -0.26638094367 0.13955353546 -0.95371169836 
-0.72506222905 0.25456255513 -0.639908329 -0.89989376183 -0.081052545339 0.42851102939 -0.21379078611 -0.16870662409 0.9622014211 
0.35427493187 0.088736702429 0.93092162414 0.70649628354 0.3877116596 0.59206644083 0.7727900819 0.60036594025 0.20580628539 
0.67757317617 0.73306515526 -0.059245835993 0.50530344666 0.84937287638 -0.15242750301 0.27576468603 0.95699085872 -0.090123993832 
0.12052265021 0.9906721979 -0.063583701487 0.24560217042 0.90830289749 -0.33862282896 0.40015233331 0.64559980459 -0.65044523402 
0.5147471291 0.12835301715 -0.84767971314 0.22608093994 -0.9614035961 -0.15681369199 -0.19698286024 -0.9143510466 0.35377947419 
-0.44775373738 -0.80070785192 0.39797427874 -0.65664527214 -0.6961699391 0.29011101749 -0.7955843614 -0.60009760532 0.08323693878 
-0.8393037733 -0.51533336479 -0.17320709933 -0.82205566636 -0.40774057691 -0.39745704591 -0.79876436808 -0.26404776125 -0.54060546063 
-0.73779265055 -0.15394073848 -0.65723987541 -0.51022261037 -0.18037347893 -0.84091515385 -0.12429363697 -0.25913742826 -0.95780942002 
8.016265058e-07 -0.17660689293 -0.98428146654 0.029448545881 0.0066193672833 -0.99954437977 0.049255718085 0.22502632648 -0.97310689373 
0.10426959277 0.38125954413 -0.91856900232 0.5671898059 0.25210025144 -0.78405432676 0.74647447183 -0.47595835277 0.46501560117 
0.74647447183 -0.47595835277 0.46501560117 
FrenetBinormal 3 64 double
0.64531201774 0.39536860212 0.65364827562 0.64531201774 0.39536860212 0.65364827562 0.5748014548 0.34935637453 0.73996852037 
0.51420229041 0.2419880236 0.82282306784 0.49136296914 0.13878049453 0.85982696334 0.49164446395 0.13455976629 0.86033678891 
0.46356914183 0.20110889566 0.862936187 0.46145486935 0.20366304367 0.86347018952 0.80991776821 -0.18570881603 0.55636808355 
0.91968966282 -0.35621462524 0.16517283331 0.88725452446 -0.37320264418 0.27110734995 0.31318256754 -0.63568437346 0.70556506201 
-0.28368204758 -0.66278833193 0.69299070913 -0.24736741321 -0.66339335173 0.7062001301 0.16492100629 -0.5479619091 0.82008463457 
0.53467604261 -0.27438942112 0.79926965102 0.42486306641 -0.39012523417 0.81688045421 -0.6619628893 -0.74816126778 0.04538557684 
-0.77157260342 -0.55116646406 -0.31763382462 -0.75812823676 -0.49798124421 -0.42101811961 -0.7228656676 -0.50206529356 -0.47475853611 
-0.68644743155 -0.53917304934 -0.48793682642 -0.71760551572 -0.48105840548 -0.50361208716 -0.74068438701 -0.24686409607 -0.62485578889 
-0.59134645221 0.046842340071 -0.80505600342 -0.24572468504 0.25911036945 -0.9340670188 0.39557878187 0.32467597102 -0.85912917607 
0.89865500686 0.10355722951 -0.42625705727 0.9477889054 -0.018677953399 -0.31835094607 0.95079645007 0.061420304925 -0.30366701611 
0.97111372308 0.19537997605 -0.13698467723 0.97385032502 0.21775468205 -0.064795392593 0.94769754018 0.21840362611 -0.23274283755 
0.6870187396 0.33192680682 -0.64639759155 -0.41574018368 0.45621926633 -0.78678083397 -0.93897866931 0.30718925352 -0.15477022032 
-0.90689607816 0.27541994153 0.31887828278 -0.70751431265 0.36692390983 0.60397875939 -0.55163962932 0.4750520296 0.68557952751 
-0.50337422828 0.52098168661 0.68934205481 -0.55195579081 0.45389995884 0.6995138543 -0.6366854602 0.25209582195 0.72875189284 
-0.66138637831 0.12789723856 0.73906045419 -0.60541977228 0.41654308485 0.67820259348 -0.46354607842 0.75484178566 0.46404623887 
-0.20049523906 0.97933516185 0.026538648699 0.44965806117 0.24580422255 -0.85871293935 0.47181198334 -0.40472580991 -0.78332015879 
0.40920591394 -0.57923572069 -0.70500815589 0.37035697227 -0.63272990718 -0.68006512751 0.39139205678 -0.6139684056 -0.68545973975 
0.4803902194 -0.55381127988 -0.68008698222 0.56582815316 -0.50681812991 -0.65036442421 0.59319779721 -0.49567106104 -0.63437100552 
0.63606264851 -0.48455406461 -0.60052615733 0.80594757873 -0.44156881242 -0.3942911161 0.93588123743 -0.35132541998 -0.026396187413 
0.94179716484 -0.33089723195 0.059372739374 0.94211546038 -0.33431427417 0.025542619126 0.9442633142 -0.32799378141 -0.028051253478 
0.94433223305 -0.32772755928 -0.028831935762 0.77104652874 -0.49712494523 0.39793723041 -0.61994960651 -0.24357556132 0.74587762489 
-0.61994960651 -0.24357556132 0.74587762489 
