# vtk DataFile Version 4.2
vtk output
ASCII
DATASET POLYDATA
POINTS 64 float
0 0 0 -0.675289 0.635518 0.437055 -1.42838 1.22607 0.741935 
-2.27896 1.71814 0.985449 -3.21663 2.02813 1.21038 -4.19326 2.06719 1.47184 
-5.10181 1.794 1.82217 -5.85995 1.28281 2.258 -6.48954 0.640295 2.72626 
-7.07465 -0.0842738 3.12684 -7.68187 -0.883084 3.22258 -8.17906 -1.62381 2.7601 
-8.43524 -2.23827 1.997 -8.49566 -2.83252 1.17789 -8.39617 -3.47375 0.399091 
-8.14784 -4.17586 -0.288469 -7.74729 -4.8933 -0.882264 -7.20326 -5.53248 -1.45066 
-6.56938 -6.03261 -2.06393 -5.90011 -6.43001 -2.71448 -5.1964 -6.79831 -3.34503 
-4.39088 -7.23853 -3.76909 -4.07448 -7.55371 -3.00147 -4.38585 -7.50786 -2.04508 
-4.88967 -7.30834 -1.18917 -5.51525 -6.93951 -0.483594 -6.15811 -6.36523 0.0477719 
-6.64922 -5.61923 0.524678 -6.81678 -4.89039 1.19843 -6.58899 -4.5568 2.11436 
-6.11856 -4.84572 2.94893 -5.65114 -5.64072 3.34151 -5.35128 -6.60375 3.27779 
-5.2057 -7.57147 3.01236 -5.16165 -8.55217 2.75783 -5.17015 -9.56245 2.68901 
-5.16834 -10.5543 2.89258 -5.08308 -11.4679 3.32155 -4.82092 -12.2498 3.90782 
-4.2818 -12.7848 4.57219 -3.50546 -13.0021 5.18281 -2.62805 -13.0107 5.69062 
-1.72037 -12.9328 6.13702 -0.81018 -12.8236 6.5718 0.0857297 -12.6876 7.02799 
0.959823 -12.5101 7.51144 1.82 -12.309 8.01052 2.68111 -12.1537 8.52365 
3.53392 -12.1485 9.07091 4.30054 -12.4046 9.67847 4.83689 -12.9583 10.3311 
5.07206 -13.7158 10.9592 5.06277 -14.5668 11.5088 4.89677 -15.4588 11.9615 
4.6459 -16.3763 12.3134 4.36504 -17.3167 12.5697 4.09274 -18.276 12.7567 
3.84863 -19.2475 12.9176 3.63627 -20.2263 13.0795 3.44053 -21.2099 13.233 
3.22487 -22.1957 13.3359 2.93492 -23.1655 13.3195 2.52229 -24.0559 13.1111 
1.96843 -24.7988 12.6763 
LINES 1 65
64 0 1 2 3 4 5 6 7 8 9 10 11 12 13 14 15 16 17 18 19 20 21 22 23 24 25 26 27 28 29 30 31 32 33 34 35 36 37 38 39 40 41 42 43 44 45 46 47 48 49 50 51 52 53 54 55 56 57 58 59 60 61 62 63 

CELL_DATA 1
FIELD FieldData 2
Length 1 1 double
63.646383338 
Tortuosity 1 1 double
1.2795728784 
POINT_DATA 64
SCALARS MaximumInscribedSphereRadius float
LOOKUP_TABLE default
1.3144 1.25618 1.2595 1.19975 1.02177 1.64138 1.33029 0.9796 1.0135 
1.32681 1.07115 0.903652 1.23822 1.46236 1.25384 1.24 1.43753 1.4532 
1.2975 1.5862 1.37831 1.44936 1.37894 1.25845 1.39064 1.62094 1.77887 
1.36675 1.45597 1.55 1.37459 1.38276 1.46745 1.25864 1.15244 1.37145 
1.64115 1.57187 1.79225 1.66687 1.55 1.48963 1.31751 1.46828 1.60482 
1.71261 1.83703 1.71805 1.60787 1.77231 2.12864 1.63056 1.55 1.45093 
1.35775 1.55814 1.55964 1.83172 2.17 2.16698 1.72167 1.39415 1.41361 
1.86 
TEXTURE_COORDINATES TCoords 2 float
0 0 0.015873 0 0.031746 0 0.047619 0 0.0634921 
0 0.0793651 0 0.0952381 0 0.111111 0 0.126984 0 
0.142857 0 0.15873 0 0.174603 0 0.190476 0 0.206349 
0 0.222222 0 0.238095 0 0.253968 0 0.269841 0 
0.285714 0 0.301587 0 0.31746 0 0.333333 0 0.349206 
0 0.365079 0 0.380952 0 0.396825 0 0.412698 0 
0.428571 0 0.444444 0 0.460317 0 0.47619 0 0.492063 
0 0.507937 0 0.52381 0 0.539683 0 0.555556 0 
0.571429 0 0.587302 0 0.603175 0 0.619048 0 0.634921 
0 0.650794 0 0.666667 0 0.68254 0 0.698413 0 
0.714286 0 0.730159 0 0.746032 0 0.761905 0 0.777778 
0 0.793651 0 0.809524 0 0.825397 0 0.84127 0 
0.857143 0 0.873016 0 0.888889 0 0.904762 0 0.920635 
0 0.936508 0 0.952381 0 0.968254 0 0.984127 0 
1 0 
FIELD FieldData 7
Curvature 1 64 double
0 0.15484928098 0.14967787766 0.19966518968 0.27456590229 0.33312671182 0.2934179283 0.18320664969 0.11249741181 
0.31536890273 0.61423176737 0.41513300872 0.20136038008 0.16806040899 0.18145344381 0.17600309184 0.1620225309 0.16808789429 
0.11204248497 0.047973008978 0.23857428097 2.64712582 0.97227494365 0.2653056602 0.25473882643 0.26801643561 0.23288868415 
0.38552556486 0.66590732459 0.75757781102 0.75489561512 0.54309870957 0.2517940547 0.10035984182 0.19190012477 0.27139397816 
0.25036346664 0.26913054123 0.3848927617 0.40807128057 0.25133046406 0.10757474433 0.032537268619 0.036108251695 0.05272977955 
0.030650883304 0.04658276456 0.15084449436 0.28032940003 0.38458877322 0.36864650634 0.27153038916 0.18535234013 0.1310877523 
0.10016177416 0.070380310612 0.039174397856 0.031673415129 0.01868464469 0.052921022603 0.13840673036 0.24084522342 0.30305670537 
0 
Torsion 1 64 double
0 0 0.54031141521 0.33527685846 0.23809972102 0.15651330799 0.073202463719 -0.2402898607 -1.5009984274 
-0.11707521459 0.081767285793 0.28619102732 0.75337113665 0.46328044419 0.023483408118 -0.36827291745 -0.62847661942 -0.34364357807 
0.023407729047 3.0215559204 0.27081717424 0.011176531579 -0.0075335471685 -0.17105295611 -0.26666417933 -0.4716561837 -1.1220093397 
-0.61752260136 -0.23408243566 -0.11180194354 -0.052839542119 -0.083167465835 -0.3586494972 -1.8865020758 -0.44948550558 -0.24372011262 
-0.36894007952 -0.36412016362 -0.15980501104 -0.092092229655 -0.095742810602 -0.043042860762 0.99877924063 0.34268225273 -0.021089059268 
0.624487621 0.3028782105 -0.12075729466 -0.12376242654 -0.07770646317 -0.02059266196 0.067000270742 0.19040591264 0.31917191629 
0.37066262778 0.44789352284 0.82174921484 0.28113955971 -1.7768564624 -0.44397221948 -0.093583080771 -0.037175091463 0 
0 
Abscissas 1 64 double
0 1.0251423558 2.0295575815 3.0419352809 4.0548166162 5.0665898532 6.0779382001 7.0908754806 8.1050133883 
9.1188277435 10.126784766 11.131658267 12.144332062 13.158095951 14.171806187 15.1853967 16.199173982 17.212879054 
18.226797772 19.241228719 20.255349385 21.266529788 22.154613135 23.161462433 24.174480225 25.187016225 26.199643212 
27.212144168 28.218734899 29.219784257 30.220427882 31.222743084 32.233386959 33.247352118 34.261500451 35.274152664 
36.286662253 37.299589095 38.311378875 39.320507628 40.331818532 41.345624759 42.360129747 43.374720958 44.389252636 
45.403780122 46.418380958 47.432745864 48.446057374 49.457213602 50.467309932 51.478936658 52.49210736 53.50603431 
54.520257902 55.534630459 56.549151688 57.563723458 58.57830557 59.59289139 60.607179016 61.619569138 62.622842075 
63.646367583 
ParallelTransportNormals 3 64 double
0.5433418671 0 0.83951153384 0.43523901304 0.092705030684 0.89552932884 0.35112647917 0.14952270448 0.92431226135 
0.28509522208 0.1791409256 0.94160992089 0.26106382356 0.1835209055 0.94771607419 0.30337176881 0.18877700422 0.93398544558 
0.37027195947 0.22025182086 0.90243438068 0.40291374447 0.2473855265 0.88117019684 0.36615472394 0.20601410499 0.90746289548 
0.18625316759 -0.023857111577 0.98221209308 -0.12802866122 -0.4620042887 0.87758800079 -0.26384192441 -0.70609379187 0.65712936017 
-0.27984090951 -0.767154029 0.57720339669 -0.28011963413 -0.75834173969 0.58860071051 -0.29005067591 -0.7199871582 0.63046736429 
-0.29832238799 -0.70189077789 0.64680220217 -0.26070890684 -0.75591143814 0.60052374106 -0.1709796412 -0.84270239057 0.51050822053 
-0.10004000418 -0.89156322075 0.44170920409 -0.086310892633 -0.89921975189 0.4288989014 -0.19430445539 -0.84136468465 0.50433247569 
-0.90725779296 -0.3526646002 0.22915273702 -0.92063522893 -0.26464275096 -0.28704527452 -0.85364778021 -0.28478179892 -0.43610181649 
-0.78576567904 -0.31894387453 -0.52995009439 -0.76033829213 -0.33784946015 -0.55474626975 -0.84060966894 -0.24438881412 -0.48337303609 
-0.96235908019 0.028606491149 -0.27027147358 -0.94699254494 0.29455294984 0.12823291145 -0.78050450254 0.30517391383 0.54560205629 
-0.5735013855 0.066023040966 0.81653972279 -0.4573595013 -0.19974470287 0.86655890755 -0.43457508577 -0.29844595397 0.84974967337 
-0.43986762993 -0.24407092552 0.8642602915 -0.44320005166 -0.057213708782 0.89459505126 -0.44240879802 0.17954067538 0.87865784087 
-0.44995891517 0.34479429998 0.82380450676 -0.46644484569 0.42522259382 0.77563841552 -0.48123918886 0.44952038993 0.75255581995 
-0.47337881632 0.44502202757 0.7601762238 -0.44624593071 0.4413119428 0.77852960025 -0.4260977945 0.44209307614 0.7892999313 
-0.42929631828 0.44176394888 0.78774950624 -0.45988881674 0.43760936011 0.77265796066 -0.50224326399 0.43010696001 0.75017311783 
-0.52657114478 0.42479645972 0.73639038376 -0.51853273923 0.42646075004 0.74111741784 -0.48968380202 0.42916169883 0.7589664092 
-0.47015863005 0.42613351364 0.77289138379 -0.48093724117 0.43283506195 0.76246519868 -0.49571818452 0.45794428248 0.73793666102 
-0.49801491265 0.47428533125 0.72597146731 -0.49902503606 0.46423773578 0.731749505 -0.50783113077 0.42601170318 0.74874666702 
-0.52493830155 0.36623683469 0.76831657569 -0.54234673894 0.30645427676 0.78226964086 -0.55226117162 0.26938614354 0.78894784618 
-0.55640498543 0.25168087406 0.79187766089 -0.55978382929 0.2354330362 0.79448936427 -0.56570927721 0.20706808218 0.79818282556 
-0.57806733543 0.15927711166 0.80029304471 -0.60277706228 0.093915839019 0.79236331842 -0.64105729964 0.0290726803 0.76694218676 
-0.64105729964 0.0290726803 0.76694218676 
FrenetTangent 3 64 double
-0.70594465163 0.60595750726 0.36668467139 -0.70594465163 0.60595750726 0.36668467139 -0.79740555523 0.53832038033 0.27268213841 
-0.88743029568 0.39802732406 0.23246874976 -0.95441516702 0.17402628003 0.24250060374 -0.94459851204 -0.11731445993 0.30654684559 
-0.83218542822 -0.39164429018 0.39253300885 -0.68751690019 -0.57157488591 0.44790921151 -0.59994889345 -0.67521245487 0.42912639868 
-0.59701122552 -0.76277076745 0.24851227923 -0.5722722667 -0.79774156711 -0.19003379928 -0.38118361303 -0.68568544612 -0.6201084761 
-0.15703686052 -0.59953287757 -0.78479280906 0.019339632629 -0.61156006 -0.79096161198 0.17228646315 -0.6653990455 -0.72633427901 
0.32132052775 -0.7029510361 -0.63451789517 0.4674455261 -0.67135249541 -0.57513520761 0.58302146308 -0.56391568969 -0.5848803882 
0.64350141464 -0.44320438706 -0.62407996334 0.67702789891 -0.37757309305 -0.63172128626 0.75052792932 -0.40207073546 -0.5244491882 
0.80396651252 -0.54131880173 0.24619464177 0.0028827290375 -0.15435020489 0.98801199594 -0.40712839 0.12254453158 0.90511287243 
-0.56211991924 0.28287671469 0.77717563052 -0.63197880467 0.4698885306 0.61628529048 -0.56377770777 0.65640591573 0.50128432054 
-0.33212772353 0.743673379 0.58020779091 0.031484871469 0.55538090877 0.830999849 0.37038087098 0.023695892977 0.92857768392 
0.49703561562 -0.57444884187 0.65035692115 0.3942531506 -0.90333303176 0.16897895425 0.22176440791 -0.96123232279 -0.16386875541 
0.093621267256 -0.96194420182 -0.2567068579 0.017621922185 -0.98691391541 -0.16028222431 -0.003333892291 -0.99773724893 0.067151077929 
0.043327372792 -0.94818132395 0.31476168078 0.17314546496 -0.84499410873 0.5059699637 0.40365990368 -0.66341282706 0.63003341424 
0.66423906079 -0.37987261675 0.64380374739 0.82309674709 -0.11243423942 0.55665993814 0.8813925599 0.034216896151 0.47114367169 
0.89602048152 0.092221001751 0.43433003987 0.89023952247 0.12086091586 0.43916538074 0.87264134927 0.15456051794 0.46325815895 
0.85478750636 0.18660450091 0.48426963482 0.84859206399 0.17570494989 0.49901831581 0.84771626618 0.079384159564 0.52447620276 
0.8077874543 -0.12515149223 0.57603518354 0.65629490506 -0.40788891196 0.63474690475 0.38796026662 -0.65933931175 0.64401747143 
0.11258475945 -0.80172173239 0.58699824169 -0.086852007711 -0.86361434797 0.49661553211 -0.20599166334 -0.89414434485 0.39758436238 
-0.26246088584 -0.91705533185 0.30020626531 -0.27280865132 -0.93689780122 0.21862742241 -0.25454975971 -0.95173343799 0.17148726727 
-0.22498943023 -0.96128315628 0.15910515307 -0.20112869119 -0.96715299678 0.15544237 -0.20284162908 -0.97101679442 0.12641858433 
-0.25008455423 -0.96727823704 0.042784668777 -0.35109250827 -0.92957758071 -0.11233686872 -0.48231298202 -0.81507436778 -0.32097969151 
-0.48231298202 -0.81507436778 -0.32097969151 
FrenetNormal 3 64 double
-0.58356811717 -0.2042522908 -0.78595753977 -0.58356811717 -0.2042522908 -0.78595753977 -0.60206045113 -0.67913987341 -0.41987170127 
-0.42751207796 -0.89929061234 -0.092248673408 -0.14491184215 -0.98043026005 0.13325563092 0.20400266304 -0.94148291984 0.26831478736 
0.51572437859 -0.80673987295 0.288442616 0.69333548932 -0.70005848988 0.17089180788 0.38411926627 -0.71362225595 -0.58582904085 
-0.081562159162 -0.25045880298 -0.9646854421 0.18916642131 0.097066658375 -0.97713567578 0.60201345972 0.32495022228 -0.72937449048 
0.95757723637 0.10199024554 -0.26952518659 0.93256836559 -0.27419462832 0.23480534343 0.80512979289 -0.32969892743 0.49301585559 
0.8479730701 -0.084683178677 0.52323076327 0.86771006585 0.47284420792 0.15328925814 0.52308308717 0.81137543778 -0.26087158311 
0.30523343049 0.89626741687 -0.32177207829 0.70242896429 0.58764845477 0.4015754521 0.43136308092 -0.30314620582 0.84972246664 
-0.27617883414 0.026765933365 0.96073348874 -0.85208464455 0.51674675729 0.083213865163 -0.71418718812 0.57502561613 -0.39910174282 
-0.47471228566 0.65913011793 -0.58326300541 -0.063793460848 0.76098101314 -0.64563015109 0.64392579545 0.72940769097 -0.23091987852 
0.84827857737 -0.033479324108 0.52849086088 0.64925257284 -0.64348494491 0.4054605065 0.3607395581 -0.92487737623 -0.12028636735 
-0.0057897601725 -0.75167094059 -0.65951290795 -0.33244714337 -0.31160833314 -0.89015680842 -0.61039924641 -0.0057934552312 -0.79207272132 
-0.98651763453 -0.12439259794 0.10634584307 -0.26900391186 -0.1590759651 0.94991143415 0.037732416621 0.066978118053 0.99704071955 
0.33008388877 0.31095095069 0.89126546698 0.65371616991 0.48284922507 0.5826764068 0.73344179294 0.64629729264 0.2106251312 
0.58909586164 0.79619104782 -0.13800681566 0.39037706737 0.82391798115 -0.41081006026 0.26875233833 0.7839056397 -0.55970003456 
0.072593560715 0.93460377649 -0.34820389992 -0.38262966885 0.72151593912 0.57706956783 -0.40234306428 0.76518890252 0.50259924601 
-0.44329446688 0.74774794234 0.49433089157 0.02379875078 -0.95496179234 0.29577287676 -0.048061395565 -0.97317705267 0.22498116904 
-0.2997264314 -0.92865483036 0.21855038862 -0.60566263685 -0.78649548498 0.12082062085 -0.82817713255 -0.55603226535 -0.070361615956 
-0.89521285795 -0.3381936518 -0.29020508756 -0.8298252284 -0.21311106637 -0.5157264427 -0.63202391303 -0.18861660163 -0.75164456424 
-0.29135842966 -0.22127653238 -0.93067016804 0.11916664355 -0.25840465578 -0.95865861751 0.69911880887 -0.30362544024 -0.6473364528 
0.97434193973 -0.22299201737 0.030534319523 0.86415233215 -0.24991031879 -0.4367900862 -0.36684570837 -0.044344893663 -0.92922427683 
-0.52879851424 0.099434709194 -0.84290264559 -0.52216232702 0.29396381613 -0.80058215009 -0.43166629364 0.53997990477 -0.72255512826 
-0.43166629364 0.53997990477 -0.72255512826 
FrenetBinormal 3 64 double
-0.40136068748 -0.76882800489 0.49780829387 -0.40136068748 -0.76882800489 0.49780829387 -0.040836180957 -0.49897915835 0.86565131887 
0.17233947169 -0.18124746579 0.96821922241 0.26094491173 0.092039986034 0.96095597923 0.25713141489 0.31598612174 0.91325582743 
0.20370512609 0.44247658398 0.87333767481 0.21588518062 0.42804235836 0.87759519611 0.70179321352 -0.18663176741 0.68749899553 
0.798075943 -0.5961972361 0.087313486169 0.79794769115 -0.59513566179 0.095357360775 0.70162586004 -0.65133925263 0.28892616791 
0.24163042199 -0.79382511835 0.55808280806 -0.36047499513 -0.74216682681 0.56501874223 -0.56752391247 -0.66973332566 0.47892993357 
-0.42153859945 -0.70617887259 0.56887310455 0.16903822572 -0.57070498678 0.80356822754 0.62166715974 -0.15384730703 0.76802405471 
0.7019533334 0.016570719459 0.71203014612 0.21960595217 -0.71561711341 0.66307267532 -0.50063331865 -0.86396846099 -0.054081222939 
-0.52665273028 -0.84039130154 -0.12798188146 -0.52339607221 -0.84210973339 -0.13002979858 -0.56937082326 -0.80890566729 -0.14658951887 
-0.67725138777 -0.69679857342 -0.23622511687 -0.77235560774 -0.44733954269 -0.45094805548 -0.51721781308 0.19260242506 -0.83390049747 
0.41244954897 0.66770430598 -0.61972278426 0.75992091663 0.52676291806 -0.38084252471 0.85597019903 0.37952647286 -0.35110493412 
0.8677108248 0.32403599361 -0.37693314972 0.85676329876 0.29477055562 -0.42316305301 0.76041653544 0.27567890288 -0.58802026762 
-0.13423120009 0.24328960963 -0.96062071119 -0.96297786229 0.026377279967 -0.2682869282 -0.99928231741 0.0058577988177 0.037423739723 
-0.94295671435 0.065281568483 0.32645206643 -0.73666533593 0.22987296938 0.63598946594 -0.54692030363 0.37707191678 0.74745899623 
-0.46016577003 0.47093164092 0.7526425803 -0.41245301575 0.55544369844 0.72205595881 -0.3884833793 0.61993640969 0.68173272765 
-0.43803820797 0.34352739019 0.83072947495 -0.24711966563 -0.6817678407 0.68856697731 -0.27679800245 -0.6249775914 0.72992182875 
-0.26986725367 -0.63722191972 0.72188634176 0.52851218377 -0.23911450343 -0.81455455671 0.52826814621 -0.21592725482 -0.82116270393 
0.50758594839 -0.34919523198 -0.78766693149 0.44994418312 -0.46373644195 -0.76321605361 0.404486673 -0.50606303151 -0.7617681665 
0.43118280451 -0.49281570358 -0.75578705427 0.55122302117 -0.45689597434 -0.69813984957 0.74706974775 -0.40611533849 -0.52626716014 
0.91990464118 -0.33173214277 -0.20911536669 0.9546594947 -0.23547726841 0.18214199196 0.66815964478 -0.044889364477 0.74266253039 
0.0061270520109 0.16189272261 0.98678934206 0.46128949307 0.046474868188 0.88603165305 0.90789839727 -0.23486148121 -0.34721835332 
0.81106710393 -0.23342140167 -0.53636237953 0.77722619286 -0.22242031437 -0.58859888624 0.76225874761 -0.20994160482 -0.61227944949 
0.76225874761 -0.20994160482 -0.61227944949 
