# vtk DataFile Version 4.2
vtk output
ASCII
DATASET POLYDATA
POINTS 64 float
0 0 0 -0.790241 0.685644 0.0252586 -1.59717 1.22328 0.106058 
-2.51457 1.65851 0.247271 -3.47987 1.88729 0.448037 -4.46347 1.86992 0.692683 
-5.40727 1.6029 0.949076 -6.27808 1.13854 1.18274 -7.07999 0.545912 1.3692 
-7.83839 -0.117131 1.48921 -8.58304 -0.80544 1.519 -9.33327 -1.48171 1.42597 
-10.081 -2.12095 1.17932 -10.7884 -2.72174 0.770351 -11.4076 -3.29924 0.212132 
-11.8927 -3.87682 -0.465799 -12.2032 -4.4765 -1.22228 -12.3106 -5.10846 -2.00793 
-12.2066 -5.76917 -2.77004 -11.909 -6.44845 -3.46161 -11.45 -7.14004 -4.04439 
-10.8602 -7.84603 -4.47012 -10.1695 -8.56861 -4.63252 -9.50839 -9.21611 -4.24216 
-9.20652 -9.51969 -3.32346 -9.17618 -9.5925 -2.31341 -9.25221 -9.60977 -1.30169 
-9.37185 -9.65764 -0.295373 -9.50609 -9.79847 0.700216 -9.64147 -10.0819 1.66457 
-9.77361 -10.5373 2.56092 -9.90378 -11.161 3.34977 -10.0332 -11.9218 4.00784 
-10.1579 -12.7815 4.5314 -10.2635 -13.707 4.93298 -10.3254 -14.6733 5.23548 
-10.3115 -15.6607 5.46792 -10.1862 -16.648 5.66432 -9.91867 -17.6062 5.86146 
-9.49685 -18.4981 6.09632 -8.93629 -19.2871 6.39899 -8.27463 -19.9499 6.78824 
-7.55562 -20.479 7.26955 -6.81554 -20.8787 7.83644 -6.07609 -21.1594 8.47162 
-5.3438 -21.334 9.15161 -4.61369 -21.4151 9.85129 -3.87377 -21.4144 10.5454 
-3.11126 -21.345 11.211 -2.31836 -21.226 11.8326 -1.49539 -21.0839 12.4087 
-0.650119 -20.9516 12.9541 0.204745 -20.8631 13.4933 1.05163 -20.8518 14.0516 
1.86572 -20.9509 14.6485 2.61249 -21.1943 15.2901 3.24648 -21.6125 15.9618 
3.71887 -22.2184 16.6229 3.99889 -22.9911 17.2162 4.09444 -23.8797 17.6953 
4.04465 -24.8293 18.0428 3.88635 -25.8195 18.2566 3.67151 -26.7643 18.3468 
3.38762 -27.7704 18.2987 
LINES 1 65
64 0 1 2 3 4 5 6 7 8 9 10 11 12 13 14 15 16 17 18 19 20 21 22 23 24 25 26 27 28 29 30 31 32 33 34 35 36 37 38 39 40 41 42 43 44 45 46 47 48 49 50 51 52 53 54 55 56 57 58 59 60 61 62 63 

CELL_DATA 1
FIELD FieldData 2
Length 1 1 double
63.884019328 
Tortuosity 1 1 double
0.91102271539 
POINT_DATA 64
SCALARS MaximumInscribedSphereRadius float
LOOKUP_TABLE default
1.116 1.03845 0.963164 0.948467 0.975409 0.955232 0.991698 1.22338 1.33913 
1.27975 1.16719 1.04575 1.10133 1.25215 1.11243 1.02223 1.15313 1.23216 
1.24 1.25956 1.30237 1.40072 1.50979 1.3336 1.64651 1.76494 1.6096 
1.71485 1.8718 2.04344 2.02595 1.72434 1.71744 2.02168 2.06554 1.90297 
1.86 1.82129 1.56923 1.29676 1.24 1.27894 1.44791 1.47393 1.31802 
1.52911 2.01127 1.99964 1.65243 1.70112 1.86572 1.87185 1.90401 2.04049 
2.07405 1.64662 1.43095 1.52447 1.54996 1.56358 1.71336 1.75948 1.53568 
1.24 
TEXTURE_COORDINATES TCoords 2 float
0 0 0.015873 0 0.031746 0 0.047619 0 0.0634921 
0 0.0793651 0 0.0952381 0 0.111111 0 0.126984 0 
0.142857 0 0.15873 0 0.174603 0 0.190476 0 0.206349 
0 0.222222 0 0.238095 0 0.253968 0 0.269841 0 
0.285714 0 0.301587 0 0.31746 0 0.333333 0 0.349206 
0 0.365079 0 0.380952 0 0.396825 0 0.412698 0 
0.428571 0 0.444444 0 0.460317 0 0.47619 0 0.492063 
0 0.507937 0 0.52381 0 0.539683 0 0.555556 0 
0.571429 0 0.587302 0 0.603175 0 0.619048 0 0.634921 
0 0.650794 0 0.666667 0 0.68254 0 0.698413 0 
0.714286 0 0.730159 0 0.746032 0 0.761905 0 0.777778 
0 0.793651 0 0.809524 0 0.825397 0 0.84127 0 
0.857143 0 0.873016 0 0.888889 0 0.904762 0 0.920635 
0 0.936508 0 0.952381 0 0.968254 0 0.984127 0 
1 0 
FIELD FieldData 7
Curvature 1 64 double
0 0.13898844615 0.15492972402 0.2142744872 0.24813274855 0.25014937282 0.20809807177 0.14963123593 0.10342595506 
0.092210600862 0.12049989121 0.15456824493 0.16804973616 0.17133526388 0.17616047544 0.18911180838 0.20414816667 0.21112721605 
0.20332513623 0.19140838314 0.20135210505 0.28063306206 0.59477302189 0.81853725133 0.37045227223 0.11713534861 0.052051889971 
0.092224545253 0.14263182557 0.1813448976 0.19612472966 0.18585818863 0.16347350858 0.13663105205 0.11282391385 0.10264848248 
0.11415194482 0.14184069702 0.16854545327 0.18195553129 0.17981236122 0.16858939263 0.1531065381 0.13395708585 0.11250246451 
0.093072596893 0.080362588647 0.07563664224 0.070955287104 0.057591139339 0.038084861738 0.043995696781 0.077779475714 0.11846970752 
0.16184881151 0.20662751808 0.24489474866 0.26086728444 0.24287645773 0.20207873695 0.17126030376 0.13430637204 0.14724037846 
0 
Torsion 1 64 double
0 0 -0.061917550226 -0.054860218511 -0.062571364045 -0.075725148905 -0.11867388217 -0.22925429447 -0.47950138494 
-0.55311369836 -0.18672102597 0.056957394258 0.1911032791 0.26115137877 0.27614264308 0.22768189757 0.16269462447 0.12534071565 
0.12893013854 0.177376424 0.24222503189 0.23552968054 0.08527092062 0.044187818823 0.097425848347 0.53788684258 1.6029578875 
0.29932488749 0.044566205299 -0.01596275494 -0.0293377381 -0.015211339605 0.038525901347 0.14967820911 0.31922147241 0.4598194269 
0.40814936628 0.28258808989 0.21116876866 0.18374981526 0.17141600272 0.14534511588 0.090068100441 0.0072881730777 -0.09628531623 
-0.22287902051 -0.32788833503 -0.33162415258 -0.30436829861 -0.40149771029 -0.95472761021 -0.78544771317 -0.25799562163 -0.087432405416 
-0.0098014734379 0.033054145788 0.056769702696 0.07087575415 0.084575241584 0.10919865731 0.11245231967 0.14552587152 0 
0 
Abscissas 1 64 double
0 1.0465303906 2.0195183123 3.0447025002 4.0568524886 5.070564843 6.0843743173 7.098542871 8.1129522217 
9.1274519518 10.141925556 11.156240651 12.170437508 13.184630195 14.19880952 15.212954292 16.227000544 17.240976706 
18.25494777 19.268996107 20.283194153 21.296849 22.309601319 23.313922415 24.32747816 25.340600317 26.355327714 
27.369857076 28.384277965 29.398493892 30.412544924 31.426597728 32.440761767 33.455037974 34.469430103 35.483884047 
36.498333835 37.512719501 38.526966508 39.541109988 40.555224762 41.569390339 42.583620094 43.597921442 44.612319151 
45.626780213 46.641280733 47.655800984 48.670324102 49.684865054 50.699437623 51.714029044 52.728590018 53.743056657 
54.757378134 55.771524686 56.785390298 57.799032263 58.812690448 59.826680576 60.839081734 61.864429025 62.837573344 
63.884018374 
ParallelTransportNormals 3 64 double
0.031946816076 0 0.9994895702 0.076930722688 -0.034288525827 0.99644666737 0.12363522499 -0.060755861405 0.99046608041 
0.18425338843 -0.082089237229 0.97944476413 0.24189621152 -0.088347923811 0.96627163221 0.28288516776 -0.082300357523 0.95561636289 
0.29642259649 -0.076844355271 0.95196039274 0.28443725863 -0.084417767703 0.95497072542 0.25011852285 -0.11203574021 0.9617113483 
0.19121686708 -0.16499243933 0.96758131685 0.10234394878 -0.24611885156 0.96382115927 -0.01261148624 -0.34707082807 0.93775412061 
-0.13093310889 -0.44790204347 0.8844434863 -0.23096940861 -0.53675491512 0.81150926882 -0.300278528 -0.60925121827 0.73392489988 
-0.33799031675 -0.66505612052 0.6659301032 -0.35166807067 -0.70537136355 0.61545171017 -0.35173495063 -0.73051476069 0.58534665705 
-0.3491158357 -0.73925446078 0.57586541438 -0.3548407813 -0.72888163474 0.58550796961 -0.38372735967 -0.69038804948 0.6132843179 
-0.46912624211 -0.59512085551 0.65249654122 -0.70755351219 -0.35351253629 0.61187981996 -0.95448001204 -0.10964241112 0.27739222826 
-0.99783863638 -0.06051553431 0.025611049504 -0.99555149007 -0.055995823142 -0.075773995562 -0.99122103893 -0.054554077633 -0.120435479 
-0.98864537965 -0.052639639311 -0.14074580518 -0.98692786025 -0.049937159032 -0.15323080241 -0.98485407561 -0.044209947066 -0.16765419869 
-0.98182588856 -0.031751407754 -0.18710898605 -0.97824760143 -0.012667679883 -0.20705352011 -0.97520769993 0.0067176632532 -0.2211895454 
-0.97431502982 0.013638209574 -0.22477593711 -0.97601759675 -0.0055899815871 -0.2176198588 -0.97738906396 -0.061384306931 -0.2023427402 
-0.970488149 -0.15924612091 -0.18108955138 -0.94310501513 -0.29485959455 -0.15365789907 -0.8854059764 -0.44972284561 -0.11749731525 
-0.80013899471 -0.59561648585 -0.070842013864 -0.70293523039 -0.71107805096 -0.015813516949 -0.61049876116 -0.79087766216 0.042471003268 
-0.53084661084 -0.84158381532 0.099692314419 -0.46366845288 -0.87247441522 0.15427235846 -0.40464843745 -0.89073281501 0.20701375398 
-0.34888256802 -0.90048656035 0.25962455269 -0.29265740702 -0.90356207431 0.31293325165 -0.23597795904 -0.90091743756 0.36422818885 
-0.18455352566 -0.8946871138 0.40678614107 -0.14950402937 -0.8890231466 0.43276597603 -0.14302096209 -0.88795691116 0.43712415665 
-0.17182006314 -0.89169717779 0.41875292122 -0.23659976118 -0.89549572817 0.37697208629 -0.33476405215 -0.89030381066 0.30869427289 
-0.46058835189 -0.86269112946 0.20885972627 -0.60245432913 -0.7947219593 0.073930972652 -0.73681435751 -0.67035245301 -0.087932879533 
-0.83346719935 -0.49324869994 -0.24907458243 -0.87783380493 -0.2970164833 -0.37575127356 -0.88222143246 -0.12031778868 -0.45520212416 
-0.8660727461 0.030708665155 -0.49897392351 -0.84437175333 0.14273524481 -0.51639422157 -0.81578224124 0.25500599574 -0.51910622903 
-0.81578224124 0.25500599574 -0.51910622903 
FrenetTangent 3 64 double
-0.79279747993 0.60720728967 0.052644688153 -0.79279747993 0.60720728967 0.052644688153 -0.86551748952 0.48832475672 0.11143790786 
-0.929525175 0.32783450784 0.16884159588 -0.96945835483 0.10516354696 0.2215651747 -0.95811270475 -0.1413705841 0.24906706514 
-0.89970291442 -0.36262596545 0.24297546166 -0.82693294077 -0.52253707686 0.207694282 -0.77009387699 -0.61973879752 0.15125886247 
-0.74160283129 -0.66675511642 0.073911131399 -0.73820192747 -0.67385655055 -0.031229210045 -0.74070867302 -0.65049106047 -0.16796440683 
-0.7199631655 -0.61353706635 -0.32438450723 -0.65646827485 -0.58307707257 -0.47861313351 -0.54659257435 -0.57172680364 -0.61185375676 
-0.39405174121 -0.58308365839 -0.71044821948 -0.207151862 -0.61052031243 -0.76442988834 -0.0016859535879 -0.64102296356 -0.76751984844 
0.19906465229 -0.6642050501 -0.72055875238 0.37477066693 -0.67903997973 -0.6312302695 0.51985162233 -0.69272881592 -0.49988106421 
0.63814819593 -0.71194059082 -0.29309977 0.69746963521 -0.70689634345 0.11761661267 0.5114195665 -0.50509923551 0.69521564229 
0.16668742829 -0.18885432781 0.96775479545 -0.022570652981 -0.044499647205 0.99875439775 -0.096458258415 -0.032112008486 0.9948188897 
-0.12526521635 -0.09310487203 0.9877449612 -0.13325224262 -0.20967843699 0.96864791999 -0.13244767973 -0.36579101454 0.92122448177 
-0.12997174317 -0.53468252134 0.83499817207 -0.12855087422 -0.68561395041 0.71652507544 -0.12570267234 -0.80159465362 0.58450393451 
-0.11379448596 -0.88209281067 0.45712480607 -0.082695459798 -0.93398687531 0.3476060668 -0.023689585428 -0.96422792664 0.26401384248 
0.068723255368 -0.97491142847 0.2117187304 0.19414323674 -0.96149900832 0.19449437172 0.34108292885 -0.91540909622 0.21374897006 
0.48638417891 -0.83222736366 0.26613538975 0.60506723265 -0.71872162003 0.34253886914 0.68313585036 -0.58973544194 0.43074066266 
0.72144373365 -0.45924341362 0.51828025837 0.73096193123 -0.33615202511 0.59388253982 0.72657572366 -0.22477443473 0.64927973269 
0.72156947371 -0.12616569459 0.68074937541 0.72510342937 -0.039658137273 0.68749709008 0.74100182633 0.034573864009 0.67061236293 
0.7670705178 0.092912029674 0.63479931904 0.79669205167 0.12873275901 0.59051642785 0.82227402964 0.13525178143 0.55278601267 
0.83804708028 0.1088390773 0.5346317859 0.83936826661 0.049224323292 0.54132973224 0.82019370397 -0.043355405467 0.570440704 
0.77203433426 -0.16940714148 0.61258812194 0.68450412975 -0.32798460592 0.65106082254 0.5498181426 -0.50892858662 0.66233805853 
0.37432951947 -0.68586425252 0.62407342354 0.18659893546 -0.82540374877 0.53281280841 0.022698251873 -0.91179582142 0.41001605994 
-0.10250388339 -0.95553364394 0.27649305451 -0.18713530622 -0.97043100119 0.15245999176 -0.2476219231 -0.96863121711 0.020903311543 
-0.2476219231 -0.96863121711 0.020903311543 
FrenetNormal 3 64 double
-0.53345613075 -0.73308445744 0.42191436906 -0.53345613075 -0.73308445744 0.42191436906 -0.42421099371 -0.83295801962 0.35528294409 
-0.27339368747 -0.91992218659 0.28106771829 -0.066897420339 -0.9825344456 0.17363985246 0.15759126722 -0.98641690282 0.046332346534 
0.34646244826 -0.93184648507 -0.10782346781 0.45146806889 -0.83717539344 -0.30872956353 0.41049425218 -0.66290551606 -0.62613955769 
0.14505232664 -0.26694768567 -0.95273225811 -0.046110825811 0.096591643845 -0.99425542296 0.015176779205 0.23374636739 -0.97217915073 
0.23511624633 0.22414003412 -0.94577037161 0.50404878054 0.1329913932 -0.85337454624 0.74597522773 -0.00046545614769 -0.66597353023 
0.90572100609 -0.11500119884 -0.40797571423 0.9777499284 -0.15560849404 -0.14068075238 0.98490156188 -0.13392793982 0.109691478 
0.93573858512 -0.089616599367 0.34111899015 0.82722908916 -0.062505045136 0.55837725005 0.63974098679 -0.072091231185 0.76520214598 
0.35940524353 -0.061202606796 0.93117243937 -0.042114589079 0.12341089218 0.99146160444 -0.50210748042 0.48090714034 0.718760322 
-0.73791777941 0.6270884371 0.24947433311 -0.88613109593 0.46343423788 0.00062287848573 -0.8147484218 -0.57156700754 -0.097448268639 
-0.1543059876 -0.98164328515 -0.11209871952 -0.007992262145 -0.97710477736 -0.21260850831 0.01739337496 -0.93012722379 -0.36682532365 
0.0098451888747 -0.84279588834 -0.53814325495 0.0040875669045 -0.72288006288 -0.69096143632 0.028311380002 -0.59183587766 -0.80556114584 
0.13660305464 -0.46963527065 -0.87222836346 0.3776733955 -0.3521541575 -0.85635871904 0.71950297258 -0.19979522906 -0.6651295655 
0.95148853074 0.0002532538596 -0.3076841103 0.97999089367 0.19896910262 0.0053985664173 0.89643783634 0.38518756727 0.21915689265 
0.74793662468 0.55402739393 0.36557414055 0.5507697485 0.68852615819 0.47178852638 0.33317649433 0.77653907159 0.53477144083 
0.13398479976 0.82687996689 0.54618457849 -0.0050905535658 0.86755167903 0.49732099339 -0.062321709283 0.91952028343 0.38807016493 
-0.023062308256 0.97833015026 0.20576259874 0.11844691841 0.99064427489 -0.067780883396 0.29063896743 0.88377240895 -0.366708767 
0.41679591686 0.68004351063 -0.60317658057 0.50686000656 0.38988015667 -0.76882143388 0.56817719395 -0.25015611073 -0.78396211422 
0.2127007971 -0.967544174 -0.13644281684 -0.098165092309 -0.96578869844 0.24003292403 -0.26937443867 -0.90893700288 0.31823094851 
-0.40636602874 -0.87265640712 0.2708088732 -0.53568158126 -0.83204438122 0.14403954726 -0.65109122883 -0.757845769 -0.041833027163 
-0.73020542487 -0.63284130261 -0.25751101571 -0.75025576784 -0.46986077627 -0.46513130806 -0.70765829125 -0.3043519266 -0.63764382503 
-0.6074690822 -0.15997586391 -0.77806750166 -0.49721434507 -0.040280583485 -0.86669220006 -0.34085105824 0.06689898812 -0.93773401425 
-0.34085105824 0.06689898812 -0.93773401425 
FrenetBinormal 3 64 double
0.29478248316 0.30640901689 0.90510596175 0.29478248316 0.30640901689 0.90510596175 0.26631655628 0.26023041621 0.92809246432 
0.24746482717 0.21509929353 0.94471871646 0.23595599886 0.15351446708 0.9595613972 0.2391339321 0.083642404276 0.96737733627 
0.26551541902 -0.012827214917 0.9640212782 0.33519918592 -0.16153130946 0.92819671505 0.48831331085 -0.42009534589 0.76489869317 
0.65496951315 -0.69582795851 0.29468354044 0.67300201041 -0.73252126496 -0.10237621969 0.67165491667 -0.72265068739 -0.16326560241 
0.65297273376 -0.75718789829 -0.017120036459 0.56123455965 -0.80145768246 0.20659465692 0.38047012665 -0.82044393188 0.42674844742 
0.15618157503 -0.80423141669 0.57342754035 -0.033063326829 -0.77656354839 0.62917078105 -0.17310710838 -0.75574656276 0.6315703143 
-0.29114698097 -0.74215936061 0.60368279661 -0.41861555305 -0.73143545529 0.53829656649 -0.56611461789 -0.71758598229 0.40569027279 
-0.68087792662 -0.6995676065 0.21681884831 -0.71537575396 -0.69646773888 0.056304700926 -0.69737945562 -0.71666106679 -0.007668783265 
-0.65398214966 -0.75570770469 -0.034831207323 -0.46288470103 -0.88501327027 -0.049892534509 0.57173491546 -0.81992681064 0.02896914988 
0.98005014554 -0.16645703209 0.10859911926 0.99104992991 -0.036072248636 0.12852559783 0.99103737702 -0.032561960151 0.12955553292 
0.99146881859 -0.061722702206 0.11480370115 0.99169449153 -0.085894852507 0.095729356933 0.99166390674 -0.084713075761 0.097089602253 
0.98406830069 -0.0368101334 0.17393847663 0.92223872574 0.060464585524 0.38186354453 0.69408520802 0.17420210081 0.69849792561 
0.2999111369 0.2225929974 0.92763444711 -0.043889086861 0.18955461799 0.98088877802 -0.28295165882 0.11686198942 0.95198825318 
-0.45168709963 0.021242926939 0.89192348443 -0.57493158559 -0.096803731243 0.81245474305 -0.64986062627 -0.22180887903 0.72696766614 
-0.67938723318 -0.32459976493 0.65807900741 -0.68239925363 -0.36654590465 0.63243605086 -0.68425413579 -0.32242658366 0.65409278837 
-0.69195781992 -0.16417166202 0.7030234995 -0.67837699271 0.13058006273 0.72301694516 -0.60534724249 0.46663795078 0.64482845695 
-0.48773351782 0.72726073619 0.48291597323 -0.32920314177 0.91182308602 0.24536493485 0.03225052647 0.95871209228 -0.28254385086 
0.50242955939 0.22806211129 -0.83399772856 0.53462559578 -0.25461570251 -0.80582027548 0.50469763201 -0.41467316481 -0.75718324508 
0.48870199244 -0.4580087505 -0.74256201563 0.49446874508 -0.44735695586 -0.74523312741 0.52324011869 -0.40824194314 -0.74803629194 
0.57155703858 -0.35930782462 -0.73771297862 0.63426896511 -0.31295287576 -0.70693944398 0.70619015299 -0.27567786421 -0.65214812964 
0.78770189035 -0.24771592252 -0.5640589984 0.84720615686 -0.23799400521 -0.47497429537 0.90692002916 -0.23932841582 -0.34672463149 
0.90692002916 -0.23932841582 -0.34672463149 
