# vtk DataFile Version 4.2
vtk output
ASCII
DATASET POLYDATA
POINTS 64 float
0 0 0 -1.02645 -0.184334 0.109739 -1.94924 -0.437179 0.287401 
-2.87812 -0.802177 0.50761 -3.74097 -1.2866 0.728942 -4.53842 -1.88084 0.927792 
-5.27932 -2.55223 1.09987 -5.98479 -3.26675 1.24526 -6.67624 -4.00235 1.34571 
-7.36189 -4.74982 1.35004 -8.01521 -5.50505 1.17584 -8.55053 -6.25432 0.753901 
-8.87261 -6.97878 0.122999 -8.95835 -7.6765 -0.60742 -8.83634 -8.35373 -1.35221 
-8.54154 -9.01421 -2.06281 -8.09754 -9.66106 -2.7063 -7.50665 -10.2993 -3.22879 
-6.72755 -10.9216 -3.36481 -6.24676 -11.1439 -2.57084 -6.24084 -11.0357 -1.55441 
-6.35216 -10.9005 -0.554031 -6.495 -10.8191 0.446564 -6.61927 -10.8692 1.45176 
-6.67095 -11.1533 2.42265 -6.60936 -11.7279 3.25368 -6.45815 -12.5096 3.8812 
-6.27223 -13.3885 4.35218 -6.08608 -14.3112 4.73053 -5.91485 -15.2559 5.05869 
-5.7585 -16.2113 5.3623 -5.60149 -17.1692 5.6574 -5.41061 -18.1201 5.9551 
-5.13564 -19.0465 6.26364 -4.72102 -19.9131 6.58835 -4.13244 -20.6643 6.9301 
-3.38385 -21.2476 7.28643 -2.52739 -21.6453 7.65568 -1.61664 -21.8748 8.03837 
-0.68763 -21.9674 8.43499 0.240034 -21.9527 8.84529 1.15677 -21.8557 9.26887 
2.05819 -21.697 9.70658 2.94234 -21.4976 10.1625 3.8086 -21.2803 10.6439 
4.65708 -21.0738 11.1604 5.48717 -20.9133 11.7211 6.29404 -20.8436 12.3318 
7.06118 -20.9199 12.9906 7.75279 -21.1968 13.6779 8.3205 -21.6972 14.3518 
8.73358 -22.3898 14.966 8.99686 -23.2146 15.4937 9.13774 -24.1188 15.931 
9.18871 -25.0677 16.2861 9.17802 -26.0414 16.5706 9.1283 -27.0293 16.796 
9.05818 -28.0259 16.9729 8.98366 -29.0283 17.1111 8.91738 -30.0346 17.2205 
8.86573 -31.0435 17.3109 8.82953 -32.0621 17.3934 8.80705 -33.0315 17.4723 
8.79371 -34.0758 17.5689 
LINES 1 65
64 0 1 2 3 4 5 6 7 8 9 10 11 12 13 14 15 16 17 18 19 20 21 22 23 24 25 26 27 28 29 30 31 32 33 34 35 36 37 38 39 40 41 42 43 44 45 46 47 48 49 50 51 52 53 54 55 56 57 58 59 60 61 62 63 

CELL_DATA 1
FIELD FieldData 2
Length 1 1 double
63.836377185 
Tortuosity 1 1 double
0.62293529188 
POINT_DATA 64
SCALARS MaximumInscribedSphereRadius float
LOOKUP_TABLE default
0.93 0.93 0.93 0.93 0.955286 1.0385 1.2182 1.12643 1.06771 
1.48001 1.6147 1.38972 0.80461 0.912063 1.21724 1.24 1.18106 1.03022 
1.33831 1.70918 1.48751 1.30287 1.45948 1.54924 1.55 1.55 1.63786 
1.78936 1.73752 1.58126 1.69872 1.83475 1.86 1.86 1.84375 1.71408 
1.56079 1.54447 1.45216 1.27146 1.31058 1.39755 1.48923 1.54982 1.55 
1.55 1.55 1.55 1.62521 1.86091 1.79712 1.5587 1.38068 1.33267 
1.4887 1.65464 1.83064 1.86 1.8147 1.65595 1.62907 1.7832 1.72615 
1.55 
TEXTURE_COORDINATES TCoords 2 float
0 0 0.015873 0 0.031746 0 0.047619 0 0.0634921 
0 0.0793651 0 0.0952381 0 0.111111 0 0.126984 0 
0.142857 0 0.15873 0 0.174603 0 0.190476 0 0.206349 
0 0.222222 0 0.238095 0 0.253968 0 0.269841 0 
0.285714 0 0.301587 0 0.31746 0 0.333333 0 0.349206 
0 0.365079 0 0.380952 0 0.396825 0 0.412698 0 
0.428571 0 0.444444 0 0.460317 0 0.47619 0 0.492063 
0 0.507937 0 0.52381 0 0.539683 0 0.555556 0 
0.571429 0 0.587302 0 0.603175 0 0.619048 0 0.634921 
0 0.650794 0 0.666667 0 0.68254 0 0.698413 0 
0.714286 0 0.730159 0 0.746032 0 0.761905 0 0.777778 
0 0.793651 0 0.809524 0 0.825397 0 0.84127 0 
0.857143 0 0.873016 0 0.888889 0 0.904762 0 0.920635 
0 0.936508 0 0.952381 0 0.968254 0 0.984127 0 
1 0 
FIELD FieldData 7
Curvature 1 64 double
0 0.11774687557 0.1106144009 0.13204719412 0.12671558845 0.096768791711 0.060161170021 0.050142637286 0.094498606397 
0.17804596867 0.27230702312 0.29843179812 0.2551411978 0.20575203001 0.17340738179 0.16061017602 0.18667862607 0.4411698628 
1.5428065982 0.69904812742 0.11715774687 0.060585361882 0.12978425529 0.24448201077 0.34307056438 0.30294527399 0.18391816564 
0.099828942223 0.055219701257 0.029767270663 0.0086405335866 0.033706357161 0.08591795771 0.14935998714 0.20595553361 0.22917186357 
0.21161943791 0.17370089713 0.13556650001 0.10542445876 0.081834723121 0.063335234515 0.046479713719 0.034898604414 0.039654792067 
0.064573338178 0.10351287052 0.15530896037 0.2127910194 0.2531787682 0.25101468658 0.2142906933 0.16810271472 0.12663964224 
0.09443310952 0.070274991283 0.051844937184 0.03826908225 0.029353821081 0.023448797636 0.017408554266 0.012334484847 0.014988550453 
0 
Torsion 1 64 double
0 0 -0.36169181667 -0.18739912459 -0.11689253077 -0.099268595074 -0.36301071366 -0.67566639709 -0.063442705633 
0.12395426051 0.16787390252 0.20672043778 0.2377640467 0.21443167357 0.1758705467 0.19646283353 0.38702749988 0.24514709606 
0.06953099384 0.10728043793 1.0631612143 1.5564832983 0.2674302056 0.054805776839 0.001101943547 -0.035223849934 -0.10602220673 
-0.21381591336 -0.28932349973 -0.13431457147 2.8674744527 0.21318396676 0.031203457105 0.029595605343 0.044416772523 0.06251327719 
0.08048410652 0.090401499004 0.087976670166 0.080689972115 0.087408145522 0.14355727286 0.32650196989 0.71938316001 0.69495843368 
0.33721913084 0.16909882431 0.088476538663 0.046605666759 0.027010885126 0.023668205059 0.031795529352 0.047906594171 0.071097574333 
0.099361824477 0.14128162217 0.21637274065 0.3255737691 0.38603548795 0.37330501136 0.44383363403 0.78978521002 0 
0 
Abscissas 1 64 double
0 1.0486296598 2.0217820086 3.0438072549 4.0577910552 5.0719944438 6.0865382583 7.1011096352 8.1156571975 
9.1299765126 10.143652645 11.156574234 12.169794585 13.18353722 14.197559749 15.211506898 16.226220717 17.240878595 
18.247226769 19.201676485 20.223877474 21.239455803 22.253474056 23.267563108 24.28048544 25.292662693 26.306432636 
27.320749565 28.335259105 29.34983857 30.364438873 31.379043616 32.393599972 33.407957996 34.421999791 35.435690285 
36.449380055 37.463319911 38.477506703 39.491873157 40.50633066 41.520840863 42.535394181 43.549973363 44.564559913 
45.579123914 46.593608109 47.607942411 48.621975081 49.635565142 50.648953201 51.662564023 52.676541523 53.6907887 
54.70518302 55.719672068 56.734216164 57.748780809 58.76341758 59.777818043 60.792098711 61.814713121 62.78750458 
63.836373728 
ParallelTransportNormals 3 64 double
0.10630542074 0 0.99433352429 0.18436280862 0.017644347303 0.98269986863 0.21963724279 0.029362925355 0.97513963113 
0.23017726471 0.034363199368 0.97254182293 0.22159645082 0.028788506629 0.97471341166 0.20977350665 0.019061659508 0.97756418155 
0.19607256771 0.0059334274043 0.98057143678 0.16793833163 -0.023272110158 0.9855227677 0.10523487496 -0.090801030094 0.99029328687 
-0.0081509321835 -0.21805328714 0.97590282625 -0.15208494986 -0.40024057693 0.90370219022 -0.25080970316 -0.56992646557 0.78248215101 
-0.28155580273 -0.67713230503 0.67986628938 -0.28009276295 -0.7326467638 0.62030376722 -0.27203470019 -0.75850859786 0.59216706162 
-0.26798833126 -0.76566928977 0.5847501971 -0.28057719585 -0.75003664697 0.59893360681 -0.39823657338 -0.64184306518 0.65532061718 
-0.84235142237 -0.34599596995 0.41319592205 -0.9465848403 -0.32001326814 0.039606165332 -0.94136524027 -0.33202767107 -0.059909181727 
-0.93549628749 -0.33702758249 -0.10610892859 -0.93204064259 -0.33743274388 -0.13205825959 -0.93066521623 -0.33481796373 -0.14750995378 
-0.93072751552 -0.32944232582 -0.15878931263 -0.9325453415 -0.31785371127 -0.17125479343 -0.9367298424 -0.29724193048 -0.1848903381 
-0.94215813872 -0.27095754383 -0.1972816542 -0.94735189026 -0.24381889749 -0.20754937064 -0.95082270101 -0.22368744786 -0.21424312571 
-0.95109360149 -0.22203331896 -0.21476071913 -0.94528814909 -0.2538884628 -0.20486816163 -0.92534271499 -0.33426212199 -0.17891253061 
-0.87405580653 -0.46760077662 -0.13181790766 -0.77133126437 -0.63325047951 -0.063576023771 -0.61922295015 -0.7850555673 0.015833327794 
-0.45163659918 -0.88748810711 0.091592805484 -0.30221070868 -0.94052646294 0.15517300045 -0.18350894242 -0.96130803282 0.20545397073 
-0.093010267979 -0.96510584897 0.24478519223 -0.025488972239 -0.96101678148 0.27531265502 0.023087027442 -0.95418544261 0.29832386808 
0.052518451333 -0.94828233368 0.31305339464 0.060830088812 -0.94630369719 0.31750435113 0.043996072592 -0.95046339585 0.30770713145 
-0.0020700775988 -0.96053677278 0.27814532699 -0.082837183791 -0.97189714765 0.22034957537 -0.20279329485 -0.97138920371 0.12360378018 
-0.35620036181 -0.93423715381 -0.017951119224 -0.51392752257 -0.83687819331 -0.18844996975 -0.63592190011 -0.68850143414 -0.34866762416 
-0.70796184547 -0.52689504628 -0.47028888523 -0.74181006543 -0.38209352599 -0.55111011986 -0.7538925507 -0.26539523335 -0.60100864563 
-0.75576579342 -0.17598545392 -0.63075128657 -0.75373129987 -0.10991902616 -0.64792510006 -0.75094754077 -0.063818852385 -0.65727083085 
-0.74890463968 -0.035585445967 -0.66172163083 -0.74800953493 -0.022815429393 -0.66329570468 -0.74791237628 -0.021155235137 -0.66346027268 
-0.74817166982 -0.027135207563 -0.66295009842 -0.7484479299 -0.036544770898 -0.66218590739 -0.74871796179 -0.051559516982 -0.66088049593 
-0.74871796179 -0.051559516982 -0.66088049593 
FrenetTangent 3 64 double
-0.96581550773 -0.21661481589 0.14240234048 -0.96581550773 -0.21661481589 0.14240234048 -0.92947718313 -0.31013680392 0.19971812361 
-0.88199756021 -0.41813625672 0.2173531104 -0.82029768343 -0.53293053572 0.20759757866 -0.75918830929 -0.62459875692 0.18305601299 
-0.71313638748 -0.68332667347 0.15652843247 -0.68865867617 -0.71488528649 0.12119511083 -0.67953128419 -0.73182235144 0.051703769068 
-0.66290483992 -0.74396527465 -0.084100198081 -0.59197420911 -0.74928043834 -0.29689284343 -0.42787241801 -0.73544237891 -0.52540432166 
-0.20284501971 -0.70737640962 -0.67710598365 0.017982759269 -0.68170128705 -0.73140958129 0.20631737844 -0.66215488307 -0.72040547623 
0.36538024333 -0.64655193557 -0.66967743907 0.51222366609 -0.63606144472 -0.57710722958 0.69376859206 -0.63834272417 -0.33347219851 
0.76202206472 -0.5108410931 0.39794943207 0.25914311771 -0.060750953291 0.96392643195 -0.051814643258 0.11965516374 0.9914624978 
-0.12528542594 0.10677039626 0.98635878083 -0.13198820886 0.015466679769 0.99113061427 -0.087456585301 -0.16611522688 0.98222048293 
0.0049645182331 -0.43019072191 0.90272437452 0.10623812387 -0.67711788596 0.72816538613 0.16694612941 -0.82232609293 0.54397498725 
0.18362770287 -0.8891442454 0.41916986726 0.17619550077 -0.92066592362 0.34832370374 0.16144936527 -0.93647329685 0.31137094716 
0.15443084731 -0.94291682908 0.29505756531 0.1714772026 -0.94086004099 0.29219505858 0.2298205772 -0.92613911348 0.29907999728 
0.34092253964 -0.88643089956 0.31306881395 0.49739849252 -0.8021252657 0.3304387958 0.66393444314 -0.66260929652 0.34661213967 
0.79608181359 -0.48656142494 0.35987737611 0.87470382058 -0.31044045347 0.37218268514 0.9090596848 -0.15915545389 0.38507146216 
0.91645132202 -0.038451283089 0.39829445538 0.9098147392 0.055099956489 0.41134065583 0.89651467862 0.12608270938 0.42469351468 
0.88021400821 0.17652836819 0.44052359185 0.86276906563 0.20538971756 0.46200065294 0.84522834179 0.20889984227 0.49188403728 
0.82771112978 0.18096976331 0.53117250532 0.80796330991 0.11362098046 0.57817433586 0.7783757948 -0.0032644764922 0.62779014428 
0.72354786821 -0.17518958517 0.6676728927 0.62630670402 -0.38658007999 0.67697544583 0.4876959227 -0.59321658397 0.64050509091 
0.33551045359 -0.75271126457 0.56644371982 0.19999095024 -0.85556201468 0.47751152747 0.094763498665 -0.9153276854 0.39140146609 
0.019875348912 -0.94868321228 0.31560280932 -0.029792771374 -0.9674069607 0.25146801618 -0.059080624417 -0.97835249749 0.19833272666 
-0.071291847271 -0.98528993742 0.1553100503 -0.069400610915 -0.99009545143 0.12204323932 -0.058135914893 -0.99343784206 0.098496037341 
-0.043132627075 -0.9954563448 0.084889587524 -0.029407832938 -0.99628945258 0.080885759152 -0.017718179041 -0.99606734314 0.0868096427 
-0.017718179041 -0.99606734314 0.0868096427 
FrenetNormal 3 64 double
0.25590331192 -0.70895651564 0.6571865442 0.25590331192 -0.70895651564 0.6571865442 0.3592091233 -0.88413301956 0.29879359006 
0.43252286703 -0.90137604108 0.021099811866 0.50526579734 -0.84532817542 -0.17357059048 0.57202205233 -0.77446483138 -0.27017586236 
0.57298732578 -0.69681217686 -0.43143749799 0.27138191657 -0.40911955668 -0.87119058977 0.058212720044 -0.12403760173 -0.99056849969 
0.17567648445 -0.04536836646 -0.98340199519 0.4282664826 0.019621480043 -0.9034394376 0.71221501047 0.083560561693 -0.69697016536 
0.91707518566 0.10516085521 -0.38459627973 0.99279878643 0.098828096492 -0.067702119664 0.97665915933 0.094399663689 0.19293934278 
0.90715840983 0.086018297709 0.41190347405 0.77123774185 0.044977431309 0.63495620023 0.45129746212 0.024479346091 0.89203775834 
-0.23860482488 0.34979947484 0.90592939291 -0.80122414727 0.54378565268 0.2496738468 -0.97019457604 0.22930239129 -0.078376641776 
-0.50884648425 -0.86038533461 0.028501428831 0.13982075761 -0.98959077534 0.034062488331 0.29300910621 -0.94667102033 -0.13401359238 
0.33146972121 -0.85099089221 -0.40736019112 0.29438477905 -0.67806122183 -0.67347648905 0.18460620946 -0.51589075138 -0.83652691533 
0.0019636813957 -0.42608813256 -0.90467952737 -0.26315290886 -0.3850361638 -0.88458900012 -0.4855409454 -0.35005753606 -0.80106785717 
0.075072383461 -0.28657803964 -0.9551110744 0.97663838802 0.20132934665 0.075126248623 0.95313186874 0.27631731957 0.12324114451 
0.91485364824 0.38947881598 0.10653193983 0.83152202237 0.5494065628 0.081997286883 0.68842612101 0.72259273395 0.062683464696 
0.50077993137 0.86351236328 0.05971481227 0.30493248728 0.94939670676 0.07524673674 0.13039754845 0.98641958395 0.099864326765 
-0.013200724939 0.9919253296 0.12613437821 -0.13056823357 0.9788202811 0.15767940163 -0.23585951657 0.94732955082 0.21664951094 
-0.36127623897 0.85116422385 0.38078726764 -0.49847622514 0.49837878549 0.70932364908 -0.43537434656 -0.26458237684 0.86049133884 
-0.27613014203 -0.69268883063 0.66628396993 -0.21731292004 -0.85460210176 0.47162521398 -0.24899625272 -0.91957662267 0.30394029212 
-0.34770361967 -0.92808281176 0.13328348501 -0.48351557092 -0.87381035418 -0.051654211779 -0.60996135249 -0.75642847199 -0.23614215048 
-0.68844747265 -0.60635135866 -0.3979674701 -0.71347583408 -0.46118944248 -0.52750026761 -0.69303989166 -0.34290596093 -0.63412239396 
-0.635933037 -0.25557560173 -0.72819659725 -0.54029741514 -0.19607288725 -0.8183117536 -0.38242918708 -0.1613395336 -0.90978979538 
-0.11170364367 -0.14684027557 -0.98283275763 0.27230884042 -0.13649400038 -0.95247954481 0.60613818241 -0.11352102537 -0.7872162858 
0.87560865226 -0.078581556767 -0.47658622202 0.99905797135 -0.026713022755 0.034199185717 0.68567643872 0.051085454728 0.72611162895 
0.68567643872 0.051085454728 0.72611162895 
FrenetBinormal 3 64 double
-0.04139927515 0.67116218641 0.74015364591 -0.04139927515 0.67116218641 0.74015364591 0.083910498634 0.34946239651 0.93318543797 
0.18709428982 0.11262017306 0.97586496163 0.26798915016 -0.037487597179 0.96269231609 0.31052195201 -0.10040227991 0.94524890876 
0.40388366808 -0.21798497081 0.88845964183 0.67238462437 -0.56706279679 0.47575067147 0.73133338022 -0.67011246764 0.12688880046 
0.72780144684 -0.66667636934 0.16077211371 0.68275497482 -0.66196210031 0.30927628768 0.55648447667 -0.67241515438 0.48803984201 
0.34325937981 -0.69897053561 0.62738599643 0.11843643879 -0.72492507377 0.67856941236 -0.059749693279 -0.74339734619 0.66617592258 
-0.20871247509 -0.7580049123 0.61795441229 -0.37791435728 -0.77032646924 0.51359309706 -0.56126263136 -0.76936293654 0.30506545285 
-0.6019884637 -0.78529084102 0.1446657685 -0.53933728814 -0.83702239254 0.092243178656 -0.23672289153 -0.96597259544 0.10420756925 
0.85169173855 -0.49833438419 0.16212348388 0.98134054663 0.1430764802 0.12845175106 0.95210136507 0.27607917463 0.131465889 
0.94345279558 0.30124814384 0.13837043886 0.94976368792 0.28590968498 0.12729724717 0.96852957482 0.2400760911 0.065680538816 
0.98299390166 0.16694733951 -0.076495588989 0.94852817147 0.06419820599 -0.31011755559 0.85917640377 -0.021851446975 -0.5112126969 
0.98514732433 0.16964928718 0.026530524283 -0.1295107256 0.27248647204 0.95340342694 -0.19677942751 0.25673932574 0.94623610982 
-0.21636687423 0.25009300711 0.94373664946 -0.24731733854 0.23398180887 0.94025881925 -0.29199406007 0.19699913958 0.93591175219 
-0.33981348768 0.13268149166 0.9310866852 -0.37670864666 0.047671983788 0.92510430628 -0.39573598375 -0.040570258769 0.91746775707 
-0.39992838762 -0.12085379321 0.90854369485 -0.39394044819 -0.1971670665 0.89773942275 -0.37500895917 -0.29439747373 0.87903265468 
-0.30773816616 -0.49432499357 0.81298217805 -0.084563540361 -0.84227884343 0.53236769018 0.30990035267 -0.94146535877 -0.13268289131 
0.48851451391 -0.69816339684 -0.52337504814 0.54769552182 -0.50670062214 -0.66579583575 0.57630893468 -0.39289715987 -0.71658902697 
0.59630585715 -0.328589263 -0.73242639287 0.61151664342 -0.29497679007 -0.73419077095 0.62457972706 -0.27551778757 -0.73074627148 
0.64301851679 -0.2564445009 -0.72163938711 0.67153246683 -0.23519765557 -0.70265653687 0.71464367897 -0.21116517302 -0.6668535685 
0.77148826495 -0.18622909157 -0.60837865059 0.84094654644 -0.16024729412 -0.51684592555 0.92209402812 -0.12959917263 -0.36461850991 
0.99118099684 -0.087416661368 -0.099591961584 0.95970383485 -0.032869209313 0.2790845113 0.79323181935 0.013936670055 0.60876025659 
0.4810915345 0.053773641539 0.87501961744 -0.031911584892 0.081815286389 0.99613649148 -0.72769079114 0.072388702498 0.68207476733 
-0.72769079114 0.072388702498 0.68207476733 
