# vtk DataFile Version 4.2
vtk output
ASCII
DATASET POLYDATA
POINTS 64 float
0 0 0 -1.00483 -0.183236 0.22932 -1.91093 -0.231797 0.581467 
-2.82844 -0.180915 1.03457 -3.69575 -0.0312188 1.53626 -4.54147 0.19279 2.05001 
-5.3851 0.466096 2.54299 -6.24841 0.757991 2.98882 -7.14869 1.02959 3.36948 
-8.09295 1.23517 3.67787 -9.07347 1.32546 3.92116 -10.0653 1.25401 4.12018 
-11.0265 0.989349 4.30507 -11.9085 0.531493 4.50658 -12.6812 -0.0807626 4.74443 
-13.3479 -0.793293 5.02163 -13.9343 -1.56295 5.32652 -14.4748 -2.36521 5.63256 
-15.0014 -3.19172 5.89501 -15.5332 -4.04278 6.0424 -16.0509 -4.91179 5.97829 
-16.4736 -5.76586 5.63466 -16.7056 -6.55189 5.03897 -16.7215 -7.24776 4.30187 
-16.5545 -7.87152 3.51976 -16.2448 -8.44981 2.74609 -15.8211 -9.00563 2.01105 
-15.2967 -9.56095 1.3405 -14.6795 -10.1293 0.79025 -13.8966 -10.7609 0.561691 
-13.443 -10.963 1.41056 -13.4743 -10.7484 2.39717 -13.5904 -10.4693 3.36621 
-13.7372 -10.1964 4.33223 -13.8839 -10.0008 5.31679 -14.0203 -9.9708 6.32113 
-14.1438 -10.2005 7.30013 -14.2546 -10.7049 8.17207 -14.3481 -11.403 8.9016 
-14.4122 -12.2129 9.50894 -14.4276 -13.0864 10.0246 -14.3703 -13.9937 10.4747 
-14.2146 -14.9088 10.8838 -13.9384 -15.8014 11.2787 -13.5299 -16.6339 11.6896 
-12.9923 -17.363 12.1454 -12.3479 -17.9497 12.6639 -11.6304 -18.3722 13.2427 
-10.871 -18.6319 13.8628 -10.0886 -18.7497 14.4976 -9.28889 -18.7572 15.1218 
-8.46968 -18.6887 15.7163 -7.62827 -18.5748 16.2717 -6.76734 -18.4391 16.791 
-5.89564 -18.2966 17.2903 -5.02557 -18.1558 17.7929 -4.1701 -18.0229 18.3219 
-3.33971 -17.9071 18.8932 -2.53964 -17.8246 19.5116 -1.7696 -17.8007 20.1717 
-1.02718 -17.8717 20.8575 -0.305026 -18.0986 21.5463 0.346178 -18.4868 22.1585 
0.966549 -19.1453 22.684 
LINES 1 65
64 0 1 2 3 4 5 6 7 8 9 10 11 12 13 14 15 16 17 18 19 20 21 22 23 24 25 26 27 28 29 30 31 32 33 34 35 36 37 38 39 40 41 42 43 44 45 46 47 48 49 50 51 52 53 54 55 56 57 58 59 60 61 62 63 

CELL_DATA 1
FIELD FieldData 2
Length 1 1 double
63.873277835 
Tortuosity 1 1 double
1.1506756602 
POINT_DATA 64
SCALARS MaximumInscribedSphereRadius float
LOOKUP_TABLE default
0.93 1.12186 1.15615 0.982842 1.09442 1.24 1.23193 1.02281 0.654329 
0.795131 0.93 0.93 0.93 0.93 0.928708 0.847041 0.672223 0.741336 
0.894198 0.93 0.93 0.93 1.21082 1.25862 0.96177 0.9669 1.09234 
1.1952 1.33031 1.46367 1.24 1.17363 0.985168 1.07293 1.24 1.24 
1.24 1.24 1.24674 1.36707 1.5474 1.72547 1.86 1.85252 1.75474 
1.58334 1.55 1.55654 1.54248 1.28802 0.95377 0.969356 1.13297 1.4491 
1.40473 1.26236 1.46574 1.48665 1.2873 1.27508 1.47665 2.22894 2.16401 
1.55 
TEXTURE_COORDINATES TCoords 2 float
0 0 0.015873 0 0.031746 0 0.047619 0 0.0634921 
0 0.0793651 0 0.0952381 0 0.111111 0 0.126984 0 
0.142857 0 0.15873 0 0.174603 0 0.190476 0 0.206349 
0 0.222222 0 0.238095 0 0.253968 0 0.269841 0 
0.285714 0 0.301587 0 0.31746 0 0.333333 0 0.349206 
0 0.365079 0 0.380952 0 0.396825 0 0.412698 0 
0.428571 0 0.444444 0 0.460317 0 0.47619 0 0.492063 
0 0.507937 0 0.52381 0 0.539683 0 0.555556 0 
0.571429 0 0.587302 0 0.603175 0 0.619048 0 0.634921 
0 0.650794 0 0.666667 0 0.68254 0 0.698413 0 
0.714286 0 0.730159 0 0.746032 0 0.761905 0 0.777778 
0 0.793651 0 0.809524 0 0.825397 0 0.84127 0 
0.857143 0 0.873016 0 0.888889 0 0.904762 0 0.920635 
0 0.936508 0 0.952381 0 0.968254 0 0.984127 0 
1 0 
FIELD FieldData 7
Curvature 1 64 double
0 0.19187235801 0.13353039696 0.11647075608 0.076297662072 0.052042086825 0.052856409555 0.075532903333 0.10457066528 
0.13403656345 0.16452613176 0.19253863131 0.20592144339 0.18902837882 0.14772159728 0.099721938929 0.054751336669 0.050337039842 
0.11482479515 0.20922080489 0.29415783355 0.32323976741 0.27124849143 0.198108673 0.1466122714 0.11945215133 0.11638553542 
0.1498313718 0.36568299498 1.8474771254 0.73688999079 0.10549320235 0.030556460356 0.077358264046 0.16354657557 0.25859469578 
0.29364794954 0.23791734108 0.16466298194 0.11873803685 0.10089939999 0.104158844 0.12036964933 0.14283065524 0.16782664858 
0.18512563684 0.1859850981 0.169543975 0.14117001911 0.10931378729 0.081652902556 0.062137148626 0.045168985087 0.023038152836 
0.0039378993606 0.030301946845 0.050615019095 0.063373248097 0.075832102076 0.099597943972 0.15221641038 0.1878638216 0.27606106813 
0 
Torsion 1 64 double
0 0 0.15085706654 0.17908266964 0.42092405974 0.78998991519 0.78315980763 0.45908174105 0.32919676825 
0.28333625611 0.24427722995 0.19931086326 0.15774537539 0.12753174795 0.089595734157 -0.030223501237 -0.61323797143 -0.9321258412 
-0.063877822408 0.11314639192 0.15405050679 0.1647501143 0.19146881829 0.22660662869 0.25208684065 0.2858182141 0.30742981236 
0.30441139779 0.06254497558 -0.0072121664121 -0.025130337676 0.11426214404 2.483252677 0.2368575068 -0.021443290979 -0.035204634498 
-0.017544356902 0.029275694892 0.14042219497 0.302791374 0.40845494812 0.38955770556 0.32384962564 0.26295631901 0.198085126 
0.13056356042 0.063049389071 -0.0068271228873 -0.089073911467 -0.19189935077 -0.29722691047 -0.31922866298 -0.24703526997 -0.19953903707 
-1.098550404 0.049267000674 0.14194200042 0.25595915154 0.34132625068 0.32994080829 0.17205858224 0.13678327207 0 
0 
Abscissas 1 64 double
0 1.0468243638 2.0201581341 3.0447153835 4.0577977438 5.0723679893 6.0869814041 7.1015161606 8.1159973882 
9.1303894163 10.144668807 11.158795434 12.172766683 13.186736111 14.200894194 15.21526923 16.22980215 17.24439024 
18.258944121 19.273239835 20.286826088 21.29984026 22.313003581 23.326819483 24.341038922 25.355385583 26.369644073 
27.386005488 28.389373825 29.420919667 30.404372045 31.414550491 32.429641144 33.444150122 34.45858985 35.472603782 
36.485738006 37.499147762 38.513215949 39.527541757 40.541982177 41.556439565 42.570857908 43.585213324 44.599463702 
45.613576356 46.62763842 47.641747972 48.655977958 49.670354922 50.684836542 51.699366204 52.713924926 53.728511508 
54.743117831 55.757719381 56.772300473 57.786844033 58.801410843 59.815923958 60.829149427 61.852591399 62.827016747 
63.873245246 
ParallelTransportNormals 3 64 double
0.22249783315 0 0.9749331845 0.36142673807 0.01652705673 0.93225402622 0.4434629612 0.016537344431 0.89614012201 
0.50197118511 0.0099429272623 0.86482718939 0.52032105835 0.0059404441245 0.8539500614 0.50689636674 0.0098924366063 0.86195023817 
0.46503916963 0.023752135609 0.88497141579 0.40039242952 0.044407732601 0.91526709526 0.32248577405 0.064561798761 0.94437000147 
0.24672923472 0.076206489817 0.96608346205 0.19083492174 0.076740006661 0.97861790502 0.16897647018 0.072978065158 0.9829146222 
0.18312976149 0.078526033395 0.9799475254 0.21843775597 0.10135965099 0.97057259796 0.25444895341 0.13450372253 0.95768704634 
0.2784009939 0.16283406896 0.94656111931 0.28310454161 0.16939486511 0.94401122779 0.26166280457 0.13666698417 0.95543430551 
0.20250702281 0.042901788792 0.97834060645 0.096745864585 -0.13043538317 0.98672531563 -0.028955510864 -0.36074437231 0.93221514482 
-0.11569098071 -0.57802055693 0.8077795694 -0.13920309345 -0.71857653237 0.68137380776 -0.13119415765 -0.78851876816 0.60085459577 
-0.11966445065 -0.81759449846 0.56322256289 -0.11599850543 -0.82326366017 0.55568092695 -0.12693761042 -0.81044126844 0.57190190896 
-0.16522076792 -0.77277893829 0.61279263245 -0.31579530481 -0.64360732535 0.69716779631 -0.87461780001 -0.26902477292 0.40332291711 
-0.96231698874 -0.27045003596 0.02833357078 -0.95774842647 -0.28577737679 -0.032392013104 -0.95374079727 -0.29419121745 -0.061887148839 
-0.9506842807 -0.29906926352 -0.082200815343 -0.94539787082 -0.30328159938 -0.11934461584 -0.93644593074 -0.296401398 -0.18765721427 
-0.9260005898 -0.2636707711 -0.27018629159 -0.91858348106 -0.22002057489 -0.32832199887 -0.91567707607 -0.19221942982 -0.35296909661 
-0.91567799726 -0.19223893463 -0.35295608415 -0.91492604202 -0.2242261415 -0.33560836566 -0.90718035298 -0.2904871835 -0.30436984638 
-0.88370393634 -0.38873830894 -0.26067197791 -0.83537048683 -0.51051517784 -0.20379009529 -0.75676177674 -0.64027012709 -0.13177927617 
-0.65222384251 -0.75665315411 -0.045607714672 -0.53545776621 -0.84316999685 0.048469960003 -0.42148563445 -0.89580780554 0.14099019643 
-0.32002059232 -0.92065199291 0.22357711969 -0.23565656146 -0.92733658525 0.29071092634 -0.16965953068 -0.92485050988 0.3403926821 
-0.12197400202 -0.91961194488 0.37341158748 -0.092288679019 -0.91525910895 0.39215247445 -0.079608949832 -0.91322317638 0.39960711358 
-0.08210416015 -0.91362904183 0.39817192368 -0.098029482104 -0.91615532738 0.38865104753 -0.12636357444 -0.920334252 0.37015822516 
-0.16750684414 -0.92533664213 0.34013755439 -0.22358196084 -0.92913628776 0.2944772751 -0.29879025272 -0.92679346127 0.22754837955 
-0.40574989161 -0.90509442567 0.12716566395 -0.52307250846 -0.85213705597 0.01604957144 -0.67359579024 -0.72947852797 -0.11886878734 
-0.67359579024 -0.72947852797 -0.11886878734 
FrenetTangent 3 64 double
-0.95031316473 -0.11527357433 0.28916585552 -0.95031316473 -0.11527357433 0.28916585552 -0.91478445933 0.0011642945823 0.40394063597 
-0.87746210274 0.098609253513 0.46940012076 -0.84546455511 0.18444178612 0.50116954575 -0.83281573325 0.24516626448 0.49629775056 
-0.84151489119 0.2786419098 0.46282974625 -0.86982375428 0.27792194928 0.40763467295 -0.91041863681 0.23552361597 0.3400978272 
-0.95096757831 0.14617916972 0.27256616692 -0.9757227353 0.0093201367019 0.21881105747 -0.96752448369 -0.16650826361 0.1901877273 
-0.91378380305 -0.35819465423 0.19156135041 -0.8195795387 -0.53003047783 0.21761680156 -0.711545726 -0.65488771762 0.25460706417 
-0.61841219546 -0.7314679458 0.28726468765 -0.55558418369 -0.77498666479 0.30120073743 -0.52605596156 -0.80294678054 0.28025273047 
-0.52255235572 -0.82824825947 0.20234588263 -0.52040781377 -0.85291874701 0.041295500637 -0.46905172634 -0.85943600235 -0.20337216102 
-0.32731445231 -0.81995940591 -0.4696081579 -0.12342945603 -0.73783812762 -0.66359631314 0.074876834304 -0.65393530121 -0.75283602565 
0.23563747347 -0.59418539078 -0.76903751695 0.36218798111 -0.56007722383 -0.74507272778 0.4677086335 -0.54813766102 -0.69339291799 
0.56682939465 -0.55792674653 -0.60615359676 0.69946423055 -0.59947270643 -0.38907873808 0.76555423831 -0.51616887714 0.38405259857 
0.22421294711 0.0066365691561 0.97451757824 -0.07288426456 0.24411795967 0.9670027434 -0.12954832212 0.27200777204 0.95353500418 
-0.14476584856 0.23108290382 0.96210370577 -0.14003943563 0.11159584174 0.98383704168 -0.12928809534 -0.099341077567 0.98661843623 
-0.11686130195 -0.36614568862 0.92319053874 -0.10148673683 -0.59734644947 0.79553608438 -0.077965326678 -0.74601168312 0.66135314053 
-0.039256194897 -0.83124175662 0.55452330267 0.020678417169 -0.87886402854 0.4766239843 0.10513265819 -0.89949999266 0.42408358538 
0.21328114547 -0.89267964436 0.39703174372 0.33839292461 -0.85257992721 0.39824326271 0.46811003189 -0.77264640624 0.42882458998 
0.58534093526 -0.65160063597 0.48248585544 0.67446253677 -0.4997920912 0.5434226275 0.73081705468 -0.33757490233 0.59325341794 
0.76195860205 -0.18656107409 0.62017260049 0.78098144719 -0.061851908946 0.62148396641 0.79856861181 0.030090018966 0.60115119812 
0.81880497309 0.089936196094 0.56698315379 0.83916734632 0.12303990798 0.5297729192 0.85392181066 0.13711013935 0.50201429359 
0.85833512674 0.13960893069 0.49373085449 0.85046380396 0.13489840459 0.50844246341 0.83110490299 0.12260515386 0.54243213075 
0.80394243291 0.097776874521 0.58661422364 0.77437189207 0.052476762155 0.6305508403 0.7468415245 -0.02325766374 0.66459522896 
0.72125932084 -0.14670749172 0.67695044425 0.69039455172 -0.30921360712 0.65402011294 0.63524441748 -0.52290273316 0.5683636703 
0.63524441748 -0.52290273316 0.5683636703 
FrenetNormal 3 64 double
0.14747898892 0.65133247409 0.7443224812 0.14747898892 0.65133247409 0.7443224812 0.26814529522 0.74963889529 0.60509472591 
0.33295745561 0.82965745556 0.44811587697 0.29187773097 0.94548761321 0.14443186431 0.039622253206 0.92067419809 -0.3883157195 
-0.36323862136 0.34232125874 -0.86652978008 -0.4768037963 -0.26128130484 -0.83927958367 -0.41057992256 -0.61501984273 -0.67318253114 
-0.26493703765 -0.83972052028 -0.4740019134 -0.068214838332 -0.96232827141 -0.26319390925 0.15542201443 -0.98522826342 -0.07189761048 
0.37817545853 -0.92232815061 0.079335396639 0.56810977814 -0.80108147084 0.18846685932 0.70263801598 -0.66237158341 0.2599301906 
0.78495607564 -0.55748806253 0.27027952098 0.81620096751 -0.57742810667 0.019818230761 0.26785550132 -0.4691938691 -0.84149304431 
-0.045184266337 -0.21009083878 -0.97663720057 0.064422172203 -0.08743743673 -0.99408474407 0.3204985224 0.048934954422 -0.94598417924 
0.58999761323 0.21085380957 -0.77938660969 0.79030153194 0.33133643782 -0.51540241907 0.90668939989 0.3589099681 -0.22158061045 
0.95110616208 0.30358444506 0.056864340091 0.93124788771 0.18315589033 0.31500998631 0.83398980471 0.013836488466 0.55160634262 
0.65948141828 -0.13367761417 0.73973951795 0.39772556814 -0.12580236155 0.90883889566 -0.23530922964 0.3309410925 0.9138421963 
-0.75181279152 0.63744841624 0.16863286495 -0.78280721005 0.58677855945 -0.20713231051 -0.97828732086 -0.19195265636 -0.078154306078 
0.0011865952539 -0.97230521645 0.23371169858 0.061252324599 -0.99074886073 0.12109850411 0.04894908985 -0.99439552757 -0.09370977193 
0.043139254577 -0.93055372178 -0.36360524693 0.07204898073 -0.80197819226 -0.59299234693 0.17492197607 -0.66331789479 -0.72760681191 
0.40005782961 -0.52160684836 -0.75357815037 0.70197400596 -0.32669207108 -0.6328544743 0.92064181834 -0.073196514926 -0.38348521813 
0.97652011525 0.18216790358 -0.11499269289 0.90522070476 0.41053415584 0.10971409461 0.75381326496 0.60238304106 0.26248853958 
0.56598334741 0.75448186232 0.33229500429 0.38556963552 0.86613107516 0.31804562063 0.24134701678 0.94079555351 0.23802383073 
0.15828115825 0.98221457013 0.1010030354 0.15358327449 0.98354747494 -0.095113313148 0.23239323999 0.90589119636 -0.35405440595 
0.3462662945 0.71038570191 -0.61274122418 0.42116662354 0.4693004644 -0.7761286938 0.45102105712 0.28625165897 -0.84536382332 
-0.40058325078 -0.41895731718 0.81486675326 -0.46654170285 -0.2530730173 0.84752161472 -0.48177221629 -0.32846876777 0.81240617933 
-0.46525703564 -0.51098201055 0.72279545909 -0.3849399922 -0.75183992807 0.53531105441 -0.26067533982 -0.92964469637 0.26040181588 
-0.1764444453 -0.98398657066 -0.025254434837 -0.19909072862 -0.95035199437 -0.23915260522 -0.27834342969 -0.84147847604 -0.46307549007 
-0.27834342969 -0.84147847604 -0.46307549007 
FrenetBinormal 3 64 double
-0.27414382496 0.74998534069 -0.60196939456 -0.27414382496 0.74998534069 -0.60196939456 -0.3021051036 0.66184603277 -0.68607021163 
-0.34525293771 0.54949496955 -0.76082566166 -0.4472103266 0.26839225174 -0.8532107143 -0.5521304479 -0.30373100553 -0.77646599718 
-0.39988797414 -0.89731535255 -0.18685493363 -0.12674689864 -0.92438707793 0.35978292599 0.050616528256 -0.75251526188 0.65662679484 
0.15959019736 -0.52297332452 0.83727526582 0.20811506349 -0.27173044196 0.93960134486 0.19934987057 -0.040003338761 0.97911151663 
0.14826491109 0.14493920198 0.97826895273 0.074435607966 0.27809381448 0.9576654795 -0.0015806050209 0.3638488186 0.9314566758 
-0.037554171859 0.39263431384 0.91892762488 0.15856290698 0.25685102886 0.95335478889 0.8071669937 -0.36760519695 0.4618959444 
0.85140907771 -0.5194869201 0.07235967277 0.85148428705 -0.51466912251 0.10045000368 0.82296486873 -0.50889598947 0.252494944 
0.73808405056 -0.53217219361 0.41475859323 0.6001571944 -0.58805702309 0.5422179263 0.41509973719 -0.66599718966 0.61979024803 
0.19967986768 -0.74483569067 0.63666925821 -0.039965459798 -0.80794023491 0.5879075938 -0.29276208733 -0.83627367301 0.46361266598 
-0.49374962916 -0.81905313685 0.29216992098 -0.59377113658 -0.790446861 0.15043137073 -0.5987956869 -0.78996688764 0.13189405515 
-0.62008554318 -0.77046445251 0.14791364562 -0.61798119378 -0.77207340579 0.14833037516 0.16177499831 -0.9429559638 0.29096889912 
0.98946522985 0.034975100053 0.14048238784 0.98824951768 0.077220872001 0.13190840658 0.99039819013 0.036178516556 0.1334261591 
0.99221088526 -0.0026656308783 0.12454097153 0.99222446383 -0.0028632942383 0.12442835256 0.98149055529 0.058957095434 0.18220963414 
0.91564877771 0.1922587782 0.35302107313 0.71190230932 0.34766407642 0.61018422788 0.37598639138 0.43074590353 0.82042196465 
0.030325195784 0.4122352574 0.91057260834 -0.25703249647 0.32337157359 0.91069485622 -0.46112748738 0.20038014564 0.86441265471 
-0.58055046289 0.078573090947 0.81042422806 -0.62963191045 -0.0049825916824 0.77687761657 -0.63848104911 -0.030771932301 0.76902213109 
-0.62798579897 0.021201505866 0.77793594366 -0.60537604589 0.16973127555 0.77763174907 -0.55523108184 0.42244021012 0.71642355812 
-0.45788434057 0.69804271728 0.55052547217 -0.34411748007 0.874424528 0.34200132272 -0.25961037599 0.94829362406 0.18259697493 
0.32061483028 -0.89720906864 -0.30368078264 0.24300238202 -0.95799606907 -0.15229370958 0.2777771982 -0.93652348868 -0.21392424666 
0.37042199632 -0.85401233463 -0.36530874194 0.50216468929 -0.6572540696 -0.56200330322 0.61178109197 -0.36772247631 -0.70035996168 
0.66981516094 -0.10122914912 -0.73559520767 0.6954985584 0.034900314859 -0.71767940147 0.72040923454 0.13596582664 -0.68009104447 
0.72040923454 0.13596582664 -0.68009104447 
