# vtk DataFile Version 4.2
vtk output
ASCII
DATASET POLYDATA
POINTS 64 float
0 0 0 -0.810179 0.0119988 -0.623189 -1.70211 -0.0613229 -1.07674 
-2.68274 -0.265387 -1.26044 -3.61648 -0.611992 -1.07405 -4.41397 -1.04656 -0.621258 
-5.09391 -1.52681 -0.0414166 -5.70849 -2.04131 0.580706 -6.30032 -2.59229 1.19355 
-6.90227 -3.18722 1.75314 -7.53514 -3.83517 2.21029 -8.19997 -4.54217 2.50604 
-8.86545 -5.30462 2.57571 -9.46091 -6.09912 2.36895 -9.89393 -6.88259 1.89247 
-10.106 -7.61525 1.22367 -10.1009 -8.28423 0.460922 -9.91572 -8.8992 -0.324446 
-9.59129 -9.47842 -1.09174 -9.1611 -10.0425 -1.81689 -8.64795 -10.6124 -2.48188 
-8.0654 -11.2158 -3.05058 -7.42343 -11.8848 -3.46563 -6.79016 -12.6816 -3.3592 
-6.59448 -13.171 -2.52535 -6.71848 -13.3031 -1.51759 -6.93121 -13.2816 -0.527672 
-7.16413 -13.1845 0.455447 -7.3804 -13.0492 1.43738 -7.55146 -12.9077 2.42741 
-7.65015 -12.7983 3.43123 -7.65282 -12.7731 4.44546 -7.55262 -12.8953 5.44758 
-7.37845 -13.2127 6.39521 -7.18923 -13.7269 7.24905 -7.03941 -14.3951 7.99767 
-6.95278 -15.1636 8.65431 -6.92689 -15.9914 9.2404 -6.94363 -16.8525 9.77676 
-6.97393 -17.7319 10.2819 -6.97895 -18.6203 10.7719 -6.90778 -19.507 11.26 
-6.69446 -20.3668 11.7547 -6.27315 -21.1435 12.2525 -5.63011 -21.7616 12.735 
-4.82854 -22.1862 13.1896 -3.95001 -22.4457 13.6259 -3.04612 -22.5877 14.0643 
-2.14364 -22.6523 14.5234 -1.25695 -22.6691 15.0163 -0.393844 -22.6583 15.5495 
0.442555 -22.6323 16.1232 1.25296 -22.5967 16.7326 2.04189 -22.5502 17.3689 
2.817 -22.4867 18.0205 3.58726 -22.3993 18.6751 4.36105 -22.2856 19.3214 
5.14444 -22.1545 19.9528 5.94037 -22.0311 20.5695 6.74931 -21.9538 21.1779 
7.56222 -21.9672 21.782 8.36782 -22.122 22.3873 9.12193 -22.4333 22.9712 
9.81994 -22.918 23.5393 
LINES 1 65
64 0 1 2 3 4 5 6 7 8 9 10 11 12 13 14 15 16 17 18 19 20 21 22 23 24 25 26 27 28 29 30 31 32 33 34 35 36 37 38 39 40 41 42 43 44 45 46 47 48 49 50 51 52 53 54 55 56 57 58 59 60 61 62 63 

CELL_DATA 1
FIELD FieldData 2
Length 1 1 double
63.904501687 
Tortuosity 1 1 double
0.86367965388 
POINT_DATA 64
SCALARS MaximumInscribedSphereRadius float
LOOKUP_TABLE default
0.93 0.93 0.937345 1.06479 1.21049 1.04804 0.998273 1.16495 1.32937 
1.46156 1.4449 1.3185 1.2772 1.3046 1.3236 1.17453 1.07955 1.29308 
1.49211 1.47481 1.36531 1.22236 1.2808 1.44329 1.37217 1.26657 1.36877 
1.52891 1.40972 1.24738 1.56646 1.75597 1.20874 1.15293 1.51751 1.72252 
1.82665 1.68405 1.62726 1.76314 1.79733 1.62726 1.44602 1.37592 1.6118 
1.78211 1.64031 1.60922 1.69806 1.57697 1.31453 1.114 1.02187 1.23591 
1.49172 1.55 1.61777 1.77393 1.67032 1.36625 1.26622 1.24235 1.3962 
1.55 
TEXTURE_COORDINATES TCoords 2 float
0 0 0.015873 0 0.031746 0 0.047619 0 0.0634921 
0 0.0793651 0 0.0952381 0 0.111111 0 0.126984 0 
0.142857 0 0.15873 0 0.174603 0 0.190476 0 0.206349 
0 0.222222 0 0.238095 0 0.253968 0 0.269841 0 
0.285714 0 0.301587 0 0.31746 0 0.333333 0 0.349206 
0 0.365079 0 0.380952 0 0.396825 0 0.412698 0 
0.428571 0 0.444444 0 0.460317 0 0.47619 0 0.492063 
0 0.507937 0 0.52381 0 0.539683 0 0.555556 0 
0.571429 0 0.587302 0 0.603175 0 0.619048 0 0.634921 
0 0.650794 0 0.666667 0 0.68254 0 0.698413 0 
0.714286 0 0.730159 0 0.746032 0 0.761905 0 0.777778 
0 0.793651 0 0.809524 0 0.825397 0 0.84127 0 
0.857143 0 0.873016 0 0.888889 0 0.904762 0 0.920635 
0 0.936508 0 0.952381 0 0.968254 0 0.984127 0 
1 0 
FIELD FieldData 7
Curvature 1 64 double
0 0.20282216181 0.31316651993 0.40253722218 0.31064216645 0.17524577861 0.082768841954 0.042744285159 0.067871212511 
0.11641381913 0.17109750231 0.2291982628 0.28461782936 0.31390660935 0.29534747013 0.24161037136 0.18558381953 0.14148234234 
0.11194071109 0.099935298024 0.12033458331 0.17356153214 0.55496251744 1.118800659 0.53789909276 0.17290472228 0.076494658971 
0.040498079286 0.045048021246 0.078188796955 0.12497875471 0.17642386084 0.21202673362 0.214824614 0.1868502701 0.14657221242 
0.10754831641 0.071472975882 0.037551658884 0.029938136605 0.074155568556 0.14139156601 0.22036488233 0.27038521585 0.24845298741 
0.17928702564 0.11719696536 0.077966455629 0.058953498419 0.052728597592 0.049418449039 0.043924325412 0.03508613427 0.025961101918 
0.023873064578 0.027013169192 0.02413135045 0.020210202705 0.047230857197 0.088542825032 0.13763950945 0.16273818744 0.1788552001 
0 
Torsion 1 64 double
0 0 -0.021268487592 -0.026246528906 -0.05230523237 -0.13555967047 -0.45728237478 -1.3605133101 -0.4293991292 
-0.076857265911 0.035344838532 0.088350937366 0.11788226947 0.13495379429 0.14724183409 0.16120729459 0.1772604765 0.21151836555 
0.27503296776 0.3687611618 0.30816829187 0.32023322925 0.047478852156 -0.0016233873288 -0.04593496768 -0.2270669449 -0.4452755779 
-1.0465305731 -0.82195100434 -0.37573124463 -0.25434983977 -0.22215493952 -0.21996056949 -0.22396487263 -0.2149359476 -0.17515888306 
-0.10144049975 0.042299448704 0.62128198953 1.283966017 0.24364288128 0.087263001286 0.055650821407 0.058431592077 0.085424222445 
0.14817013494 0.25407355897 0.38453453425 0.4285118873 0.30746414496 0.15841140508 0.011944772299 -0.19501243748 -0.52735349686 
-0.6133948064 -0.42285460276 -0.62898572474 -1.4307105829 -0.380441468 -0.13959776793 -0.059292892285 -0.036730857082 0 
0 
Abscissas 1 64 double
0 1.0222025802 2.0255073828 3.0438589592 4.0571419054 5.0719589304 6.0864431318 7.1010623136 8.1156678037 
9.1302773661 10.144843175 11.159392269 12.173819369 13.187991107 14.202077523 15.216508328 16.231072488 17.245616983 
18.260252146 19.274712066 20.289722313 21.303110023 22.31894657 23.342305027 24.328747464 25.352661705 26.365402074 
27.380394236 28.394923277 29.409532899 30.424112631 31.438659861 32.453150472 33.4676158 34.482120403 35.496664629 
36.51123174 37.525817255 38.540420513 39.555031273 40.569652336 41.584282619 42.598909501 43.613107001 44.627196815 
45.641826071 46.656441651 47.67104601 48.685651523 49.700251319 50.714849 51.729447813 52.744047679 53.758652077 
54.77325582 55.787866622 56.802453007 57.817100882 58.831549717 59.8466671 60.859570101 61.879038186 62.882305861 
63.904534065 
ParallelTransportNormals 3 64 double
-0.60969528063 0 0.79263589672 -0.45363635778 0.0056928714229 0.89116869678 -0.19282276329 0.044205547616 0.98023734448 
0.14322848405 0.14093883165 0.97960290276 0.37420837251 0.24514766418 0.89435491652 0.48010372163 0.31071958069 0.82033758822 
0.51501455924 0.33754590348 0.78792307164 0.51037596511 0.33344920301 0.79267143461 0.47436884176 0.2988857733 0.82803471937 
0.40494863347 0.22901271062 0.88519477101 0.29740568004 0.11672582579 0.94758901591 0.15272597745 -0.043086767654 0.98732887442 
-0.010405924234 -0.24451844595 0.96958880271 -0.14665786011 -0.45356796959 0.87907199309 -0.21858974403 -0.62260854213 0.75138347538 
-0.23468582948 -0.73159103108 0.64007587416 -0.22570924675 -0.79215089672 0.56705581098 -0.21339535557 -0.82100545028 0.52953986896 
-0.20873750882 -0.82806251521 0.52032789981 -0.21733538032 -0.81772733139 0.5329984465 -0.25144500143 -0.78120289109 0.57139955741 
-0.32568233131 -0.70406052793 0.63105450802 -0.60273859055 -0.38571709848 0.69851879817 -0.94162193334 0.1429041974 0.30483852286 
-0.95795250935 0.27501177336 -0.081826122573 -0.93675210501 0.28191434304 -0.20741214273 -0.9277176993 0.27951206928 -0.24741235527 
-0.92869847561 0.28001956749 -0.24312174569 -0.9366446593 0.28569724587 -0.20266688408 -0.94710934837 0.29543113521 -0.12531690462 
-0.95289981391 0.30311946939 -0.010026561348 -0.94609164257 0.29634998764 0.13071835635 -0.92789202714 0.26718958497 0.26005020986 
-0.91165200564 0.23002200228 0.34055909779 -0.90578394251 0.20955884984 0.36829409165 -0.90605020165 0.2111766696 0.36671166645 
-0.90696355924 0.22413423756 0.35662437629 -0.90702350116 0.23519572425 0.34927258644 -0.90708969704 0.23274675189 0.35073812311 
-0.9076113189 0.20663957325 0.36543368834 -0.90537659611 0.14667750238 0.39847073859 -0.88841545697 0.042555564042 0.45706345269 
-0.8322639162 -0.10223246204 0.5448718175 -0.72208810286 -0.24661122904 0.64635259218 -0.59359869045 -0.33936053412 0.72970886152 
-0.49889948731 -0.37791947457 0.77992061923 -0.45083435849 -0.38874570278 0.80350803342 -0.4395315181 -0.39003872712 0.80912411653 
-0.45309990268 -0.38942155342 0.80190481476 -0.48060835027 -0.38932718988 0.78577347427 -0.51260585578 -0.39001865086 0.76493181958 
-0.54208004646 -0.39112169736 0.743756036 -0.56335498071 -0.39221488516 0.72718542998 -0.57268676353 -0.39287121219 0.71950127276 
-0.56935065655 -0.3925456265 0.72232109273 -0.55555532071 -0.39074878047 0.73394391897 -0.53814121997 -0.38801107305 0.74823220631 
-0.52680711628 -0.38618459035 0.75718935836 -0.53043927899 -0.38663892035 0.75441667305 -0.5539616748 -0.38756372288 0.73683161141 
-0.60083819369 -0.38270491343 0.70180511129 -0.65950721601 -0.36512011878 0.65706737166 -0.72312085961 -0.33033254836 0.60661077298 
-0.72312085961 -0.33033254836 0.60661077298 
FrenetTangent 3 64 double
-0.84471097291 -0.030432889834 -0.53435682035 -0.84471097291 -0.030432889834 -0.53435682035 -0.93750985961 -0.13887500801 -0.31904387673 
-0.96103006437 -0.27644057532 0.0013504414644 -0.8638951615 -0.38981048765 0.31895600584 -0.73089757159 -0.4525684753 0.51085273319 
-0.63853748858 -0.49067239581 0.5928831889 -0.59465762663 -0.52519107899 0.60873363439 -0.58864618589 -0.56504179685 0.57812060649 
-0.60958945085 -0.61356851147 0.50193065571 -0.64192473871 -0.67024398693 0.37243204457 -0.66001537459 -0.72904776267 0.18129827647 
-0.62789630399 -0.7752974131 -0.06826531095 -0.5133057069 -0.78755114675 -0.34099918257 -0.32148360366 -0.75557030587 -0.57075546907 
-0.102758107 -0.6959000334 -0.71074884099 0.094186482134 -0.63554125356 -0.76630034687 0.25178398988 -0.59001665595 -0.76712786948 
0.37249963268 -0.56436182779 -0.73670872873 0.46541227635 -0.5594673714 -0.68584814162 0.54118159551 -0.57950955115 -0.60933665638 
0.60576659676 -0.62945254353 -0.48665832541 0.64823663275 -0.74510277628 -0.15687931902 0.46155500614 -0.71614922691 0.52354298878 
0.036853980688 -0.31954139957 0.9468553628 -0.16596875438 -0.054513177636 0.98462311878 -0.21994221586 0.05853274336 0.97375527708 
-0.22137504848 0.11453401029 0.96843949135 -0.19093298295 0.13644782724 0.97207334418 -0.13303900833 0.12374260348 0.98335567845 
-0.050052699833 0.066466617261 0.99653244605 0.048257366676 -0.047995240711 0.99768115319 0.13599938676 -0.21790023331 0.96644899251 
0.18014992664 -0.41226430533 0.89307566672 0.16783127718 -0.58531080611 0.79324896637 0.11684896277 -0.70998837232 0.69445146055 
0.055534480285 -0.78785572482 0.61335086074 0.0045118435784 -0.83283393564 0.55350454282 -0.023185424866 -0.85787059119 0.51334246352 
-0.017407864121 -0.87128485642 0.49046882187 0.032621161329 -0.87537564658 0.48234151511 0.14054950527 -0.86284094165 0.48554232152 
0.31473150159 -0.81158746057 0.49220917886 0.52958007522 -0.69399943491 0.48775990844 0.71763070288 -0.51797602033 0.46551800894 
0.83132204059 -0.33849582381 0.44082223412 0.87991794922 -0.19820675828 0.43180838762 0.89089062644 -0.10189394751 0.44264151995 
0.88209684791 -0.040131801029 0.46935550435 0.86261726089 -0.0029581454026 0.50584850557 0.83780498246 0.018141485282 0.54566812064 
0.81176743767 0.030364668116 0.5831908899 0.78828183896 0.040465490873 0.61398231767 0.77082694295 0.054213087356 0.6347336175 
0.76161747695 0.074369234354 0.64374531904 0.76098791789 0.099112197784 0.64115065396 0.76742322871 0.12064476935 0.62968756353 
0.77837963324 0.12543288734 0.61513554387 0.79097406367 0.09891617548 0.60380097783 0.80052216979 0.031540130919 0.5984726191 
0.79830210179 -0.082961529295 0.59651583292 0.77367624461 -0.23120389535 0.58988967384 0.7198445934 -0.39459274991 0.57106945555 
0.7198445934 -0.39459274991 0.57106945555 
FrenetNormal 3 64 double
-0.47505710822 -0.41726229241 0.77473409842 -0.47505710822 -0.41726229241 0.77473409842 -0.23831097901 -0.41183860174 0.87954354264 
0.10500897572 -0.36053017719 0.92681773092 0.44117048609 -0.28009961491 0.85259181789 0.65526453055 -0.25604260083 0.71068317945 
0.76957333311 -0.40192840677 0.49619597016 0.51700947237 -0.82963668791 -0.21072297349 -0.14497983764 -0.62976442342 -0.76313669658 
-0.25911491356 -0.44417114738 -0.85765462361 -0.182888861 -0.3378609073 -0.92325601641 -0.0031693338454 -0.23862386865 -0.97110689661 
0.24347104098 -0.11235589986 -0.96337843238 0.51544424982 0.034777252741 -0.85621712668 0.7435635093 0.17178034104 -0.64622350783 
0.88632610038 0.26028232517 -0.38298714728 0.95100346374 0.28511964678 -0.11957925813 0.96084538348 0.24714634984 0.12527901184 
0.92149346264 0.13086105431 0.36568453998 0.80550546295 -0.053407078028 0.5901767813 0.57023737613 -0.27964883132 0.77241560445 
0.32655434501 -0.36107083045 0.87349305387 -0.025590623761 -0.22723236677 0.97350427399 -0.46406341756 0.30805903197 0.83050874607 
-0.63143940725 0.72693708855 0.26990136026 -0.50914422468 0.85983229792 -0.03821750806 -0.25086851054 0.96123235135 -0.11444368544 
0.39699150051 0.91765006769 -0.017779251861 0.97583930126 0.13354295251 0.17292755116 0.90048443965 -0.3993924118 0.17208566282 
0.74937091836 -0.65711973465 0.081467054946 0.57102339438 -0.81819669715 -0.066980951317 0.34290855923 -0.90486142733 -0.25226874029 
0.068801385856 -0.90042522402 -0.42953554597 -0.20673649129 -0.80766660696 -0.55220890538 -0.42110077605 -0.66869352544 -0.61279940065 
-0.55033653835 -0.53671315028 -0.63958477848 -0.58015583488 -0.45301480178 -0.67690235383 -0.35089450277 -0.47382960201 -0.8076871648 
0.82044948336 -0.29281300378 -0.49104296153 0.99940670798 0.023233910527 -0.025424740811 0.98156758426 0.18558151723 0.045657179075 
0.92917736069 0.36933595337 0.014845400763 0.81227993315 0.58058808923 -0.055846045947 0.62827227516 0.76991001464 -0.11185936533 
0.42026227781 0.90187287698 -0.10002465506 0.21143933661 0.97723077955 0.017703401958 -0.01782463132 0.96592028178 0.25822527327 
-0.26066250436 0.78834184302 0.55729004779 -0.43417138158 0.50882913175 0.74336271503 -0.52532564434 0.29902022647 0.79663032302 
-0.57537808101 0.21236863277 0.78983519022 -0.59540889319 0.3019139091 0.74453760241 -0.51660982192 0.6361927164 0.57303849739 
-0.19784478541 0.97264863973 0.1217048254 0.12776854427 0.94601135144 -0.2978887746 0.38384938164 0.70021026744 -0.60196780112 
0.61218661272 -0.36877734622 -0.69945037002 0.25593402094 -0.94985184512 -0.17966426813 0.063577022778 -0.99744842582 -0.032474605635 
-0.089002412843 -0.99584267781 -0.019388954347 -0.23525562133 -0.96931008752 -0.071363484172 -0.38357796513 -0.91181015224 -0.14652709966 
-0.38357796513 -0.91181015224 -0.14652709966 
FrenetBinormal 3 64 double
-0.24654434929 0.90827639986 0.33800867634 -0.24654434929 0.90827639986 0.33800867634 -0.25354120061 0.9006124018 0.35300731058 
-0.25572315185 0.89084151208 0.37550908106 -0.24300977789 0.87726392234 0.41394958438 -0.1908327405 0.85418028643 0.48369298468 
-0.0051730699544 0.77310682045 0.63425474655 0.61569758207 0.18941303184 0.76487854644 0.79528392069 -0.53303333742 0.28878875789 
0.74917298602 -0.65287492949 0.111777294 0.74463702188 -0.66077454953 0.094301115275 0.75124540639 -0.64152007689 0.1551848263 
0.73923479601 -0.62152238336 0.25931032249 0.68617379474 -0.61526720532 0.38808734773 0.5863118626 -0.6321432016 0.50658994507 
0.45151612953 -0.66931028284 0.59004824384 0.29448483583 -0.71749153448 0.63125635 0.11567614918 -0.76863452138 0.62914227409 
-0.10997191442 -0.81508963421 0.56880142954 -0.36681379771 -0.82712994406 0.42579771424 -0.61802250407 -0.76548364533 0.17911720517 
-0.72554055022 -0.68805330523 -0.013174185081 -0.76100879623 -0.62704649291 -0.1663679891 -0.75605034276 -0.62628261801 -0.19015246933 
-0.77454893912 -0.60782872855 -0.17498050651 -0.844527401 -0.50765808662 -0.17046036503 -0.94270377749 -0.26945553376 -0.19673155117 
-0.8907248938 0.38052636408 -0.24861385683 -0.10621795581 0.98160494613 -0.15864890667 0.41403912402 0.90839059302 -0.058293518558 
0.66025597608 0.75085008032 -0.016917533185 0.81951419123 0.57293160293 -0.012077612763 0.92947183218 0.36571202557 -0.048340744156 
0.98123003075 0.13882564064 -0.13384718251 0.96389454069 -0.071315582166 -0.25655682054 0.89945564443 -0.22082907462 -0.37711279944 
0.83309400193 -0.30203038123 -0.46339187818 0.81449300213 -0.31806481261 -0.48521739917 0.93612792074 -0.19885561856 -0.2900361339 
0.57145394523 0.39385688236 0.7199424593 0.011049519322 0.48288473031 0.87561421034 -0.12950256409 0.47017550966 0.87302008912 
-0.19383888744 0.45267731045 0.87035035378 -0.24443046891 0.42577253904 0.87118969856 -0.30046650819 0.37274577357 0.87794103774 
-0.3637076885 0.26841365657 0.89200382639 -0.42548538116 0.075723737873 0.90179160893 -0.45386801412 -0.23794039736 0.85871310288 
-0.39237763664 -0.61392717572 0.68493299904 -0.25958943088 -0.86086245362 0.43764044981 -0.14871374773 -0.95407431088 0.26005082303 
-0.099868368517 -0.97671774364 0.18986510534 -0.15524172209 -0.95247600261 0.2620867646 -0.37274671819 -0.76962313424 0.51840150011 
-0.61708691422 -0.22005417656 0.75549976816 -0.63606020778 0.30860864406 0.70723978741 -0.51353796379 0.7036692554 0.4910482041 
0.13911397397 0.92101566745 -0.36383710992 0.55574977061 0.29664298837 -0.77662418834 0.5959213185 0.064045749103 -0.80048480571 
0.59564446172 -0.037613105422 -0.80236707904 0.5882855269 -0.083562629298 -0.80432420442 0.5785254584 -0.11357291923 -0.80771869237 
0.5785254584 -0.11357291923 -0.80771869237 
