# vtk DataFile Version 4.2
vtk output
ASCII
DATASET POLYDATA
POINTS 64 float
0 0 0 -1.01959 -0.168239 0.166089 -1.97654 -0.224509 0.367624 
-2.97121 -0.260103 0.576561 -3.96767 -0.32138 0.760725 -4.96107 -0.468299 0.902387 
-5.92415 -0.769375 1.00061 -6.79872 -1.27379 1.08783 -7.53126 -1.96173 1.21955 
-8.12568 -2.75787 1.42287 -8.64246 -3.59816 1.66005 -9.15226 -4.45921 1.82516 
-9.68752 -5.30708 1.6981 -10.1284 -5.97643 1.08624 -10.3568 -6.43141 0.210172 
-10.3952 -6.80144 -0.733051 -10.2583 -7.16284 -1.67046 -9.94182 -7.54892 -2.55278 
-9.44919 -7.96435 -3.33533 -8.82357 -8.39801 -4.00553 -8.14029 -8.85258 -4.60204 
-7.4676 -9.3521 -5.17411 -6.84666 -9.92733 -5.73311 -6.29384 -10.6149 -6.22923 
-5.83066 -11.4838 -6.46459 -5.71495 -12.265 -5.8788 -5.99668 -12.5023 -4.93223 
-6.45321 -12.5069 -4.02774 -7.02036 -12.4159 -3.19189 -7.6434 -12.3045 -2.39887 
-8.2499 -12.2354 -1.58866 -8.74552 -12.2711 -0.705279 -9.07201 -12.4473 0.237943 
-9.26275 -12.761 1.18318 -9.37403 -13.199 2.09114 -9.42933 -13.7437 2.94499 
-9.41946 -14.3725 3.74082 -9.31825 -15.0646 4.47522 -9.09765 -15.8045 5.13267 
-8.74182 -16.5753 5.68707 -8.2505 -17.3484 6.12173 -7.62308 -18.0707 6.45756 
-6.84999 -18.658 6.74825 -5.95617 -19.0294 7.04793 -5.01304 -19.199 7.37971 
-4.06668 -19.2517 7.74134 -3.12743 -19.2533 8.125 -2.19489 -19.2245 8.52363 
-1.26922 -19.1458 8.93126 -0.355647 -18.9879 9.34304 0.540235 -18.7535 9.75739 
1.42252 -18.4907 10.1839 2.30039 -18.2821 10.6474 3.15916 -18.2301 11.1831 
3.92403 -18.4252 11.8169 4.48601 -18.8686 12.5328 4.81278 -19.4743 13.2766 
4.96378 -20.1726 13.9963 5.02759 -20.9435 14.6524 5.08352 -21.787 15.2127 
5.18283 -22.6903 15.6647 5.34159 -23.6235 16.0363 5.5463 -24.5232 16.3638 
5.82306 -25.4603 16.7399 
LINES 1 65
64 0 1 2 3 4 5 6 7 8 9 10 11 12 13 14 15 16 17 18 19 20 21 22 23 24 25 26 27 28 29 30 31 32 33 34 35 36 37 38 39 40 41 42 43 44 45 46 47 48 49 50 51 52 53 54 55 56 57 58 59 60 61 62 63 

CELL_DATA 1
FIELD FieldData 2
Length 1 1 double
63.844559328 
Tortuosity 1 1 double
1.0580470197 
POINT_DATA 64
SCALARS MaximumInscribedSphereRadius float
LOOKUP_TABLE default
0.93 1.15002 1.10894 0.939157 0.96842 1.1024 1.23373 1.24 1.23737 
1.12392 0.935115 0.990342 1.26661 1.32235 1.26349 1.24385 1.27057 1.4161 
1.7167 2.17568 2.07116 1.98403 1.97986 1.87761 1.42292 1.47367 1.55 
1.72287 1.71608 1.29228 1.45058 1.84615 1.87124 1.24366 1.21246 1.24 
1.31177 1.49729 1.55 1.55 1.55 1.55 1.35056 1.37713 1.49908 
1.37359 1.83071 2.14596 1.9234 2.08229 2.0789 1.89798 2.53059 2.15695 
1.67783 1.90506 1.85693 1.64326 1.55082 1.55 1.56458 1.7484 1.86 
1.86 
TEXTURE_COORDINATES TCoords 2 float
0 0 0.015873 0 0.031746 0 0.047619 0 0.0634921 
0 0.0793651 0 0.0952381 0 0.111111 0 0.126984 0 
0.142857 0 0.15873 0 0.174603 0 0.190476 0 0.206349 
0 0.222222 0 0.238095 0 0.253968 0 0.269841 0 
0.285714 0 0.301587 0 0.31746 0 0.333333 0 0.349206 
0 0.365079 0 0.380952 0 0.396825 0 0.412698 0 
0.428571 0 0.444444 0 0.460317 0 0.47619 0 0.492063 
0 0.507937 0 0.52381 0 0.539683 0 0.555556 0 
0.571429 0 0.587302 0 0.603175 0 0.619048 0 0.634921 
0 0.650794 0 0.666667 0 0.68254 0 0.698413 0 
0.714286 0 0.730159 0 0.746032 0 0.761905 0 0.777778 
0 0.793651 0 0.809524 0 0.825397 0 0.84127 0 
0.857143 0 0.873016 0 0.888889 0 0.904762 0 0.920635 
0 0.936508 0 0.952381 0 0.968254 0 0.984127 0 
1 0 
FIELD FieldData 7
Curvature 1 64 double
0 0.11243681681 0.02251686681 0.034571623134 0.093113262461 0.15957158758 0.21874960704 0.23323430296 0.18598715788 
0.093035185386 0.073302721725 0.29252892167 0.55269203842 0.40866685411 0.21537253122 0.17210294586 0.18593532873 0.2010965977 
0.17153270022 0.093383309921 0.050795006276 0.090199949988 0.14258225045 0.33085179047 1.1262027823 0.89487448661 0.29186973018 
0.15818437353 0.071333587995 0.047210009205 0.16572383092 0.2246575361 0.18973043404 0.14879396626 0.12894432524 0.11821359285 
0.12392024635 0.14651783595 0.16928790719 0.17730842301 0.17219495748 0.20021622953 0.24470024114 0.2067983992 0.11773738104 
0.054544922597 0.033567403305 0.049745575616 0.078073319592 0.076448649096 0.032801591784 0.063969612319 0.16999895973 0.28024233377 
0.33183417435 0.28561268104 0.19665848695 0.12697340476 0.11751398172 0.12789336061 0.10136606252 0.061522674514 0.064302795336 
0 
Torsion 1 64 double
0 0 1.5948302488 0.63833730594 0.23212353806 0.22016116657 0.22197388771 0.20966452281 0.14012478422 
-0.3818765506 -1.2214641959 0.018484569145 0.09135923426 0.22891158058 0.53398853543 0.41233227352 0.1698423539 0.060556581142 
0.07461247275 0.41424064996 1.2240640591 -0.085112542028 -0.53449595976 -0.32009811722 -0.022270870573 0.068911575925 0.38789470119 
0.33111629743 0.59558709188 1.1912535027 0.05008522975 -0.077847571416 -0.21292117437 -0.2311579719 -0.018965184723 0.18728776234 
0.19403349597 0.081242119949 0.043385446923 0.1519588835 0.39785696734 0.39614658171 0.21603446237 0.15617592652 0.18231692322 
0.23295508994 -0.14447545685 -0.1750796354 -0.027597701374 0.088131020568 1.2913369345 0.38292381131 -0.033811256153 -0.093665246726 
-0.091789376179 -0.030757156455 0.1698184444 0.58655951374 0.5495587987 0.28962979804 0.30801484605 0.81627976038 0 
0 
Abscissas 1 64 double
0 1.0466394912 2.0262005357 3.0432008367 4.0583860604 5.0725333191 6.086346397 7.0997128627 8.1132348878 
9.1273978321 10.141994103 11.156167404 12.166880308 13.175215687 14.188474942 15.202411643 16.216364546 17.230126115 
18.243856273 19.258071 20.272625113 21.287166504 22.301529876 23.313691165 24.326123712 25.3093915 26.32509881 
27.3382767 28.35247614 29.367103386 30.381528346 31.395074249 32.408643508 33.422666539 34.436878268 35.451162754 
36.465473502 37.479703386 38.493759873 39.507683709 40.521631901 41.535567245 42.5490242 43.562288381 44.576363559 
45.590835967 46.605417251 47.619999817 48.634510129 49.648945775 50.66346768 51.678073233 52.692443798 53.705927782 
54.718267017 55.730647695 56.744056029 57.758146997 58.772477309 59.786605281 60.801540948 61.818446493 62.797551 
63.844625607 
ParallelTransportNormals 3 64 double
0.16077889328 0 0.98699044954 0.20579399165 0.0050339723793 0.97858238903 0.20539584676 0.0050151455038 0.97866613023 
0.18151069692 0.0038528259817 0.98338142276 0.14122740976 -0.0003628502063 0.98997711442 0.10419530855 -0.0088429812146 0.994517541 
0.10425878478 -0.0088151561214 0.99451113559 0.15239645171 0.026898694482 0.98795332974 0.21024788332 0.091596371736 0.97334779614 
0.23472195722 0.12763774777 0.96364630863 0.1995201561 0.069297794906 0.97744029124 0.048385998147 -0.17782885114 0.98287114867 
-0.21059962447 -0.5803824315 0.78664097998 -0.33891800817 -0.79587245271 0.50171866894 -0.36069383641 -0.86317245881 0.35331750979 
-0.35737950676 -0.88777843712 0.29005057273 -0.35153626972 -0.89741094058 0.2666005529 -0.34795694652 -0.90095663822 0.25923560599 
-0.34756522157 -0.90125408261 0.25872668077 -0.35894806826 -0.89352957545 0.2697428073 -0.39227817386 -0.87007786899 0.29846664171 
-0.44901115088 -0.8229434715 0.34807043697 -0.53235297395 -0.73326756228 0.42298817151 -0.68056030104 -0.50622089946 0.52969621256 
-0.91018437384 0.15362223795 0.38466168724 -0.85642214939 0.49973217755 -0.12964895971 -0.75683172687 0.53231184846 -0.37927540548 
-0.67634257402 0.52552531981 -0.51612388126 -0.63543128318 0.51856657123 -0.57211519431 -0.66073073549 0.52228118587 -0.53912638414 
-0.75113586406 0.5250131459 -0.40019509037 -0.84221836784 0.50153122492 -0.19782479952 -0.88885009091 0.45736742472 -0.027578156211 
-0.90752120582 0.41089963968 0.086987051298 -0.91559840707 0.36325459021 0.17241130953 -0.91781978997 0.30587709559 0.25307318215 
-0.91138330445 0.22933889263 0.34173695248 -0.88840459421 0.12708906606 0.44111863061 -0.8405340308 0.0016393826423 0.54175626946 
-0.76629204705 -0.13366518553 0.62843465595 -0.67134398397 -0.26058100062 0.69382620108 -0.5582216423 -0.3663511052 0.74442962447 
-0.44305044064 -0.43259297513 0.78521947563 -0.36720812841 -0.45493526302 0.81129038999 -0.33944247297 -0.45820260067 0.82147987455 
-0.33676289761 -0.45827980162 0.82253898036 -0.3373472565 -0.45828829944 0.82229475441 -0.32543903899 -0.45759879502 0.82746164545 
-0.29966756655 -0.45428371472 0.83894317811 -0.27558419909 -0.44906296451 0.84993870551 -0.27676447867 -0.44939301303 0.8493805644 
-0.32549618501 -0.46244460332 0.8247407001 -0.44319253528 -0.48009829738 0.75702443919 -0.63249105486 -0.46339977115 0.62065748817 
-0.82826211945 -0.36920318101 0.42151022837 -0.94602423225 -0.23021764774 0.22811836108 -0.98875729186 -0.11360065538 0.097231213589 
-0.99801233472 -0.050304647014 0.037958164347 -0.9984727186 -0.044097435487 0.03328132214 -0.99512104119 -0.081814759217 0.055140353216 
-0.98746525976 -0.1363066317 0.07957928699 -0.9774888029 -0.18647882924 0.098697955675 -0.96421766867 -0.2373304632 0.11814625965 
-0.96421766867 -0.2373304632 0.11814625965 
FrenetTangent 3 64 double
-0.97706597045 -0.11098187141 0.18172813105 -0.97706597045 -0.11098187141 0.18172813105 -0.97755320423 -0.04601404905 0.20560262692 
-0.97994768042 -0.047675692121 0.19346723761 -0.98163889042 -0.10270737559 0.16073669091 -0.9678836004 -0.22162610576 0.11867268146 
-0.91199213267 -0.39975051091 0.092031945453 -0.7983381765 -0.59230698848 0.10875930923 -0.65730021553 -0.7351284227 0.1659597204 
-0.54833407089 -0.80751480727 0.21736969139 -0.50635841674 -0.83918245889 0.19842871388 -0.52161770097 -0.85296792876 0.018991749082 
-0.50069599319 -0.77823464626 -0.37901762197 -0.33777977858 -0.56743952252 -0.75094421195 -0.13238379085 -0.40936266048 -0.90271631431 
0.04875611535 -0.3620466692 -0.93088401562 0.22457492072 -0.37025339999 -0.90137590648 0.40111649411 -0.39734911103 -0.82536006816 
0.55348602364 -0.42026340056 -0.71904929997 0.64589009249 -0.4383061432 -0.62507096658 0.66848313908 -0.47035920951 -0.57610112549 
0.63826485092 -0.5302714448 -0.55805929336 0.58069564086 -0.6247461717 -0.52200076018 0.50864153484 -0.77921755573 -0.36620184309 
0.32458718521 -0.92522186576 0.19648831597 -0.089864870237 -0.55130373348 0.82945072099 -0.36775496259 -0.12049923205 0.9220825465 
-0.50653846757 0.042752550452 0.86115678033 -0.58702500486 0.099827717703 0.80339035994 -0.60614118369 0.088983289371 0.79036373882 
-0.54536093953 0.016527090089 0.83803836483 -0.40814492335 -0.1051997807 0.90683555713 -0.25626162294 -0.24272077683 0.93563700499 
-0.14932819985 -0.37166426278 0.91627875917 -0.082293961218 -0.4854736891 0.87036946244 -0.02243469933 -0.57950725832 0.81465822393 
0.054867149296 -0.6524478285 0.75584484322 0.15909734524 -0.70795426106 0.68810522378 0.28526790763 -0.74762723258 0.59972972411 
0.41942577173 -0.76438856151 0.48968576561 0.55376036737 -0.7402010737 0.38138147048 0.69429142836 -0.64922402445 0.31059230285 
0.82867983478 -0.47660380724 0.29349368365 0.91101173184 -0.26830125469 0.31316459121 0.93310623175 -0.10978047277 0.342433947 
0.92965840797 -0.026771567464 0.36744867351 0.92257739505 0.013405879464 0.38557908726 0.91607978797 0.052996512135 0.39747854254 
0.90720649872 0.11670336617 0.40417408749 0.89248219148 0.19349497919 0.4074742089 0.87645170865 0.24506797767 0.41445637736 
0.86795855523 0.23245399213 0.43887707612 0.85952995057 0.12898054933 0.49454249763 0.809353702 -0.071332046793 0.58297369079 
0.6642639243 -0.31965376746 0.67570326907 0.4432013281 -0.52316510414 0.72792228746 0.23680689836 -0.64632781883 0.72538461763 
0.1061191663 -0.72580592106 0.67966498181 0.059133521275 -0.7972707566 0.60071837606 0.076666121162 -0.86266612294 0.49992946123 
0.12717821642 -0.90503670699 0.40587468542 0.18218259431 -0.91870647033 0.35041107818 0.2377608659 -0.90705333774 0.34745361294 
0.2377608659 -0.90705333774 0.34745361294 
FrenetNormal 3 64 double
-0.026173974451 0.90956063931 0.41474614703 -0.026173974451 0.90956063931 0.41474614703 -0.049789596229 0.9986721704 -0.013224680725 
-0.09998803775 -0.72219304621 -0.68442647253 0.021324146246 -0.89646801031 -0.44259506016 0.18401164887 -0.94617836127 -0.26624466519 
0.39678154357 -0.91658450686 -0.049368496577 0.60160043872 -0.77629695849 0.18825499827 0.73107321218 -0.5685018474 0.3772765669 
0.81536134671 -0.45850810336 0.35349143335 0.089884431857 -0.28021998941 -0.95571834054 -0.092969295996 0.034698163874 -0.99506419262 
0.17738969112 0.33631505965 -0.92489192781 0.53394290831 0.54151490342 -0.64935859126 0.86922572992 0.38974465912 -0.30421329873 
0.99824002925 0.049163714438 0.033162828491 0.94810515547 -0.13063916976 0.28987932229 0.86117569545 -0.14353113404 0.48762202076 
0.75821338198 -0.10298183283 0.64382234311 0.59908204929 -0.21651483467 0.77085797952 -0.20247106881 -0.86045091855 0.46757853144 
-0.55743807165 -0.81832525854 0.14002345341 -0.45898390006 -0.78080033012 0.42389223155 -0.27194667477 -0.54895980052 0.79037215506 
-0.37627179499 0.064283545853 0.92427656144 -0.51651304863 0.73786764938 0.43447163612 -0.59764505492 0.79029951978 -0.13508166928 
-0.68172948082 0.59163054383 -0.4303698579 -0.75890341804 0.27769604771 -0.589025048 0.33805257938 -0.87067210615 0.35728215341 
0.65245667404 -0.61927524739 0.43680482652 0.74224079359 -0.61656474848 0.26253859766 0.70315569045 -0.71098927428 0.0081441300421 
0.52236614717 -0.81645397776 -0.24604168444 0.42388392216 -0.8074503755 -0.41030027008 0.53776021115 -0.69393409765 -0.47882086779 
0.71939379245 -0.49912093803 -0.48306403366 0.79675958889 -0.31949462619 -0.51293015251 0.78276361563 -0.17935394534 -0.59591382291 
0.74937235335 -0.012921485568 -0.66202274224 0.77437811553 0.28943245283 -0.56264321682 0.71702023209 0.66114748177 -0.22083023823 
0.48846140389 0.87181870753 0.03657318831 0.23098087957 0.96109475477 0.15147509904 0.023653182074 0.96893623801 0.24617695598 
-0.12867981287 0.91094942216 0.39193450478 -0.19396150483 0.88003433845 0.43349567216 -0.13297560954 0.97528865521 0.17643561511 
-0.15017567062 0.98729045967 0.052007847499 -0.22587390876 0.9736179115 0.032390426856 -0.4049777713 0.84079463877 0.35924557083 
-0.064527729471 -0.82342334129 0.56374655045 -0.10558530996 -0.90194487846 0.41874476539 -0.32964078105 -0.87668302771 0.35037668929 
-0.61311344322 -0.75009590364 0.24788715394 -0.82068618765 -0.56347584991 0.094705585751 -0.87918074432 -0.46030600018 -0.12312434777 
-0.67051369938 -0.55697300674 -0.49009432633 -0.06534843299 -0.60357231645 -0.79462572392 0.33045124088 -0.45108189497 -0.82905192928 
0.56730620018 -0.2692887952 -0.77823339688 0.86354099372 -0.020932028254 -0.50384402582 0.84886501844 0.36790557471 0.37957037366 
0.84886501844 0.36790557471 0.37957037366 
FrenetBinormal 3 64 double
-0.21132205862 0.40047779918 -0.8916055854 -0.21132205862 0.40047779918 -0.8916055854 -0.20472110056 -0.023164700795 -0.97854620107 
0.17235119945 -0.69004654363 0.70294440155 0.18955307856 -0.43104095105 0.88219801004 0.1712922916 -0.23585668934 0.95657230408 
0.10409013707 -0.0085071031043 0.99453148395 -0.027075230129 0.21572080019 0.97607964239 -0.18299831991 0.36931267463 0.91110908418 
-0.18578380174 0.37106624098 0.90983197559 0.85762575912 -0.46610037356 0.21732118872 0.84809886454 -0.52080874601 -0.097399004313 
0.84725227642 -0.53032350127 -0.030340799299 0.77511921138 -0.62030153768 0.12006752477 0.47636242753 -0.82493715693 0.30423268192 
0.033759224322 -0.93086257767 0.36380650939 -0.22508380472 -0.91969876977 0.32170087617 -0.31222104304 -0.90637326611 0.28461469175 
-0.34462398208 -0.90153947016 0.26165032911 -0.47320892494 -0.8723583273 0.1227365559 -0.71563661104 -0.19592455384 -0.67043106293 
-0.53092445447 0.22171144774 -0.81790174079 -0.67240341475 -0.006562426312 -0.74015578252 -0.81690194951 -0.30242873252 -0.4911293787 
-0.86779185032 -0.37394133878 -0.32726927699 -0.85155068886 -0.38937838338 -0.35106395267 -0.71244415629 -0.60075502837 -0.36265234048 
-0.52788606333 -0.80507485306 -0.27053795502 -0.28189935394 -0.95546812185 -0.087254927579 0.71993980235 0.48374792793 0.49766919054 
0.52619552842 0.78500001482 0.32694532051 0.5315038343 0.7802441394 0.32973134073 0.66325112559 0.65998551223 0.35286976073 
0.83954433892 0.44189204334 0.31606443175 0.90197013503 0.33517038696 0.27223278133 0.84279928783 0.42734857631 0.32720414843 
0.69243206693 0.57025443472 0.44198157469 0.58297700834 0.62986026077 0.51323859915 0.55308529443 0.63944169664 0.53405147101 
0.51237007918 0.64462637415 0.56739205116 0.30608493874 0.60690297885 0.73347173397 -0.061979022907 0.3760215066 0.92453579016 
-0.27330420474 0.1130528731 0.95526114731 -0.34162180512 -0.065660559575 0.9375410568 -0.35882208299 -0.22160959925 0.90671709937 
-0.34521985784 -0.41164843429 0.84342682925 -0.33351144625 -0.47472080799 0.81450001208 -0.37830584101 -0.21448405235 0.90048946798 
-0.39296772976 -0.10787897187 0.91320232742 -0.39045680329 -0.12094567142 0.91264211459 -0.26043311456 -0.48270701438 0.83616298119 
0.49242676464 -0.51762838269 -0.69969760533 0.50006000279 -0.4121400904 -0.76163018552 0.48609005392 -0.47575057334 -0.73306060558 
0.42760419154 -0.57894525155 -0.69424567055 0.36061997197 -0.63936940838 -0.67908761986 0.41347758307 -0.60858749313 -0.67724260904 
0.73426841243 -0.40371627998 -0.54576832429 0.9961088339 0.0077330126071 -0.087791751028 0.94070414226 0.22876250647 0.25048639157 
0.81362729582 0.3292295609 0.47918526659 0.47021958114 0.39438594242 0.78952724711 -0.47212069549 0.20469423685 0.85743939628 
-0.47212069549 0.20469423685 0.85743939628 
