# vtk DataFile Version 4.2
vtk output
ASCII
DATASET POLYDATA
POINTS 64 float
0 0 0 -0.9707 0.202182 0.326823 -1.86397 0.495795 0.618027 
-2.77932 0.810895 0.922195 -3.70388 1.07489 1.24744 -4.64224 1.20996 1.607 
-5.57188 1.12465 2.0002 -6.4303 0.761172 2.39557 -7.16558 0.155513 2.74068 
-7.77239 -0.617284 2.98948 -8.25701 -1.50086 3.0972 -8.61011 -2.44652 3.01169 
-8.81117 -3.3885 2.69852 -8.85431 -4.26139 2.18574 -8.75692 -5.03743 1.54069 
-8.54293 -5.72345 0.825041 -8.23479 -6.34307 0.0833481 -7.85252 -6.92694 -0.652978 
-7.41463 -7.51066 -1.3578 -6.93915 -8.13738 -1.99808 -6.4529 -8.86486 -2.50918 
-6.03902 -9.75968 -2.72453 -5.96505 -10.6814 -2.35282 -6.33437 -11.2351 -1.59391 
-6.93864 -11.4319 -0.806395 -7.65657 -11.3611 -0.0951783 -8.41093 -11.0759 0.518793 
-9.13662 -10.6268 1.06657 -9.77883 -10.0793 1.62906 -10.2597 -9.55669 2.35013 
-10.4193 -9.36335 3.32185 -10.2337 -9.66253 4.2677 -9.87488 -10.2655 4.9973 
-9.4576 -11.0359 5.50631 -9.05083 -11.9059 5.83141 -8.69797 -12.8364 6.02706 
-8.41011 -13.7997 6.16272 -8.15926 -14.7707 6.31642 -7.8876 -15.7182 6.55525 
-7.52035 -16.5891 6.92115 -6.99916 -17.3067 7.41047 -6.3275 -17.823 7.96632 
-5.5508 -18.1537 8.52785 -4.71101 -18.3398 9.06514 -3.83591 -18.4126 9.57288 
-2.94548 -18.3833 10.0579 -2.05726 -18.2498 10.5292 -1.18619 -18.0136 10.9923 
-0.337496 -17.6962 11.4485 0.496762 -17.3368 11.9005 1.33113 -16.9815 12.3555 
2.17635 -16.6781 12.8273 3.0319 -16.4814 13.3351 3.8734 -16.4639 13.8995 
4.62875 -16.7036 14.5293 5.1875 -17.2262 15.1912 5.48593 -17.9604 15.8212 
5.55308 -18.8045 16.3782 5.44776 -19.6946 16.8523 5.2199 -20.6011 17.2458 
4.90941 -21.5132 17.5651 4.55073 -22.4281 17.8178 4.18808 -23.3227 18.0087 
3.84852 -24.299 18.1577 
LINES 1 65
64 0 1 2 3 4 5 6 7 8 9 10 11 12 13 14 15 16 17 18 19 20 21 22 23 24 25 26 27 28 29 30 31 32 33 34 35 36 37 38 39 40 41 42 43 44 45 46 47 48 49 50 51 52 53 54 55 56 57 58 59 60 61 62 63 

CELL_DATA 1
FIELD FieldData 2
Length 1 1 double
63.826856552 
Tortuosity 1 1 double
1.0874121456 
POINT_DATA 64
SCALARS MaximumInscribedSphereRadius float
LOOKUP_TABLE default
0.93 1.32823 1.50375 1.3158 1.24006 1.24 1.24 1.12609 0.978426 
1.13726 1.14068 0.98503 1.1284 1.14648 0.983173 1.10023 1.17316 1.02442 
1.01481 1.19748 1.4024 1.64504 1.61842 0.955571 1.14641 1.44907 1.73244 
1.51895 1.35125 1.48798 1.28576 1.24 1.26079 1.30485 1.37697 1.47994 
1.55361 1.34924 1.24 1.24 1.24185 1.48637 2.06085 2.01648 1.86268 
1.86 1.86 1.91542 2.23195 2.34753 1.98475 2.00972 2.18897 2.37853 
2.28038 1.95905 1.88652 1.64099 1.3444 1.55802 1.82314 1.86 1.86 
1.86 
TEXTURE_COORDINATES TCoords 2 float
0 0 0.015873 0 0.031746 0 0.047619 0 0.0634921 
0 0.0793651 0 0.0952381 0 0.111111 0 0.126984 0 
0.142857 0 0.15873 0 0.174603 0 0.190476 0 0.206349 
0 0.222222 0 0.238095 0 0.253968 0 0.269841 0 
0.285714 0 0.301587 0 0.31746 0 0.333333 0 0.349206 
0 0.365079 0 0.380952 0 0.396825 0 0.412698 0 
0.428571 0 0.444444 0 0.460317 0 0.47619 0 0.492063 
0 0.507937 0 0.52381 0 0.539683 0 0.555556 0 
0.571429 0 0.587302 0 0.603175 0 0.619048 0 0.634921 
0 0.650794 0 0.666667 0 0.68254 0 0.698413 0 
0.714286 0 0.730159 0 0.746032 0 0.761905 0 0.777778 
0 0.793651 0 0.809524 0 0.825397 0 0.84127 0 
0.857143 0 0.873016 0 0.888889 0 0.904762 0 0.920635 
0 0.936508 0 0.952381 0 0.968254 0 0.984127 0 
1 0 
FIELD FieldData 7
Curvature 1 64 double
0 0.10714968915 0.013955488698 0.054452150815 0.1308917073 0.21988276673 0.28569049883 0.27441784824 0.22867354474 
0.2137314132 0.2389567567 0.27180045085 0.26140892685 0.2126048552 0.15990842763 0.11520261545 0.080275503353 0.062169150624 
0.083903106572 0.16078560212 0.35004730472 0.7622037658 0.78371977104 0.43893415542 0.29980957084 0.23525485242 0.17558628465 
0.12679926311 0.22455155389 0.55309122305 0.65273714344 0.41982495017 0.28144356497 0.20602666841 0.1493599685 0.091884495692 
0.040710615064 0.088352469678 0.17301595005 0.24713908623 0.25754605134 0.20999333778 0.15619722787 0.11931664683 0.10302018914 
0.10244489127 0.10177504573 0.082263241277 0.043360377099 0.0049364378001 0.054079615656 0.11026019068 0.18496008688 0.27725398162 
0.34804598135 0.33839548037 0.26404259319 0.19332603733 0.14428488158 0.10834328254 0.079993987988 0.057638725165 0.071051888215 
0 
Torsion 1 64 double
0 0 -3.0537756532 -0.19503376234 -0.058491345563 -0.046202150177 -0.062487462842 -0.11530688448 -0.2004756804 
-0.22016243901 -0.13908043901 -0.049408578674 0.014968399911 0.072177972253 0.13559625623 0.22946329755 0.4390623438 0.80549019172 
0.58236875195 0.27318825718 0.15339207707 0.093156544488 0.10083675889 0.12433022293 0.020313454712 -0.1242556382 -0.38744123328 
-1.200821702 -0.72527952723 -0.18206555948 -0.099758305773 -0.10248087088 -0.14188847481 -0.20778618086 -0.28785202658 -0.49970929335 
-2.0707767211 -0.59926332696 -0.24739761034 -0.15143239399 -0.12196257867 -0.10884768879 -0.06750786779 0.03059018383 0.1335755092 
0.13268880951 0.073889052086 0.03146711734 0.04767698809 4.3597625919 -0.050707833841 -0.075808425506 -0.08190415389 -0.068269455224 
-0.046421797682 -0.02402517978 0.0041844629935 0.038866818063 0.078970305849 0.13645347519 0.24881958788 0.75300032491 0 
0 
Abscissas 1 64 double
0 1.0440067459 2.0283508325 3.0430793123 4.0581069388 5.0720365922 6.0850116362 7.0975854909 8.1107819324 
9.1243562073 10.137849207 11.150902504 12.163732072 13.177017751 14.190823344 15.205008297 16.219396537 17.233897266 
18.248409283 19.262725989 20.276078036 21.285222527 22.281825628 23.291219917 24.303187378 25.316234852 26.329834521 
27.343937312 28.358086399 29.370196865 30.373725989 31.382977022 32.395199116 33.408484268 34.422387148 35.436615453 
36.451145329 37.465686146 38.479901659 39.493439478 40.506347978 41.519628306 42.53349368 43.547677467 44.562018151 
45.57638691 46.590737047 47.605117592 48.619625531 49.634224272 50.648810987 51.663277657 52.67740543 53.690820931 
54.703075916 55.714679094 56.727173022 57.74065972 58.754608776 59.768845838 60.783857529 61.798486658 62.782503227 
63.826879559 
ParallelTransportNormals 3 64 double
0.31908738972 0 0.94772529655 0.31061815675 0.0022677153669 0.95053207109 0.31553248706 0.00061431813435 0.94891457583 
0.33078054376 -0.0041849174049 0.94369842552 0.35657447859 -0.0097093444781 0.934216447 0.39035711412 -0.010607339165 0.92060241571 
0.41948165452 -0.0032964037094 0.90775782852 0.42489534689 -4.655832347e-06 0.9052424781 0.40331214071 -0.022171823567 0.91479381688 
0.36175838665 -0.085235045728 0.92836730698 0.30938793834 -0.19959455449 0.92975325621 0.26389768835 -0.3545524404 0.89702317534 
0.24430785227 -0.50012114526 0.83077825765 0.24761633344 -0.60074403126 0.76012680542 0.25963457561 -0.657177633 0.70760684411 
0.2692136709 -0.68113189245 0.68086955027 0.26946118902 -0.6815633584 0.6803396623 0.2549772638 -0.6609438053 0.70579025296 
0.21782193906 -0.61170378144 0.7605077821 0.14139243846 -0.50408170965 0.85200340864 -0.0067758755923 -0.23693521644 0.97150182229 
-0.16567198208 0.35736867514 0.91915201375 -0.073617518787 0.82239788966 0.56412957023 0.089192462783 0.94802093281 0.30545214934 
0.2343992007 0.96188331842 0.14084564763 0.36813241482 0.92954797919 0.02047143223 0.48532013931 0.87140693748 -0.071514416018 
0.56887474827 0.81053574535 -0.13933171315 0.59637788226 0.78432780835 -0.17077268691 0.55929665588 0.82579238649 -0.072485758187 
0.56216756459 0.81383260265 0.14711942147 0.61256087515 0.73032296455 0.30232026345 0.67162010496 0.62581323377 0.39659076017 
0.72929504883 0.51100683451 0.4549733474 0.77726129382 0.39731705211 0.48785657855 0.80621900081 0.31172453797 0.50283072218 
0.81227668406 0.2899742481 0.5060845028 0.79528692608 0.35235348475 0.49332111954 0.74337923199 0.50008299377 0.4441895055 
0.63527561052 0.69335284688 0.34012751785 0.48303208535 0.85084799768 0.20673095892 0.3334578721 0.93833018307 0.091336274684 
0.21130468994 0.97738499003 0.0083011613438 0.11259692032 0.99228698145 -0.051850554226 0.02295076305 0.99449323015 -0.10225691989 
-0.068025362889 0.98616419537 -0.15117119361 -0.15683712707 0.96750335322 -0.19834156668 -0.22672594732 0.94500766211 -0.23570291338 
-0.26271322773 0.93053416775 -0.25512334787 -0.25888856452 0.93217227001 -0.25304460117 -0.21370351045 0.94989303655 -0.22810968577 
-0.12096272692 0.97716447709 -0.17469288309 0.031735895672 0.99643106554 -0.078217418528 0.24142482979 0.96723023258 0.078611250709 
0.45199756961 0.84506268006 0.28559983165 0.58351918097 0.65226107839 0.48379835784 0.62734957028 0.46309818173 0.62607714441 
0.62395112882 0.3085508103 0.71797032411 0.60125735656 0.18616558578 0.77706625577 0.57286491266 0.090244105376 0.81466667619 
0.54612002386 0.017228203169 0.83752976577 0.52644095722 -0.032124550364 0.8496045738 0.51951291195 -0.050541179661 0.852966543 
0.51951291195 -0.050541179661 0.852966543 
FrenetTangent 3 64 double
-0.92030743238 0.24479139897 0.30514160795 -0.92030743238 0.24479139897 0.30514160795 -0.90475052611 0.30450478385 0.29783102948 
-0.90681296669 0.28541116234 0.31021075393 -0.92017856972 0.19711582533 0.33825545264 -0.92723866922 0.024699885704 0.37365541069 
-0.89175760187 -0.22382361727 0.393282809 -0.79413306546 -0.48291633803 0.368977621 -0.66655449013 -0.6846159881 0.29496789745 
-0.54154132271 -0.82185194501 0.17689651289 -0.41635022765 -0.90913730632 0.011038396341 -0.27607296197 -0.94039113528 -0.19861579079 
-0.12156042852 -0.90342593246 -0.41115039436 0.026915476564 -0.81810001478 -0.57444575282 0.15404155008 -0.72328892468 -0.67314510493 
0.25782511966 -0.64471843805 -0.71962792004 0.34057082116 -0.59366710277 -0.7290890802 0.40441550207 -0.57573108151 -0.7106207311 
0.45060305616 -0.59715968437 -0.66359415093 0.4758674698 -0.67006274562 -0.56970700199 0.45177238069 -0.81422746372 -0.3646030079 
0.25847758018 -0.96245839077 0.082844351497 -0.15692366519 -0.78391147857 0.60071437228 -0.49283486215 -0.37990577939 0.78280610463 
-0.66025160989 -0.062919362469 0.74840427943 -0.73154179787 0.17688697092 0.65845090742 -0.73278731605 0.36355955367 0.57519318527 
-0.67580036952 0.49236260121 0.54851885062 -0.55778976756 0.53148121283 0.63749376123 -0.32906032361 0.36784011279 0.86972004395 
0.013536991554 -0.055105779251 0.99838875342 0.27506493679 -0.45580574679 0.84651072158 0.38695695618 -0.68475071802 0.6175603357 
0.40868186897 -0.81354499288 0.41367097378 0.37561170209 -0.8902880431 0.25749378551 0.31616801457 -0.9345103397 0.16348764955 
0.26555012512 -0.95348731733 0.14263613405 0.2578063567 -0.94658663226 0.19367403047 0.31628885818 -0.90018882813 0.29936838827 
0.44179359727 -0.78991156971 0.4252741815 0.59362818051 -0.6140569093 0.5201343052 0.71848218407 -0.42016799123 0.55429433546 
0.7995446103 -0.25561842317 0.543495757 0.84692751936 -0.12786202101 0.51610568737 0.87144838914 -0.021471621686 0.49001701453 
0.8779152287 0.08035557918 0.4720252452 0.86833448013 0.18247386292 0.46119249774 0.84838226503 0.27309833178 0.45350284845 
0.8296130343 0.33362918772 0.44769831185 0.82229689205 0.35220269901 0.44696876864 0.8280911033 0.32475986711 0.45694217725 
0.83971126201 0.24691201124 0.48365220476 0.84063139511 0.10610416809 0.53111275928 0.79590045967 -0.11074891474 0.59521184143 
0.65899272528 -0.38227719954 0.64775977857 0.42948698696 -0.62971492661 0.64730212362 0.18202597865 -0.78585159027 0.59101930693 
-0.018915281769 -0.8593919893 0.51096733834 -0.16471646853 -0.88819769325 0.42892113809 -0.26570323382 -0.89757264578 0.35180269625 
-0.3299607537 -0.90087462649 0.28204752855 -0.3610540025 -0.90572549824 0.22203902611 -0.34642134165 -0.92297067497 0.16768239979 
-0.34642134165 -0.92297067497 0.16768239979 
FrenetNormal 3 64 double
0.20443053797 0.96598475099 -0.15837176516 0.20443053797 0.96598475099 -0.15837176516 0.38792290627 0.87783676287 0.28092425409 
-0.15942122514 -0.91345673924 0.37440841139 -0.11049017611 -0.95963258232 0.25864498437 0.03509936015 -0.98769692265 0.15239036681 
0.24679177148 -0.96903468025 0.0081000003689 0.44745659956 -0.87543831174 -0.18273027621 0.55541704635 -0.72001562932 -0.41604014008 
0.56277662028 -0.51072641829 -0.64995461483 0.54304668678 -0.25839530858 -0.79895692029 0.55510561164 0.012692306605 -0.83168303173 
0.59899072333 0.26352785649 -0.75615023786 0.65076169933 0.45054808826 -0.61115925163 0.71345336004 0.55274208963 -0.43065123407 
0.7966428225 0.56328987989 -0.2192366862 0.89836469121 0.43425672981 0.066045243644 0.8699872991 0.002522419496 0.49306767974 
0.43728272997 -0.50041111173 0.74724328925 0.068362368916 -0.61761089404 0.78350709638 -0.20275935784 -0.49170187153 0.84682814806 
-0.49569833343 -0.05853826157 0.86651972521 -0.63562600203 0.54569683803 0.5460719243 -0.54565294237 0.835710738 0.062051823995 
-0.37570761823 0.89050916131 -0.25658764435 -0.1512540905 0.89958856537 -0.40971040158 0.16216564541 0.91425373256 -0.37127135084 
0.64330074612 0.7572508188 0.11285099676 0.70371657868 -0.10439682614 0.70276900869 0.6077760503 -0.62239308154 0.49318873135 
0.57331265932 -0.81762702871 -0.052902141575 0.41925469061 -0.73548044482 -0.53225371739 0.20512299707 -0.58903016491 -0.78164443381 
-0.051469420893 -0.47307274258 -0.87951866321 -0.35368821496 -0.39451128474 -0.84809521447 -0.68999749589 -0.34478141384 -0.63641906974 
-0.88413527664 -0.18185159623 0.43038913736 0.23046623248 0.2549102752 0.93909853971 0.54281265891 0.43053423517 0.72110657303 
0.61715768406 0.61165545072 0.49496868852 0.5780507193 0.77504499159 0.25526971407 0.49022942643 0.87123550164 0.024976191766 
0.39372894623 0.90641920955 -0.15291086771 0.28756012858 0.92659994216 -0.24232564793 0.14473327313 0.96581332772 -0.21507416315 
-0.02065627898 0.99125563594 -0.13032874721 -0.16475882516 0.9831815928 -0.078793940855 -0.26540624431 0.96064384317 -0.081993487859 
-0.32651390477 0.94033549524 -0.09569653279 0.023792350781 -0.80604466902 0.59137628934 0.19796720564 -0.93199732541 0.30362801406 
0.093276233204 -0.94299490664 0.31946854364 -0.071146877782 -0.95049164196 0.30249588485 -0.30546903173 -0.92227200943 0.23686074237 
-0.56703515466 -0.8183198876 0.093934524734 -0.77351312299 -0.62643834662 -0.096189637935 -0.8693792463 -0.40943978641 -0.27665644291 
-0.87628889308 -0.23182542747 -0.42234434652 -0.83009335494 -0.11004650804 -0.54665783462 -0.74102949824 -0.043273196157 -0.67007664728 
-0.58732712967 -0.03799472928 -0.80845732312 -0.26166369171 -0.13014006966 -0.95634495592 0.6034975525 -0.35612420022 -0.71341871166 
0.6034975525 -0.35612420022 -0.71341871166 
FrenetBinormal 3 64 double
-0.33353018613 -0.083370449484 -0.93904578328 -0.33353018613 -0.083370449484 -0.93904578328 -0.17590424753 0.36970184522 -0.91234765377 
0.39022444365 0.29006422384 0.87383501282 0.37558397306 0.20062566725 0.9048126993 0.37282232392 0.15441730675 0.91496382998 
0.37929170968 0.10428219803 0.9193818696 0.41126058144 0.019989317208 0.91129861261 0.49720922791 -0.11348322507 0.86017704068 
0.6245121868 -0.25242406015 0.73909852009 0.72921381221 -0.32665153108 0.60128694758 0.78462824292 -0.33985793802 0.51851239366 
0.79147531584 -0.33819321905 0.50910919359 0.75880482854 -0.35737765176 0.54451487235 0.68356089992 -0.41391945326 0.60117816187 
0.54670505854 -0.51676169252 0.65884059689 0.27740295126 -0.67748096925 0.68122473453 -0.28208190493 -0.81763522379 0.50189883416 
-0.77829345356 -0.62688837174 0.035640840729 -0.87685616705 -0.41179205977 -0.24809385686 -0.86878671655 -0.30864689674 -0.38722956277 
-0.82913961598 -0.26504172872 -0.4922198485 -0.7558799831 -0.296138067 -0.58390726698 -0.67777331397 -0.39655915217 -0.61916409271 
-0.65031653619 -0.45059359456 -0.61159939119 -0.66480733906 -0.39931367691 -0.63133175855 -0.66085176318 -0.17878636258 -0.72891040853 
-0.35980273844 0.42912733117 -0.82848761189 0.44006085044 0.84061229059 -0.31578065934 0.7227223368 0.69088385672 -0.018759542066 
0.81922484369 0.5731050471 0.020524630664 0.86519638519 0.5013079258 -0.011206184714 0.89899325367 0.42913857785 -0.087471200182 
0.91122446669 0.33815192561 -0.23520894225 0.85663323299 0.22748196968 -0.46306744391 0.65110770402 0.08840928492 -0.75381864935 
-0.38443197533 -0.24039952711 -0.89130248721 -0.93830762447 -0.19747024897 0.28387374418 -0.77802042102 -0.065577023783 0.62480707297 
-0.65110276487 0.043787231512 0.75772545683 -0.55987761987 0.14912871335 0.81504458628 -0.49341509973 0.25378644533 0.8319458994 
-0.45354815956 0.33624907182 0.82536696606 -0.44723925298 0.3536436777 0.82153100965 -0.46864697238 0.25834779942 0.84476412673 
-0.47837032658 0.10466730676 0.87189826559 -0.46781380927 -0.0075660384319 0.88379465653 -0.45804700398 -0.050800666845 0.88747520213 
-0.45291377029 -0.066788633021 0.88904915229 0.56856111841 -0.47565244702 -0.67118775635 0.52447508056 -0.16097209118 -0.83607049687 
0.53496218631 -0.22314807811 -0.81487446546 0.53691431285 -0.29207455227 -0.79146413474 0.52271515087 -0.37033635861 -0.76786708 
0.49416568214 -0.42920473468 -0.75603146385 0.46606692288 -0.45938448939 -0.75613987748 0.45939772441 -0.46346125984 -0.75773174108 
0.48141456976 -0.45574376563 -0.74869061174 0.53274150118 -0.44608813453 -0.71916053086 0.61666609625 -0.43873770758 -0.65362997918 
0.73903500849 -0.43241335304 -0.51657133906 0.89508218601 -0.40339172538 -0.19000788451 0.71818031035 -0.14594754938 0.68037956661 
0.71818031035 -0.14594754938 0.68037956661 
