# vtk DataFile Version 4.2
vtk output
ASCII
DATASET POLYDATA
POINTS 64 float
0 0 0 -0.827681 0.188902 0.613051 -1.70803 0.357177 0.994664 
-2.67897 0.459054 1.30015 -3.66336 0.406119 1.5341 -4.60976 0.114407 1.74762 
-5.44936 -0.401236 1.98734 -6.21152 -0.999081 2.28923 -6.97656 -1.55823 2.65145 
-7.78674 -2.03522 3.03247 -8.65763 -2.43253 3.36815 -9.59108 -2.7797 3.55733 
-10.5311 -3.12242 3.41219 -11.2426 -3.46655 2.78642 -11.5713 -3.76263 1.87472 
-11.6263 -3.99365 0.889028 -11.5017 -4.18903 -0.0984216 -11.2287 -4.42451 -1.04626 
-10.8216 -4.76196 -1.91142 -10.3146 -5.17766 -2.6855 -9.7421 -5.62787 -3.39136 
-9.12277 -6.09361 -4.04836 -8.45908 -6.5836 -4.6338 -7.72129 -7.15701 -5.00103 
-7.30116 -7.64977 -4.31311 -7.44986 -7.7528 -3.2929 -7.69742 -7.79511 -2.31244 
-8.01351 -7.78377 -1.34888 -8.35407 -7.68841 -0.397861 -8.62416 -7.45817 0.551934 
-8.68908 -7.1253 1.50706 -8.51709 -6.85395 2.46841 -8.1955 -6.797 3.4277 
-7.83251 -7.04832 4.33901 -7.52115 -7.65234 5.08849 -7.31583 -8.53715 5.53334 
-7.21047 -9.53884 5.64461 -7.15747 -10.5464 5.54027 -7.11452 -11.5453 5.36731 
-7.05389 -12.5529 5.26725 -6.96088 -13.5583 5.35656 -6.83335 -14.5249 5.63618 
-6.659 -15.4452 6.02568 -6.40182 -16.3236 6.46298 -6.00076 -17.1372 6.91612 
-5.39114 -17.8063 7.37117 -4.57978 -18.2166 7.81685 -3.67421 -18.3503 8.2527 
-2.76553 -18.306 8.70148 -1.88246 -18.1824 9.18543 -1.02491 -18.0389 9.70829 
-0.183412 -17.9042 10.2589 0.654438 -17.7854 10.8186 1.4975 -17.6753 11.3723 
2.34541 -17.5606 11.9175 3.19239 -17.4355 12.4619 4.03475 -17.3095 13.0133 
4.87146 -17.2084 13.5782 5.69834 -17.1786 14.1651 6.49234 -17.2989 14.784 
7.17353 -17.6853 15.4249 7.59387 -18.4012 16.0146 7.71786 -19.2596 16.4567 
7.61306 -20.2454 16.7955 
LINES 1 65
64 0 1 2 3 4 5 6 7 8 9 10 11 12 13 14 15 16 17 18 19 20 21 22 23 24 25 26 27 28 29 30 31 32 33 34 35 36 37 38 39 40 41 42 43 44 45 46 47 48 49 50 51 52 53 54 55 56 57 58 59 60 61 62 63 

CELL_DATA 1
FIELD FieldData 2
Length 1 1 double
63.809468781 
Tortuosity 1 1 double
1.3301108964 
POINT_DATA 64
SCALARS MaximumInscribedSphereRadius float
LOOKUP_TABLE default
0.93 1.32692 1.4751 1.30495 1.25638 1.2628 1.33998 1.47975 1.34095 
1.06488 1.19527 1.17692 0.759481 1.10077 1.24 1.0897 0.889119 0.919969 
0.93 0.93 0.959627 1.14301 1.43091 1.74714 1.48783 1.29018 1.43144 
1.46646 1.2533 1.01969 1.23523 1.54809 1.51649 1.3316 1.24 1.37892 
1.76955 1.86 1.81414 1.6187 1.55013 1.56956 1.75387 1.85448 1.86 
1.50989 1.24 1.24 1.24 1.24 1.24 1.24 1.27424 1.47332 
1.67939 1.8396 1.67594 1.55771 1.58669 1.73358 1.93863 2.09101 2.00865 
1.86 
TEXTURE_COORDINATES TCoords 2 float
0 0 0.015873 0 0.031746 0 0.047619 0 0.0634921 
0 0.0793651 0 0.0952381 0 0.111111 0 0.126984 0 
0.142857 0 0.15873 0 0.174603 0 0.190476 0 0.206349 
0 0.222222 0 0.238095 0 0.253968 0 0.269841 0 
0.285714 0 0.301587 0 0.31746 0 0.333333 0 0.349206 
0 0.365079 0 0.380952 0 0.396825 0 0.412698 0 
0.428571 0 0.444444 0 0.460317 0 0.47619 0 0.492063 
0 0.507937 0 0.52381 0 0.539683 0 0.555556 0 
0.571429 0 0.587302 0 0.603175 0 0.619048 0 0.634921 
0 0.650794 0 0.666667 0 0.68254 0 0.698413 0 
0.714286 0 0.730159 0 0.746032 0 0.761905 0 0.777778 
0 0.793651 0 0.809524 0 0.825397 0 0.84127 0 
0.857143 0 0.873016 0 0.888889 0 0.904762 0 0.920635 
0 0.936508 0 0.952381 0 0.968254 0 0.984127 0 
1 0 
FIELD FieldData 7
Curvature 1 64 double
0 0.22499859985 0.12752436643 0.16595204331 0.23982634968 0.24657313915 0.12580582599 0.069776816449 0.093111641227 
0.10716828865 0.16351188881 0.33542815486 0.5611417147 0.49815377877 0.28907431176 0.17952170016 0.15528715202 0.18408169344 
0.15276589972 0.098090136621 0.067446513174 0.085308181636 0.24480994657 1.7107171871 0.90919445613 0.11507161374 0.086518140905 
0.086075568799 0.14876084349 0.22618607582 0.24185875798 0.25883572545 0.31427790108 0.39697322457 0.43749693624 0.37059387619 
0.21855306611 0.067986291344 0.073470864687 0.18855241829 0.19370609543 0.1249987528 0.1017339149 0.15513983741 0.25092956535 
0.32863403881 0.29084988471 0.17490627952 0.088060555678 0.049197849432 0.032302159841 0.01814434724 0.011446594393 0.010505068301 
0.010174233862 0.0081937955488 0.028062029599 0.073222368958 0.15352438823 0.2884105884 0.42945421521 0.37270081896 0.27097981643 
0 
Torsion 1 64 double
0 0 0.77460345183 0.45142103742 0.25638084733 0.23108710825 0.6953262617 1.3828566432 0.61560224436 
0.7068905521 0.58476977148 0.23308971245 0.086518695416 0.036094537834 0.022506810581 0.27294283466 0.48588925818 0.16057950755 
-0.03218376725 -0.13635608147 0.011542333921 0.29637494943 0.160836798 0.025290644 0.04450183775 0.51075469378 -0.36676274087 
-0.86856921031 -0.61646252967 -0.51586793837 -0.61530247021 -0.51854492189 -0.25393237147 -0.05571116454 0.02951303392 0.056918312792 
0.075529011053 0.20975200169 0.11493952339 -0.0008392579389 -0.08198455568 -0.38818452907 -0.59313182115 -0.11350521304 0.065918710554 
0.10293334654 0.14835967076 0.28976084559 0.58023340563 0.74309551373 0.65794194998 0.90002788989 1.1800490506 0.9427398718 
0.85150980956 2.1532168397 0.38536315915 0.065055743492 -0.0051354897734 -0.015146614384 -0.010437755836 -0.0098143415423 0 
0 
Abscissas 1 64 double
0 1.0471728001 2.0213225072 3.0442701026 4.0574583163 5.0705586801 6.0845993698 7.0992128798 8.1136797857 
9.1281159782 10.142503274 11.156236028 12.167294691 13.175365922 14.188720464 15.202620876 16.216898109 17.230972506 
18.244964035 19.259369247 20.273605034 21.289538777 22.301135038 23.305122811 24.249872965 25.285993665 26.298104396 
27.312254479 28.326903292 29.340839948 30.354385847 31.367994617 32.38136053 33.393983864 34.405661385 35.417068669 
36.430415632 37.444796694 38.459451637 39.473797588 40.487456254 41.50166478 42.516111014 43.530514105 44.544470331 
45.55756506 46.570156859 47.584012983 48.598435891 49.612976716 50.627553156 51.642148772 52.656751111 53.671354049 
54.685957314 55.700560965 56.71516472 57.729746427 58.744192009 59.75803993 60.770019933 61.788346695 62.761801507 
63.809533351 
ParallelTransportNormals 3 64 double
0.59519895402 0 0.80357837523 0.40381129227 0.039894215264 0.91397204105 0.30487422778 0.054435823466 0.95083565686 
0.22798495832 0.056331148857 0.97203377537 0.20446348029 0.052132419266 0.9774849851 0.23602290221 0.06639648468 0.9694765064 
0.29313163144 0.1060951471 0.95016717814 0.33814258121 0.14019513111 0.9305938534 0.34868707933 0.14713106292 0.92561858831 
0.3065664485 0.12522488721 0.94357603842 0.17302387046 0.070126811689 0.98241792051 -0.13676551915 -0.043945958659 0.98962818548 
-0.57864787266 -0.22775703817 0.78313049426 -0.82446419051 -0.37893862392 0.42031454634 -0.87811180441 -0.45262650072 0.15507710919 
-0.87217287973 -0.48901659761 -0.013312968398 -0.85072502011 -0.51225988726 -0.11771468925 -0.82680875476 -0.53240672016 -0.18146726254 
-0.80116547641 -0.55353372466 -0.22745174228 -0.77544496349 -0.57416588032 -0.2627140089 -0.75216487095 -0.59205766126 -0.28933671156 
-0.72727406909 -0.6105985659 -0.31343551131 -0.67710815984 -0.64866653452 -0.34750002427 -0.48970378881 -0.82227323832 -0.28992571594 
-0.46613343023 -0.87087308804 -0.15588357757 -0.46624747979 -0.87091459328 -0.15530955796 -0.46958517907 -0.87109836709 -0.14379636454 
-0.48872772381 -0.86798862542 -0.087982714926 -0.53393377257 -0.84387991484 0.052739130076 -0.56627467203 -0.78950980442 0.23665853996 
-0.56182680436 -0.7644080473 0.31627674452 -0.58117885433 -0.77727837557 0.24097606966 -0.65093084019 -0.75746308969 0.050385603601 
-0.75102103475 -0.6304814385 -0.19611364325 -0.83465475185 -0.38947237689 -0.38943897193 -0.87519673625 -0.14338557031 -0.46202949157 
-0.88659948652 0.0012634316189 -0.46253621939 -0.8884968971 0.040944298463 -0.45705232552 -0.88600757025 -0.007278359501 -0.46361364404 
-0.87722071816 -0.1223900383 -0.46422461175 -0.86386454943 -0.24181847617 -0.44188444736 -0.84911064112 -0.33403738948 -0.40918228403 
-0.8272706835 -0.42507213884 -0.36733757363 -0.77819233896 -0.55122276642 -0.30094874208 -0.65691268616 -0.72911607677 -0.19197778349 
-0.42971503626 -0.9016895904 -0.047967386572 -0.1826472899 -0.98000823727 0.078891205927 -0.02799532659 -0.98762746182 0.15429924933 
0.03483786761 -0.98174043244 0.18700814501 0.046057582909 -0.9800190218 0.19349784488 0.035098161199 -0.98181378966 0.18657385002 
0.021048340958 -0.98393451714 0.17728461105 0.014862794853 -0.98477673882 0.17318738985 0.019734902991 -0.98412901078 0.17635368936 
0.028341408207 -0.98291094539 0.18188688248 0.028067325673 -0.98295169071 0.18170910533 0.006194735445 -0.98590890455 0.16716834984 
-0.053568729214 -0.99060942137 0.1257909597 -0.17602739761 -0.98377376411 0.034692021285 -0.38350147714 -0.91247986181 -0.14250304848 
-0.61094562997 -0.68525416794 -0.39644944514 -0.70760899854 -0.40163901462 -0.58135669526 -0.71123901209 -0.15968717253 -0.68457218364 
-0.71123901209 -0.15968717253 -0.68457218364 
FrenetTangent 3 64 double
-0.85037696077 0.17782772271 0.49521341423 -0.85037696077 0.17782772271 0.49521341423 -0.92885949488 0.1355451397 0.34474273578 
-0.96370775093 0.024121647606 0.26586747998 -0.9597774235 -0.17132078072 0.22243310777 -0.88779450616 -0.40132441882 0.22529896958 
-0.79116563359 -0.5499907855 0.26752023491 -0.75312746863 -0.5705630366 0.3275008966 -0.77725330018 -0.51125719705 0.36673339883 
-0.82981095942 -0.43157256376 0.35377802905 -0.89269396343 -0.36833022754 0.25967350873 -0.93816942986 -0.3454732338 0.022053698108 
-0.84792820756 -0.35264440783 -0.39580257257 -0.52974283009 -0.32604003665 -0.78298814069 -0.19124926183 -0.26272507152 -0.9457268404 
0.03445693044 -0.21110087064 -0.97685676655 0.19662308571 -0.21307091051 -0.95704762121 0.33679283589 -0.28372084534 -0.8978157203 
0.45199759444 -0.37241231404 -0.81055983306 0.53278007854 -0.42736409579 -0.73041448338 0.58739983398 -0.45143092295 -0.67169305255 
0.63338996318 -0.47181630515 -0.61335677117 0.70051709063 -0.53153092239 -0.47618345655 0.72084213909 -0.66372474117 0.19963987197 
0.14837896872 -0.32569239677 0.93376021779 -0.19379807505 -0.071081308795 0.97846295466 -0.27843892372 -0.015299007627 0.96033208117 
-0.32397285535 0.052643054086 0.94460060229 -0.30187311243 0.16095950182 0.93966199389 -0.16630289602 0.27953391001 0.94562367775 
0.053207266158 0.30026056794 0.95237207969 0.24555726081 0.16333009982 0.95552336976 0.34205174291 -0.097117270566 0.93464904693 
0.33953554822 -0.43066393485 0.83620821971 0.261296218 -0.75293406769 0.60399882134 0.15603045663 -0.94744301282 0.27929596142 
0.078571366793 -0.99690256214 0.003438303168 0.047317309109 -0.9894750034 -0.13674900329 0.051084093164 -0.98957566488 -0.13464924395 
0.076101590948 -0.99708585194 -0.0053246337489 0.10927024463 -0.97706035245 0.18279245418 0.14910159031 -0.93195936211 0.33048519352 
0.21298403765 -0.88775858097 0.40807168687 0.32551744989 -0.83673959968 0.4403467181 0.50254128416 -0.73724327371 0.4515801292 
0.71088059831 -0.53999722223 0.4506126662 0.85623311715 -0.27129316578 0.43961900243 0.89796037048 -0.044248070994 0.43784618448 
0.88396177713 0.082833683177 0.46016318573 0.8580870816 0.13167406439 0.49633506944 0.83741689612 0.13711767181 0.52908570777 
0.82763069273 0.1249320385 0.54719230826 0.82837520035 0.11280439612 0.54869818267 0.83333476594 0.11078464752 0.54155325661 
0.83527758217 0.11817919552 0.53697768899 0.8325105077 0.1237429135 0.54001291275 0.82752208596 0.11192445575 0.55016371514 
0.82045768582 0.064557640886 0.56805061111 0.80153278864 -0.044752612067 0.59627375629 0.73575547604 -0.25271838751 0.62832897124 
0.5547451716 -0.55513227974 0.61974667936 0.2778018268 -0.80345195447 0.526584373 0.0095814579659 -0.92080658539 0.38990181837 
0.0095814579659 -0.92080658539 0.38990181837 
FrenetNormal 3 64 double
-0.50815296805 -0.033350039885 -0.86062090139 -0.50815296805 -0.033350039885 -0.86062090139 -0.35686716526 -0.57697631208 -0.73467282627 
-0.13400199916 -0.90506429064 -0.40361131553 0.15617742657 -0.9841415122 -0.0841076417 0.43150196058 -0.89607871745 0.10415848573 
0.60423296921 -0.6351980003 0.48106758292 -0.041738137763 0.5382536078 0.84174876391 -0.47232762484 0.85918777628 0.19673072946 
-0.55250876975 0.7244558174 -0.41218664217 -0.37815221005 0.29877222201 -0.87620549267 -0.027352868206 0.010470819042 -0.99957099925 
0.42456235906 -0.004661967186 -0.90538669602 0.80319231807 0.1037524748 -0.5866153119 0.94124800397 0.22414267708 -0.25261087729 
0.9807589378 0.1950762026 -0.0075618186463 0.93507259615 -0.25285475314 0.24840232234 0.7148289006 -0.54358280167 0.43992883582 
0.63820562927 -0.49983884672 0.58553795955 0.65159009152 -0.3435701305 0.67630608311 0.66024041346 -0.21266973718 0.72031533326 
0.53843073295 -0.30058385753 0.78723674355 0.32439755143 -0.35716284092 0.87590007061 -0.2411330802 0.029889072933 0.97003169069 
-0.76878844916 0.55593412154 0.31607210086 -0.86082894077 0.49070214551 -0.13485154477 -0.76678726266 0.60564599874 -0.21267397121 
-0.27495267681 0.95011469395 -0.14725180428 0.46164738659 0.88705604934 -0.0036408478543 0.8938250569 0.4477272219 0.024841546477 
0.96757285001 -0.25133362674 0.02518308953 0.57244578067 -0.81991302445 -0.0069613595523 0.13236007116 -0.97974886368 -0.15024305537 
-0.1310566772 -0.90201117053 -0.41133927068 -0.24778224768 -0.65709057972 -0.71192410254 -0.27297013423 -0.31310735791 -0.9096433852 
-0.23625975644 -0.021971417463 -0.97144149814 -0.14402520336 0.12871349571 -0.98116745605 0.23432470557 -0.11918508676 0.96482477552 
0.16882755631 0.0076222129728 0.98561613121 0.17462726589 0.19990271989 0.96412873652 0.3653324 0.36249317645 0.85739776915 
0.79342507665 0.40088205355 0.45800679785 0.90807707098 0.40643574758 0.10102482986 0.82366867433 0.56699906088 0.0090542746305 
0.61576114953 0.78744319608 -0.027774443076 0.3184124647 0.94728414541 -0.035584409239 0.014515416115 0.99736901858 0.071023541624 
-0.28425507337 0.8766204521 0.38824687537 -0.50484227531 0.39310488091 0.76850688329 -0.48370051659 -0.26481154483 0.83421139765 
-0.19392712143 -0.85122152056 0.48766196747 0.43922552792 -0.73873137732 -0.51123075787 0.4524976111 0.42598854176 -0.78344091943 
-0.090661119462 0.99286273207 -0.077486493623 -0.55216412594 0.10584254107 0.82698980316 -0.19461263623 -0.86198713554 0.46808556909 
-0.12874736277 -0.94721742757 0.29360391941 -0.20664680327 -0.95648494572 0.20599428949 -0.38429816947 -0.91972931414 0.080080619727 
-0.62470662373 -0.76988844882 -0.1304354654 -0.79344164738 -0.50092677287 -0.34572058144 -0.84571800991 -0.21551106707 -0.48817622605 
-0.84571800991 -0.21551106707 -0.48817622605 
FrenetBinormal 3 64 double
-0.1365268679 -0.98349635275 0.11872379066 -0.1365268679 -0.98349635275 0.11872379066 0.099327061434 -0.80543519317 0.58430153557 
0.23089139225 -0.42459012697 0.87544982098 0.23331504188 -0.045985585294 0.97131324359 0.16008426795 0.18968827849 0.96870603599 
-0.094654419555 0.54224868491 0.83486939372 -0.65654926994 0.62027483824 -0.42918781575 -0.41567285474 -0.020308706499 -0.90928743215 
-0.078408105302 -0.5375024566 -0.83960900315 0.24514973729 -0.88037946525 -0.4059970486 0.34509410524 -0.93837018637 -0.019273086164 
0.31743433667 -0.93574579224 0.15367255518 0.27249703512 -0.93964531525 0.20691072319 0.2783449566 -0.93847514464 0.20442232762 
0.192157815 -0.95780044769 0.21376079281 -0.294921349 -0.94375063492 0.14951968765 -0.61285416581 -0.78994950449 0.019737066639 
-0.62321083863 -0.78196559749 0.011749678902 -0.53997753707 -0.83625324816 0.095418889178 -0.46802140066 -0.8665920059 0.1731307709 
-0.55579627595 -0.82887798787 0.063653600549 -0.63564300859 -0.76805571648 -0.077771344472 -0.64980108353 -0.74737949616 -0.13850068798 
-0.62205144649 -0.76476252209 -0.16789962098 -0.47054844686 -0.86842319864 -0.15628597898 -0.57836758171 -0.79558711942 -0.18036650422 
-0.90523069685 -0.3074260516 -0.29333702167 -0.83411888508 0.43269342969 -0.34208490388 -0.41643740759 0.84935335869 -0.32431274665 
0.24692461755 0.92014944406 -0.30389674864 0.78230905649 0.54869473373 -0.29483322288 0.93031253713 0.17510111331 -0.32227035759 
0.93141814394 0.03007363405 -0.36270624158 0.93291384607 0.03636288995 -0.35825897901 0.94928489002 0.065692616684 -0.30747793042 
0.96850806285 0.075515153599 -0.23725428083 0.98844211417 0.066121506813 -0.13641896232 -0.97081530055 -0.080838843164 0.22579356424 
-0.98270331438 -0.075905900553 0.16891563035 -0.97855267188 -0.073430036398 0.19246479706 -0.91885850558 -0.0071024219926 0.39452325955 
-0.57018808076 0.22622617236 0.78975139854 -0.26350412326 0.366983413 0.89212597295 -0.26272071224 0.36740225957 0.89218462608 
-0.33983375596 0.29721408604 0.89228740066 -0.40679030399 0.17044871974 0.89747918222 -0.43983687402 -0.057420806187 0.89624013259 
-0.37122854124 -0.47399911803 0.79844486739 -0.093919313529 -0.91001675444 0.40379285429 0.25449312826 -0.9545017495 -0.15543377324 
0.52670647236 -0.50971944116 -0.68026934612 0.3476714873 0.66449313042 -0.66149332313 -0.31748870818 0.89792011012 0.30486127339 
-0.54230242683 0.016039732634 0.84003024043 0.045177788782 -0.98665345885 0.15644142528 0.52662426745 -0.4944199575 -0.69153147908 
0.55702181498 -0.31402461037 -0.76884019258 0.5611080889 -0.28832924291 -0.77590203006 0.55765472868 -0.30038542796 -0.77381509306 
0.5495447469 -0.314801411 -0.77388671185 0.54155008747 -0.32177216331 -0.77665061494 0.5335440407 -0.3250695499 -0.78080762314 
0.5335440407 -0.3250695499 -0.78080762314 
