# vtk DataFile Version 4.2
vtk output
ASCII
DATASET POLYDATA
POINTS 64 float
0 0 0 -0.821064 -0.535507 0.369001 -1.66674 -0.870244 0.727126 
-2.59469 -1.0775 1.09022 -3.5472 -1.18198 1.4249 -4.51126 -1.27316 1.72708 
-5.46878 -1.45945 2.00459 -6.37631 -1.82111 2.27529 -7.19502 -2.34883 2.55745 
-7.93974 -2.97177 2.85158 -8.66197 -3.62859 3.12784 -9.41378 -4.28364 3.31301 
-10.2121 -4.90561 3.27248 -10.962 -5.44664 2.86468 -11.5029 -5.88671 2.13125 
-11.7797 -6.26862 1.23465 -11.8116 -6.63132 0.28869 -11.6381 -6.9927 -0.642616 
-11.3071 -7.36243 -1.52713 -10.8664 -7.75229 -2.35345 -10.3578 -8.18464 -3.11706 
-9.81766 -8.70559 -3.79948 -9.29505 -9.41575 -4.30775 -9.00499 -10.3346 -4.151 
-9.09108 -10.8233 -3.27651 -9.28171 -10.8758 -2.28454 -9.49633 -10.6517 -1.31935 
-9.7324 -10.2433 -0.421644 -10.0016 -9.7505 0.423321 -10.2851 -9.26576 1.2683 
-10.523 -8.86076 2.16715 -10.6515 -8.60173 3.13855 -10.6442 -8.54587 4.15025 
-10.5174 -8.72438 5.13949 -10.3006 -9.16047 6.02725 -10.0303 -9.88712 6.676 
-9.78949 -10.8496 6.8417 -9.67603 -11.7978 6.50758 -9.67908 -12.6547 5.96517 
-9.76431 -13.4971 5.40641 -9.91029 -14.3963 4.96143 -10.0772 -15.3724 4.74808 
-10.1981 -16.3772 4.79947 -10.2134 -17.361 5.04396 -10.0777 -18.2989 5.40419 
-9.74597 -19.1518 5.8394 -9.18174 -19.8317 6.33367 -8.41781 -20.2201 6.87166 
-7.58174 -20.3092 7.43739 -6.76665 -20.2319 8.03629 -5.98792 -20.1221 8.67724 
-5.22894 -20.047 9.3463 -4.4645 -20.0073 10.0122 -3.66943 -19.9554 10.6402 
-2.83451 -19.8276 11.2017 -1.97671 -19.5891 11.6875 -1.1207 -19.2589 12.1205 
-0.276052 -18.8981 12.5515 0.55718 -18.6019 13.0479 1.34708 -18.5204 13.6759 
1.95783 -18.8205 14.4214 2.26991 -19.4511 15.1532 2.34138 -20.1942 15.7835 
2.22906 -21.0466 16.3821 
LINES 1 65
64 0 1 2 3 4 5 6 7 8 9 10 11 12 13 14 15 16 17 18 19 20 21 22 23 24 25 26 27 28 29 30 31 32 33 34 35 36 37 38 39 40 41 42 43 44 45 46 47 48 49 50 51 52 53 54 55 56 57 58 59 60 61 62 63 

CELL_DATA 1
FIELD FieldData 2
Length 1 1 double
63.807206597 
Tortuosity 1 1 double
1.3840857535 
POINT_DATA 64
SCALARS MaximumInscribedSphereRadius float
LOOKUP_TABLE default
1.24 1.05122 1.20613 1.76312 1.86 1.86 1.764 1.26257 1.116 
1.08475 0.970731 0.785464 0.715146 0.9195 0.948644 1.10244 1.15793 0.976189 
0.93 1.09312 1.47604 1.73498 1.58284 1.42712 1.39055 1.33937 1.61071 
1.9863 1.78551 1.66694 1.78439 1.60712 1.70561 1.84641 1.86 1.84396 
1.53798 1.24 1.24 1.24 1.24 1.2072 1.03788 1.02225 1.22041 
1.42587 1.55 1.58598 1.75225 1.52662 1.31127 1.49697 1.55 1.55 
1.60374 1.92736 2.01026 1.62703 1.55334 1.7049 1.93855 1.9152 2.15078 
2.48 
TEXTURE_COORDINATES TCoords 2 float
0 0 0.015873 0 0.031746 0 0.047619 0 0.0634921 
0 0.0793651 0 0.0952381 0 0.111111 0 0.126984 0 
0.142857 0 0.15873 0 0.174603 0 0.190476 0 0.206349 
0 0.222222 0 0.238095 0 0.253968 0 0.269841 0 
0.285714 0 0.301587 0 0.31746 0 0.333333 0 0.349206 
0 0.365079 0 0.380952 0 0.396825 0 0.412698 0 
0.428571 0 0.444444 0 0.460317 0 0.47619 0 0.492063 
0 0.507937 0 0.52381 0 0.539683 0 0.555556 0 
0.571429 0 0.587302 0 0.603175 0 0.619048 0 0.634921 
0 0.650794 0 0.666667 0 0.68254 0 0.698413 0 
0.714286 0 0.730159 0 0.746032 0 0.761905 0 0.777778 
0 0.793651 0 0.809524 0 0.825397 0 0.84127 0 
0.857143 0 0.873016 0 0.888889 0 0.904762 0 0.920635 
0 0.936508 0 0.952381 0 0.968254 0 0.984127 0 
1 0 
FIELD FieldData 7
Curvature 1 64 double
0 0.18722492717 0.14787972543 0.10619638613 0.03591111849 0.09594405733 0.17893968362 0.18512598039 0.11821150393 
0.043176079404 0.093299244642 0.22966519622 0.38392723543 0.40688940149 0.31573836067 0.24778928573 0.20245997121 0.16104266606 
0.12274975358 0.099122937294 0.12122400205 0.25374386061 0.85374944632 1.1885344358 0.48131562136 0.27724328463 0.19386927851 
0.10222619335 0.015948800901 0.10377773672 0.19279413644 0.24482737345 0.26162863776 0.28974032213 0.38481434281 0.57000472192 
0.54245898171 0.25305710361 0.08280021512 0.13769371406 0.24204802666 0.26802386779 0.21778675846 0.19219957596 0.22319249406 
0.2945684484 0.35865189129 0.30863726486 0.1674957037 0.062629994508 0.047465407337 0.03494197466 0.048834308016 0.1057431574 
0.13284798069 0.10312824064 0.031778736538 0.090216679128 0.25289397782 0.44928985918 0.45703280441 0.2898333961 0.20154405244 
0 
Torsion 1 64 double
0 0 0.10875230503 0.23223758293 2.415899421 0.42160740481 0.14703466784 0.098825047806 -0.02447476998 
-1.6953093029 -0.25177270977 0.11177647221 0.14988160321 0.19680063587 0.25375986618 0.21152816833 0.14910499065 0.14646425249 
0.24771149549 0.49755260824 0.46845721946 0.01926602712 -0.090077342719 -0.10743501876 -0.19172193513 -0.035360610937 0.11889691352 
0.3096762553 6.3175257408 0.17978274545 0.0043611034478 -0.073791173665 -0.115175143 -0.1184557687 -0.091476651797 -0.063539390006 
-0.082308042375 -0.29039423399 -1.894560008 -0.57337499817 -0.21250622095 -0.21723118574 -0.3403836897 -0.3373813668 -0.11166133802 
0.04790416358 0.11032788953 0.17224780035 0.38722243615 1.3037937355 0.92327621683 1.2274026937 0.89594470575 0.24285533072 
0.14288458684 0.18390158819 1.8979044001 0.36233761543 0.064659172252 0.0048416744715 -0.024732139833 -0.07281646875 0 
0 
Abscissas 1 64 double
0 1.0474131912 2.0248980778 3.0426758342 4.0576647923 5.0720877859 6.0862645067 7.100012237 8.1141054828 
9.1285940107 10.143161812 11.157353362 12.170210209 13.1808352 14.192815754 15.205899828 16.219515754 17.23343465 
18.247647774 19.262037293 20.276296886 21.290622299 22.308352592 23.284583937 24.29005462 25.301532023 26.315359017 
27.329475464 28.344023239 29.358579561 30.372742679 31.38626451 32.399532714 33.41271743 34.42529227 35.436221141 
36.442061674 37.45384377 38.467993128 39.482466891 40.496302505 41.509289948 42.522649087 43.536492229 44.550294352 
45.563645858 46.576021718 47.587907919 48.601313463 49.615725647 50.630281152 51.644834109 52.65942211 53.67390911 
54.688156214 55.702416745 56.716909042 57.731509054 58.745639015 59.758013977 60.767422237 61.78254935 62.759631597 
63.807210978 
ParallelTransportNormals 3 64 double
0.40992315385 0 0.91212006224 0.39289411335 -0.0088159076905 0.91954145935 0.36754707852 -0.016605661137 0.92985665405 
0.3335933638 -0.022231711836 0.94245488943 0.30119430444 -0.025539137015 0.95322072127 0.28329645807 -0.028123615984 0.95861993463 
0.29479925168 -0.024743806003 0.95523878966 0.32970649447 -0.0067598594888 0.94405928405 0.35741991717 0.013636165664 0.93384423637 
0.35092649018 0.0079713185768 0.93636908138 0.28223578066 -0.053161882967 0.9578709612 0.10543067253 -0.19880758801 0.97435102311 
-0.18398055877 -0.41619428486 0.89046811916 -0.42710739549 -0.60098756965 0.67556880763 -0.53250498935 -0.70693359155 0.46549257078 
-0.55798345018 -0.76837208575 0.31346260887 -0.55025746848 -0.80790195674 0.21097664961 -0.5329627051 -0.83296490106 0.14872870797 
-0.52053640161 -0.84519676912 0.12117869476 -0.52429603726 -0.84194041048 0.12747552912 -0.55929911215 -0.81012399769 0.17573733672 
-0.66047092519 -0.69295846309 0.28911368943 -0.89600250245 -0.21673038451 0.38756606667 -0.96586353701 0.2547052119 0.047253390467 
-0.93472933423 0.31580461382 -0.16293715852 -0.91177975789 0.30610599777 -0.27378237931 -0.8908724996 0.2767666829 -0.36020326581 
-0.87317356487 0.2452007394 -0.42124164443 -0.87036916722 0.24024092249 -0.42981602102 -0.89120982721 0.27580943476 -0.36010304024 
-0.92069018739 0.32924477077 -0.20958878729 -0.93269556328 0.36042194437 -0.013229068468 -0.91969947476 0.34852906939 0.18077711114 
-0.8870351698 0.2901057059 0.35917584405 -0.83331850578 0.16188614744 0.52855760631 -0.7603873098 -0.079250871712 0.64461650494 
-0.71828691181 -0.30609398669 0.6247962737 -0.71421878557 -0.37253119759 0.59254707253 -0.71234514543 -0.33646106096 0.61592073211 
-0.69737818698 -0.22372722904 0.68088897136 -0.6680727686 -0.04807750433 0.74254112979 -0.64420526939 0.11619008016 0.75597581718 
-0.63881219033 0.19489952654 0.74426686077 -0.63873054788 0.19359663436 0.74467686306 -0.62653834416 0.14689292738 0.76542287082 
-0.59303010671 0.08957659762 0.80018205785 -0.55466128209 0.058717433498 0.83000188262 -0.55513406382 0.058858611974 0.82967574086 
-0.59471232725 0.059143546588 0.80176011918 -0.63909481972 0.053931117644 0.76723480497 -0.6632439917 0.051027097723 0.74666166553 
-0.657494974 0.051460153633 0.75169954886 -0.62108149089 0.053599688147 0.78191102762 -0.56335662467 0.059963559341 0.82403500228 
-0.50664059984 0.072236541107 0.8591258259 -0.47501814063 0.082729141091 0.87607856684 -0.48015570621 0.080641652773 0.87346861514 
-0.52710051973 0.062259472634 0.84751920342 -0.62430368542 0.039651376584 0.78017477318 -0.75997539095 0.060884266214 0.6470938968 
-0.85348266741 0.15500412593 0.49753498106 -0.88078673468 0.25413507399 0.39953734766 -0.8787906991 0.34635846104 0.32827233153 
-0.8787906991 0.34635846104 0.32827233153 
FrenetTangent 3 64 double
-0.82677596899 -0.4316791303 0.36068632573 -0.82677596899 -0.4316791303 0.36068632573 -0.8913186074 -0.27237331217 0.36244160759 
-0.92641391452 -0.15357761024 0.34376034764 -0.94455713822 -0.096428541619 0.31386836254 -0.94836486484 -0.1369408412 0.28609664302 
-0.92342843186 -0.27130247448 0.27143120413 -0.85497714899 -0.44049465224 0.27382208833 -0.77208149418 -0.56823979691 0.28459392044 
-0.72314690288 -0.63086990483 0.28117916002 -0.72738113837 -0.64735649751 0.22769770458 -0.76982834798 -0.63419600237 0.071831366504 
-0.77893932391 -0.58512789119 -0.2255634736 -0.65102905811 -0.49482849066 -0.57559180878 -0.40878464153 -0.4109241052 -0.81488434555 
-0.1534932789 -0.37023890484 -0.91616754291 0.070202009808 -0.35898064072 -0.93070112142 0.24957353987 -0.36167678668 -0.89827776894 
0.38114096086 -0.37515974209 -0.8449773582 0.46853616207 -0.40580925912 -0.78472460778 0.51795831269 -0.47082229428 -0.71417473599 
0.52725137463 -0.61077800319 -0.59072516348 0.43831087341 -0.8786004922 -0.18959101604 0.11610474954 -0.80121277718 0.58700747254 
-0.14097203992 -0.27570833522 0.95084793624 -0.20201635712 0.085542329279 0.97563922705 -0.22330126542 0.31338147681 0.92299978053 
-0.24940243388 0.44483453394 0.860186412 -0.2723958598 0.48177642955 0.83288172479 -0.25736172217 0.43917383322 0.86075042153 
-0.18155028247 0.32902545037 0.92670477928 -0.060250855512 0.15653711584 0.98583262564 0.066743770983 -0.061044534362 0.9959010161 
0.17139520127 -0.30657578023 0.93628787024 0.24508348467 -0.58503130887 0.77309278433 0.26296600478 -0.86905647915 0.41903426636 
0.18162748352 -0.97956921347 -0.086345893124 0.054938492068 -0.89819520708 -0.43615035489 -0.043555841052 -0.83840806326 -0.5432999247 
-0.11426829516 -0.86073213943 -0.49606747613 -0.1555137454 -0.9320685893 -0.32720577597 -0.14331473731 -0.9863857342 -0.080647811071 
-0.067589701406 -0.98684958402 0.14683164092 0.059657421765 -0.95218724685 0.29963384149 0.23203367738 -0.88895840961 0.39485860577 
0.4470783341 -0.76485694771 0.46380471398 0.66651403863 -0.53610820248 0.51802223074 0.79938027108 -0.23856552128 0.55143238413 
0.81716254912 -0.0058392790539 0.57637771568 0.78593467024 0.092261322546 0.6113873915 0.75804787955 0.09114969982 0.64579806792 
0.75089006624 0.056585343564 0.65799863778 0.76881587477 0.045157681514 0.63787376064 0.80459550014 0.088702982226 0.58716084857 
0.8363507503 0.18098430767 0.517457344 0.84589979304 0.2806984769 0.45349961984 0.83823916677 0.34058773945 0.42585806442 
0.82793922819 0.32419227557 0.45761993279 0.80738937105 0.18787850756 0.5593067762 0.70960085136 -0.1107473438 0.69584600135 
0.46727924009 -0.47126435045 0.7480374481 0.19448051507 -0.69654059785 0.69065803753 -0.020279878082 -0.79207921538 0.61008134139 
-0.020279878082 -0.79207921538 0.61008134139 
FrenetNormal 3 64 double
-0.43520166446 0.89711073911 0.076104093325 -0.43520166446 0.89711073911 0.076104093325 -0.31610385403 0.94641656363 -0.066136537146 
-0.24822735585 0.93562981518 -0.25095822112 -0.32713810955 0.35832937577 -0.87440306252 0.064142001039 -0.96616161218 -0.24983503128 
0.27175650801 -0.96166693426 -0.036675712667 0.47234523822 -0.87935289669 0.060236691623 0.61305360178 -0.78395627948 0.097866404867 
0.50771982032 -0.76153366417 -0.40284868423 -0.31162432601 0.015973648448 -0.95007111418 -0.20436976307 0.13831660015 -0.96907250403 
0.1231071738 0.21001360827 -0.96991695938 0.52494280149 0.25421465342 -0.81228687368 0.83761443954 0.18558269407 -0.51377146119 
0.97772208994 0.077434298489 -0.19509855014 0.99734060739 0.0069449022552 0.072549853102 0.95690768208 -0.050105083722 0.28603700559 
0.87143872455 -0.15944212904 0.46386717586 0.66817878772 -0.41830509798 0.61527063366 0.25356818722 -0.71286212149 0.65385837165 
-0.075065872974 -0.72597165202 0.68361559021 -0.29039410446 -0.33804471508 0.89520781649 -0.41445126267 0.49801265558 0.76171749734 
-0.22359742917 0.94448971043 0.24071430484 -0.084289957682 0.99096345302 -0.10433905215 -0.10834723029 0.93306205894 -0.34301030867 
-0.31480392816 0.80277048534 -0.50641685861 -0.87072561374 -0.49176906027 -0.00031134094603 0.42728841004 -0.74721987596 0.50900596421 
0.55666278567 -0.74246024042 0.3726651774 0.54823358472 -0.82014096668 0.16373372093 0.45261755446 -0.88766873792 -0.084744091841 
0.30952360139 -0.88547429273 -0.34659835126 0.14186720847 -0.76718778101 -0.62553705232 -0.052229893903 -0.44650617861 -0.8932548744 
-0.24895311702 0.039141989298 -0.96772426352 -0.45650043466 0.36589070183 -0.81100637942 -0.96626333266 0.17352959273 -0.19032249579 
-0.43154852823 -0.40675916381 0.80517876924 -0.085991239838 -0.31720497924 0.9444503734 0.17045094748 -0.10487215703 0.97976951636 
0.4777914025 0.097180177827 0.87308154759 0.7715437214 0.23444191603 0.5914028018 0.86618899823 0.37353478933 0.33194635186 
0.78760157493 0.5823994764 0.20123272361 0.56187694417 0.81794107251 0.1235584943 0.22934036053 0.96945464224 0.086952260861 
-0.12751203757 0.97334289241 0.19064179519 -0.56625938167 0.50449758085 0.65179176397 -0.40477577861 -0.7106547049 0.57543588648 
0.15148150833 -0.98451702813 -0.088201893146 0.61091560438 0.24288285971 -0.75351844091 0.36915211135 0.69978963361 -0.61157271635 
0.16818483537 0.8136963153 -0.55642804352 -0.019159892793 0.86574273562 -0.50012239924 -0.34863238393 0.93522443344 -0.061731029289 
-0.11907245469 -0.69576499085 0.70833101587 -0.16415665648 -0.8389891715 0.5187964555 -0.40434375582 -0.87277860011 0.27342941012 
-0.67645081594 -0.73536139538 -0.04071746299 -0.82746866172 -0.49460822644 -0.26581632044 -0.89303565968 -0.26001092482 -0.36726234426 
-0.89303565968 -0.26001092482 -0.36726234426 
FrenetBinormal 3 64 double
-0.35642812508 -0.094050253805 -0.92957707664 -0.35642812508 -0.094050253805 -0.92957707664 -0.3250069131 -0.17351791521 -0.92965694723 
-0.28309086666 -0.31782191015 -0.90490264374 -0.028150842317 -0.92860195715 -0.37000802053 0.31062821321 -0.21858395449 0.92505738633 
0.27097662554 0.039895800364 0.96175880216 0.21425230602 0.18083955441 0.95989218401 0.167497605 0.25003216807 0.95363958981 
0.4682725071 -0.14855854573 0.87100586541 0.61139754577 -0.76201995229 -0.21335096282 0.60464643767 -0.76069964421 -0.23609052654 
0.61489686405 -0.78327494234 -0.091554417043 0.54826655986 -0.8309751349 0.09425552777 0.36234951017 -0.89258077698 0.268332609 
0.14317586452 -0.92570356095 0.35010511144 -0.019580364434 -0.93331916723 0.35851351635 -0.14846122787 -0.93095616576 0.33358639249 
-0.30874927904 -0.91314477242 0.26615880089 -0.57793682395 -0.81261287844 0.075162073622 -0.81695921608 -0.51976337208 -0.24984730597 
-0.84638708796 -0.31609395957 -0.42861813547 -0.85062026918 -0.33732320662 -0.40330907742 -0.90263494172 -0.33172500744 -0.27424201253 
-0.96443303221 -0.17867316749 -0.19479431612 -0.9757482229 -0.10331478438 -0.1929804675 -0.96870915271 -0.17659910576 -0.17439992344 
-0.91580397072 -0.39709165854 -0.06017725423 0.40943546639 -0.72529625898 0.55345093331 0.86671192365 0.49878733061 0.0046519051879 
0.81065778106 0.58351953215 -0.048362357385 0.83415212701 0.55033165105 -0.036404709276 0.88920336168 0.45641842265 -0.031616531097 
0.93531749966 0.34920848771 -0.056873605027 0.95906609819 0.26298531578 -0.10502829611 0.96339032511 0.2130095503 -0.1628066736 
0.95133264569 0.19726140196 -0.23675754801 0.88802540236 0.24365829413 -0.38992501902 0.25384652976 0.5166811395 -0.81768119669 
-0.89482323646 0.30608359449 -0.32496801178 -0.98408382857 0.17501184527 -0.030819999226 -0.97488838365 0.12666891505 0.18316010861 
-0.87586928703 0.12916621675 0.4649398676 -0.63337293754 0.19589904274 0.74864029216 -0.44257992715 0.26499944745 0.85667864508 
-0.42403386934 0.27532653236 0.86278072431 -0.48995238128 0.20871127697 0.84639604615 -0.55533249611 0.056957779927 0.82967561737 
-0.56212636355 -0.22928043226 0.79463478076 -0.2483082898 -0.85846959135 0.4487459793 0.5113902437 -0.69761136933 -0.50181510143 
0.64281992895 0.16590455151 -0.74783568966 -0.18895574889 0.96900397329 0.15914466596 -0.46513739888 0.70882032253 0.53030269708 
-0.52175787836 0.5523974899 0.65009670783 -0.53299759721 0.41436442992 0.73770975362 -0.41929769874 -0.096722545659 0.90268166537 
0.54803137224 -0.64094496329 -0.53744875948 0.56672303257 -0.51068467424 -0.64654943187 0.57703791806 -0.47538672787 -0.66410443462 
0.56926655038 -0.48698411696 -0.66240626842 0.52675700578 -0.5198017871 -0.67255717897 0.44952868327 -0.55227242873 -0.70208199477 
0.44952868327 -0.55227242873 -0.70208199477 
