# vtk DataFile Version 4.2
vtk output
ASCII
DATASET POLYDATA
POINTS 64 float
0 0 0 -0.765609 -0.0282471 0.686972 -1.58753 0.0406513 1.2542 
-2.46946 0.128777 1.74401 -3.39315 0.17748 2.16002 -4.34573 0.130026 2.50444 
-5.30059 -0.0750595 2.77519 -6.20057 -0.495354 2.97273 -6.97124 -1.1373 3.11343 
-7.5935 -1.92949 3.2281 -8.12724 -2.78692 3.32379 -8.64142 -3.66075 3.33167 
-9.11838 -4.51046 3.06551 -9.38953 -5.24656 2.43028 -9.37051 -5.8816 1.64195 
-9.1046 -6.48852 0.875466 -8.65962 -7.08204 0.184277 -8.10596 -7.65912 -0.439674 
-7.48843 -8.22982 -1.00718 -6.8219 -8.81739 -1.49629 -6.09481 -9.47341 -1.75169 
-5.65157 -10.0406 -1.127 -5.81973 -10.2355 -0.151219 -6.28985 -10.2711 0.744312 
-6.97275 -10.1522 1.48184 -7.74776 -9.84518 2.05763 -8.48649 -9.36035 2.55447 
-9.10546 -8.74558 3.07052 -9.52508 -8.06768 3.69418 -9.58695 -7.47418 4.50458 
-9.10514 -7.37543 5.36565 -8.43759 -7.87589 5.93099 -7.91633 -8.67666 6.2634 
-7.61366 -9.61781 6.48423 -7.49701 -10.6065 6.67711 -7.45426 -11.5928 6.9105 
-7.29369 -12.5324 7.25163 -6.81678 -13.284 7.72573 -6.08161 -13.7283 8.26013 
-5.2499 -13.9206 8.8061 -4.39776 -13.9201 9.35526 -3.55997 -13.7526 9.90123 
-2.75007 -13.4534 10.4335 -1.94651 -13.104 10.9451 -1.10278 -12.824 11.4328 
-0.203104 -12.7247 11.8881 0.71019 -12.8454 12.3104 1.58045 -13.1538 12.7289 
2.35582 -13.6161 13.1897 2.95908 -14.2225 13.7314 3.27128 -14.9599 14.3482 
3.21538 -15.7656 14.9562 2.8559 -16.5629 15.4666 2.3165 -17.3246 15.8625 
1.68998 -18.0592 16.1737 1.03587 -18.7884 16.438 0.40024 -19.5427 16.6751 
-0.165793 -20.3628 16.8625 -0.59074 -21.2798 16.9254 -0.811969 -22.2585 16.7921 
-0.853158 -23.2226 16.4826 -0.794207 -24.1419 16.0624 -0.707892 -25.0148 15.5804 
-0.663954 -25.8886 15.0368 
LINES 1 65
64 0 1 2 3 4 5 6 7 8 9 10 11 12 13 14 15 16 17 18 19 20 21 22 23 24 25 26 27 28 29 30 31 32 33 34 35 36 37 38 39 40 41 42 43 44 45 46 47 48 49 50 51 52 53 54 55 56 57 58 59 60 61 62 63 

CELL_DATA 1
FIELD FieldData 2
Length 1 1 double
63.734668778 
Tortuosity 1 1 double
1.1283165372 
POINT_DATA 64
SCALARS MaximumInscribedSphereRadius float
LOOKUP_TABLE default
0.93 1.39746 1.45724 1.27435 1.24968 1.11171 0.966041 1.18903 1.24 
1.24 1.24 1.24 1.45098 1.55 1.18674 0.718944 0.857648 1.17085 
1.54378 1.84825 1.77353 2.06292 1.70077 1.72428 1.86 1.86 1.86 
2.04627 2.32693 1.92353 1.86 1.86 1.74899 1.62041 1.84233 1.84222 
1.59992 1.57542 1.74942 1.8593 1.86 1.86 1.97628 2.1075 1.93054 
2.02255 2.23563 2.43035 2.32713 2.16764 2.07448 1.92305 1.86 1.93245 
2.31632 2.48 2.48 2.48 2.15368 1.94599 2.14388 1.96762 1.66611 
1.24 
TEXTURE_COORDINATES TCoords 2 float
0 0 0.015873 0 0.031746 0 0.047619 0 0.0634921 
0 0.0793651 0 0.0952381 0 0.111111 0 0.126984 0 
0.142857 0 0.15873 0 0.174603 0 0.190476 0 0.206349 
0 0.222222 0 0.238095 0 0.253968 0 0.269841 0 
0.285714 0 0.301587 0 0.31746 0 0.333333 0 0.349206 
0 0.365079 0 0.380952 0 0.396825 0 0.412698 0 
0.428571 0 0.444444 0 0.460317 0 0.47619 0 0.492063 
0 0.507937 0 0.52381 0 0.539683 0 0.555556 0 
0.571429 0 0.587302 0 0.603175 0 0.619048 0 0.634921 
0 0.650794 0 0.666667 0 0.68254 0 0.698413 0 
0.714286 0 0.730159 0 0.746032 0 0.761905 0 0.777778 
0 0.793651 0 0.809524 0 0.825397 0 0.84127 0 
0.857143 0 0.873016 0 0.888889 0 0.904762 0 0.920635 
0 0.936508 0 0.952381 0 0.968254 0 0.984127 0 
1 0 
FIELD FieldData 7
Curvature 1 64 double
0 0.15801545768 0.098037278952 0.09122966777 0.12034441416 0.17057652788 0.23091601489 0.26062868979 0.2095209774 
0.10881777961 0.089079464978 0.27622317743 0.45030529741 0.34586591075 0.24690692977 0.19130915662 0.12579462385 0.083214927654 
0.091531422043 0.24826675886 1.2356096142 0.98892434103 0.35403075482 0.30652293042 0.26255307266 0.19454757274 0.17433496497 
0.23234493323 0.42229474218 0.8543117483 0.78859127764 0.4163369999 0.28137849782 0.19062316618 0.082096736803 0.16304996808 
0.39811006737 0.41457021015 0.26825308967 0.19050188051 0.16422252968 0.13216647488 0.053147110169 0.081464064813 0.18849491582 
0.21971924746 0.18919555247 0.18225586034 0.23578554409 0.3290467155 0.37951657338 0.31955043124 0.21302497206 0.12150565947 
0.053166710642 0.040205011748 0.10519823088 0.20840200025 0.28831977516 0.24987417223 0.15279241289 0.080210529937 0.066856958249 
0 
Torsion 1 64 double
0 0 0.61776924442 0.59092248766 0.34360801531 0.21129603186 0.15175878244 0.11928690975 0.071608106382 
-0.39030713031 -0.84520319733 0.13414088972 0.22418420189 0.42451600201 0.41605064384 0.15348559259 0.078580610838 0.30162654477 
0.49708047219 0.24682183219 0.081270144688 0.13589344117 0.24814013929 -0.15358479928 -0.37378246271 -0.64609937242 -0.71809881556 
-0.49757894396 -0.28989537716 -0.17017930862 -0.2217021683 -0.41650500322 -0.3747125567 -0.36779973024 -1.646087481 -0.54313305368 
-0.064507695088 0.020394830151 0.10435175445 0.11248263551 0.040870970262 -0.057742908716 -0.87325899784 -0.4641769404 -0.11722265071 
-0.15409647169 -0.30354347791 -0.33893325509 -0.13206933539 0.012025080248 0.067335693111 0.098400112536 0.11959683606 0.16206533474 
0.66414939323 0.96811339673 -0.066670912689 -0.099396265575 -0.069526669763 -0.077642252699 -0.17738848481 -0.67083222976 0 
0 
Abscissas 1 64 double
0 1.0290219922 2.0300477231 3.0427061608 4.0569233455 5.0709639388 6.0844354573 7.0971718836 8.1099974735 
9.1238669933 10.138371049 11.152283228 12.162404331 13.171807158 14.184271618 15.197466747 16.211377577 17.225716773 
18.240159175 19.254423457 20.266477293 21.219576987 22.228733772 23.240791315 24.252939266 25.266068382 26.27979189 
27.293387922 28.305603659 29.31199509 30.303626989 31.311440866 32.323102721 33.336079779 34.350131892 35.364596049 
36.377020672 37.385522799 38.397178135 39.410491493 40.424253802 41.438172792 42.45248258 43.467072986 44.481101051 
45.49428595 46.507678636 47.521411402 48.534920244 49.547345255 50.558188259 51.569058852 52.581732026 53.595587745 
54.609996556 55.624578294 56.639063525 57.653036061 58.665676278 59.677896935 60.691278629 61.703731151 62.704658445 
63.734602494 
ParallelTransportNormals 3 64 double
0.66784881107 0 0.7442969606 0.56814020602 0.0026360538157 0.82292755302 0.48627744566 0.010176589078 0.87374520478 
0.41129552023 0.015860042477 0.91136406232 0.33928549921 0.015907663982 0.94054893347 0.27141361503 0.0069200166834 0.9624379268 
0.21913804104 -0.010707652683 0.97563510861 0.19865029851 -0.023734034781 0.97978301399 0.20382045863 -0.018411512317 0.97883514284 
0.20419674006 -0.017874573232 0.9787666683 0.16250105284 -0.086760056764 0.98288661624 0.031386761283 -0.31476862929 0.94864934577 
-0.11470130175 -0.6244631216 0.77258619011 -0.14197414701 -0.77253886089 0.61889179183 -0.13587911789 -0.79911464555 0.58562159164 
-0.13903761694 -0.79378059567 0.5920987308 -0.14472035935 -0.78711915879 0.59958272778 -0.15587604039 -0.77618645194 0.61093146249 
-0.18924181656 -0.746089519 0.63838700214 -0.31955819747 -0.62980011607 0.70797907612 -0.84504987385 -0.077743093961 0.52900540834 
-0.96421461779 0.23699713968 -0.11883823718 -0.85541500266 0.27635804757 -0.4380541094 -0.68609797649 0.26413298104 -0.67786675312 
-0.5252526214 0.21714862749 -0.82277345442 -0.46238875263 0.18426679771 -0.86731908125 -0.49440790729 0.21019915423 -0.84343176178 
-0.58478788042 0.3227079559 -0.74423296763 -0.67743977151 0.56784394059 -0.46757738944 -0.51078004367 0.83853657793 0.18963162835 
-0.08765962505 0.69224804728 0.71631587388 0.13191594618 0.45206936527 0.88217428671 0.21007662111 0.28686212823 0.93465391063 
0.22631086944 0.21216546444 0.9506677685 0.22458138627 0.23359156516 0.94604343538 0.21067702594 0.36521879356 0.90676922288 
0.12744473552 0.58576742938 0.80039637559 -0.033916860161 0.74508601396 0.66610545591 -0.18332037023 0.80580775234 0.56308747823 
-0.31020182813 0.8202622634 0.48056700372 -0.42596161212 0.80875525619 0.40555103327 -0.51677429357 0.78303542192 0.34612116018 
-0.54449102677 0.77189463351 0.32818926936 -0.47779914895 0.79737568856 0.36864615088 -0.32116623244 0.8314493006 0.45336995011 
-0.14043356889 0.82931321589 0.54084933455 -0.0076650046535 0.79737207802 0.60343932329 0.070318086521 0.7608488002 0.64510810717 
0.11764802356 0.72415640765 0.67952662921 0.15354183326 0.67145277921 0.72496625489 0.16767617748 0.58635356689 0.79251132112 
0.14206593509 0.48745392467 0.86151374999 0.094782441406 0.40543154097 0.90919830312 0.05256168716 0.35124488559 0.93480709207 
0.02551683898 0.3203330261 0.94696126812 0.0045890564107 0.29626192441 0.95509570866 -0.03441817333 0.24515258316 0.9688733665 
-0.1072672874 0.11743465785 0.98727039366 -0.17896180553 -0.092914924691 0.97945877347 -0.20575245943 -0.29118045082 0.9342804025 
-0.20455572569 -0.41774151755 0.88523950409 -0.19879384595 -0.48874132449 0.84947803064 -0.19607161674 -0.52507698706 0.82816066 
-0.19607161674 -0.52507698706 0.82816066 
FrenetTangent 3 64 double
-0.78451119601 0.020088690547 0.61978918017 -0.78451119601 0.020088690547 0.61978918017 -0.84716362883 0.078073202866 0.52556480189 
-0.89178700175 0.067579030758 0.44738017179 -0.92677689383 0.00061693938063 0.37561177891 -0.94426129399 -0.12501744864 0.30453447458 
-0.92158334506 -0.31072205727 0.23267131589 -0.83181460569 -0.52888825854 0.16840923891 -0.69111115683 -0.7115557492 0.1267035307 
-0.57078012926 -0.81450712545 0.10386619583 -0.51714480337 -0.85437045608 0.051111408916 -0.49435659391 -0.85966037593 -0.12882389575 
-0.37945472574 -0.80435138605 -0.45720122361 -0.12653879682 -0.68814522829 -0.71445369177 0.14173885366 -0.61781438246 -0.77344391276 
0.35232172374 -0.59494601792 -0.7224324458 0.49336290914 -0.57831706685 -0.6497248726 0.57780001595 -0.56625090361 -0.58779848224 
0.63362390119 -0.57155256199 -0.52139085217 0.69309573388 -0.61848028869 -0.37027076062 0.67543277217 -0.70595103058 0.21312839489 
0.15334481431 -0.42483120401 0.8921904595 -0.32065321355 -0.11579650202 0.94009185017 -0.57627420318 0.04163324619 0.81619526804 
-0.72608219578 0.2121210296 0.65407133692 -0.7504279835 0.39255515589 0.53175021501 -0.67229235555 0.54448875009 0.5015525792 
-0.51616843276 0.64244352477 0.56642428135 -0.24366155238 0.64340087726 0.72571644534 0.2261086561 0.37272890423 0.89997113264 
0.6128684563 -0.21420179504 0.76059834753 0.60102087927 -0.65785631747 0.4538710921 0.41097862242 -0.86887509979 0.27595766502 
0.2078166595 -0.95643726659 0.20503656042 0.078648228466 -0.97446342254 0.21032235805 0.10065219052 -0.95340386966 0.28441202132 
0.3215194423 -0.8529741311 0.41116952696 0.6124751602 -0.60429923812 0.50960436512 0.78075388095 -0.31720839521 0.53833280728 
0.83450509174 -0.095054872602 0.54273918511 0.83629192532 0.083137900168 0.54194455916 0.81420345788 0.23061938013 0.53281087703 
0.7955128736 0.31979061699 0.51467779165 0.81271552776 0.31052367805 0.49301979302 0.86390030538 0.1879524885 0.46727949284 
0.90003911433 -0.010623664704 0.435679619 0.88384291474 -0.21264117254 0.41665985385 0.81518330519 -0.38177607723 0.43557227391 
0.68523749149 -0.53118910531 0.49828477265 0.45853398796 -0.67307988516 0.58026722299 0.12900777748 -0.77671466575 0.61649924685 
-0.20787271148 -0.80220542361 0.55969223164 -0.44611506264 -0.77373329663 0.44979788413 -0.57592818485 -0.73912548134 0.34928533999 
-0.6313868106 -0.72169501766 0.28373754932 -0.63574870775 -0.73125815142 0.24715399364 -0.59324717461 -0.77726313769 0.2095705242 
-0.49168134527 -0.86187403921 0.12418774195 -0.32243682944 -0.94593895094 -0.035128223932 -0.13056736547 -0.96665004971 -0.22031759908 
0.0087935319236 -0.93242499347 -0.36125656445 0.072209653752 -0.89087613945 -0.44847014401 0.064172708642 -0.8605600278 -0.50529031459 
0.064172708642 -0.8605600278 -0.50529031459 
FrenetNormal 3 64 double
-0.48441545984 0.60413675542 -0.6327404231 -0.48441545984 0.60413675542 -0.6327404231 -0.50574539605 0.18476763783 -0.84266393917 
-0.43175470344 -0.42276607584 -0.79677896632 -0.2355971075 -0.77978393319 -0.58002674118 -0.016225423134 -0.90628417353 -0.42235735161 
0.23176300368 -0.92126930152 -0.3123280074 0.4922847498 -0.84312639047 -0.21631831825 0.70086282843 -0.70261921916 -0.12295335945 
0.79655726347 -0.57996755013 -0.17068733638 0.21055505671 -0.18487463093 -0.95994163309 0.12726579309 0.075024568006 -0.98902716449 
0.46969344949 0.25827532542 -0.84420490391 0.84643571009 0.30065106973 -0.43949462221 0.98935112991 0.11452388223 0.089825509382 
0.91833878199 0.071026793087 0.38937010177 0.84183221476 0.12949542259 0.52397467279 0.74646424897 0.075389399683 0.66114110705 
0.52265966283 -0.18063964876 0.83318436984 0.24749042193 -0.27826752395 0.9280709435 -0.25760496947 0.044929169065 0.96520518517 
-0.7809541569 0.50110355948 0.37283485285 -0.85834551807 0.45521005545 -0.23669976136 -0.69343359086 0.503615787 -0.51528729282 
-0.34533307268 0.71006885544 -0.61363449174 0.18556940585 0.89729597097 -0.40052956956 0.67326245245 0.73140954288 0.10843316236 
0.84464687461 0.2722365287 0.46093267367 0.86429384652 -0.19544249611 0.46346345872 0.74289823676 -0.66357144983 0.088176758752 
0.25264232233 -0.85891525666 -0.44546205096 -0.36502273632 -0.73113601991 -0.57636665618 -0.77509540248 -0.49238063098 -0.39596518949 
-0.95992756518 -0.23970169361 -0.14519699617 -0.87690234804 0.032729697039 0.47955295739 0.70956515392 0.26917131679 0.65120203821 
0.81179484072 0.47183637942 0.34403425359 0.63142273974 0.76185006573 0.14453304495 0.35260547859 0.9349374245 0.039514411738 
0.10340760981 0.99452318232 0.015182425947 -0.08636730011 0.99607195996 -0.019527930108 -0.20830869605 0.97265852369 -0.10267854419 
-0.12139384845 0.91628313094 -0.38169196679 0.48676603639 -0.82690101952 -0.28159106826 0.29498700325 -0.94080272476 -0.16695179241 
0.060224766741 -0.98707940718 -0.14848306773 -0.22477764514 -0.97419719596 -0.020367464975 -0.51027133374 -0.8291817286 0.22821224095 
-0.71822702501 -0.60634403814 0.34131634588 -0.88527649573 -0.40302839547 0.23206386741 -0.98299363565 -0.18210063044 -0.023724937475 
-0.95055930915 0.030714064229 -0.30902046219 -0.82963481569 0.16901269552 -0.53210974558 -0.69721656324 0.22101083596 -0.68194081439 
-0.50207637592 0.10159503377 -0.85883511913 0.44493356515 -0.60880904283 -0.65679956757 0.64190882753 -0.61383628633 -0.45951939102 
0.66356554671 -0.4631998983 -0.58747478196 0.70324500307 -0.21454029456 -0.67780449074 0.71411561469 0.062456088117 -0.69723606183 
0.64260374989 0.28206679151 -0.71238946213 0.34755761471 0.44393621447 -0.8259081922 -0.6427440426 0.35168589392 -0.68058587094 
-0.6427440426 0.35168589392 -0.68058587094 
FrenetBinormal 3 64 double
-0.3871483509 -0.7966274068 -0.46422077627 -0.3871483509 -0.7966274068 -0.46422077627 -0.16289683964 -0.97967621947 -0.11704325965 
0.13529160937 -0.90371561883 0.4061948556 0.29253818897 -0.62604843018 0.72283108059 0.32879681312 -0.40375690006 0.85374060542 
0.31140014168 -0.23391168678 0.92104032189 0.25639849235 -0.09703143656 0.96168847006 0.1765125056 0.0038273564165 0.98429095633 
0.19926507484 -0.014689567203 0.97983552016 0.82959497373 -0.48566706149 0.27549897449 0.85989242116 -0.50532697558 0.072316469632 
0.79712117938 -0.53508196011 0.27979478435 0.51723739383 -0.66035223862 0.54442667033 0.033082307969 -0.77793937375 0.62746784115 
-0.1803421317 -0.80062127778 0.57138628362 -0.21888709893 -0.80546899737 0.55073417562 -0.33005797457 -0.82077789479 0.46624605183 
-0.57039252159 -0.80043549783 0.18426987038 -0.67702791281 -0.73488047846 -0.039798086123 -0.69096327687 -0.70683414759 -0.15150986047 
-0.60547169443 -0.75393213937 -0.25493206247 -0.40053025885 -0.8828221653 -0.24535797564 -0.43250190498 -0.86292398964 -0.26135089496 
-0.59460046576 -0.67142154369 -0.44231594678 -0.63436727311 -0.20189202576 -0.74620223314 -0.30779970564 0.41057530565 -0.85830487567 
0.14192183142 0.71634739472 -0.68315781767 0.44002862947 0.74016048385 -0.50846559706 0.63006117596 0.64864943915 -0.42693889449 
0.74870829583 0.46516897239 -0.4722856285 0.71100794978 0.18073512651 -0.67956052666 0.47992050276 -0.051160289333 -0.8758190086 
0.18801942892 -0.16664589151 -0.9679245018 -0.4741906032 -0.22214816017 -0.85193513061 -0.69741410144 0.13626394807 0.70359484618 
-0.48745705945 0.2231715993 0.84414456846 -0.47558332801 0.23325288455 0.84818252161 -0.5158417915 0.15896806683 0.84180544063 
-0.54120986511 0.043453550123 0.83976405668 -0.54143929034 -0.030475238117 0.84018733312 -0.54192270327 -0.027387913305 0.83998195569 
-0.59365208792 0.24116215549 0.76773564022 0.32023787527 0.46883872416 -0.82318767846 0.40823881525 0.28207108172 -0.86820330256 
0.43162781437 0.1598792722 -0.88777026768 0.41023982292 -0.075654181165 -0.90883427123 0.27404259688 -0.40829485401 -0.87074449024 
0.12082847679 -0.59176434652 -0.7970040385 0.077666646602 -0.62010610434 -0.78066401952 0.1306924084 -0.60295413458 -0.78699797076 
0.23070746762 -0.59625758242 -0.76892844907 0.33568947479 -0.61055015718 -0.7173151902 0.4268439877 -0.63627645975 -0.64261689749 
0.59099070056 -0.68471508717 -0.42649178333 0.63075962394 -0.3075923688 0.71241085861 0.48580947599 -0.13808341093 0.86308871193 
0.5638530127 -0.20644368422 0.79965666715 0.6336252494 -0.24325287892 0.73440253282 0.68774344921 -0.24836851339 0.68214516756 
0.76614821961 -0.22588040351 0.60166016063 0.93487403984 -0.096230668929 0.34168726636 0.76338847199 0.36844737828 -0.53055119476 
0.76338847199 0.36844737828 -0.53055119476 
