# vtk DataFile Version 4.2
vtk output
ASCII
DATASET POLYDATA
POINTS 64 float
0 0 0 -0.755269 0.184443 0.674631 -1.59319 0.427356 1.16362 
-2.50085 0.666167 1.54368 -3.44948 0.849485 1.85228 -4.42171 0.926265 2.13034 
-5.38834 0.822905 2.41578 -6.27679 0.450751 2.72525 -7.00295 -0.189411 3.0216 
-7.59565 -0.981162 3.24533 -8.1654 -1.81392 3.34545 -8.78363 -2.61167 3.25801 
-9.41769 -3.31685 2.90522 -9.91039 -3.91246 2.2543 -10.0558 -4.43901 1.40554 
-9.78542 -4.93923 0.570098 -9.25057 -5.40443 -0.154524 -8.6281 -5.81699 -0.841216 
-8.02587 -6.18006 -1.5723 -7.4652 -6.53565 -2.3395 -6.90276 -6.96076 -3.06834 
-6.29546 -7.53908 -3.63464 -5.65934 -8.29957 -3.80165 -5.14224 -9.01443 -3.32936 
-4.84359 -9.37882 -2.43794 -4.69932 -9.40047 -1.43667 -4.66651 -9.1723 -0.450082 
-4.75874 -8.79577 0.48661 -5.0232 -8.38873 1.37629 -5.49888 -8.08781 2.21782 
-6.15277 -8.02294 2.98713 -6.87454 -8.26243 3.65418 -7.52994 -8.80528 4.201 
-7.99369 -9.59389 4.63268 -8.17737 -10.5254 4.9824 -8.05864 -11.4765 5.30818 
-7.67555 -12.3352 5.68341 -7.09489 -13.0018 6.17568 -6.40277 -13.4032 6.79555 
-5.66792 -13.5569 7.47623 -4.90676 -13.5385 8.14601 -4.10866 -13.4149 8.75961 
-3.2687 -13.2338 9.29867 -2.39616 -13.0334 9.77595 -1.50519 -12.8566 10.2279 
-0.605445 -12.7598 10.6859 0.290904 -12.8017 11.1579 1.15891 -13.0152 11.6361 
1.96455 -13.3949 12.1203 2.6627 -13.9237 12.6304 3.16085 -14.6004 13.1941 
3.26698 -15.4017 13.7955 2.90403 -16.1886 14.3142 2.29135 -16.898 14.7004 
1.61898 -17.5983 14.9945 0.999158 -18.3667 15.2262 0.492402 -19.2287 15.3937 
0.0683857 -20.1466 15.4738 -0.36278 -21.0639 15.4404 -0.847191 -21.9405 15.2817 
-1.35387 -22.7733 15.0019 -1.77396 -23.6058 14.6069 -1.8614 -24.4752 14.127 
-1.39186 -25.277 13.6983 
LINES 1 65
64 0 1 2 3 4 5 6 7 8 9 10 11 12 13 14 15 16 17 18 19 20 21 22 23 24 25 26 27 28 29 30 31 32 33 34 35 36 37 38 39 40 41 42 43 44 45 46 47 48 49 50 51 52 53 54 55 56 57 58 59 60 61 62 63 

CELL_DATA 1
FIELD FieldData 2
Length 1 1 double
63.789439078 
Tortuosity 1 1 double
1.2161572462 
POINT_DATA 64
SCALARS MaximumInscribedSphereRadius float
LOOKUP_TABLE default
0.9796 1.20104 1.11757 0.93 0.93 1.09015 1.24911 1.27321 1.24826 
1.24 1.24 1.24289 1.29112 1.21167 1.3725 1.62072 1.24538 1.24 
1.04548 1.04475 1.31128 1.77008 1.84727 1.65174 1.72419 1.74814 1.59027 
1.82536 1.65942 1.68575 1.87713 1.8633 1.86 1.96474 2.11703 1.95193 
1.59219 1.35754 1.57228 1.97807 2.04531 1.87804 1.86 1.86 1.86608 
1.87945 1.86939 1.96834 2.14325 2.16714 2.02965 1.8639 1.85409 1.82301 
2.15269 2.50964 2.54191 2.43156 2.40352 2.45341 2.24207 2.17 2.17 
2.17 
TEXTURE_COORDINATES TCoords 2 float
0 0 0.015873 0 0.031746 0 0.047619 0 0.0634921 
0 0.0793651 0 0.0952381 0 0.111111 0 0.126984 0 
0.142857 0 0.15873 0 0.174603 0 0.190476 0 0.206349 
0 0.222222 0 0.238095 0 0.253968 0 0.269841 0 
0.285714 0 0.301587 0 0.31746 0 0.333333 0 0.349206 
0 0.365079 0 0.380952 0 0.396825 0 0.412698 0 
0.428571 0 0.444444 0 0.460317 0 0.47619 0 0.492063 
0 0.507937 0 0.52381 0 0.539683 0 0.555556 0 
0.571429 0 0.587302 0 0.603175 0 0.619048 0 0.634921 
0 0.650794 0 0.666667 0 0.68254 0 0.698413 0 
0.714286 0 0.730159 0 0.746032 0 0.761905 0 0.777778 
0 0.793651 0 0.809524 0 0.825397 0 0.84127 0 
0.857143 0 0.873016 0 0.888889 0 0.904762 0 0.920635 
0 0.936508 0 0.952381 0 0.968254 0 0.984127 0 
1 0 
FIELD FieldData 7
Curvature 1 64 double
0 0.20559449363 0.12770942514 0.096925213647 0.11050869526 0.1769508914 0.27946663444 0.31368568245 0.21143555016 
0.1291673641 0.19347356132 0.28001780322 0.35036984606 0.41436541579 0.42682095341 0.28784015583 0.10632169521 0.067608900424 
0.054029878804 0.077312277027 0.22486256606 0.45382285889 0.72434469597 0.6377993133 0.39884216231 0.27220525745 0.19697931457 
0.17770515536 0.23848231292 0.30411209126 0.32932414882 0.33449075047 0.33368275144 0.32585724634 0.30362857339 0.28305662597 
0.29880021962 0.31489979778 0.25631281811 0.17101478383 0.12184984251 0.10039976033 0.070501707307 0.03811883951 0.078555315336 
0.13624789984 0.17057898442 0.17416984181 0.18218798399 0.25209178709 0.42286886694 0.49599812269 0.29240718001 0.10740290174 
0.10358975792 0.15680913921 0.12959861107 0.11091241217 0.13885986601 0.12760762111 0.14102133172 0.35202378215 0.59803903565 
0 
Torsion 1 64 double
0 0 0.45488372361 0.65635274921 0.53644419345 0.2002416135 0.013362920701 -0.098782487859 -0.39930955582 
-1.0372814202 -0.15558642251 0.23490260309 0.40906764346 0.3887014716 0.22673588442 0.033424628267 -0.73000189961 -1.0376316596 
-1.0509391314 -0.75258119517 -0.14473693665 -0.11166272867 -0.11516310877 -0.14319601557 -0.1338657948 0.056399801002 0.43156032822 
0.69258787743 0.42625976029 0.28496390868 0.25095569805 0.2466946104 0.25893528005 0.27976360348 0.32906765385 0.38228436365 
0.28085660588 0.098357977709 -0.070348450407 -0.29493850583 -0.43543801146 -0.3374628592 -0.42802548719 -1.536718291 -0.2624804384 
-0.028383514471 -0.048550526839 -0.1567028024 -0.25073682138 -0.14794623352 -0.018805746229 0.037921750772 0.17019825174 1.0854451519 
0.69252217766 -0.031355999703 -0.49805481765 -0.70178785079 -0.084914225826 0.50485082389 1.0382378677 0.26799218612 0 
0 
Abscissas 1 64 double
0 1.0293582339 2.0294723912 3.0420504505 4.0563219558 5.0704405012 6.0836275064 7.095358487 8.1077501457 
9.1217642068 10.135726433 11.148775754 12.160587426 13.171129943 14.180475942 15.1910556 16.204735435 17.219243926 
18.233633452 19.248220949 20.262260384 21.274164657 22.279590686 23.280331505 24.288595001 25.300439897 26.313602229 
27.327343066 28.340830012 29.353248513 30.364994157 31.37655657 32.388115509 33.399705328 34.411542822 35.423817557 
36.436199415 37.448073413 38.460183537 39.473578492 40.487640635 41.501897519 42.516273642 43.530808654 44.545345581 
45.559618505 46.573497059 47.587226067 48.601002773 49.614504793 50.626324205 51.633867219 52.643844561 53.657575385 
54.672018649 55.686046071 56.69993957 57.714213901 58.728337211 59.742382829 60.756561734 61.769206704 62.766101456 
63.789415706 
ParallelTransportNormals 3 64 double
0.6661716097 0 0.74579848915 0.51249649623 0.041272076727 0.85769689112 0.40127915995 0.071973682093 0.91312366352 
0.32372799796 0.089611464162 0.94189700542 0.28068095561 0.095440158741 0.95504417555 0.27253048015 0.095328073303 0.95741302259 
0.28977981885 0.099751543919 0.95188092011 0.2960793997 0.10370075372 0.94951732093 0.26676369942 0.071877546085 0.96107790893 
0.20112243048 -0.019854927724 0.97936487062 0.087737529103 -0.17547234383 0.98056696994 -0.085427361709 -0.38328679819 0.91967026494 
-0.27190141844 -0.5985671392 0.7535164222 -0.36476831371 -0.76193510215 0.53516257102 -0.35426695853 -0.84839537638 0.39334489628 
-0.32230379807 -0.88674063114 0.33137790336 -0.28713648063 -0.91341430751 0.28849080459 -0.25603758908 -0.93310990032 0.25248894412 
-0.25295452501 -0.93501520435 0.24851675176 -0.29346196302 -0.90685697094 0.30247398321 -0.39456516997 -0.82011810126 0.41439670201 
-0.58991756238 -0.60970194785 0.52939664183 -0.83443589929 -0.29683078046 0.46433631964 -0.95476274755 -0.13760250842 0.2636164744 
-0.98386744645 -0.11221037973 0.13933297708 -0.99086672298 -0.12036368785 0.060792433259 -0.98786090421 -0.15097427689 -0.036573236863 
-0.95858844213 -0.21527674629 -0.1864513908 -0.87280733441 -0.29730775945 -0.38706001237 -0.72965237134 -0.34365378459 -0.59119327916 
-0.58151963748 -0.32484782111 -0.74586111599 -0.47802980873 -0.26605706029 -0.83707893453 -0.43860700191 -0.21915547273 -0.87154734619 
-0.44512461446 -0.23647100905 -0.86368138772 -0.44867372851 -0.33924238635 -0.82680498828 -0.40101680934 -0.51111218298 -0.76023013295 
-0.27288148977 -0.71389732805 -0.64489246976 -0.080534903209 -0.87530226671 -0.47682289296 0.095524122945 -0.94381646385 -0.31636312127 
0.21031732576 -0.95420618226 -0.21273735974 0.27162542867 -0.94862322365 -0.16227632621 0.29651726684 -0.94399252406 -0.14476057811 
0.29614040326 -0.94407649654 -0.14498424137 0.26915895114 -0.94984660509 -0.15920077202 0.2018209856 -0.96013385899 -0.19341991262 
0.087834033029 -0.96361680653 -0.25244372209 -0.05160735213 -0.94342888373 -0.32753415477 -0.18126245725 -0.89747700233 -0.40209321292 
-0.28673014912 -0.83376178116 -0.47183377779 -0.37890233823 -0.74086214931 -0.55457758141 -0.44697129575 -0.57411288452 -0.68601097411 
-0.41257624714 -0.36092877979 -0.83636789526 -0.32235965586 -0.22248809236 -0.92009961473 -0.25849343356 -0.15242538656 -0.95391176025 
-0.22300356751 -0.11208589313 -0.96835229201 -0.19688836205 -0.07429130634 -0.97760716788 -0.16354572553 -0.010530903552 -0.98647954654 
-0.11637037308 0.090706154367 -0.98905527137 -0.056502643673 0.20800563839 -0.97649429371 0.0057252453873 0.31533466463 -0.94896326106 
0.05562898901 0.4050084331 -0.91261907974 0.076663487503 0.47591653038 -0.87614277706 0.070759674691 0.50225413884 -0.86182007893 
0.070759674691 0.50225413884 -0.86182007893 
FrenetTangent 3 64 double
-0.78924009732 0.21170513519 0.57643820528 -0.78924009732 0.21170513519 0.57643820528 -0.86906614775 0.23983421483 0.43267029045 
-0.91695110392 0.20851893223 0.34017720076 -0.94846885284 0.12842936315 0.28967694744 -0.96018273065 -0.013163216947 0.27906245446 
-0.92507413844 -0.23712490495 0.29666414991 -0.80742949435 -0.50623599506 0.30295664535 -0.6545191009 -0.71062461737 0.25810346714 
-0.57442938972 -0.80275817432 0.16003183991 -0.5888588955 -0.80821141925 0.0062851402618 -0.62452116072 -0.74951568557 -0.21954397485 
-0.56557027538 -0.65292387589 -0.50380618882 -0.32248075599 -0.56710438207 -0.75789100921 0.06322881278 -0.51949835295 -0.85212885089 
0.40190079604 -0.48185351514 -0.77864814909 0.57144399244 -0.43340703609 -0.69685730574 0.60398382083 -0.38251651769 -0.69920287319 
0.57336096183 -0.35433086255 -0.73871973528 0.55405648738 -0.38513760975 -0.7380314562 0.58106535541 -0.49845158798 -0.64335765106 
0.63155625881 -0.68000653816 -0.37246181014 0.60781981942 -0.77760251668 0.16090181224 0.42466629352 -0.56184023445 0.70992541165 
0.2234953376 -0.19479373282 0.95504200731 0.088258009864 0.10293135585 0.99076518897 -0.029459974423 0.29980505762 0.95354550879 
-0.17665615196 0.38807518947 0.9045386953 -0.3679555946 0.35195760772 0.8606593535 -0.56446501586 0.18279156143 0.80496365815 
-0.68903139427 -0.087462817879 0.71943449542 -0.69012795519 -0.39204651939 0.60829510281 -0.56078594403 -0.66717057107 0.49030863145 
-0.32417866153 -0.861292167 0.39125950272 -0.032455545785 -0.9407478545 0.33755016191 0.25032822751 -0.90280177009 0.34969235397 
0.48139896395 -0.76189707153 0.4333219241 0.63659314375 -0.53417040396 0.556247381 0.71031253679 -0.27631611107 0.64738358555 
0.74062660038 -0.066982543953 0.66856980011 0.77020261809 0.070141562125 0.63393066526 0.80851632016 0.15039424091 0.56893139511 
0.84459623993 0.18815393222 0.50125371747 0.86927112381 0.18592987975 0.45803689058 0.88334563339 0.13496455473 0.44887087335 
0.88769164223 0.027133558433 0.45963824723 0.8733726849 -0.12642530396 0.47035815694 0.82866024078 -0.2937071589 0.476506359 
0.74490791121 -0.45002918072 0.49253014153 0.59537239945 -0.59995084907 0.53440685314 0.30571109218 -0.7477343324 0.58943540466 
-0.13100737882 -0.81016285032 0.57137835333 -0.48722979873 -0.74725280487 0.45190747819 -0.63453137007 -0.69608116272 0.33591807827 
-0.63791136789 -0.72504671864 0.2595695331 -0.55727903264 -0.80650209682 0.19747011824 -0.45991737291 -0.87949286883 0.12234501938 
-0.42226839123 -0.90617750008 0.023059577644 -0.45254329732 -0.88667310357 -0.094949309917 -0.48966808944 -0.84456375694 -0.21665000034 
-0.45839896678 -0.82369172219 -0.33376988187 -0.25635764166 -0.85964419111 -0.44191925082 0.19693618176 -0.86134446294 -0.46829676112 
0.19693618176 -0.86134446294 -0.46829676112 
FrenetNormal 3 64 double
-0.5055189229 0.30894951132 -0.80560587017 -0.5055189229 0.30894951132 -0.80560587017 -0.45714719773 -0.055111235373 -0.88768192014 
-0.39698495435 -0.56235096789 -0.72537185976 -0.2094891605 -0.94003991913 -0.26914539206 0.026008664227 -0.99876305818 0.042378095783 
0.27346871799 -0.95793238755 0.087065499297 0.51923120525 -0.85357750324 -0.042478246986 0.62680564679 -0.70092492455 -0.3403218055 
0.17334954541 -0.31037355118 -0.9346754484 -0.24903768285 0.1740386512 -0.95272807265 -0.058989781464 0.32556869572 -0.94367644352 
0.40450508495 0.31273982944 -0.85940062563 0.85524984122 0.16856134473 -0.49003549071 0.99730445464 0.06474080788 0.034531906241 
0.91120391387 0.12644858779 0.39206910359 0.79935916713 0.48610359172 0.35316882655 -0.29023118246 0.71149838885 -0.63994992256 
-0.7500136263 0.13589777573 -0.64731086421 0.026155891075 -0.87805520987 0.47784403081 0.20236382626 -0.67718991953 0.70743388009 
0.075072243901 -0.42450118451 0.90230975975 -0.17795925486 0.064081873491 0.98194909089 -0.3769752313 0.60320105515 0.70287848313 
-0.39629928659 0.87702271756 0.27162111173 -0.40729740763 0.91142608582 -0.058406436558 -0.62405789331 0.73967996239 -0.25184379886 
-0.95117522246 0.16900186682 -0.25827130153 -0.87722488671 -0.43834481708 -0.19578130525 -0.5866156279 -0.77490316388 -0.23538732277 
-0.20721218361 -0.92747578362 -0.31121018905 0.19929343095 -0.91100618973 -0.36103995714 0.57689697044 -0.73963082212 -0.34660659612 
0.86216784647 -0.43921332724 -0.25250397558 0.99486756466 -0.062792484583 -0.079345022985 0.92957243173 0.32508235594 0.17382910007 
0.66076832834 0.64027778193 0.39170087851 0.35363336591 0.84316556191 0.404987997 0.16172688626 0.95918831828 0.23195297872 
0.14797828092 0.98684853877 -0.065056820534 0.29454275142 0.84248173458 -0.45107548646 0.40564025685 0.5579771832 -0.72395956037 
0.44750669883 0.26588715618 -0.85383943144 0.46923208091 -0.60186549277 -0.6462036698 0.11233604877 -0.9906972023 0.076809280068 
-0.022169441493 -0.99458560562 0.10152826675 -0.16213856382 -0.986110692 0.036010960135 -0.35109337781 -0.9357301535 0.033801181895 
-0.5782178054 -0.80376441761 0.14009614737 -0.7820398295 -0.58525504922 0.21422005609 -0.94579927799 -0.30972937656 0.097629089121 
-0.9836796582 0.034527041004 -0.176584862 -0.8455460087 0.27431412151 -0.45804334938 -0.53854051965 0.086440749239 -0.83815398678 
0.49243490443 -0.64317754943 -0.58637062069 0.70505666442 -0.58524007065 -0.40048615415 0.6249567901 -0.41848602359 -0.65901324612 
-0.063395150393 0.0041457367093 -0.99797989347 -0.37500837536 0.28583149121 -0.88185547401 -0.16983460202 0.33610700282 -0.92638452632 
0.59613667412 -0.0064330902571 -0.80285719846 0.95251183227 -0.14695122033 -0.2666956097 0.98016686163 0.16220005911 0.11385984453 
0.98016686163 0.16220005911 0.11385984453 
FrenetBinormal 3 64 double
-0.34864120148 -0.92721687603 -0.13681439047 -0.34864120148 -0.92721687603 -0.13681439047 -0.18905150212 -0.96924831758 0.15753484825 
0.040045212432 -0.80017575808 0.59842721959 0.23774172295 -0.31596020179 0.91850314319 0.27815943837 0.047948757405 0.95933739816 
0.26353879918 0.1616704065 0.95100472186 0.28010099456 0.12300635462 0.95205717768 0.42275220605 -0.06096641149 0.90419227433 
0.799988007 -0.50916360071 0.31744545418 0.76891185042 -0.56258763734 -0.30375930702 0.77877694207 -0.57639505675 -0.24753830624 
0.71868344899 -0.68984361371 0.087234676425 0.40565240183 -0.8062131808 0.43065814284 0.037228241807 -0.85201531035 0.522191506 
-0.090460916907 -0.86708012582 0.489886597 0.18567898488 -0.75885547978 0.62422886459 0.74227313363 0.58944987603 0.31871529417 
0.32975258577 0.92519264718 -0.18783449573 -0.83206807303 -0.2840564556 -0.47641856794 -0.78829685688 -0.54125763489 -0.29262303073 
-0.77168701567 -0.59782092001 -0.21704676326 -0.7738769739 -0.62548208571 -0.099431331669 -0.82313316914 -0.56611309649 0.044359304 
-0.8905036269 -0.43918851822 0.118813871 -0.90902109185 -0.39838125718 0.12236432687 -0.78082255071 -0.60248691327 0.16530475989 
-0.25309741239 -0.90600000901 0.33927228521 0.30835884705 -0.82703063045 0.47003740036 0.58074206924 -0.60507217064 0.54463411327 
0.69447739249 -0.36350918323 0.62093657086 0.6957050624 -0.12793454929 0.70684313482 0.59389309685 0.08848545685 0.79966325003 
0.38932608431 0.25547496204 0.88496200136 0.095839273476 0.3332425215 0.93795749132 -0.27061203352 0.28155004132 0.92059692675 
-0.57588215267 0.09776100633 0.81166651519 -0.68534123752 -0.061104948566 0.72565389368 -0.68505511774 -0.060059777223 0.72601123188 
-0.65541945897 0.14711662152 0.74079824006 -0.56571414573 0.53413920298 0.62822194897 -0.4263300858 0.81611459694 0.39012770038 
-0.29393017198 0.94546396968 0.14036714728 0.15552802823 0.77665179355 -0.61042855766 0.45506164871 -0.017424761832 -0.89028943246 
0.45990440765 -0.10031571707 -0.88228379376 0.45927251104 -0.10771418499 -0.88174055989 0.43595371935 -0.19530792266 -0.8785210128 
0.33283084794 -0.38914842603 -0.85894535867 0.1842428046 -0.54546815312 -0.81763016266 0.10956483863 -0.58733387561 -0.80189429771 
0.12333449129 -0.58518718321 -0.80146401283 0.21830957469 -0.60528093341 -0.76549064086 0.55438619129 -0.71274049399 -0.42971727814 
0.59209539065 -0.24623138651 0.76732858195 0.43856034902 -0.083954913682 0.89477169867 0.63079713109 -0.22663129028 0.7421140328 
0.90425132606 -0.42287722949 -0.059197872471 0.80905703289 -0.36347099751 -0.46186096556 0.8552083782 -0.41682627451 -0.30801702346 
0.6591596567 -0.56700137755 0.4939817657 0.16432275848 -0.48930277286 0.85649333186 -0.0221147843 -0.48143208969 0.87620435934 
-0.0221147843 -0.48143208969 0.87620435934 
