# vtk DataFile Version 4.2
vtk output
ASCII
DATASET POLYDATA
POINTS 64 float
0 0 0 -0.299947 0.0939117 -0.979865 -0.851361 -0.0253643 -1.79694 
-1.6539 -0.413127 -2.29072 -2.50158 -0.959925 -2.39745 -3.31542 -1.55813 -2.30582 
-4.09607 -2.17784 -2.1157 -4.85698 -2.80971 -1.88928 -5.61316 -3.45213 -1.67865 
-6.38077 -4.1059 -1.5599 -7.12856 -4.76786 -1.74551 -7.61643 -5.37472 -2.38342 
-7.76452 -5.93006 -3.22224 -7.70214 -6.49788 -4.06025 -7.50863 -7.10279 -4.85147 
-7.21883 -7.74819 -5.57863 -6.85322 -8.4311 -6.23383 -6.42449 -9.1466 -6.81135 
-5.93959 -9.89193 -7.30016 -5.40154 -10.6673 -7.67077 -4.81185 -11.4771 -7.85009 
-4.2365 -12.2701 -7.61578 -3.9037 -12.8267 -6.84334 -3.86437 -13.1054 -5.86392 
-3.94934 -13.3035 -4.87378 -4.07991 -13.5165 -3.8901 -4.20716 -13.8048 -2.92578 
-4.29183 -14.2122 -2.00054 -4.30172 -14.7624 -1.14836 -4.22352 -15.4448 -0.401838 
-4.0684 -16.2207 0.233105 -3.85655 -17.0501 0.777611 -3.60307 -17.9044 1.26271 
-3.31179 -18.7629 1.7183 -2.97555 -19.6071 2.16956 -2.57805 -20.4159 2.63558 
-2.09875 -21.1634 3.12639 -1.52149 -21.8201 3.64077 -0.84463 -22.3621 4.1673 
-0.0835026 -22.7798 4.69214 0.738661 -23.0783 5.20617 1.60006 -23.2713 5.70625 
2.48367 -23.3752 6.1939 3.37719 -23.4057 6.67356 4.27199 -23.3764 7.15094 
5.16182 -23.2993 7.63225 6.04235 -23.1857 8.12335 6.91127 -23.048 8.62875 
7.76865 -22.9008 9.1509 8.61663 -22.7606 9.69006 9.45837 -22.6449 10.2446 
10.2964 -22.571 10.8117 11.131 -22.556 11.3885 11.9576 -22.6177 11.9734 
12.7656 -22.7759 12.5663 13.5335 -23.053 13.1686 14.2251 -23.4708 13.7821 
14.7877 -24.041 14.4044 15.1631 -24.7521 15.0224 15.3105 -25.5645 15.6127 
15.2311 -26.4178 16.1502 14.9474 -27.2763 16.629 14.5275 -28.0801 17.0356 
13.9708 -28.8658 17.3977 
LINES 1 65
64 0 1 2 3 4 5 6 7 8 9 10 11 12 13 14 15 16 17 18 19 20 21 22 23 24 25 26 27 28 29 30 31 32 33 34 35 36 37 38 39 40 41 42 43 44 45 46 47 48 49 50 51 52 53 54 55 56 57 58 59 60 61 62 63 

CELL_DATA 1
FIELD FieldData 2
Length 1 1 double
63.901360091 
Tortuosity 1 1 double
0.75147983236 
POINT_DATA 64
SCALARS MaximumInscribedSphereRadius float
LOOKUP_TABLE default
1.24 1.09229 0.987418 1.37923 1.44247 1.24854 1.07348 1.06987 1.38044 
1.64415 1.32682 1.02588 1.44129 1.41528 1.28686 1.2772 1.25875 1.09958 
0.978408 1.10529 1.30762 1.48211 1.55 1.55 1.55519 1.56946 1.64688 
1.79091 1.75849 1.61353 1.58185 1.58246 1.85547 2.07755 1.71694 1.32073 
1.24 1.35879 1.72497 2.01154 2.14081 2.10213 1.9464 1.98343 2.12492 
2.05239 1.89485 1.73163 1.59152 1.85251 2.13608 2.13313 2.12052 2.2459 
2.37092 2.4457 2.29221 1.98911 2.01412 2.14471 2.17 2.17 2.17 
2.17 
TEXTURE_COORDINATES TCoords 2 float
0 0 0.015873 0 0.031746 0 0.047619 0 0.0634921 
0 0.0793651 0 0.0952381 0 0.111111 0 0.126984 0 
0.142857 0 0.15873 0 0.174603 0 0.190476 0 0.206349 
0 0.222222 0 0.238095 0 0.253968 0 0.269841 0 
0.285714 0 0.301587 0 0.31746 0 0.333333 0 0.349206 
0 0.365079 0 0.380952 0 0.396825 0 0.412698 0 
0.428571 0 0.444444 0 0.460317 0 0.47619 0 0.492063 
0 0.507937 0 0.52381 0 0.539683 0 0.555556 0 
0.571429 0 0.587302 0 0.603175 0 0.619048 0 0.634921 
0 0.650794 0 0.666667 0 0.68254 0 0.698413 0 
0.714286 0 0.730159 0 0.746032 0 0.761905 0 0.777778 
0 0.793651 0 0.809524 0 0.825397 0 0.84127 0 
0.857143 0 0.873016 0 0.888889 0 0.904762 0 0.920635 
0 0.936508 0 0.952381 0 0.968254 0 0.984127 0 
1 0 
FIELD FieldData 7
Curvature 1 64 double
0 0.37016876538 0.51347320686 0.42540103719 0.20402072306 0.10341513664 0.041854682282 0.019014641059 0.090768392393 
0.30268861003 0.54993266684 0.40443754683 0.20666161412 0.14073424407 0.11947821575 0.10821397385 0.10254299682 0.10633991134 
0.12986645474 0.19679285547 0.42154599977 0.69496800099 0.46498836234 0.1444993388 0.04706855223 0.07568966759 0.12917475258 
0.17328936441 0.18705703067 0.16104210911 0.11642289491 0.074616150526 0.046788807367 0.046049577593 0.07030431402 0.10245714173 
0.13237418008 0.14892428604 0.14672528421 0.13110841481 0.11053754071 0.090208190547 0.072468096244 0.058199343095 0.046867065861 
0.037818990721 0.029471912826 0.021811524717 0.020067878816 0.028754699278 0.042572033168 0.058134509181 0.075440897143 0.096019408971 
0.12271963682 0.15687272889 0.19611543925 0.23088068541 0.24765762041 0.23342281884 0.20739676449 0.15926707159 0.13828366686 
0 
Torsion 1 64 double
0 0 -0.012827074613 -0.019339833207 -0.047709373178 -0.085886279387 -0.40796736717 -2.290346128 0.022176559411 
0.17241207268 0.16946361697 0.30555510425 0.52716211746 0.33563005504 0.16962166183 0.093365173294 0.063645100844 0.070987613182 
0.09394455245 0.14067847929 0.094542074405 0.067258753164 0.11115092399 0.494130524 1.9455335285 0.52062430939 0.14203481791 
0.057970326724 0.028245793443 0.023754050164 0.055438983638 0.19276967295 0.59201563569 0.5821133871 0.17419095355 0.025501280903 
-0.016400614412 -0.019487038936 -0.0062175613104 0.011682775632 0.031514259962 0.057766611474 0.092214865383 0.13504370946 0.18717945353 
0.24652264932 0.35570304091 0.63144588604 0.79893350837 0.4143517529 0.17754157875 0.057693882234 -0.011056606848 -0.05825079187 
-0.090022105879 -0.10165583293 -0.091833355513 -0.071380781066 -0.05178910275 -0.040629135985 -0.030556564776 -0.027466108269 0 
0 
Abscissas 1 64 double
0 1.0290397246 2.0219668768 3.0409122492 4.0552809686 5.0694647504 6.0841622445 7.0988054883 8.113146968 
9.1284013871 10.144188444 11.150779052 12.167612742 13.181798356 14.196389905 15.210927532 16.225481264 17.240021215 
18.254700089 19.268594544 20.286298609 21.293690103 22.302227622 23.32129995 24.334625319 25.349548704 26.364042721 
27.378557223 28.392958285 29.407357578 30.421872477 31.436438315 32.451028484 33.465628203 34.480224507 35.494800933 
36.509336926 37.523812139 38.538280256 39.552784871 40.567319983 41.581881473 42.596459641 43.611047664 44.625641596 
45.640239083 46.654838864 47.669441426 48.684044841 49.698648435 50.713249028 51.727843351 52.742430836 53.757007001 
54.771567655 55.786094935 56.800562828 57.81495057 58.829078111 59.843996864 60.855661204 61.878745581 62.872579464 
63.901358927 
ParallelTransportNormals 3 64 double
0 0.99543860608 0.095404305642 -0.086712454549 0.99248299898 -0.086362300554 -0.27763907588 0.92130227712 -0.27224742005 
-0.47773506257 0.8079467543 -0.34495108668 -0.5806751715 0.73700730874 -0.3458852007 -0.63440699619 0.69596583855 -0.33639160924 
-0.65927452113 0.675776071 -0.3296722731 -0.66299020738 0.67265505194 -0.32860183507 -0.64066129428 0.69164887112 -0.33342907054 
-0.57819349237 0.74588575155 -0.33067617242 -0.55194168131 0.77286241629 -0.31311989065 -0.57928813595 0.72301096084 -0.37640457762 
-0.58479076745 0.65066881815 -0.48440669626 -0.56936379867 0.57996116515 -0.58264046519 -0.5421150303 0.50946878599 -0.66824609989 
-0.50753625824 0.43938854487 -0.7411778823 -0.46732357285 0.36859551439 -0.80358324089 -0.41902311258 0.2913663998 -0.85995654087 
-0.35276151621 0.19286738949 -0.91562081822 -0.24259400471 0.038007560442 -0.96938308951 -0.0060738282306 -0.2874006195 -0.95779120508 
0.28260828285 -0.71638193797 -0.63791024244 0.36142291512 -0.89286973351 -0.26862076502 0.35873231943 -0.92074987754 -0.15339747716 
0.35856887792 -0.92106166689 -0.1519005121 0.36777387729 -0.9031621844 -0.22145077071 0.3814158045 -0.85837821166 -0.34308720439 
0.38956927216 -0.77580408585 -0.4963504836 0.38322991956 -0.66142513135 -0.64471049655 0.36459824639 -0.5449744131 -0.75503046812 
0.34346479679 -0.45252185802 -0.82295558895 0.32661586436 -0.39155724754 -0.86023543233 0.31619220191 -0.35878418095 -0.87823482222 
0.31225943384 -0.34811294069 -0.88391822388 0.31448501051 -0.35312688449 -0.88113596091 0.32208995732 -0.36662513551 -0.87283679426 
0.33356029608 -0.38186957508 -0.86192410136 0.34647627797 -0.39421552779 -0.85120403339 0.35938684556 -0.40283178633 -0.84176460317 
0.37250700328 -0.40876634505 -0.83315581235 0.38634273608 -0.41280552453 -0.82482173177 0.40159568658 -0.41540099265 -0.81618804195 
0.41887581651 -0.41670784279 -0.80678226561 0.43846465429 -0.41672098617 -0.79629916905 0.46036043321 -0.41541579045 -0.78453680129 
0.48367408146 -0.41290465889 -0.77173125218 0.50628860342 -0.40965654494 -0.75885002816 0.52514137601 -0.4065447525 -0.74762818259 
0.53739161684 -0.4044797387 -0.74000431832 0.54133404985 -0.40388260276 -0.73745256774 0.53672297898 -0.40440297829 -0.74053134639 
0.5247943421 -0.40503653496 -0.74868972468 0.50790946802 -0.40456184593 -0.76049831368 0.48920761736 -0.40204623474 -0.77397334078 
0.47313521268 -0.39760661362 -0.78616286565 0.46525159178 -0.39385337333 -0.79272976269 0.46958463794 -0.39726713547 -0.78845994881 
0.48274705698 -0.41524746389 -0.77105435782 0.49477292703 -0.4502831662 -0.74326631897 0.49659502327 -0.49521291598 -0.71285170317 
0.48656352298 -0.54266258265 -0.684670183 0.47008990425 -0.58145802826 -0.66401961063 0.44875101586 -0.6162786491 -0.64716547531 
0.44875101586 -0.6162786491 -0.64716547531 
FrenetTangent 3 64 double
-0.42812499074 -0.012754978324 -0.90362951636 -0.42812499074 -0.012754978324 -0.90362951636 -0.69377700632 -0.25981092854 -0.67169319404 
-0.82955552665 -0.46979823839 -0.3018728928 -0.82339182553 -0.5674239207 -0.0074830392112 -0.78697329887 -0.60111176403 0.13905996554 
-0.75980731351 -0.61688139139 0.20530512731 -0.74774433262 -0.62807281553 0.215413443 -0.75158133431 -0.63932157207 0.16246053492 
-0.75468233958 -0.65524490587 -0.033296841555 -0.63263720073 -0.64961492169 -0.42162854004 -0.32055949331 -0.58581384837 -0.74435458372 
-0.042429715972 -0.55600662543 -0.83009418242 0.1264498125 -0.5795117848 -0.80509411636 0.23862153907 -0.61730781511 -0.74966047148 
0.3234910354 -0.65561481215 -0.68229228935 0.39200394638 -0.69011013551 -0.60834275445 0.45089073162 -0.72094237452 -0.52625054941 
0.5053494642 -0.75124398109 -0.42456377602 0.55783702554 -0.78410538537 -0.27202315632 0.58773668443 -0.80857653064 0.027741374725 
0.4747169235 -0.70547587188 0.52625814648 0.1883092167 -0.42268806172 0.88649559581 -0.022516414779 -0.23522847754 0.97167925491 
-0.10629943695 -0.20274567042 0.97344471997 -0.12713489147 -0.24719854939 0.96058815137 -0.10466831573 -0.34360902783 0.93326168874 
-0.046784669167 -0.47378292108 0.8793980546 0.033819373978 -0.61024166892 0.79149311776 0.11537617735 -0.7211249237 0.68313042833 
0.18117262365 -0.79253492993 0.58229276595 0.2294893841 -0.83036017444 0.50777613502 0.26853589758 -0.84431317591 0.46370651569 
0.30933177475 -0.83933426387 0.44702555478 0.36183109107 -0.81514797467 0.45234062489 0.43268432322 -0.76800551133 0.47217773244 
0.52189275366 -0.6936119546 0.49651828779 0.61988056895 -0.59248775372 0.51449620206 0.71067330628 -0.47429686743 0.51960170639 
0.78202675586 -0.35374891082 0.5131236315 0.83100919638 -0.24260466995 0.50056636888 0.86087341881 -0.14647095876 0.48728145361 
0.87638643552 -0.066279611838 0.47702602518 0.88168262682 -0.00059149056264 0.47184255393 0.87972478248 0.052450085491 0.47258152273 
0.87260445386 0.093995646857 0.47929770026 0.8622335066 0.12385510301 0.49113470001 0.85078260774 0.14040831523 0.5064133286 
0.84045299751 0.14164005026 0.52304574861 0.8327867948 0.12612221821 0.53903556514 0.82800036369 0.093458519607 0.55288416766 
0.82463609266 0.043829093846 0.56396305305 0.81927851418 -0.023032439884 0.57293300037 0.80653548962 -0.10850189076 0.58114356547 
0.7781440669 -0.2149408306 0.59016290165 0.72157074758 -0.34355608264 0.6010864117 0.62119834258 -0.48935138871 0.61208482871 
0.46552659605 -0.63590469654 0.61555682539 0.25964177455 -0.75662590148 0.60008615558 0.033784736246 -0.82757939095 0.56033110147 
-0.17943257102 -0.845917277 0.50222297133 -0.34995779301 -0.82679685661 0.44038222149 -0.48401366155 -0.78777407683 0.38097608758 
-0.48401366155 -0.78777407683 0.38097608758 
FrenetNormal 3 64 double
-0.73035058092 -0.58402010754 0.35427184893 -0.73035058092 -0.58402010754 0.35427184893 -0.4756601534 -0.53499239383 0.69823388418 
-0.1164829878 -0.38311220056 0.91632786454 0.16222947747 -0.24800736528 0.95507797766 0.31645448647 -0.19977365603 0.92733329734 
0.45750963562 -0.28295615237 0.8429832437 0.22979216785 -0.54915859475 -0.80350506993 -0.11512634605 -0.11537431753 -0.98662793965 
0.066303026152 -0.025677655507 -0.99746908059 0.48408620115 0.093257262842 -0.8700365698 0.86225130514 0.14484570659 -0.4853271145 
0.99778279503 -0.066221902271 -0.0066448173004 0.90974604319 -0.25579075952 0.32700645902 0.78591334801 -0.33069778482 0.5224740994 
0.68260629836 -0.33766209169 0.64809949334 0.59971941036 -0.30974884562 0.73782943928 0.51398622716 -0.27230508256 0.81342983736 
0.40239547805 -0.23008198308 0.88608135084 0.246369451 -0.15653854147 0.95645061485 -0.019672049566 0.019996219021 0.99960650343 
-0.38241733653 0.37320621351 0.8452656996 -0.65093107866 0.6221895467 0.43493551111 -0.83835448735 0.53394609605 0.10983314644 
-0.93906831642 -0.30136724637 -0.16531327809 0.041995635457 -0.96891976487 -0.24378444546 0.32163994498 -0.89967859771 -0.29517141904 
0.42251240252 -0.80711808948 -0.4123635039 0.46171023029 -0.6928319719 -0.55390208698 0.4671276235 -0.56754222803 -0.6780026569 
0.47504217835 -0.44791124592 -0.75743675945 0.54260843315 -0.32396045768 -0.77500045815 0.78517048768 -0.087015838413 -0.61313583253 
0.9491709254 0.30128614563 -0.091110991761 0.84765385114 0.48963393172 0.20430751711 0.7776111344 0.58293927542 0.23559016285 
0.72282858572 0.66867437769 0.17433706513 0.65343494313 0.75278390415 0.079618896937 0.56085397923 0.82783570105 -0.011439669909 
0.45418890662 0.88725845738 -0.08052867134 0.34572629169 0.9302242376 -0.12311051544 0.23957230508 0.96155654091 -0.13421672504 
0.13292551137 0.98529982708 -0.10730824382 0.021127964738 0.99904568868 -0.038227228984 -0.10292857967 0.99133770964 0.081579733617 
-0.23915272398 0.93785175853 0.25147575157 -0.38268082027 0.79452753492 0.47146726933 -0.51397376826 0.42319150576 0.74615006198 
-0.45529848276 -0.33882551278 0.82334717069 -0.21095221121 -0.82793876378 0.51963118461 -0.084045672631 -0.95418803381 0.28716114126 
-0.058205365073 -0.98512699584 0.16166922263 -0.10161515475 -0.98920964567 0.10553974245 -0.18960573098 -0.97855955161 0.080441722628 
-0.31806439854 -0.94508437128 0.075170270344 -0.47560685366 -0.87688857085 0.06974636229 -0.6449203109 -0.76294982539 0.044557339741 
-0.79845374274 -0.60179182281 -0.017838797414 -0.90913894462 -0.40106126845 -0.11232202955 -0.95888400239 -0.18491121621 -0.21528890376 
-0.95247149316 0.021632871048 -0.30385864084 -0.91025924781 0.18909612379 -0.36833511609 -0.85186012889 0.32459380419 -0.41106347818 
-0.85186012889 0.32459380419 -0.41106347818 
FrenetBinormal 3 64 double
-0.53225653707 0.81163897425 0.2407179973 -0.53225653707 0.81163897425 0.2407179973 -0.54075954358 0.80391630159 0.24758371527 
-0.5461404048 0.79530790074 0.26308934083 -0.54378993949 0.78518943 0.2962601234 -0.52965043648 0.77379269414 0.34744104771 
-0.46192832741 0.73443390771 0.49722133457 0.62295583521 -0.55131604022 0.55495644079 0.64951629876 -0.76023463111 0.013110426968 
0.65273154899 -0.75497998076 0.062823193263 0.60450866173 -0.75452205829 0.25547160594 0.39212791029 -0.79739692521 0.45868708902 
-0.05127585338 -0.82853563118 0.55758362128 -0.39543973221 -0.77378109219 0.49486385962 -0.57043840203 -0.71384174473 0.40623883734 
-0.65528786914 -0.67539139018 0.33829614042 -0.69761704026 -0.65406700995 0.29244967368 -0.72973673776 -0.63725350892 0.24777461318 
-0.76334775711 -0.61862327949 0.18602537403 -0.79254018608 -0.60056176174 0.10585661896 -0.80881308115 -0.58805114176 -0.0041538461199 
-0.79271736657 -0.60251217116 -0.092618898402 -0.73541034107 -0.65894989981 -0.15797676977 -0.54466022859 -0.81213861493 -0.20922740146 
0.32688090615 -0.93170380269 -0.15835686678 0.99099600704 0.0093470008125 0.13356476932 0.94105913176 0.26927914294 0.20468623233 
0.90514886314 0.35226429471 0.23793991305 0.8863858715 0.3841730915 0.25832367793 0.87662997956 0.39733444831 0.2713765191 
0.86111056736 0.41384042893 0.29533826395 0.80802890472 0.45337799083 0.37621494729 0.55802847327 0.52873765219 0.63956291182 
-0.0582100292 0.45248718429 0.88986905809 -0.38802217743 0.30950346089 0.86812809972 -0.4561854887 0.26523449199 0.84943832275 
-0.45293132961 0.26791236076 0.85033886046 -0.43447768105 0.2868355894 0.85378831646 -0.42471904328 0.29955055268 0.85433202016 
-0.42678635196 0.29603063676 0.85452868406 -0.43577178289 0.27536492495 0.85689970903 -0.44888981658 0.23228275201 0.86286885196 
-0.46290131137 0.15745241764 0.87231365466 -0.47136965819 0.043673356508 0.8808537241 -0.46420902036 -0.12040985832 0.87750296378 
-0.42587256511 -0.33406421147 0.84085293655 -0.33182641531 -0.59446270674 0.73246523494 -0.10954414596 -0.89509466229 0.43221016372 
0.29384017862 -0.93012653335 -0.22027841787 0.51182547708 -0.5464527331 -0.66289070856 0.55439311201 -0.28423705116 -0.78221325487 
0.56266104375 -0.16614395144 -0.80982018822 0.56432001252 -0.14468511887 -0.81277865366 0.55995550784 -0.17506725468 -0.80981558739 
0.54159657452 -0.24620310823 -0.80377682224 0.50312401751 -0.33620775182 -0.79613476913 0.44518581711 -0.42242488363 -0.78953581676 
0.38178083905 -0.48318921647 -0.78789058379 0.3256570716 -0.51639820309 -0.79201033299 0.28178016531 -0.53001905041 -0.79979981535 
0.24617474928 -0.53287520055 -0.80959373358 0.22126374509 -0.529763734 -0.81877514694 0.20016267447 -0.52349867827 -0.8281811623 
0.20016267447 -0.52349867827 -0.8281811623 
