# vtk DataFile Version 4.2
vtk output
ASCII
DATASET POLYDATA
POINTS 64 float
0 0 0 -1.02213 -0.108518 -0.147252 -1.95934 -0.39342 -0.208741 
-2.87273 -0.859603 -0.193537 -3.66831 -1.47696 -0.0987882 -4.362 -2.20409 0.0440132 
-4.96364 -3.00787 0.188999 -5.49292 -3.87021 0.261526 -5.94843 -4.76897 0.147579 
-6.2931 -5.63535 -0.24979 -6.50235 -6.40127 -0.880928 -6.59513 -7.07936 -1.62964 
-6.59105 -7.70888 -2.42524 -6.49611 -8.31847 -3.23065 -6.30693 -8.92584 -4.02089 
-6.01548 -9.5423 -4.77216 -5.61146 -10.1749 -5.45446 -5.0852 -10.8283 -6.02191 
-4.41948 -11.5108 -6.39895 -3.6899 -12.1341 -6.18939 -3.50064 -12.2473 -5.23508 
-3.82184 -11.9926 -4.28952 -4.25472 -11.7073 -3.42115 -4.74278 -11.4469 -2.57016 
-5.24577 -11.2654 -1.70801 -5.73163 -11.2208 -0.818679 -6.1583 -11.3807 0.0871671 
-6.47962 -11.7859 0.959034 -6.6766 -12.4049 1.73787 -6.7649 -13.1644 2.40445 
-6.7676 -14.0023 2.97641 -6.69707 -14.8782 3.48337 -6.55361 -15.7653 3.95435 
-6.32969 -16.6405 4.41613 -6.01532 -17.478 4.89458 -5.60654 -18.2471 5.41465 
-5.11532 -18.918 5.99568 -4.56987 -19.4758 6.6441 -3.99997 -19.9263 7.35226 
-3.42452 -20.2868 8.10604 -2.8486 -20.5736 8.8905 -2.26546 -20.7962 9.69036 
-1.66144 -20.9563 10.4896 -1.02101 -21.0506 11.2708 -0.332104 -21.0739 12.0152 
0.409812 -21.0228 12.7052 1.19928 -20.8969 13.3298 2.0229 -20.7 13.8885 
2.86518 -20.441 14.3913 3.71489 -20.1352 14.8537 4.56786 -19.8039 15.2921 
5.42582 -19.4734 15.7211 6.2936 -19.1745 16.1536 7.17481 -18.9427 16.5997 
8.06638 -18.8187 17.0675 8.9517 -18.8464 17.5618 9.79447 -19.0636 18.0825 
10.5432 -19.4806 18.6248 11.1537 -20.0649 19.1854 11.6074 -20.7546 19.7756 
11.9027 -21.4809 20.4159 12.0232 -22.1711 21.1619 11.9684 -22.7129 21.9814 
11.6998 -22.9862 22.9456 
LINES 1 65
64 0 1 2 3 4 5 6 7 8 9 10 11 12 13 14 15 16 17 18 19 20 21 22 23 24 25 26 27 28 29 30 31 32 33 34 35 36 37 38 39 40 41 42 43 44 45 46 47 48 49 50 51 52 53 54 55 56 57 58 59 60 61 62 63 

CELL_DATA 1
FIELD FieldData 2
Length 1 1 double
63.863332658 
Tortuosity 1 1 double
0.84994476405 
POINT_DATA 64
SCALARS MaximumInscribedSphereRadius float
LOOKUP_TABLE default
1.24 1.07815 0.938632 0.938696 1.04465 1.20102 1.24 1.24 1.15469 
0.961605 1.15726 1.24 1.15914 0.893452 0.707257 0.812969 0.876436 0.729106 
0.961565 1.6656 1.77285 1.81318 2.07768 1.7999 1.60321 1.77644 1.87011 
1.94589 2.14321 2.22788 2.20195 2.18359 2.15447 1.98572 1.92375 2.08283 
2.03595 1.84168 1.64927 1.64258 1.83217 2.05982 2.22507 2.21198 2.18631 
2.19702 2.34841 2.53654 2.69619 2.56463 2.29626 2.33035 2.3411 2.05603 
1.99946 2.22207 1.70504 1.38554 1.83016 2.20217 2.26122 1.82757 1.8253 
2.17 
TEXTURE_COORDINATES TCoords 2 float
0 0 0.015873 0 0.031746 0 0.047619 0 0.0634921 
0 0.0793651 0 0.0952381 0 0.111111 0 0.126984 0 
0.142857 0 0.15873 0 0.174603 0 0.190476 0 0.206349 
0 0.222222 0 0.238095 0 0.253968 0 0.269841 0 
0.285714 0 0.301587 0 0.31746 0 0.333333 0 0.349206 
0 0.365079 0 0.380952 0 0.396825 0 0.412698 0 
0.428571 0 0.444444 0 0.460317 0 0.47619 0 0.492063 
0 0.507937 0 0.52381 0 0.539683 0 0.555556 0 
0.571429 0 0.587302 0 0.603175 0 0.619048 0 0.634921 
0 0.650794 0 0.666667 0 0.68254 0 0.698413 0 
0.714286 0 0.730159 0 0.746032 0 0.761905 0 0.777778 
0 0.793651 0 0.809524 0 0.825397 0 0.84127 0 
0.857143 0 0.873016 0 0.888889 0 0.904762 0 0.920635 
0 0.936508 0 0.952381 0 0.968254 0 0.984127 0 
1 0 
FIELD FieldData 7
Curvature 1 64 double
0 0.20418874836 0.19378698571 0.20165228485 0.15409242988 0.11675591413 0.11502423315 0.20016256189 0.30471277294 
0.28615438375 0.18366724253 0.11511216496 0.091067652701 0.092972607727 0.1070107002 0.1297901849 0.16564964581 0.23183569897 
0.6430237236 1.5351046028 0.68811991015 0.1328356856 0.061313693163 0.078855974326 0.13730341952 0.20992841478 0.26651505423 
0.26147042693 0.20646829874 0.14631927981 0.10232507293 0.079887176301 0.079649150318 0.096806652447 0.12073734269 0.13864413808 
0.13905040548 0.1221357173 0.098426093328 0.077679802071 0.064591725228 0.064087338376 0.075245786631 0.091046959864 0.10359063887 
0.10734454329 0.10005010748 0.083324991081 0.06055252467 0.034174580712 0.010367465195 0.03233281268 0.0678600208 0.10763694712 
0.15064735113 0.19232883475 0.21832668305 0.21422618808 0.18748984572 0.16675483981 0.20203163438 0.23956384264 0.37333910613 
0 
Torsion 1 64 double
0 0 -0.0053756270437 -0.033704620327 -0.14864989973 -0.47629323499 -0.70664360483 -0.23275904675 -0.039728805118 
0.045547663094 0.17765971923 0.35208660592 0.38096446637 0.26552037642 0.17384476348 0.13930557863 0.13094757054 0.26844262614 
0.12662708225 0.064041207455 0.10440316285 0.77071218974 1.2179144145 0.57654667583 0.14549261729 0.039000141731 0.0052401980839 
-0.0024565097481 0.015402381302 0.086956426717 0.24028514355 0.4159569547 0.42197171482 0.30334820524 0.22075212315 0.17941783134 
0.15186859162 0.11896022129 0.057209889348 -0.072645549572 -0.25403053129 -0.31378254169 -0.21801559532 -0.11992895062 -0.049932912554 
0.0060029858513 0.04990734492 0.070727869276 0.042310843416 -0.13941524009 -2.8364670442 -0.28706471103 -0.065755300349 -0.042961122667 
-0.049214319255 -0.066339750641 -0.094616210247 -0.15593844478 -0.26393361286 -0.43307906739 -0.32081864433 -0.25970168709 0 
0 
Abscissas 1 64 double
0 1.0383707616 2.0198548348 3.0454459868 4.0569036832 5.0719521832 6.0863750651 7.1007880664 8.1148100832 
9.128376011 10.142645574 11.157038 12.171576816 13.186123311 14.200603203 15.215174802 16.229562238 17.242387758 
18.267633749 19.249826789 20.229295015 21.259900158 22.271246921 23.286234561 24.300756073 25.315127276 26.32912462 
27.342828307 28.35695509 29.371324475 30.385826862 31.400369965 32.414924534 33.429468195 34.443971375 35.458406996 
36.47280154 37.487233707 38.501735595 39.516276233 40.530838471 41.545410772 42.559978015 43.574522134 44.589035204 
45.603529027 46.618029499 47.632555524 48.647111471 49.661695291 50.67629936 51.690907517 52.705496191 53.720033033 
54.734485099 55.748815947 56.763011338 57.777142391 58.79130887 59.80607873 60.818339029 61.841796828 62.825730263 
63.86325426 
ParallelTransportNormals 3 64 double
-0.14259131561 0 0.98978165103 -0.069937297758 0.014790585711 0.99744173412 -0.0044139669135 0.041235394468 0.99913970952 
0.056507465028 0.079917382678 0.99519853212 0.089147816402 0.10937676371 0.9899946416 0.090401163193 0.11085810515 0.9897161766 
0.050888026992 0.052645832113 0.9973158101 -0.038171231321 -0.10662160651 0.9935667014 -0.15342938607 -0.36087954878 0.91990509008 
-0.2282207642 -0.58126516925 0.78105447045 -0.25330660922 -0.70120036792 0.666448652 -0.2571917438 -0.75846529213 0.59881784171 
-0.25505379685 -0.78521969407 0.56424958375 -0.25267094746 -0.79542599987 0.55086738063 -0.25333946184 -0.79372373854 0.55301152244 
-0.26095664638 -0.78004349415 0.5687123842 -0.28358959027 -0.74875978003 0.59911245697 -0.33926511211 -0.68632839879 0.64331369697 
-0.58379204164 -0.45793580895 0.67043392441 -0.9736120175 -0.14549165941 0.17581756575 -0.94547944603 -0.17673119524 -0.27355932039 
-0.90091253465 -0.20861747543 -0.38057240291 -0.87334685542 -0.2249542821 -0.43204263806 -0.86082354848 -0.23053798945 -0.45369048238 
-0.85866903383 -0.23103063687 -0.45750665041 -0.86365213845 -0.23166049488 -0.44770347203 -0.87067364065 -0.23696614752 -0.43101561039 
-0.87516718911 -0.24584434843 -0.41670486853 -0.87709734809 -0.2551699252 -0.40692573185 -0.87783388378 -0.26809745691 -0.39690228782 
-0.87689945213 -0.2917093863 -0.38203793633 -0.87200985109 -0.33199453907 -0.35969215397 -0.85935302811 -0.39270676394 -0.32755727839 
-0.83367142046 -0.47441846603 -0.28269963175 -0.79031760437 -0.57073774407 -0.22283741095 -0.73108013186 -0.66551666527 -0.15036425452 
-0.66777183303 -0.74054929506 -0.075282936976 -0.61323686801 -0.78984833621 -0.0089526252115 -0.57146424253 -0.81942677495 0.044366428906 
-0.5382640561 -0.83809317784 0.088722213543 -0.50647476967 -0.8520640077 0.13217501453 -0.46963717818 -0.86393919112 0.18179657565 
-0.42286211306 -0.87350397666 0.24120206487 -0.36370608151 -0.8787383383 0.30909030892 -0.29296304862 -0.87736241943 0.38001031186 
-0.21510107232 -0.86836379377 0.44685103821 -0.13771820776 -0.85288032888 0.50361576609 -0.069846866507 -0.83430417437 0.5468619203 
-0.019165945157 -0.81738481679 0.57577315657 0.0095864867995 -0.80662647815 0.59098377645 0.013593222705 -0.80507664205 0.59301502908 
-0.0095539136848 -0.81351908669 0.58145973061 -0.062695867222 -0.82964214015 0.55476404671 -0.14969550457 -0.84710161313 0.50991186782 
-0.27389438653 -0.85383165332 0.44266620925 -0.43085786463 -0.83158220221 0.35047473725 -0.59858481701 -0.76474853283 0.23844474911 
-0.74235656943 -0.65884302834 0.1217891121 -0.84119762325 -0.54052229714 0.014906539833 -0.89766782913 -0.43373362798 -0.077894855468 
-0.92457711435 -0.34227365572 -0.16734964663 -0.92774070943 -0.27977707181 -0.24702624587 -0.9140295282 -0.24429491544 -0.32383640294 
-0.9140295282 -0.24429491544 -0.32383640294 
FrenetTangent 3 64 double
-0.97512609613 -0.19579762773 -0.10388640735 -0.97512609613 -0.19579762773 -0.10388640735 -0.9263437295 -0.37596610287 -0.023168606179 
-0.84330859332 -0.53468379377 0.054257323108 -0.7371177865 -0.66545716791 0.11757604562 -0.63937601709 -0.75565835103 0.14205198092 
-0.55836856297 -0.8226125465 0.10739248683 -0.48796239557 -0.87262333436 -0.020523567938 -0.39922001538 -0.88065106903 -0.25510208532 
-0.27595940083 -0.81320167425 -0.51239579047 -0.14952035045 -0.71485874465 -0.68309636216 -0.043792008671 -0.64557699965 -0.76243858605 
0.0488522891 -0.61132455052 -0.78987071587 0.14018334455 -0.6004418328 -0.78728535826 0.23722104848 -0.60403706891 -0.76083204029 
0.34351202419 -0.61694552849 -0.70808029496 0.46049563591 -0.63657970819 -0.6186356314 0.58885611664 -0.65995472068 -0.46659215654 
0.72734801817 -0.68069284543 -0.087304700012 0.55496058497 -0.44483085494 0.7029539527 -0.069089605973 0.074095321131 0.99485501945 
-0.37013766772 0.26505708692 0.8903610771 -0.45470251065 0.26943248208 0.84891210641 -0.48871182614 0.21791224523 0.84479287661 
-0.48855883842 0.11170873028 0.86535046136 -0.45239846348 -0.057161547267 0.88998212777 -0.37218089787 -0.28117927086 0.88454485296 
-0.2577860964 -0.50940451208 0.82100753442 -0.14139297504 -0.68322370438 0.71638913754 -0.044974925315 -0.78948255357 0.61212298903 
0.033475311243 -0.84578944948 0.53246559578 0.10554940153 -0.86958905497 0.4823631405 0.18119963082 -0.86920328273 0.46005689548 
0.26561155834 -0.8451078786 0.4639430715 0.35708785283 -0.79333213598 0.49306428322 0.44469421191 -0.71151036209 0.54405887781 
0.51222900506 -0.60711219767 0.60748351896 0.55076595977 -0.49790435722 0.66988663863 0.56517838068 -0.40019220384 0.72140113528 
0.5678713924 -0.31925753303 0.75868090084 0.5715151262 -0.25117722126 0.78120449566 0.58537424136 -0.18870474255 0.78849699917 
0.61375496439 -0.12546861809 0.77946293662 0.65583936152 -0.058018718865 0.75266762926 0.70615661856 0.013719998285 0.70792273004 
0.75586914661 0.087364679083 0.64886766452 0.79602136338 0.15929411622 0.58393096645 0.82174274371 0.22488305219 0.523609087 
0.83424809997 0.27847893547 0.47589871843 0.83921125726 0.31401181758 0.44398315747 0.84315577666 0.32613891825 0.4274596382 
0.85057173432 0.31021479406 0.42461100589 0.8624457432 0.26169419497 0.43324760628 0.87502795546 0.17561903997 0.45109204156 
0.87837440063 0.047604270077 0.47559672601 0.85589941438 -0.12129548674 0.50271621952 0.78935713796 -0.31455314907 0.5272301444 
0.67403576043 -0.4965393994 0.54692268056 0.52686150382 -0.63072861416 0.56973535179 0.37080201538 -0.70100855072 0.60917393018 
0.2053192979 -0.6994582446 0.68454521397 0.032961501727 -0.61809502199 0.78541204676 -0.16270882397 -0.4100918746 0.89741322309 
-0.16270882397 -0.4100918746 0.89741322309 
FrenetNormal 3 64 double
0.14160253801 -0.91088055734 0.38761492681 0.14160253801 -0.91088055734 0.38761492681 0.33566242306 -0.85182198483 0.40215674048 
0.51120791383 -0.76691427766 0.38795484217 0.66479341244 -0.68286623845 0.30289176146 0.76501823431 -0.64372910171 0.018972210931 
0.61334764148 -0.49651299352 -0.61423083442 0.36101240656 -0.18035541698 -0.91495462504 0.36156866894 0.1044682282 -0.92647422357 
0.47051430757 0.35056271768 -0.80976667463 0.62173541372 0.46921533282 -0.62712203499 0.82045042461 0.41221446604 -0.39615695721 
0.97138958802 0.21309481167 -0.1048468861 0.98711951556 0.022840582941 0.15834572861 0.9310320611 -0.082211164226 0.35555678264 
0.8469249639 -0.12232437939 0.51745033745 0.72741906049 -0.12879184274 0.67399864368 0.55630096932 -0.08784734874 0.8263244368 
0.16342517909 0.048243598849 0.98537544419 -0.51188362101 0.48349707123 0.71007446134 -0.80823048793 0.58042349115 -0.099358186854 
-0.86208500042 0.25910324939 -0.43551688624 -0.8513265122 -0.41155069074 -0.32537547324 -0.18698633452 -0.97196559149 0.1425447286 
0.12132721309 -0.97343790524 0.19416063456 0.2763681403 -0.95780211428 0.078966834283 0.39105790535 -0.91179682533 -0.12530069427 
0.47101558795 -0.80817514916 -0.35354949328 0.51735091087 -0.66797270545 -0.53493971604 0.57163691108 -0.52285058906 -0.63234365926 
0.69722684604 -0.36194681964 -0.61876427249 0.88830697721 -0.13557276852 -0.43878324795 0.98296377377 0.14541891059 -0.11240800642 
0.91023565085 0.37840329115 0.16817255771 0.76274356295 0.5523574418 0.33633839161 0.58082103075 0.69147129167 0.42955137415 
0.38067659893 0.79453908847 0.4730676103 0.19499292579 0.85713349534 0.47675982429 0.054754279389 0.89072747294 0.45122781146 
0.0057884135919 0.92324275421 0.3841735429 0.10844043886 0.9667701868 0.23150826579 0.31739242915 0.94825445073 -0.0086915237971 
0.47056852059 0.850889851 -0.23356311544 0.51855081201 0.75921430148 -0.39331755591 0.49894734325 0.69975734109 -0.51126432718 
0.43140804085 0.67902926707 -0.59397504724 0.33238363502 0.69121650765 -0.64167036609 0.21767565328 0.72529390785 -0.65312024713 
0.11926135842 0.75152779382 -0.64883179909 0.090588548078 0.72430556259 -0.68350213384 0.47325551178 -0.072845698192 -0.87790815284 
0.29418707965 -0.94999121961 0.10474084605 0.19354389645 -0.96142594426 0.19545054067 0.094422416424 -0.97589171463 0.19677339404 
-0.039942638707 -0.98423689 0.17228560582 -0.21638155966 -0.96691585992 0.13510270346 -0.42385099796 -0.90048645446 0.097336924432 
-0.6344152831 -0.76838611581 0.084261649691 -0.82194445471 -0.54874424034 0.15260102249 -0.92564638995 -0.22571288994 0.30369796194 
-0.85501313822 0.21215528879 0.47322580964 -0.73150343248 0.52055987315 0.44036365283 -0.55616368963 0.78939110591 0.25989157786 
-0.55616368963 0.78939110591 0.25989157786 
FrenetBinormal 3 64 double
-0.17052219176 0.36326285144 0.91594884294 -0.17052219176 0.36326285144 0.91594884294 -0.17093283056 0.36475854433 0.91527764737 
-0.16582245106 0.35490242518 0.92007998746 -0.12127278176 0.30143068535 0.94574439165 0.077106484448 0.12080273229 0.98967736658 
0.55859575596 -0.27709825984 0.78178471194 0.79470921903 -0.45387271333 0.40303451128 0.84255057828 -0.46210397522 0.27671002716 
0.8381304764 -0.4645522769 0.28588194514 0.7688229576 -0.51847270579 0.37429575636 0.57003803446 -0.64289157057 0.51161222401 
0.23241282696 -0.76215017888 0.60424447262 -0.07709534298 -0.79934217529 0.59590972042 -0.27731836463 -0.7927045754 0.54287565867 
-0.40585415454 -0.77744129109 0.48048667427 -0.50872908286 -0.7603807838 0.40375213173 -0.58632559678 -0.7461518679 0.31540400218 
-0.666526122 -0.73097866271 0.14633223618 -0.65573920705 -0.75389395315 0.040620188715 -0.58479920034 -0.81093677578 0.019784867251 
-0.34613228538 -0.92876813405 0.13259786646 0.2617036424 -0.8706504273 0.41650814758 0.85217184986 -0.088301428802 0.51575769115 
0.86405437836 0.19984945391 0.46202838333 0.84791289722 0.28168718005 0.44910583533 0.84175714664 0.29927373249 0.44931073781 
0.84361759371 0.29556720278 0.44827378267 0.84401188477 0.29498785493 0.44791305385 0.81927315224 0.3214724858 0.47481253447 
0.71606852235 0.39196263458 0.57759082784 0.44695641631 0.47479985247 0.75815240026 0.030804435638 0.47258755139 0.88074519188 
-0.31768153865 0.37762894852 0.86975560776 -0.53917578075 0.25597925406 0.80234911288 -0.68183134875 0.12498182839 0.72075346301 
-0.76987451796 -0.011064191445 0.63809937335 -0.81156306992 -0.13195992659 0.56916777959 -0.82314966251 -0.21552440449 0.52533214653 
-0.82309694202 -0.2137696059 0.526131143 -0.8133948191 -0.04759631739 0.57976155343 -0.74605565709 0.25535077209 0.61497718634 
-0.63393226067 0.51014124254 0.58127945219 -0.5486162477 0.64824954507 0.52800827652 -0.50238867297 0.71424885385 0.4872927211 
-0.49249257405 0.72889413999 0.47556744758 -0.50583703721 0.70487241689 0.49727634943 -0.52664615552 0.65067377393 0.54705344053 
-0.53833710265 0.59804302322 0.59374885793 -0.53620721802 0.61382247468 0.57939950718 -0.2551814195 0.94251096028 -0.2157673119 
0.43586888733 0.035825468736 -0.89929686358 0.46768376087 -0.084713056956 -0.87982702721 0.47477414044 -0.12958902008 -0.87051490593 
0.47630137301 -0.17032785394 -0.86262704817 0.46969693751 -0.22441284441 -0.85382882485 0.44414596732 -0.30030061895 -0.84412907661 
0.37840856523 -0.40377147234 -0.83293190351 0.21638916137 -0.54869041725 -0.80753610251 -0.0753964599 -0.67649146568 -0.73258082878 
-0.47623158167 -0.68245754264 -0.55448641383 -0.68104057711 -0.58904665542 -0.43498019503 -0.814989441 -0.45682199628 -0.35651910856 
-0.814989441 -0.45682199628 -0.35651910856 
