# vtk DataFile Version 4.2
vtk output
ASCII
DATASET POLYDATA
POINTS 64 float
0 0 0 -0.819152 -0.174296 0.305324 -1.97823 -0.33375 0.537669 
-2.92922 -0.360552 0.467121 -3.94171 -0.382324 0.320259 -4.93787 -0.412335 0.108657 
-5.91983 -0.48601 -0.122993 -6.9039 -0.650139 -0.317003 -7.87049 -0.946739 -0.419633 
-8.77722 -1.40169 -0.375036 -9.58367 -1.98738 -0.176831 -10.2828 -2.6525 0.140307 
-10.9091 -3.35353 0.522324 -11.5061 -4.0702 0.921668 -12.1138 -4.79434 1.29085 
-12.7659 -5.52078 1.56911 -13.4808 -6.23753 1.674 -14.2241 -6.91235 1.52375 
-14.9277 -7.51895 1.10801 -15.528 -8.05522 0.487925 -16.0093 -8.54932 -0.257555 
-16.3735 -9.02876 -1.0749 -16.6256 -9.51472 -1.92972 -16.7687 -10.0221 -2.79715 
-16.8049 -10.5606 -3.65687 -16.7366 -11.1353 -4.49075 -16.5675 -11.7473 -5.28279 
-16.3037 -12.3938 -6.01979 -15.9551 -13.0682 -6.69228 -15.5319 -13.7659 -7.29816 
-15.0494 -14.4824 -7.83238 -14.5296 -15.2177 -8.27484 -13.9513 -16.0273 -8.61212 
-13.4789 -16.8996 -8.58156 -13.397 -17.6701 -7.90289 -13.6711 -18.0724 -7.00426 
-14.1018 -18.2242 -6.09146 -14.552 -18.2802 -5.18577 -15.0084 -18.2289 -4.28085 
-15.4382 -18.0774 -3.37314 -15.8071 -17.8284 -2.46111 -16.0842 -17.4865 -1.54617 
-16.2434 -17.0718 -0.633214 -16.2759 -16.6186 0.274504 -16.1892 -16.1659 1.17901 
-16.0008 -15.7538 2.08723 -15.7306 -15.4214 3.00768 -15.397 -15.2118 3.94386 
-15.0203 -15.1738 4.88641 -14.6268 -15.3521 5.807 -14.2511 -15.7607 6.65766 
-13.9186 -16.3628 7.40597 -13.6383 -17.097 8.04924 -13.4033 -17.907 8.61365 
-13.2042 -18.7571 9.13083 -13.0331 -19.6234 9.63031 -12.886 -20.4888 10.1391 
-12.7637 -21.3386 10.6818 -12.6692 -22.155 11.2718 -12.6157 -22.9221 11.9411 
-12.6144 -23.6142 12.6964 -12.6574 -24.1814 13.454 -12.8383 -24.6818 14.53 
-13.0174 -24.964 15.3527 
LINES 1 65
64 0 1 2 3 4 5 6 7 8 9 10 11 12 13 14 15 16 17 18 19 20 21 22 23 24 25 26 27 28 29 30 31 32 33 34 35 36 37 38 39 40 41 42 43 44 45 46 47 48 49 50 51 52 53 54 55 56 57 58 59 60 61 62 63 

CELL_DATA 1
FIELD FieldData 2
Length 1 1 double
63.99591668 
Tortuosity 1 1 double
0.99562895362 
POINT_DATA 64
SCALARS MaximumInscribedSphereRadius float
LOOKUP_TABLE default
1.24 1.24 1.24 1.24 1.24 1.25909 1.28585 1.31026 1.29129 
1.52026 1.79776 2.014 1.49986 1.11519 0.848094 0.707976 0.948696 1.02344 
0.945587 0.921162 0.96547 1.06573 1.20616 1.20697 1.09072 1.03559 1.21225 
1.45438 1.58715 1.63393 1.663 1.66946 1.73463 1.86292 1.90636 2.06049 
2.03017 1.74031 1.66963 1.74544 1.88799 2.03276 2.0294 1.8543 1.6331 
1.70771 1.76235 1.71643 1.59148 1.83442 2.01337 2.12278 2.14981 2.01151 
1.91349 1.86 1.86 2.0525 2.29215 2.53669 2.68968 2.76818 2.79821 
2.79 
TEXTURE_COORDINATES TCoords 2 float
0 0 0.015873 0 0.031746 0 0.047619 0 0.0634921 
0 0.0793651 0 0.0952381 0 0.111111 0 0.126984 0 
0.142857 0 0.15873 0 0.174603 0 0.190476 0 0.206349 
0 0.222222 0 0.238095 0 0.253968 0 0.269841 0 
0.285714 0 0.301587 0 0.31746 0 0.333333 0 0.349206 
0 0.365079 0 0.380952 0 0.396825 0 0.412698 0 
0.428571 0 0.444444 0 0.460317 0 0.47619 0 0.492063 
0 0.507937 0 0.52381 0 0.539683 0 0.555556 0 
0.571429 0 0.587302 0 0.603175 0 0.619048 0 0.634921 
0 0.650794 0 0.666667 0 0.68254 0 0.698413 0 
0.714286 0 0.730159 0 0.746032 0 0.761905 0 0.777778 
0 0.793651 0 0.809524 0 0.825397 0 0.84127 0 
0.857143 0 0.873016 0 0.888889 0 0.904762 0 0.920635 
0 0.936508 0 0.952381 0 0.968254 0 0.984127 0 
1 0 
FIELD FieldData 7
Curvature 1 64 double
0 0.16293100461 0.2756861835 0.071188173076 0.064452021057 0.048131074642 0.095423206808 0.15772413288 0.2200855969 
0.22101592604 0.17457771353 0.10110303185 0.036397330623 0.031922447556 0.098489719349 0.18020097418 0.25595332401 0.27314480648 
0.23487061714 0.17375765475 0.13463583223 0.11526729751 0.10883226156 0.10864123864 0.11056919755 0.11230100554 0.111784606 
0.10728038725 0.099855437352 0.092127720633 0.098431412676 0.12699081219 0.38110218794 0.86936992489 0.57159157087 0.28960078992 
0.094734926869 0.10483639361 0.10087953 0.11196181326 0.12731684436 0.13506621829 0.12913984489 0.11611613768 0.10664775175 
0.11182135835 0.1355211761 0.17291910969 0.213561378 0.23698602466 0.21876038068 0.17244446143 0.11526083667 0.069618850554 
0.035829139146 0.025027394817 0.043494569231 0.062448963471 0.098840041784 0.12050917567 0.11135963183 0.21826074859 0.11088784758 
0 
Torsion 1 64 double
0 0 0.044278103275 0.63681900929 0.42225425015 1.2851666628 0.32773596914 0.11575428848 0.05749515875 
0.035374336886 0.020348677217 -0.028310998436 -0.6020732274 -0.79264900377 -0.01434660196 0.06778166257 0.087819647073 0.11535758839 
0.161533552 0.22620463768 0.25713447838 0.24384553249 0.19745804453 0.14654312303 0.10527348334 0.073543841998 0.050431328081 
0.036487181447 0.054358475433 0.15487675203 0.19982090558 0.57142543426 0.15563103776 0.045630594404 0.03148200898 -0.059078343009 
-0.47090185016 -0.2094779409 -0.29737671071 -0.22628518218 -0.18612514957 -0.19533095817 -0.23284952083 -0.30848226781 -0.38351764904 
-0.34918233641 -0.23248560515 -0.13430545171 -0.077463677789 -0.04785815879 -0.037021149193 -0.040655209165 -0.07149022332 -0.17508558352 
-0.6069004882 -1.1150644041 -0.28096483927 -0.076218454611 -0.0067981083422 0.0056272660748 0.048091707619 0.013409530207 0 
0 
Abscissas 1 64 double
0 0.89140955617 2.0842560852 3.0382335726 4.0615465303 5.080380747 6.091972589 7.1083305682 8.1245985844 
9.1400451026 10.156247166 11.171976786 12.186686195 13.201319029 14.21620553 15.231304346 16.249032278 17.264154575 
18.281926892 19.298020785 20.313683381 21.328842024 22.343939691 23.358990859 24.374073146 25.389108801 26.404215022 
27.419467218 28.4336651 29.450048515 30.465712663 31.469027299 32.519566293 33.512004546 34.542048118 35.56403713 
36.584708242 37.597672375 38.612493952 39.628151042 40.642977196 41.658296704 42.673549401 43.688664155 44.703827181 
45.718834746 46.734060438 47.749765111 48.765519318 49.782420511 50.798145675 51.814546426 52.830094642 53.844950883 
54.85974341 55.874289244 56.888879912 57.904559223 58.916232754 59.935703757 60.960137517 61.907484678 63.107861911 
63.995836284 
ParallelTransportNormals 3 64 double
0.34925906699 0 0.93702620248 0.19991806585 -0.026003736799 0.97946749442 -0.072538057332 -0.048393318029 0.9961909039 
-0.14231259248 -0.050127632142 0.98855164079 -0.20600912742 -0.051770333397 0.97717965185 -0.22553104947 -0.052795172662 0.97280440761 
-0.18549785405 -0.047957204015 0.98147371474 -0.097310423231 -0.027127893344 0.99488429424 0.035924587095 0.026329268618 0.9990076044 
0.16498533346 0.10471949548 0.98072099346 0.25763739287 0.18169789309 0.94900413563 0.30523707647 0.23076331871 0.92389318532 
0.31792472201 0.24546738476 0.91578907733 0.29869868271 0.22247313512 0.92805430935 0.2385252905 0.15319046252 0.95897777242 
0.11879168717 0.026775684481 0.99255810801 -0.064758343301 -0.1483791451 0.98680797842 -0.26049088667 -0.32172899973 0.9102938804 
-0.41119529305 -0.45382259705 0.7905463183 -0.49949554416 -0.5379385151 0.6790628508 -0.54696497827 -0.59259685852 0.59131909813 
-0.5708544319 -0.63002112337 0.5264965353 -0.58150104984 -0.65678405006 0.4800950329 -0.58481960715 -0.6761407974 0.44812905417 
-0.5844286042 -0.68971177306 0.42748201915 -0.58265820183 -0.69856207086 0.41535581493 -0.58092293799 -0.70360609102 0.40922733144 
-0.5799919784 -0.70561412842 0.40708476607 -0.58006190543 -0.70548979309 0.40720061114 -0.58362368199 -0.69992841954 0.41168386578 
-0.59808121579 -0.67898928661 0.42576097518 -0.628821743 -0.63573833394 0.44768290819 -0.7742101073 -0.40209125872 0.48879579521 
-0.9559264887 0.13017409523 0.26317152798 -0.9114699861 0.39920228802 -0.099297521028 -0.82814447404 0.46468826861 -0.31343507004 
-0.80115732155 0.4710441857 -0.36913997514 -0.77649674818 0.4711735997 -0.41838766594 -0.76559297536 0.46867860217 -0.44069009968 
-0.76668955122 0.46922852615 -0.43819142197 -0.77549013312 0.47727786666 -0.41330484079 -0.78740004238 0.49793105236 -0.36340864102 
-0.79473715632 0.53115000743 -0.29372184456 -0.79225417707 0.57267817392 -0.21064906369 -0.7782440768 0.61670686213 -0.11835878983 
-0.75273272447 0.65811575687 -0.016646203164 -0.71486365538 0.69210596218 0.099796249119 -0.66322175699 0.71011096615 0.23638806401 
-0.599158056 0.69845036862 0.39137795863 -0.53207466512 0.64724482852 0.54586690933 -0.4771827576 0.56891535211 0.66979992384 
-0.44110265888 0.49024009479 0.75172674144 -0.42191557463 0.43273812066 0.79669628266 -0.41350229875 0.40056413221 0.8176577676 
-0.41181622952 0.39274788753 0.82228735241 -0.41459597094 0.40787838365 0.81347735373 -0.42036186954 0.4445909599 0.79097078139 
-0.42712763631 0.4966036445 0.75561021868 -0.43444131569 0.57478019876 0.69346122194 -0.4377470119 0.66252929524 0.60780958081 
-0.43533029823 0.73234549866 0.52360061309 -0.41250961478 0.85054644648 0.32620018408 -0.39215796296 0.89297230352 0.22093573098 
-0.39215796296 0.89297230352 0.22093573098 
FrenetTangent 3 64 double
-0.95245224269 -0.16068957864 0.25886982194 -0.95245224269 -0.16068957864 0.25886982194 -0.99323368764 -0.087672882217 0.07615974958 
-0.99362525585 -0.024581026481 -0.11002101653 -0.98412964091 -0.025370860575 -0.17562792863 -0.9745282647 -0.051081289819 -0.21836978529 
-0.97059666402 -0.11739989813 -0.21014133271 -0.96273545413 -0.22738976683 -0.14640471062 -0.92771304306 -0.37218619041 -0.028739335533 
-0.848475714 -0.51539174868 0.12025102137 -0.74383648315 -0.61796654768 0.25460681899 -0.65363149989 -0.67371242999 0.34478605544 
-0.60290634087 -0.69871688451 0.38509564972 -0.59366683776 -0.71001984201 0.37872352673 -0.62137873389 -0.71547838466 0.3193417451 
-0.67525386201 -0.71288950524 0.18926377139 -0.72325878267 -0.69021051732 -0.022498334968 -0.71844728102 -0.63627915139 -0.28103797948 
-0.64558681885 -0.56585750448 -0.51285762542 -0.5344061179 -0.50909399149 -0.67470987022 -0.41730498165 -0.48050001773 -0.77134705888 
-0.30407416959 -0.47631485847 -0.8250230633 -0.19495968773 -0.49003524652 -0.84962119637 -0.088451492901 -0.51595371204 -0.8520376168 
0.015836000207 -0.54919933762 -0.83554132672 0.11712600372 -0.58548180667 -0.8021798759 0.21355553754 -0.62083346478 -0.75429426711 
0.3022039918 -0.65183185422 -0.69554869072 0.38058183639 -0.67659614932 -0.63037696383 0.44620183502 -0.69671938501 -0.56168142302 
0.49705178467 -0.71996384734 -0.48434655143 0.53578412634 -0.75378596277 -0.38044985517 0.52359685962 -0.83814306114 -0.15284808688 
0.29590340684 -0.87698087424 0.37861024819 -0.097320658314 -0.59384936674 0.79866865413 -0.34871216724 -0.27415085133 0.89623720919 
-0.4336690049 -0.10230030839 0.89524624606 -0.4477238861 -0.0023218895485 0.89416884907 -0.4370182998 0.10000768519 0.89387553303 
-0.39398053361 0.19755807055 0.89763586598 -0.31886948758 0.29167204521 0.90180356394 -0.21536818948 0.37347546386 0.9022929795 
-0.094617911577 0.4283713777 0.89863530622 0.026742764189 0.44697033747 0.89414894843 0.13570483859 0.42659870548 0.89420229326 
0.2262480755 0.36729578439 0.90216717692 0.29799834821 0.26749857176 0.91631953956 0.35098677487 0.12234848819 0.92835291312 
0.38111079302 -0.069423629886 0.92191915213 0.38111712687 -0.29079232291 0.87760444424 0.35062103817 -0.50038550146 0.79163074568 
0.30272450424 -0.66013537581 0.68744393236 0.25422269174 -0.76182918377 0.59580795376 0.21401628176 -0.81844758815 0.53323594833 
0.18245817509 -0.84595112234 0.50107455829 0.15682974931 -0.85349504251 0.49694128642 0.13272221424 -0.84500628809 0.51802431115 
0.10698842667 -0.82225277587 0.55897571426 0.072956646615 -0.78058802604 0.620773438 0.026862272403 -0.71528104631 0.69832044443 
-0.021179861195 -0.63960603925 0.76841104106 -0.10494291166 -0.5003892727 0.85941698904 -0.17266371314 -0.37535227867 0.91065795393 
-0.17266371314 -0.37535227867 0.91065795393 
FrenetNormal 3 64 double
-0.3012212358 0.36879903821 -0.87934807472 -0.3012212358 0.36879903821 -0.87934807472 -0.10304686185 0.36291048009 -0.92610870188 
0.10716302459 0.097038810612 -0.98949459594 0.17742707287 -0.12444054936 -0.97623469693 0.14430529263 -0.88818803977 -0.43623157673 
0.025619282663 -0.91842396075 0.39476712207 0.10748014878 -0.8184587216 0.56442301392 0.26339003787 -0.70719196634 0.65612895889 
0.44806114919 -0.57862519796 0.68149401088 0.59828048987 -0.44582191186 0.66581024199 0.69419393711 -0.3522657731 0.6276970629 
0.78110773383 -0.41870833828 0.46319977937 -0.32138562239 -0.2222703142 -0.92049290554 -0.43746492983 -0.021316266486 -0.89898278735 
-0.33032155825 0.062853107368 -0.94177340961 -0.11658407764 0.15414804034 -0.98114552157 0.15030262414 0.2524798621 -0.95585722805 
0.42672954624 0.2896424895 -0.85674332366 0.66738813669 0.2356772044 -0.70643423638 0.84604591162 0.10444311857 -0.52277906463 
0.94680589915 -0.055335297388 -0.31701197802 0.97490071303 -0.19177483774 -0.11309735338 0.95787505623 -0.27869250319 0.069324348637 
0.92013437584 -0.3190101341 0.22712389733 0.87388564308 -0.3229810694 0.36332782942 0.82440379792 -0.29974589371 0.48011537903 
0.77285518541 -0.25958368705 0.57906059424 0.71860352942 -0.21266471216 0.66210474074 0.62816806658 -0.20320249785 0.75107497961 
0.43422657342 -0.27688362513 0.85719469263 0.24863487942 -0.28975471485 0.92424179843 -0.19550031172 -0.29281911345 0.93596826598 
-0.52793783302 0.18017428127 0.82995112677 -0.64021014869 0.65176699065 0.40660884817 -0.53110123805 0.84570808121 0.052051093411 
-0.2337597966 0.97229204068 -0.0021319304975 -0.050034291721 0.99849492338 -0.022460134484 0.26024198223 0.96535194362 0.019228510788 
0.52648096666 0.84903639314 0.044215323856 0.70381173037 0.71012748252 0.019183502178 0.85078693044 0.52531448048 -0.01436299375 
0.95591155734 0.29116634227 -0.03814781339 0.99960783407 -0.0045242695263 -0.027635286441 0.92843396187 -0.36979557367 0.035519179854 
0.71164432736 -0.6947425767 0.10437961229 0.45483791963 -0.88374596547 0.11007059268 0.24335030314 -0.96927986029 0.03573768877 
0.074993429609 -0.99156938588 -0.10566995084 -0.071884915581 -0.95569400894 -0.28544968067 -0.19464628919 -0.86576970023 -0.46103757793 
-0.294099752 -0.75079046815 -0.59145499305 -0.38101804064 -0.64511825846 -0.66230482809 -0.50119433595 -0.56055754827 -0.6592264199 
-0.75801289495 -0.44560701464 -0.47628860956 -0.932319981 0.038074896042 0.3596244643 -0.55680538278 0.36881536834 0.74427346438 
-0.42698532404 0.46972235099 0.77268651213 -0.40876032302 0.54434951017 0.73252891349 -0.41740456126 0.62673317088 0.6580113713 
-0.42628894529 0.70099341743 0.57173941953 -0.45388700927 0.79303025158 0.4063121988 -0.44326995088 0.85524151136 0.26846546874 
-0.44326995088 0.85524151136 0.26846546874 
FrenetBinormal 3 64 double
0.045831130251 -0.91551413355 -0.39966658451 0.045831130251 -0.91551413355 -0.39966658451 0.053555447857 -0.92769038432 -0.36948932981 
0.034999101452 -0.99497700595 -0.093786035876 0.0029126784627 -0.99190265102 0.12696711068 -0.17167015994 -0.45663191724 0.8729356496 
-0.23934445502 0.37777598155 0.89442693364 -0.24817022982 0.52765444655 0.81239911501 -0.26452636483 0.60112973841 0.75410134591 
-0.28165611893 0.6321109283 0.72187644718 -0.29793915784 0.64758024124 0.7013359319 -0.30143098717 0.64963096199 0.69793908989 
-0.16240274717 0.58006727433 0.79821507438 0.73774722464 -0.66818240876 -0.096235654279 0.65000992626 -0.6983096003 -0.29975122666 
0.65948456388 -0.69845403586 -0.27792457572 0.68066503225 -0.70699916792 -0.19195648054 0.67914845621 -0.72897377233 -0.0857590443 
0.63333999849 -0.77195369868 0.054478742724 0.51865516112 -0.82781614091 0.2138159505 0.33175724216 -0.87075333358 0.36294044186 
0.10534461888 -0.87753185723 0.46780375246 -0.10751427763 -0.85034573485 0.51512407373 -0.27322465125 -0.81001373797 0.5188699589 
-0.39128244466 -0.77240703123 0.50028534518 -0.47181074816 -0.74356861342 0.4738146632 -0.52416830347 -0.7243743564 0.44780507079 
-0.55800323451 -0.7125528354 0.42532440212 -0.5820364536 -0.70497614919 0.4052680542 -0.63742356605 -0.68796136768 0.34698754161 
-0.7512568178 -0.63638629515 0.1750019344 -0.80691763316 -0.58978718836 0.032171505209 -0.82923214887 -0.46018819614 -0.31717639796 
-0.79606709408 -0.44546803992 -0.4096771987 -0.76201027222 -0.47174433704 -0.44361878398 -0.77222490206 -0.45784184179 -0.44051055441 
-0.87022270235 -0.21019713257 -0.44556662104 -0.89277090648 -0.054795043736 -0.44716620145 -0.86098148431 0.24102715167 -0.44790266334 
-0.75339042394 0.49000817532 -0.43851437518 -0.63480020327 0.6408169603 -0.43172019331 -0.47935179352 0.76456574243 -0.43088407206 
-0.27799378652 0.85540640862 -0.437034702 -0.0083067824671 0.89453733763 -0.4469160424 0.34582448615 0.82538765327 -0.4462517749 
0.66511214067 0.61840646738 -0.41856813237 0.8392374225 0.38397601828 -0.38502333183 0.90420623412 0.21337150671 -0.3699779538 
0.92148279906 0.1094098378 -0.37269147889 0.92172788529 0.045703240776 -0.38513493644 0.91606643301 0.007561487154 -0.40095525214 
0.90656671592 -0.02312917047 -0.42142832257 0.88892973609 -0.058640662988 -0.45427436306 0.83845170926 -0.1261696498 -0.53016973764 
0.62619922184 -0.292918226 -0.72254650193 -0.32585868526 -0.51970810529 -0.78975920541 -0.81997108458 -0.38722034705 -0.42155405736 
-0.89790701613 -0.32134294072 -0.30083501264 -0.9097210155 -0.30719040412 -0.27935949882 -0.90832364857 -0.30915781943 -0.28172609416 
-0.90433906728 -0.3154557707 -0.28750392715 -0.88485793668 -0.34743862169 -0.3103430941 -0.87960161028 -0.35731306183 -0.31405156111 
-0.87960161028 -0.35731306183 -0.31405156111 
