# vtk DataFile Version 4.2
vtk output
ASCII
DATASET POLYDATA
POINTS 64 float
0 0 0 -0.340626 0.490764 0.779096 -0.652198 1.07907 1.612 
-0.885741 1.66254 2.37447 -1.1016 2.27207 3.16992 -1.29658 2.86444 3.96565 
-1.49613 3.43424 4.78251 -1.71811 3.97102 5.61401 -1.98547 4.47569 6.45277 
-2.32058 4.95302 7.28305 -2.74445 5.4075 8.08518 -3.27356 5.83805 8.83645 
-3.91649 6.23403 9.51446 -4.67086 6.57439 10.1018 -5.52121 6.83212 10.592 
-6.44177 6.98122 10.9922 -7.40204 7.00289 11.3198 -8.37133 6.88628 11.5967 
-9.32104 6.62892 11.8449 -10.2268 6.23872 12.0839 -11.0718 5.73194 12.3266 
-11.8484 5.12866 12.5768 -12.5577 4.44845 12.8292 -13.2071 3.70711 13.0704 
-13.8087 2.91629 13.2765 -14.3778 2.08693 13.4063 -14.9337 1.23502 13.379 
-15.4732 0.44112 13.0581 -15.9541 -0.186421 12.4202 -16.3544 -0.651342 11.6106 
-16.7028 -1.06102 10.7505 -17.0163 -1.48536 9.88383 -17.297 -1.96707 9.03605 
-17.5378 -2.52725 8.225 -17.7271 -3.16716 7.4606 -17.8529 -3.87316 6.74274 
-17.906 -4.62495 6.06334 -17.8803 -5.40151 5.41076 -17.7735 -6.18433 4.77411 
-17.5872 -6.95972 4.14673 -17.3264 -7.72083 3.52853 -16.9982 -8.46908 2.92686 
-16.6107 -9.21541 2.35917 -16.1714 -9.98253 1.86137 -15.6925 -10.8057 1.50912 
-15.227 -11.7141 1.50975 -14.9348 -12.5359 2.01094 -14.8448 -13.1589 2.81566 
-14.8715 -13.6398 3.70721 -14.9519 -14.0598 4.62781 -15.0505 -14.4648 5.55275 
-15.1384 -14.8928 6.4685 -15.1897 -15.3734 7.36066 -15.1803 -15.925 8.21228 
-15.093 -16.5473 9.00904 -14.9233 -17.2206 9.74894 -14.6779 -17.9172 10.4448 
-14.3705 -18.6113 11.1176 -14.0205 -19.2864 11.7906 -13.6515 -19.9306 12.4783 
-13.3065 -20.5661 13.2011 -13.0239 -21.1809 13.9302 -12.9363 -21.9043 14.6978 
-13.1089 -22.6404 15.3298 
LINES 1 65
64 0 1 2 3 4 5 6 7 8 9 10 11 12 13 14 15 16 17 18 19 20 21 22 23 24 25 26 27 28 29 30 31 32 33 34 35 36 37 38 39 40 41 42 43 44 45 46 47 48 49 50 51 52 53 54 55 56 57 58 59 60 61 62 63 

CELL_DATA 1
FIELD FieldData 2
Length 1 1 double
63.931163705 
Tortuosity 1 1 double
1.1083970227 
POINT_DATA 64
SCALARS MaximumInscribedSphereRadius float
LOOKUP_TABLE default
0.62 1.08294 1.39278 1.09049 0.826394 0.941442 1.13892 1.10775 0.966915 
0.93 0.933793 1.02502 1.0863 1.01803 0.996234 1.09333 1.15749 1.0852 
0.972539 0.951882 0.983256 1.09936 1.25136 1.47127 1.73177 1.66777 1.47169 
1.46389 1.57304 1.53231 1.425 1.29109 1.41442 1.5304 1.55 1.55 
1.55 1.57194 1.65389 1.77326 1.81518 1.72424 1.59561 1.37394 1.36877 
1.55416 1.77995 1.98085 2.08185 2.03433 1.94556 2.01887 2.1616 2.31675 
2.4897 2.78017 2.98525 2.94864 2.83702 2.79981 2.7566 2.55545 2.17432 
1.55 
TEXTURE_COORDINATES TCoords 2 float
0 0 0.015873 0 0.031746 0 0.047619 0 0.0634921 
0 0.0793651 0 0.0952381 0 0.111111 0 0.126984 0 
0.142857 0 0.15873 0 0.174603 0 0.190476 0 0.206349 
0 0.222222 0 0.238095 0 0.253968 0 0.269841 0 
0.285714 0 0.301587 0 0.31746 0 0.333333 0 0.349206 
0 0.365079 0 0.380952 0 0.396825 0 0.412698 0 
0.428571 0 0.444444 0 0.460317 0 0.47619 0 0.492063 
0 0.507937 0 0.52381 0 0.539683 0 0.555556 0 
0.571429 0 0.587302 0 0.603175 0 0.619048 0 0.634921 
0 0.650794 0 0.666667 0 0.68254 0 0.698413 0 
0.714286 0 0.730159 0 0.746032 0 0.761905 0 0.777778 
0 0.793651 0 0.809524 0 0.825397 0 0.84127 0 
0.857143 0 0.873016 0 0.888889 0 0.904762 0 0.920635 
0 0.936508 0 0.952381 0 0.968254 0 0.984127 0 
1 0 
FIELD FieldData 7
Curvature 1 64 double
0 0.074745045549 0.066901928052 0.02629301868 0.022236989196 0.030085654473 0.041262498812 0.05451040924 0.071528230557 
0.093334339344 0.11627243936 0.13630700323 0.15045460965 0.1559506805 0.15394036626 0.14836549094 0.14404231292 0.14150241376 
0.13682166591 0.12825238002 0.11549498994 0.099552788413 0.083994785271 0.07511986633 0.089036658584 0.1552318489 0.29745664805 
0.36447584763 0.24583524183 0.088560392187 0.037342744207 0.066836675409 0.092852749185 0.10299801846 0.10009373004 0.091624762209 
0.084506172718 0.080642336426 0.078199284466 0.074324088705 0.068638716847 0.066485436289 0.087062899132 0.15719427297 0.361981363 
0.56190486863 0.42152572406 0.19822755734 0.08397074172 0.023284562232 0.026215361958 0.066400442712 0.099152903831 0.11562186935 
0.10945672198 0.088191657697 0.064380288325 0.045293827787 0.037949765704 0.040733805401 0.058993592248 0.20869988793 0.27796821594 
0 
Torsion 1 64 double
0 0 -0.17063962784 -0.90748813977 -0.93734434945 -0.6196154471 -0.42135508088 -0.35852488069 -0.25408741081 
-0.13823298378 -0.043644973521 0.03233436788 0.093772195703 0.14524661384 0.18437202211 0.20628599903 0.20504305621 0.18288403469 
0.14791579294 0.09739684119 0.029948190571 -0.063947236523 -0.22131865518 -0.46438361232 -0.54456322198 -0.30460558736 -0.091530365279 
-0.021066568587 0.04828136688 0.48336732079 1.7012984462 0.26033724488 0.0051393950215 -0.08922498831 -0.16063116011 -0.2197237298 
-0.24094124911 -0.20047178905 -0.11056823165 0.012773637427 0.19465153586 0.45310482352 0.48318666844 0.30230431289 0.10092643772 
0.045904551185 0.04224193566 0.065363692188 0.099229029872 0.59912725594 0.38533925523 0.080077282363 0.068170248016 0.090356464724 
0.14225012735 0.23874624277 0.39123599972 0.60538980958 0.88745784606 0.75559594978 1.1199591757 0.16284488469 0 
0 
Abscissas 1 64 double
0 0.98176723824 2.0480266883 3.0361265855 4.0612355412 5.0722350032 6.0879839532 7.1022857857 8.1170197823 
9.1316662838 10.146373354 11.16113632 12.175954862 13.190779158 14.205600047 15.220399312 16.235233589 17.250016976 
18.264801346 19.279579632 20.294334764 21.309055597 22.323743392 23.338371502 24.35317832 25.367338154 26.384953662 
27.396992991 28.412888746 29.428702125 30.443033599 31.457696938 32.472369925 33.487074466 34.501766842 35.516455746 
36.531139413 37.54581479 38.560477425 39.575143036 40.589787102 41.604462119 42.619108781 43.633619155 44.648976364 
45.66971607 46.675719396 47.697383616 48.710713504 49.725780404 50.740289619 51.754940234 52.769594611 53.784327769 
54.79905819 55.813720332 56.828456207 57.842841901 58.858322092 59.870276903 60.892668808 61.8874072 62.94579436 
63.931170961 
ParallelTransportNormals 3 64 double
0 -0.84612394288 0.53298618489 -0.016165951333 -0.81952572363 0.57281432448 -0.026244748069 -0.79774514204 0.60242335741 
-0.026546181747 -0.7969458491 0.60346716053 -0.023896229436 -0.80470026789 0.59320017622 -0.017989449594 -0.82210131182 0.56905695041 
-0.010640164837 -0.84139296615 0.54031903854 -0.0031690428232 -0.85729401854 0.51481736854 0.0024843073206 -0.86650870699 0.49915577621 
0.0045241043135 -0.86901299602 0.49476857744 0.0022732987761 -0.86692265345 0.49843750365 -0.0016121697492 -0.86418257658 0.50317578961 
0.00016852033656 -0.86512093952 0.50156328773 0.018019096571 -0.87177399328 0.48957677314 0.060720939502 -0.88158382231 0.46810568438 
0.1304457573 -0.88791447802 0.4411255877 0.22390448536 -0.88331586023 0.4118493323 0.33339383493 -0.86197879842 0.38189147924 
0.44712908355 -0.82228510237 0.35202669368 0.5532728735 -0.76790323878 0.32282153479 0.64364445634 -0.70603853521 0.29534962438 
0.71470436553 -0.6446603928 0.27131282286 0.76706919169 -0.58987624864 0.25229123338 0.8017635341 -0.54738481845 0.23988558922 
0.81820409564 -0.52463121831 0.23516832833 0.81035904602 -0.5363549082 0.23588477904 0.76293131949 -0.60761459341 0.22077207163 
0.69821679807 -0.69777583277 0.1600068439 0.66153652023 -0.74324870917 0.099753640142 0.65724436987 -0.74826284574 0.090180662917 
0.66795891401 -0.73476230587 0.11813231168 0.68710969102 -0.70556115256 0.17338896303 0.70973273025 -0.66036953976 0.24533960661 
0.73083007778 -0.60150101442 0.32262040708 0.74633969329 -0.53524044505 0.39559414582 0.75452344312 -0.46855841683 0.45950776249 
0.75563677172 -0.40657576804 0.51352625451 0.7509960009 -0.35193452117 0.55870126136 0.74211466754 -0.30471954822 0.59700235942 
0.72984443041 -0.2625564443 0.63118239912 0.71375056851 -0.22131334752 0.66451525804 0.69127925735 -0.17438954828 0.70122840345 
0.65571633579 -0.10929708765 0.74705437126 0.59258191086 5.1080025191e-05 0.80551019628 0.46288354212 0.23780589393 0.85392457703 
0.31614590551 0.57332706395 0.75587554807 0.26209199344 0.77706393253 0.57225818626 0.25811033949 0.84704376495 0.46464600818 
0.2607807773 0.86951579151 0.41944686733 0.2616617192 0.87357756396 0.41036006683 0.25974948976 0.86503573416 0.42923581072 
0.25662865999 0.84467195047 0.4697563485 0.25533278151 0.81275736486 0.52367035104 0.25845376875 0.77486425221 0.57687697134 
0.26483588086 0.7426938543 0.61503479169 0.26977468504 0.72639486989 0.6321171666 0.26868737824 0.72913022644 0.62942529793 
0.26057096663 0.74603549781 0.61280813258 0.2476021014 0.76983247535 0.58826113187 0.24027001497 0.78297199925 0.57378146388 
0.23874354793 0.78601651508 0.57024517214 0.25802112603 0.71762282801 0.64687137457 0.25018419193 0.59630136517 0.76277949108 
0.25018419193 0.59630136517 0.76277949108 
FrenetTangent 3 64 double
-0.31868430489 0.52726726422 0.7876735021 -0.31868430489 0.52726726422 0.7876735021 -0.2655017079 0.57072090087 0.7770369981 
-0.22324557493 0.5926363065 0.77391447944 -0.20178949149 0.59033055179 0.78153108751 -0.19468450833 0.57348380005 0.79574761909 
-0.20769065354 0.54521937419 0.8121578827 -0.24126093817 0.51346940346 0.82349397777 -0.29706853264 0.48420886179 0.8229775605 
-0.37441901611 0.45967921465 0.80529834223 -0.47038529185 0.43684545242 0.76674880366 -0.57885266237 0.40821054327 0.70589924751 
-0.69043470406 0.36384084065 0.62523576522 -0.79310190723 0.2955945098 0.53255351893 -0.8751832479 0.20105516517 0.44003534308 
-0.92928635665 0.08437466622 0.35959391409 -0.9532166868 -0.04690090276 0.29862728163 -0.94794109917 -0.18473243119 0.25938697223 
-0.91641079687 -0.31982795735 0.24062695001 -0.8644522696 -0.44289143513 0.23784333136 -0.80038577875 -0.54790080489 0.24328442854 
-0.73313208378 -0.63326437085 0.24797899978 -0.67015551248 -0.70115543795 0.24345973165 -0.61687808793 -0.75552068201 0.22056727701 
-0.57757971529 -0.79933627912 0.16572020206 -0.55540827439 -0.83003668563 0.050603846167 -0.54566872876 -0.81985319402 -0.17345425535 
-0.51141562482 -0.71241388496 -0.48054189745 -0.43705054707 -0.54183008951 -0.71791850053 -0.36915539076 -0.43123075565 -0.82326443678 
-0.32627539208 -0.41111911913 -0.85119060052 -0.2929783357 -0.44674007296 -0.84533248016 -0.25726144262 -0.51397568388 -0.81831873162 
-0.21222359209 -0.59215932339 -0.77737280804 -0.15546777401 -0.66406154988 -0.73133578417 -0.088250208859 -0.7191192395 -0.68926005254 
-0.013514627051 -0.75380828625 -0.65695541892 0.065346650029 -0.76906035759 -0.63582700612 0.1445458679 -0.76844966339 -0.62337116304 
0.22047901697 -0.75769680764 -0.61423493125 0.29042059356 -0.74422522454 -0.6014854063 0.35288293901 -0.73691737832 -0.57656431461 
0.4078600177 -0.74658449703 -0.52560612131 0.45376030197 -0.78589644397 -0.42008138225 0.47138376536 -0.86428869682 -0.17550610904 
0.38769718205 -0.88530239136 0.25676948979 0.19257594714 -0.72797913525 0.65799763162 0.031261959318 -0.54518172408 0.83773478955 
-0.052847732786 -0.44454457578 0.89419641986 -0.088201012194 -0.40651317629 0.90937759976 -0.091917795778 -0.41054860693 0.9071940036 
-0.068633443112 -0.44799024442 0.89140012979 -0.020672716356 -0.50927296735 0.86035671876 0.047730111304 -0.57942680284 0.81362547688 
0.12683119923 -0.63938721129 0.75835205607 0.20474526932 -0.67569363338 0.70817899468 0.27258129843 -0.68574262318 0.67487516661 
0.32395411568 -0.67471525185 0.66318403166 0.35469893869 -0.65084046179 0.67126399888 0.35104158453 -0.62917064058 0.69347971201 
0.31127525943 -0.62012118633 0.7201093161 0.18133258408 -0.655482002 0.73311788888 -0.041997770044 -0.72112577594 0.6915300446 
-0.041997770044 -0.72112577594 0.6915300446 
FrenetNormal 3 64 double
0.71675356313 0.67782849007 -0.16374635199 0.71675356313 0.67782849007 -0.16374635199 0.81338918703 0.56529092214 -0.13727419191 
0.97448134264 0.15474872328 0.16260057039 0.78240348898 -0.38284484844 0.49119711161 -0.11795428022 -0.81907137235 0.56143465762 
-0.53495831422 -0.75841063222 0.37233441284 -0.8075734134 -0.57678848734 0.12304561283 -0.92152407876 -0.37112269737 -0.11428611363 
-0.92550823733 -0.23861623504 -0.29410337471 -0.88186470446 -0.20075775477 -0.42662743341 -0.81448048189 -0.24762795661 -0.52469223334 
-0.72330180406 -0.36107095165 -0.58861045533 -0.60150794983 -0.51762626745 -0.60848273068 -0.4455494857 -0.68938953571 -0.5711634826 
-0.26108470987 -0.8387060235 -0.47791942879 -0.061498466581 -0.93714222929 -0.34348563388 0.13503420126 -0.97086613014 -0.19795131178 
0.31340080715 -0.94735219873 -0.06560293927 0.46191945359 -0.88647506408 0.028149230215 0.576784396 -0.81443336974 0.063388064922 
0.65772093271 -0.75294913854 0.021697222156 0.69391299656 -0.70827701986 -0.12972438609 0.62012683105 -0.63913750712 -0.454913135 
0.35153880031 -0.42676268531 -0.83324311116 0.094893038722 -0.12371662617 -0.98776996695 0.044559930096 0.17830583935 -0.98296563535 
0.16696970117 0.46616590612 -0.86879828894 0.32247077781 0.65072933561 -0.68743285435 0.56419678645 0.59993570192 -0.56723816842 
0.91035914545 -0.37913711005 -0.165835093 0.47743138171 -0.83436924836 0.27547637495 0.41833460291 -0.82259308499 0.38514513697 
0.48697897245 -0.75376752534 0.44123236297 0.61772890133 -0.64308281589 0.45260965121 0.77230219978 -0.48641081757 0.40859983941 
0.90734862714 -0.28532315245 0.30872182866 0.97845808789 -0.075664505229 0.19207980868 0.98901234031 0.092462278769 0.11534867886 
0.97510213545 0.18656394477 0.11987376678 0.95470861475 0.18284949213 0.23472861811 0.86771847263 0.027205050785 0.49631092821 
0.57954432065 -0.23314423391 0.78087908578 0.24361684355 -0.3440469616 0.9067979498 -0.043916058528 -0.2217591539 0.97411203538 
-0.31193023218 0.13611939753 0.94030369555 -0.49460444965 0.50713053912 0.70582225431 -0.57308901442 0.67691232612 0.46190765775 
-0.62177762836 0.71533832851 0.31887874912 -0.76115410855 0.61640302766 0.20172191385 0.39700103719 -0.85062138571 -0.34472225724 
0.53602181501 -0.77014151284 -0.34577834525 0.59610620717 -0.697129978 -0.39833049538 0.656558842 -0.59566642188 -0.46272237988 
0.73346157868 -0.4542500828 -0.50565895116 0.83518048838 -0.25670368606 -0.4863915803 0.93817122042 0.033870239049 -0.34451062114 
0.90580095527 0.42354579446 -0.011558089007 0.51928555394 0.73416285734 0.43743275183 -0.6567446299 0.36245983828 0.6612936993 
-0.89700858577 0.058505704403 0.43812404592 -0.95103460981 -0.30662418595 -0.038920168707 -0.92613498186 -0.23157771604 -0.29773437289 
-0.92613498186 -0.23157771604 -0.29773437289 
FrenetBinormal 3 64 double
-0.62024563164 0.51238439685 -0.59393399154 -0.62024563164 0.51238439685 -0.59393399154 -0.51759721166 0.59558695977 -0.61430391487 
-0.023399276145 0.79046507884 -0.61205999135 0.58917381269 0.71059106499 -0.38462261609 0.97374777535 0.01544079263 0.22710537626 
0.81895310884 -0.35714023427 0.44918443715 0.53816200319 -0.63534574256 0.55382077041 0.25008730313 -0.79234444635 0.55645900042 
0.056964050191 -0.85542814543 0.51477935563 -0.032439485864 -0.8768479769 0.47967208086 -0.039384513391 -0.87866065547 0.47581962195 
0.01159394987 -0.85863124247 0.51246265208 0.09579953572 -0.80292398956 0.58833282752 0.18852039253 -0.69593023258 0.69292219837 
0.26126928948 -0.53800847748 0.80142700013 0.29596602275 -0.34578135779 0.89041527726 0.28839805302 -0.15262007146 0.94526910285 
0.24894012423 0.015293438502 0.96839812334 0.19837512944 0.13419812761 0.9708955508 0.16340858515 0.19105756788 0.9678815217 
0.17297549652 0.17900790872 0.96852240357 0.26339389193 0.082004359488 0.96119662022 0.48466910159 -0.14384625837 0.86278856965 
0.73676464652 -0.4230072379 0.52748718688 0.82614584665 -0.54381366011 0.14747794121 0.83681542235 -0.54410271815 -0.060763319673 
0.84295621332 -0.5245529568 -0.11945299467 0.83964243388 -0.53195064234 -0.10967724172 0.73851627174 -0.67388217735 0.021829508085 
-0.25453996703 -0.82899705769 0.49796915921 -0.82838576193 -0.32287964415 0.45773984404 -0.87109856512 -0.24324804809 0.42663529736 
-0.8472382353 -0.28492429425 0.44833639066 -0.77087014192 -0.38140103549 0.51018866552 -0.62909555144 -0.49625803363 0.59830322681 
-0.42016166374 -0.59191533707 0.68782294965 -0.19583050217 -0.63468184867 0.74754890502 -0.031001335188 -0.63319494773 0.77337124034 
0.023766121384 -0.62537144339 0.77996521029 -0.064709657451 -0.64241332364 0.76362149121 -0.35005468659 -0.67543516546 0.64903702025 
-0.70553425598 -0.62310140025 0.33758859376 -0.85717700733 -0.5138078119 0.03534275785 -0.88083410785 -0.45147306256 -0.14248981796 
-0.86740441853 -0.4446472596 -0.22337947364 -0.847514568 -0.46137294559 -0.26240057566 -0.81889661829 -0.4945367433 -0.29127605133 
-0.78140879059 -0.5391393103 -0.31421188087 -0.6425457217 -0.6743844193 -0.36378654527 0.91320386294 0.32847085032 0.24117546559 
0.8414095699 0.45407795708 0.29299000763 0.80263941379 0.50462940709 0.31799234728 0.75276312574 0.55627879162 0.35199656608 
0.6677933509 0.62035542741 0.41135287063 0.51044385246 0.69104365374 0.51176727339 0.21338743383 0.72705561112 0.65257638742 
-0.27309038863 0.60445701991 0.74836712296 -0.77751602965 0.19342076468 0.59837883605 -0.66742512466 -0.68758066485 -0.28596596353 
-0.3138205059 -0.78232141529 -0.53804265004 0.25030314599 -0.69016299063 -0.67898702599 0.37484687898 -0.65295434504 -0.65813405976 
0.37484687898 -0.65295434504 -0.65813405976 
