# vtk DataFile Version 4.2
vtk output
ASCII
DATASET POLYDATA
POINTS 64 float
0 0 0 -0.979908 -0.298802 0.0942659 -1.93328 -0.578876 0.109607 
-2.91708 -0.859721 0.086611 -3.89266 -1.13277 0.0774272 -4.83939 -1.43848 0.264235 
-5.56482 -1.8917 0.803796 -6.08412 -2.54677 1.38062 -6.63936 -3.30411 1.76428 
-7.24749 -4.08434 1.98942 -7.87405 -4.87535 2.09504 -8.46895 -5.69716 2.09887 
-8.95892 -6.57968 1.99688 -9.24429 -7.52919 1.78344 -9.26196 -8.49895 1.48748 
-9.04441 -9.43759 1.17019 -8.65834 -10.3327 0.889168 -8.14966 -11.1916 0.706676 
-7.55613 -12.012 0.769416 -7.05874 -12.6334 1.37695 -6.90709 -12.887 2.35723 
-6.89486 -13.0827 3.34938 -6.87239 -13.4092 4.31055 -6.7726 -13.9522 5.16042 
-6.59808 -14.6957 5.82775 -6.41088 -15.5618 6.32215 -6.27327 -16.4905 6.70668 
-6.21938 -17.4478 7.03835 -6.25184 -18.41 7.35849 -6.34241 -19.3631 7.69437 
-6.44105 -20.3043 8.0601 -6.49051 -21.2363 8.458 -6.44194 -22.1579 8.87953 
-6.26736 -23.0596 9.31038 -5.95909 -23.9267 9.73745 -5.52039 -24.7413 10.1535 
-4.95568 -25.4812 10.5571 -4.27073 -26.1183 10.9497 -3.47881 -26.6225 11.334 
-2.60619 -26.9752 11.7125 -1.68633 -27.179 12.0887 -0.748037 -27.2555 12.467 
0.190652 -27.232 12.8513 1.1211 -27.133 13.2435 2.04032 -26.9766 13.6435 
2.94809 -26.7762 14.0499 3.84526 -26.5436 14.4628 4.73248 -26.2935 14.8867 
5.60903 -26.0442 15.3327 6.47158 -25.8173 15.8163 7.31426 -25.6351 16.3512 
8.13 -25.5233 16.944 8.91009 -25.5168 17.5926 9.63585 -25.6658 18.2856 
10.2637 -26.0247 18.9966 10.7283 -26.6083 19.6833 10.9846 -27.3614 20.3126 
11.0366 -28.197 20.8857 10.916 -29.0431 21.4318 10.6658 -29.8466 21.9996 
10.3525 -30.5539 22.6527 10.1362 -31.1214 23.4744 10.1903 -31.5449 24.3718 
10.5439 -31.9384 25.2541 
LINES 1 65
64 0 1 2 3 4 5 6 7 8 9 10 11 12 13 14 15 16 17 18 19 20 21 22 23 24 25 26 27 28 29 30 31 32 33 34 35 36 37 38 39 40 41 42 43 44 45 46 47 48 49 50 51 52 53 54 55 56 57 58 59 60 61 62 63 

CELL_DATA 1
FIELD FieldData 2
Length 1 1 double
63.902069498 
Tortuosity 1 1 double
0.519324052 
POINT_DATA 64
SCALARS MaximumInscribedSphereRadius float
LOOKUP_TABLE default
0.93 1.03547 1.14506 1.1606 0.877962 1.00001 1.66239 1.64337 1.65331 
1.79956 1.72071 1.48938 1.3795 1.44896 1.49517 1.17244 0.819356 0.865287 
1.17106 1.57292 1.68908 1.20605 1.08738 1.4166 1.64884 1.78914 1.8129 
1.70179 1.57293 1.55 1.55 1.63148 1.76376 1.83497 1.7522 1.69715 
1.74891 1.83805 1.95279 2.08942 2.22472 2.35819 2.42218 2.33818 2.2061 
2.36901 2.63389 2.7291 2.59421 2.43051 2.13311 1.8622 1.7021 1.65192 
1.88203 2.26854 2.19479 1.76684 1.88292 2.44354 2.57351 2.26411 2.1841 
2.17 
TEXTURE_COORDINATES TCoords 2 float
0 0 0.015873 0 0.031746 0 0.047619 0 0.0634921 
0 0.0793651 0 0.0952381 0 0.111111 0 0.126984 0 
0.142857 0 0.15873 0 0.174603 0 0.190476 0 0.206349 
0 0.222222 0 0.238095 0 0.253968 0 0.269841 0 
0.285714 0 0.301587 0 0.31746 0 0.333333 0 0.349206 
0 0.365079 0 0.380952 0 0.396825 0 0.412698 0 
0.428571 0 0.444444 0 0.460317 0 0.47619 0 0.492063 
0 0.507937 0 0.52381 0 0.539683 0 0.555556 0 
0.571429 0 0.587302 0 0.603175 0 0.619048 0 0.634921 
0 0.650794 0 0.666667 0 0.68254 0 0.698413 0 
0.714286 0 0.730159 0 0.746032 0 0.761905 0 0.777778 
0 0.793651 0 0.809524 0 0.825397 0 0.84127 0 
0.857143 0 0.873016 0 0.888889 0 0.904762 0 0.920635 
0 0.936508 0 0.952381 0 0.968254 0 0.984127 0 
1 0 
FIELD FieldData 7
Curvature 1 64 double
0 0.076236509914 0.038360086009 0.01411405938 0.19772192464 0.45313876443 0.28913359801 0.21757868554 0.16503225034 
0.11837419949 0.10811869877 0.15732482214 0.23901846823 0.27843136878 0.23482038605 0.17409055555 0.15778062183 0.25914517347 
0.63233243398 0.67650662441 0.14654864337 0.13180434716 0.25220549982 0.27900811498 0.20864135981 0.13253721754 0.10038326472 
0.084923466969 0.05920219106 0.032195259067 0.0578360731 0.098724217495 0.12476764676 0.13484924224 0.13769419013 0.14360119222 
0.1550210034 0.16715639906 0.1681006141 0.15270992683 0.12548980787 0.097560819566 0.074285461166 0.057367544517 0.044627492791 
0.033538338041 0.022286359342 0.02385669698 0.044663033129 0.068943659168 0.092540736919 0.12130254653 0.16693455584 0.22879644756 
0.27636141254 0.2720117912 0.22375799853 0.17135402073 0.13478321359 0.14002145496 0.23462705428 0.31723256243 0.29930693045 
0 
Torsion 1 64 double
0 0 -0.16340356687 -4.3511400466 -0.33815571133 -0.28936614009 -0.8720697589 -0.75931098802 -0.16590016933 
0.27297138652 0.55238433235 0.30517379123 0.14106858378 0.1116554979 0.17020046526 0.34170811289 0.61449085251 0.45803289381 
0.14441905779 0.126855455 1.2677544242 0.70643570495 0.055653337412 -0.068962365137 -0.23649113242 -0.50508852688 -0.53547695012 
-0.41041900016 -0.53026886395 -1.6045369028 -0.53359919053 -0.17325360945 -0.075722751936 -0.018572553232 0.033085141751 0.070670084329 
0.086133850417 0.08392618765 0.080237084563 0.08280322954 0.089060585801 0.089744293762 0.076240817127 0.049614348402 0.045703835429 
0.16195513657 0.68547144849 0.7986199113 0.24658663954 0.14168415566 0.1521940874 0.15432748838 0.09388827385 0.013812113242 
-0.048544354306 -0.10706870301 -0.1914675558 -0.34089987056 -0.63332471775 -0.95351746336 -0.56721601083 -0.40742163497 0 
0 
Abscissas 1 64 double
0 1.0287803622 2.0225568611 3.045917267 4.0590297656 5.071279237 6.0826092591 7.0982424764 8.1126641703 
9.1271901828 10.141794528 11.156335575 12.17089226 13.185072416 14.199143024 15.213562779 16.228052164 17.242834787 
18.257407376 19.258674516 20.282540034 21.293870018 22.309238266 23.322657919 24.336881247 25.351563732 26.366119502 
27.380679861 28.395249225 29.409844814 30.424447468 31.439024132 32.453561698 33.468079149 34.482598859 35.497110822 
36.511617426 37.526084255 38.540511985 39.554959648 40.569468772 41.584024271 42.598603551 43.613193288 44.627788704 
45.642387537 46.656989069 47.671592315 48.686193795 49.700783775 50.715360521 51.729925558 52.744471973 53.758962231 
54.773121624 55.787076402 56.801345735 57.815875829 58.830204322 59.845349469 60.857769613 61.879541162 62.873259187 
63.902087733 
ParallelTransportNormals 3 64 double
0.095756606658 0 0.99540477811 0.02252358323 -0.021920874577 0.99950595969 -0.0140765283 -0.032520883947 0.99937192449 
-0.0013173042963 -0.02891420576 0.99958102894 0.1850540023 0.027199593234 0.98235187095 0.51403828493 0.176536508 0.83940425479 
0.57678255495 0.23236144896 0.78315390655 0.47340460487 0.096474734353 0.87554594724 0.37890506892 -0.028420306831 0.9249990459 
0.30835123006 -0.11820554876 0.94389987137 0.25914675666 -0.1831756886 0.94830882397 0.22625114573 -0.23485474275 0.94533257051 
0.20968047964 -0.27401137284 0.93859036007 0.20731221428 -0.2890108638 0.93460920518 0.20535856495 -0.27035389306 0.94060439735 
0.18853077657 -0.21923282252 0.95728423982 0.14064772658 -0.1253658813 0.98209043006 0.0056546539854 0.080311466809 0.99675377761 
-0.32406830808 0.51593613761 0.79296256759 -0.53211450025 0.79606585061 0.28832849342 -0.54197504773 0.82322333093 0.16901596091 
-0.53996845541 0.79302576134 0.28203582929 -0.52517117476 0.68783199449 0.50108121553 -0.48862926267 0.5164519538 0.70322032328 
-0.45468334226 0.3653960275 0.81224922367 -0.44048513053 0.28693907198 0.85066962962 -0.43896662598 0.27198409431 0.85634861693 
-0.43924499997 0.29692099231 0.84788074298 -0.43675797751 0.33563843275 0.83461926142 -0.4337790162 0.36546378703 0.82357269593 
-0.43316357177 0.37324842214 0.82039925369 -0.43317189839 0.35594043662 0.82805103226 -0.42883758951 0.32052497451 0.84460763822 
-0.41719386309 0.27787018591 0.86529615761 -0.39920082795 0.23736114784 0.88560622427 -0.37778422156 0.20418106231 0.90309975957 
-0.35688030663 0.18114782781 0.91641797845 -0.34109598311 0.16895009352 0.92472125325 -0.33525018689 0.16594074395 0.92740011952 
-0.34110130793 0.16775735782 0.92493641221 -0.35650081521 0.17008051114 0.91868372604 -0.3769712464 0.17065778846 0.91036728776 
-0.39808876748 0.16927366525 0.90159401033 -0.41713587835 0.16664419067 0.89343571269 -0.43298041632 0.16355001348 0.8864419621 
-0.44659254377 0.16028458009 0.88026357032 -0.46133233308 0.15629714701 0.87335197961 -0.48200427366 0.15044379916 0.86315615243 
-0.51228349973 0.14215303837 0.84696996971 -0.55144175366 0.13275865148 0.82358189197 -0.59441765826 0.12513967379 0.79435993705 
-0.63514963021 0.1221206134 0.76267391658 -0.67153392522 0.12556550885 0.73025713983 -0.70653985934 0.13869890059 0.69394815523 
-0.74301393462 0.17016766899 0.647281436 -0.77467298244 0.22887111473 0.58949112217 -0.7908034341 0.31197457411 0.52659452496 
-0.78680693108 0.40994287179 0.46139104355 -0.76339104188 0.51411398713 0.39105105218 -0.72725485119 0.61096256897 0.31277007648 
-0.70979931105 0.65297284433 0.26421847514 -0.71610626965 0.61359940946 0.33269742302 -0.67632275118 0.53278662614 0.50865110561 
-0.67632275118 0.53278662614 0.50865110561 
FrenetTangent 3 64 double
-0.95656744209 -0.28642201588 0.054232439986 -0.95656744209 -0.28642201588 0.054232439986 -0.96053632205 -0.27812868809 -0.0037956400811 
-0.96216918101 -0.27199404255 -0.01580214954 -0.95381642271 -0.28717006554 0.088133905057 -0.84676308142 -0.38431371019 0.36782503462 
-0.62050817879 -0.55249175255 0.55652714527 -0.53249450477 -0.69992785547 0.47597331809 -0.57537690157 -0.76044780393 0.30109891835 
-0.6095725298 -0.7757287767 0.16329787477 -0.60285908504 -0.7960168315 0.054019696017 -0.53634700005 -0.84260121818 -0.048529193954 
-0.38493785474 -0.90955934053 -0.15660349308 -0.15086317673 -0.95547351183 -0.25359548516 0.099223313045 -0.94735421624 -0.30442523404 
0.29865429779 -0.90728875013 -0.29602826604 0.44231850114 -0.86709301346 -0.22913762146 0.5477429822 -0.83452747069 -0.059510722677 
0.56575549886 -0.74772335833 0.34760681081 0.3370541089 -0.45439797394 0.82457080288 0.080745822229 -0.22137543134 0.97184002315 
0.017159590068 -0.2582314103 0.96593068447 0.060744966261 -0.43201311485 0.89981926945 0.13660567731 -0.64067454511 0.75556271492 
0.17926999867 -0.79772457694 0.57575842757 0.16042544215 -0.88646140004 0.4341081245 0.094499063617 -0.93067900647 0.35342115654 
0.010570907757 -0.94684304302 0.3215221731 -0.060657736353 -0.94430309257 0.32343826054 -0.093257450875 -0.93365937322 0.34580807199 
-0.073017292334 -0.92353845908 0.37649062356 -0.00043903951933 -0.91461390283 0.40432810438 0.1101954073 -0.90037926216 0.42092060591 
0.23852566679 -0.8737801101 0.42380871331 0.36904050276 -0.83084350838 0.4165431213 0.49584388028 -0.7681689369 0.40503744365 
0.61778784265 -0.68073969746 0.39361357418 0.73050778921 -0.56452415426 0.38427964969 0.82338063572 -0.42387434782 0.37732594129 
0.88608048072 -0.27509650725 0.37307277224 0.91761239595 -0.13842072499 0.37259521426 0.92613665074 -0.026150904602 0.37628052613 
0.92179433769 0.060413483077 0.38294308985 0.91192122518 0.1259168785 0.39056960811 0.90058750622 0.17587927205 0.39750298778 
0.88960266945 0.21341344381 0.40380910405 0.87939628636 0.23788702164 0.41239778911 0.86926260375 0.24612566788 0.42872448184 
0.85727252466 0.23473823819 0.45823768723 0.84087059612 0.20173311692 0.50223539314 0.81818756875 0.14504627574 0.55635481506 
0.78795701337 0.05841153667 0.61295337299 0.74479683421 -0.070480793871 0.66355868878 0.67166627622 -0.25202214238 0.69667011788 
0.54382964657 -0.46918295475 0.6957849312 0.35873594674 -0.66517150977 0.65487050866 0.1529166108 -0.7879947973 0.59638972959 
-0.033939325846 -0.83201173057 0.55371888387 -0.18313755551 -0.81473443179 0.55015310725 -0.27861110584 -0.74698348128 0.60364851561 
-0.2621709028 -0.63107195093 0.73007849611 -0.081470567775 -0.49776471991 0.8634771741 0.20382320783 -0.40844644407 0.88973456844 
0.20382320783 -0.40844644407 0.88973456844 
FrenetNormal 3 64 double
-0.089563951889 0.11172462928 -0.98969485486 -0.089563951889 0.11172462928 -0.98969485486 -0.051502852765 0.19124531909 -0.9801901265 
-0.11208648704 0.34230403642 0.93287971683 0.13958410414 -0.16391148888 0.97654969238 0.49911624387 -0.33472532054 0.79927588159 
0.71796500267 -0.68569564111 0.11978206335 -0.16519546436 -0.46557746104 -0.86945275106 -0.3131995195 -0.135221149 -0.9400113307 
-0.15140004617 -0.088279741715 -0.98452258137 0.28495820495 -0.27806333745 -0.91732197281 0.65211854926 -0.37722328531 -0.65760473746 
0.84337901818 -0.27773337806 -0.45997391493 0.95308128048 -0.072477825421 -0.29390991413 0.98723435753 0.13202832794 -0.089088966347 
0.94769509799 0.24534208635 0.20415989301 0.75892268181 0.22572784089 0.61080545584 0.32395515594 0.14597110782 0.93474354377 
-0.15027472312 0.32100297682 0.93507999469 -0.56411247254 0.60372716788 0.56328556265 -0.91714746375 0.36527986122 0.15940875989 
0.075477673345 -0.96298183117 -0.25878391308 0.30318349345 -0.85090630798 -0.42899676495 0.26534150829 -0.71117895633 -0.65101334553 
0.059281157109 -0.57541671895 -0.81570910499 -0.36490586277 -0.46191032641 -0.80838268269 -0.81237279779 -0.27729238823 -0.51299061282 
-0.98964050375 -0.055946444037 -0.13221826175 -0.95435532039 0.1498052563 0.25838790149 -0.24366810652 0.35816215743 0.90130223724 
0.82681253139 0.15504677664 0.54068617052 0.96702891807 0.10258041392 0.2330929649 0.98522710525 0.15481016987 0.073221324725 
0.96764779327 0.25079885123 -0.027526067534 0.92503165992 0.37181411906 -0.077914626459 0.85692827764 0.50840666025 -0.084832746024 
0.7583526499 0.64814959683 -0.069306266075 0.62658535278 0.77784630882 -0.048434652204 0.46966752395 0.88219385591 -0.033858788184 
0.30215264159 0.95314451952 -0.014808986596 0.14274762622 0.98962819664 0.01609806274 0.003864758453 0.99819924237 0.059860973786 
-0.10780088042 0.98877014779 0.10350152184 -0.19083656085 0.97270892069 0.13198016006 -0.24880116719 0.95843906186 0.13961570077 
-0.30882498937 0.93244359969 0.18755281744 -0.43179574852 0.76338665021 0.48040946477 -0.43466257451 -0.032576189406 0.90000402121 
-0.3041072378 -0.48731789709 0.81855974437 -0.28078387442 -0.63070864366 0.72344109828 -0.28307917416 -0.74061681701 0.60938732471 
-0.286356431 -0.84651867673 0.44878293681 -0.31828572334 -0.91151965053 0.26043449275 -0.42052228704 -0.9038844279 0.078447097433 
-0.58503029683 -0.80638532565 -0.086500048356 -0.7590759859 -0.61618215623 -0.21005522602 -0.89865634251 -0.36194705667 -0.24781264341 
-0.98627587034 -0.061690466532 -0.15314762134 -0.93694591929 0.3140852102 0.15324106845 -0.4460803066 0.65727417614 0.60745618561 
0.41559789147 0.60895347716 0.6756138359 0.85299826643 0.41328748506 0.31872780263 0.97660272479 0.14848987589 -0.15555666068 
0.97660272479 0.14848987589 -0.15555666068 
FrenetBinormal 3 64 double
0.27741129618 -0.95156714741 -0.1325252305 0.27741129618 -0.95156714741 -0.1325252305 0.27334489236 -0.94131273272 -0.19802249628 
-0.24832858582 0.89935932056 -0.3598412511 -0.26598967956 0.94375122637 0.1964258463 -0.18405232691 0.86038475809 0.47525025935 
0.31542963557 0.47389276332 0.82214949606 0.83015664844 -0.5416074454 0.13229253245 0.7555444938 -0.63516484345 -0.16036876106 
0.77813839189 -0.62486122635 -0.063632467121 0.74522462722 -0.5376225296 0.39446453661 0.53579221088 -0.38435111571 0.75179846143 
0.37487955357 -0.30913747228 0.87401335433 0.26244308852 -0.28603729303 0.92157815311 0.12459156252 -0.29169934795 0.94836091914 
-0.11260378175 -0.34151776607 0.93310556948 -0.47790240278 -0.44406829189 0.7579001554 -0.77138231921 -0.5312780217 0.35030412682 
-0.81076397496 -0.58126316612 0.069245278642 -0.75377161395 -0.65500838777 -0.05284284201 -0.39028277176 -0.90419220378 -0.17353909265 
0.99699983415 0.077346826541 0.0029663325682 0.9509941211 0.2988697436 0.079290970406 0.95442798204 0.28941426938 0.072846467106 
0.98201222599 0.18036379597 -0.055864918465 0.91711907015 -0.028723450411 -0.39757713034 0.57543059041 -0.23863260118 -0.78226217937 
0.14317796356 -0.3167936983 -0.93762563077 -0.29244924598 -0.29300179955 -0.91028752819 -0.96536464702 -0.00020924900805 -0.26090430141 
-0.55771813039 0.35076660568 0.75227207537 -0.25466621066 0.39109930635 0.88441305605 -0.13108975283 0.4066337364 0.9041374238 
-0.082239008119 0.41666323982 0.90533335856 -0.090141752095 0.41406922785 0.90577101912 -0.14075785368 0.38915183693 0.91035601522 
-0.20794095281 0.34131446562 0.9166596946 -0.271567976 0.27616589057 0.92194535375 -0.31852275533 0.20509641111 0.92546135332 
-0.35151836775 0.1258468776 0.92768389041 -0.37095903548 0.038415300455 0.92785433053 -0.37716835472 -0.053985208428 0.92456997002 
-0.37238980811 -0.13668871901 0.91795535017 -0.36329201218 -0.19489047005 0.91106345475 -0.35642688288 -0.2246353631 0.90691721276 
-0.3365029219 -0.29155382932 0.89541171991 -0.20053579004 -0.60054191129 0.77403798983 0.23548030074 -0.9686903259 0.078664353232 
0.41545469835 -0.84108217596 -0.34637864673 0.46270623127 -0.74933994712 -0.473700947 0.50043509419 -0.65608559522 -0.56490389293 
0.54509057917 -0.5291448028 -0.65029380911 0.5864911543 -0.40517204296 -0.70132998049 0.60993886537 -0.34565558109 -0.71308961552 
0.6016551066 -0.36001397411 -0.71302248993 0.5432422739 -0.42174211662 -0.72596240875 0.41113658097 -0.49805474357 -0.76348423966 
0.16157979374 -0.55131730113 -0.81849936086 -0.29764572916 -0.48739951414 -0.82088289879 -0.85052231703 -0.1000316753 -0.51633850541 
-0.8709447803 0.4805453729 0.1026222893 -0.51551576509 0.76251146766 0.39092167711 -0.068580010731 0.90062326146 0.42915559305 
-0.068580010731 0.90062326146 0.42915559305 
