# vtk DataFile Version 4.2
vtk output
ASCII
DATASET POLYDATA
POINTS 64 float
0 0 0 -0.999005 0.306751 -0.00332831 -1.96945 0.20099 -0.0574251 
-2.92564 -0.153582 -0.064377 -3.78797 -0.678833 0.0254972 -4.56972 -1.29652 0.215311 
-5.29361 -1.95998 0.470599 -5.99941 -2.64187 0.727987 -6.73319 -3.32596 0.876848 
-7.48058 -3.99435 0.739329 -8.07678 -4.63451 0.231446 -8.38754 -5.26998 -0.493852 
-8.43285 -5.92462 -1.2665 -8.28466 -6.59053 -2.01741 -8.01453 -7.24869 -2.73909 
-7.67712 -7.88307 -3.44939 -7.21235 -8.52697 -4.1835 -7.56959 -8.63296 -4.66618 
-8.0189 -8.23936 -3.71902 -8.39982 -7.99896 -2.83629 -8.67915 -7.84741 -1.8712 
-8.88602 -7.76465 -0.880981 -9.03407 -7.71118 0.12111 -9.11526 -7.65679 1.13092 
-9.09136 -7.61941 2.14431 -8.90473 -7.69612 3.13763 -8.5321 -8.00984 4.02489 
-8.04199 -8.56854 4.71347 -7.52509 -9.28704 5.208 -7.03161 -10.1019 5.55605 
-6.58704 -10.9815 5.79611 -6.20579 -11.9082 5.95449 -5.89175 -12.8676 6.05429 
-5.63701 -13.8472 6.12383 -5.42169 -14.8353 6.20581 -5.2159 -15.8169 6.35833 
-4.98277 -16.7636 6.63738 -4.68546 -17.6369 7.05843 -4.29376 -18.4087 7.58702 
-3.7834 -19.0606 8.17265 -3.13677 -19.5676 8.76659 -2.3545 -19.8899 9.32475 
-1.47369 -19.9946 9.8153 -0.554728 -19.8976 10.2329 0.361723 -19.6583 10.596 
1.26479 -19.3349 10.9265 2.15662 -18.9662 11.2397 3.04138 -18.5785 11.55 
3.92215 -18.1969 11.8786 4.7993 -17.8546 12.2563 5.66452 -17.5974 12.7189 
6.48952 -17.487 13.2976 7.20315 -17.6063 14.0062 7.68579 -18.0132 14.797 
7.88038 -18.6406 15.5682 7.84431 -19.3726 16.269 7.64976 -20.1461 16.8955 
7.34179 -20.9419 17.4439 6.94658 -21.7546 17.9046 6.48271 -22.5762 18.2773 
5.97219 -23.3955 18.5899 5.45648 -24.2043 18.9166 5.00701 -24.9875 19.3693 
5.13784 -25.3972 20.2936 
LINES 1 65
64 0 1 2 3 4 5 6 7 8 9 10 11 12 13 14 15 16 17 18 19 20 21 22 23 24 25 26 27 28 29 30 31 32 33 34 35 36 37 38 39 40 41 42 43 44 45 46 47 48 49 50 51 52 53 54 55 56 57 58 59 60 61 62 63 

CELL_DATA 1
FIELD FieldData 2
Length 1 1 double
63.626383388 
Tortuosity 1 1 double
0.93318680009 
POINT_DATA 64
SCALARS MaximumInscribedSphereRadius float
LOOKUP_TABLE default
0.93 0.93 0.93 0.93 0.790239 0.715426 0.968079 1.17977 1.01335 
0.93 1.15546 1.64295 1.36092 1.0073 0.93 0.950717 1.15933 0.857817 
0.756829 0.914645 0.93 0.93 0.937512 1.09144 1.24 1.24 1.24 
1.24 1.25467 1.36563 1.53377 1.39328 1.30515 1.43902 1.40522 1.09463 
1.19311 1.47928 1.35955 1.17542 0.990343 1.33141 1.81571 1.73319 1.72509 
1.82602 1.60808 1.31849 1.2601 1.2772 1.2772 1.28882 1.31243 1.26701 
1.24 1.26228 1.58191 1.8689 1.8675 1.77023 1.58404 1.25872 1.22507 
1.86 
TEXTURE_COORDINATES TCoords 2 float
0 0 0.015873 0 0.031746 0 0.047619 0 0.0634921 
0 0.0793651 0 0.0952381 0 0.111111 0 0.126984 0 
0.142857 0 0.15873 0 0.174603 0 0.190476 0 0.206349 
0 0.222222 0 0.238095 0 0.253968 0 0.269841 0 
0.285714 0 0.301587 0 0.31746 0 0.333333 0 0.349206 
0 0.365079 0 0.380952 0 0.396825 0 0.412698 0 
0.428571 0 0.444444 0 0.460317 0 0.47619 0 0.492063 
0 0.507937 0 0.52381 0 0.539683 0 0.555556 0 
0.571429 0 0.587302 0 0.603175 0 0.619048 0 0.634921 
0 0.650794 0 0.666667 0 0.68254 0 0.698413 0 
0.714286 0 0.730159 0 0.746032 0 0.761905 0 0.777778 
0 0.793651 0 0.809524 0 0.825397 0 0.84127 0 
0.857143 0 0.873016 0 0.888889 0 0.904762 0 0.920635 
0 0.936508 0 0.952381 0 0.968254 0 0.984127 0 
1 0 
FIELD FieldData 7
Curvature 1 64 double
0 0.41947662769 0.2547815538 0.21275783614 0.15480600645 0.096083020878 0.025174852827 0.10927386661 0.28546965943 
0.40774863416 0.36150096033 0.26797399089 0.19141992553 0.12266457248 0.070602110657 0.099726065982 1.7895707887 5.6211020173 
0.11316005061 0.1559669918 0.10015015473 0.064923007194 0.065478180809 0.10379237898 0.19618101497 0.3192576993 0.33753730378 
0.24998588712 0.17333687771 0.13187600115 0.11071301501 0.092479015675 0.067678051875 0.041013995967 0.069528861062 0.13089047469 
0.16871179429 0.17186982877 0.17449099446 0.19551294325 0.22868304547 0.24531467125 0.21442402834 0.14899742491 0.088780230035 
0.048384630845 0.019895579674 0.019137269841 0.061263560253 0.11781213132 0.18785068952 0.28467418589 0.38211183285 0.36618993781 
0.2602758003 0.17629416742 0.13624694792 0.1218039757 0.1091468148 0.074048835051 0.017780228645 0.14199112506 0.97736340515 
0 
Torsion 1 64 double
0 0 0.35258717145 0.24075197406 0.18305280292 -0.020563828875 -3.2050872154 -0.0060994772233 0.2035860559 
0.2647985419 0.34139359878 0.29621979368 0.11672145326 -0.077475877136 -0.1673262584 -2.5848471586 -0.19073625835 -0.25059756525 
-3.6553865842 0.19769761804 0.044344566339 0.44046777481 0.0904269682 -0.44934467661 -0.32202748054 -0.15872541539 -0.11479453414 
-0.13326048807 -0.17568449778 -0.19473829324 -0.17504223767 -0.17764782388 -0.35585047545 -1.3224256429 -0.59963260666 -0.23298456602 
-0.21249917602 -0.26501051226 -0.25489362867 -0.14553002197 -0.030169597132 0.032388241904 0.05557842855 0.060123555525 0.052380187122 
0.081944458053 0.72517901129 1.0605987588 0.12813027391 0.050891024001 0.030066311347 0.012575530822 -0.0053672395886 -0.021991749443 
-0.030044738604 0.019762364813 0.10777868114 0.0992476142 0.01367826965 -0.15307984219 -4.8678180479 -0.34063951426 0 
0 
Abscissas 1 64 double
0 1.0450445483 2.0227286325 3.0425729835 4.0562640129 5.0705183227 6.0850903226 7.099671277 8.1138623128 
9.1259080652 10.137447034 11.150584418 12.164289628 13.178814287 14.192205007 15.20256276 16.284011288 16.893797974 
18.013579191 19.004591752 20.02065441 21.035635118 22.0500142 23.064544944 24.07890695 25.09250735 26.104685997 
27.117842973 28.131744156 29.146000048 30.160378135 31.17480727 32.189294317 33.203854759 34.218430278 35.232881375 
36.247060918 37.261125368 38.275258423 39.289334905 40.303221186 41.316827752 42.330449358 43.344493929 44.35890415 
45.373450255 46.38803727 47.402642126 48.417225036 49.431709605 50.445977691 51.45975603 52.472482658 53.484339699 
54.497404426 55.511355213 56.525617161 57.539958402 58.554325747 59.568786008 60.583442042 61.596810877 62.606884778 
63.626353172 
ParallelTransportNormals 3 64 double
-0.0033316095341 0 0.99999445017 -0.056203925616 0.00502947687 0.99840664216 -0.012924100333 0.015250780067 0.9998001707 
0.070047634668 0.055423399077 0.99600279905 0.15051879798 0.11136381785 0.98231471104 0.20032467971 0.15374295366 0.96759140493 
0.20228487088 0.15558750935 0.96688849303 0.12442854463 0.081712215923 0.9888582563 -0.084612411252 -0.10916270438 0.99041619728 
-0.3460653708 -0.36380422664 0.86480358684 -0.47780003368 -0.54904041347 0.68575633588 -0.50405518504 -0.64414751463 0.57532803672 
-0.50013313493 -0.69452723464 0.51720283033 -0.48966064442 -0.72766893718 0.48034401336 -0.47633450361 -0.75601496241 0.44893965885 
-0.45361817084 -0.79240084641 0.40783753345 -0.44455520335 -0.7477364022 0.4932149065 0.20653565209 -0.86493924672 0.45740914278 
0.25314288305 -0.90018316989 0.35438530077 0.29716738767 -0.92634134285 0.23148058285 0.31870335861 -0.93671888977 0.1448650778 
0.32696953813 -0.93989165844 0.098461116861 0.32939579832 -0.94103326843 0.077167323159 0.33081628919 -0.94330911387 0.02699071115 
0.3141690761 -0.94019653649 -0.13163686564 0.23157587877 -0.88252643062 -0.40929171946 0.091175349395 -0.74056061679 -0.6657755091 
-0.033241223837 -0.58276644424 -0.81195953872 -0.12029593878 -0.4506505033 -0.88455808797 -0.18007901552 -0.3426597727 -0.92203895164 
-0.2214668146 -0.25213769236 -0.94200797986 -0.24799668022 -0.18016987147 -0.95185947703 -0.26103052181 -0.13573550001 -0.9557399964 
-0.26093124193 -0.1361510761 -0.95570799487 -0.24744970253 -0.19920851942 -0.94820072269 -0.21880375946 -0.32506024962 -0.92003301515 
-0.1750181065 -0.47529623746 -0.86224251174 -0.12185674442 -0.60222409605 -0.78897216173 -0.063659647634 -0.69407081626 -0.71708657167 
0.0017703824919 -0.75960674685 -0.65038023946 0.084042878337 -0.80735790345 -0.5840462399 0.18917508379 -0.83435374988 -0.51775149226 
0.29836498545 -0.83482252489 -0.46265504146 0.38302051632 -0.81931014046 -0.42664525992 0.43621660207 -0.80285751739 -0.40636791562 
0.46607651699 -0.7913444131 -0.39565982886 0.4809571166 -0.78500907169 -0.39043694671 0.48461206502 -0.78341640335 -0.38911423181 
0.4760899062 -0.78692586808 -0.39253799734 0.4523207156 -0.79510334068 -0.40400080182 0.40957668646 -0.80439877124 -0.43033655983 
0.34579695026 -0.80402490242 -0.48370282765 0.27834060842 -0.77434248247 -0.56826070209 0.24361352878 -0.721325276 -0.64833810223 
0.2385231284 -0.67770311309 -0.69557545078 0.24327522654 -0.64667826291 -0.7229276509 0.2538855706 -0.6135423353 -0.74773519366 
0.27234038728 -0.57132753389 -0.77421932453 0.29515363114 -0.52792798631 -0.79635191674 0.31074487089 -0.50167243464 -0.80731802503 
0.30162400931 -0.51614233457 -0.80163585715 0.25690290836 -0.58991228637 -0.76550923578 0.17605721596 -0.89046766062 -0.41960839136 
0.17605721596 -0.89046766062 -0.41960839136 
FrenetTangent 3 64 double
-0.99441455721 0.10148386019 -0.028995077728 -0.99441455721 0.10148386019 -0.028995077728 -0.97216115017 -0.23227952238 -0.030804570809 
-0.89942244913 -0.43515195879 0.041012568248 -0.8131906053 -0.56531714532 0.13833858704 -0.74300246503 -0.63221976204 0.21964860447 
-0.70463005117 -0.6630624954 0.2526749259 -0.71066934106 -0.67433561661 0.20055065157 -0.73844697523 -0.67428783914 0.0056546238398 
-0.67739992947 -0.65973368911 -0.32539329281 -0.45515901719 -0.64017651176 -0.61887341425 -0.17726069482 -0.64225038394 -0.74571649465 
0.050960030412 -0.65411720043 -0.75467460763 0.20667722528 -0.6541769548 -0.72755552115 0.30039709538 -0.63909405181 -0.70803981387 
0.38400683966 -0.61191752654 -0.69144463829 0.075020424454 -0.52317520161 -0.84891674759 -0.82794568022 0.29523959352 0.47680135594 
-0.39402150524 0.30089214078 0.86845320716 -0.32996021778 0.19587709179 0.92344919708 -0.23969259122 0.11551311965 0.96395237481 
-0.17498788525 0.067166043562 0.98227692766 -0.11304940617 0.053190964628 0.99216457962 -0.02827617086 0.045294214864 0.99857342858 
0.10432068944 -0.019488566128 0.99435274905 0.2795676845 -0.19517135462 0.94007981157 0.431979973 -0.43682695516 0.78903454562 
0.50069267571 -0.63503328804 0.58825127928 0.50009000306 -0.75894024456 0.41703680176 0.46343924736 -0.83713981309 0.29055291662 
0.40767174814 -0.89169258762 0.19669284417 0.34306728531 -0.93063238096 0.12738998888 0.2804933556 -0.95621629651 0.083509710508 
0.23170118949 -0.96991566202 0.07468712985 0.2076667505 -0.97134007861 0.11564156875 0.21684013627 -0.95263963153 0.21320902359 
0.26248124767 -0.90060312654 0.34643556845 0.34098927651 -0.81415635438 0.46997419495 0.44647020237 -0.70465351879 0.55147781175 
0.57328316795 -0.57422931371 0.58447164569 0.70942842903 -0.41173556079 0.57200098957 0.82659965493 -0.21223157958 0.52123964459 
0.89277497949 -0.0038195599511 0.45048667789 0.90740573474 0.16626255126 0.38596838809 0.89768124777 0.27761499128 0.34219627996 
0.88481840245 0.3411801758 0.31732078774 0.87556447684 0.3727794699 0.30728214026 0.87011916661 0.37914004563 0.31487372341 
0.86678349022 0.35693566053 0.34825754167 0.86035299678 0.29602241635 0.41492583668 0.83716533387 0.18207284631 0.51575544826 
0.76695992305 -0.0044362221833 0.64167966803 0.60144069456 -0.26455469675 0.75384342098 0.33996659774 -0.51921387897 0.78411712155 
0.078867712913 -0.67633689982 0.73235802842 -0.11415398639 -0.74520168695 0.6569956721 -0.24830948528 -0.7754364096 0.58055212874 
-0.34727485849 -0.79438015594 0.49835764317 -0.42408787948 -0.80677779248 0.41141106456 -0.48053633189 -0.80923642335 0.33796633689 
-0.50604433058 -0.80283231409 0.31524500147 -0.47821632378 -0.78878550944 0.3861690922 -0.17228396564 -0.6449828707 0.7445235602 
-0.17228396564 -0.6449828707 0.7445235602 
FrenetNormal 3 64 double
-0.096979606409 -0.98696759051 -0.12841312718 -0.096979606409 -0.98696759051 -0.12841312718 0.22217267724 -0.95555852668 0.19377100809 
0.4061155952 -0.79732699384 0.44647484613 0.51222559979 -0.5823420644 0.63127066695 0.58906533074 -0.46192957533 0.66304080082 
0.69830041659 -0.7112057808 0.081011514857 -0.25212329455 -0.022014799917 -0.96744467177 -0.052944072458 0.049617789056 -0.99736402592 
0.3761149917 0.069528556764 -0.92396065544 0.7975236919 0.01597627043 -0.60307604798 0.98235673481 -0.069567508896 -0.17359610389 
0.99188139808 -0.055006088151 0.1146543606 0.97250469271 0.055782218172 0.22610388495 0.94456902576 0.30243235234 0.12776551897 
0.92040032291 0.31329498372 0.23390061728 -0.92047961179 0.29108887783 -0.26073846953 0.54007928954 0.19074602808 0.81971355594 
0.14034107999 -0.91411722559 0.38038674944 0.70393552077 -0.60072710643 0.37894818405 0.70082985353 -0.66652231101 0.25413682404 
0.87935646418 -0.43807505427 0.18660775904 0.99356126831 0.013561735145 0.11248148936 0.98655054158 -0.15962663541 0.035176216182 
0.81506783262 -0.57123738705 -0.09670716546 0.58360807564 -0.74293300231 -0.32779897518 0.34775429696 -0.72654563004 -0.59261994264 
0.10450431414 -0.63025288556 -0.76932447548 -0.13333562557 -0.54332152159 -0.82886870801 -0.36262086826 -0.47834255054 -0.79980904612 
-0.55794167527 -0.41376667481 -0.71937349535 -0.70742222014 -0.34520793641 -0.61675382698 -0.85299178155 -0.28821513174 -0.43512878374 
-0.93431377498 -0.20050220946 0.29471449554 -0.13293733368 0.089098005827 0.98711154925 0.20447209027 0.25788278344 0.94429213399 
0.37269204326 0.42578414526 0.82450500455 0.53786885579 0.57898822967 0.61275584361 0.66648845626 0.67311158061 0.32049015229 
0.6851414809 0.72717460921 0.042405646715 0.58570410454 0.79584517238 -0.15356159518 0.39682731909 0.87654109174 -0.27240373221 
0.17337470118 0.92586022347 -0.3357440388 -0.01853353662 0.93335142157 -0.35848519058 -0.14852677801 0.92176496054 -0.35817475306 
-0.22615715939 0.90991596147 -0.34771523166 -0.34528966017 0.92774713413 -0.14163440855 -0.20161311788 -0.30915837089 0.9293940243 
-0.056541089985 -0.62350733373 0.77977029306 -0.09713920449 -0.703911519 0.70361391997 -0.20782651132 -0.76634973563 0.60787846145 
-0.38603527601 -0.80197805238 0.45585959371 -0.60981588563 -0.76161291264 0.21924953121 -0.79401939877 -0.60525912045 -0.056520717323 
-0.87776628491 -0.39535813384 -0.27058879333 -0.88088494725 -0.2298571987 -0.41377213284 -0.81281599099 -0.15923144504 -0.56033517799 
-0.69872149381 -0.13525469749 -0.70249159489 -0.61283780784 -0.078810573966 -0.78626885651 -0.61134813099 0.032810337467 -0.79068131664 
-0.32149781608 0.51473402238 0.79478804751 0.44746664755 0.15951983351 0.87995853428 0.69642157069 0.4547813405 0.55513145129 
0.69642157069 0.4547813405 0.55513145129 
FrenetBinormal 3 64 double
-0.041649061848 -0.12488395178 0.99129680431 -0.041649061848 -0.12488395178 0.99129680431 -0.074444607508 0.18153271213 0.98056303971 
-0.1615839761 0.41822534315 0.89385579431 -0.276307753 0.58420394148 0.76312500967 -0.31772531073 0.62202832726 0.71563355637 
0.12598817077 0.23352615388 0.96415378249 0.65679748174 -0.7380967584 -0.15437047394 0.67222986394 -0.73679982696 -0.072339650458 
0.63219209784 -0.74827617846 0.20103709156 0.39596240975 -0.76806171144 0.50328419158 0.059614525499 -0.76333138677 0.64325057506 
-0.11650908737 -0.75439049462 0.64600357135 -0.10732729011 -0.75428168209 0.64771907248 0.13247996326 -0.70717286797 0.69451824608 
0.073498249515 -0.72622530519 0.6835165056 0.38352212479 0.80097126891 -0.45973449531 0.15106393223 0.93618883522 -0.31738013988 
0.90832341965 0.2717602206 0.31795431719 0.62896823233 0.77508651679 0.060331204245 0.67185190192 0.73648131553 0.078805417104 
0.44284472326 0.89642566308 0.017594932747 -0.0074724743276 0.99849226368 -0.054381628383 0.16099219571 0.98613780546 -0.040171402187 
0.56989615017 0.82055349821 -0.043707374694 0.76239328685 0.64028017025 -0.0937964805 0.83214196618 0.53039010051 -0.16194471096 
0.85929371743 0.4466699266 -0.24919928542 0.85564688966 0.35890309188 -0.37290343368 0.80853581857 0.26530235146 -0.52524707748 
0.72284495763 0.18352511543 -0.66619343981 0.61794711765 0.12146955237 -0.77677957468 0.44014599631 0.050817635928 -0.89648707175 
-0.2708732705 -0.13806691341 -0.95266216402 -0.96912444302 -0.22036332963 -0.1106246668 -0.95455304703 -0.16116514029 0.25070755464 
-0.89005855735 -0.087303322441 0.44740797308 -0.77098859089 0.043841310692 0.63533812431 -0.59704061508 0.22446429226 0.77016769956 
-0.44936350596 0.37613532539 0.81030528599 -0.39199745664 0.44396428862 0.80575039833 -0.39907529276 0.43201096181 0.80876785272 
-0.41580530177 0.37784687052 0.82724705708 -0.41984680608 0.3181381585 0.85000986555 -0.41485922144 0.27070144834 0.86868438011 
-0.40736879353 0.23590046781 0.88227072679 -0.33787852473 0.017908711039 0.94101933062 0.44971634014 -0.872166227 -0.19256501732 
0.49546895587 -0.69558287718 -0.5202643316 0.50035656873 -0.64566191032 -0.57685700281 0.50592721311 -0.61608243064 -0.60372186783 
0.51259071598 -0.59733702667 -0.6167975636 0.51613339028 -0.59157128373 -0.61939465586 0.5039403802 -0.60338904945 -0.61803377594 
0.47255288903 -0.62149846657 -0.62484671971 0.45935887615 -0.62597133639 -0.63019783317 0.52694645298 -0.61101859348 -0.59074843556 
0.62545059497 -0.5921708661 -0.50807993328 0.66676779448 -0.58557534699 -0.46100132456 0.62875933112 -0.58656618798 -0.51049173416 
-0.80034885503 0.30084740595 -0.51858706943 -0.75570017004 0.59360832442 0.27667021919 -0.69664569981 0.61414251509 0.37082845104 
-0.69664569981 0.61414251509 0.37082845104 
