# vtk DataFile Version 4.2
vtk output
ASCII
DATASET POLYDATA
POINTS 64 float
0 0 0 -0.837391 0.588796 -0.161568 -1.70105 1.05829 -0.119126 
-2.63703 1.3718 0.151915 -3.54215 1.44808 0.598247 -4.41901 1.35156 1.10022 
-5.2765 1.14842 1.60283 -6.12064 0.886006 2.10086 -6.94838 0.590685 2.60784 
-7.75701 0.275938 3.13363 -8.5466 -0.0558152 3.67764 -9.32226 -0.416538 4.22276 
-10.0994 -0.845274 4.71727 -10.8796 -1.44287 4.95999 -11.4851 -2.18813 4.66647 
-11.8005 -2.90067 4.01052 -11.9318 -3.57164 3.26214 -11.9279 -4.23993 2.49882 
-11.7943 -4.92837 1.76574 -11.5171 -5.65806 1.11698 -11.0426 -6.47166 0.733985 
-10.5032 -7.10344 1.19936 -10.2973 -7.12608 2.22596 -10.1914 -6.96305 3.21249 
-10.0916 -6.72407 4.19549 -9.96647 -6.45731 5.16597 -9.80305 -6.19885 6.13344 
-9.60292 -5.99629 7.10721 -9.3952 -5.93026 8.09795 -9.25794 -6.11047 9.08559 
-9.27077 -6.56659 9.99104 -9.42522 -7.20999 10.76 -9.67215 -7.97092 11.3835 
-9.97362 -8.8274 11.8356 -10.2878 -9.76602 12.0561 -10.5546 -10.7417 11.9885 
-10.7247 -11.6869 11.6628 -10.7922 -12.578 11.1827 -10.7736 -13.4418 10.6508 
-10.683 -14.3239 10.1577 -10.5284 -15.2662 9.81533 -10.3263 -16.2568 9.75154 
-10.1084 -17.2177 9.99104 -9.89234 -18.1039 10.4353 -9.67015 -18.924 10.9897 
-9.41915 -19.6926 11.6026 -9.10379 -20.4119 12.2447 -8.6713 -21.0628 12.8916 
-8.0613 -21.5926 13.5043 -7.26098 -21.9316 14.0255 -6.34298 -22.0695 14.4347 
-5.38631 -22.0624 14.7724 -4.42736 -21.9626 15.0883 -3.48199 -21.8018 15.4197 
-2.56048 -21.6015 15.7939 -1.67185 -21.3835 16.2322 -0.823459 -21.1747 16.7479 
-0.0188605 -21.0065 17.3426 0.743469 -20.9066 18.0042 1.47145 -20.8922 18.712 
2.17154 -20.9657 19.4375 2.87137 -21.128 20.171 3.54213 -21.3495 20.8553 
4.26464 -21.6494 21.5352 
LINES 1 65
64 0 1 2 3 4 5 6 7 8 9 10 11 12 13 14 15 16 17 18 19 20 21 22 23 24 25 26 27 28 29 30 31 32 33 34 35 36 37 38 39 40 41 42 43 44 45 46 47 48 49 50 51 52 53 54 55 56 57 58 59 60 61 62 63 

CELL_DATA 1
FIELD FieldData 2
Length 1 1 double
63.864109385 
Tortuosity 1 1 double
1.0713184109 
POINT_DATA 64
SCALARS MaximumInscribedSphereRadius float
LOOKUP_TABLE default
1.2772 1.25866 1.24568 1.28875 1.41843 1.47552 1.3613 1.34299 1.38143 
1.46933 1.58071 1.82669 1.83328 1.27951 1.42761 1.50544 1.30859 1.25712 
1.26759 1.43787 1.44234 1.59425 2.10172 2.46262 2.67428 2.7096 2.55738 
2.25458 1.89288 1.84124 1.72054 1.63456 1.76149 1.66327 1.32041 1.53701 
1.84161 1.672 1.60177 1.75468 1.6505 1.3683 1.41443 1.53397 1.55 
1.59665 1.75069 1.78633 1.6033 1.42813 1.34656 1.43605 1.58599 1.74493 
1.76667 1.44556 1.24 1.24536 1.28939 1.3953 1.63345 1.923 2.09522 
2.2382 
TEXTURE_COORDINATES TCoords 2 float
0 0 0.015873 0 0.031746 0 0.047619 0 0.0634921 
0 0.0793651 0 0.0952381 0 0.111111 0 0.126984 0 
0.142857 0 0.15873 0 0.174603 0 0.190476 0 0.206349 
0 0.222222 0 0.238095 0 0.253968 0 0.269841 0 
0.285714 0 0.301587 0 0.31746 0 0.333333 0 0.349206 
0 0.365079 0 0.380952 0 0.396825 0 0.412698 0 
0.428571 0 0.444444 0 0.460317 0 0.47619 0 0.492063 
0 0.507937 0 0.52381 0 0.539683 0 0.555556 0 
0.571429 0 0.587302 0 0.603175 0 0.619048 0 0.634921 
0 0.650794 0 0.666667 0 0.68254 0 0.698413 0 
0.714286 0 0.730159 0 0.746032 0 0.761905 0 0.777778 
0 0.793651 0 0.809524 0 0.825397 0 0.84127 0 
0.857143 0 0.873016 0 0.888889 0 0.904762 0 0.920635 
0 0.936508 0 0.952381 0 0.968254 0 0.984127 0 
1 0 
FIELD FieldData 7
Curvature 1 64 double
0 0.2304200626 0.28690891712 0.2922484076 0.18031327942 0.1055439698 0.059248906671 0.036771499583 0.032174622609 
0.0304743253 0.031258711614 0.082399742659 0.30149134327 0.62580356192 0.48021118382 0.20568532127 0.13288721044 0.13144702638 
0.16780998216 0.34049910847 1.111448532 1.1073429719 0.20202928125 0.073940225379 0.038382395139 0.038195578202 0.065325324776 
0.13450164742 0.25322416881 0.32432665472 0.26885920128 0.20492680295 0.19998898311 0.24279708753 0.29245127735 0.274870721 
0.18943071042 0.10143114614 0.081553640643 0.17077312641 0.28468170155 0.30396074979 0.21434203997 0.12543825667 0.080858806437 
0.083872792792 0.132470362 0.21397948652 0.28251529018 0.25560112262 0.16259694198 0.09274778717 0.062613432412 0.061202359832 
0.072168504788 0.085379807618 0.096439735212 0.10184866837 0.10032541162 0.091565428976 0.084696961782 0.069409439822 0.076325545209 
0 
Torsion 1 64 double
0 0 -0.13037048694 -0.15931839413 -0.28262867829 -0.22359562496 0.073209753853 0.49470492532 0.27222379075 
-0.29754307565 -1.2378516404 -0.57956416093 -0.074445730632 0.0068089393507 0.076401176036 0.34919891322 0.44132833183 0.34035399458 
0.38880077618 0.30718005527 0.059100804332 -0.0003869376184 -0.37872473372 -0.68836171609 -1.1109158096 -1.028131799 -0.70120487191 
-0.38877605596 -0.18212993679 -0.093996652634 -0.022185408496 0.10021738577 0.16568196459 0.14641208516 0.11452619744 0.12030232388 
0.21788683756 0.71444524969 1.1706704884 0.28277833228 0.083301869757 0.029217170447 -0.024478417145 -0.18543681219 -0.51763038466 
-0.48690296619 -0.17960121727 -0.045793338353 0.0060510471341 0.053511588128 0.1659129499 0.4046206141 0.62733535848 0.51742066169 
0.36822447233 0.30478456494 0.27239244219 0.24966435403 0.23221056053 0.25612409238 0.25181662794 0.33242735737 0 
0 
Abscissas 1 64 double
0 1.0363443949 2.0202815626 3.0439119135 4.0559749564 5.0709523525 6.0854340696 7.1000510117 8.1146444701 
9.1292437317 10.143868444 11.158225216 12.174273606 13.186537764 14.190639946 15.209189124 16.222860415 17.23739474 
18.251894428 19.266867833 20.283628497 21.235822568 22.283089771 23.288592722 24.305138594 25.319369843 26.334010291 
27.348560953 28.362995454 29.376281887 30.390203198 31.404627469 32.418926018 33.433233215 34.447305068 35.461073083 
36.475207635 37.48965441 38.504230814 39.518839019 40.533244504 41.546280312 42.560290468 43.574834173 44.58938511 
45.603953105 46.61849363 47.632972844 48.646935207 49.660383461 50.674874048 51.689417386 52.703998835 53.718578723 
54.733148933 55.747705161 56.762233677 57.7767927 58.791099347 59.806546577 60.817478607 61.844181702 62.827671217 
63.864087488 
ParallelTransportNormals 3 64 double
-0.18944750803 0 0.9818908502 -0.011234811495 -0.11050492042 0.99381207558 0.2078031623 -0.20625728157 0.95617769245 
0.41134067571 -0.24920448667 0.87675308515 0.50170954286 -0.24819080798 0.82866691585 0.53271482399 -0.24283314128 0.81070770429 
0.54743343734 -0.23880623344 0.80205250112 0.5669452575 -0.23229713386 0.79032342531 0.5909645708 -0.22334230777 0.77516391145 
0.61361000303 -0.21418199547 0.76000581379 0.6254824129 -0.20892953523 0.75174477082 0.60678686523 -0.21843366193 0.7642620202 
0.48471439163 -0.29890775148 0.82201345163 0.25180542828 -0.52483521752 0.81310640186 0.13883849816 -0.70329298952 0.6972107589 
0.12392134431 -0.74953489285 0.65026221237 0.12423506778 -0.74623816711 0.6539833682 0.12081817881 -0.71253840409 0.69115265344 
0.099723278678 -0.63970853634 0.76212089344 -0.0035686236454 -0.42760649211 0.90395793753 -0.46751080916 0.22965104407 0.85363577788 
-0.81932628016 0.54554695053 0.17630363414 -0.8460417095 0.53310983315 0.0027076897477 -0.85061502053 0.52418199731 -0.041077007425 
-0.84990331652 0.52578178219 -0.034897995313 -0.84474828537 0.53516376538 -0.00028035713735 -0.83397711312 0.54882274964 0.05723429271 
-0.81799437814 0.55934799239 0.13422004593 -0.8042571507 0.55479513036 0.21300891737 -0.80115766304 0.5389536968 0.26014478979 
-0.80306077921 0.52644260194 0.27919808694 -0.80861931279 0.50699475905 0.29848135834 -0.82356652336 0.46291061769 0.3277986297 
-0.85499552011 0.37127387284 0.36213032453 -0.90078569508 0.22039219788 0.37418232274 -0.93909771957 0.051950300752 0.33970080858 
-0.95611221932 -0.079554514888 0.28199379997 -0.95846974554 -0.164208241 0.23317675801 -0.95544770014 -0.21255417022 0.20479359613 
-0.95334027811 -0.22823623937 0.1976120775 -0.95702144775 -0.20829408283 0.20180070267 -0.96538141412 -0.16945024624 0.19830617571 
-0.97171035895 -0.14250948301 0.18833487611 -0.97286107061 -0.1380293741 0.18571275986 -0.96727144408 -0.15679599432 0.1995018036 
-0.94959598549 -0.20323351786 0.23867048741 -0.90433360803 -0.28616248218 0.31668874181 -0.7986905063 -0.40579683537 0.44432240946 
-0.60959362332 -0.5222737943 0.59634360749 -0.40282700157 -0.57967606116 0.70831212818 -0.26502860486 -0.58929312031 0.76321258962 
-0.19806465244 -0.58555699197 0.7860619585 -0.17861544 -0.58289495615 0.79267269077 -0.19257028596 -0.58559394952 0.78739850854 
-0.23335834993 -0.59501842747 0.76908838991 -0.29621363306 -0.61046455811 0.73456824521 -0.37336783223 -0.62806071115 0.68274168246 
-0.45298034869 -0.6416827759 0.6189119637 -0.52480405467 -0.64719503915 0.55291887786 -0.58163893147 -0.64483326416 0.49586915092 
-0.62272994226 -0.63793321899 0.45304373643 -0.64608344248 -0.63136898344 0.42889321759 -0.65549244375 -0.62785806464 0.41967118897 
-0.65549244375 -0.62785806464 0.41967118897 
FrenetTangent 3 64 double
-0.84759107879 0.52731968141 -0.059357533217 -0.84759107879 0.52731968141 -0.059357533217 -0.90548892855 0.39396870067 0.15772908152 
-0.91414942989 0.19353987008 0.3561925582 -0.88273698684 -0.010026234315 0.46976045672 -0.85580906885 -0.14786616742 0.49570801305 
-0.8389882464 -0.22954133162 0.49336548266 -0.82404660992 -0.27489991618 0.49535565078 -0.80652397988 -0.30068652646 0.50902522795 
-0.78769809899 -0.31863377781 0.52726105536 -0.77154275347 -0.3413351672 0.5368538751 -0.76544962398 -0.38916230071 0.51248373326 
-0.77652067412 -0.51174965158 0.36759752007 -0.71787265145 -0.69567683489 -0.026317250966 -0.46783403713 -0.74058879172 -0.48234796079 
-0.22099291183 -0.68445458377 -0.69475467302 -0.062956317839 -0.66181021223 -0.74702325601 0.067915961949 -0.67013636223 -0.73912426434 
0.20314412725 -0.70127745627 -0.6833318322 0.37531966782 -0.77055585049 -0.51514932614 0.5736495034 -0.8177736934 0.046609372874 
0.41600328523 -0.36527716253 0.83277479622 0.15269605315 0.068752361664 0.98587881006 0.1017995607 0.19895213183 0.9747075965 
0.11078203957 0.24908603414 0.9621244656 0.14224891706 0.25892173581 0.95536630688 0.17925800947 0.22731806883 0.95717974364 
0.2014773983 0.13268303012 0.97046487391 0.17150553959 -0.056764091682 0.98354648481 0.062182300757 -0.31799836256 0.9460498945 
-0.083218607865 -0.54699279482 0.83299072367 -0.19890288188 -0.69591315753 0.69003081145 -0.27170961884 -0.80135886214 0.53291449323 
-0.30577566557 -0.8915742037 0.33406089512 -0.2895695914 -0.95411835429 0.07620772763 -0.21749120205 -0.95622439119 -0.19578685022 
-0.11766193539 -0.90935312628 -0.39903954777 -0.024131549864 -0.86602779047 -0.4994131901 0.053859917201 -0.86111379555 -0.50555132325 
0.12129409976 -0.90248641171 -0.41328684716 0.1777223717 -0.96304887397 -0.20236507835 0.20959114229 -0.97384958858 0.087684273918 
0.21516858476 -0.91584060599 0.33902575794 0.21641414387 -0.84259476651 0.49315208382 0.23339393333 -0.78360340304 0.57575426931 
0.27937698373 -0.73395950462 0.61907345811 0.36941602496 -0.67683794902 0.63672772146 0.51690633788 -0.58543627861 0.62455760466 
0.70256973581 -0.43280493472 0.56486782065 0.85429362027 -0.2370993912 0.46256490254 0.92703772114 -0.064681656626 0.36934719015 
0.9451103296 0.052740942436 0.32246683222 0.93894982164 0.12849274455 0.31915959494 0.92047146926 0.17804214371 0.34789836065 
0.89268728223 0.20628880857 0.40069233037 0.85685964425 0.2105371691 0.4706013711 0.81560877619 0.18601668005 0.54788695818 
0.77333865847 0.13231698367 0.62003188237 0.73517442296 0.056384405885 0.67552895319 0.70551250209 -0.029196883052 0.70809579255 
0.68768626477 -0.11583252197 0.71670804942 0.68223358568 -0.19104298239 0.70573359949 0.69027039681 -0.25831845528 0.67586859296 
0.69027039681 -0.25831845528 0.67586859296 
FrenetNormal 3 64 double
-0.30614317666 -0.39455865013 0.86637164484 -0.30614317666 -0.39455865013 0.86637164484 -0.12718232926 -0.60652544981 0.78482579841 
0.068084389917 -0.79288548906 0.6055552139 0.16788973749 -0.94050247397 0.29541180155 0.17483150174 -0.98456466054 0.0081470980443 
0.22110876626 -0.9722564186 -0.076343761889 0.43263272573 -0.8698715739 0.23696491205 0.57721798468 -0.58665262798 0.56803000998 
0.60776036722 -0.54194106829 0.58045431736 0.4268014038 -0.90350730663 0.038924395759 -0.0024343969267 -0.79464874286 -0.60706461697 
-0.019742859887 -0.56335549896 -0.82597869299 0.2891355477 -0.26354600395 -0.92029568013 0.63862458497 0.094012874709 -0.76375403034 
0.87109308878 0.18182966078 -0.456217936 0.99418264155 0.023956120151 -0.10500942601 0.9629414182 -0.14979055247 0.22429136296 
0.83646435225 -0.2384801508 0.4934111927 0.5758339983 -0.24167644749 0.78102989772 0.12242709026 0.14186562142 0.98228598332 
-0.42597609091 0.73081259939 0.53334539892 -0.44456023056 0.89572617205 0.0063895306385 -0.095748620631 0.97720835572 -0.18946247957 
0.64687103694 0.71688054659 -0.26007718757 0.972959551 -0.21401895518 -0.086865407022 0.5467690245 -0.83185846443 0.095158441565 
0.055251215014 -0.99074467497 0.12398504853 -0.27431335588 -0.96160981393 -0.0076647597642 -0.46241229551 -0.84919120361 -0.25504738515 
-0.52129054968 -0.6885080093 -0.50419528354 -0.4434637357 -0.56397643909 -0.69661358821 -0.26772259025 -0.46894888221 -0.84167188413 
-0.051957496734 -0.33471756339 -0.94088499366 0.16067379529 -0.12694351875 -0.97881013202 0.34899759286 0.11114296829 -0.93050949526 
0.53150375974 0.28176389401 -0.79881966765 0.82693596153 0.26343097717 -0.49677060681 0.85905693166 -0.21813527882 0.46307471137 
0.36696346522 -0.34609352337 0.86345647735 0.16656525233 -0.17323329852 0.97069369062 0.051099450068 0.10046265956 0.99362774732 
-0.0090399384134 0.34527448613 0.93845820831 0.047754404678 0.51365389854 0.85666749054 0.34657659585 0.62025722964 0.70368006387 
0.74730014767 0.5710466995 0.33977662704 0.86292142999 0.50410950297 0.035216681795 0.8169962793 0.55521372863 -0.15573951056 
0.67008527999 0.66957016585 -0.32040834968 0.45175150821 0.77884844119 -0.43510421795 0.23228708102 0.87230480906 -0.4302639098 
0.023794635488 0.97315822473 -0.22890365868 -0.2114091752 0.94733123392 0.24056120612 -0.37851353535 0.6276925007 0.68024233044 
-0.44303398093 0.23863904532 0.86415987976 -0.45880729526 -0.10491151967 0.88232048534 -0.44231992752 -0.4099952414 0.79765718436 
-0.40254557285 -0.65307319125 0.64144560849 -0.34136650233 -0.83016009401 0.44079828652 -0.2629409701 -0.93862040386 0.2232796088 
-0.12711409286 -0.9911514511 -0.038220523036 0.0061728300854 -0.96371906523 -0.26684725872 0.1952321451 -0.83295783423 -0.51775057306 
0.1952321451 -0.83295783423 -0.51775057306 
FrenetBinormal 3 64 double
0.43343479156 0.75250078087 0.4958597143 0.43343479156 0.75250078087 0.4958597143 0.40486350217 0.69059071933 0.5993079367 
0.39961898813 0.57781910658 0.71163877382 0.43884900378 0.33963888334 0.83189962183 0.48685191144 0.093637736739 0.86845102947 
0.49720180599 0.045035914274 0.86646530833 0.36575416513 0.40957719785 0.83574542158 0.12782201706 0.75194834057 0.64671108315 
0.10079206762 0.77767113496 0.62053893106 0.47176513361 0.25916182301 0.84277684366 0.64349121739 -0.46592497162 0.60731620591 
0.62978239269 -0.64864695783 0.42735379015 0.63329257959 -0.66826435278 0.39033737131 0.61097459291 -0.66534939766 0.42897578703 
0.43858746402 -0.70601692417 0.55604059131 0.087392089393 -0.74928856076 0.65645203589 -0.26101962995 -0.726966331 0.63512888957 
-0.5089792245 -0.67181630451 0.53814775111 -0.72632661616 -0.58977637797 0.35300633231 -0.8098999042 -0.55778161663 0.18149879705 
-0.8034212075 -0.57661559041 0.14842110444 -0.88263815732 -0.43925816722 0.16733841693 -0.9901863719 -0.074039710695 0.11852877352 
-0.75450990801 0.65118233201 -0.08170905211 0.18197515684 0.94188928306 -0.28236434043 0.8178693049 0.50629832188 -0.27340777123 
0.977933618 0.028639178405 -0.20694355812 0.94622303538 -0.26848538816 -0.18049255849 0.88448189944 -0.42160567017 -0.19985101562 
0.8493119722 -0.47618862181 -0.22784549665 0.87394368165 -0.44456209164 -0.19643570951 0.92439087928 -0.37136359534 -0.087123948254 
0.95068483783 -0.30505670303 0.056024521946 0.94357478943 -0.27118906516 0.1900608 0.91153620729 -0.27070676808 0.30954739299 
0.83884409895 -0.30608168804 0.45017172046 0.56177805566 -0.42497057122 0.70979252586 -0.50903860118 -0.45923853416 0.72799702695 
-0.92229363901 -0.25639334967 0.2892004386 -0.96988183575 -0.20622097523 0.12962304603 -0.97645296829 -0.20377495639 0.070819262 
-0.97653507855 -0.20499149651 0.06601307986 -0.9751330346 -0.16184477737 0.15139958016 -0.90852184074 0.035308296793 0.41634287442 
-0.60290213986 0.36770791746 0.70802535066 -0.34481648187 0.53643638931 0.77028409957 -0.25558739693 0.59076397929 0.7652927566 
-0.23954432549 0.60361882135 0.76043595039 -0.25710500811 0.58067114991 0.77247526204 -0.29435314771 0.48466545512 0.82368417555 
-0.32588384467 0.22401219303 0.91848693902 -0.27143948328 -0.2933481683 0.91666103826 -0.097261389236 -0.75782789579 0.64516439962 
0.082645676822 -0.94894485272 0.30442299288 0.23513276223 -0.97194015941 0.0067015416817 0.37300858693 -0.89291751958 -0.25211683264 
0.4898003482 -0.74564577562 -0.45178312961 0.58565132879 -0.55466658191 -0.59106472065 0.65811409014 -0.34371395008 -0.66988548639 
0.71479340277 -0.064819964825 -0.69632518518 0.73110822095 0.18640853574 -0.65630223759 0.69671456767 0.48933916872 -0.52453406862 
0.69671456767 0.48933916872 -0.52453406862 
