# vtk DataFile Version 4.2
vtk output
ASCII
DATASET POLYDATA
POINTS 64 float
0 0 0 -1.01193 0.25665 0.0830482 -1.97175 0.378641 0.18139 
-2.99101 0.357558 0.284926 -3.97336 0.122387 0.352018 -4.87594 -0.338799 0.341191 
-5.66868 -0.964413 0.246788 -6.3912 -1.66244 0.105029 -7.10333 -2.36771 -0.0527476 
-7.8388 -3.04449 -0.227083 -8.59838 -3.67802 -0.452702 -9.35282 -4.26376 -0.793878 
-10.0199 -4.80061 -1.33605 -10.4418 -5.28145 -2.12036 -10.5085 -5.7035 -3.03865 
-10.2793 -6.09871 -3.94368 -9.85608 -6.51386 -4.76644 -9.30608 -6.99416 -5.47012 
-8.67542 -7.58988 -5.99481 -8.03464 -8.36591 -6.12732 -7.71785 -9.06664 -5.51149 
-7.79349 -9.39289 -4.55232 -8.00956 -9.53103 -3.57078 -8.27463 -9.60491 -2.5943 
-8.5497 -9.68584 -1.62105 -8.80735 -9.82927 -0.650373 -9.02037 -10.0785 0.309508 
-9.16305 -10.4539 1.24088 -9.22069 -10.9486 2.12444 -9.19335 -11.5421 2.94662 
-9.08921 -12.2145 3.69888 -8.91562 -12.9508 4.37472 -8.67619 -13.7373 4.96896 
-8.3692 -14.5581 5.48005 -7.98706 -15.3928 5.91166 -7.51732 -16.2157 6.27381 
-6.94601 -16.9953 6.58181 -6.26538 -17.6963 6.85393 -5.48137 -18.2874 7.1082 
-4.61407 -18.7502 7.35799 -3.68998 -19.084 7.61006 -2.73296 -19.302 7.86631 
-1.76004 -19.4218 8.12761 -0.78268 -19.4573 8.39733 0.189793 -19.4156 8.68335 
1.14718 -19.2996 8.99824 2.07772 -19.1143 9.35737 2.97165 -18.8762 9.77381 
3.82621 -18.6164 10.2549 4.64678 -18.3768 10.8013 5.44218 -18.2069 11.4075 
6.21568 -18.1615 12.062 6.95267 -18.3025 12.7439 7.60388 -18.6893 13.4171 
8.08048 -19.3369 14.033 8.30942 -20.176 14.5527 8.30822 -21.0962 14.9784 
8.16923 -22.0295 15.3511 7.99377 -22.9581 15.7205 7.87502 -23.8773 16.1327 
7.91141 -24.76 16.6284 8.20015 -25.5326 17.2311 8.6907 -26.0927 17.8584 
9.38994 -26.471 18.5393 
LINES 1 65
64 0 1 2 3 4 5 6 7 8 9 10 11 12 13 14 15 16 17 18 19 20 21 22 23 24 25 26 27 28 29 30 31 32 33 34 35 36 37 38 39 40 41 42 43 44 45 46 47 48 49 50 51 52 53 54 55 56 57 58 59 60 61 62 63 

CELL_DATA 1
FIELD FieldData 2
Length 1 1 double
63.865914871 
Tortuosity 1 1 double
0.8977223575 
POINT_DATA 64
SCALARS MaximumInscribedSphereRadius float
LOOKUP_TABLE default
1.23 1.04139 0.911999 1.05349 1.12366 0.941822 1.36864 1.95309 2.51999 
2.13922 1.75479 1.70048 1.92013 2.13794 1.86543 1.87482 2.02857 2.04818 
1.94442 1.95175 2.32576 2.1481 2.52058 2.91861 3.18051 2.97612 2.57105 
2.71762 2.85816 2.87 2.48961 2.17341 2.30675 2.54973 2.79325 2.89111 
2.87455 2.87 2.88474 2.94297 2.82694 2.52568 2.43084 2.36887 2.19369 
2.15216 2.35144 2.84436 3.47114 3.69 3.62366 3.16659 2.76681 2.65551 
3.2285 3.57392 3.31566 3.07006 3.01962 3.43507 3.55661 3.34066 3.28 
3.28 
TEXTURE_COORDINATES TCoords 2 float
0 0 0.015873 0 0.031746 0 0.047619 0 0.0634921 
0 0.0793651 0 0.0952381 0 0.111111 0 0.126984 0 
0.142857 0 0.15873 0 0.174603 0 0.190476 0 0.206349 
0 0.222222 0 0.238095 0 0.253968 0 0.269841 0 
0.285714 0 0.301587 0 0.31746 0 0.333333 0 0.349206 
0 0.365079 0 0.380952 0 0.396825 0 0.412698 0 
0.428571 0 0.444444 0 0.460317 0 0.47619 0 0.492063 
0 0.507937 0 0.52381 0 0.539683 0 0.555556 0 
0.571429 0 0.587302 0 0.603175 0 0.619048 0 0.634921 
0 0.650794 0 0.666667 0 0.68254 0 0.698413 0 
0.714286 0 0.730159 0 0.746032 0 0.761905 0 0.777778 
0 0.793651 0 0.809524 0 0.825397 0 0.84127 0 
0.857143 0 0.873016 0 0.888889 0 0.904762 0 0.920635 
0 0.936508 0 0.952381 0 0.968254 0 0.984127 0 
1 0 
FIELD FieldData 7
Curvature 1 64 double
0 0.12260487007 0.14720377914 0.21450910954 0.24946389389 0.21117490581 0.10861298597 0.019838770353 0.039243860585 
0.069344791919 0.12209793358 0.2211604841 0.35076751562 0.38874122143 0.29601675389 0.20816461824 0.18213829374 0.22433643893 
0.43943341017 0.9827355653 0.71384542213 0.23191503599 0.078796005145 0.012293922034 0.063150292995 0.11244467304 0.14387572445 
0.15067583901 0.14072121233 0.12729204497 0.11844247513 0.11334061701 0.10964978828 0.10746085371 0.10958540532 0.11995222743 
0.13607384073 0.14852736923 0.14960213557 0.13767947098 0.11748307402 0.097020348086 0.082572321284 0.076923509765 0.078948841456 
0.084188679874 0.083802458489 0.076622678029 0.07428199192 0.092730000333 0.13211716257 0.18829552991 0.25778004639 0.31874611686 
0.32770087959 0.25885084749 0.14485829962 0.035876980109 0.069717834783 0.17648264578 0.29145839414 0.29796352674 0.27191254441 
0 
Torsion 1 64 double
0 0 -0.17293632889 -0.12736688035 -0.09585586288 -0.06453846468 -0.092804991615 -2.1929622251 0.09794782882 
0.50941449773 0.43037055423 0.28331502849 0.19089335154 0.18026328794 0.25260635471 0.37415556155 0.41056325508 0.29050560381 
0.064532665371 -0.0023050014724 -0.016647840464 -0.021560942274 0.14775601269 5.5287343038 0.18334675628 0.075579805847 0.061016512729 
0.046549508412 0.020376899157 -0.00098950421134 0.0056218867108 0.046578216198 0.11838260919 0.20567852471 0.27167528022 0.26681765458 
0.20969164865 0.14986498381 0.10194486219 0.06683944153 0.048414383965 0.058189728361 0.10515640221 0.16582872712 0.20201092061 
0.22296145229 0.28955903398 0.44431469585 0.58557760077 0.43268307725 0.21784696501 0.076202837733 -0.022474025455 -0.076504516065 
-0.092946134634 -0.096636538108 -0.13386392654 -1.2060932623 -0.2794491314 -0.024841059136 0.0062313509373 0.017578178497 0 
0 
Abscissas 1 64 double
0 1.0472712151 2.0197889104 3.0445147693 4.0568499361 5.0704827122 6.0847537359 7.0993398015 8.1139416538 
9.128503812 10.143016455 11.157251993 12.170734224 13.182832216 14.195660404 15.209454604 16.22356177 17.237642952 
18.251496951 19.266575613 20.251784738 21.267739533 22.282229574 23.296742754 24.311353037 25.325828696 26.340168452 
27.354419806 28.368697325 29.38304148 30.397425669 31.411830229 32.426248267 33.44067971 34.455112466 35.469529148 
36.483891579 37.498177824 38.512433067 39.526711843 40.541069086 41.555510033 42.570002725 43.584517512 44.599034825 
45.613540821 46.628032072 47.642535225 48.65706163 49.671573422 50.685994652 51.700247907 52.714175134 53.727528568 
54.740393202 55.753567432 56.767551223 57.782065203 58.796696174 59.811103182 60.824022068 61.84561386 62.819184872 
63.865934008 
ParallelTransportNormals 3 64 double
0.081793765926 0 0.99664927625 0.1014556087 -0.0037296801617 0.99483307592 0.10113478966 -0.0037127027641 0.9948658051 
0.069976248274 -0.0077224439966 0.99751876601 0.004343686809 -0.031963680776 0.99947959234 -0.060510138026 -0.073536050309 0.99545515846 
-0.094521633199 -0.1032459282 0.99015450267 -0.10573915883 -0.11421833193 0.98781243308 -0.11779785985 -0.1257309554 0.98504588272 
-0.15642030008 -0.15958062222 0.97471365782 -0.24584219512 -0.23159369303 0.94123640837 -0.40129434169 -0.35435664215 0.84462667581 
-0.57796264589 -0.51948032352 0.62936426132 -0.65709677189 -0.66569443963 0.35365908077 -0.64033956926 -0.75006581262 0.1654282708 
-0.60963607606 -0.78820687833 0.084105717513 -0.60204624102 -0.79519005081 0.072201847435 -0.63469244733 -0.76543729442 0.10616612272 
-0.74671010628 -0.64459202995 0.16408879337 -0.9303538938 -0.36015524534 0.068773770733 -0.96475513904 -0.2164197692 -0.14969971675 
-0.95162761786 -0.19553511453 -0.23700399979 -0.94337257095 -0.19189728599 -0.27059864006 -0.94031261445 -0.19102028934 -0.28164416587 
-0.94127610297 -0.19142607114 -0.27812831079 -0.94557593776 -0.19501366261 -0.26049149184 -0.95157153651 -0.20554249295 -0.22861297972 
-0.95602342742 -0.22487945589 -0.18827755188 -0.95672616849 -0.25011751135 -0.14871539609 -0.95394860955 -0.27686221788 -0.11545285897 
-0.94856178895 -0.3041874406 -0.087752683892 -0.94050533497 -0.33389140634 -0.062978120512 -0.92802251814 -0.37060877145 -0.037727236158 
-0.9073473544 -0.42027559916 -0.0094445334742 -0.87256320769 -0.48796106256 0.022966279831 -0.81617833141 -0.57475294965 0.059261945646 
-0.73275527974 -0.67341049936 0.097918330103 -0.62427185272 -0.76911703745 0.1369074016 -0.50214236808 -0.84706079 0.17418685433 
-0.38197980991 -0.90049412237 0.20785033171 -0.27562519013 -0.9316952633 0.23658971007 -0.18657767448 -0.94728262304 0.26046958262 
-0.11206977513 -0.95321351805 0.28075675328 -0.047184925842 -0.95300730366 0.29925016614 0.010611586906 -0.94828373846 0.31724650603 
0.058266305453 -0.94067807472 0.33426007448 0.087293803078 -0.93394249566 0.34659949041 0.088383106927 -0.93363230401 0.34715867744 
0.056989845059 -0.94299089348 0.32790293132 -0.0089622987159 -0.95970594164 0.28086328131 -0.1111012399 -0.97372483785 0.19878746097 
-0.25262695962 -0.96476257771 0.073571651616 -0.43001631614 -0.89731105287 -0.099593384534 -0.60740390702 -0.73460209672 -0.30235782318 
-0.72042987298 -0.49645536987 -0.48426528251 -0.74878456133 -0.27749820072 -0.60192726247 -0.73928559924 -0.15187418916 -0.65604194486 
-0.73494209444 -0.12615618124 -0.66629177974 -0.7451628705 -0.19035192571 -0.6391388275 -0.7522639502 -0.34592129858 -0.56074718405 
-0.706404283 -0.58023604683 -0.40536294714 -0.59260402126 -0.77291405455 -0.22676935037 -0.43502759229 -0.89887539431 -0.052668960911 
-0.43502759229 -0.89887539431 -0.052668960911 
FrenetTangent 3 64 double
-0.97807304769 0.18782227059 0.089977264131 -0.97807304769 0.18782227059 0.089977264131 -0.99356028925 0.050658990405 0.10134899268 
-0.98837736302 -0.12653596726 0.084254597868 -0.93766704379 -0.34640599752 0.027989281242 -0.84071937119 -0.53895060028 -0.05218418688 
-0.74798609918 -0.65339603888 -0.11657792164 -0.7070428947 -0.69159119006 -0.14762103809 -0.71353584181 -0.68122575181 -0.16370118363 
-0.7372699228 -0.64616708422 -0.19723377045 -0.74770919961 -0.60214470238 -0.27991554122 -0.7053816308 -0.5570475835 -0.43833177463 
-0.54577919431 -0.51004978003 -0.66481147173 -0.24575456446 -0.45413297823 -0.85636903968 0.081059750904 -0.40767235703 -0.90952326309 
0.32348824693 -0.40179954287 -0.85668692149 0.48187429866 -0.44336784408 -0.75579237567 0.58590346592 -0.53397555332 -0.60957955763 
0.64134281938 -0.69194137211 -0.33150644881 0.52463795716 -0.80909450695 0.26480387598 0.12721289617 -0.54175801608 0.83085205124 
-0.14464641145 -0.23027133484 0.96231623077 -0.23732031882 -0.1045780244 0.96578595097 -0.26619956443 -0.076295645829 0.96089373311 
-0.2626764276 -0.11062874139 0.95852093142 -0.23236884573 -0.19385563747 0.95311316818 -0.17580640907 -0.30872672211 0.93476195771 
-0.09903769691 -0.430174707 0.89729663771 -0.014973953971 -0.53777476766 0.84295556227 0.064944122134 -0.62528649432 0.77768828011 
0.13714367973 -0.6956191569 0.70519897877 0.20391084151 -0.75181817371 0.62704848488 0.26973458908 -0.79342680557 0.54563463569 
0.34016027067 -0.81716833977 0.46532450477 0.42053939077 -0.81829200539 0.39184794847 0.51408201442 -0.7913322533 0.33092740494 
0.61858567411 -0.73156699744 0.2866382599 0.72406065687 -0.63876308185 0.26022661364 0.81636000621 -0.52101763805 0.24919261846 
0.88518886795 -0.39362828727 0.24798677289 0.92885007069 -0.27246640126 0.25099722384 0.95235903753 -0.16669317092 0.25539312913 
0.96203815481 -0.076606774245 0.26194272433 0.96169588576 0.0030583513907 0.27410156839 0.95189246584 0.077784425684 0.29639554078 
0.93131889412 0.14863203926 0.3324960667 0.90000295075 0.20886178246 0.38258521203 0.86239507273 0.24557560595 0.44268200809 
0.82616061104 0.24629963301 0.50674957874 0.7973382063 0.20205205888 0.56870620735 0.7750924113 0.10636565714 0.6228307161 
0.74810799738 -0.047348359306 0.66188560729 0.69048720805 -0.26252624078 0.67402328478 0.5636428949 -0.51696029125 0.64425052914 
0.35287348379 -0.74356840063 0.56796684588 0.11329402789 -0.87519960343 0.47030853426 -0.069297467736 -0.91621020999 0.39466024892 
-0.1549887203 -0.91770853596 0.3657725244 -0.14509104867 -0.91125053406 0.38544915587 -0.040784836691 -0.89230201119 0.4495928357 
0.16151407918 -0.82230086956 0.54565051283 0.39479714975 -0.67516057412 0.62313193603 0.59433202012 -0.46875582003 0.65348101047 
0.59433202012 -0.46875582003 0.65348101047 
FrenetNormal 3 64 double
-0.16986840891 -0.96942196298 0.17710387165 -0.16986840891 -0.96942196298 0.17710387165 -0.050997844873 -0.99869847897 -0.00075360235318 
0.11182270098 -0.98061001596 -0.16093377568 0.32140867349 -0.89499593513 -0.30931980329 0.51414182499 -0.76433928999 -0.38915759478 
0.63225354048 -0.64801711823 -0.42465194575 0.50977010167 -0.35376936643 -0.78420767583 -0.57876222692 0.70479515476 -0.41024148318 
-0.3387936425 0.60619239467 -0.71954822524 0.03943530351 0.3805319035 -0.9239265811 0.38668608062 0.21585922571 -0.89659281156 
0.70009806349 0.15838185673 -0.69625992916 0.92510921443 0.15391956577 -0.3471047517 0.99465854609 0.091593113499 0.047592838214 
0.91610822133 -0.093637254648 0.38984329076 0.68264228837 -0.35081845147 0.64103503823 0.35473825565 -0.50731927868 0.78535846558 
0.021590496807 -0.41562152201 0.90928136509 -0.37495029969 0.059650891364 0.92512379924 -0.61851955432 0.61151421215 0.49344090757 
-0.59643837313 0.79629261456 0.10089271057 -0.60511219646 0.79366323273 -0.062752710788 -0.78825578278 -0.55651994263 -0.26256118214 
0.26775316505 -0.96274809216 -0.037740610192 0.38666902297 -0.91758207971 -0.092359047578 0.47764425576 -0.85704161723 -0.19322430303 
0.55180960235 -0.77412522757 -0.31021975242 0.58994300658 -0.68542738006 -0.42679802677 0.58884397494 -0.60517186416 -0.53575161036 
0.57181590816 -0.52572841028 -0.62979060472 0.5663741028 -0.43184180707 -0.70194944928 0.60041272671 -0.30441970474 -0.73948171104 
0.68174155922 -0.12653040228 -0.72056818119 0.77936786803 0.10471719176 -0.61775402551 0.82579155826 0.35229522523 -0.4404047872 
0.78526393326 0.56322946325 -0.25716361881 0.68038547999 0.72337422417 -0.11749608686 0.54410424947 0.83850475978 -0.029331442831 
0.40250342232 0.91527725264 0.016079359927 0.27270942304 0.96147701614 0.034518372285 0.15902473879 0.98598015379 0.050539774362 
0.052120742541 0.99370251804 0.099190391907 -0.061867363847 0.97655888194 0.20616784279 -0.18568057593 0.91586464398 0.35597005159 
-0.31047623014 0.8012533748 0.51146606916 -0.42527207151 0.61324961467 0.66563396495 -0.49993398124 0.27559235102 0.82104498687 
-0.44563167367 -0.26471798959 0.85518231823 -0.26312915072 -0.73164552478 0.62885441567 -0.16105991527 -0.91990732053 0.35753353037 
-0.18887730795 -0.97138627666 0.14399327785 -0.32781252284 -0.94420275816 -0.031939025644 -0.54639332047 -0.81827108968 -0.17856865106 
-0.75658357899 -0.58389459168 -0.29436099235 -0.88041064453 -0.30781553258 -0.36073077898 -0.9293970869 -0.084468469598 -0.35928558627 
-0.98727898103 0.13058496175 -0.090707118678 0.7907032357 0.12738837113 0.59879929522 0.86196351279 0.19614881414 0.46748748147 
0.84996905228 0.39686389935 0.34648471186 0.76169931433 0.61977316636 0.1889322016 0.60574353955 0.79541717148 0.019654200722 
0.60574353955 0.79541717148 0.019654200722 
FrenetBinormal 3 64 double
0.12048998732 0.15793622881 0.98007056408 0.12048998732 0.15793622881 0.98007056408 0.1011789081 -0.0059173295785 0.99485064898 
0.10298481353 -0.14964172412 0.98336233535 0.13220052795 -0.28104298778 0.95054608485 0.16985029496 -0.35400240146 0.91969189246 
0.20192141043 -0.39134055611 0.89781975538 0.49012731866 -0.62972125676 0.60268262816 0.39484286385 -0.19797794046 -0.89716433721 
0.58450999027 -0.46367971696 -0.66584472015 0.66285428991 -0.70186695878 -0.26078144589 0.59406281653 -0.80193689552 0.063139414123 
0.46042129898 -0.84543740711 0.27064334113 0.28944366537 -0.87753746664 0.38229616689 0.063903782933 -0.90852295011 0.41291930889 
-0.23685666744 -0.91092765459 0.3378013132 -0.54936023375 -0.82483414633 0.13361124441 -0.72861368268 -0.67638543593 -0.10781856737 
-0.7669506102 -0.59031846321 -0.25161652073 -0.76430837146 -0.58464335281 -0.27207510607 -0.77540340467 -0.57667028738 -0.25729543268 
-0.78951800658 -0.55936855859 -0.25252352949 -0.75994624545 -0.59930135143 -0.25163384947 0.55478880019 -0.82732371408 0.088004882298 
0.92698939422 0.24673344449 0.28251242518 0.8924638851 0.34707797224 0.28817545866 0.86078340567 0.41251360874 0.29813495456 
0.82806865497 0.46441345103 0.31404211367 0.80730603224 0.49090488482 0.32752002134 0.80563331248 0.49273097614 0.32889382933 
0.80883754752 0.48961579547 0.32566577122 0.79852410382 0.49827912594 0.33775311733 0.75282654646 0.52706977486 0.39427102781 
0.64770320108 0.56233972097 0.51405700221 0.46446996361 0.56518360173 0.68178819969 0.23192236796 0.49968123756 0.83458413361 
0.026689303193 0.3841644179 0.92287885506 -0.1131890622 0.26212870326 0.95837194196 -0.19366699762 0.15953177949 0.96800966181 
-0.23330594309 0.085582254369 0.96862996787 -0.25073315851 0.036386915559 0.96737214949 -0.26023719199 -0.00751818522 0.96551544824 
-0.26789180071 -0.08177229231 0.95997253884 -0.26704578745 -0.21522870765 0.9393418711 -0.24376927041 -0.39388010489 0.8862477113 
-0.19039335068 -0.57957013923 0.79236912215 -0.095594737471 -0.76177533823 0.64074954564 0.079628844796 -0.92937692989 0.36044107598 
0.34477682085 -0.93234160948 -0.10894065835 0.54315268095 -0.65105283316 -0.53020314372 0.6109758241 -0.37743458854 -0.69588193951 
0.63612875018 -0.2327376944 -0.73564487275 0.64479947689 -0.19889978479 -0.73801931561 0.61948448437 -0.25136523441 -0.74367633589 
0.55051030185 -0.32584220014 -0.76861256051 0.46047970666 -0.37319599684 -0.80540870848 0.36251746968 -0.39169366699 -0.84566964911 
0.035478305974 -0.37517810543 -0.92627354438 -0.59475791769 0.39165631243 0.70204583346 -0.50532712149 0.40659902057 0.76113187869 
-0.50146367006 0.40782389008 0.76302939806 -0.51376002675 0.40004927372 0.75895402595 -0.52900303795 0.38416077949 0.75668770397 
-0.52900303795 0.38416077949 0.75668770397 
