# vtk DataFile Version 4.2
vtk output
ASCII
DATASET POLYDATA
POINTS 64 float
0 0 0 -0.620457 0.700852 0.46701 -1.32871 1.1861 0.926817 
-2.16019 1.54045 1.40911 -3.04871 1.7166 1.86186 -3.97688 1.73325 2.27056 
-4.92212 1.59444 2.61101 -5.86272 1.30402 2.85467 -6.77255 0.870643 2.96706 
-7.6205 0.317279 2.91385 -8.37694 -0.314295 2.67517 -9.02467 -0.974528 2.25936 
-9.54764 -1.63576 1.6957 -9.91717 -2.3016 1.02595 -10.1132 -2.97826 0.296429 
-10.1364 -3.6608 -0.453412 -10.0069 -4.33824 -1.19718 -9.75457 -5.0026 -1.9211 
-9.40851 -5.65247 -2.61906 -8.99247 -6.29221 -3.28759 -8.52418 -6.93094 -3.92173 
-8.01697 -7.58273 -4.51063 -7.48084 -8.27352 -5.02597 -6.93266 -9.05212 -5.37893 
-6.51844 -9.92562 -5.19361 -6.53238 -10.4785 -4.3372 -6.75117 -10.7402 -3.38259 
-7.02458 -10.9202 -2.42225 -7.3155 -11.0843 -1.4642 -7.60254 -11.2772 -0.510381 
-7.8674 -11.5385 0.433404 -8.0912 -11.9047 1.35252 -8.25497 -12.4 2.2223 
-8.34665 -13.0222 3.01796 -8.36622 -13.7417 3.73277 -8.32026 -14.521 4.38063 
-8.21286 -15.3304 4.98284 -8.04154 -16.1477 5.55897 -7.79622 -16.9552 6.12206 
-7.46036 -17.7352 6.67689 -7.01676 -18.4687 7.21931 -6.4547 -19.1344 7.73869 
-5.77608 -19.7118 8.22333 -4.9989 -20.1881 8.66825 -4.14908 -20.56 9.07881 
-3.25229 -20.83 9.46866 -2.33083 -21.0046 9.85546 -1.40394 -21.0941 10.2581 
-0.487973 -21.1158 10.6938 0.404986 -21.0949 11.1749 1.26751 -21.063 11.7082 
2.09497 -21.0544 12.2951 2.88473 -21.1028 12.93 3.63575 -21.2364 13.5988 
4.3477 -21.4738 14.2813 5.01999 -21.822 14.9564 5.65048 -22.2777 15.6075 
6.23403 -22.8319 16.2251 6.76118 -23.4746 16.8066 7.21706 -24.1971 17.3538 
7.58073 -24.9894 17.8692 7.82083 -25.8556 18.3616 7.91703 -26.7178 18.8038 
7.81347 -27.6615 19.2434 
LINES 1 65
64 0 1 2 3 4 5 6 7 8 9 10 11 12 13 14 15 16 17 18 19 20 21 22 23 24 25 26 27 28 29 30 31 32 33 34 35 36 37 38 39 40 41 42 43 44 45 46 47 48 49 50 51 52 53 54 55 56 57 58 59 60 61 62 63 

CELL_DATA 1
FIELD FieldData 2
Length 1 1 double
63.881731365 
Tortuosity 1 1 double
0.84678852269 
POINT_DATA 64
SCALARS MaximumInscribedSphereRadius float
LOOKUP_TABLE default
1.116 1.20259 1.22058 1.07838 1.0668 1.22371 1.25878 1.16917 0.986963 
1.35439 1.56288 1.50863 1.54957 1.83791 1.71487 1.44193 1.17655 1.116 
1.18306 1.46566 1.58946 1.40055 1.36622 1.51202 1.3577 1.6287 2.04069 
2.0407 1.86029 1.68162 1.701 2.02861 2.17 2.17 2.17 2.17 
2.16773 2.03663 1.89405 1.86 1.86 1.86094 1.87167 1.87843 1.86769 
1.92224 2.02666 1.98688 1.98845 2.27351 2.40258 2.21633 2.0291 1.96288 
2.27065 2.52847 2.61595 2.56018 2.46294 2.68291 2.72786 2.33574 2.18491 
2.17 
TEXTURE_COORDINATES TCoords 2 float
0 0 0.015873 0 0.031746 0 0.047619 0 0.0634921 
0 0.0793651 0 0.0952381 0 0.111111 0 0.126984 0 
0.142857 0 0.15873 0 0.174603 0 0.190476 0 0.206349 
0 0.222222 0 0.238095 0 0.253968 0 0.269841 0 
0.285714 0 0.301587 0 0.31746 0 0.333333 0 0.349206 
0 0.365079 0 0.380952 0 0.396825 0 0.412698 0 
0.428571 0 0.444444 0 0.460317 0 0.47619 0 0.492063 
0 0.507937 0 0.52381 0 0.539683 0 0.555556 0 
0.571429 0 0.587302 0 0.603175 0 0.619048 0 0.634921 
0 0.650794 0 0.666667 0 0.68254 0 0.698413 0 
0.714286 0 0.730159 0 0.746032 0 0.761905 0 0.777778 
0 0.793651 0 0.809524 0 0.825397 0 0.84127 0 
0.857143 0 0.873016 0 0.888889 0 0.904762 0 0.920635 
0 0.936508 0 0.952381 0 0.968254 0 0.984127 0 
1 0 
FIELD FieldData 7
Curvature 1 64 double
0 0.2198670909 0.175650141 0.18381422331 0.16682605511 0.1670539883 0.17632513494 0.19290312267 0.21013992813 
0.21766411448 0.20624713673 0.18984203209 0.18298906219 0.18021492414 0.17053905065 0.14947885501 0.12204707416 0.095769863885 
0.07451865858 0.060833343897 0.059413721275 0.085768843575 0.18097657656 0.61019928342 1.0458185362 0.36950190425 0.095934967561 
0.023086984908 0.028533826946 0.070629344276 0.11242610009 0.1472717412 0.16017611614 0.14227047716 0.10832620317 0.080043862305 
0.067588254878 0.073723700747 0.092493615304 0.11506176567 0.13515955578 0.14689701086 0.14331433015 0.12858262454 0.11122416054 
0.096019431035 0.084423698696 0.074155094115 0.064553125085 0.059722928208 0.066291248526 0.081282296613 0.096955676545 0.10892208711 
0.11498078162 0.1148735237 0.11126338003 0.10816550126 0.10950708929 0.11713531322 0.14069918374 0.14461111433 0.20140253618 
0 
Torsion 1 64 double
0 0 -0.043725309398 -0.047759464039 -0.075210291562 -0.091158652256 -0.10721587307 -0.11896090153 -0.12384838432 
-0.11620931981 -0.060963428386 0.087759699146 0.19482681226 0.1604082912 0.088982541366 0.04243363378 0.031964545519 0.060856657865 
0.14170429194 0.29067872976 0.44758853928 0.36663476134 0.18980276911 0.031027225353 0.011386361418 0.023626309613 0.1174519935 
0.9752908298 0.47510033469 0.057046497142 0.019134766078 0.01626374588 0.029290239784 0.066818198385 0.14955163542 0.28676252052 
0.36585543731 0.23971120326 0.091659932305 0.022897285561 0.0082991557652 0.021555214164 0.054396885504 0.10681780878 0.17087086302 
0.23417150426 0.28991400467 0.34991996838 0.44707382738 0.53791411446 0.45986481785 0.32279020855 0.2312166482 0.16800435021 
0.11213820431 0.053689412765 -0.01228731934 -0.079427846694 -0.12626079357 -0.15206969548 -0.11144484466 -0.12195362358 0 
0 
Abscissas 1 64 double
0 1.0460681245 2.0199857316 3.0444512335 4.057112353 5.0714125682 6.0856371595 7.0997641873 8.1137819678 
9.1277124773 10.141646638 11.155726852 12.169845895 13.183977564 14.198129006 15.212352737 16.226692285 17.241141389 
18.255650234 19.270188234 20.284789921 21.299126952 22.314118179 23.329646015 24.313986295 25.333446242 26.347163111 
27.361763094 28.376371272 29.390947585 30.405435907 31.419783894 32.434013659 33.448254509 34.462640765 35.477137664 
36.491675306 37.506218355 38.520734053 39.535185072 40.549557106 41.563864137 42.578151249 43.592488094 44.606891362 
45.621349055 46.635836053 47.650349849 48.664884343 49.679437162 50.693989551 51.708520813 52.723010077 53.73745691 
54.751875779 55.766287158 56.780709883 57.795135837 58.809606327 59.82412734 60.836866729 61.861804118 62.835587598 
63.881713851 
ParallelTransportNormals 3 64 double
-0.74874603122 -0.66285698361 0 -0.60558890911 -0.78952083564 -0.099593791235 -0.47259410539 -0.86247511177 -0.18108421555 
-0.31613108881 -0.91062967507 -0.26611037103 -0.16529373639 -0.92664854168 -0.33763954288 -0.0094624351546 -0.91648632606 -0.39995409295 
0.15466629101 -0.87912875773 -0.45078926979 0.32688377239 -0.81176535183 -0.48392562746 0.49784905549 -0.71579213307 -0.48968146808 
0.64974977185 -0.60360448876 -0.46204637768 0.76693220503 -0.4957997996 -0.40742797106 0.85677022363 -0.39439213278 -0.332264397 
0.93052177053 -0.28473054524 -0.23034268206 0.97994708676 -0.16741068096 -0.10806188528 0.99847504133 -0.052530517309 0.016974586614 
0.9905612511 0.048683672154 0.12813394509 0.96731654297 0.1303740911 0.21748862514 0.93869777988 0.19323248565 0.28549550703 
0.91050192578 0.24094569707 0.3360526956 0.88497213858 0.2778538467 0.37365967647 0.8623355882 0.30780023 0.40204023646 
0.84076176459 0.33556177624 0.4248740396 0.81443005386 0.37124428611 0.44596117252 0.7637175497 0.45856602857 0.45437066556 
0.73317199923 0.56583107603 0.37721878657 0.73921377778 0.58690284441 0.33031506468 0.74147786563 0.58893500728 0.32150603724 
0.74028778353 0.58820924516 0.32555165714 0.73595717409 0.5855344179 0.33987715921 0.72865839859 0.57952731092 0.36497264838 
0.71917988946 0.56735605118 0.40110771345 0.70972472494 0.54634091804 0.4447498354 0.70333044578 0.51836666073 0.48643837132 
0.70121061322 0.49280067447 0.51521953685 0.70144257677 0.47962271326 0.52720049736 0.70109775443 0.48319499969 0.52438967477 
0.6973965458 0.50479652597 0.50874210094 0.68727204747 0.54427884895 0.48105890217 0.6665657395 0.60083808071 0.44122977653 
0.63071449569 0.67045064407 0.39076227913 0.57614529427 0.74637092849 0.33314717017 0.50248532888 0.82017413738 0.2735377097 
0.41605871161 0.88273293221 0.2183522816 0.32474055548 0.93033807716 0.1703368246 0.23415655418 0.96362585816 0.12882512808 
0.14794012109 0.98470809838 0.091998269293 0.070574655191 0.99576274673 0.058955663675 0.0089613609126 0.99948142447 0.0309285653 
-0.02954065965 0.99949840212 0.011414621389 -0.040202532529 0.99917773931 0.0052537275165 -0.022457513049 0.9996029791 0.017016000947 
0.021045680165 0.99853323325 0.049884481052 0.084260891262 0.99106736117 0.103371117 0.15894833752 0.97212611386 0.1723549963 
0.23673462383 0.93921855871 0.24864677127 0.3109523881 0.89342240973 0.32419902857 0.37809092911 0.83757365478 0.39435722656 
0.43746039512 0.77359590515 0.45845150042 0.48948686376 0.70134344173 0.51818914206 0.53378900447 0.61944700007 0.57563418315 
0.57013922624 0.51974265617 0.63624589119 0.58938395816 0.41974205959 0.690248617 0.58936860195 0.28709536197 0.75512972671 
0.58936860195 0.28709536197 0.75512972671 
FrenetTangent 3 64 double
-0.6617714105 0.59074372713 0.46160637896 -0.6617714105 0.59074372713 0.46160637896 -0.77342718135 0.42174056636 0.47322858096 
-0.84798691966 0.26154474839 0.46099081192 -0.89943627977 0.095454567521 0.42650064968 -0.92681604756 -0.060435147754 0.37062057 
-0.93342227753 -0.21245324818 0.28911324624 -0.91668991164 -0.35856388541 0.17638465344 -0.87162578748 -0.48929268507 0.029345441667 
-0.79591749775 -0.58783281757 -0.14480302261 -0.69612238293 -0.64041823078 -0.32446589601 -0.57985515765 -0.65452995843 -0.48513763992 
-0.44190872744 -0.65708093366 -0.61070559456 -0.27998982118 -0.66462644768 -0.69273182768 -0.108482201 -0.67257478109 -0.73203468218 
0.052551134453 -0.67232605283 -0.73838747074 0.18856490792 -0.66264120373 -0.72481025836 0.29527114003 -0.64849750651 -0.70161666023 
0.37586211709 -0.63602594264 -0.67394263052 0.43602348485 -0.63035641734 -0.64228833695 0.48101087948 -0.63634439244 -0.60307076536 
0.51461506762 -0.66221167103 -0.54465313267 0.53623654861 -0.72667515676 -0.42941073635 0.50143042321 -0.86077787891 -0.087343997224 
0.22101813835 -0.78758840797 0.57520038434 -0.11640160631 -0.4074174275 0.90579341233 -0.2429500636 -0.21802328511 0.94522014036 
-0.27812338532 -0.16958573919 0.94545653501 -0.28485354045 -0.17595082658 0.94228433454 -0.27217303964 -0.2239913953 0.93581498777 
-0.24124526369 -0.30978916952 0.91969092264 -0.1915812445 -0.42585196226 0.88427752035 -0.1263467719 -0.55271989898 0.82373369877 
-0.05498275906 -0.66309947411 0.74650919863 0.013026827078 -0.73984676197 0.67264929241 0.075645587764 -0.78363249937 0.61660185775 
0.13744358687 -0.80216520314 0.58106819505 0.20547887795 -0.80131960293 0.5618410137 0.28675607237 -0.78327820556 0.55158517715 
0.38484467785 -0.74726417908 0.54174793086 0.49687053238 -0.69130767864 0.52460782258 0.61327893931 -0.61447490554 0.49629581205 
0.71951943223 -0.52078486345 0.45942889835 0.8036731168 -0.41897681225 0.42257301396 0.86223830968 -0.31688243283 0.39513367495 
0.8972161805 -0.21938860401 0.38323852348 0.91179466952 -0.1302815504 0.38943189168 0.90887048453 -0.054842396957 0.41345707617 
0.8919804302 -0.00039407477928 0.45207384003 0.86554567583 0.026033741179 0.50015290399 0.83335070906 0.01997133577 0.55238369044 
0.79773720538 -0.019632736169 0.60268557874 0.76031050371 -0.089809935566 0.64332115885 0.72216316803 -0.18313618279 0.66703935213 
0.68345021498 -0.28913223321 0.6702972142 0.64321683283 -0.39690660737 0.65478030743 0.59932397176 -0.49854770991 0.62630739882 
0.54826397258 -0.59081367647 0.59190017408 0.48524245409 -0.67388869509 0.55714790441 0.4049740875 -0.74852679522 0.52507487589 
0.29706600263 -0.81601329144 0.49585693328 0.16870037931 -0.86702855651 0.46883010166 -0.0036622254812 -0.89859126202 0.43877138913 
-0.0036622254812 -0.89859126202 0.43877138913 
FrenetNormal 3 64 double
-0.6137900094 -0.78046967543 0.118865092 -0.6137900094 -0.78046967543 0.118865092 -0.48285690648 -0.87565524363 -0.0087807836517 
-0.35489876171 -0.92618983387 -0.12735486079 -0.2243100152 -0.93834950875 -0.26303082805 -0.10046460019 -0.91108074313 -0.3997983787 
0.025246275164 -0.84272048454 -0.53775906365 0.15611145641 -0.7276728493 -0.6679232273 0.28926779019 -0.56178602525 -0.77506167973 
0.4138527701 -0.35372324686 -0.83881210608 0.51867173806 -0.13614373997 -0.84406428085 0.64501264616 -0.0050316968243 -0.76415532997 
0.82231335091 -0.024656022937 -0.56850051315 0.94385659824 -0.058793786599 -0.32508154763 0.99264312722 -0.033457712111 -0.11636237998 
0.99861607699 0.033843302182 0.04025620035 0.98162214755 0.10512145841 0.15927158701 0.95300366111 0.14778784817 0.26446696174 
0.9135766915 0.13247778455 0.38448311453 0.83479722481 0.016716826923 0.55030368084 0.63908812276 -0.21638908346 0.73806648474 
0.32435178309 -0.4376664874 0.83859642654 0.063566705839 -0.47252755553 0.87902046801 -0.20943357668 -0.21870863476 0.95304989903 
-0.50944623503 0.40968927496 0.75671608388 -0.55658599293 0.7820936284 0.28025272327 -0.55270499971 0.83188649836 0.049820047599 
-0.73676572757 0.66919759506 -0.096699748884 0.13187021537 -0.98085604626 -0.14328873931 0.30510045607 -0.9424374161 -0.13684088731 
0.35585617689 -0.90990871171 -0.21314905049 0.39820567925 -0.85720607954 -0.32654245391 0.44038308411 -0.77532732831 -0.45269225 
0.49528374352 -0.66729054473 -0.55625294814 0.58960675223 -0.53763043843 -0.60275815167 0.74691940136 -0.36513896576 -0.55568421208 
0.9199614801 -0.11405064467 -0.37505109729 0.97648402923 0.12959463381 -0.17229095027 0.95361591037 0.28842479857 -0.08618486558 
0.91307007254 0.39401857227 -0.10513043008 0.85614595113 0.48931984583 -0.16607287207 0.77558222438 0.58742543501 -0.23109212781 
0.67189251189 0.68934592986 -0.27085538844 0.55065103463 0.79282155284 -0.26118465385 0.41146232318 0.89315295372 -0.18159448742 
0.24991744295 0.96776807152 -0.031084263876 0.062265518712 0.98123596275 0.18248011013 -0.1435908939 0.88957153435 0.43364056599 
-0.34644150679 0.64184146141 0.68411827983 -0.49626742395 0.17907398926 0.84950052989 -0.51350517487 -0.34184092898 0.78705604289 
-0.45117240782 -0.68254733211 0.57495443112 -0.38921927493 -0.85589658801 0.34051341626 -0.34918158555 -0.92894812116 0.12299434337 
-0.33616851638 -0.9397202466 -0.062582639188 -0.35516604039 -0.91225352706 -0.20408475231 -0.41121261225 -0.86300708821 -0.29346712461 
-0.50819464758 -0.79745878648 -0.32526555926 -0.63467257826 -0.70974566173 -0.30569889443 -0.76282445079 -0.59320475918 -0.25730715297 
-0.87539396436 -0.44014744165 -0.19988906116 -0.94201007712 -0.28181328363 -0.182203973 -0.98224346974 -0.079071163111 -0.17013382176 
-0.98224346974 -0.079071163111 -0.17013382176 
FrenetBinormal 3 64 double
0.43048858823 -0.20466786409 0.87908511579 0.43048858823 -0.20466786409 0.87908511579 0.41068187568 -0.23529298541 0.88089591213 
0.39365600848 -0.27160032442 0.87821877158 0.37509918117 -0.33224783666 0.86539700677 0.36182713842 -0.40777380055 0.8383326604 
0.35789031476 -0.49465725738 0.79197772716 0.36784347088 -0.58474281908 0.7230262903 0.3957178694 -0.66707505588 0.63120380042 
0.44186108842 -0.72755236458 0.52481076145 0.49638015283 -0.75586332875 0.42693954153 0.49772149084 -0.7560193222 0.42509775584 
0.35849327682 -0.7534167022 0.5512221361 0.17532946696 -0.74485903076 0.6437737198 0.053770196591 -0.73927244325 0.67125630024 
-0.0020758219831 -0.73948110833 0.67317410926 -0.029346804707 -0.74152283451 0.67028549958 -0.067815748793 -0.74673270719 0.66165798434 
-0.15525880874 -0.76021091606 0.63085185695 -0.33615043374 -0.77612584986 0.53350871697 -0.60016239899 -0.74043337227 0.30259463985 
-0.79370476437 -0.6082135715 -0.010440232726 -0.84167074195 -0.49865912788 -0.20719419957 -0.83946715697 -0.45959544847 -0.2899429532 
-0.8316342442 -0.46028165031 -0.31068518834 -0.82259509999 -0.47153005862 -0.31779978805 -0.79717780319 -0.51032411367 -0.32260943742 
-0.61629834107 -0.72347443343 -0.31106446111 0.94945705895 0.083442933439 0.30260299085 0.9125982403 0.24827317932 0.32484593307 
0.90286604993 0.27585649676 0.3297515566 0.89706681121 0.28956492093 0.3338012774 0.8888752626 0.3055621823 0.34136859886 
0.86698956719 0.33914954865 0.36511186511 0.80758540075 0.4044505909 0.42921502772 0.6605975726 0.5025869493 0.55768916564 
0.36712414189 0.58610872483 0.72228555788 0.065248535431 0.58403092798 0.80910475452 -0.091584116753 0.5507144344 0.82965412149 
-0.13489854172 0.53511270903 0.83394050871 -0.14189356719 0.53165757959 0.83498888235 -0.14953646988 0.52664214489 0.83683146177 
-0.17564805465 0.50357255186 0.84590924212 -0.22559467943 0.44259735217 0.86787938359 -0.29537070593 0.31916034374 0.90049587509 
-0.36406647354 0.12366729634 0.92312621166 -0.40589836882 -0.14213621297 0.90279776869 -0.3915815337 -0.45349178248 0.80063044265 
-0.29042932791 -0.76683725987 0.57237349901 -0.067448698832 -0.98349110351 0.16791641473 0.20454591439 -0.93954559497 -0.27461799628 
0.40007350521 -0.73057764482 -0.5533511501 0.52003489688 -0.50928892203 -0.68570292396 0.59712023836 -0.32173984326 -0.73479990079 
0.64798652165 -0.18256070182 -0.73944915844 0.67832823155 -0.10128498111 -0.72774457255 0.68681508749 -0.081663618837 -0.72222994188 
0.66418733543 -0.1224691127 -0.73746627034 0.60144033715 -0.20526841522 -0.77209740225 0.5040782139 -0.29633722434 -0.81122709751 
0.38136229132 -0.37468992221 -0.84508595122 0.29009859812 -0.41090480086 -0.86429164522 0.18757492969 -0.4316034001 -0.88234582266 
0.18757492969 -0.4316034001 -0.88234582266 
