# vtk DataFile Version 4.2
vtk output
ASCII
DATASET POLYDATA
POINTS 64 float
0 0 0 -0.891403 0.429412 0.249657 -1.75828 0.884585 0.495806 
-2.62848 1.3303 0.763629 -3.51507 1.71588 1.07002 -4.42966 1.96714 1.42732 
-5.35777 1.99535 1.83117 -6.24715 1.76363 2.25654 -7.06726 1.34388 2.68022 
-7.87425 0.861839 3.06138 -8.75851 0.408017 3.24829 -9.65523 -0.00497961 3.03952 
-10.3939 -0.444098 2.50553 -10.8955 -0.956183 1.79163 -11.0631 -1.50405 0.960146 
-10.8287 -1.99307 0.10797 -10.3032 -2.40604 -0.653161 -9.6369 -2.8149 -1.29897 
-8.91502 -3.29235 -1.827 -8.19489 -3.91385 -2.17052 -7.7399 -4.70091 -1.86711 
-7.91253 -5.03336 -0.929727 -8.26316 -5.04487 0.0206213 -8.70167 -4.83401 0.908579 
-9.20813 -4.38217 1.65937 -9.7111 -3.75019 2.27226 -10.1405 -3.05733 2.8757 
-10.4394 -2.43074 3.61213 -10.5207 -2.11733 4.56203 -10.3427 -2.47418 5.47341 
-10.0885 -3.32029 5.95493 -9.88113 -4.30743 6.01598 -9.73696 -5.28583 5.79486 
-9.63135 -6.24515 5.4819 -9.52735 -7.23878 5.32105 -9.40978 -8.20905 5.56814 
-9.29127 -9.03169 6.14676 -9.14155 -9.73893 6.85807 -8.88122 -10.3862 7.59355 
-8.40585 -10.9675 8.27223 -7.70078 -11.4144 8.84513 -6.86363 -11.6973 9.34169 
-5.97416 -11.8307 9.80993 -5.0633 -11.8331 10.2558 -4.13613 -11.7229 10.6516 
-3.1911 -11.5265 10.963 -2.23153 -11.285 11.1866 -1.26564 -11.0407 11.3784 
-0.309376 -10.8194 11.6338 0.614304 -10.6316 12.0079 1.50135 -10.5004 12.4818 
2.3588 -10.4925 13.0221 3.13484 -10.7772 13.6002 3.54402 -11.523 14.1265 
3.48206 -12.4371 14.5544 3.19318 -13.3114 14.9789 2.80905 -14.1325 15.4343 
2.35565 -14.9241 15.8777 1.76696 -15.7006 16.1472 0.999102 -16.2505 15.8373 
0.275323 -16.4813 15.1656 -0.454452 -16.6857 14.4924 -1.25285 -17.0441 13.9948 
-2.06334 -17.6385 13.861 
LINES 1 65
64 0 1 2 3 4 5 6 7 8 9 10 11 12 13 14 15 16 17 18 19 20 21 22 23 24 25 26 27 28 29 30 31 32 33 34 35 36 37 38 39 40 41 42 43 44 45 46 47 48 49 50 51 52 53 54 55 56 57 58 59 60 61 62 63 

CELL_DATA 1
FIELD FieldData 2
Length 1 1 double
63.686561026 
Tortuosity 1 1 double
1.8270219644 
POINT_DATA 64
SCALARS MaximumInscribedSphereRadius float
LOOKUP_TABLE default
1.116 1.116 1.03215 1.08224 1.1752 1.02774 1.46268 1.7409 1.64693 
1.55 1.42125 1.20658 1.20396 1.30898 1.00263 1.46583 1.33616 1.3032 
1.4161 1.58406 1.96382 2.0564 2.08219 2.84413 3.37276 2.24981 2.18862 
2.36922 1.97768 1.64822 1.99371 2.47732 2.48 2.2889 2.47886 2.66041 
2.30602 1.83264 1.55981 1.29883 1.7081 1.68069 1.86871 2.35638 2.21588 
1.74829 1.71744 1.86899 1.87924 1.86342 1.87897 1.92864 1.74172 1.78625 
1.80186 1.7179 2.40573 2.69609 2.79 3.24075 3.20363 3.07594 2.89591 
2.4986 
TEXTURE_COORDINATES TCoords 2 float
0 0 0.015873 0 0.031746 0 0.047619 0 0.0634921 
0 0.0793651 0 0.0952381 0 0.111111 0 0.126984 0 
0.142857 0 0.15873 0 0.174603 0 0.190476 0 0.206349 
0 0.222222 0 0.238095 0 0.253968 0 0.269841 0 
0.285714 0 0.301587 0 0.31746 0 0.333333 0 0.349206 
0 0.365079 0 0.380952 0 0.396825 0 0.412698 0 
0.428571 0 0.444444 0 0.460317 0 0.47619 0 0.492063 
0 0.507937 0 0.52381 0 0.539683 0 0.555556 0 
0.571429 0 0.587302 0 0.603175 0 0.619048 0 0.634921 
0 0.650794 0 0.666667 0 0.68254 0 0.698413 0 
0.714286 0 0.730159 0 0.746032 0 0.761905 0 0.777778 
0 0.793651 0 0.809524 0 0.825397 0 0.84127 0 
0.857143 0 0.873016 0 0.888889 0 0.904762 0 0.920635 
0 0.936508 0 0.952381 0 0.968254 0 0.984127 0 
1 0 
FIELD FieldData 7
Curvature 1 64 double
0 0.033057094503 0.022981763163 0.071383639274 0.14311536889 0.22526961341 0.26156754047 0.19705375553 0.074530929273 
0.20786964273 0.40570439931 0.3668992303 0.30639921589 0.3595287971 0.41571616271 0.31482028606 0.17867994637 0.14393638303 
0.23137502242 0.85161800227 1.392698371 0.37132685458 0.24455168647 0.28423442311 0.22390334885 0.093527372792 0.19450794316 
0.45141787373 0.82823455885 0.7337559753 0.46112648537 0.28837444426 0.098878690381 0.152767988 0.41785958514 0.36729007176 
0.17524630336 0.12511683131 0.22909512351 0.28516476134 0.22095431586 0.15754006963 0.13147613191 0.12132177157 0.11900061144 
0.097207867398 0.031624818586 0.066459459448 0.12452396365 0.11751210782 0.13994401496 0.30634657773 0.64177365225 0.53854112473 
0.22765817139 0.11058353262 0.074197777073 0.21792681032 0.71889169645 0.50977417574 0.026380832746 0.24195601918 0.44544622663 
0 
Torsion 1 64 double
0 0 -1.4320369806 -0.2472504804 -0.10845985802 -0.044829723218 -0.01137755402 -0.10107235457 -1.9771616815 
0.0001005391163 0.20881520086 0.33922411752 0.22639992107 -0.013620186231 0.010825704061 0.15804609768 0.53980918409 0.64554409336 
0.088114961537 -0.073131901627 -0.071229040711 -0.18896352185 -0.023547441465 -0.062214230383 -0.26530849171 -1.9281828075 -0.57815684719 
-0.2216609836 -0.12475121631 -0.10781903632 -0.074553214937 -0.052903204168 -0.49168034127 -0.21865321661 -0.019094109186 -0.056957943201 
-0.48745460911 -0.93063754136 -0.080869737466 0.11401848809 0.25663958171 0.25086277247 -0.043048041156 -0.27023089024 -0.28285422456 
-0.23714981465 -0.82531517606 -0.15313448403 0.067617623928 0.40394614659 0.49709726211 0.0092190349466 -0.10457989643 -0.20523906687 
-0.50934866755 -0.25391018654 1.3019721294 0.234522637 0.003253728837 -0.039201995264 -9.7775610558 -0.074840284732 0 
0 
Abscissas 1 64 double
0 1.0204518633 2.0300277369 3.0437580705 4.0579532138 5.0714929608 6.0840590484 7.0967854389 8.1108244564 
9.1251627219 10.136503172 11.14559089 12.157304405 13.168977304 14.178733553 15.188821144 16.201750021 17.215729274 
18.229576433 19.240944351 20.199340462 21.208802787 22.221835359 23.23436872 24.24647058 25.260379002 26.274571951 
27.28665793 28.290216695 29.285010862 30.291177283 31.30171574 32.315106098 33.329691999 34.341611875 35.349727338 
36.36244557 37.376623711 38.390366966 39.402557391 40.415000561 41.428605481 42.442603907 43.45673551 44.470884862 
45.485074861 46.499511203 47.514105598 48.528337784 49.54243533 50.556643243 51.570199776 52.578902815 53.579129925 
54.590410962 55.604341554 56.618748339 57.633097633 58.64410209 59.638089645 60.652151341 61.665852882 62.672565122 
63.686535019 
ParallelTransportNormals 3 64 double
0.26969400054 0 0.96294607641 0.27247243944 -0.001398148797 0.96216257198 0.28937839006 -0.010166181407 0.95716079951 
0.31741842546 -0.023434693075 0.94799596958 0.35488480159 -0.036680716471 0.93419018548 0.39751797233 -0.043144123744 0.91657953624 
0.4392897762 -0.038467247579 0.89752145567 0.46964495904 -0.026901588533 0.8824454187 0.44614344729 -0.039926757938 0.89407039904 
0.27146896145 -0.13657338394 0.9527078848 -0.079266538187 -0.30726881442 0.94831571305 -0.33792111057 -0.44201987522 0.83091982341 
-0.46029097215 -0.53587193756 0.70779480606 -0.53394328053 -0.65259264843 0.53761269367 -0.52493988925 -0.79251541103 0.31041494159 
-0.45473571373 -0.87590336949 0.16127218603 -0.42609016454 -0.89565800579 0.12745159216 -0.46189098382 -0.8727998819 0.15772471341 
-0.57295225547 -0.78814718429 0.22483266856 -0.87828451521 -0.41876075278 0.23077205694 -0.98116194171 -0.02904997493 -0.19099042671 
-0.93818010789 -0.00073188417964 -0.34614671673 -0.89760302502 -0.010984544771 -0.44066784459 -0.84170907854 -0.050184749655 -0.53759400852 
-0.81077951793 -0.083388679286 -0.57938148182 -0.83769551044 -0.045143698502 -0.54426857182 -0.90175672567 0.070924539236 -0.42638540952 
-0.96265393642 0.22164949716 -0.15546349765 -0.94048160996 0.21113692056 0.2662997223 -0.87094173514 0.017810439985 0.49106341975 
-0.83086408783 -0.14129244058 0.53823908608 -0.8132625247 -0.23967073916 0.53024711476 -0.81059533901 -0.26036029504 0.52454524413 
-0.81985242568 -0.17410800845 0.54546164073 -0.84337501603 0.034361187173 0.53622559725 -0.86507599384 0.19920158632 0.46039358477 
-0.87258150058 0.24201595583 0.42429918921 -0.85821251728 0.19455499553 0.47499434618 -0.78596224625 0.073930884065 0.61383839229 
-0.64755655096 -0.046632068431 0.76058922126 -0.53258487072 -0.10104385985 0.84032344598 -0.47616340652 -0.11464626251 0.87185127446 
-0.43684640029 -0.11761169273 0.89181428128 -0.37857487806 -0.1141942926 0.91849916997 -0.29255303719 -0.10011109608 0.95099447363 
-0.20691971951 -0.080425819917 0.97504662307 -0.17651483615 -0.07275461408 0.98160545982 -0.23806599733 -0.087665056474 0.96728455937 
-0.35321583339 -0.11272574552 0.92872572988 -0.4521525961 -0.1301530755 0.8823934535 -0.52730194892 -0.13614408664 0.83869985236 
-0.62103572839 -0.12021838814 0.77450769087 -0.77783605093 0.016546048918 0.62824939805 -0.83332614672 0.27970328217 0.47679514169 
-0.79898320919 0.45492587769 0.39327887973 -0.76207520539 0.54790278884 0.34502741241 -0.73567129423 0.59874400841 0.31669126803 
-0.70810467417 0.64021671467 0.29784279189 -0.63249274346 0.71395591041 0.30036625554 -0.561516338 0.75124405515 0.34688870226 
-0.5454898784 0.75604320553 0.3617173813 -0.55723977499 0.75171238131 0.35272131911 -0.59214142859 0.73106135643 0.33899531219 
-0.59214142859 0.73106135643 0.33899531219 
FrenetTangent 3 64 double
-0.86625680807 0.43581100934 0.2442701509 -0.86625680807 0.43581100934 0.2442701509 -0.8585931738 0.4452861247 0.25404336055 
-0.86686814574 0.41019313552 0.28333938921 -0.89059348584 0.31488556327 0.32816204079 -0.91530649525 0.13881840521 0.37807865599 
-0.90509891086 -0.101346694 0.41294649675 -0.84760693302 -0.32301475889 0.42097975324 -0.80274075341 -0.44490468922 0.39707316746 
-0.83947009775 -0.46452571479 0.28196775575 -0.89910165596 -0.43760076187 -0.011035644525 -0.82261534816 -0.4286211613 -0.3736146264 
-0.62011294034 -0.47558454921 -0.62392249341 -0.33630520499 -0.53267694509 -0.77662995131 0.033763676424 -0.52408765336 -0.85099479772 
0.38024516138 -0.45134526527 -0.80728004359 0.59037114283 -0.40710238155 -0.69694301392 0.68636988126 -0.4382260624 -0.58039150953 
0.7168340479 -0.54629643572 -0.43325414261 0.64045584236 -0.76768381096 -0.021860475035 0.16659652284 -0.66052702833 0.73208581698 
-0.26309278578 -0.17294157107 0.94914350815 -0.39252179313 0.099157560723 0.91438198805 -0.47144687073 0.33062177236 0.81757390597 
-0.50138921526 0.53833920978 0.67734758436 -0.46024177422 0.65397506572 0.6004116277 -0.36115492113 0.65429872751 0.66442478741 
-0.19322028233 0.4777139557 0.85700367504 0.051869275596 -0.02330094089 0.99838201326 0.22861411348 -0.63631041753 0.73677991263 
0.23468268102 -0.93210602765 0.27586662075 0.17549472051 -0.98123189955 -0.079909713935 0.12332191464 -0.95669289266 -0.26368620463 
0.10374131748 -0.96656466869 -0.23450049104 0.11200359756 -0.99275109624 0.043594208844 0.11875393058 -0.90187610885 0.41535164411 
0.1328520455 -0.75773783997 0.63889255739 0.20260728694 -0.66926812838 0.71486394483 0.36555010129 -0.610444602 0.70265959848 
0.58896344211 -0.5130055957 0.62445762278 0.76588211334 -0.36242606332 0.53110445026 0.85424319957 -0.2059638761 0.47733367545 
0.88963753502 -0.067106097273 0.45170989362 0.90791734714 0.053248883486 0.41575310843 0.92469616853 0.1514327182 0.34929232422 
0.93998658283 0.21611921441 0.26404111281 0.94907212647 0.23945398621 0.20475323501 0.9479617798 0.22962313594 0.22054858756 
0.92868479327 0.20209354772 0.31097066215 0.8942980393 0.15755077551 0.41881830194 0.86246942009 0.068770330085 0.50141513849 
0.81718172964 -0.13847408592 0.5594988367 0.61730424136 -0.53672034277 0.57521017659 0.1784412989 -0.85304670967 0.49037741992 
-0.17437568861 -0.88887733801 0.42366283433 -0.33231327837 -0.83714031161 0.43446977305 -0.41311824034 -0.79547655003 0.44334002509 
-0.51761972315 -0.77889570939 0.35410633444 -0.7148453188 -0.69895847689 -0.021288912167 -0.76539380874 -0.40059576235 -0.5036817971 
-0.71690033739 -0.21464275681 -0.66331168632 -0.76191537814 -0.28060012969 -0.58373669044 -0.81521316794 -0.48277801008 -0.31992637247 
-0.81521316794 -0.48277801008 -0.31992637247 
FrenetNormal 3 64 double
0.44364885447 0.89585176959 -0.025006016183 0.44364885447 0.89585176959 -0.025006016183 0.010129257303 -0.48071031184 0.87682095905 
-0.21807292189 -0.82307845476 0.52439113079 -0.19529731808 -0.91642070242 0.34933086569 -0.063198128622 -0.97659829004 0.20557669233 
0.14748462616 -0.98571394856 0.08134062127 0.35122810511 -0.93622305925 -0.011189347592 0.1745128246 -0.8119791859 -0.5569875005 
-0.37833075773 0.12714468401 -0.91689697736 -0.036495834841 0.10006001232 -0.99431184644 0.44207372184 -0.068875968408 -0.89433043414 
0.77355538397 -0.23821584959 -0.58725231114 0.93664972052 -0.10345545084 -0.3346405097 0.98814608452 0.14509368725 -0.050151147253 
0.92262801354 0.2460575268 0.29700714157 0.76994821186 0.024987646403 0.63761694503 0.37830766734 -0.46644031719 0.79957284805 
0.00018054608533 -0.62123565862 0.78362377699 -0.31934536615 -0.29209136296 0.90149940255 -0.63781974919 0.49401779779 0.59087425313 
-0.48213677095 0.87571248982 0.025918512204 -0.35643229105 0.90008242679 -0.25061453845 -0.23873423192 0.8446047276 -0.47921688266 
0.01940549569 0.78965990047 -0.61323785624 0.76802338321 0.63252917659 -0.10023434343 0.65604739764 -0.32807935765 0.67968062142 
0.49414446134 -0.707219216 0.50563052899 0.36099770404 -0.93168688755 -0.040499397984 0.11203328497 -0.73459833561 -0.66918893325 
-0.10736873036 -0.306911696 -0.94566228993 -0.22022251698 0.039984940848 -0.97462980024 -0.38169823318 0.19954414302 -0.9024902181 
-0.0085576345262 -0.23663135181 0.97156182008 0.034262550191 0.047702274402 0.99827379544 0.0010582466935 0.41842646043 0.90825006321 
0.17365972688 0.65243063725 0.73768324018 0.86403196384 0.46573763488 0.19114711853 0.92942868268 0.28022730849 -0.24007286267 
0.80149555307 0.46980616622 -0.36998249228 0.58567294042 0.73410795806 -0.34361710197 0.32312645026 0.92962776854 -0.1771482687 
0.15802309117 0.97327358802 -0.16663500689 0.13130465242 0.90583860536 -0.40275986554 0.14577601425 0.70672056743 -0.69231163015 
0.14355545722 0.45152575045 -0.8806340485 0.18961696947 0.084883787615 -0.97818206255 -0.13564676016 -0.33541571725 0.93225332023 
-0.25456289266 -0.26242069504 0.93077017168 -0.30505542715 -0.47009570599 0.82822171764 -0.20248608029 -0.8610915441 0.4663911877 
-0.2530496697 -0.9583499079 0.13240588617 -0.61111734005 -0.78758345087 -0.079043687986 -0.92817686772 -0.31134081279 -0.20384945552 
-0.98284535262 0.18336363202 -0.019818963002 -0.83842792089 0.47318119022 0.27044071936 -0.90949855416 0.38515396657 -0.15642506836 
-0.62043360845 0.056701268355 -0.78220656074 -0.29669942519 0.33072972287 -0.89587236898 0.12375589421 0.67642271817 -0.72604186173 
-0.2310385638 0.97080810527 -0.064442259337 -0.30394823627 -0.64095878067 0.70483140618 -0.013962864448 -0.53585264106 0.84419605868 
-0.013962864448 -0.53585264106 0.84419605868 
FrenetBinormal 3 64 double
-0.22972774409 0.086708540867 -0.96938474949 -0.22972774409 0.086708540867 -0.96938474949 0.51255746999 0.75540576066 0.40822417459 
0.44831218882 0.3927893187 0.80295250947 0.41073373434 0.24702262692 0.87765461388 0.39776879752 0.16427181823 0.90265982156 
0.3988035188 0.13452456742 0.90711570053 0.39774527687 0.13837575243 0.90700101757 0.57022149807 -0.37782220577 0.72945035744 
0.39007152259 -0.8763846699 -0.28247852597 0.43621584827 -0.89358467262 -0.10593472791 0.35759588007 -0.90085514988 0.24614058077 
0.13065989882 -0.84680136133 0.5156117195 0.097908682665 -0.83997157206 0.53372431835 0.14975757011 -0.8392138902 0.52277405892 
0.064584563861 -0.85775471146 0.5099859695 -0.24216041124 -0.91304067186 0.32819973608 -0.6211116606 -0.76836927889 -0.15436630569 
-0.69724379895 -0.56180642643 -0.44522424019 -0.69845175288 -0.57038951785 -0.43222788761 -0.75195183763 -0.56537638818 -0.33899553622 
-0.83565921293 -0.45079801261 -0.31377512913 -0.84786948513 -0.42428693491 -0.31795901158 -0.84896632124 -0.42110817821 -0.31925552095 
-0.86500420898 -0.29432658188 -0.40637369703 -0.44532863382 0.41499813757 -0.79338449299 0.66269822316 0.68136415393 -0.31076350293 
0.84763622729 0.52118169293 -0.099410608731 0.9311231046 0.36251428898 -0.039914337777 0.96704918705 0.23552990864 -0.096651600924 
0.96612421301 0.19231111273 -0.17210590041 0.95953303543 0.18864030273 -0.20907221264 0.91602301508 0.21194538006 -0.34055982105 
-0.99456749692 -0.098784333726 -0.032819955373 -0.99311694769 -0.11031660767 0.039357010607 -0.99292315115 -0.10741872045 0.050644194244 
-0.97580358334 0.012947179628 0.21826529104 -0.46086771719 0.57893749903 0.67263089393 -0.050353224962 0.74083064425 0.66980184329 
-0.10357095288 0.7184061699 0.68787036043 -0.26535220994 0.57422369729 0.77450329253 -0.40725649549 0.30556684 0.86068057557 
-0.42845508392 0.21962535048 0.87646502867 -0.39805172907 0.42026298605 0.81543475738 -0.35169070157 0.69109635466 0.63142654284 
-0.30954330036 0.86568873265 0.39340305459 -0.25160982423 0.96719001809 0.035156297622 0.28804239356 -0.91365721803 -0.28681364585 
0.2697077834 -0.94355369576 -0.19226059083 0.32737165924 -0.86843985419 -0.37234394903 0.46383821176 -0.50377772318 -0.72874009011 
0.51786087456 -0.2497806669 -0.81818685705 0.49545037116 -0.30272690924 -0.81417771287 0.32656761179 -0.418781816 -0.84733428204 
-0.060067728979 -0.41985099311 -0.90560312031 -0.43197975241 -0.27440054645 -0.85912620354 -0.04632169548 -0.46783916081 -0.88259890105 
0.58917905573 -0.62458501427 -0.51260277042 0.63321846253 -0.6340937612 -0.44380117251 0.63155110339 -0.61804153706 -0.46815367379 
0.65778042559 0.10705190189 -0.74556341247 -0.57192694132 0.71444762488 0.40306843723 -0.57899268495 0.69266683193 0.43009316515 
-0.57899268495 0.69266683193 0.43009316515 
