# vtk DataFile Version 4.2
vtk output
ASCII
DATASET POLYDATA
POINTS 64 float
0 0 0 -0.982575 0.213528 -0.282055 -1.94807 0.248048 -0.414145 
-2.96143 0.0967223 -0.409394 -3.90006 -0.250695 -0.259126 -4.75707 -0.736463 -0.0163134 
-5.547 -1.3037 0.272685 -6.30272 -1.91045 0.572904 -7.05343 -2.53089 0.857333 
-7.81746 -3.1529 1.09961 -8.59687 -3.7798 1.26911 -9.36745 -4.43698 1.32618 
-10.057 -5.17265 1.21967 -10.5285 -6.01422 0.912543 -10.6921 -6.89946 0.447091 
-10.6097 -7.75456 -0.0921312 -10.3753 -8.56489 -0.65559 -10.0449 -9.34166 -1.21877 
-9.64188 -10.1058 -1.74802 -9.17766 -10.8799 -2.21975 -8.57232 -11.672 -2.0833 
-8.34758 -11.6462 -1.12034 -8.29168 -11.31 -0.171243 -8.26748 -10.8831 0.752373 
-8.23927 -10.4355 1.66149 -8.18997 -10.0181 2.58508 -8.10171 -9.71487 3.54882 
-7.96014 -9.67747 4.55094 -7.79333 -10.0537 5.47484 -7.67318 -10.7637 6.18844 
-7.63581 -11.6334 6.70876 -7.68148 -12.5686 7.09926 -7.79687 -13.5286 7.40622 
-7.95793 -14.4976 7.66025 -8.12836 -15.4725 7.8836 -8.25865 -16.4562 8.09473 
-8.28558 -17.4468 8.31141 -8.14084 -18.4212 8.55221 -7.77845 -19.3249 8.83463 
-7.20395 -20.089 9.17189 -6.47226 -20.6667 9.57059 -5.65493 -21.0518 10.0312 
-4.80956 -21.2709 10.5471 -3.96879 -21.3667 11.1067 -3.14244 -21.3817 11.6951 
-2.32594 -21.3485 12.2964 -1.50943 -21.2854 12.8954 -0.685327 -21.1976 13.4807 
0.147479 -21.0856 14.0492 0.984321 -20.9561 14.6081 1.81812 -20.8294 15.1722 
2.64001 -20.7431 15.7607 3.43274 -20.7556 16.3934 4.15604 -20.9402 17.0795 
4.742 -21.3443 17.8011 5.13977 -21.9334 18.5241 5.35188 -22.6228 19.2372 
5.40191 -23.3441 19.9485 5.30908 -24.0528 20.6683 5.08705 -24.7177 21.402 
4.74972 -25.3137 22.1468 4.29868 -25.8411 22.9036 3.79244 -26.2825 23.6098 
3.16759 -26.785 24.2791 
LINES 1 65
64 0 1 2 3 4 5 6 7 8 9 10 11 12 13 14 15 16 17 18 19 20 21 22 23 24 25 26 27 28 29 30 31 32 33 34 35 36 37 38 39 40 41 42 43 44 45 46 47 48 49 50 51 52 53 54 55 56 57 58 59 60 61 62 63 

CELL_DATA 1
FIELD FieldData 2
Length 1 1 double
63.86219522 
Tortuosity 1 1 double
0.75978696607 
POINT_DATA 64
SCALARS MaximumInscribedSphereRadius float
LOOKUP_TABLE default
1.24 1.24 1.24 1.24 1.30676 1.47114 1.55 1.55 1.55 
1.52818 1.39948 1.27093 1.30469 1.66407 1.96574 1.88841 1.68007 1.39963 
1.24 1.25937 1.40566 1.56991 1.75858 1.77917 1.61211 1.78656 2.17025 
1.78398 1.55 1.55 1.55 1.61831 1.76322 1.70974 1.39081 1.24651 
1.24 1.27121 1.37018 1.67096 1.85753 1.86478 1.86 1.86178 1.87266 
1.92758 2.06589 2.10672 1.94479 1.86 1.86 1.86 1.86 1.86414 
1.94614 2.15784 2.463 2.68059 2.24058 1.96261 2.31762 2.48 2.60048 
3.1 
TEXTURE_COORDINATES TCoords 2 float
0 0 0.015873 0 0.031746 0 0.047619 0 0.0634921 
0 0.0793651 0 0.0952381 0 0.111111 0 0.126984 0 
0.142857 0 0.15873 0 0.174603 0 0.190476 0 0.206349 
0 0.222222 0 0.238095 0 0.253968 0 0.269841 0 
0.285714 0 0.301587 0 0.31746 0 0.333333 0 0.349206 
0 0.365079 0 0.380952 0 0.396825 0 0.412698 0 
0.428571 0 0.444444 0 0.460317 0 0.47619 0 0.492063 
0 0.507937 0 0.52381 0 0.539683 0 0.555556 0 
0.571429 0 0.587302 0 0.603175 0 0.619048 0 0.634921 
0 0.650794 0 0.666667 0 0.68254 0 0.698413 0 
0.714286 0 0.730159 0 0.746032 0 0.761905 0 0.777778 
0 0.793651 0 0.809524 0 0.825397 0 0.84127 0 
0.857143 0 0.873016 0 0.888889 0 0.904762 0 0.920635 
0 0.936508 0 0.952381 0 0.968254 0 0.984127 0 
1 0 
FIELD FieldData 7
Curvature 1 64 double
0 0.22225527042 0.23368378788 0.24987567121 0.18204329683 0.11227513596 0.051968419262 0.020879038533 0.042992554511 
0.072522594634 0.11384844785 0.19507629511 0.31411657021 0.35053080408 0.25572283753 0.1567749096 0.099043239604 0.079039094603 
0.081945728519 0.67341872205 1.9692817433 0.36537294369 0.096647553701 0.024488506855 0.0384758511 0.12403165794 0.27155017405 
0.43038135123 0.4029165745 0.26123740183 0.16387072703 0.10876880274 0.068563085352 0.031693903951 0.041669940251 0.10107045549 
0.17051382486 0.22926250677 0.25699729297 0.24845970023 0.21618072324 0.17358592442 0.12773888546 0.084663224002 0.049444270661 
0.029135822025 0.028418947962 0.029847167868 0.019785184295 0.0064531842495 0.047314643996 0.10926128399 0.18948630068 0.25860814695 
0.2612195692 0.20767574185 0.16165440026 0.14034061234 0.13383009175 0.13181945204 0.12806769334 0.10152991913 0.1177410838 
0 
Torsion 1 64 double
0 0 -0.0395104693 -0.039017822547 -0.060296008174 -0.0986291841 -0.37081219278 -1.8522258023 -0.11184759314 
0.27511122349 0.39289218659 0.28115253323 0.13356769612 0.06510705502 0.036864904151 0.055094297962 0.24710590002 0.4724556348 
1.5770604694 -0.0004826728229 -0.033929204043 -0.21199411723 -0.41535625407 -1.4338934209 -0.59143659664 -0.13905098877 -0.088493845016 
-0.082475733239 -0.1138609957 -0.17802540968 -0.19990766512 -0.13302539059 0.057772385418 1.0720935028 0.80118083467 0.17045535075 
0.095706672121 0.093137799754 0.10853470956 0.12837977097 0.13859672825 0.13090762629 0.10604493463 0.040325516554 -0.151929693 
-0.54494858998 -0.29035263831 -0.0010986885739 0.19018594576 2.7359045412 0.13688236673 0.04650067701 -0.00135053814 -0.04334770697 
-0.10180063622 -0.19197401671 -0.25392641046 -0.2325326833 -0.17034626146 -0.074114891339 0.021621966292 0.5508060416 0 
0 
Abscissas 1 64 double
0 1.0443189985 2.0194223543 3.0440295731 4.0561094721 5.0706947921 6.0852242481 7.0998155759 8.1144165544 
9.1289765164 10.143479314 11.157846438 12.171787892 13.184148311 14.197581884 15.211849519 16.22629092 17.241034949 
18.25413047 19.272627723 20.278822862 21.267998759 22.276421709 23.294224234 24.307954029 25.322666826 26.336844213 
27.349608033 28.361027366 29.374826963 30.388970881 31.403394656 32.417902295 33.432475569 34.447083104 35.461637429 
36.476008274 37.490084497 38.503888806 39.517612629 40.531529791 41.545664342 42.559993901 43.574456315 44.589008494 
45.603602356 46.618200293 47.632793092 48.647387836 49.661993485 50.676597218 51.69114052 52.705468313 53.719392106 
54.732935666 55.746882775 56.761123889 57.775461258 58.789828505 59.804561599 60.816347794 61.843197839 62.817723502 
63.862227402 
ParallelTransportNormals 3 64 double
-0.27591417745 0 0.96118227547 -0.13613608451 -0.017362937338 0.99053798256 0.0060758671924 -0.0092943941042 0.99993834714 
0.14822588109 0.027122074894 0.98858155012 0.23614907004 0.067908323793 0.96934105261 0.28035366017 0.096171641769 0.95506692988 
0.29275530712 0.10559114799 0.95033932867 0.28179123861 0.096659449634 0.95459449435 0.24929503838 0.070004846159 0.96589404458 
0.19338536362 0.024764440305 0.98081028932 0.11077690576 -0.043672448328 0.99288528764 0.0032348721053 -0.14625919373 0.98924101404 
-0.10245766175 -0.28986400076 0.95156780558 -0.15652345032 -0.43683613638 0.88581860415 -0.1612245051 -0.53748829295 0.82771552716 
-0.15059136904 -0.59338327196 0.79070761481 -0.14120267021 -0.61976438023 0.77198051719 -0.14409699245 -0.61368376861 0.77629136856 
-0.16172112812 -0.58241667334 0.79664113334 -0.43587392721 -0.18125505022 0.88156708556 -0.93684090031 0.27880506203 0.2111796981 
-0.97181625818 0.23432767439 -0.025762401754 -0.9738729172 0.21477978964 -0.073764375637 -0.97391380952 0.21409747153 -0.07519417743 
-0.97285516105 0.22591347538 -0.050159119483 -0.96844502132 0.24901266982 0.010340742317 -0.95505228432 0.26885010665 0.12487895889 
-0.9322045524 0.24372667353 0.26756677875 -0.91852164281 0.19196003126 0.34564336834 -0.91685208337 0.17521794078 0.35872124337 
-0.91677875548 0.19119726635 0.35065698175 -0.91443423152 0.2187857394 0.34050379802 -0.91150661585 0.23921409458 0.3345628584 
-0.91201266988 0.23624650206 0.33529163462 -0.91826623517 0.19551516428 0.34432679517 -0.92549131591 0.104779846 0.3639876482 
-0.91692695927 -0.038036861711 0.39723815089 -0.87050102231 -0.20995934826 0.44513485849 -0.78265802929 -0.36633333142 0.50323582889 
-0.6791512808 -0.4726607196 0.5615562144 -0.59195435302 -0.52685494867 0.60992942788 -0.53471782103 -0.54765484255 0.64354566684 
-0.50426784481 -0.55334332377 0.66296689716 -0.48941608385 -0.55433060272 0.67319349355 -0.47886515828 -0.55421334348 0.6808345835 
-0.46442823105 -0.55336148188 0.69144594046 -0.44323297043 -0.55141263011 0.7067451063 -0.41986031786 -0.54859511724 0.7230219297 
-0.40498925107 -0.54644393673 0.73306393345 -0.41031283076 -0.54726044197 0.7294857021 -0.44639043086 -0.55190234467 0.70437162435 
-0.52406798908 -0.55545170169 0.64562074774 -0.6478991816 -0.53934857745 0.53789382083 -0.79459138832 -0.47338847206 0.3801682261 
-0.9102964043 -0.35658254343 0.21026018653 -0.97104585944 -0.22924146535 0.067218222436 -0.99215624508 -0.11563377757 -0.04748489061 
-0.98923277465 -0.017950825405 -0.14524560384 -0.9700281476 0.065833866886 -0.23390445666 -0.93884509542 0.13609830331 -0.31630228996 
-0.89642283646 0.19664171038 -0.39718778432 -0.85373849052 0.23967474737 -0.46226248526 -0.79810530213 0.2861670411 -0.53022292605 
-0.79810530213 0.2861670411 -0.53022292605 
FrenetTangent 3 64 double
-0.97064119022 0.12359185895 -0.20635099283 -0.97064119022 0.12359185895 -0.20635099283 -0.99620912633 -0.058803151261 -0.064105896935 
-0.96601917669 -0.24682263379 0.076717258299 -0.88973423173 -0.41284082167 0.19477025661 -0.81296388844 -0.51978519366 0.26251298739 
-0.76199991542 -0.57877137114 0.29048206286 -0.74242255692 -0.60480305132 0.28813541276 -0.74666322314 -0.61244287912 0.25963002722 
-0.76117997484 -0.61592613506 0.20307644387 -0.7652368806 -0.63395596295 0.11185863222 -0.72336373704 -0.69003260376 -0.024493053605 
-0.58003067167 -0.78794881473 -0.20664240922 -0.31826252294 -0.86534311143 -0.3871566427 -0.040375098637 -0.8653432314 -0.49955074145 
0.15664855189 -0.82350977644 -0.54524570544 0.27869039242 -0.78312533901 -0.55591939035 0.36195846669 -0.76047156298 -0.53913733899 
0.42724552031 -0.75781371979 -0.49313246849 0.55533621173 -0.81320138724 -0.17408387556 0.52657598176 -0.48611611551 0.69743018122 
0.1427352766 0.1841154688 0.97248554486 0.03957891352 0.37706206204 0.92534194273 0.02580056023 0.43050072275 0.90222140232 
0.038218639675 0.42651484615 0.90367274032 0.067933961195 0.35588302136 0.93205807331 0.11443730975 0.16960696345 0.97884502353 
0.15576626046 -0.17114682989 0.97285437488 0.14450158053 -0.54698141144 0.82457906156 0.078341930035 -0.78565564913 0.61368374835 
-0.0041053425425 -0.89275751608 0.45051877169 -0.079501577682 -0.93549646364 0.34427585693 -0.13632673156 -0.95125376072 0.27664291963 
-0.16338210468 -0.95809499439 0.23528763162 -0.14823820712 -0.96548155086 0.21417471584 -0.077592383984 -0.97437211458 0.21113598527 
0.058293395002 -0.97229681395 0.2263642765 0.25174012491 -0.93229210738 0.2597274264 0.46592827682 -0.82942062842 0.30817569989 
0.64919543207 -0.66689445581 0.36578282598 0.76830606887 -0.47754351743 0.42621353041 0.82283644507 -0.2990064511 0.48325492947 
0.83283398265 -0.15553806277 0.53122073413 0.82238272297 -0.054657041285 0.56630315627 0.80989780824 0.0089722582142 0.58650237748 
0.80484711965 0.047462585601 0.59158128516 0.80857163131 0.074370601283 0.58367879069 0.81664523746 0.09847620775 0.56867652725 
0.82286839411 0.11902020774 0.55562738965 0.82328463288 0.12625463701 0.55340959505 0.81617869065 0.10499983372 0.56817900335 
0.79703727961 0.036430034017 0.60283034722 0.75087534377 -0.097622553163 0.653189142 0.65119212604 -0.29280382606 0.70015336494 
0.48936125842 -0.49407143801 0.71862296993 0.30234702988 -0.63381509986 0.7119443045 0.1296560423 -0.69774222736 0.70451763275 
-0.021150865165 -0.70667614211 0.70722094926 -0.15552527428 -0.67848984066 0.71795781574 -0.27662931377 -0.62357340944 0.7311856302 
-0.3875394513 -0.55223103712 0.73814230019 -0.47891969389 -0.48468277466 0.73192795735 -0.56119091089 -0.46831610319 0.68245497216 
-0.56119091089 -0.46831610319 0.68245497216 
FrenetNormal 3 64 double
-0.22600447917 -0.76224862723 0.6065467877 -0.22600447917 -0.76224862723 0.6065467877 0.0077509985658 -0.79399900892 0.60786963722 
0.24517209131 -0.78104528524 0.57433344675 0.45241947495 -0.74074530059 0.49660146832 0.58186976135 -0.7075062226 0.40107670814 
0.64083090235 -0.73852112512 0.20957648328 0.23349391604 -0.63673141021 -0.7348834618 -0.30174507188 -0.036003053737 -0.95270860798 
-0.20693817977 -0.066094859859 -0.97611887558 0.074722975273 -0.26006021753 -0.96269681636 0.40615674865 -0.39655305229 -0.82327539271 
0.69008536371 -0.34051045916 -0.63861946259 0.88332523058 -0.12243098715 -0.45248998928 0.95146537088 0.11936285507 -0.2836655722 
0.94807516072 0.28009700672 -0.15066239231 0.94311154842 0.33244632886 0.0044772382045 0.90231552172 0.14056273723 0.40751541832 
0.69806553491 -0.070143684072 0.71258990489 0.23742903144 -0.045581230727 0.97033489396 -0.30183748565 0.66002569358 0.68793910782 
-0.48610557501 0.86892030031 -0.093160515557 -0.32406945175 0.8808540017 -0.34507277222 0.16285859147 0.88865447139 -0.428684394 
0.53211307877 -0.77414031861 0.34287379384 0.30673048061 -0.89641966773 0.31991903909 0.19528298293 -0.96993408796 0.14523230213 
0.060358004327 -0.98138641131 -0.18231188387 -0.11833845347 -0.8368972357 -0.53441465858 -0.31363032038 -0.60374307903 -0.73289174962 
-0.4959076253 -0.38940401672 -0.77617017395 -0.62473750831 -0.22236716684 -0.74850243074 -0.64764575142 -0.12573362325 -0.75149586602 
-0.28744095721 -0.18191647569 -0.94036380832 0.93603592601 -0.20686816524 -0.28467930628 0.99625772616 -0.067688728405 0.053747363775 
0.98607349276 0.091458267231 0.13890447164 0.93606923406 0.30270691938 0.1792844388 0.81660070108 0.53718781662 0.2111694691 
0.6245815551 0.74185347613 0.24403135246 0.38909502054 0.87716311712 0.28140705563 0.15751617507 0.93706862336 0.31159436725 
-0.036448627571 0.94221574401 0.33301800144 -0.16611161267 0.92893658939 0.33088328007 -0.19399638148 0.94771233183 0.25339048931 
-0.0014495032574 0.99695125829 -0.078013380532 0.26014921816 0.84457102409 -0.4679980444 0.2850044267 0.78800093083 -0.54573529277 
0.19537938485 0.85893723592 -0.47334313212 -0.46046542284 -0.42156085854 0.78119014133 -0.24300034524 -0.82978042821 0.50240946764 
-0.25874272138 -0.88133044192 0.39535914846 -0.35778305396 -0.89144506233 0.27805932305 -0.52473900752 -0.84022132415 0.13666418854 
-0.71370083944 -0.70043656667 0.0044416047462 -0.87941065132 -0.47361985242 -0.048178228784 -0.98109968697 -0.19320207414 -0.010787158022 
-0.99436798846 0.08834746494 0.058540831523 -0.94178443761 0.32115911615 0.099493191673 -0.86176587912 0.49767242127 0.098395785931 
-0.81424864069 0.58047669886 0.0067788798918 -0.79176931788 0.59857370755 -0.12169989278 -0.66422094902 -0.23713768818 -0.7089261229 
-0.66422094902 -0.23713768818 -0.7089261229 
FrenetBinormal 3 64 double
-0.082326515977 0.6353755446 0.7678022285 -0.082326515977 0.6353755446 0.7678022285 -0.086644668857 0.6050683955 0.79144484212 
-0.081838841109 0.57362605403 0.81501874471 -0.060742205937 0.52996118312 0.84584367871 -0.02274416232 0.47880924954 0.8776242964 
0.093230271298 0.34584714499 0.9336476149 0.62792462776 -0.47831619287 0.61394159453 0.59282707665 -0.78969456117 -0.15791946444 
0.61463943549 -0.7850264108 -0.077148549496 0.63939736747 -0.72833269891 0.24637874537 0.55837406768 -0.6054755837 0.56711349665 
0.43283554696 -0.51301977796 0.74125845473 0.34415912527 -0.48599583628 0.8033445983 0.30509588564 -0.48675825694 0.81852483155 
0.27679364303 -0.49333286424 0.82462595414 0.18130712178 -0.5255417603 0.83122414893 -0.234121267 -0.63397564527 0.73706316794 
-0.57460053458 -0.64868962508 0.49903506487 -0.79701263915 -0.58019467009 0.16776470974 -0.79474012588 -0.57276278341 0.20082561155 
-0.86216472368 -0.45943335301 0.21352513524 -0.94520500424 -0.28621745065 0.15705754008 -0.98631202481 0.1579948043 -0.04718295812 
0.84581026654 0.46775191407 -0.25654071782 0.9493689426 0.2641572532 -0.17005750911 0.97404756491 0.17453178208 -0.14411800141 
0.98594816467 0.087117588958 -0.14253681026 0.98240282148 -0.020355648085 -0.1856619076 0.94630785907 -0.13505367643 -0.293703831 
0.86836557586 -0.22660213866 -0.44112662289 0.7767770239 -0.27458916517 -0.56676118914 0.74964658535 -0.28161558675 -0.59893460275 
0.94376055437 -0.22126992022 -0.24567384561 0.31915854864 0.1582748785 0.93439118343 -0.038078406131 0.21451624268 0.97597787711 
-0.15575925971 0.21511459953 0.96408752823 -0.24576675639 0.19798976608 0.94889343658 -0.34069654512 0.15326666573 0.92759646038 
-0.43410041696 0.070037166977 0.89813786427 -0.50824290406 -0.050369186291 0.85973955099 -0.54601175743 -0.18027073338 0.81815256734 
-0.55232151406 -0.29671097513 0.77904014168 -0.54414482365 -0.3661822234 0.75486223257 -0.55356205089 -0.31899974088 0.76929072602 
-0.59348042337 0.061931345616 0.80246214584 -0.52776348995 0.53025352327 0.66354871693 -0.50185957488 0.60774745538 0.61545105214 
-0.53358645218 0.49805724058 0.68353820899 0.33192470175 -0.89796782191 -0.28892868184 0.52421672726 -0.54812359544 -0.65173410758 
0.54569568355 -0.47109394473 -0.69302721173 0.55513737436 -0.44248789583 -0.70429181284 0.54826799011 -0.45639242532 -0.7007910995 
0.50115533574 -0.51505536617 -0.69538571976 0.36772704532 -0.61152486015 -0.70058130546 0.14364092358 -0.68980340873 -0.70960449715 
-0.103850587 -0.70199968348 -0.70456475925 -0.2980838173 -0.6606877918 -0.68893953263 -0.42524791869 -0.60289166867 -0.67504506775 
-0.43221791358 -0.59840428117 -0.67461099269 -0.37912698938 -0.63780257493 -0.67042568667 0.49383731371 -0.85114378593 -0.17798585127 
0.49383731371 -0.85114378593 -0.17798585127 
