# vtk DataFile Version 4.2
vtk output
ASCII
DATASET POLYDATA
POINTS 64 float
0 0 0 -0.908598 0.35039 0.374358 -1.8152 0.527896 0.688743 
-2.79224 0.535578 1.00203 -3.73091 0.318259 1.30993 -4.59515 -0.0990312 1.63874 
-5.36493 -0.657178 1.99213 -6.06445 -1.29273 2.36096 -6.73165 -1.96488 2.72494 
-7.40134 -2.65466 3.04911 -8.09681 -3.35759 3.27524 -8.81415 -4.07343 3.30707 
-9.48253 -4.77995 3.02423 -9.96585 -5.4207 2.40648 -10.1927 -5.96647 1.5829 
-10.1917 -6.44471 0.688584 -10.0116 -6.89857 -0.200479 -9.68914 -7.36718 -1.04035 
-9.251 -7.88639 -1.79354 -8.72051 -8.49262 -2.40974 -8.1323 -9.21688 -2.80334 
-7.57148 -10.0654 -2.75949 -7.35162 -10.6778 -2.00998 -7.52177 -10.7266 -1.01342 
-7.81752 -10.4502 -0.0840015 -8.11291 -10.0213 0.786805 -8.32661 -9.54114 1.65437 
-8.34832 -9.15298 2.59133 -8.09657 -9.09581 3.56842 -7.69422 -9.40436 4.44598 
-7.2806 -9.93017 5.20815 -6.90791 -10.5852 5.88721 -6.60011 -11.331 6.5021 
-6.37126 -12.145 7.06254 -6.22274 -13.0061 7.57799 -6.14035 -13.8927 8.06439 
-6.09688 -14.787 8.5415 -6.06272 -15.6789 9.02403 -6.01291 -16.5641 9.51729 
-5.92507 -17.4409 10.0202 -5.77536 -18.3061 10.5285 -5.53271 -19.15 11.0365 
-5.16272 -19.9507 11.5373 -4.64371 -20.6747 12.0221 -3.98533 -21.2915 12.4857 
-3.22306 -21.7892 12.9331 -2.39533 -22.171 13.3783 -1.53202 -22.4418 13.8371 
-0.655399 -22.6014 14.322 0.216196 -22.6466 14.8391 1.06831 -22.579 15.3854 
1.89575 -22.4139 15.9487 2.70671 -22.1822 16.5127 3.51741 -21.9211 17.064 
4.34164 -21.6663 17.598 5.18377 -21.4519 18.1216 6.03857 -21.3155 18.6507 
6.88864 -21.307 19.204 7.68921 -21.4944 19.7973 8.34181 -21.9427 20.4295 
8.7162 -22.6359 21.0628 8.74429 -23.4699 21.6567 8.51442 -24.2726 22.1627 
8.04448 -25.0725 22.6397 
LINES 1 65
64 0 1 2 3 4 5 6 7 8 9 10 11 12 13 14 15 16 17 18 19 20 21 22 23 24 25 26 27 28 29 30 31 32 33 34 35 36 37 38 39 40 41 42 43 44 45 46 47 48 49 50 51 52 53 54 55 56 57 58 59 60 61 62 63 

CELL_DATA 1
FIELD FieldData 2
Length 1 1 double
63.87167266 
Tortuosity 1 1 double
0.83930034341 
POINT_DATA 64
SCALARS MaximumInscribedSphereRadius float
LOOKUP_TABLE default
1.581 1.25057 1.0182 1.13571 1.15058 1.00426 1.12753 1.29499 1.46077 
1.42187 1.0627 1.14631 1.55535 1.3395 1.15125 1.03255 1.09553 1.23001 
1.55084 1.79269 1.66206 1.69724 1.84759 1.90444 2.06413 1.91961 1.67613 
1.7903 1.85861 1.70743 1.37273 1.30506 1.35585 1.30612 1.28581 1.47475 
1.65494 1.77632 1.60592 1.29948 1.41162 1.63376 1.98149 2.05517 1.85598 
1.78376 1.77138 2.00302 2.16313 2.17 2.17 2.17 2.17 2.17 
2.17 1.91909 1.39746 1.75022 2.35397 1.82543 1.55 1.55 1.55 
1.55 
TEXTURE_COORDINATES TCoords 2 float
0 0 0.015873 0 0.031746 0 0.047619 0 0.0634921 
0 0.0793651 0 0.0952381 0 0.111111 0 0.126984 0 
0.142857 0 0.15873 0 0.174603 0 0.190476 0 0.206349 
0 0.222222 0 0.238095 0 0.253968 0 0.269841 0 
0.285714 0 0.301587 0 0.31746 0 0.333333 0 0.349206 
0 0.365079 0 0.380952 0 0.396825 0 0.412698 0 
0.428571 0 0.444444 0 0.460317 0 0.47619 0 0.492063 
0 0.507937 0 0.52381 0 0.539683 0 0.555556 0 
0.571429 0 0.587302 0 0.603175 0 0.619048 0 0.634921 
0 0.650794 0 0.666667 0 0.68254 0 0.698413 0 
0.714286 0 0.730159 0 0.746032 0 0.761905 0 0.777778 
0 0.793651 0 0.809524 0 0.825397 0 0.84127 0 
0.857143 0 0.873016 0 0.888889 0 0.904762 0 0.920635 
0 0.936508 0 0.952381 0 0.968254 0 0.984127 0 
1 0 
FIELD FieldData 7
Curvature 1 64 double
0 0.1681937149 0.17796960834 0.22230857618 0.21127946837 0.16772552251 0.10295956565 0.047694702447 0.042384637233 
0.099579658403 0.19232272995 0.31808726314 0.39290390788 0.34318308958 0.24484323172 0.17719333669 0.1479098647 0.14970499823 
0.18306281259 0.25583038225 0.46529414195 0.97020673264 0.83512553347 0.35695497576 0.15986848665 0.093970603839 0.22029984171 
0.44057942399 0.41501850683 0.24317829439 0.15550597249 0.12558534443 0.11474578011 0.10075065528 0.074521656516 0.039601282501 
0.01072123046 0.019549939506 0.038993964002 0.061434296544 0.092847571825 0.13144878655 0.1648019753 0.17348237168 0.15536616259 
0.12993151885 0.11441568356 0.11210171978 0.11598884771 0.11518449139 0.099360547049 0.066734196882 0.031118067255 0.022197947614 
0.044123570221 0.077077392506 0.12710313299 0.20237169141 0.30111955741 0.37445734865 0.37563382497 0.27503887503 0.23112489892 
0 
Torsion 1 64 double
0 0 0.18917141483 0.14392218637 0.13639466483 0.089942835369 -0.010638872187 -0.6553362684 -0.8974554539 
-0.016518159439 0.11090832601 0.12262039182 0.12988702166 0.16676384265 0.24196646699 0.3268439698 0.37230986544 0.34436203058 
0.25327493706 0.16438101558 0.033668168428 -0.028031282286 -0.069512310794 -0.20452836012 -0.56864122562 -1.6953238721 -0.49994342646 
-0.18409370366 -0.17368486745 -0.25640087257 -0.27617669232 -0.21674367839 -0.14764707296 -0.11883850557 -0.14601693896 -0.30360085126 
-2.2290520187 -0.60340437852 -0.20485142169 -0.089462501737 -0.013402867142 0.025279458866 0.047980328443 0.077328915743 0.12711884522 
0.18779930845 0.20570420069 0.1531710827 0.077417325196 0.010177014068 -0.05990443935 -0.20237834215 -0.83197266765 -1.431682079 
-0.51400705493 -0.27086470697 -0.15614406589 -0.11415383172 -0.10201711685 -0.10736375072 -0.10238634521 -0.12140299294 0 
0 
Abscissas 1 64 double
0 1.0432965334 2.0191378137 3.045206064 4.0567111622 5.0711838359 6.0855622332 7.1001046253 8.1147067072 
9.129281346 10.143650524 11.157562461 12.170425852 13.1832247 14.196950187 15.211105726 16.225447562 17.239815111 
18.254132815 19.268351093 20.280998822 21.299087074 22.291619105 23.303782647 24.317516799 25.332181448 26.346505825 
27.360922726 28.371536416 29.385048421 30.399182833 31.413605039 32.428035821 33.442497824 34.457007864 35.471574353 
36.486174586 37.500778909 38.515375733 39.529950355 40.544489189 41.558959499 42.573296883 43.587499875 44.60175829 
45.616136873 46.630578633 47.6450386 48.659491596 49.67392837 50.688378816 51.70289981 52.717482179 53.732083017 
54.746678165 55.761248113 56.775736701 57.790039199 58.803965693 59.817189948 60.828018505 61.852197675 62.828562107 
63.871702203 
ParallelTransportNormals 3 64 double
0.38094904351 0 0.92459603409 0.3301516765 0.014611806382 0.94381479413 0.30541471369 0.017102092523 0.95206584388 
0.30799565823 0.01738673307 0.95122887678 0.34288975739 0.029662712551 0.93890720402 0.38390874177 0.054149513204 0.9217819201 
0.41040518077 0.075675873446 0.9087578059 0.41444225261 0.07953860775 0.90659319936 0.38941596155 0.054043703068 0.91947511497 
0.32232027163 -0.014405793548 0.94652105925 0.19002201795 -0.14726191326 0.97067273661 -0.015888024464 -0.35862046184 0.93334823888 
-0.21350827815 -0.5897991585 0.77881394941 -0.30999143831 -0.75096817746 0.58305411809 -0.32812671905 -0.8331648425 0.44516199463 
-0.32131514752 -0.86821151857 0.37810757066 -0.31780054653 -0.87466234921 0.36601719563 -0.33237619414 -0.8557316654 0.39654682246 
-0.37895461168 -0.80161317737 0.46239562732 -0.47629056198 -0.68584620253 0.5502383911 -0.67469246182 -0.41434399014 0.6108266037 
-0.93732852182 0.078873331399 0.33940276926 -0.95233986405 0.26583508135 -0.1496011125 -0.90177947346 0.24115468361 -0.35866167879 
-0.8851580162 0.22132533324 -0.40928032353 -0.89994676692 0.24773367359 -0.35878105257 -0.9254777856 0.34189915399 -0.1630823009 
-0.88148741245 0.42675320432 0.20214263356 -0.77884415499 0.38737679609 0.49329605724 -0.7184869736 0.32566433432 0.61458865115 
-0.69398266753 0.28886651571 0.65950298958 -0.68617390531 0.27279162953 0.67435161343 -0.68586789608 0.27190217309 0.67502180513 
-0.6880635922 0.28164876163 0.66876189198 -0.69018657468 0.29771675889 0.65955077409 -0.69131193523 0.31363958775 0.65093626201 
-0.69171794551 0.32298214142 0.64591703817 -0.69164577055 0.32145467232 0.64675576667 -0.69048576716 0.30660628563 0.65515035752 
-0.68636789436 0.27640926158 0.67267899752 -0.67528119274 0.22811753163 0.70139696499 -0.65099087603 0.16291213913 0.74139767618 
-0.60904198265 0.090965727564 0.78790424531 -0.55607014636 0.0306424695 0.8305703049 -0.50918538704 -0.0061377908125 0.8606349802 
-0.48124865627 -0.021591270638 0.8763181773 -0.47500645235 -0.024000376171 0.879654962 -0.48689477283 -0.021059498019 0.87320672108 
-0.51083345034 -0.018254991198 0.8594858587 -0.53857434014 -0.018616060579 0.84237231817 -0.55970878187 -0.021544153823 0.82840927622 
-0.56630229089 -0.02314085982 0.82387269401 -0.55770869818 -0.020528974759 0.82978284459 -0.54037828926 -0.015060152098 0.84128740411 
-0.52598378623 -0.011007369696 0.85042336189 -0.52499802096 -0.01080357996 0.85103487628 -0.54537799459 -0.012535045697 0.83809648349 
-0.59645947839 -0.0069963177662 0.8026126975 -0.68426566129 0.031420846827 0.72855558139 -0.77950628726 0.13734228839 0.61115222649 
-0.82504518557 0.30906554849 0.4730527756 -0.80541536917 0.46349736824 0.36942695183 -0.74410625275 0.60551685436 0.28223257023 
-0.74410625275 0.60551685436 0.28223257023 
FrenetTangent 3 64 double
-0.90220380012 0.26237867625 0.34232401801 -0.90220380012 0.26237867625 0.34232401801 -0.94461481578 0.092868688294 0.31476698771 
-0.94612876907 -0.10353528158 0.30679113058 -0.89492211116 -0.31500506971 0.31604781444 -0.8082777122 -0.4825056802 0.33745430584 
-0.72516155231 -0.58914079888 0.35644612798 -0.67374196583 -0.64464842706 0.36124807123 -0.65898418381 -0.67132687783 0.33920505389 
-0.6737009153 -0.6872964796 0.27157066457 -0.69983255129 -0.70278493743 0.1277800136 -0.69231186226 -0.71061781904 -0.12540574405 
-0.57929169229 -0.67766111984 -0.45298624912 -0.35554773692 -0.59403230725 -0.72160337077 -0.11221513938 -0.5087860888 -0.8535481699 
0.089635770166 -0.46134256166 -0.88268254175 0.24841686569 -0.45597994931 -0.8546176611 0.37599357596 -0.48831771201 -0.78751167799 
0.47953834221 -0.55716989753 -0.67794150458 0.5564784553 -0.66182962274 -0.50230795261 0.580626906 -0.79475592313 -0.17673544829 
0.42506372977 -0.79544000507 0.43196761913 0.026615082966 -0.35401233761 0.93486196958 -0.23358567583 0.11411060096 0.96561716161 
-0.29238213237 0.34884602914 0.89040391768 -0.25119177595 0.4485429958 0.85773648203 -0.11674983614 0.43063754908 0.89494177301 
0.11626432448 0.22507408975 0.9673801016 0.32991765162 -0.12679207421 0.93545609895 0.40542478282 -0.41456217109 0.81472016777 
0.388814334 -0.58390150851 0.71265871358 0.33608240528 -0.6918461615 0.6390598608 0.26495581739 -0.77010780053 0.58028647269 
0.18623562759 -0.82667748266 0.5309619861 0.11387918295 -0.86192178133 0.49408741591 0.06203852776 -0.87783430892 0.47492962338 
0.038257449039 -0.88027052858 0.47292722918 0.041382628381 -0.87580125034 0.48089463291 0.067848650602 -0.86850258988 0.49101915644 
0.11712422887 -0.85889565151 0.49857815318 0.19358787194 -0.84325881173 0.50143624946 0.30264562944 -0.81243642971 0.49834994798 
0.43977362545 -0.75424405537 0.4875603176 0.58264852651 -0.66351394995 0.46932923708 0.70244253275 -0.55106613211 0.4504448981 
0.78540271747 -0.4344409939 0.4409122296 0.83486836451 -0.32218904643 0.44630598505 0.85895823127 -0.21247760217 0.46587984021 
0.86315010163 -0.10111707566 0.49471935384 0.85102034605 0.011059159131 0.52501625271 0.82883975403 0.11483482754 0.54757430959 
0.80790671664 0.19566538922 0.55587929685 0.79927166862 0.24288746533 0.54970035377 0.80576308793 0.25425732493 0.53488228504 
0.821413138 0.23128683016 0.52133181269 0.83695144946 0.17301963693 0.51920754663 0.84206041617 0.071568885933 0.53461401972 
0.81806015461 -0.08866304492 0.56825737823 0.7249856738 -0.31715041018 0.61140116954 0.51613271645 -0.57368209642 0.63599989879 
0.20123123458 -0.7635668513 0.61357285942 -0.10179398286 -0.82568101521 0.55487732535 -0.34884483908 -0.79887219496 0.49001070842 
-0.34884483908 -0.79887219496 0.49001070842 
FrenetNormal 3 64 double
-0.34746162282 -0.91237161248 -0.21644505402 -0.34746162282 -0.91237161248 -0.21644505402 -0.12901445557 -0.9869876943 -0.095971670575 
0.10752913773 -0.99419426763 -0.0039041960636 0.35968365143 -0.92841507648 0.0931295692 0.55077725104 -0.82220421482 0.14361284368 
0.66596475768 -0.73163896043 0.14558630813 0.65959708167 -0.74502716108 -0.099328843261 -0.05751204575 -0.40468333605 -0.91264657021 
-0.25363970486 -0.13011180584 -0.95850812104 -0.11321135897 -0.067497481172 -0.99127558138 0.15137916143 0.026896388273 -0.9881097782 
0.4765564184 0.16929065579 -0.86269035809 0.75022859794 0.27907898199 -0.5993930035 0.91913912777 0.27327452808 -0.28373278999 
0.99036016192 0.13525557884 0.029877718643 0.94058180556 -0.097311488578 0.32532497788 0.75546700279 -0.33057541617 0.56567614579 
0.49483236453 -0.46632444455 0.73326832976 0.22670185204 -0.46067692974 0.85812763427 -0.067185663486 -0.26310518666 0.96242493077 
-0.40229277535 0.26148684193 0.87737401055 -0.53631526442 0.78414994545 0.31220954535 -0.35272728657 0.91549765565 -0.19351357526 
0.0038240337393 0.93151019413 -0.3636951127 0.84577067454 0.53265354312 -0.030857237311 0.85744141464 -0.41100385093 0.30962889882 
0.63523706064 -0.76558166688 0.10177714934 0.36688094316 -0.89581912374 -0.25081162469 0.044733908284 -0.88118821415 -0.47064446103 
-0.25817901384 -0.81158344671 -0.52409532133 -0.50409046261 -0.70529454756 -0.4984500042 -0.67088753589 -0.57948371014 -0.4627186444 
-0.77690594192 -0.45472476041 -0.43547967768 -0.86347125972 -0.33183939043 -0.37986840167 -0.95505153784 -0.19041498247 -0.22719747914 
-0.84390932728 0.2249818557 0.48703204405 0.77781923163 0.33033682469 0.53467263364 0.94776965632 0.20984385938 0.2402045654 
0.97934395219 0.18321108083 0.085551874187 0.97496739711 0.22233373724 -0.0025067604211 0.9459655437 0.31991742382 -0.052934224036 
0.8854185054 0.45504708656 -0.094690122512 0.78653557372 0.60576493092 -0.12004432405 0.65370977307 0.74982628749 -0.10209834071 
0.49117757823 0.87089693175 -0.016826197106 0.30310374159 0.94588973878 0.11584784807 0.11601220208 0.96693612528 0.22710283707 
-0.042428248495 0.96175597877 0.27060170182 -0.16489616875 0.95483733368 0.24717386539 -0.24234412258 0.95581815685 0.16637601173 
-0.24143304637 0.97037261505 0.0093312422227 -0.0069188691665 0.91834709376 -0.39571548445 0.59052020571 -0.27618539588 -0.75829249881 
0.39544774093 -0.88964152679 -0.22838353269 0.16031902714 -0.98460298432 0.069676199747 -0.035028771289 -0.98180973581 0.18660822021 
-0.23874642688 -0.95124459554 0.19527893669 -0.4874443066 -0.86340270963 0.13012996951 -0.74728286917 -0.66446833796 0.0070810515911 
-0.92917715475 -0.34706853607 -0.12717407897 -0.97356656753 -0.031956736752 -0.22615681629 -0.9324708222 0.24351608622 -0.26682968631 
-0.9324708222 0.24351608622 -0.26682968631 
FrenetBinormal 3 64 double
0.25553614955 -0.31422200908 0.91431165654 0.25553614955 -0.31422200908 0.91431165654 0.30175838028 -0.13126575347 0.94430460229 
0.30541420542 0.029295113519 0.95176885821 0.26408726938 0.19702094261 0.94416135397 0.20816233975 0.30194121566 0.93032249387 
0.17501904065 0.34295415245 0.92290345364 0.33317180752 0.17135616342 0.9271642853 0.74995480536 -0.62092803176 0.2280705358 
0.69411380684 -0.71462890167 -0.086669233557 0.70527837649 -0.70819306814 -0.032326303377 0.70554137714 -0.70306393704 0.088952040893 
0.66129805332 -0.71562286193 0.22487508568 0.55744314294 -0.75448031104 0.34643412453 0.3776122698 -0.81636863496 0.43697966262 
0.10560387486 -0.87685173729 0.46901903204 -0.23150578369 -0.88465403408 0.40471262903 -0.53656168195 -0.80762968392 0.24461368546 
-0.72469573572 -0.68709767698 0.052085246762 -0.79933597384 -0.59140368352 -0.10631878504 -0.81139292741 -0.54693572146 -0.20616215448 
-0.81085223594 -0.54671732169 -0.20885119495 -0.84359799342 -0.50969022737 -0.1689920046 -0.90610219807 -0.38580152054 -0.17359721597 
-0.95629392209 -0.10293301796 -0.27369093587 -0.47071717389 0.71769727874 -0.51316270158 0.50116234518 0.80350926307 -0.32126183703 
0.76351586994 0.60268264075 -0.23198523853 0.86980038899 0.42594819809 -0.24902894581 0.91303319925 0.22725654566 -0.33871055421 
0.88440206382 0.01978224944 -0.46630639296 0.79557615749 -0.15462370454 -0.58579013958 0.69260979564 -0.26670696513 -0.67019330475 
0.60144280561 -0.33140569085 -0.72693659947 0.49137451636 -0.38337118022 -0.78203428496 0.289875458 -0.43948727005 -0.85019007187 
-0.53512000049 -0.41774030344 -0.73426127772 -0.62712416711 0.35192293496 0.69488526166 -0.31165564196 0.44907550151 0.83737802382 
-0.16482517504 0.47825930172 0.86261271843 -0.10937234752 0.48936927337 0.86519096382 -0.11642513953 0.48744219105 0.86535847905 
-0.15044344004 0.47333714618 0.86793935122 -0.20465210926 0.43908778928 0.87482536971 -0.28149248795 0.36617844916 0.88694719268 
-0.37667911814 0.22978154208 0.8973924921 -0.45948115932 0.038559310511 0.8873501247 -0.49873031381 -0.14102410508 0.85520773843 
-0.50316174912 -0.25455996211 0.82584955041 -0.49857158377 -0.29692315707 0.8144096111 -0.50427570672 -0.27060046824 0.82004963155 
-0.5375842458 -0.14174640532 0.83121064433 -0.60093005333 0.31248087073 0.73568932059 -0.045074746619 0.92686290239 -0.37268408524 
0.41097632647 0.39375672186 -0.82222509271 0.52326865067 0.024923252387 -0.85180323474 0.53824459189 -0.1758622678 -0.8242361446 
0.52323773477 -0.29541933574 -0.79934328607 0.48661465324 -0.39236638277 -0.78054775698 0.41853952317 -0.47892659155 -0.77165665127 
0.31005774514 -0.54452648683 -0.77932990435 0.20446545829 -0.56323141612 -0.80060242834 0.093837327265 -0.55000284716 -0.82987434237 
0.093837327265 -0.55000284716 -0.82987434237 
