# vtk DataFile Version 4.2
vtk output
ASCII
DATASET POLYDATA
POINTS 64 float
0 0 0 -1.01409 0.219974 0.128202 -1.94297 0.374187 0.376496 
-2.90772 0.465001 0.714193 -3.84221 0.451146 1.10306 -4.76311 0.313355 1.50598 
-5.66606 0.0392874 1.87808 -6.55022 -0.367172 2.16396 -7.41084 -0.886979 2.29577 
-8.2253 -1.48312 2.20221 -8.93861 -2.11202 1.85163 -9.49007 -2.75046 1.28942 
-9.84878 -3.40844 0.606333 -10.0147 -4.10703 -0.109846 -10.0127 -4.85087 -0.799374 
-9.8806 -5.63265 -1.43212 -9.65729 -6.44432 -1.99822 -9.37389 -7.2836 -2.49257 
-9.05331 -8.1555 -2.90074 -8.71581 -9.07108 -3.17543 -8.39443 -10.0306 -3.16352 
-8.19431 -10.811 -2.56758 -8.14503 -11.1627 -1.61352 -8.13322 -11.3157 -0.61173 
-8.11049 -11.4297 0.396334 -8.05718 -11.5991 1.39516 -7.9692 -11.9066 2.35761 
-7.86322 -12.4128 3.22942 -7.77301 -13.1105 3.95955 -7.72211 -13.9353 4.54764 
-7.71175 -14.8287 5.02829 -7.73022 -15.756 5.43933 -7.7605 -16.6986 5.81367 
-7.78449 -17.6447 6.17916 -7.78548 -18.5859 6.55802 -7.74917 -19.5151 6.96394 
-7.66258 -20.4266 7.40078 -7.51087 -21.3156 7.86546 -7.27577 -22.175 8.35068 
-6.93559 -22.9918 8.84673 -6.47013 -23.745 9.34162 -5.86922 -24.4054 9.82255 
-5.14064 -24.9442 10.278 -4.30914 -25.3421 10.7011 -3.40722 -25.5941 11.0906 
-2.46578 -25.7073 11.4509 -1.50926 -25.6954 11.7885 -0.554757 -25.575 12.1104 
0.387307 -25.3656 12.4233 1.31276 -25.0901 12.7347 2.22332 -24.7764 13.0539 
3.12514 -24.4594 13.394 4.02494 -24.1827 13.7723 4.92179 -23.9976 14.2085 
5.79723 -23.9537 14.7186 6.6131 -24.0851 15.3062 7.3263 -24.3937 15.9576 
7.90959 -24.8553 16.6469 8.35292 -25.4436 17.344 8.65273 -26.1413 18.0164 
8.80564 -26.9344 18.627 8.79802 -27.8251 19.1327 8.65109 -28.7236 19.4812 
8.32905 -29.7044 19.6439 
LINES 1 65
64 0 1 2 3 4 5 6 7 8 9 10 11 12 13 14 15 16 17 18 19 20 21 22 23 24 25 26 27 28 29 30 31 32 33 34 35 36 37 38 39 40 41 42 43 44 45 46 47 48 49 50 51 52 53 54 55 56 57 58 59 60 61 62 63 

CELL_DATA 1
FIELD FieldData 2
Length 1 1 double
63.889410312 
Tortuosity 1 1 double
0.74688606286 
POINT_DATA 64
SCALARS MaximumInscribedSphereRadius float
LOOKUP_TABLE default
1.24 1.58512 1.75913 1.51511 1.35363 1.46955 1.50273 1.37519 1.10939 
1.06995 1.45724 1.14738 0.936973 1.07596 1.19249 1.28413 1.23855 1.17307 
1.38778 1.80538 1.81956 1.25659 0.831426 1.15664 1.52115 1.81036 1.6605 
1.81332 2.3556 2.06596 1.6229 1.55 1.59111 1.72735 1.89025 2.05411 
2.05327 1.74211 1.48667 1.32183 1.438 1.71518 1.61194 1.3257 1.68574 
2.00535 1.95541 1.87441 1.86 1.89232 2.05293 2.21652 2.38512 2.31502 
2.0061 1.97081 2.07117 2.13596 2.1008 1.94568 1.96909 2.18398 2.60772 
3.1 
TEXTURE_COORDINATES TCoords 2 float
0 0 0.015873 0 0.031746 0 0.047619 0 0.0634921 
0 0.0793651 0 0.0952381 0 0.111111 0 0.126984 0 
0.142857 0 0.15873 0 0.174603 0 0.190476 0 0.206349 
0 0.222222 0 0.238095 0 0.253968 0 0.269841 0 
0.285714 0 0.301587 0 0.31746 0 0.333333 0 0.349206 
0 0.365079 0 0.380952 0 0.396825 0 0.412698 0 
0.428571 0 0.444444 0 0.460317 0 0.47619 0 0.492063 
0 0.507937 0 0.52381 0 0.539683 0 0.555556 0 
0.571429 0 0.587302 0 0.603175 0 0.619048 0 0.634921 
0 0.650794 0 0.666667 0 0.68254 0 0.698413 0 
0.714286 0 0.730159 0 0.746032 0 0.761905 0 0.777778 
0 0.793651 0 0.809524 0 0.825397 0 0.84127 0 
0.857143 0 0.873016 0 0.888889 0 0.904762 0 0.920635 
0 0.936508 0 0.952381 0 0.968254 0 0.984127 0 
1 0 
FIELD FieldData 7
Curvature 1 64 double
0 0.14247554163 0.10304543 0.11550027614 0.12261468789 0.13754091006 0.15561128901 0.18909025926 0.23923058045 
0.27593114513 0.26402338511 0.22498693635 0.19617650037 0.17234331442 0.14356378944 0.11392839874 0.095036111837 0.096764753632 
0.13819403473 0.28900613885 0.67895080442 0.61756626524 0.20344760001 0.039847172219 0.062181872702 0.14358397323 0.21567335855 
0.23555035304 0.19100325613 0.13055990221 0.080404801008 0.040312607312 0.011080619135 0.026284930636 0.046281764344 0.059922545204 
0.072297400884 0.088434043921 0.11103017297 0.13721326848 0.16125172018 0.17454532976 0.17384832763 0.16191340299 0.14387737929 
0.12492338057 0.10685759909 0.087925882222 0.066307835008 0.040560474949 0.022242031086 0.054017832182 0.10564396809 0.15730139159 
0.19710904527 0.21097934214 0.20067087372 0.18531966574 0.17850398137 0.18238012317 0.20949334665 0.20669767577 0.25821243481 
0 
Torsion 1 64 double
0 0 -0.40630959765 -0.31505319308 -0.32843024908 -0.30421284651 -0.32041124745 -0.26338948198 -0.12176973676 
0.025342722358 0.16661909583 0.29648910047 0.30392483673 0.22322825285 0.17503865122 0.18899045466 0.25365339938 0.28930713273 
0.1923719643 0.023652969832 -0.024704371364 -0.049093775291 -0.1999358698 -1.618646047 -0.50461859785 -0.15687629325 -0.11417513132 
-0.10496129624 -0.10416835341 -0.082844955669 -0.020844042138 0.1693715393 2.5401086071 0.30846580104 -0.0046290202339 -0.097281196131 
-0.1314377344 -0.1121249454 -0.067084290154 -0.021335860472 0.011683726231 0.033195785145 0.048277986968 0.061042154896 0.071882583795 
0.076378541136 0.07772883932 0.087549630672 0.14109793517 0.43289097339 1.8152756769 0.34062771267 0.061076744667 -0.0063799980054 
-0.030260226606 -0.031861413467 -0.0066325678048 0.04294038278 0.086285534665 0.10915585865 0.081442400032 0.079271228441 0 
0 
Abscissas 1 64 double
0 1.0455595649 2.0193437377 3.0455130388 4.0577864522 5.0723680584 6.0867136419 7.100944461 8.1149712394 
9.1286203033 10.142145307 11.155941802 12.169956162 13.184093963 14.198366156 15.212753433 16.227229534 17.241667756 
18.256344113 19.270074574 20.282067892 21.284158785 22.302161666 23.315640241 24.330386022 25.344875906 26.359063054 
27.372749824 28.386675683 29.400970472 30.415430477 31.429988937 32.444590077 33.45919412 34.473780323 35.488347494 
36.50289522 37.517417456 38.531889465 39.546287612 40.56059222 41.574801856 42.588973278 43.603193272 44.617480976 
45.631839473 46.64626158 47.660740665 48.6752672 49.689833205 50.704429482 51.719027913 52.733556932 53.747914729 
54.76207881 55.776069752 56.790086111 57.804203257 58.818390651 59.832708707 60.845194302 61.869486364 62.844423013 
63.889462731 
ParallelTransportNormals 3 64 double
0.12542266075 0 0.99210339994 0.25432776752 -0.024708633507 0.96680239455 0.3273170926 -0.03422181275 0.94429465127 
0.38439500507 -0.036513455469 0.92244633863 0.40496385222 -0.034833897145 0.9136689105 0.39059202102 -0.038079445284 0.91977596673 
0.33210972208 -0.060349685331 0.94130815782 0.22049319035 -0.1196053931 0.96802753212 0.056089850443 -0.22913320927 0.97177770148 
-0.12321639507 -0.37291141619 0.91964927862 -0.25534766938 -0.50530847011 0.82429419371 -0.31766175721 -0.59406412704 0.73903912005 
-0.33352021868 -0.63506982165 0.6967428402 -0.33421964432 -0.6412255523 0.69074381679 -0.33553577639 -0.62625108689 0.70372247295 
-0.34159980549 -0.59905987503 0.72418011504 -0.3534372288 -0.56049214554 0.748953056 -0.37392923754 -0.50243550039 0.77957391777 
-0.41241868622 -0.39788955361 0.81950883484 -0.49740804941 -0.15600676457 0.85337396362 -0.6488755938 0.34966883233 0.67579003505 
-0.71389346114 0.64427094813 0.27435573903 -0.71891892553 0.68580968129 0.11322835147 -0.71924810632 0.68835558231 0.094067815211 
-0.71699210613 0.67994736408 0.1536030658 -0.70841188434 0.65098848336 0.27270239576 -0.69247860335 0.58414577616 0.42337583315 
-0.67690517928 0.48858089573 0.55053436458 -0.6690346486 0.40366110148 0.62405957578 -0.66701458168 0.34700569614 0.65930159613 
-0.6671664423 0.31290948168 0.67600043976 -0.66767985562 0.29321337084 0.68427299345 -0.66797822901 0.28282845388 0.6883408685 
-0.66803593889 0.27846803843 0.69006053062 -0.66798673537 0.27586249207 0.69115382284 -0.66754523132 0.26924954257 0.69418156701 
-0.66545131986 0.25342791082 0.70210315119 -0.65913283156 0.22486972039 0.71761934144 -0.64457171202 0.18244447445 0.74245627603 
-0.61703434275 0.12878136238 0.77632723807 -0.57400220896 0.071736049867 0.81570546354 -0.5184321476 0.021611096224 0.85484564037 
-0.45878408416 -0.014199863366 0.88843431271 -0.4044310659 -0.034580113533 0.91391450841 -0.3615767042 -0.043071822862 0.93134693056 
-0.33200481371 -0.044649230083 0.94222038289 -0.31433311708 -0.043426010097 0.94831897226 -0.30653266459 -0.042069808334 0.95092999572 
-0.30727668738 -0.042263010005 0.95068126908 -0.31657543379 -0.045247260545 0.94748756199 -0.33626678799 -0.052099676649 0.9403245562 
-0.3701622162 -0.06326886945 0.92681011208 -0.42320443197 -0.07690357512 0.90276455895 -0.4983217014 -0.086611913628 0.86265512132 
-0.59109978314 -0.081808583129 0.80243903326 -0.68612905506 -0.054458226448 0.72543864066 -0.76573894456 -0.0071686323965 0.6431115607 
-0.82264158468 0.051020164195 0.56626651499 -0.85851184742 0.11309595967 0.50016668397 -0.87729535096 0.17497172539 0.44692030889 
-0.88274196622 0.23766903098 0.40531475767 -0.87803607172 0.29097072501 0.37998512333 -0.86482691611 0.34451893549 0.36521378433 
-0.86482691611 0.34451893549 0.36521378433 
FrenetTangent 3 64 double
-0.96464845955 0.18577687719 0.18692325 -0.96464845955 0.18577687719 0.18692325 -0.94808888208 0.12267832033 0.293389675 
-0.93332065235 0.037819041539 0.35704660759 -0.91716279251 -0.074962165716 0.39139888316 -0.90109665751 -0.20348407556 0.38290866381 
-0.88368879957 -0.33650650435 0.32535746194 -0.86414526151 -0.45875621964 0.206871211 -0.832077023 -0.55433457283 0.019000241247 
-0.7608413589 -0.61007995804 -0.2211851518 -0.62932626084 -0.63060476488 -0.45418728287 -0.45171636016 -0.64341213625 -0.61803976643 
-0.259938648 -0.67214083593 -0.69329546079 -0.081118040888 -0.71380435556 -0.69563151555 0.066276510282 -0.7540104284 -0.65351028917 
0.17546801486 -0.78669654111 -0.59187796712 0.25003458209 -0.81465638981 -0.52327590647 0.29801306555 -0.84432266923 -0.44531723859 
0.32522265611 -0.88337135203 -0.33746892947 0.32865337773 -0.93531061976 -0.13107632079 0.27226644393 -0.90838364695 0.31734859926 
0.128852379 -0.5848985991 0.80080627695 0.03023020314 -0.24974721635 0.96783906862 0.017033278447 -0.13166952805 0.9911473164 
0.037490533083 -0.13972820845 0.98947990767 0.06982912768 -0.23569669573 0.96931468603 0.096210630672 -0.40362181297 0.90985325555 
0.097438726332 -0.59792192215 0.79560987276 0.069897577522 -0.75415454275 0.6529665032 0.03026079375 -0.84874800461 0.52793096995 
-0.0040003302074 -0.89807130912 0.43983169632 -0.024029826407 -0.92171199228 0.38712991453 -0.02674522354 -0.93078021373 0.36459962526 
-0.012311912163 -0.93019179126 0.36686734428 0.017410504396 -0.92198107332 0.38684334657 0.060596116391 -0.9075612058 0.41552469048 
0.11752575698 -0.88797792556 0.44461545201 0.19082629223 -0.86254437281 0.46861768119 0.28398985846 -0.82746469556 0.48440885407 
0.39807529279 -0.77575427771 0.48963390598 0.5274388049 -0.69918224205 0.48265153008 0.65799976376 -0.59351555422 0.46343888247 
0.77206049518 -0.46355949493 0.43478176875 0.85738996354 -0.32145593403 0.40193100515 0.91108791726 -0.18050153676 0.37059142225 
0.93738388017 -0.050030731022 0.34468592537 0.94327494699 0.065302578811 0.3255271841 0.93565491022 0.16270379917 0.31317305554 
0.92089820728 0.23911153541 0.30785088185 0.90500472159 0.29042804024 0.31083437285 0.89320137963 0.31082961156 0.32492498827 
0.88819686064 0.29269370758 0.35417048196 0.88680269732 0.22793816881 0.40202632653 0.87645482245 0.11324798005 0.46797632335 
0.83802892509 -0.043355277475 0.54390057972 0.75823240726 -0.21818659826 0.61439256581 0.64252204935 -0.38170063757 0.66443211796 
0.50835558396 -0.51988354951 0.6865097925 0.3678380305 -0.6365413093 0.67787192365 0.2243079116 -0.7386418817 0.63568398705 
0.071732653575 -0.83132433173 0.55113907671 -0.077715843851 -0.89970027545 0.42953423842 -0.2341043408 -0.93812357215 0.2551848761 
-0.2341043408 -0.93812357215 0.2551848761 
FrenetNormal 3 64 double
0.10939286807 -0.36302281165 0.92533650022 0.10939286807 -0.36302281165 0.92533650022 0.1350259819 -0.67999950892 0.72067236112 
0.14434282718 -0.87101507769 0.46957202077 0.12534273507 -0.98656662108 0.10476402499 0.12585366668 -0.96777295258 -0.21812007437 
0.11750799417 -0.83232533256 -0.54168848251 0.1211815708 -0.5886731984 -0.79923644335 0.18915193818 -0.31579318567 -0.92978288227 
0.36332048802 -0.11804992441 -0.9241549861 0.60775635867 -0.035123718867 -0.79334641417 0.84450142902 -0.084976721787 -0.52876865749 
0.96517158658 -0.20285295832 -0.16521042875 0.95447899169 -0.25662662441 0.15202838575 0.88537699687 -0.25758275684 0.38698668814 
0.78044870132 -0.25530893795 0.57071636635 0.61590368365 -0.28318393289 0.7351663163 0.37343258909 -0.32621341223 0.86840826291 
0.12182019799 -0.31475806335 0.94132204952 -0.053514049052 -0.15700461766 0.98614694472 -0.19018860009 0.27249756427 0.9431719747 
-0.26450068858 0.75801253132 0.59620163376 -0.17973198062 0.9511409969 0.25105222397 0.26604485231 0.95615192961 0.12244845469 
0.47833185685 -0.86686110611 -0.14053632071 0.23606043181 -0.94018439953 -0.24561915115 0.082374927713 -0.90772930623 -0.41139017719 
-0.066153905327 -0.80153700742 -0.59427442024 -0.20211994173 -0.65169744105 -0.73105264823 -0.3031351444 -0.51109049474 -0.80429819745 
-0.34895120162 -0.41093345495 -0.84223913142 -0.28462603053 -0.36490772681 -0.88647074044 0.55112976579 -0.31802000239 -0.7714397315 
0.85028512718 0.18332759138 0.49336213549 0.78329173279 0.25303871768 0.56782520963 0.81608788025 0.28474565582 0.50291200344 
0.87625510437 0.30340353963 0.37433044788 0.91796777491 0.32591748443 0.22608174974 0.92294871023 0.37282076513 0.095761972445 
0.8917453922 0.45246443294 -0.0081297244282 0.82256793606 0.56240042093 -0.084188818177 0.71656715479 0.68268086159 -0.1431025992 
0.57961498085 0.79419496912 -0.1824851364 0.42576590186 0.8817636008 -0.20301810046 0.26758908374 0.94283540191 -0.19863908772 
0.11739784312 0.97710400111 -0.17744158885 -0.019015702672 0.9894829308 -0.14339432595 -0.13797036642 0.98540148602 -0.099740108942 
-0.24429484961 0.96944677652 -0.022203016396 -0.35771851746 0.91500039837 0.1865790268 -0.38216598808 0.14399436026 0.9128059935 
-0.035393124719 -0.7249598002 0.68788125052 -0.025426897128 -0.84452574142 0.53491096921 -0.13221283105 -0.87797714683 0.46008248929 
-0.29608520228 -0.87343641024 0.38657779329 -0.47869028179 -0.82608145111 0.29739712548 -0.63635674698 -0.74883732068 0.18518303844 
-0.74092269988 -0.67033691414 0.041011880365 -0.78815084724 -0.60027033683 -0.13599178183 -0.78878619771 -0.52067390677 -0.32667264518 
-0.75111378419 -0.40858642036 -0.51854143547 -0.70101067071 -0.25703544688 -0.66521937629 -0.61272815477 -0.061419128271 -0.78790348333 
-0.61272815477 -0.061419128271 -0.78790348333 
FrenetBinormal 3 64 double
0.23976352914 0.91307249993 0.32986673062 0.23976352914 0.91307249993 0.32986673062 0.28791570969 0.72287668214 0.62813521357 
0.32875174241 0.48979838152 0.80747745314 0.37828773546 0.14514467223 0.91423816007 0.41495260983 -0.14835681061 0.89766618982 
0.45308495541 -0.44045194211 0.77505877833 0.48843422679 -0.66558740705 0.56429195429 0.52141094358 -0.77005704026 0.36761771267 
0.53769754469 -0.78349643276 0.31147181299 0.48433528254 -0.77530894157 0.40535833432 0.28769717822 -0.76078891926 0.58174784398 
-0.029592359526 -0.71209365534 0.70146056074 -0.28703609159 -0.65163342273 0.70212831057 -0.46012498041 -0.60425110446 0.65051180247 
-0.60009232654 -0.56207285863 0.56917774133 -0.74709126633 -0.50610456102 0.43094409508 -0.87848523844 -0.42509297795 0.2180817414 
-0.93775799827 -0.34724978901 0.0052460196081 -0.94293329767 -0.31708609966 -0.1016523563 -0.94323871841 -0.3171501654 -0.098572271358 
-0.95573869345 -0.28863581055 -0.057034364239 -0.98325101066 -0.18154099245 -0.016134376298 -0.96381014935 0.26160394279 0.051316402199 
0.87737853556 0.47856854313 0.034337368427 0.96922616837 0.24596821441 -0.010013592708 0.99194651359 0.11452920456 -0.054084891365 
0.99304046011 0.0052726424006 -0.11765561534 0.97686327488 -0.080878742424 -0.19798174464 0.95246699081 -0.13569572894 -0.27275135299 
0.93713235791 -0.15684903358 -0.31173919294 0.95833740937 -0.13148898888 -0.25357455632 0.83399081187 0.18030937801 0.52148619725 
-0.52617831513 0.31801607777 0.78867113233 -0.62141044059 0.29312507194 0.72658568423 -0.57474227476 0.30863014955 0.75790418154 
-0.4672950765 0.34560309005 0.8137529205 -0.34773623684 0.38703358804 0.8539815638 -0.25983733098 0.41988909809 0.86958478985 
-0.21523525912 0.43986502196 0.87189021424 -0.21258009703 0.44141812258 0.87175669966 -0.2314472371 0.4262465579 0.87449759766 
-0.26070877575 0.39289559134 0.8818525889 -0.28914675726 0.34519419864 0.8928802372 -0.31355205194 0.28014389184 0.90730618348 
-0.3279164644 0.20679626925 0.9217950398 -0.33146761144 0.12907014706 0.93459623352 -0.32482928897 0.050113721451 0.94444404173 
-0.3037540424 -0.05475966689 0.95117551514 -0.23022579389 -0.28004611123 0.93197116877 0.23693976657 -0.93949485192 0.24740446687 
0.45809787543 -0.62350916725 -0.63354767373 0.46144820828 -0.48458277237 -0.74313194508 0.46297592972 -0.46511399104 -0.75453446829 
0.45830238239 -0.48500428574 -0.74480183211 0.44265023518 -0.51959988883 -0.73080553147 0.42686708315 -0.54180004654 -0.72404226596 
0.4388714539 -0.52949930735 -0.72596303657 0.4934707948 -0.48424238175 -0.72249283069 0.57227816235 -0.42814349627 -0.69942179799 
0.65626405479 -0.37677180437 -0.65372815284 0.708903581 -0.35280616975 -0.61072376688 0.75482406293 -0.34081058384 -0.56043624077 
0.75482406293 -0.34081058384 -0.56043624077 
