# vtk DataFile Version 4.2
vtk output
ASCII
DATASET POLYDATA
POINTS 64 float
0 0 0 -0.984268 0.0657063 0.330942 -1.92142 0.125279 0.605949 
-2.91356 0.165807 0.870805 -3.89627 0.168384 1.1086 -4.88652 0.124099 1.32853 
-5.87599 0.0258706 1.52946 -6.86065 -0.135264 1.71342 -7.83068 -0.375976 1.88768 
-8.76791 -0.720734 2.06622 -9.64347 -1.19089 2.26916 -10.433 -1.78121 2.5083 
-11.1423 -2.45864 2.76788 -11.8091 -3.18901 2.99319 -12.4852 -3.94196 3.0598 
-13.1659 -4.626 2.75554 -13.7415 -5.1335 2.09166 -14.2015 -5.53626 1.28267 
-14.579 -5.91615 0.42089 -14.878 -6.31438 -0.463005 -15.0736 -6.75179 -1.35716 
-15.1131 -7.23387 -2.24863 -14.9384 -7.74969 -3.10397 -14.5361 -8.27568 -3.87192 
-13.9556 -8.79697 -4.52003 -13.2642 -9.32214 -5.04481 -12.5113 -9.87894 -5.43461 
-11.74 -10.5076 -5.62499 -11.0845 -11.2325 -5.36685 -10.8597 -11.7654 -4.53735 
-10.928 -11.9826 -3.55027 -11.0818 -12.0224 -2.54829 -11.2574 -11.9606 -1.55097 
-11.4364 -11.8566 -0.557671 -11.6271 -11.7833 0.436012 -11.8574 -11.8612 1.42057 
-12.137 -12.2362 2.3191 -12.3967 -12.8986 3.04173 -12.5575 -13.7191 3.61579 
-12.578 -14.6115 4.09745 -12.4353 -15.5221 4.52102 -12.1228 -16.4071 4.9054 
-11.6506 -17.2307 5.26263 -11.0407 -17.9665 5.60273 -10.3192 -18.5976 5.93448 
-9.5122 -19.1159 6.26486 -8.64414 -19.5212 6.59852 -7.73704 -19.8225 6.93864 
-6.80912 -20.0383 7.28748 -5.87299 -20.1937 7.64652 -4.93552 -20.3125 8.01587 
-3.99929 -20.4114 8.39418 -3.06454 -20.4951 8.77973 -2.13113 -20.5563 9.1727 
-1.20112 -20.5813 9.57746 -0.280668 -20.5591 10.0036 0.619742 -20.4886 10.4658 
1.48674 -20.3825 10.9819 2.3047 -20.2681 11.5711 3.0518 -20.1925 12.2534 
3.69004 -20.2298 13.0391 4.14565 -20.5201 13.9064 4.35418 -21.075 14.6867 
4.34187 -21.895 15.3262 
LINES 1 65
64 0 1 2 3 4 5 6 7 8 9 10 11 12 13 14 15 16 17 18 19 20 21 22 23 24 25 26 27 28 29 30 31 32 33 34 35 36 37 38 39 40 41 42 43 44 45 46 47 48 49 50 51 52 53 54 55 56 57 58 59 60 61 62 63 

CELL_DATA 1
FIELD FieldData 2
Length 1 1 double
63.893141161 
Tortuosity 1 1 double
1.3597292883 
POINT_DATA 64
SCALARS MaximumInscribedSphereRadius float
LOOKUP_TABLE default
0.93 1.11199 1.24 1.24 1.24 1.24 1.24 1.24 1.26035 
1.2933 1.35578 1.36162 1.3638 1.54815 1.34484 0.962851 1.28582 1.58707 
1.80628 1.91295 1.83782 1.60876 1.56447 1.53936 1.36571 1.28561 1.35143 
1.32535 1.2478 1.33449 1.73449 1.8377 1.64457 1.81563 2.10488 1.94694 
1.72185 1.57704 1.63476 1.63772 1.59448 1.62203 1.67294 1.77907 1.86178 
1.87706 1.8273 1.70933 1.66942 1.66827 1.76359 1.92285 2.24735 2.31476 
2.01925 1.87838 1.881 1.87487 1.86543 1.87386 2.06719 2.50135 2.4113 
2.17 
TEXTURE_COORDINATES TCoords 2 float
0 0 0.015873 0 0.031746 0 0.047619 0 0.0634921 
0 0.0793651 0 0.0952381 0 0.111111 0 0.126984 0 
0.142857 0 0.15873 0 0.174603 0 0.190476 0 0.206349 
0 0.222222 0 0.238095 0 0.253968 0 0.269841 0 
0.285714 0 0.301587 0 0.31746 0 0.333333 0 0.349206 
0 0.365079 0 0.380952 0 0.396825 0 0.412698 0 
0.428571 0 0.444444 0 0.460317 0 0.47619 0 0.492063 
0 0.507937 0 0.52381 0 0.539683 0 0.555556 0 
0.571429 0 0.587302 0 0.603175 0 0.619048 0 0.634921 
0 0.650794 0 0.666667 0 0.68254 0 0.698413 0 
0.714286 0 0.730159 0 0.746032 0 0.761905 0 0.777778 
0 0.793651 0 0.809524 0 0.825397 0 0.84127 0 
0.857143 0 0.873016 0 0.888889 0 0.904762 0 0.920635 
0 0.936508 0 0.952381 0 0.968254 0 0.984127 0 
1 0 
FIELD FieldData 7
Curvature 1 64 double
0 0.038557949405 0.032511456282 0.042904499751 0.049256974353 0.055568183816 0.063543353897 0.079297602413 0.10638782605 
0.13853766659 0.14871300939 0.11717814029 0.073999662695 0.15707940266 0.38082586284 0.42096673336 0.20936588229 0.097993894571 
0.081345712597 0.10822495331 0.15884527173 0.21629237193 0.24080009772 0.21121396459 0.16231293279 0.14821480148 0.20935800423 
0.48869490905 0.83709952831 0.47201885774 0.19400721419 0.1013264657 0.041330916544 0.031928279079 0.15309357597 0.3123372725 
0.33794644645 0.2350702935 0.17908667963 0.17055183015 0.17250401452 0.16963044901 0.16063480807 0.14979000896 0.1382372332 
0.12535541782 0.10844200755 0.086076711193 0.060094988099 0.036976492526 0.02123688094 0.016418690782 0.023055866413 0.037142527751 
0.051225348178 0.061770097514 0.070744507533 0.086061516803 0.12019181658 0.18435922658 0.31951074119 0.38247641667 0.37310631339 
0 
Torsion 1 64 double
0 0 0.5465580578 0.20431858949 0.10994752295 0.075020428153 0.13519670747 0.17959554326 0.16610391038 
0.11228824119 0.030436521597 -0.20903358984 -1.3507344923 -0.41100478146 -0.030109655611 0.044988631526 0.22665973601 0.60276574176 
0.42665330018 0.056428380131 -0.032271002489 -0.010936457961 0.0293639749 0.098088022602 0.24621561175 0.37056241495 0.22936775749 
-0.012377931372 -0.065319955649 -0.16609639488 -0.32285876524 -0.22465465759 0.021052006605 0.4927629682 0.051533885878 0.083008683422 
0.1676882698 0.36095159019 0.41357036893 0.276067478 0.17331627677 0.12841890493 0.11287926391 0.10227350311 0.089315999457 
0.077456257459 0.073790724179 0.082604121912 0.11050038378 0.15705601482 0.15909275072 -0.068238145093 -0.037473417298 0.095365403443 
0.19240943208 0.29118552407 0.38628383179 0.43292351442 0.3717945095 0.3288783189 0.17045946196 0.12779416535 0 
0 
Abscissas 1 64 double
0 1.0404921847 2.0189767198 3.0466632827 4.0577301026 5.0730792018 6.0875137818 7.1020861591 8.1166156991 
9.1310777883 10.145396686 11.159762894 12.174359648 13.188712407 14.202864919 15.214661757 16.229378016 17.243404526 
18.258059989 19.272565283 20.287008795 21.301254668 22.315251763 23.329283049 24.3435671 25.358030835 26.37236177 
27.385494636 28.396336807 29.407538469 30.42053996 31.435039946 32.449591354 33.46422251 34.478692897 35.49281669 
36.505837101 37.519986948 38.534134942 39.548480414 40.562776085 41.577077791 42.591404987 43.605762995 44.620158426 
45.634582258 46.649045628 47.663553395 48.678109389 49.692695005 50.707292922 51.721895572 52.736499388 53.751097326 
54.765682857 55.780252329 56.794812474 57.809362104 58.823873083 59.838459244 60.85141742 61.873207801 62.853171895 
63.893067647 
ParallelTransportNormals 3 64 double
0.31869914878 0 0.94785592395 0.28171641893 0.00240951577 0.95949468656 0.25805889604 0.0036435619605 0.9661223166 
0.23520358863 0.0041388627078 0.97193731367 0.21665161066 0.0037476060579 0.97624179128 0.19876926898 0.0024600987865 0.98004322641 
0.18357693489 0.00046415288153 0.98300523576 0.17701928712 -0.00088397921877 0.98420698563 0.18641920863 0.0020015244941 0.98246825524 
0.2175995671 0.016018430162 0.97590667499 0.26002105915 0.043036761662 0.96464339833 0.28692033094 0.065789222743 0.95569268171 
0.27080608656 0.049304351006 0.96137045121 0.16820266344 -0.064020804743 0.98367128685 -0.085470228313 -0.33268251993 0.93915769762 
-0.34399959153 -0.57791512781 0.74005296167 -0.4497225805 -0.67084233047 0.58967802082 -0.48379240904 -0.70267997391 0.52171425054 
-0.49586971967 -0.7165714552 0.49054925411 -0.50266551946 -0.72805456614 0.46611578418 -0.50780326797 -0.74814734646 0.42709646337 
-0.50327203984 -0.78159324965 0.36855019471 -0.48209475805 -0.81982969541 0.30897235277 -0.45661870095 -0.8469779337 0.27226410297 
-0.44806335565 -0.85401727095 0.26437422386 -0.4728442484 -0.8354525873 0.28006658337 -0.55326462152 -0.77290481227 0.31067090264 
-0.75818745523 -0.57847374473 0.30086526783 -0.95084420894 -0.3032204255 0.062870214562 -0.96638479897 -0.22883840565 -0.11718960883 
-0.96199261523 -0.2237507491 -0.15654331833 -0.96215083353 -0.22374016524 -0.15558313534 -0.9631208171 -0.22328662502 -0.15013785249 
-0.95985972432 -0.2248498943 -0.16766584229 -0.9447329852 -0.22468491541 -0.23873892741 -0.91065363596 -0.19441378418 -0.36457267566 
-0.88318123656 -0.14157497212 -0.44715481733 -0.88288510029 -0.14053041494 -0.44806818919 -0.88930617441 -0.20120710491 -0.41067046288 
-0.88227561867 -0.30500178141 -0.3585577304 -0.85026199152 -0.43129110694 -0.30173254192 -0.79106168396 -0.56018770399 -0.24578679474 
-0.7096157269 -0.67755496316 -0.19329974658 -0.61298697405 -0.77675956459 -0.14453908978 -0.50866323907 -0.85521446819 -0.099347484238 
-0.40400975151 -0.91292303355 -0.057858927525 -0.30784270055 -0.95119751585 -0.0213578452 -0.22944758988 -0.97328751643 0.0080755092585 
-0.17445956327 -0.98423845396 0.028957322682 -0.14180011746 -0.98901853604 0.041654076065 -0.12433829204 -0.9910478819 0.048621856302 
-0.11112253595 -0.99233759189 0.054017457608 -0.091318510694 -0.99387289362 0.062270385698 -0.059774574217 -0.9953317372 0.075774225198 
-0.019485794746 -0.99539414466 0.093865864835 0.019751381573 -0.99339757911 0.11300943655 0.04557034611 -0.99081676362 0.12730076385 
0.046461122957 -0.99070014434 0.12788505801 0.010545491001 -0.99506055839 0.09870804304 -0.072100533773 -0.99733538086 0.011119852346 
-0.21590728313 -0.95443689627 -0.20599576727 -0.32860607271 -0.80894751612 -0.48746483477 -0.36414687919 -0.5693583205 -0.73704013001 
-0.36414687919 -0.5693583205 -0.73704013001 
FrenetTangent 3 64 double
-0.95186030872 0.062062486953 0.30018361115 -0.95186030872 0.062062486953 0.30018361115 -0.96180805833 0.049903104835 0.2691373981 
-0.96888490955 0.021147828348 0.2466065721 -0.97392155728 -0.020588513278 0.22594891766 -0.97572598464 -0.070239243987 0.2074252914 
-0.97345880617 -0.12789389373 0.18979226704 -0.96410530458 -0.19820147431 0.17668372101 -0.9413680871 -0.28897098272 0.17413183433 
-0.89572995448 -0.40266267808 0.18849566661 -0.82307553162 -0.52420710501 0.21852592596 -0.74000248223 -0.62591378111 0.24622807498 
-0.67872487749 -0.69435977019 0.23915904795 -0.6641159094 -0.73355887011 0.14436565715 -0.68161768059 -0.72190282208 -0.11938866352 
-0.6332884334 -0.60064357098 -0.48802977447 -0.51330337387 -0.45117783267 -0.73003986855 -0.4133389003 -0.38626802002 -0.82458957682 
-0.33367250957 -0.38379474325 -0.86102511659 -0.24413470595 -0.41247267614 -0.87764715962 -0.11626087434 -0.45470348571 -0.883022168 
0.067053593352 -0.49491868129 -0.866348264 0.2865943532 -0.51746431611 -0.80628429122 0.48728072216 -0.51925036159 -0.70209440946 
0.62903112105 -0.51753747207 -0.58006449103 0.71388839804 -0.53479572399 -0.45205850146 0.75597223337 -0.58796395087 -0.28775749312 
0.72505128457 -0.68783354126 0.034433330579 0.46787732656 -0.66851804824 0.57807821829 0.079378126395 -0.3804574801 0.92138548875 
-0.11006751427 -0.12736296697 0.98573009336 -0.16255598527 0.010856989068 0.98663958842 -0.17478808146 0.081725562065 0.98120846872 
-0.18222214421 0.08738938932 0.97936621587 -0.20815307371 -0.0022746187056 0.9780936172 -0.25459587933 -0.22613539048 0.94023599346 
-0.26981187765 -0.51901106817 0.81106661982 -0.20876212445 -0.73620316438 0.64375715619 -0.089741108015 -0.84786221734 0.52256692771 
0.060459616801 -0.89205159916 0.44787116358 0.22524251821 -0.8885006434 0.39979046346 0.38824393438 -0.84535963631 0.36692469625 
0.53513374592 -0.77117355832 0.34485245675 0.65813984613 -0.67568851348 0.33210988496 0.75525451073 -0.56793607915 0.32716851013 
0.82727221427 -0.45614384072 0.32795347242 0.87621302224 -0.34877542208 0.33257547206 0.90521952608 -0.25508628761 0.339865555 
0.919069384 -0.18302035225 0.34902008259 0.92349196274 -0.13515259457 0.35902140734 0.92342627821 -0.10728985917 0.36847360126 
0.92205773955 -0.089989064177 0.37644587031 0.92069929688 -0.071411841507 0.38368366347 0.91847165369 -0.042487961434 0.39319790756 
0.91225383081 -0.0013803577726 0.40962304962 0.89780682784 0.045707776583 0.43801107182 0.87158714672 0.08708903546 0.48244310087 
0.83119003303 0.10877221379 0.54524465563 0.77271846659 0.093809131598 0.62777863791 0.68621093072 0.018972152596 0.72715515262 
0.54446420445 -0.16306326368 0.82278132095 0.33759974552 -0.42963820452 0.83751861176 0.098795434889 -0.69225348508 0.71485982853 
0.098795434889 -0.69225348508 0.71485982853 
FrenetNormal 3 64 double
-0.30370380002 -0.058217563433 -0.95098618137 -0.30370380002 -0.058217563433 -0.95098618137 -0.23441911509 -0.65782193742 -0.71576391158 
-0.14959196929 -0.84381298332 -0.51536578457 -0.066879801687 -0.92557306067 -0.37261454815 -0.0019414163671 -0.94435759499 -0.32891482742 
0.075742864477 -0.9625895607 -0.2601621727 0.17898215095 -0.97663739131 -0.11893189449 0.29986496628 -0.9531715797 0.039305745779 
0.43380604028 -0.88439759063 0.17220110658 0.56591144332 -0.78943213658 0.23778380948 0.66873706177 -0.72387368604 0.16969864137 
0.5563390724 -0.69872043133 -0.44975170412 -0.058622245152 -0.14140949437 -0.98821393801 -0.01641090727 0.17820579036 -0.98385638098 
0.25821455591 0.43047571778 -0.86487912423 0.54100882558 0.49022911829 -0.68336290668 0.82271478558 0.22967811968 -0.51998879116 
0.93863134758 -0.21991717624 -0.26572096064 0.93094860201 -0.35310587779 -0.093010426726 0.96113036531 -0.27566478652 0.015406048895 
0.97446116763 -0.15402202013 0.16340945535 0.93270314888 -0.041612253918 0.3582363136 0.8290329843 0.022491052242 0.55874722685 
0.66759572513 -0.022671137276 0.74417872001 0.40643597425 -0.2092544215 0.88939439279 0.090827367458 -0.34112412474 0.93561996604 
-0.2412070517 -0.20679172872 0.94818581467 -0.58164557309 0.25955132243 0.77092252421 -0.63929992797 0.68976044831 0.33989134445 
-0.43210159454 0.89926198465 0.067941849883 -0.20949716314 0.9767610086 -0.04526445308 -0.079587533192 0.99211560763 -0.096811392207 
-0.35703237513 -0.93393900799 0.016905989152 -0.25338225177 -0.96573413961 -0.056169440739 -0.15833965262 -0.94940538666 -0.27121571893 
0.059858082849 -0.84971647999 -0.52383099712 0.41488320056 -0.66276054283 -0.62339425147 0.76782774795 -0.39307319436 -0.50589921264 
0.9369127404 -0.10404960309 -0.33371873933 0.9642518594 0.14449998379 -0.22212182767 0.92155343077 0.35509017762 -0.15700394901 
0.83834886103 0.5350291282 -0.1044749692 0.72850690465 0.68288024794 -0.054334674558 0.60369738357 0.79715306766 -0.0098211907104 
0.47494911369 0.8796463539 0.02540927935 0.35018991113 0.93489295811 0.057811616571 0.23543935349 0.96687413952 0.098603798933 
0.1320776112 0.97745044662 0.16476082367 0.035410206104 0.96191986826 0.27102819843 -0.057637236084 0.91046615168 0.40954772086 
-0.087177680796 0.89932024531 0.42851271667 -0.056722190911 0.94819256309 0.31259151677 -0.088359010039 0.94703594757 0.3087322454 
-0.18092304294 0.89581014147 0.40594463043 -0.31564684582 0.76035785482 0.56764689847 -0.45921873288 0.48954415076 0.74125884806 
-0.5546362245 0.093862464689 0.8267820125 -0.57518878974 -0.31479104535 0.75502612797 -0.57347152475 -0.60086571507 0.55685797359 
-0.58160143405 -0.78021098378 0.23024029338 -0.62910948886 -0.76483140449 -0.13875940953 -0.61713117546 -0.60616651841 -0.50170834579 
-0.61713117546 -0.60616651841 -0.50170834579 
FrenetBinormal 3 64 double
-0.04154460905 -0.9963729036 0.074263601029 -0.04154460905 -0.9963729036 0.074263601029 0.14132564313 -0.75151844872 0.64439668204 
0.19719096016 -0.53622049433 0.82072121131 0.21680381084 -0.3780087598 0.90005860093 0.21898637814 -0.3213334427 0.9212978806 
0.21596520822 -0.23888174809 0.94672833446 0.1961284052 -0.083039637935 0.97705581581 0.15461929562 0.089217211345 0.98393758065 
0.097366154652 0.2360162481 0.96685891554 0.047863426243 0.31938035756 0.94641707489 0.072021305968 0.29023925523 0.95424006739 
0.47939480306 -0.17220414739 0.86053840961 0.74532777437 -0.66475163707 0.050909427035 0.7315244491 -0.66865462816 -0.13331529776 
0.7295690531 -0.67373433715 -0.11752037999 0.66620499624 -0.74573049749 -0.0075450710079 0.39024522431 -0.89333363199 0.22285350986 
-0.087371904451 -0.89684894528 0.43362209315 -0.27153811107 -0.83975146949 0.47019626086 -0.25042330157 -0.8469082982 0.46907835644 
-0.21431110191 -0.85517993208 0.47195130615 -0.21892581568 -0.85469240191 0.47071476007 -0.27433885754 -0.85432617574 0.44143513305 
-0.39829109523 -0.85536014902 0.33124495306 -0.57023955841 -0.81866117575 0.067975917355 -0.64827183472 -0.73343897088 -0.20447714862 
-0.64507347873 -0.69578890509 -0.3158449091 -0.66541658725 -0.69693380618 -0.26740238444 -0.76484947221 -0.6160216147 -0.18847454758 
-0.89508287566 -0.41845735459 -0.15401327244 -0.96420251519 -0.21405620258 -0.15650383971 -0.98138420159 -0.09501343908 -0.16690564776 
0.91614571618 -0.34658480058 0.20138520983 0.94470616193 -0.25952340491 0.20044418154 0.95399658943 -0.21792704503 0.20590850008 
0.96105075859 -0.092786931982 0.26033060646 0.88560166287 0.13694292104 0.44379762403 0.63433987972 0.35584143137 0.68628696091 
0.3442951519 0.43979270631 0.82948370922 0.13958567131 0.43552997758 0.8892859377 0.0024334456701 0.39909654354 0.91690568069 
-0.10393777554 0.34501474596 0.93282461582 -0.1900779651 0.27770415865 0.94167444876 -0.25522557295 0.20492827214 0.94491497511 
-0.30007336254 0.13474082027 0.94435209983 -0.33108573784 0.065809283731 0.94130301836 -0.35375969305 -0.0092403575989 0.93529070099 
-0.37130441959 -0.10532888995 0.9225176708 -0.38197998907 -0.2375793409 0.89311104837 -0.37942305903 -0.39942492757 0.83456447894 
-0.37710685079 -0.42793114481 0.82138015461 -0.38612873213 -0.30956616771 0.86894959004 -0.3854899567 -0.31830439384 0.86607147866 
-0.36750483086 -0.44443479281 0.8169564947 -0.30709928134 -0.6478940745 0.69708198917 -0.17162168 -0.86761859383 0.46667330606 
0.038752902583 -0.98962540551 0.13834655511 0.26844743908 -0.94451386681 -0.18928689299 0.4474873952 -0.79912480244 -0.4014406323 
0.60439929019 -0.60388839435 -0.51963478059 0.70017687969 -0.48004576441 -0.52849635876 0.78063344427 -0.39159579206 -0.48709769177 
0.78063344427 -0.39159579206 -0.48709769177 
