# vtk DataFile Version 4.2
vtk output
ASCII
DATASET POLYDATA
POINTS 64 float
0 0 0 -0.913126 0.423508 0.273572 -1.78676 0.797287 0.537393 
-2.71803 1.08416 0.815957 -3.68571 1.18026 1.10223 -4.64043 1.00311 1.3895 
-5.51796 0.580974 1.67079 -6.32047 0.0233511 1.94282 -7.09972 -0.579686 2.18451 
-7.89816 -1.19044 2.31773 -8.66871 -1.83261 2.18731 -9.2591 -2.53412 1.75857 
-9.62691 -3.29717 1.20207 -9.79257 -4.12136 0.635828 -9.74594 -4.98042 0.100227 
-9.47133 -5.8123 -0.409168 -8.98096 -6.54003 -0.915922 -8.30406 -7.10222 -1.41157 
-7.42577 -7.451 -1.75762 -6.85768 -7.43103 -1.03178 -6.96413 -7.28256 -0.0238945 
-7.16387 -7.04886 0.944356 -7.37901 -6.70044 1.87204 -7.58392 -6.27753 2.77118 
-7.78828 -5.95544 3.71 -8.00485 -6.04742 4.68915 -8.20094 -6.61028 5.505 
-8.35901 -7.43058 6.07705 -8.47933 -8.38409 6.39645 -8.55922 -9.39281 6.43571 
-8.59424 -10.3817 6.21699 -8.57881 -11.3309 5.85935 -8.49151 -12.2822 5.51859 
-8.284 -13.2606 5.36147 -7.90871 -14.1861 5.51789 -7.37189 -14.9237 5.95556 
-6.71008 -15.4103 6.5476 -5.9584 -15.6436 7.18557 -5.1465 -15.6617 7.79222 
-4.29148 -15.5328 8.32214 -3.39967 -15.3327 8.76211 -2.48065 -15.1127 9.13126 
-1.55366 -14.8844 9.4748 -0.643276 -14.6394 9.84944 0.220948 -14.3841 10.3148 
1.00436 -14.1682 10.9207 1.67951 -14.0763 11.6707 2.24462 -14.1737 12.5062 
2.71377 -14.4832 13.3494 3.08283 -15.0136 14.1295 3.31541 -15.75 14.7847 
3.3821 -16.6167 15.306 3.28489 -17.5231 15.7499 3.02973 -18.4068 16.1767 
2.61875 -19.2308 16.6013 2.06859 -19.9925 16.9827 1.43059 -20.7385 17.2365 
0.811713 -21.5394 17.2733 0.35087 -22.4223 17.0901 0.110619 -23.3607 16.792 
0.0649932 -24.3258 16.483 0.154068 -25.301 16.2213 0.311285 -26.2581 16.0404 
0.480154 -27.2853 15.9869 
LINES 1 65
64 0 1 2 3 4 5 6 7 8 9 10 11 12 13 14 15 16 17 18 19 20 21 22 23 24 25 26 27 28 29 30 31 32 33 34 35 36 37 38 39 40 41 42 43 44 45 46 47 48 49 50 51 52 53 54 55 56 57 58 59 60 61 62 63 

CELL_DATA 1
FIELD FieldData 2
Length 1 1 double
63.753941696 
Tortuosity 1 1 double
1.0157752312 
POINT_DATA 64
SCALARS MaximumInscribedSphereRadius float
LOOKUP_TABLE default
1.55 1.37058 1.289 1.48712 1.67448 1.82878 1.87463 1.83957 1.70483 
1.47025 1.42281 1.72854 1.47516 1.33705 1.58725 1.96703 2.37276 1.78828 
1.39188 1.55 1.89549 2.3807 2.29284 2.17594 2.14244 1.94007 1.99437 
2.15189 2.17 1.94796 1.44932 1.35989 1.57121 1.93338 2.2532 2.44957 
2.32102 2.22882 2.40174 2.39791 2.22537 2.18163 2.19061 2.17879 2.24873 
2.44391 2.31602 2.1764 2.18047 2.32623 2.53021 2.70196 2.46122 1.92671 
2.1829 2.42784 2.24424 2.82853 3.53071 3.29933 3.1 3.1 2.85908 
2.48 
TEXTURE_COORDINATES TCoords 2 float
0 0 0.015873 0 0.031746 0 0.047619 0 0.0634921 
0 0.0793651 0 0.0952381 0 0.111111 0 0.126984 0 
0.142857 0 0.15873 0 0.174603 0 0.190476 0 0.206349 
0 0.222222 0 0.238095 0 0.253968 0 0.269841 0 
0.285714 0 0.301587 0 0.31746 0 0.333333 0 0.349206 
0 0.365079 0 0.380952 0 0.396825 0 0.412698 0 
0.428571 0 0.444444 0 0.460317 0 0.47619 0 0.492063 
0 0.507937 0 0.52381 0 0.539683 0 0.555556 0 
0.571429 0 0.587302 0 0.603175 0 0.619048 0 0.634921 
0 0.650794 0 0.666667 0 0.68254 0 0.698413 0 
0.714286 0 0.730159 0 0.746032 0 0.761905 0 0.777778 
0 0.793651 0 0.809524 0 0.825397 0 0.84127 0 
0.857143 0 0.873016 0 0.888889 0 0.904762 0 0.920635 
0 0.936508 0 0.952381 0 0.968254 0 0.984127 0 
1 0 
FIELD FieldData 7
Curvature 1 64 double
0 0.029009793372 0.10202328861 0.19094559994 0.27144338912 0.25441154431 0.15178175964 0.057731851513 0.10765252784 
0.26486466859 0.35616046887 0.26170229832 0.20806499357 0.21401215308 0.22798011929 0.23663020644 0.24768376601 0.33293075906 
2.000792697 0.90671964692 0.127543353 0.1194853155 0.078295891089 0.10568353672 0.42587869409 0.52215156759 0.35975153019 
0.28676819443 0.2870084304 0.26026881986 0.14970725275 0.071873625829 0.21795633913 0.36273822613 0.37950071951 0.32042879662 
0.27069429875 0.22247680463 0.16786529886 0.11752484143 0.076329190319 0.027280838677 0.037913481683 0.099688504455 0.16338989616 
0.21550739433 0.23203959233 0.22986165737 0.24791863063 0.27503478736 0.24715566571 0.18207465902 0.15707985458 0.16341208218 
0.15508173263 0.15234090229 0.22148774169 0.28144159821 0.25229429052 0.19319314886 0.13988925056 0.10404850511 0.13162528448 
0 
Torsion 1 64 double
0 0 -0.0056749641046 0.024486885079 0.033405029315 0.03118961514 -0.067836356672 -1.3759705433 0.015506865967 
0.24807586437 0.26268696146 0.40786395167 0.27762184618 -0.050426214873 -0.2096037597 -0.17710676033 0.16018220195 1.1625897313 
0.18027662949 0.0804769511 -1.9031822055 -0.39865245192 -0.26724978805 -0.21858447076 -0.025848252053 -0.016714550317 -0.024243106205 
-0.029536706176 -0.0083573438319 0.05005248339 0.36820075525 2.0167084473 0.12523660209 -0.058157318816 -0.13857471718 -0.1916804498 
-0.19306101059 -0.21376182014 -0.295878028 -0.37445109844 -0.25904239399 0.55181864592 0.67054813366 0.31154181714 0.30412132525 
0.28505752115 0.27017624009 0.21493893518 0.072260760884 -0.06403843315 -0.19940706871 -0.40620071089 -0.34258080103 0.01569406066 
0.42068118086 0.80232474478 0.50531140601 0.33651520165 0.33710962376 0.35204478267 0.39708030883 0.71516707692 0 
0 
Abscissas 1 64 double
0 1.0430721418 2.0292493089 3.0427405561 4.0564461036 5.0690596498 6.0826577333 7.0970384145 8.1115823676 
9.1256158779 10.137119494 11.149294942 12.162819394 13.176405139 14.189831013 15.203197795 16.216528623 17.226445366 
18.232821958 19.154755501 20.179064556 21.194949182 22.208984451 23.223528513 24.236886937 25.243904312 26.254288438 
27.266772966 28.279523417 29.292165464 30.305604178 31.320057136 32.334318222 33.346733199 34.357568039 35.369366635 
36.38194577 37.395096571 38.408769303 39.422902322 40.437274054 41.451812011 42.466420386 43.480909235 44.495113074 
45.508781033 46.522094859 47.535417075 48.548753341 49.561692835 50.574453598 51.587994988 52.601989926 53.615973788 
54.629922476 55.643995912 56.657881801 57.67068948 58.683370878 59.69682475 60.711254028 61.724877867 62.711551862 
63.753903953 
ParallelTransportNormals 3 64 double
0.28699599222 0 0.95793178277 0.28877667761 -0.00079367934089 0.95739615653 0.28657944852 1.2372857301e-05 0.95805648035 
0.28373423507 0.0005862161087 0.95890277933 0.28800198391 0.0007664760405 0.95762950549 0.3027988088 0.0056051355824 0.95303801805 
0.3135835323 0.011894078754 0.94948612373 0.29662627179 -0.00054870986932 0.95499348364 0.21256714116 -0.065219370913 0.97496750928 
0.018462723482 -0.22023051471 0.97527311469 -0.16970335427 -0.40599890154 0.89797865425 -0.23024612485 -0.49851855771 0.83574276521 
-0.23660342058 -0.51743328106 0.82236343609 -0.23701275774 -0.5232229335 0.81857358529 -0.2295953064 -0.562265824 0.79444517649 
-0.18955306409 -0.64390215844 0.74125545276 -0.11196286333 -0.72960327141 0.67464315277 -0.051066965286 -0.76525094377 0.64170332562 
-0.59148200566 -0.64732347101 0.48075083033 -0.72320828879 -0.6901669996 0.025284060081 -0.72207218546 -0.69158451209 0.017961670834 
-0.73602130191 -0.67200987925 0.081702908896 -0.74827015044 -0.64951812624 0.13497401841 -0.73420188259 -0.67512443195 0.071795521977 
-0.67123724124 -0.70934769245 -0.21509629748 -0.59459699889 -0.58788297732 -0.54849613844 -0.54775097078 -0.40498560464 -0.73208984014 
-0.51751792992 -0.21235784489 -0.82890249 -0.49529890103 0.0054189338948 -0.86870572336 -0.4837997314 0.20529329422 -0.85075994455 
-0.48282222629 0.30187720613 -0.82204187863 -0.48036246249 0.25637242358 -0.83876402227 -0.44854543783 0.048181356012 -0.89246038967 
-0.34478911932 -0.29067556719 -0.8925402948 -0.17803346473 -0.59475820963 -0.78394308309 -0.0026078027071 -0.77394850412 -0.63324316999 
0.15546826047 -0.8544739189 -0.49568532549 0.27803506634 -0.87418366561 -0.39811985717 0.34814592164 -0.86952522066 -0.35031458416 
0.3631966279 -0.86669086596 -0.34195782246 0.34834491198 -0.87013681128 -0.34859396431 0.34427126151 -0.8711260466 -0.35016668806 
0.3721309293 -0.86395004493 -0.33927701266 0.42129946958 -0.85008726717 -0.31600378975 0.45757163867 -0.83971402039 -0.29241846631 
0.44865599018 -0.84159547142 -0.30070727453 0.397034553 -0.84136639512 -0.36669626788 0.32688378857 -0.81376580144 -0.48055406479 
0.25331062192 -0.74003964122 -0.62303696379 0.19483313487 -0.616904484 -0.76254108556 0.17261776994 -0.49793466036 -0.84986127074 
0.17347358101 -0.44815144679 -0.87696476408 0.16959145055 -0.46787334273 -0.86737147467 0.15248679931 -0.51172118719 -0.84551120786 
0.14469848365 -0.52457061334 -0.83898034569 0.19473599321 -0.46107586821 -0.86572913587 0.32916920209 -0.2956204142 -0.89680332688 
0.47609334693 -0.066491941623 -0.87687738408 0.54872346833 0.12216226479 -0.82703019072 0.56453176045 0.22738648331 -0.79347292244 
0.56376129789 0.26175076909 -0.78336436853 0.56630429676 0.24187583963 -0.78790578223 0.58343316764 0.13764077622 -0.80041286573 
0.58343316764 0.13764077622 -0.80041286573 
FrenetTangent 3 64 double
-0.88059744095 0.39293967377 0.26485195822 -0.88059744095 0.39293967377 0.26485195822 -0.90377235866 0.33080928689 0.27158928444 
-0.94107571422 0.18979254402 0.27992014995 -0.95747994433 -0.040368119095 0.28566163753 -0.91162988279 -0.29817271354 0.28288511751 
-0.83086597653 -0.48454110326 0.27364511377 -0.77993962799 -0.57230221057 0.25330684253 -0.778885209 -0.59923299584 0.18508821652 
-0.78141869417 -0.62400551261 0.0013945042023 -0.68301094641 -0.67434874333 -0.28062398233 -0.4770898514 -0.72920720052 -0.49055288441 
-0.26461116996 -0.78730058695 -0.55690099167 -0.059062270053 -0.83522287019 -0.54673065158 0.15953721136 -0.83976950513 -0.51897500561 
0.38011536249 -0.77496331101 -0.50491997166 0.58137035956 -0.6424574925 -0.4992563223 0.78181470076 -0.45795681774 -0.42313275313 
0.94464625988 -0.21474913898 0.24804485683 0.25617865799 0.093472904998 0.96209942897 -0.15039485027 0.18771467304 0.9706413295 
-0.2047560504 0.2872939185 0.93570142899 -0.20722880127 0.38053020234 0.90125079142 -0.20210858286 0.36790124149 0.90763472677 
-0.21290790514 0.11639044268 0.97011519356 -0.21110409052 -0.33499578398 0.91826624009 -0.17786337739 -0.6946407763 0.69702138481 
-0.13887268226 -0.88485170987 0.44469296112 -0.099867551858 -0.97878487597 0.17890399283 -0.057199292394 -0.99435822972 -0.089330576672 
-0.0096878055439 -0.95846830727 -0.28503447228 0.050671532096 -0.93742287337 -0.34448621498 0.14633775691 -0.95786637279 -0.24713816536 
0.29270222881 -0.95620357752 -0.00035156233765 0.45888659255 -0.83671281796 0.29888920261 0.59963866396 -0.61243076653 0.51513302057 
0.70418528784 -0.35864631173 0.61277720542 0.77627245264 -0.12481285597 0.61791814204 0.82497636997 0.054836471356 0.56250062258 
0.86266186654 0.16247495497 0.47897431353 0.89318787831 0.20721301349 0.39909670642 0.90983349743 0.22095105187 0.35126007406 
0.90567764542 0.23329930753 0.35400485264 0.87586818537 0.24692619572 0.41458699416 0.81526858379 0.23315499462 0.53007158457 
0.72381793369 0.15274727561 0.67287136116 0.6161316391 -0.0027326629494 0.78763845504 0.51371904543 -0.20210827568 0.83381352068 
0.41686341485 -0.41770396975 0.80730928833 0.29981574842 -0.63128544802 0.71525464005 0.14882544768 -0.79721250005 0.58506684736 
-0.015116257407 -0.87820011747 0.47805444506 -0.17430518062 -0.885500184 0.43070538439 -0.3295919172 -0.84493423555 0.42125444297 
-0.4753768091 -0.78428257491 0.39864486961 -0.58762493352 -0.7456588729 0.31414930013 -0.62400145973 -0.76798904931 0.14427403924 
-0.53835405278 -0.83955136427 -0.072996031378 -0.34879355015 -0.90609517191 -0.23944644249 -0.14164113892 -0.94311200416 -0.30079483935 
0.021477974453 -0.9591410889 -0.28211180088 0.12329486007 -0.96731901436 -0.22156782697 0.16106761269 -0.98012868149 -0.11577992861 
0.16106761269 -0.98012868149 -0.11577992861 
FrenetNormal 3 64 double
-0.35574966032 -0.91741918151 0.17828130746 -0.35574966032 -0.91741918151 0.17828130746 -0.32370365238 -0.94341976885 0.071938064822 
-0.1862821552 -0.98170791552 0.039351331187 0.043548478672 -0.99903984682 0.0047869060401 0.3039407978 -0.95237934676 -0.024363318692 
0.48774500721 -0.87084763556 -0.061067205473 0.39397909747 -0.76344431599 -0.51179414528 -0.17735048239 -0.072629137448 -0.98146411793 
0.096988422067 -0.12366195432 -0.98757327173 0.51093825066 -0.16655871265 -0.84332692311 0.84584007837 -0.22943142803 -0.48157635081 
0.95624940766 -0.28893018882 -0.04589571157 0.97687286314 -0.16110550914 0.14058600277 0.9865996248 0.11742331641 0.11328258958 
0.900564173 0.43458507182 0.010953797042 0.75531168699 0.65428715774 0.03758418165 0.61999024095 0.64300020326 0.44962522141 
-0.17920772529 0.29555129223 0.938367745 -0.95750466116 0.16097459666 0.23931569753 -0.71548189554 0.65688017687 -0.23789512476 
-0.12865848536 0.93976149919 -0.31669436178 0.1284974516 0.92385487714 -0.36052818324 0.0028591703726 -0.92653456531 0.37619878312 
-0.03265058265 -0.99317266355 0.11199107028 0.042526980599 -0.94169598989 -0.33376656296 0.10768552316 -0.71780084354 -0.68787046536 
0.13116167 -0.46152248775 -0.87737882903 0.14015807009 -0.19184840269 -0.97136497043 0.17103440218 0.078394485817 -0.98214130239 
0.32974463654 0.26604151256 -0.90580924497 0.97326142467 -0.031028324408 0.22759490839 0.54479469835 -0.13049198855 0.82835413778 
0.46797107117 0.14292936991 0.87210909396 0.42975298297 0.50345217221 0.7495653967 0.38908903733 0.78560671877 0.48107359568 
0.32808694617 0.92974479344 0.16713340426 0.26503307311 0.95398372456 -0.1402587731 0.24939384974 0.85781637711 -0.44939266891 
0.30379086169 0.59069933752 -0.74751950142 0.34506126528 0.25328046938 -0.90375977286 0.28096172067 0.29494387226 -0.91327357552 
-0.42256629213 0.42891016824 0.7984195616 -0.44882741662 0.10132780821 0.88785507003 -0.48157994262 -0.23535498475 0.84420897295 
-0.49372934481 -0.56656199924 0.65972633349 -0.46829367824 -0.80532433227 0.36352957345 -0.41196014233 -0.91060080151 0.033091107979 
-0.39875952293 -0.88217006283 -0.25053307788 -0.49269304541 -0.74448105082 -0.4505569087 -0.66445640216 -0.51880433138 -0.53790310964 
-0.88327778117 -0.21234224293 -0.41800853241 -0.9841242809 0.14180989586 -0.10672091253 -0.93375357024 0.35767432019 -0.013166273244 
-0.87793015766 0.39349646118 -0.27276211853 -0.56479994607 0.099986339189 -0.81914818739 0.082128933192 -0.2480633995 -0.96525612568 
0.55805472838 -0.29025628807 -0.77738420834 0.86679507147 -0.21473071083 -0.45006335766 0.98985204508 -0.13142551753 -0.054039450377 
0.94129384392 -0.075688594273 0.32899412776 0.68870247299 -0.077343986095 0.72090693679 0.019731613021 -0.11409024156 0.99327442342 
0.019731613021 -0.11409024156 0.99327442342 
FrenetBinormal 3 64 double
0.31303406552 0.062773068944 0.94766513898 0.31303406552 0.062773068944 0.94766513898 0.28002047987 -0.0228988088 0.95972088411 
0.28226841617 -0.015111546713 0.95921644189 0.28519412021 0.017023496258 0.9583185871 0.27667842027 0.06376999894 0.95884432469 
0.26789277142 0.08273037468 0.95989017503 0.48628658983 -0.29937093407 0.8209155842 0.60156848122 -0.79727336911 -0.049704499976 
0.61642361278 -0.77157296563 0.1571530729 0.52195608158 -0.71938304651 0.45831199121 0.23862069381 -0.64468447984 0.72625208154 
-0.12477178802 -0.54468076134 0.82930987522 -0.20550196473 -0.52578300851 0.82542181365 -0.034191497899 -0.53009333425 0.84724966713 
0.21094189132 -0.45887654324 0.86309665539 0.302510761 -0.39894446424 0.86563881263 0.066165510692 -0.6138617855 0.78663576927 
-0.27482364326 -0.93087713527 0.2407067181 -0.13250403406 -0.98252226197 0.13073899837 -0.68225145377 -0.73025449999 0.035515054242 
-0.97032054187 -0.1852310153 -0.15545905248 -0.9698168017 0.041096606715 -0.24034649999 0.97935894639 0.078628085251 0.18620869564 
0.97652658099 -0.0078310421404 0.21525452701 0.97653802736 -0.031408396143 0.2130422347 0.97814541203 -0.047287851703 0.20247323773 
0.98158595877 -0.063517279925 0.18015149377 0.98507978736 -0.071933003191 0.15634402955 0.98360331141 -0.071456389305 0.16558535626 
0.94402045587 -0.10276389229 0.31347242518 -0.22404150302 -0.34680772708 0.91078526853 -0.82570212398 -0.2558590487 0.50274461673 
-0.83386358704 -0.25543279657 0.48931135756 -0.77764739362 -0.21551698438 0.59060728122 -0.69931623298 -0.088037717107 0.70937026063 
-0.62966819528 0.083351317619 0.77237977815 -0.57197775257 0.27264776592 0.77363082042 -0.5071653544 0.51102252844 0.69400236219 
-0.40438300703 0.79036458781 0.46021538649 -0.28835418713 0.94494008851 0.15472586044 -0.30539076357 0.92961752613 0.20627102713 
0.034434449939 -0.87270126658 0.48703877461 0.17722548336 -0.96372201861 0.19957705003 0.32158652825 -0.94352889709 -0.07959475617 
0.48199474369 -0.80973808779 -0.33467192329 0.63331100908 -0.59282818118 -0.49746548963 0.75258327346 -0.36049746906 -0.55105352853 
0.81683274679 -0.2174841923 -0.53430786057 0.816923546 -0.21731693007 -0.53423709334 0.73235829739 -0.30869774132 -0.60692423642 
0.46860629537 -0.42857359408 -0.77248483117 0.033423101976 -0.44246963462 -0.89616043133 -0.1395472615 -0.39768733734 -0.90684692398 
0.057057231204 -0.47964713878 -0.87560441675 0.57939447567 -0.65878340692 -0.47990255712 0.77709524293 -0.59047215851 0.21786604471 
0.63146641556 -0.45924371959 0.62477625758 0.35638373062 -0.36453019254 0.86029551625 0.011433136917 -0.30539659618 0.95215660604 
-0.33690443158 -0.27261622894 0.90120796474 -0.71448392647 -0.24147843026 0.65665888141 -0.98674611101 -0.16226886488 0.00096327701382 
-0.98674611101 -0.16226886488 0.00096327701382 
