# vtk DataFile Version 4.2
vtk output
ASCII
DATASET POLYDATA
POINTS 64 float
0 0 0 -0.950928 0.385507 -0.208357 -1.89917 0.607094 -0.241124 
-2.91605 0.717751 -0.238358 -3.9267 0.646582 -0.232734 -4.87642 0.297459 -0.267433 
-5.59664 -0.408947 -0.318851 -6.03779 -1.32024 -0.263229 -6.42644 -2.22211 -0.0118281 
-6.95295 -2.98726 0.39412 -7.62856 -3.61844 0.810483 -8.38761 -4.24101 1.06246 
-8.9803 -5.02947 0.874611 -9.07769 -5.87764 0.326321 -8.88461 -6.67872 -0.263878 
-8.57958 -7.43988 -0.861345 -8.23394 -8.12939 -1.52004 -7.87383 -8.69385 -2.28179 
-7.49789 -9.11673 -3.12349 -7.08452 -9.46214 -3.98327 -6.55795 -9.98926 -4.68367 
-6.31014 -10.6674 -4.20875 -6.52123 -10.8356 -3.20986 -6.87864 -10.6557 -2.27845 
-7.29935 -10.1661 -1.49915 -7.69297 -9.48031 -0.863567 -8.01318 -8.73169 -0.258346 
-8.24297 -8.02842 0.435066 -8.35567 -7.49897 1.29152 -8.31513 -7.39961 2.29461 
-8.21131 -7.90932 3.1593 -8.19061 -8.71399 3.77518 -8.25443 -9.58587 4.29003 
-8.35088 -10.4589 4.79796 -8.41728 -11.3165 5.33593 -8.39983 -12.158 5.90207 
-8.27647 -12.9859 6.47515 -8.05785 -13.7999 7.03976 -7.76033 -14.5927 7.59852 
-7.39006 -15.3514 8.16117 -6.94623 -16.0638 8.73094 -6.42806 -16.7212 9.30405 
-5.83685 -17.3138 9.87713 -5.17546 -17.8221 10.4543 -4.448 -18.2108 11.0445 
-3.66613 -18.4361 11.6497 -2.85419 -18.4749 12.2559 -2.03705 -18.349 12.8435 
-1.22499 -18.1088 13.4021 -0.415924 -17.8038 13.9329 0.394462 -17.4681 14.4428 
1.20671 -17.1222 14.9428 2.01754 -16.7809 15.4483 2.82271 -16.4645 15.9783 
3.61704 -16.205 16.5535 4.38923 -16.0503 17.1926 5.11255 -16.0664 17.9028 
5.73485 -16.3225 18.6602 6.18887 -16.8418 19.402 6.43618 -17.5642 20.0683 
6.47678 -18.3947 20.6475 6.30155 -19.2487 21.1776 5.92943 -20.0034 21.6772 
5.23262 -20.5119 22.2659 
LINES 1 65
64 0 1 2 3 4 5 6 7 8 9 10 11 12 13 14 15 16 17 18 19 20 21 22 23 24 25 26 27 28 29 30 31 32 33 34 35 36 37 38 39 40 41 42 43 44 45 46 47 48 49 50 51 52 53 54 55 56 57 58 59 60 61 62 63 

CELL_DATA 1
FIELD FieldData 2
Length 1 1 double
63.744356317 
Tortuosity 1 1 double
1.0748244693 
POINT_DATA 64
SCALARS MaximumInscribedSphereRadius float
LOOKUP_TABLE default
0.6944 0.851245 0.93 0.93 1.099 1.26777 1.28589 1.4665 1.40983 
1.31455 1.48966 1.3499 1.08405 1.15942 1.50089 1.55057 1.58218 1.64094 
1.60514 1.57538 1.62358 1.56908 1.55 1.55 1.55 1.63876 1.82647 
2.03273 1.84769 1.27676 1.26767 1.45796 1.54867 1.55 1.55 1.62574 
1.81879 1.86 1.81642 1.64482 1.97955 2.47241 1.89915 1.76851 2.17775 
1.99992 1.76034 1.59184 1.84013 2.08215 1.72337 1.67548 1.86885 1.86998 
1.93673 2.12088 2.182 2.13354 1.92625 2.0001 2.13693 1.9545 1.87165 
1.8848 
TEXTURE_COORDINATES TCoords 2 float
0 0 0.015873 0 0.031746 0 0.047619 0 0.0634921 
0 0.0793651 0 0.0952381 0 0.111111 0 0.126984 0 
0.142857 0 0.15873 0 0.174603 0 0.190476 0 0.206349 
0 0.222222 0 0.238095 0 0.253968 0 0.269841 0 
0.285714 0 0.301587 0 0.31746 0 0.333333 0 0.349206 
0 0.365079 0 0.380952 0 0.396825 0 0.412698 0 
0.428571 0 0.444444 0 0.460317 0 0.47619 0 0.492063 
0 0.507937 0 0.52381 0 0.539683 0 0.555556 0 
0.571429 0 0.587302 0 0.603175 0 0.619048 0 0.634921 
0 0.650794 0 0.666667 0 0.68254 0 0.698413 0 
0.714286 0 0.730159 0 0.746032 0 0.761905 0 0.777778 
0 0.793651 0 0.809524 0 0.825397 0 0.84127 0 
0.857143 0 0.873016 0 0.888889 0 0.904762 0 0.920635 
0 0.936508 0 0.952381 0 0.968254 0 0.984127 0 
1 0 
FIELD FieldData 7
Curvature 1 64 double
0 0.22720238362 0.12707909082 0.17672674358 0.28592746626 0.43471872849 0.365486107 0.19940553293 0.24518065374 
0.19721470216 0.18107323991 0.52173178204 0.66588456014 0.29535878644 0.11618924571 0.099980687081 0.15917808274 0.1598593323 
0.085598700654 0.26161575517 2.298022449 1.1749109266 0.37835678998 0.35253486658 0.2418718007 0.09865376702 0.13102493695 
0.26296604129 0.49710842779 0.68278720972 0.40121347222 0.14457687242 0.032431094113 0.04393634885 0.087537081364 0.10427877504 
0.094120575046 0.079711780483 0.078274406192 0.084889950718 0.090102216959 0.095098509731 0.10698332162 0.1340285957 0.16931537935 
0.18532262924 0.16231004595 0.11509488894 0.068651038675 0.036114926554 0.013925492642 0.0070997575231 0.034388872009 0.071477429704 
0.1216829307 0.18776666962 0.26210475749 0.31221687033 0.29823809147 0.24619127881 0.21778585302 0.22160819522 0.42022118352 
0 
Torsion 1 64 double
0 0 -0.64309816902 -0.21867514643 0.016033408531 0.16550579305 0.42751829258 1.2833743569 0.56999242659 
0.76286059317 1.4781774717 0.32920422274 0.1961651359 0.26030091706 -0.37183207297 -0.65952918809 -0.054914270469 0.14307734548 
1.6124889331 0.4996511254 0.022186315316 -0.019469319533 -0.13750147971 -0.12052604987 -0.2676872506 -1.4105550831 -0.70063758505 
-0.2352222217 -0.17712623682 -0.16389924652 -0.2749597034 -0.56861858342 -1.914982837 -0.66275518375 -0.25364026322 -0.15148276984 
-0.03036161418 0.14064238117 0.14958021442 0.046064614334 0.012532537012 0.073696356909 0.14640877896 0.12329013862 0.055960747018 
0.0063336215811 -0.032947810392 -0.082391448029 -0.15527250981 -0.22317973033 -0.21665983788 0.35008444183 0.10331605496 0.086910070211 
0.072206185016 0.056896392056 0.033318035461 -0.0023079607529 -0.063808463457 -0.21186349163 -0.3588994086 -0.52876975266 0 
0 
Abscissas 1 64 double
0 1.0470396051 2.0213812601 3.0442669896 4.0574323523 5.0698908665 6.0800233549 7.0940069022 8.1077183659 
9.1213541721 10.135360355 11.148886892 12.152997375 13.167641093 14.181221747 15.195809049 16.21008917 17.224260967 
18.238478001 19.253066072 20.275661835 21.139883255 22.174600284 23.188314076 24.2002799 25.214761217 26.22928396 
27.243295961 28.256473507 29.265293497 30.274383249 31.287910966 32.302461246 33.317062729 34.331594145 35.346013137 
36.360442562 37.374933856 38.389445833 39.403942824 40.418418557 41.432886276 42.447337969 43.461726831 44.475950075 
45.48998895 46.50404319 47.518335878 48.532827638 49.547392888 50.561988732 51.576594653 52.59119503 53.605766561 
54.620239818 55.634463131 56.648264802 57.661435767 58.67436001 59.687751651 60.701099674 61.721412748 62.699992543 
63.74437479 
ParallelTransportNormals 3 64 double
-0.21403189859 0 0.97682667162 -0.046837904063 -0.052929297852 0.99749922314 -0.0038422156302 -0.060263798092 0.99817509086 
0.0098164427889 -0.060523973668 0.99811847296 -0.012451150016 -0.065299159157 0.99778804797 -0.0092095861837 -0.0632491279 0.99795527522 
0.059340851146 0.032170721014 0.99771925314 0.14038668686 0.20926285856 0.96772962866 0.21218947892 0.34005420259 0.91615433434 
0.22603947631 0.3561423464 0.90668008925 0.11000060151 0.25473746792 0.96073341261 -0.20712668302 -0.076671114234 0.97530512017 
-0.37472620295 -0.47259644626 0.79764206998 -0.36688745649 -0.60748788121 0.70452258193 -0.34977806001 -0.66115488759 0.6637239813 
-0.31737350915 -0.73339965502 0.60116470431 -0.26273253314 -0.83048418888 0.49119001217 -0.20474882132 -0.9082637301 0.36487657741 
-0.17223522269 -0.93991217117 0.29478829446 -0.26321983773 -0.855482233 0.44594334399 -0.83657507979 0.074414165207 0.54277496985 
-0.87187802786 0.47862689696 -0.10365808241 -0.78620352416 0.47633350969 -0.39368820931 -0.68554514429 0.38969025529 -0.61495476262 
-0.62676655245 0.30486781867 -0.71709086026 -0.62852997312 0.30841126581 -0.71402560459 -0.6644576512 0.40325621712 -0.6291903155 
-0.7069496839 0.55620724203 -0.43687028778 -0.72230750965 0.69046057762 -0.039192502386 -0.6861391308 0.58766584485 0.42879126389 
-0.67203746005 0.4390988052 0.5962867528 -0.67273099301 0.412108859 0.61449108975 -0.67139000581 0.42670885704 0.60593317405 
-0.67102451059 0.43059312002 0.60358567841 -0.6717957937 0.40382268133 0.6209812023 -0.66758852678 0.35393947203 0.65502092261 
-0.65689350572 0.30259025794 0.69060122933 -0.64447442083 0.26392812677 0.7176312875 -0.6330765011 0.23744828596 0.7367716439 
-0.62104992966 0.21571663176 0.75350070978 -0.60616377276 0.19451972307 0.77118581284 -0.589040466 0.17522597748 0.78887716803 
-0.57480365249 0.16271323671 0.80195084867 -0.56932139947 0.15917226894 0.80655894571 -0.57456674683 0.16130601957 0.80240477409 
-0.58526435174 0.16307853035 0.79427390208 -0.59242652486 0.16269563675 0.78902531165 -0.59143043543 0.16291948292 0.78972608044 
-0.58383559479 0.16547358407 0.79482985049 -0.57416220858 0.169300255 0.80104630446 -0.56842998197 0.1717082306 0.80461396902 
-0.57189689328 0.17024028898 0.80246631547 -0.58660271663 0.16425531636 0.79304315386 -0.61214751817 0.15505735588 0.77539192179 
-0.64794507443 0.14559316495 0.74764283641 -0.69193192396 0.14151852316 0.70795672199 -0.73817583653 0.15087596129 0.65752024963 
-0.77807671902 0.17962132197 0.6019408609 -0.80561674752 0.228373385 0.54665094268 -0.81903471905 0.30074737521 0.4886032596 
-0.80951946924 0.42045096552 0.40975506649 -0.75567750641 0.57731626402 0.30928536599 -0.53851634001 0.8381547468 0.086583901208 
-0.53851634001 0.8381547468 0.086583901208 
FrenetTangent 3 64 double
-0.94562748876 0.30228191928 -0.12005954263 -0.94562748876 0.30228191928 -0.12005954263 -0.98589518796 0.16668573323 -0.015051402072 
-0.99980184144 0.019472062671 0.0041372243786 -0.97767787245 -0.20960848942 -0.014500306285 -0.84449718154 -0.53378640366 -0.043549806276 
-0.58318721176 -0.81233504143 0.0021110455725 -0.41129667419 -0.89870841364 0.15217829364 -0.45482638755 -0.82849400505 0.32669655766 
-0.59579383015 -0.69204781283 0.40755310907 -0.71053987212 -0.62094095864 0.33100667066 -0.69140046488 -0.72172675182 0.032800805901 
-0.35891704665 -0.85122669915 -0.38287290355 0.047694057819 -0.82202542014 -0.56744998501 0.2460211639 -0.77160521642 -0.58659950299 
0.32111765017 -0.71593223805 -0.61993909803 0.34904848594 -0.6201855131 -0.70252052197 0.36405742955 -0.48834778868 -0.79308172673 
0.38941776009 -0.37904749901 -0.83945029729 0.46539910767 -0.43202192292 -0.77250289883 0.53397150537 -0.83108405249 -0.15547903122 
0.021600794297 -0.49786819641 0.86698365884 -0.28251134526 0.0058145303972 0.95924633491 -0.3900248421 0.33558052095 0.85747672651 
-0.40481526794 0.58430335355 0.70335921823 -0.35224877516 0.70782800847 0.61229103442 -0.27172762137 0.71730570017 0.64158914602 
-0.17041667868 0.61337846857 0.77118416083 -0.036735428686 0.32011771558 0.94666528216 0.075274843372 -0.21397276531 0.97393498431 
0.062770762771 -0.66257987307 0.74635631112 -0.021317983445 -0.82887604981 0.55902597224 -0.078993018044 -0.86002341089 0.5041030012 
-0.080274409475 -0.85308548235 0.51555909359 -0.024150067215 -0.83826770967 0.54472380265 0.069502576795 -0.82400117955 0.5623090324 
0.16874531838 -0.81017300613 0.56137751796 0.25458792378 -0.79255998124 0.55410618586 0.32937016756 -0.76523752891 0.55310651512 
0.40160161492 -0.72570478712 0.55863109907 0.47463660495 -0.67583946265 0.56388040751 0.54741822251 -0.61680661362 0.56558190482 
0.61830914278 -0.54342619589 0.56778673248 0.68621666872 -0.44319819856 0.57678595715 0.74685858618 -0.30382452695 0.59151746303 
0.78929838342 -0.13078913413 0.59991854808 0.80585868972 0.043085388225 0.5905382473 0.8043992211 0.18075696828 0.56592297313 
0.79943964296 0.26885928207 0.53722522624 0.7982169327 0.31579733251 0.51295396785 0.79966513225 0.33590582512 0.49769765211 
0.79986044512 0.33865565221 0.49551550687 0.79650514698 0.32417146432 0.51038457319 0.78882886372 0.28401742326 0.54505332496 
0.77364230708 0.20455695754 0.59969494897 0.74071719448 0.068647461394 0.66830050415 0.66958412433 -0.13544725134 0.73028155019 
0.53766877178 -0.38734612962 0.74891606187 0.34994725798 -0.61957868942 0.70260882733 0.14314046925 -0.7720559153 0.61922570175 
-0.06660119574 -0.83331744469 0.54876799935 -0.27547844253 -0.80965140636 0.51824340602 -0.53970665073 -0.6377945761 0.54948595056 
-0.53970665073 -0.6377945761 0.54948595056 
FrenetNormal 3 64 double
-0.29066151869 -0.61973075097 0.72900595187 -0.29066151869 -0.61973075097 0.72900595187 -0.16393257423 -0.94365178024 0.28748465831 
-0.019403766363 -0.99968446331 0.01595204269 0.20954540078 -0.96767506941 -0.14034131631 0.5353323515 -0.84371339618 -0.039585079843 
0.77645424571 -0.55666025362 0.29537800588 0.25818472737 0.045250382189 0.96503525815 -0.55567828408 0.55067388212 0.62288034176 
-0.74175868721 0.66871346769 0.051150250017 -0.45394105433 0.045065880615 -0.88989133359 0.32021002334 -0.34682079856 -0.88157862647 
0.81132835389 -0.081733897869 -0.57884874718 0.97743019147 0.15545825456 -0.14304877451 0.93811185718 0.34175879484 -0.056098748326 
0.39665219551 0.69609882092 -0.5984258244 0.089170003788 0.76825083668 -0.63390800781 0.096831995422 0.86674692273 -0.48925794485 
0.4240276168 0.88284840011 -0.20193880908 0.41025715979 -0.66807195345 0.62078090165 -0.1406289391 -0.26862681719 0.95292346732 
-0.54992643906 0.71829494348 0.42618456775 -0.39781068773 0.90922945915 -0.12267211309 -0.18246367299 0.88459350855 -0.42918682723 
0.11498438922 0.79562685574 -0.59477432414 0.72487341634 0.62016797848 -0.29991700311 0.67271817113 -0.33516596677 0.65963174344 
0.44043690161 -0.65268510472 0.61645558621 0.31922198576 -0.89391383536 0.31466709195 0.10076222277 -0.97007455847 -0.22091248372 
-0.21130130203 -0.7397011107 -0.63890063905 -0.5714203706 -0.4487209996 -0.6871158742 -0.97747635511 -0.032451816973 -0.20853502048 
0.66457529277 0.33968540602 0.66554752285 0.93256981719 0.17742345982 0.31437947128 0.98973051309 0.12753706195 0.064558572602 
0.98561160854 0.14432048339 -0.087984971317 0.96314530464 0.25924516728 -0.071715168519 0.90433038165 0.42409935151 0.048231741446 
0.84386191637 0.53023300422 0.082158549978 0.80339207016 0.59435375742 0.036121913692 0.74806067558 0.66363026963 -0.00030147014408 
0.63989746776 0.76753178513 0.037764925173 0.48212739714 0.87087251555 0.095573189701 0.31532730533 0.94496530217 0.087231119447 
0.15941679671 0.98719616217 0.0054792627142 0.029889699308 0.99311736092 -0.11324536772 -0.044147101347 0.96814276702 -0.24647640071 
-0.043493481143 0.9178192599 -0.39460882308 0.034933320266 0.82585782589 -0.56279526877 0.13056968161 0.71176578492 -0.69017463418 
-0.19775841798 -0.63079075747 0.75032967981 -0.15820548343 -0.70297784691 0.69339250917 -0.14673954883 -0.77414697797 0.61576290998 
-0.17599035779 -0.83984234689 0.51350971397 -0.2538111071 -0.89244700417 0.37298561186 -0.38005113833 -0.9072437171 0.18019425637 
-0.53763591462 -0.8417307215 -0.049366140152 -0.69079523767 -0.67727652154 -0.25317672284 -0.83012165702 -0.43433619363 -0.34964282553 
-0.96802117491 -0.079355343856 -0.23798683646 -0.9534798802 0.29878560769 -0.040040962738 -0.70066581425 0.70213538836 0.12678057087 
-0.70066581425 0.70213538836 0.12678057087 
FrenetBinormal 3 64 double
0.14596072779 0.72426475655 0.67389615548 0.14596072779 0.72426475655 0.67389615548 0.033716308701 0.28589715632 0.95766697058 
0.0044465381075 0.015868603921 0.99986419863 0.015385146424 -0.14024707204 0.989996998 -0.015613577548 -0.056743108559 0.99826671578 
-0.23877076948 0.17389980596 0.95537813306 -0.8741714319 0.43620590341 0.21342145506 -0.69595589069 0.10176423314 -0.71083713962 
-0.30793467148 -0.27183105578 -0.91174783532 0.53765287066 -0.78256079144 -0.31389169849 0.64763488025 -0.59902072535 0.4708962014 
0.46143781358 -0.51839432539 0.71996004584 0.20580451319 -0.54782017097 0.81088689879 0.24376162604 -0.53649446981 0.80793189907 
0.85997121495 -0.053735109787 0.50750571172 0.93285254188 0.15862087275 0.32345873592 0.92632918158 0.10132230366 0.3628333476 
0.81765175247 -0.27731155027 0.50452345413 -0.78427847951 -0.60583572289 -0.13368000393 -0.83372533423 -0.48696912714 -0.26031353456 
-0.83493372031 -0.4859831614 -0.25827514305 -0.87288830702 -0.41625470789 -0.25455455532 -0.90254508507 -0.32385187755 -0.28378218906 
-0.90714011546 -0.15989839728 -0.38926766301 -0.59201294807 0.33818809692 -0.73153911749 0.68819645598 0.61084884155 -0.39147072784 
0.88146099819 0.44471227593 -0.15892608444 0.94696770383 0.31375580174 -0.069350304892 0.99205880492 0.11476500647 -0.051461839002 
0.97540329664 -0.11760177987 -0.18643559282 0.82038058464 -0.33408675306 -0.46407083272 0.19570405794 -0.50922157485 -0.83808908203 
-0.7428968296 0.39605426994 0.53967148881 -0.36018094107 0.51558526242 0.77745837629 -0.12491158187 0.55204742 0.82440326466 
-0.009735226049 0.56814725047 0.82286932568 -0.086810778228 0.55194258704 0.82935111346 -0.27148085302 0.48430492915 0.83171322104 
-0.35582749893 0.43841250346 0.82533706315 -0.35955705368 0.43587226543 0.82506611455 -0.37515132321 0.42325461207 0.82469207469 
-0.45631681398 0.33997489383 0.82230896678 -0.54466490295 0.21250039637 0.81128523038 -0.58546643179 0.12137229713 0.80155961895 
-0.5929539163 0.09131232002 0.80004231973 -0.59135300631 0.10891077429 0.79902444591 -0.59244656007 0.1732815659 0.7867531839 
-0.59916990442 0.29210014138 0.74543472755 -0.6013562933 0.46715189841 0.64818185127 -0.58607783998 0.61689281409 0.52531516389 
0.56666998901 -0.69815139441 -0.43757257003 0.58356711341 -0.63303634057 -0.50863977005 0.59683877938 -0.56571243559 -0.56899289243 
0.60869119812 -0.50281336846 -0.61373751868 0.62202729821 -0.44589894683 -0.64362735298 0.63813653139 -0.39819954781 -0.65895287193 
0.64950744042 -0.37610153995 -0.66082351387 0.63272336471 -0.39676033193 -0.66501306962 0.53889594599 -0.46398462749 -0.7030714223 
0.24186625571 -0.54706925136 -0.80138377109 -0.12242444921 -0.50516508274 -0.85429531979 -0.46667349175 -0.31658170369 -0.8258279948 
-0.46667349175 -0.31658170369 -0.8258279948 
