# vtk DataFile Version 4.2
vtk output
ASCII
DATASET POLYDATA
POINTS 64 float
0 0 0 -0.922912 0.29402 0.388226 -1.77788 0.511702 0.826924 
-2.65863 0.651859 1.30956 -3.54979 0.664671 1.7944 -4.44485 0.49053 2.23669 
-5.30523 0.0784912 2.57653 -6.07568 -0.549507 2.77262 -6.75017 -1.30387 2.83861 
-7.37733 -2.10075 2.81029 -8.02089 -2.87771 2.70503 -8.72962 -3.57644 2.51109 
-9.5091 -4.14247 2.19589 -10.3091 -4.55819 1.7327 -11.0567 -4.86106 1.11858 
-11.6874 -5.11836 0.367711 -12.1431 -5.39623 -0.493737 -12.3718 -5.74108 -1.41843 
-12.3503 -6.16617 -2.33772 -12.102 -6.65553 -3.18971 -11.6726 -7.18646 -3.93897 
-11.1006 -7.74368 -4.56352 -10.4105 -8.31831 -5.03371 -9.6199 -8.90039 -5.28224 
-8.78323 -9.44559 -5.1391 -8.16155 -9.79519 -4.43453 -7.9426 -9.90942 -3.45358 
-8.00414 -9.9303 -2.44219 -8.25724 -9.9572 -1.46077 -8.65951 -10.063 -0.536212 
-9.17152 -10.3076 0.30371 -9.73276 -10.7189 1.04092 -10.2736 -11.2807 1.68914 
-10.7414 -11.9546 2.28547 -11.1018 -12.7062 2.86319 -11.325 -13.5095 3.4404 
-11.3774 -14.3397 4.01987 -11.2216 -15.1638 4.58881 -10.8316 -15.9331 5.12021 
-10.2171 -16.5924 5.58291 -9.42743 -17.1037 5.95971 -8.52492 -17.4586 6.25512 
-7.56031 -17.6678 6.48774 -6.56761 -17.7453 6.68065 -5.56961 -17.7034 6.85693 
-4.58303 -17.555 7.04009 -3.62054 -17.318 7.25573 -2.69093 -17.0198 7.5313 
-1.79853 -16.6968 7.8894 -0.940335 -16.3885 8.3338 -0.102485 -16.1307 8.84434 
0.734387 -15.9566 9.39051 1.58407 -15.9049 9.94173 2.44152 -16.0234 10.4692 
3.26883 -16.3618 10.9462 3.99043 -16.9443 11.353 4.51541 -17.7435 11.6856 
4.78055 -18.6827 11.9559 4.78434 -19.6693 12.1865 4.5809 -20.6385 12.4041 
4.24757 -21.5679 12.6385 3.87049 -22.4641 12.9268 3.56507 -23.324 13.3127 
3.59509 -24.1565 13.9283 
LINES 1 65
64 0 1 2 3 4 5 6 7 8 9 10 11 12 13 14 15 16 17 18 19 20 21 22 23 24 25 26 27 28 29 30 31 32 33 34 35 36 37 38 39 40 41 42 43 44 45 46 47 48 49 50 51 52 53 54 55 56 57 58 59 60 61 62 63 

CELL_DATA 1
FIELD FieldData 2
Length 1 1 double
63.848506647 
Tortuosity 1 1 double
1.2709687255 
POINT_DATA 64
SCALARS MaximumInscribedSphereRadius float
LOOKUP_TABLE default
0.93 1.13591 1.14173 0.969555 0.93 0.93 0.984406 1.21718 1.44685 
1.55 1.52863 1.43947 1.5556 1.62608 1.57139 1.62664 1.50597 1.43979 
1.54101 1.5502 1.56195 1.54116 1.33637 1.48161 1.73995 1.83075 1.94148 
1.84269 1.63338 1.69732 1.84855 1.86 1.86 1.86 1.89823 2.04089 
2.2548 2.2949 1.92444 1.86 1.86 1.88864 2.09896 1.89355 1.62564 
1.71552 1.8119 1.94702 2.18217 2.40293 2.16728 1.93668 2.13214 2.1904 
2.32083 2.40292 2.1293 2.01599 2.05447 2.15091 1.94247 2.38608 2.90776 
2.48 
TEXTURE_COORDINATES TCoords 2 float
0 0 0.015873 0 0.031746 0 0.047619 0 0.0634921 
0 0.0793651 0 0.0952381 0 0.111111 0 0.126984 0 
0.142857 0 0.15873 0 0.174603 0 0.190476 0 0.206349 
0 0.222222 0 0.238095 0 0.253968 0 0.269841 0 
0.285714 0 0.301587 0 0.31746 0 0.333333 0 0.349206 
0 0.365079 0 0.380952 0 0.396825 0 0.412698 0 
0.428571 0 0.444444 0 0.460317 0 0.47619 0 0.492063 
0 0.507937 0 0.52381 0 0.539683 0 0.555556 0 
0.571429 0 0.587302 0 0.603175 0 0.619048 0 0.634921 
0 0.650794 0 0.666667 0 0.68254 0 0.698413 0 
0.714286 0 0.730159 0 0.746032 0 0.761905 0 0.777778 
0 0.793651 0 0.809524 0 0.825397 0 0.84127 0 
0.857143 0 0.873016 0 0.888889 0 0.904762 0 0.920635 
0 0.936508 0 0.952381 0 0.968254 0 0.984127 0 
1 0 
FIELD FieldData 7
Curvature 1 64 double
0 0.09548518432 0.088434692805 0.12469901025 0.18818629365 0.25894125715 0.27262933029 0.2017829906 0.1109327119 
0.078988403143 0.13186163522 0.18969005071 0.20856965667 0.19214326633 0.18209524142 0.20463954337 0.24216485534 0.26046374091 
0.24233420959 0.20896041643 0.1877702364 0.1916647641 0.24066279992 0.40313967229 0.69354490189 0.5763046114 0.29625105151 
0.19052678508 0.17458629177 0.19267087433 0.19845200837 0.17253709569 0.14023735111 0.13071000217 0.14331685095 0.16943783795 
0.20515863746 0.2405751988 0.25681916052 0.24205170566 0.20594984571 0.16690152356 0.13716240164 0.11771288677 0.10461098672 
0.094867491453 0.08934400617 0.091417087767 0.091536820493 0.083393748682 0.088586069665 0.12017451605 0.1685544411 0.22447119062 
0.27318234213 0.30113136136 0.30092039421 0.26643716091 0.20498620358 0.13363914458 0.074875508778 0.12410531312 0.41091786878 
0 
Torsion 1 64 double
0 0 -0.506670292 -0.24814139482 -0.11989321415 -0.060846996965 -0.055380553436 -0.12686317296 -0.51779474437 
-0.95202173425 -0.14400428506 0.10839781377 0.24237702507 0.38798861389 0.45288645475 0.3220951423 0.17473901977 0.093586361541 
0.05912580157 0.053302859383 0.065285548802 0.083137254872 0.092406279 0.07469089744 0.061548548594 0.10934345898 0.29315875074 
0.45611744482 0.41662974369 0.30112168885 0.26842461599 0.32984293671 0.41336095114 0.34629184288 0.19272321912 0.086285782813 
0.037036359732 0.022708315879 0.025918209409 0.040480727997 0.066231434344 0.10642060949 0.15428110814 0.19961808565 0.25636370304 
0.34521256629 0.43135683354 0.41330281221 0.40316608895 0.52016976782 0.48084710066 0.21121582088 0.027922353223 -0.066104149332 
-0.11595544653 -0.13754671482 -0.13711934707 -0.13441908749 -0.16487108695 -0.35033512114 -1.3310663063 -0.89117727594 0 
0 
Abscissas 1 64 double
0 1.0435198193 2.0288193874 3.0428662126 4.0574694824 5.0709093308 6.0835942052 7.0967229086 8.1107988053 
9.1252649351 10.139629705 11.153596503 12.167165472 13.180765132 14.194579203 15.208351899 16.221769392 17.23481494 
18.247857352 19.261274286 20.274994559 21.288809397 22.302433719 23.315197799 24.32403054 25.326584578 26.33814725 
27.351619226 28.365504273 29.379325581 30.392952591 31.406680594 32.420720089 33.434920328 34.449098706 35.463143208 
36.476936889 37.490357204 38.503451898 39.516522422 40.529932663 41.54373405 42.557801279 43.572035415 44.586346866 
45.600715949 46.615121997 47.629531666 48.643923435 49.658338981 50.672783118 51.687147372 52.701287127 53.714974605 
54.728116566 55.740724536 56.753145337 57.765797004 58.779032205 59.79297836 60.807745247 61.821897799 62.812667136 
63.848443189 
ParallelTransportNormals 3 64 double
0.38774476817 0 0.92176677894 0.45268535452 -0.018631306374 0.89147565543 0.47751471998 -0.023767216246 0.87830223251 
0.47750595239 -0.023766459165 0.8783070197 0.44700011792 -0.026523525081 0.8941405914 0.38627544183 -0.046804087706 0.92119523469 
0.31538352042 -0.092011527413 0.94449304596 0.25786954586 -0.14703052443 0.95492686746 0.21243283141 -0.20117915943 0.95624224857 
0.16230170176 -0.26326872403 0.95097199567 0.08601466153 -0.34651533679 0.93409239338 -0.034816432753 -0.44920037109 0.89275239716 
-0.18941033139 -0.5452902415 0.8165673756 -0.33739931824 -0.61400537037 0.71355385586 -0.44898138694 -0.65935547705 0.60304731909 
-0.51934147899 -0.6940164079 0.49862375973 -0.55418506401 -0.72572196357 0.40768437108 -0.56221304502 -0.75555883683 0.3362251271 
-0.55470563387 -0.78100765228 0.28692979427 -0.54187145818 -0.80033142797 0.25660266604 -0.52993522865 -0.81330148444 0.24022770209 
-0.52293908905 -0.81957554583 0.23415941966 -0.52690234881 -0.81647951343 0.23608286461 -0.55851292971 -0.79458449206 0.23811508208 
-0.63738932461 -0.74619922896 0.19214983626 -0.697203236 -0.71319161874 0.072562818786 -0.70750330793 -0.70435988601 -0.057586632566 
-0.68564748584 -0.70104086865 -0.19603373596 -0.63142465386 -0.69005791975 -0.35372725919 -0.54386740121 -0.65649940261 -0.52270142937 
-0.44369639956 -0.59528378796 -0.66990351306 -0.3680141263 -0.52846440813 -0.76504311786 -0.33249809 -0.48495553629 -0.80886534601 
-0.32560941381 -0.47309792014 -0.81863109372 -0.33125852832 -0.48814933738 -0.80745155386 -0.33737175849 -0.52438272102 -0.78179476748 
-0.33404995175 -0.57748890148 -0.74492764642 -0.31197521665 -0.64192825703 -0.70042813837 -0.26590246133 -0.70745469737 -0.65483107152 
-0.19999240117 -0.76240116015 -0.61542465865 -0.12370631212 -0.80145625071 -0.58511932676 -0.043395404073 -0.82572136164 -0.56240650053 
0.040320448125 -0.83798198995 -0.54420625317 0.12843067601 -0.83956145752 -0.52786562732 0.21996651938 -0.83078315568 -0.51128668924 
0.31051979144 -0.81287545118 -0.49275852097 0.39298657748 -0.78955134882 -0.47134935823 0.45789485013 -0.76741978031 -0.44877520766 
0.4946099976 -0.7541783083 -0.4319444751 0.49504704561 -0.75403243673 -0.43169839819 0.45648237362 -0.7639757009 -0.45603176535 
0.37671633719 -0.77465413282 -0.50793284577 0.25381740813 -0.76984340952 -0.58559187849 0.09496892178 -0.72675395333 -0.68030110629 
-0.070499978218 -0.62837406253 -0.77471013329 -0.19956498853 -0.48531949247 -0.85125719121 -0.26762774551 -0.33557606842 -0.90319659661 
-0.28388071349 -0.21921715527 -0.93346428927 -0.27729313402 -0.15465958666 -0.94825573032 -0.27365845631 -0.14180225295 -0.95131654582 
-0.2888810565 -0.18091960342 -0.9401147974 -0.3298708651 -0.28649205876 -0.89950403703 -0.37552422114 -0.55974631785 -0.73869182952 
-0.37552422114 -0.55974631785 -0.73869182952 
FrenetTangent 3 64 double
-0.87733721274 0.25251154137 0.40806535827 -0.87733721274 0.25251154137 0.40806535827 -0.86898701851 0.17915205971 0.4612657598 
-0.87518277667 0.075554537286 0.47785627474 -0.8847250416 -0.079907164309 0.45921285463 -0.87369894135 -0.29174714168 0.38927338107 
-0.81252503966 -0.51817554973 0.26701527968 -0.71645379413 -0.68542489 0.12994876313 -0.64267719075 -0.76591128452 0.018599267067 
-0.62683459671 -0.77636099718 -0.065893781414 -0.66818507015 -0.72915868542 -0.14783884303 -0.73735132554 -0.62664037481 -0.25225951593 
-0.78345059255 -0.48696555705 -0.38609547431 -0.76692513857 -0.35610300354 -0.53386934984 -0.68263652374 -0.27743793051 -0.67604406008 
-0.53875754478 -0.26539663928 -0.79956546436 -0.34022910417 -0.30956635712 -0.88792613838 -0.1031367918 -0.38324860911 -0.91786889357 
0.1341236878 -0.4545935667 -0.88054274484 0.33616011779 -0.50609524959 -0.79426945903 0.49611801868 -0.53909610288 -0.68061905894 
0.62541269198 -0.56086925417 -0.54248008668 0.73603777541 -0.57498597263 -0.35726674132 0.82086209668 -0.56864672891 -0.053163106876 
0.76374716482 -0.46861248683 0.44395112953 0.43336193804 -0.239113822 0.86892002554 0.07858262924 -0.067450058358 0.99462317488 
-0.1559122442 -0.023676202728 0.98748711867 -0.3244615244 -0.065697314883 0.94361463639 -0.45307610868 -0.17364250138 0.87439711885 
-0.53202872819 -0.32514082748 0.78181127818 -0.5455492186 -0.48170194428 0.68581286585 -0.49854421006 -0.61077469554 0.61514871528 
-0.40920072176 -0.70431701868 0.58007956912 -0.288495353 -0.76864490079 0.57092508071 -0.13640600054 -0.80848644797 0.57248848589 
0.051277231597 -0.82038462838 0.56950830287 0.27129169218 -0.79200442866 0.54692760283 0.49987159714 -0.71091751511 0.49469654646 
0.69801695439 -0.58190906207 0.41731783434 0.8392320065 -0.42958933234 0.33338063052 0.92400419995 -0.27916306412 0.26131249896 
0.96731489634 -0.14168948609 0.21029974048 0.98308212362 -0.017579998807 0.18231972429 0.97964015357 0.09393702965 0.1774288702 
0.96182106098 0.19018542385 0.19679875817 0.93355755569 0.26406639537 0.24236177308 0.89904322581 0.30652201739 0.31267480069 
0.86380656045 0.31150613631 0.39598251624 0.83670417669 0.27927274241 0.47109750164 0.82629398506 0.21309590585 0.52137163823 
0.83295895775 0.11151831404 0.54198066418 0.84491467396 -0.033061040868 0.53387841434 0.8365306153 -0.22686348096 0.49874792298 
0.77173163873 -0.45883096342 0.44034580137 0.62253014513 -0.69000810346 0.36924928649 0.39457632648 -0.86813571293 0.30108122909 
0.13393148214 -0.95907980359 0.24945598496 -0.099012607703 -0.96994310886 0.22227655993 -0.26518531781 -0.93798250582 0.22330599184 
-0.35038914989 -0.90042399489 0.25780627043 -0.34106941564 -0.8775850403 0.33692157953 -0.13869065468 -0.85228730273 0.50435231328 
-0.13869065468 -0.85228730273 0.50435231328 
FrenetNormal 3 64 double
0.1715616397 -0.62910775272 0.75814908775 0.1715616397 -0.62910775272 0.75814908775 -0.0087357243188 -0.93756978756 0.34768747545 
-0.077748568359 -0.99685682004 0.015219739123 -0.025643210495 -0.97535956806 -0.21912585138 0.13011458017 -0.91119912477 -0.39087894679 
0.32886337398 -0.78568046232 -0.52398004961 0.47101031762 -0.6126579969 -0.63466484031 0.41825972346 -0.37109515604 -0.82906404391 
-0.20298553387 0.24436923798 -0.94819858077 -0.48457062555 0.57729965774 -0.65720347993 -0.36775952121 0.68562980083 -0.62822345609 
-0.096753978823 0.70928030317 -0.69825505305 0.26868971115 0.5773014729 -0.77105696839 0.62991175573 0.24555584702 -0.73682664582 
0.84017555003 -0.099402906253 -0.53312672729 0.92613432861 -0.27383883867 -0.25939833426 0.95202315893 -0.3053374756 0.020516599525 
0.92494638235 -0.26147070491 0.27587544338 0.85245993239 -0.19502410792 0.48505428665 0.74549819109 -0.1373517051 0.65220162234 
0.60558015402 -0.089536767926 0.7907312086 0.41557475199 -0.03280948351 0.90896708593 0.12455947753 0.087404241435 0.98835491355 
-0.3320944834 0.30451011528 0.89274119642 -0.75035614224 0.43829019374 0.494840748 -0.94437356164 0.31456820571 0.095944880134 
-0.98717499682 -0.030985832907 -0.15660588692 -0.8378197799 -0.44310164243 -0.31893408547 -0.55991864741 -0.70781292064 -0.43068779605 
-0.24359690137 -0.82552318255 -0.50908940739 0.11693807001 -0.85406255413 -0.5068556416 0.50943294107 -0.78058500643 -0.36216726286 
0.80227970626 -0.58055260386 -0.13894584221 0.93549855543 -0.3533181271 -0.0029586907859 0.98753847913 -0.15676126414 0.013916116912 
0.99837738708 0.027969229278 -0.049601564348 0.96249667162 0.22381900774 -0.15331408577 0.86583244221 0.42436512403 -0.26504419165 
0.71446452725 0.60508775073 -0.35129653174 0.53754639399 0.74793124803 -0.38941330553 0.36287194291 0.85566286966 -0.36900542886 
0.19897232884 0.93823027214 -0.28307943903 0.043276523421 0.98949476249 -0.13793932555 -0.10674325566 0.99222174048 0.06404603883 
-0.2480629723 0.90958440867 0.33334811424 -0.3582642044 0.66706169646 0.65320399031 -0.39596873054 0.26435294715 0.87938972234 
-0.36436714955 -0.15656039208 0.91800077558 -0.23781208071 -0.58959815521 0.77189340562 -0.010127161657 -0.91989605772 0.39203148289 
0.10564201751 -0.99351402849 0.042067081253 0.047556467391 -0.98949264478 -0.13653823033 -0.13058364835 -0.96657453965 -0.220639004 
-0.38286216404 -0.88809093978 -0.25438365914 -0.65077961978 -0.71849423571 -0.24546266463 -0.86170325494 -0.46336715867 -0.20678098725 
-0.97341608334 -0.17451683162 -0.14834083784 -0.99420168861 0.087009023297 -0.063185696333 -0.94723881485 0.29668379861 0.12131509094 
-0.57160726808 0.42363158237 0.70271004938 0.51259081665 0.12681430678 0.84921657207 0.84426462122 0.16445564983 0.51007018007 
0.84426462122 0.16445564983 0.51007018007 
FrenetBinormal 3 64 double
0.44815847523 0.73516076946 0.5086183482 0.44815847523 0.73516076946 0.5086183482 0.49475776779 0.29810641215 0.81630099733 
0.47750420682 -0.023832587696 0.87830617682 0.46540737695 -0.20564181987 0.86087595819 0.4687433796 -0.29086037946 0.83407426752 
0.48130233864 -0.33793536481 0.80879400841 0.51462922728 -0.39350082465 0.76178334153 0.64189160473 -0.52504122639 0.55884423444 
0.75224680884 -0.58098819057 -0.31076914423 0.56455293896 -0.36749519269 -0.73907189262 0.56662682365 -0.37045055928 -0.73600300668 
0.61387607594 -0.50969206172 -0.602801929 0.58277926434 -0.73478817373 -0.34706579894 0.37043023156 -0.92883288094 0.007136024124 
0.062010910835 -0.95900140046 0.2765338331 -0.16284766517 -0.91059374091 0.37986797308 -0.28812272913 -0.87171642729 0.39635307915 
-0.35564733397 -0.85145625818 0.38540525976 -0.40038536296 -0.84013879548 0.36586659515 -0.44508354117 -0.83096925392 0.33375251373 
-0.49206873684 -0.82304850824 0.28365385826 -0.53436506124 -0.81750514927 0.21480063372 -0.55737810757 -0.81792505541 0.14257716834 
-0.55353728178 -0.8292622787 0.076945115474 -0.49916238887 -0.86644462385 0.010517762756 -0.31934831525 -0.9468354311 -0.038978455164 
0.034305943584 -0.99923936851 -0.018541484605 0.43907030825 -0.89406084653 0.088726924473 0.69369528471 -0.68472560277 0.22346744926 
0.81092908569 -0.46129699477 0.35999875082 0.82988043589 -0.1963170663 0.52226245472 0.70137846358 0.13282062725 0.70030488489 
0.43462862565 0.40852932741 0.80262179538 0.20399236282 0.53324601972 0.82099683213 0.078493026819 0.56725265052 0.8197946543 
0.024763652636 0.57112764225 0.82048764632 -0.00098735846292 0.56800883511 0.82302186384 -0.021507403174 0.56081238237 0.82766352064 
-0.048091274423 0.5433697244 0.83811489184 -0.082057989123 0.50601566552 0.85861203851 -0.12058271654 0.43578554028 0.89193652877 
-0.1572002025 0.31567078734 0.93575640546 -0.1779794391 0.14349584891 0.97351541364 -0.17003248775 -0.081681406568 0.98204740259 
-0.11560712969 -0.36943972182 0.92203540253 0.010818967655 -0.69663306837 0.71734602389 0.1868958067 -0.91441881662 0.35903786047 
0.34795805273 -0.93725811316 -0.02173529083 0.49332700613 -0.75787911352 -0.42690480708 0.56314801859 -0.32921327113 -0.7579465227 
0.54315664301 0.022215778658 -0.83933742936 0.53278286021 0.14075252577 -0.83446458904 0.53213197654 0.11944295838 -0.8381938554 
0.50778621597 0.027724171698 -0.86103689188 0.43467471157 -0.087492002028 -0.89632753204 0.31902511344 -0.17785179277 -0.93090908085 
0.18580496974 -0.22295695957 -0.95695700394 0.041946464355 -0.22724391178 -0.97293406698 -0.1800427029 -0.17935312211 -0.96716962458 
-0.74195186819 0.098858038883 -0.66312480985 -0.78798623617 0.46234470759 0.40658955098 -0.5176699254 0.49654878194 0.69674755507 
-0.5176699254 0.49654878194 0.69674755507 
