# vtk DataFile Version 4.2
vtk output
ASCII
DATASET POLYDATA
POINTS 64 float
0 0 0 -0.998927 0.277719 -0.0748548 -1.95624 0.392658 0.104695 
-2.91647 0.335197 0.456845 -3.78797 0.0812608 0.904121 -4.58812 -0.337627 1.36678 
-5.32465 -0.887645 1.7957 -6.0196 -1.53066 2.1601 -6.69798 -2.23251 2.43654 
-7.37931 -2.96705 2.5957 -8.05569 -3.72295 2.59378 -8.66161 -4.5062 2.37498 
-9.06023 -5.31558 1.91468 -9.15444 -6.11634 1.30067 -9.00785 -6.88526 0.655465 
-8.72852 -7.6341 0.0308697 -8.3845 -8.38335 -0.563844 -8.01304 -9.1471 -1.09698 
-7.63529 -9.98461 -1.64249 -7.24814 -10.6982 -1.28072 -7.15114 -10.4029 -0.328478 
-7.07731 -9.93759 0.568829 -6.98949 -9.45039 1.45604 -6.88501 -9.00572 2.36147 
-6.77537 -8.67487 3.31422 -6.68095 -8.62686 4.32306 -6.62176 -9.04621 5.23976 
-6.57075 -9.80721 5.90779 -6.49331 -10.7011 6.38082 -6.38313 -11.6441 6.73853 
-6.25032 -12.6074 7.02794 -6.11314 -13.5811 7.27797 -5.99156 -14.5616 7.50876 
-5.89986 -15.546 7.73654 -5.8372 -16.5294 7.97817 -5.78258 -17.504 8.25519 
-5.69196 -18.455 8.59675 -5.4995 -19.3479 9.03768 -5.13931 -20.1132 9.59632 
-4.60031 -20.6795 10.2417 -3.93198 -21.0347 10.9168 -3.19208 -21.2201 11.5856 
-2.41894 -21.2881 12.2389 -1.63319 -21.2813 12.8807 -0.844201 -21.2284 13.5164 
-0.0548828 -21.146 14.1486 0.734585 -21.0389 14.7768 1.52439 -20.9011 15.3986 
2.31346 -20.7202 16.0102 3.09935 -20.4852 16.6072 3.88006 -20.1944 17.1863 
4.65751 -19.8618 17.747 5.4391 -19.5152 18.2932 6.23532 -19.1926 18.833 
7.05443 -18.9441 19.3776 7.89204 -18.8348 19.9391 8.71508 -18.9336 20.5231 
9.4609 -19.2705 21.1218 10.0735 -19.8092 21.7242 10.5251 -20.4844 22.3321 
10.8043 -21.23 22.9572 10.8739 -21.9908 23.6387 10.726 -22.6595 24.3425 
10.2709 -23.1612 25.1305 
LINES 1 65
64 0 1 2 3 4 5 6 7 8 9 10 11 12 13 14 15 16 17 18 19 20 21 22 23 24 25 26 27 28 29 30 31 32 33 34 35 36 37 38 39 40 41 42 43 44 45 46 47 48 49 50 51 52 53 54 55 56 57 58 59 60 61 62 63 

CELL_DATA 1
FIELD FieldData 2
Length 1 1 double
63.806222363 
Tortuosity 1 1 double
0.78800153136 
POINT_DATA 64
SCALARS MaximumInscribedSphereRadius float
LOOKUP_TABLE default
1.55 1.36514 1.24 1.24 1.24 1.24 1.24 1.24 1.24143 
1.26202 1.26911 1.13091 1.16441 1.4887 1.31483 1.01804 1.05265 1.18777 
1.24 1.27476 1.48756 1.55 1.56839 1.67843 1.77603 1.64662 1.55578 
1.58115 1.75325 1.79151 1.63176 1.55034 1.55 1.45681 1.29957 1.34583 
1.47873 1.41918 1.39997 1.65429 1.94329 2.19827 1.96395 1.67623 1.85191 
2.06665 2.00547 1.95907 2.09786 2.33788 2.62405 2.59043 2.27572 2.04948 
1.90885 2.0157 2.23016 2.6125 2.68783 2.3384 2.28486 2.44811 2.34863 
2.17 
TEXTURE_COORDINATES TCoords 2 float
0 0 0.015873 0 0.031746 0 0.047619 0 0.0634921 
0 0.0793651 0 0.0952381 0 0.111111 0 0.126984 0 
0.142857 0 0.15873 0 0.174603 0 0.190476 0 0.206349 
0 0.222222 0 0.238095 0 0.253968 0 0.269841 0 
0.285714 0 0.301587 0 0.31746 0 0.333333 0 0.349206 
0 0.365079 0 0.380952 0 0.396825 0 0.412698 0 
0.428571 0 0.444444 0 0.460317 0 0.47619 0 0.492063 
0 0.507937 0 0.52381 0 0.539683 0 0.555556 0 
0.571429 0 0.587302 0 0.603175 0 0.619048 0 0.634921 
0 0.650794 0 0.666667 0 0.68254 0 0.698413 0 
0.714286 0 0.730159 0 0.746032 0 0.761905 0 0.777778 
0 0.793651 0 0.809524 0 0.825397 0 0.84127 0 
0.857143 0 0.873016 0 0.888889 0 0.904762 0 0.920635 
0 0.936508 0 0.952381 0 0.968254 0 0.984127 0 
1 0 
FIELD FieldData 7
Curvature 1 64 double
0 0.29988663603 0.2423379292 0.23006252046 0.17703370493 0.14612889173 0.1175892074 0.1043633309 0.11876435877 
0.15900726929 0.22616757846 0.31879948089 0.34201702193 0.2417307203 0.13259355108 0.069159034861 0.066348508217 0.033789080897 
1.1911544976 2.2469091291 0.17850434264 0.026963132879 0.047722356545 0.12035886731 0.28638658802 0.49378419771 0.43160841221 
0.23410590204 0.1264015556 0.072728449243 0.039810551292 0.024955361633 0.029425728882 0.03127925511 0.036286267894 0.075471132357 
0.15022168631 0.23816749805 0.27905326333 0.24623816649 0.18069584789 0.11995429934 0.07464630333 0.045308209353 0.028864113407 
0.024310540969 0.030474527669 0.043051447036 0.054566253396 0.057201691735 0.044501701286 0.019989423053 0.02800985305 0.075596910451 
0.13811760854 0.2062057623 0.24765055823 0.23857776683 0.20746917617 0.18364479446 0.21208376368 0.2354401679 0.35891618046 
0 
Torsion 1 64 double
0 0 -0.24926168351 -0.22581733211 -0.29333700316 -0.2747830245 -0.35691289922 -0.40407477906 -0.1822451554 
0.12111932711 0.26259007136 0.23130896356 0.18804414598 0.19539804002 0.25882329102 0.58489644045 0.54690873568 -8.2169594745 
-0.11357168918 -0.093439422231 -0.9484349251 -2.6579814881 -0.5801354261 -0.1417538861 -0.0041527986819 0.040253460887 0.0871318274 
0.17179471715 0.15986573398 0.0019504290054 -0.38771196237 -0.95315225665 -0.57628059031 -0.70192668795 -0.9995685909 -0.4030193703 
-0.14389618293 -0.062574718245 -0.036338547303 -0.023469499962 -0.0058186653361 0.024969383175 0.063882169584 0.076536969425 0.024099105095 
-0.040909969943 -0.01753226036 -0.00073582740927 -0.0081431845139 -0.042586871552 -0.15829166737 -1.1556803492 -0.81865708724 -0.19093965904 
-0.11210394266 -0.093391242467 -0.10097868126 -0.13998307263 -0.20524956956 -0.31603853554 -0.24631909011 -0.21345960197 0 
0 
Abscissas 1 64 double
0 1.0395127662 2.0202726194 3.0446541027 4.0566065046 5.0713778943 6.0857584942 7.1002625547 8.1147655126 
9.129206808 10.143536534 11.157686582 12.170539163 13.183997516 14.198402703 15.212755225 16.229318532 17.232081237 
18.300585918 19.18935613 20.191025997 21.204513138 22.220495098 23.234617044 24.249120256 25.26350999 26.273303492 
27.287199566 28.301540887 29.316070713 30.330642105 31.345245025 32.359844513 33.374436237 34.389030643 35.403620486 
36.418165862 37.432463078 38.446101798 39.459883014 40.47406692 41.488491955 42.503015383 43.517587617 44.532181389 
45.546781707 46.561381713 47.575974778 48.59055536 49.605125029 50.619698405 51.634293926 52.64890369 53.663495578 
54.678000102 55.692315416 56.706352762 57.720325692 58.734396655 59.74900443 60.761254059 61.784985565 62.767019691 
63.806072144 
ParallelTransportNormals 3 64 double
-0.074725649141 0 0.99720413024 0.17828368649 -0.05020305767 0.98269760361 0.34670845666 -0.055581238471 0.93632471505 
0.46447863104 -0.035477086311 0.88487342465 0.50757326328 -0.01813882447 0.86141764868 0.51178828645 -0.015481087098 0.85897211002 
0.4889633388 -0.034503765729 0.8716216745 0.44444774116 -0.078096582678 0.89239404366 0.37588321225 -0.15052839678 0.91435934539 
0.28145024911 -0.2541934205 0.92529533785 0.1716478578 -0.38598957928 0.90639343422 0.084746843785 -0.52378476505 0.84762461761 
0.057817662783 -0.61175038647 0.78893509399 0.058595154435 -0.63510185534 0.77020272735 0.056330261285 -0.62703091858 0.77695503654 
0.048135151462 -0.60733372891 0.79298723125 0.027271626763 -0.56322351274 0.82585442608 0.016597099457 -0.54043624142 0.8412212582 
-0.37585794698 0.24865788563 0.89269258964 -0.77124206423 0.62597394949 -0.11550884347 -0.78227196832 0.57696960647 -0.23485450984 
-0.78258843767 0.57510459164 -0.23834858065 -0.77867733351 0.59405493536 -0.20189191183 -0.77019963273 0.62476092659 -0.12832112203 
-0.75277386446 0.65711176506 0.039187207221 -0.73016970026 0.6022829523 0.32265686756 -0.71444197083 0.4339385988 0.54888064531 
-0.70281921912 0.28419101191 0.6521354261 -0.69255606957 0.1837089346 0.69757947064 -0.68463004632 0.12152892855 0.7186879846 
-0.68035831977 0.090882431207 0.72722275846 -0.67985711377 0.087097190781 0.72815409373 -0.68169811446 0.10405815566 0.72419581674 
-0.68394413923 0.13269096803 0.71736568179 -0.6857707752 0.16318576388 0.70928756534 -0.68753226716 0.18653869193 0.70178536464 
-0.68899179811 0.19604549685 0.69775100523 -0.68669915505 0.18916739478 0.70189740504 -0.67588442566 0.17315205408 0.71637881691 
-0.65824777804 0.15969020549 0.73566901592 -0.6412255213 0.15315521146 0.75191310139 -0.63022870252 0.1513132558 0.76152221316 
-0.62612362325 0.15115212293 0.76493283636 -0.62630440513 0.15114527394 0.76478617814 -0.62749651975 0.15104310675 0.76382857867 
-0.62799955052 0.15098270696 0.76342700158 -0.62760755295 0.15104350049 0.76373727187 -0.62698297647 0.15116953918 0.7642251747 
-0.62628322423 0.15135432101 0.76476218039 -0.62468720232 0.15189002138 0.76596039105 -0.62036862679 0.15361776429 0.76911920363 
-0.61167705664 0.15740450394 0.77529026856 -0.59806184358 0.16317903194 0.78466211505 -0.58074272549 0.16930170039 0.79628815201 
-0.56391255619 0.17293618885 0.80752442908 -0.55610923003 0.17298552821 0.81290745556 -0.56667359306 0.17591894098 0.80494320615 
-0.59544547011 0.19446453604 0.77950512272 -0.63398580469 0.23842708827 0.73567283695 -0.67171259254 0.31180283649 0.67199790489 
-0.70127422002 0.43900309805 0.56168563115 -0.69250980797 0.59005844727 0.41504360574 -0.59136193731 0.7900560051 0.1615628915 
-0.59136193731 0.7900560051 0.1615628915 
FrenetTangent 3 64 double
-0.97909759416 0.19652521524 0.052399817683 -0.97909759416 0.19652521524 0.052399817683 -0.96323930889 0.028872926297 0.26708872669 
-0.90558995552 -0.15395182183 0.39522862879 -0.8280887213 -0.3332982289 0.4507564312 -0.75936814535 -0.47879605875 0.44058410543 
-0.70680076238 -0.58906635275 0.3917059029 -0.67779538182 -0.66374670743 0.31628109137 -0.67136765002 -0.70922891915 0.21508095859 
-0.67138441253 -0.73701909553 0.077754893377 -0.63623855085 -0.76367993547 -0.10951466834 -0.50184706759 -0.79564407295 -0.33926395319 
-0.2467368646 -0.80612128346 -0.53785629679 0.026020844543 -0.77976263337 -0.62553429262 0.2104135162 -0.74980636405 -0.62730898975 
0.30711918347 -0.73809601949 -0.60074293434 0.35451445636 -0.74967845713 -0.55883961129 0.36177133732 -0.77320131129 -0.52084664895 
0.43980514227 -0.89185762634 -0.10564758008 0.3312681792 -0.28620516718 0.89908175142 0.085111760769 0.37895563896 0.92149260001 
0.079659530975 0.46938698065 0.87939196126 0.094751965629 0.45915923402 0.88328639909 0.10574484566 0.38299696924 0.91767714866 
0.10161137391 0.18865337915 0.97677276335 0.078092598139 -0.18878276653 0.97890888911 0.055682523902 -0.59641494345 0.80074257521 
0.063770788868 -0.82159371714 0.56649541078 0.092664690576 -0.90723119109 0.41029845361 0.11983209425 -0.94010393981 0.31913140168 
0.13308139336 -0.95477138657 0.2658964876 0.1275276844 -0.96311098259 0.23696819392 0.10511895541 -0.96843558879 0.22601441453 
0.076080777478 -0.96988819384 0.23136250074 0.057804149294 -0.96504543585 0.2556286116 0.071627192596 -0.94963532346 0.30506113767 
0.13993314842 -0.91148345176 0.38680309091 0.27447214137 -0.82354028093 0.49643373102 0.44784246952 -0.66320482985 0.59966363585 
0.59989184893 -0.45787070622 0.6561129369 0.6970558579 -0.26759003817 0.66521327591 0.74710495438 -0.12512266146 0.65282348818 
0.76883449582 -0.030183045295 0.63873507953 0.77625417928 0.029428611873 0.62973280521 0.7778661337 0.066682226697 0.62488219585 
0.77808755519 0.093392477149 0.621174373 0.77837513592 0.12070357848 0.61608667728 0.77826281829 0.15709473884 0.60797058209 
0.77647501009 0.20504355441 0.59585543507 0.77237939412 0.2592341355 0.57985147627 0.76805734501 0.30729081911 0.56183651293 
0.76835002853 0.3347343629 0.54551914719 0.77764193061 0.32982241184 0.53524779719 0.79665078226 0.28165600044 0.53480597279 
0.81857515938 0.17678658016 0.54651734971 0.82314970639 0.005204608387 0.56780055735 0.77957934119 -0.21650254663 0.58769269018 
0.67461937415 -0.43484160027 0.59649097453 0.52744577431 -0.601641189 0.59985734542 0.36210972016 -0.70400215953 0.61094804193 
0.1723000615 -0.7441298885 0.6454327214 -0.039304499591 -0.71756658162 0.69538000925 -0.3030608941 -0.5882283635 0.74976095313 
-0.3030608941 -0.5882283635 0.74976095313 
FrenetNormal 3 64 double
-0.05533835333 -0.50531091556 0.86116116103 -0.05533835333 -0.50531091556 0.86116116103 0.1641780395 -0.72367431603 0.67032906521 
0.32894539535 -0.84316837522 0.42527875317 0.40858958358 -0.90935989282 0.078224916278 0.42327507843 -0.87777839769 -0.22437311009 
0.34552756885 -0.77064569024 -0.5354586065 0.15469976161 -0.54928011872 -0.82119384736 -0.024551467477 -0.26876622353 -0.96289248753 
0.030015523074 -0.13187236159 -0.99081216617 0.30625431224 -0.1197177454 -0.94439184541 0.64709602805 -0.085090192055 -0.7576452928 
0.89281737137 0.026724107292 -0.44962535901 0.98320111975 0.13304910096 -0.12495397096 0.97738616991 0.1475389544 0.1514877282 
0.89868526608 0.017240036412 0.43825514677 0.47864618411 -0.36791995363 0.79720307209 -0.48345404476 -0.63329222608 0.60432867133 
0.11011115768 -0.063199793587 0.99190791863 -0.28314614893 0.87881276937 0.3840786049 -0.13448457472 0.92075455393 -0.36623073408 
0.49679239353 0.74613470516 -0.44326100606 0.34260841788 -0.84811708503 0.40412483477 0.041496228433 -0.92374702173 0.3807486085 
-0.052667321008 -0.97945761727 0.194650788 -0.072987239756 -0.98035518497 -0.18323911736 -0.019908668397 -0.80249061303 -0.59633250869 
0.1112014971 -0.558265718 -0.82217614606 0.25253197717 -0.3771841712 -0.89104416361 0.30270263094 -0.27154413212 -0.91358354929 
0.10654028491 -0.25294692915 -0.96159607878 -0.60733094586 -0.2647173716 -0.74904862017 -0.98652461676 -0.13020471547 -0.099075287484 
-0.90222694427 0.031821843203 0.43008593482 -0.21542368432 0.23796691307 0.94708203685 0.46417807013 0.3024454269 0.8325055453 
0.66287158335 0.37642742721 0.6472276694 0.6955349677 0.52651497097 0.48888965426 0.63560182048 0.70784437368 0.30816662449 
0.5176528022 0.84740510026 0.11806850733 0.3871896687 0.9213314562 -0.035107097219 0.27009713179 0.9545325223 -0.12615547262 
0.16344381198 0.97498049282 -0.15066240056 0.068987832598 0.98894534036 -0.13125468655 0.010153003617 0.9928911891 -0.1185917498 
0.0078659532262 0.9873596122 -0.15830073585 0.010142665069 0.97879725782 -0.2045801907 -0.01656287504 0.97299927839 -0.23021310873 
-0.05560164018 0.96418533007 -0.25933589588 -0.089165635068 0.94813342547 -0.30511063081 -0.071256269075 0.9129088164 -0.4018955549 
0.20283464576 0.68104900472 -0.70358393931 0.506542328 -0.83296996413 -0.22265648163 0.29528851703 -0.95337905556 0.062233978869 
0.13212159457 -0.9838969327 0.12037736526 -0.068258242404 -0.9917997959 0.10804618089 -0.30793414971 -0.94959814416 0.058650865754 
-0.55110927818 -0.83429659031 0.015091815794 -0.76376164159 -0.64502878655 0.024617460247 -0.91736901053 -0.38535520905 0.099676784522 
-0.97386156009 -0.030230619056 0.22512168145 -0.93857814893 0.26527192847 0.22068498433 -0.81596441725 0.56660660572 0.11471278975 
-0.81596441725 0.56660660572 0.11471278975 
FrenetBinormal 3 64 double
0.19571808238 0.84026110132 0.50562408352 0.19571808238 0.84026110132 0.50562408352 0.21263961331 0.68953740902 0.6923312476 
0.26777184194 0.51513680472 0.81420655431 0.38382759391 0.24895155342 0.8892128554 0.49416417091 0.016106479307 0.8692193932 
0.61728711429 -0.24311736296 0.74823162614 0.71879162777 -0.50767278788 0.4749809852 0.74071769518 -0.65173541974 0.16302833715 
0.74050120796 -0.66288199031 0.11065906168 0.70810225437 -0.63439783858 0.31004931825 0.57394795167 -0.59975842503 0.55756038271 
0.37682630086 -0.5911465964 0.71312526287 0.1806612127 -0.6117746091 0.77012554424 -0.021033950242 -0.6449981964 0.76389456051 
-0.31311754929 -0.67447538662 0.66861076357 -0.80325421298 -0.55010646119 0.22839779047 -0.79711585488 0.033176627527 -0.60291427689 
-0.89131754711 -0.44787918062 0.070407881511 -0.90004980518 -0.3818045556 0.21008481508 -0.98725370971 -0.092755997792 0.12933072926 
-0.864205807 0.47218520112 -0.17375114095 0.93468793563 0.26432973327 -0.23767257961 0.99352709608 -0.0021820622519 -0.11357441597 
0.99342905232 -0.07122273868 -0.089588166096 0.99427079257 -0.057138239033 -0.090337216536 0.99825001951 0.017263580767 -0.056558530078 
0.99174972323 0.1154259592 0.05576140612 0.96314114003 0.18618181143 0.19415323193 0.94552175354 0.20607854489 0.25203223391 
0.98536212147 0.15629923356 0.068059085776 0.78414655003 -0.048393681322 -0.61868589744 0.1253761769 -0.21255409295 -0.96907253177 
-0.42449765174 -0.24146275436 -0.87263823084 -0.97480834863 -0.10981372878 -0.19413816836 -0.88284101881 0.081972655128 0.46246320862 
-0.73554060253 0.16583217179 0.65687115391 -0.66400011469 0.21110042877 0.71731475425 -0.6288461245 0.24313719648 0.73853696955 
-0.61005355991 0.26881036518 0.74536946651 -0.60348760669 0.28203531568 0.74582758683 -0.6073563423 0.27057713034 0.74693124851 
-0.61820679256 0.22023174702 0.75453186761 -0.62663396661 0.14533090033 0.76564273738 -0.62834798843 0.098592937102 0.77165940556 
-0.62810658589 0.1280579611 0.7675176059 -0.62771751141 0.16548889456 0.76064719263 -0.62772020585 0.16909656203 0.75985110112 
-0.62769022321 0.16823730287 0.76006657183 -0.62887165707 0.18395833904 0.75543349703 -0.63640432029 0.26864445913 0.72306271906 
-0.60703899392 0.65124892281 0.45538829629 0.37240824064 0.44427268148 -0.81482138337 0.52740138683 0.10834331465 -0.84267995309 
0.55899784678 -0.026331177249 -0.82875091337 0.56370681495 -0.12769525016 -0.81604445336 0.54537382613 -0.22669365213 -0.80695562323 
0.49108783687 -0.33891294174 -0.80247788406 0.37211437757 -0.47113240624 -0.79972816994 0.16525933886 -0.59655873327 -0.78537063141 
-0.14800794099 -0.66735059655 -0.72988823164 -0.34282096589 -0.64399456901 -0.68391869432 -0.49229682535 -0.57701329857 -0.65168971837 
-0.49229682535 -0.57701329857 -0.65168971837 
