# vtk DataFile Version 4.2
vtk output
ASCII
DATASET POLYDATA
POINTS 64 float
0 0 0 -0.964282 0.0922126 -0.393884 -1.88887 0.0187751 -0.71388 
-2.81636 -0.328809 -0.922136 -3.52199 -1.04499 -0.864963 -3.90063 -1.93258 -0.557469 
-4.1136 -2.82823 -0.131645 -4.29516 -3.71065 0.335054 -4.53078 -4.59414 0.774179 
-4.8916 -5.49653 1.05907 -5.35293 -6.39212 0.985832 -5.73625 -7.22076 0.547407 
-5.94846 -8.01511 -0.0458324 -5.99413 -8.82213 -0.658161 -5.89119 -9.64981 -1.23507 
-5.65664 -10.4827 -1.76417 -5.30418 -11.2946 -2.25953 -4.84189 -12.0508 -2.75217 
-4.27123 -12.6922 -3.29165 -3.60262 -13.0728 -3.96045 -3.17001 -12.608 -4.67765 
-3.52577 -11.6714 -4.66029 -4.08075 -10.9292 -4.2608 -4.65843 -10.3239 -3.68773 
-5.20444 -9.82574 -2.99338 -5.67554 -9.4358 -2.1848 -6.0019 -9.19395 -1.25695 
-6.0591 -9.19337 -0.248576 -5.77398 -9.51029 0.666693 -5.30385 -10.0842 1.35599 
-4.8304 -10.8324 1.8491 -4.44348 -11.6981 2.20839 -4.15979 -12.6307 2.48864 
-3.95189 -13.5936 2.73114 -3.7706 -14.5644 2.96406 -3.56108 -15.5277 3.20355 
-3.27803 -16.4681 3.45747 -2.89281 -17.3654 3.73166 -2.3906 -18.1926 4.03503 
-1.76992 -18.915 4.38281 -1.04491 -19.4928 4.79288 -0.245862 -19.891 5.27294 
0.588333 -20.0988 5.81031 1.42733 -20.1399 6.37855 2.25881 -20.0596 6.95404 
3.08458 -19.9058 7.52305 3.91131 -19.7204 8.08124 4.74352 -19.5344 8.63101 
5.5802 -19.367 9.17996 6.41594 -19.2263 9.73774 7.24525 -19.1174 10.312 
8.06632 -19.0537 10.9045 8.87984 -19.0683 11.5102 9.67857 -19.2202 12.1161 
10.4242 -19.5868 12.6956 11.042 -20.1983 13.2154 11.4892 -20.9849 13.6723 
11.7843 -21.8592 14.0932 11.9572 -22.7713 14.5017 12.0237 -23.6983 14.908 
11.9848 -24.6297 15.3095 11.8327 -25.5579 15.6921 11.5731 -26.4437 16.0266 
11.1506 -27.3572 16.3095 
LINES 1 65
64 0 1 2 3 4 5 6 7 8 9 10 11 12 13 14 15 16 17 18 19 20 21 22 23 24 25 26 27 28 29 30 31 32 33 34 35 36 37 38 39 40 41 42 43 44 45 46 47 48 49 50 51 52 53 54 55 56 57 58 59 60 61 62 63 

CELL_DATA 1
FIELD FieldData 2
Length 1 1 double
63.794358067 
Tortuosity 1 1 double
0.89046080126 
POINT_DATA 64
SCALARS MaximumInscribedSphereRadius float
LOOKUP_TABLE default
0.9796 1.2151 1.50318 1.18863 1.17144 1.54596 1.55 1.41722 1.32111 
1.51946 1.36861 1.50141 1.63481 1.56936 1.87086 2.13425 2.1684 1.9437 
1.3462 1.27635 1.8205 1.58904 1.35853 1.40852 1.79119 1.87284 1.86122 
1.88264 2.3044 2.07688 2.09393 2.3762 2.04028 1.86 1.87893 2.05511 
2.17 2.12682 1.81952 1.80148 2.54516 2.10204 1.6728 1.60969 1.78024 
1.97828 2.05337 2.14611 2.21979 2.19098 2.14004 2.11382 2.32359 2.56871 
2.74646 2.18421 2.0722 2.35507 3.14209 3.02199 2.55465 2.48 2.48 
2.48 
TEXTURE_COORDINATES TCoords 2 float
0 0 0.015873 0 0.031746 0 0.047619 0 0.0634921 
0 0.0793651 0 0.0952381 0 0.111111 0 0.126984 0 
0.142857 0 0.15873 0 0.174603 0 0.190476 0 0.206349 
0 0.222222 0 0.238095 0 0.253968 0 0.269841 0 
0.285714 0 0.301587 0 0.31746 0 0.333333 0 0.349206 
0 0.365079 0 0.380952 0 0.396825 0 0.412698 0 
0.428571 0 0.444444 0 0.460317 0 0.47619 0 0.492063 
0 0.507937 0 0.52381 0 0.539683 0 0.555556 0 
0.571429 0 0.587302 0 0.603175 0 0.619048 0 0.634921 
0 0.650794 0 0.666667 0 0.68254 0 0.698413 0 
0.714286 0 0.730159 0 0.746032 0 0.761905 0 0.777778 
0 0.793651 0 0.809524 0 0.825397 0 0.84127 0 
0.857143 0 0.873016 0 0.888889 0 0.904762 0 0.920635 
0 0.936508 0 0.952381 0 0.968254 0 0.984127 0 
1 0 
FIELD FieldData 7
Curvature 1 64 double
0 0.17085686338 0.30306628445 0.5290937253 0.45972941311 0.20035189433 0.051747238245 0.059027558121 0.19614561943 
0.3763982017 0.38434800994 0.23022703465 0.16463955934 0.15077796799 0.13688246947 0.12140779568 0.1202040645 0.16122523187 
0.30403489281 1.117205996 1.9118699448 0.49477964101 0.21972959384 0.16139962888 0.17077208366 0.23599882855 0.3745442598 
0.49432377738 0.39507060079 0.26007732237 0.19451576224 0.1429079617 0.087568076522 0.028531534277 0.029090037521 0.07625404735 
0.10990555381 0.13623564279 0.16082359843 0.18536692931 0.20304936676 0.19845425479 0.16611816175 0.11887086219 0.072006085517 
0.032469116366 0.0097761523175 0.018600555656 0.027338723909 0.035363410426 0.048053052138 0.077628948475 0.13488739378 0.21949660984 
0.28094007589 0.2497528927 0.17570437814 0.12543430299 0.10475081978 0.10284788246 0.11175524538 0.12136527458 0.15773906798 
0 
Torsion 1 64 double
0 0 0.056734954261 0.047344665948 0.071448169793 0.19744856929 0.98766766275 0.84016204672 0.34284120955 
0.26023834038 0.32751311325 0.61756204763 0.54053606306 0.18235595943 -0.055765207065 -0.26988220973 -0.4568447075 -0.45658386496 
-0.34785126277 -0.053153066353 0.0072371779933 0.12859614722 0.26066719562 0.23780721511 0.16468468216 0.076201877017 -0.0059564065579 
-0.086181676994 -0.23139509193 -0.4139843073 -0.36024460209 -0.24352502208 -0.16743506741 -0.12306504019 0.023235894961 0.0096837922992 
0.047840248367 0.093712180165 0.12462220317 0.11387556713 0.070301223831 0.021484521758 -0.02241011143 -0.068987641834 -0.14786563995 
-0.41841740535 -2.4691945934 -0.57209145833 -0.27938296649 -0.024502852438 0.20136333049 0.17229228611 0.04836082053 -0.031937441251 
-0.07483704626 -0.12422899256 -0.18396069543 -0.18460659112 -0.086945007928 0.035951266305 0.090323740494 0.11716688398 0 
0 
Abscissas 1 64 double
0 1.0456992057 2.0268505336 3.0389906449 4.0460160585 5.0587960886 6.0731281161 7.0877411961 8.1020883677 
9.1148439766 10.124925408 11.137737662 12.151625884 13.165681742 14.179814445 15.194054883 16.208363816 17.222368157 
18.236313914 19.255720594 20.21362577 21.215629748 22.22479088 23.238954558 24.253075503 25.266880185 26.279752205 
27.289743453 28.299419757 29.312087025 30.325592637 31.339553752 32.353856916 33.368387739 34.383000485 35.397540609 
36.411936514 37.426203291 38.44030741 39.454247252 40.467989969 41.481634929 42.495455659 43.509608622 44.524009703 
45.538564232 46.553163302 47.567764206 48.5823565 49.596940127 50.611510015 51.626041521 52.640425537 53.654400737 
54.667431535 55.680222828 56.693881156 57.708027858 58.722350857 59.736674305 60.751640296 61.76705657 62.748885071 
63.794279481 
ParallelTransportNormals 3 64 double
-0.37814347514 0 0.92574700227 -0.32703502975 -0.00036551659947 0.9450121458 -0.22692772716 0.02216137171 0.97365942724 
-0.055677895775 0.13384478084 0.98943698463 0.059502483963 0.30401346954 0.95080769073 0.094364549704 0.40907242331 0.90760954394 
0.10308573633 0.44837657122 0.88788049947 0.096890687749 0.42215344068 0.90133160776 0.050199963499 0.28237212868 0.95799057647 
-0.094007648565 -0.032947330373 0.99502614811 -0.25336769811 -0.35823423304 0.89859503884 -0.31057570301 -0.51412128805 0.79951362332 
-0.31821220251 -0.56153825198 0.76381659169 -0.3179704242 -0.56844078599 0.75879501985 -0.31753945195 -0.57056133914 0.75738263429 
-0.31071110775 -0.58969471897 0.7454654559 -0.284875991 -0.63941630288 0.71413756473 -0.2152383207 -0.73363429996 0.64455657566 
-0.034318947227 -0.88296893465 0.46817525597 0.51347871865 -0.8276242107 -0.22666665249 0.58587983118 0.23691330365 -0.77499478061 
0.36807054036 0.63886920499 -0.67555178649 0.24903914447 0.78051779281 -0.57338597788 0.16915928508 0.8589631156 -0.48328821868 
0.1016103223 0.91794559399 -0.38347259207 0.035839535321 0.97005085057 -0.24024336623 -0.011458440588 0.99993359612 -0.0012277963924 
0.026572693459 0.94715363524 0.3196777803 0.14551815913 0.80686893336 0.5725268463 0.26352999604 0.64152085377 0.72041858344 
0.34572250166 0.48735027244 0.80185139758 0.38888684989 0.37160718133 0.8430154926 0.40624870787 0.30466138534 0.86147746786 
0.41030284768 0.28451874087 0.86642983518 0.40662321272 0.30272874315 0.86198194352 0.39481199256 0.34837794007 0.85015075216 
0.37116248883 0.41341310907 0.831461369 0.32925074344 0.49485479407 0.80418448178 0.25968599936 0.59085013875 0.76384507282 
0.15395902848 0.69300357183 0.70430296534 0.015172872032 0.78188027368 0.6232439503 -0.13335784861 0.83699198464 0.53071659278 
-0.26054809916 0.85591945594 0.44667278065 -0.34953637654 0.85382978976 0.38574474929 -0.39963718496 0.84675107652 0.35114489148 
-0.41777991151 0.84302740294 0.33876945469 -0.41401669464 0.84386978654 0.34128281516 -0.39958808461 0.8469246588 0.35078196212 
-0.38407167487 0.84978342086 0.36104997743 -0.36897284065 0.8520470044 0.37131515612 -0.34595275982 0.85445388009 0.38758902818 
-0.2989763279 0.85586625248 0.42202619969 -0.20986912676 0.84666440309 0.48899318826 -0.070125847031 0.79973259927 0.5962467067 
0.080577029422 0.69162254831 0.71775036955 0.17542795047 0.56711366019 0.80474041195 0.21374195129 0.48138914544 0.85004639221 
0.22627627591 0.43355089721 0.87225722496 0.23006122711 0.40447470844 0.88513956075 0.23046844714 0.37702063189 0.89707287218 
0.2265933259 0.33928463421 0.91298488577 0.21516062093 0.28915049326 0.93279038345 0.18581121788 0.21119065133 0.95962112321 
0.18581121788 0.21119065133 0.95962112321 
FrenetTangent 3 64 double
-0.93538140785 0.0092975585182 -0.3535182842 -0.93538140785 0.0092975585182 -0.3535182842 -0.93946328016 -0.21356245516 -0.2679548898 
-0.83541255099 -0.54416248404 -0.077285578271 -0.55040469987 -0.81411742107 0.18511480509 -0.29333286769 -0.88416886494 0.36359489408 
-0.19451768581 -0.87665377689 0.44004661727 -0.20570481451 -0.87074204457 0.44664731177 -0.29566962894 -0.88530317233 0.35891191619 
-0.41348764521 -0.90426593493 0.10644757481 -0.42508625774 -0.86775182533 -0.25750425843 -0.29580863412 -0.80616336249 -0.51244305533 
-0.12760276646 -0.79238063338 -0.59653203253 0.028318877027 -0.80832587331 -0.58805384425 0.16678334678 -0.82063284594 -0.54657574718 
0.28992360452 -0.81235998194 -0.50597980522 0.4024304541 -0.77453333485 -0.4880039373 0.51103936005 -0.69144561763 -0.51062875981 
0.61654360685 -0.50845028557 -0.60112585035 0.62137817298 0.047510921668 -0.78206897296 0.049001688904 0.89357194198 -0.44623762614 
-0.46587877187 0.85877110535 0.2132349843 -0.56320262066 0.67002926257 0.48359445343 -0.55585621189 0.5458491211 0.62695502925 
-0.50341893318 0.4395657554 0.7438758797 -0.39624687858 0.31392778873 0.86280806364 -0.19287161097 0.12190476374 0.9736219853 
0.11612230825 -0.1611713492 0.98007112279 0.38055643586 -0.44887271135 0.80851103154 0.46965766956 -0.6580672387 0.5885313779 
0.42639128314 -0.79983361029 0.4224413208 0.33148947318 -0.88891828837 0.31613131096 0.2425469493 -0.93522603237 0.25792100683 
0.19181726463 -0.95304866227 0.23431684603 0.19261666289 -0.95325069617 0.23283455808 0.24296245379 -0.93900854889 0.24337664465 
0.32992934674 -0.90728483964 0.26073136735 0.43853736575 -0.85218892233 0.28541026522 0.55549556018 -0.76658992958 0.32212507272 
0.66656413072 -0.6440312015 0.37538789422 0.75566476617 -0.48392429456 0.44134797871 0.80958010491 -0.30038780696 0.50432848339 
0.82795829824 -0.12316480728 0.5470973283 0.82497482965 0.019359064329 0.56483781484 0.81734576595 0.11545689036 0.56446045509 
0.81448495424 0.16718553933 0.55557470673 0.81753970479 0.18302855903 0.54601225048 0.82247549485 0.17416498606 0.54148002549 
0.82426581867 0.15185040739 0.54546064382 0.82068912912 0.12302640912 0.5579729886 0.81359017472 0.085086733538 0.57517934193 
0.80628601816 0.024218807012 0.59102986921 0.7967147267 -0.082278261071 0.59872859629 0.76654152968 -0.25735661516 0.58837203869 
0.67967227365 -0.48758448857 0.54800270705 0.52967017975 -0.69533532088 0.4857553831 0.3674873617 -0.82225484854 0.43456875526 
0.23118100022 -0.8824387576 0.40970377618 0.11818075359 -0.90787924796 0.40222951235 0.013619266962 -0.91702123039 0.39860579346 
-0.094220158569 -0.91733940941 0.38679577254 -0.20651385154 -0.90992500393 0.35970615278 -0.33752709391 -0.89035841215 0.30551163447 
-0.33752709391 -0.89035841215 0.30551163447 
FrenetNormal 3 64 double
-0.12016588026 -0.94853012944 0.29300299446 -0.12016588026 -0.94853012944 0.29300299446 0.090129355941 -0.90848840508 0.40807538157 
0.43017999164 -0.7348875312 0.52429523293 0.74042840454 -0.37352789119 0.55878680394 0.81537093195 -0.032815325492 0.57800812948 
0.59121554287 0.25318981337 0.76574088324 -0.89157637981 -0.021413380305 -0.45236382052 -0.62981171712 -0.10184218937 -0.77004244652 
-0.27318796688 0.011687963375 -0.96188966429 0.20874594554 0.18283595181 -0.96072688364 0.73485014598 0.15070216892 -0.66127461711 
0.99080318649 -0.074539346464 -0.11292887788 0.96396404129 -0.13359375131 0.23005659459 0.93914280518 -0.036629877516 0.34156850492 
0.94749149611 0.16910109501 0.27141238819 0.89253074737 0.45049650108 0.021018266174 0.65833603896 0.69681066155 -0.28469029095 
0.30787264137 0.8584102767 -0.41030017494 -0.2206330011 0.96837786477 -0.11647055361 -0.67324573004 0.35957364442 0.6461013707 
-0.41420332787 -0.42460525325 0.80507514065 -0.089496990902 -0.63125878834 0.77039121929 0.19189610233 -0.64957775759 0.7356797012 
0.42895072159 -0.62019859274 0.65677620542 0.60414042632 -0.6184844712 0.5024851283 0.72531550227 -0.65056152488 0.22513801217 
0.71910960431 -0.6670073716 -0.19489110607 0.47260080843 -0.6570973062 -0.58725769986 0.011233715389 -0.66211923587 -0.74931430063 
-0.43822894134 -0.59121894046 -0.67706392565 -0.70660142444 -0.45594780348 -0.54113401989 -0.84336285907 -0.33466355752 -0.420403843 
-0.9073931499 -0.26318980443 -0.3276717845 0.94410768541 0.24471327975 0.22085309386 0.93883000146 0.29075111788 0.18455897651 
0.90667838995 0.38145651998 0.18007004349 0.839145159 0.50196812033 0.20943592885 0.72186908387 0.63686341734 0.27075821946 
0.55308620821 0.76489753392 0.33019298735 0.35883546496 0.86961768511 0.33911972933 0.17340925657 0.94318909061 0.28341413001 
0.02668583161 0.98313179446 0.18094126428 -0.063342798086 0.99628346028 0.058369141721 -0.078937744208 0.99291730225 -0.088792248678 
0.027426619403 0.9454171346 -0.32470636298 0.54513588624 0.059650288116 -0.83622288217 0.23377475304 -0.97135458197 -0.042657249332 
-0.033032458987 -0.94882824735 0.31406020709 -0.17683821329 -0.8739064136 0.45278673411 -0.16571671983 -0.91427193198 0.36965497855 
-0.092815220474 -0.98160526819 0.16684253746 -0.1049880025 -0.99446883084 0.0030436522278 -0.23501476969 -0.96505267339 -0.11593703293 
-0.45183313564 -0.86682462341 -0.21085988186 -0.67759306489 -0.69135507459 -0.2507903492 -0.84982823405 -0.48670642203 -0.20225931715 
-0.95092883862 -0.29395614845 -0.096561517549 -0.99020340996 -0.13808409744 -0.020736174459 -0.99820666328 -0.035708965656 -0.048045053296 
-0.9856262226 0.031227661672 -0.16602946264 -0.9494202025 0.097478293852 -0.29849499378 -0.87848112032 0.18135253425 -0.44202056463 
-0.87848112032 0.18135253425 -0.44202056463 
FrenetBinormal 3 64 double
-0.33259853138 0.31655038927 0.88835469716 -0.33259853138 0.31655038927 0.88835469716 -0.33058349085 0.35922123488 0.87273974356 
-0.34209800413 0.4047561086 0.84802207997 -0.38577252898 0.4446231429 0.80838717004 -0.49912530697 0.46601348981 0.73055140494 
-0.78270495832 0.40911254426 0.46904144205 0.40345642672 -0.49127360907 -0.77192820442 0.71827339607 -0.45372509466 -0.52746266879 
0.86855990122 -0.42680968878 -0.25186740074 0.88075354311 -0.46214476558 0.10341862474 0.61032164875 -0.57217959528 0.54783026186 
0.045017547935 -0.6054558759 0.79460468329 -0.26452101676 -0.57337770461 0.7754138505 -0.30032333695 -0.57028061885 0.76458217939 
-0.13492282365 -0.55810042054 0.81873057366 0.20356471847 -0.44401690928 0.87258832772 0.55265941798 -0.19067737101 0.81130124362 
0.72462984864 0.067897746411 0.68578530058 0.75180465878 0.24492248438 0.6122113456 0.73779334604 0.26876751802 0.61921321029 
0.78191596294 0.28674477768 0.55352042363 0.82145790927 0.39060610524 0.41549220672 0.80882616032 0.52924235832 0.25632551286 
0.75004710263 0.64971967204 0.12366766595 0.69137743419 0.72036539502 0.055416073045 0.66084639959 0.74960585038 0.037055434397 
0.68512552611 0.72740976239 0.038445429539 0.79487437686 0.60558766433 -0.037925002596 0.88277713896 0.3585326022 -0.30357683722 
0.79129379413 0.10356814323 -0.60260083892 0.62516330358 -0.04399860346 -0.77925282595 0.47948937978 -0.11555332814 -0.86990652546 
0.37395696076 -0.14976439559 -0.91527417603 -0.26750607382 0.17728090979 0.94710716368 -0.24406448821 0.18364839385 0.95221100237 
-0.26283250057 0.17698910454 0.94846925808 -0.32174583286 0.14765516186 0.93524198591 -0.41271019902 0.082127142345 0.90715237095 
-0.49978786092 -0.012472934559 0.86605803499 -0.54791228336 -0.097889523816 0.83078864392 -0.56081127259 -0.14199121373 0.81567714922 
-0.56015437405 -0.13521207407 0.81727888279 -0.56160860069 -0.083931480404 0.82313503523 -0.57071422922 0.028016733486 0.82067065941 
-0.57953605571 0.27970598322 0.76544269745 -0.18562245721 0.98129628029 -0.051008956798 0.51853970457 0.16166890149 -0.83963071709 
0.56523863707 -0.27688700005 -0.77707069972 0.54332089934 -0.47026809687 -0.69544972313 0.55732306284 -0.39606449244 -0.72974236649 
0.58419876049 -0.18937937281 -0.78920672919 0.59516650073 -0.065284241915 -0.80094619305 0.59764717126 -0.049405568593 -0.80023555812 
0.57783424783 -0.10429016614 -0.80946349101 0.51021283706 -0.19630830948 -0.83734455783 0.37781610818 -0.29498105502 -0.87763384482 
0.20564456963 -0.36727594786 -0.90709353934 0.07436744165 -0.39583841799 -0.91530400986 0.058292134476 -0.39723662065 -0.91586303248 
0.14022664168 -0.39687937851 -0.90709605218 0.23654451633 -0.40315563924 -0.8840317994 0.33815141891 -0.41758011955 -0.84337444925 
0.33815141891 -0.41758011955 -0.84337444925 
