# vtk DataFile Version 4.2
vtk output
ASCII
DATASET POLYDATA
POINTS 64 float
0 0 0 -0.974492 0.371114 -0.0616585 -1.91543 0.624039 -0.0491006 
-2.92539 0.778365 0.0496388 -3.91392 0.772059 0.264638 -4.85246 0.590885 0.603754 
-5.69878 0.252665 1.04856 -6.45207 -0.18822 1.56552 -7.14615 -0.672722 2.1249 
-7.82551 -1.15783 2.70152 -8.53514 -1.61591 3.2637 -9.32389 -2.03107 3.74802 
-10.2316 -2.42723 3.96387 -11.0039 -2.87061 3.52625 -11.2708 -3.34136 2.66182 
-11.2261 -3.83176 1.77634 -11.001 -4.35248 0.935453 -10.6356 -4.90793 0.169487 
-10.1436 -5.50225 -0.489169 -9.5293 -6.13972 -0.981991 -8.80315 -6.81314 -1.19371 
-8.09945 -7.38162 -0.760838 -7.90784 -7.41069 0.233272 -8.01922 -7.12639 1.19702 
-8.19283 -6.7436 2.12121 -8.34754 -6.34687 3.04196 -8.43812 -6.01177 3.99511 
-8.43687 -5.83195 4.99301 -8.34063 -5.9132 5.99843 -8.18151 -6.31167 6.9161 
-8.00693 -6.98875 7.64959 -7.84908 -7.85574 8.15051 -7.71738 -8.82572 8.41468 
-7.61129 -9.83297 8.4662 -7.53045 -10.8373 8.34947 -7.47883 -11.8248 8.12237 
-7.46438 -12.8019 7.84941 -7.49534 -13.7852 7.60179 -7.57061 -14.7861 7.4554 
-7.66523 -15.7958 7.46985 -7.72607 -16.7906 7.65787 -7.68592 -17.7485 7.98849 
-7.47466 -18.6451 8.41234 -7.03203 -19.4326 8.87198 -6.34487 -20.0386 9.30475 
-5.47612 -20.4143 9.66749 -4.51768 -20.5758 9.95697 -3.53194 -20.5781 10.1965 
-2.54662 -20.4768 10.416 -1.57159 -20.3162 10.6459 -0.612521 -20.13 10.9195 
0.318985 -19.9447 11.2761 1.19672 -19.7803 11.757 1.98537 -19.6454 12.3803 
2.67877 -19.5364 13.1127 3.32362 -19.4525 13.8916 3.98863 -19.4108 14.6566 
4.71434 -19.4468 15.3644 5.48794 -19.6 16.0023 6.25528 -19.9005 16.5939 
6.93509 -20.3681 17.181 7.40908 -21.0189 17.8119 7.5934 -21.7439 18.4387 
7.46521 -22.5408 19.1006 
LINES 1 65
64 0 1 2 3 4 5 6 7 8 9 10 11 12 13 14 15 16 17 18 19 20 21 22 23 24 25 26 27 28 29 30 31 32 33 34 35 36 37 38 39 40 41 42 43 44 45 46 47 48 49 50 51 52 53 54 55 56 57 58 59 60 61 62 63 

CELL_DATA 1
FIELD FieldData 2
Length 1 1 double
63.85887675 
Tortuosity 1 1 double
1.0955366553 
POINT_DATA 64
SCALARS MaximumInscribedSphereRadius float
LOOKUP_TABLE default
1.24 1.24 1.24 1.24 1.24 1.24 1.23999 1.22067 1.14961 
1.15629 1.22773 1.41251 1.54734 1.23046 0.90135 1.1605 1.17075 1.06135 
1.23183 1.48825 1.55 1.70034 1.81358 1.61817 1.25596 1.34436 1.54955 
1.54205 1.45138 1.26579 1.05841 1.08261 1.40728 1.55 1.56727 1.68252 
1.84543 1.86 1.86 1.85972 1.66433 1.29765 1.56098 1.76916 1.43492 
1.62458 2.134 2.05906 1.85406 1.5261 1.33747 1.44528 1.72251 2.09053 
2.17 2.1764 2.191 2.1948 2.15325 2.02788 2.04228 2.07894 1.84111 
1.55 
TEXTURE_COORDINATES TCoords 2 float
0 0 0.015873 0 0.031746 0 0.047619 0 0.0634921 
0 0.0793651 0 0.0952381 0 0.111111 0 0.126984 0 
0.142857 0 0.15873 0 0.174603 0 0.190476 0 0.206349 
0 0.222222 0 0.238095 0 0.253968 0 0.269841 0 
0.285714 0 0.301587 0 0.31746 0 0.333333 0 0.349206 
0 0.365079 0 0.380952 0 0.396825 0 0.412698 0 
0.428571 0 0.444444 0 0.460317 0 0.47619 0 0.492063 
0 0.507937 0 0.52381 0 0.539683 0 0.555556 0 
0.571429 0 0.587302 0 0.603175 0 0.619048 0 0.634921 
0 0.650794 0 0.666667 0 0.68254 0 0.698413 0 
0.714286 0 0.730159 0 0.746032 0 0.761905 0 0.777778 
0 0.793651 0 0.809524 0 0.825397 0 0.84127 0 
0.857143 0 0.873016 0 0.888889 0 0.904762 0 0.920635 
0 0.936508 0 0.952381 0 0.968254 0 0.984127 0 
1 0 
FIELD FieldData 7
Curvature 1 64 double
0 0.12341840437 0.13918276007 0.19337547996 0.2171445064 0.20694358117 0.15274216698 0.082631603869 0.022032863299 
0.041861643371 0.1160300375 0.29232515379 0.74790739403 0.73284133007 0.31011652896 0.18479548196 0.15926334634 0.16683715452 
0.20704676014 0.30378354575 0.71886743226 1.1665011984 0.44760127518 0.12023794398 0.023034003785 0.092188935356 0.1822369752 
0.27567364773 0.33562144824 0.33480343801 0.29934398746 0.2567001177 0.21389420809 0.16659195777 0.11250546689 0.058278078303 
0.050913093184 0.10907139851 0.15871569897 0.17383789562 0.17498585344 0.20068259932 0.25546271861 0.30459364882 0.30021745199 
0.24034123307 0.16549017347 0.10280494175 0.0593936114 0.051624941538 0.085131674745 0.13378871804 0.16696416543 0.14375352758 
0.069800140499 0.047426101284 0.11111928731 0.14127903096 0.15105617715 0.18527628049 0.27432180249 0.30238180305 0.31711883697 
0 
Torsion 1 64 double
0 0 0.0238131526 0.011896775479 0.01264004849 0.026191541377 0.068717804116 0.19223303801 1.6199285342 
0.72332371453 0.57614127026 0.49069991978 0.21910424716 0.21466353421 0.38958047 0.26328287398 0.16467324164 0.13247092506 
0.11484193738 0.099381844448 0.0095493328426 -0.023794862286 -0.10892901678 -0.47618513116 -4.4945090168 -0.35490818637 -0.18204911736 
-0.13244495841 -0.099453210351 -0.067753987176 -0.027728823425 0.0047580743264 0.0042352936154 -0.038625410645 -0.17119904768 -0.80244990624 
-1.1854267608 -0.33377364778 -0.25159727673 -0.32571144248 -0.4154076577 -0.33252052692 -0.16717628683 -0.057071517592 0.0030443885059 
0.044248271299 0.096142710708 0.22457153414 0.64536213453 0.82139749389 0.24195203087 0.036884778559 -0.0092355123631 0.030171118974 
0.50084406835 1.0544775663 -0.064500994641 -0.29236406106 -0.46712264027 -0.44019703561 -0.20651482457 -0.13206191567 0 
0 
Abscissas 1 64 double
0 1.0445869392 2.0190103348 3.0454532559 4.0571064321 5.0713472167 6.0854995023 7.0999284632 8.1145204797 
9.1290894192 10.143713166 11.158132653 12.171759734 13.164006041 14.183859663 15.197049143 16.211399478 17.225671809 
18.240110564 19.253355171 20.266081216 21.268950714 22.281774513 23.292736238 24.308021907 25.322464842 26.336856428 
27.350835039 28.36411495 29.377134981 30.390507644 31.404168306 32.418074231 33.432198299 34.446556364 35.461086391 
36.475680027 37.490218029 38.504571673 39.518759558 40.532990487 41.5471815 42.561155698 43.574724399 44.587981465 
45.601608818 46.615763569 47.630182189 48.644714335 49.659295311 50.6738573 51.688323646 52.702611533 53.716831931 
54.731282182 55.745911277 56.760440435 57.774782384 58.789107336 59.803563346 60.816197145 61.839040228 62.814979497 
63.858880106 
ParallelTransportNormals 3 64 double
-0.063146188719 0 0.99800428799 0.0072170878737 -0.022787011937 0.99971429205 0.091101899225 -0.040424388929 0.99502075995 
0.21256837425 -0.049350756065 0.97589916956 0.34580315906 -0.036404524048 0.93760060037 0.46570930618 -0.0015113596446 0.88493647113 
0.54963511502 0.039364468759 0.8344768894 0.59627598897 0.069184418234 0.79979276144 0.61131127537 0.079798927398 0.78735675255 
0.59260043249 0.067093291012 0.80269746338 0.51479713292 0.021750717815 0.85703606588 0.26956083384 -0.095527605876 0.95823349627 
-0.28571345114 -0.3734158512 0.88256921876 -0.57778722362 -0.62852709492 0.52068763685 -0.59743769926 -0.71391753273 0.36522589169 
-0.58820100973 -0.7485492605 0.30609406521 -0.57849554543 -0.76623765813 0.27968331228 -0.57285781785 -0.77379806635 0.27031550647 
-0.57728175577 -0.76887264866 0.27491930563 -0.60427126865 -0.74247946455 0.28910288584 -0.70069990962 -0.65875451579 0.27397467872 
-0.78865144507 -0.59995797896 0.1344593681 -0.79057188536 -0.60609567337 0.087430708574 -0.79251171875 -0.60155421012 0.10028812463 
-0.79629229383 -0.59257763969 0.1215332207 -0.79755902864 -0.58879825852 0.13121054303 -0.79650521421 -0.59487336961 0.10819019302 
-0.80039787164 -0.59880429655 0.028225192594 -0.81794015283 -0.56584703599 -0.10387992226 -0.84535777541 -0.47748061786 -0.23954642792 
-0.87191598909 -0.35412606124 -0.33816747438 -0.89186728373 -0.22755132219 -0.390887636 -0.90525326021 -0.11624816999 -0.40865988041 
-0.9136043433 -0.026382555272 -0.40574753811 -0.91819092666 0.042583066265 -0.39384274103 -0.91988128074 0.092845455483 -0.38104875114 
-0.91962809236 0.12290058317 -0.37306784692 -0.919585566 0.12369487855 -0.37291012836 -0.92318211966 0.081129999148 -0.3757029374 
-0.93042946743 -0.012315886976 -0.36626401005 -0.93191628181 -0.15260778564 -0.32900289885 -0.90727591839 -0.33435555842 -0.2550622835 
-0.82462376482 -0.54720477442 -0.14339658762 -0.65736283884 -0.75348971278 -0.011284983204 -0.43115109909 -0.89622207812 0.10437775836 
-0.21635315075 -0.95938047422 0.18105363804 -0.05678884074 -0.9728247101 0.22447073527 0.044208729173 -0.96775332783 0.24799009001 
0.096914094333 -0.96071288511 0.26007385624 0.11080912 -0.95822131305 0.26369158905 0.092692180611 -0.96178113035 0.25765328828 
0.05106977968 -0.96982671514 0.2383862836 0.0037337336153 -0.97832985345 0.20701873606 -0.03072404394 -0.98399999958 0.1754993845 
-0.05309934281 -0.98722386846 0.15023146588 -0.077540554119 -0.98956750295 0.12142330736 -0.12184698327 -0.98974884096 0.074501976394 
-0.1986551158 -0.98005366376 0.0055642719462 -0.308121155 -0.94782562268 -0.081779843613 -0.44019288709 -0.87770985161 -0.18935585163 
-0.5775984411 -0.74475310585 -0.33424968536 -0.65411718959 -0.58296916738 -0.48195191895 -0.66155895006 -0.41330103035 -0.62571719962 
-0.66155895006 -0.41330103035 -0.62571719962 
FrenetTangent 3 64 double
-0.9505291147 0.30967837424 -0.024366095993 -0.9505291147 0.30967837424 -0.024366095993 -0.9773759025 0.20402775793 0.055758579589 
-0.98526665264 0.072974696056 0.15467487489 -0.95688488655 -0.0930930473 0.27514541324 -0.88471910858 -0.25745311748 0.3885743059 
-0.79088372429 -0.38520721919 0.47551901428 -0.71395852435 -0.456474785 0.53093690413 -0.67689365795 -0.47786795521 0.55987247943 
-0.68465844668 -0.46491458864 0.56133522664 -0.73973975011 -0.43111257568 0.51664983229 -0.84543886873 -0.40432513027 0.3489331 
-0.8883542939 -0.44393130891 -0.11726739309 -0.54687874676 -0.48106087982 -0.68520366771 -0.11061227292 -0.47846440199 -0.87111235848 
0.13364428144 -0.5008553344 -0.85515094576 0.29202593763 -0.53220932908 -0.79465343502 0.42413050189 -0.56875748917 -0.70471855083 
0.54856760309 -0.61079264907 -0.57096928523 0.66925402361 -0.65449515646 -0.35176006318 0.74988850405 -0.65131779771 0.11598430011 
0.5008911442 -0.33430580071 0.79834058726 0.040601006863 0.12916146142 0.99079204434 -0.14090935944 0.32983302412 0.93346383359 
-0.16176618402 0.38407698099 0.90901956766 -0.12103313269 0.36110629594 0.92463680644 -0.044226327285 0.25493206351 0.96594703528 
0.048548264382 0.049085863773 0.99761397545 0.12778185852 -0.24005150031 0.96231339689 0.16696458105 -0.53814559401 0.82614898676 
0.16583334086 -0.77026265673 0.61578790399 0.14399145908 -0.91351300726 0.38047397451 0.11793134693 -0.98060155478 0.1565656034 
0.092480204869 -0.9951917562 -0.032261123605 0.065392265264 -0.98331686529 -0.16974037259 0.032573814984 -0.96858524135 -0.24653919934 
-0.0081393856763 -0.96647165194 -0.25664429937 -0.052440493503 -0.97949918687 -0.19450279576 -0.084017658667 -0.99432565045 -0.065249780704 
-0.076934135637 -0.99198861228 0.10019846248 -0.010239978016 -0.96644011003 0.25668785824 0.12459479439 -0.91906056449 0.37390348488 
0.32514864148 -0.83742350268 0.43931792373 0.56386209091 -0.69547673918 0.44538932149 0.77626564864 -0.48978451815 0.39689138126 
0.90764707504 -0.2668508148 0.32398677412 0.96174467769 -0.081028037764 0.26168995403 0.97277458949 0.048858847979 0.22654450119 
0.96655506016 0.12913036722 0.2215776702 0.95349620836 0.17097065783 0.24822170496 0.93261556572 0.18325996553 0.31087616765 
0.89384228113 0.17276624321 0.4137605608 0.82441021605 0.1480731737 0.54628026772 0.73247891935 0.12054371992 0.67003271883 
0.65993736176 0.095125513042 0.74527432219 0.64570311738 0.061914713516 0.76107427526 0.68655352211 0.0028134897314 0.727073824 
0.74094121427 -0.093500136199 0.66502920352 0.76175849107 -0.22428465352 0.60779963432 0.71701291855 -0.38056642158 0.58400485734 
0.57222720289 -0.55467084945 0.60406645085 0.33300640589 -0.69594965773 0.63620814797 0.028135114745 -0.7628520876 0.64596060852 
0.028135114745 -0.7628520876 0.64596060852 
FrenetNormal 3 64 double
-0.26587008217 -0.7704770765 0.57937740204 -0.26587008217 -0.7704770765 0.57937740204 -0.13030790816 -0.78849583462 0.6010775057 
0.034164382349 -0.8021887206 0.59609231795 0.23832468669 -0.79313384905 0.56048197224 0.43758959509 -0.7459332617 0.50209452831 
0.59698141054 -0.65653927839 0.46105246058 0.69876029005 -0.51290182293 0.49866399217 0.64844743888 -0.027191029518 0.7607736634 
-0.70191158884 0.62806642184 -0.33593554622 -0.66605033803 0.35990109971 -0.65333616587 -0.40653148019 0.063488634211 -0.91142819187 
0.17235918325 -0.08569245115 -0.98129970741 0.78826522359 -0.020123863611 -0.61500647751 0.99360846343 -0.073097496973 -0.086017308364 
0.95730530457 -0.15794438682 0.24211593199 0.86194737442 -0.21359522112 0.45980844407 0.74228391551 -0.2274459141 0.63030385127 
0.5841787013 -0.20856440966 0.78436989486 0.36821001606 -0.11906495893 0.92208726248 -0.022398271859 0.15022236441 0.98839848171 
-0.55566793954 0.58298327826 0.5927593426 -0.69325048327 0.71774519162 -0.065158325216 -0.50113720732 0.78939128536 -0.35457424897 
0.79110519161 0.60111442532 -0.11319904363 0.67739655707 -0.65083775121 0.34284708846 0.49395910585 -0.83485310363 0.24294998891 
0.34191789457 -0.93926430489 0.029575647595 0.18775075377 -0.94686905405 -0.2611295635 0.046063364744 -0.83273834517 -0.55174723824 
-0.055791621278 -0.63076190644 -0.77396815979 -0.10090384522 -0.39603041267 -0.91267646308 -0.11792538663 -0.17037980747 -0.97829664437 
-0.14849223101 0.018253201868 -0.98874510262 -0.25334705827 0.14817013142 -0.9559607106 -0.62013030758 0.17386195979 -0.76499047089 
-0.86712784178 -0.12100053898 0.48316474993 -0.3960535658 -0.15839843979 0.90446199881 -0.11932807169 -0.054970449543 0.99133196306 
0.19036339906 0.084032949794 0.97811054572 0.5654722156 0.20611696139 0.79859687679 0.8377429499 0.29936712887 0.45669034591 
0.89628055558 0.42105650658 0.13925725818 0.80045499177 0.59298188394 -0.087431638855 0.60128626355 0.76438585239 -0.23274255719 
0.36642546323 0.88023100951 -0.30153896894 0.15985375756 0.94175311521 -0.29588485293 -0.0050471505992 0.98175880575 -0.19006360412 
-0.16872159029 0.97085878086 0.170194749 -0.30067008294 0.48207168222 0.82292429447 -0.31441592576 -0.010171644921 0.94923082718 
-0.39080481395 -0.15220122669 0.90780305353 -0.52227020926 -0.17295628698 0.83505685514 -0.64844557034 -0.17622240496 0.74058355794 
-0.67867037959 -0.35007428173 0.64564271322 0.41548637027 -0.8647307996 -0.28215548964 0.53331730817 -0.68162612384 -0.50095755919 
0.33136025532 -0.81042520501 -0.48312665863 -0.041135081598 -0.95301475115 -0.30011795873 -0.45707533503 -0.88923975226 -0.018297571239 
-0.75933693153 -0.63658539794 0.13478299423 -0.92755761125 -0.36309376563 0.088316449014 -0.99765429926 -0.061772295298 -0.029497164358 
-0.99765429926 -0.061772295298 -0.029497164358 
FrenetBinormal 3 64 double
0.16064713352 0.55719330498 0.81469510823 0.16064713352 0.55719330498 0.81469510823 0.16660190358 0.58021288574 0.79724325833 
0.16757809572 0.59259425434 0.78787666012 0.1660501659 0.60189067283 0.7811241645 0.16058469783 0.61424869669 0.77260021579 
0.13459617426 0.648514899 0.74920777869 0.044690967376 0.72702303312 0.6851570818 -0.34832584579 0.87801074327 0.32827768711 
-0.19637447097 -0.62400881006 -0.75633991837 0.095718594448 -0.82741352751 -0.55337582633 0.34636003646 -0.91240910909 -0.21804665277 
0.42558073319 -0.89195392078 0.15264089475 0.28206661202 -0.87645619401 0.39020887531 -0.02251991298 -0.87505918198 0.48349175955 
-0.25633134785 -0.85099794634 0.45836310436 -0.41444851969 -0.8192254339 0.39636108912 -0.51877539084 -0.79043233403 0.32571278634 
-0.59817123784 -0.76382800869 0.2424003782 -0.6453839446 -0.74663218905 0.16130696924 -0.66118495817 -0.74378650674 0.098061631023 
-0.66358209939 -0.74052017452 0.10624814584 -0.71955217023 -0.68422156995 0.118682423 -0.85381851225 -0.517756289 0.054058980217 
-0.58990192195 0.70081832192 -0.40108528038 0.72559278198 0.66784164637 -0.1658392297 0.86835962235 0.48788311957 -0.089003527548 
0.9384749434 0.33966622372 -0.062382986993 0.97386931931 0.21404268657 -0.075922837378 0.98488628537 0.13017744859 -0.11424901215 
0.98457432328 0.093993920134 -0.14757555666 0.98442108558 0.093026328551 -0.14920197205 0.98599482788 0.096908781654 -0.13573093766 
0.98457984391 0.096229875872 -0.14609018431 0.9651627426 0.10551566043 -0.23943125463 0.78382226825 0.17780508758 -0.59498571633 
-0.49801913257 0.22647608166 -0.83706960764 -0.91672873177 0.12446395939 -0.37962765331 -0.98929360876 0.091075521008 -0.11403247403 
-0.97869449527 0.09432420929 0.18237332171 -0.82470377484 0.15332746638 0.54438439711 -0.53166049985 0.25633376865 0.8072360943 
-0.30159497116 0.34847280444 0.88747235334 -0.20330112785 0.40581349237 0.89105783248 -0.18938445554 0.4193153878 0.88786718238 
-0.2047172857 0.39240796695 0.89672003457 -0.22247236039 0.32639780498 0.91867868255 -0.23169834768 0.18374564026 0.9552766172 
-0.19314331632 -0.20188753275 0.96017554826 0.021035253094 -0.85928803516 0.51105928302 0.17711813066 -0.98301186294 0.048133617336 
0.21981258805 -0.97313237116 -0.068526012123 0.21813212552 -0.9737353121 -0.0652527225 0.2073474741 -0.97694159272 -0.050913155531 
0.32231846737 -0.93187935595 -0.16646822986 0.64065479029 0.49840466738 -0.58408409258 0.49418307345 0.73169523135 -0.46947329886 
0.58412883698 0.57833269976 -0.56949520647 0.64655386964 0.20361551583 -0.73519304632 0.52628377587 -0.25381462087 -0.8115439147 
0.30977968409 -0.53581646102 -0.7854535425 0.16953940971 -0.61952965326 -0.76644595197 0.06240444287 -0.64361547214 -0.76280063551 
0.06240444287 -0.64361547214 -0.76280063551 
