# vtk DataFile Version 4.2
vtk output
ASCII
DATASET POLYDATA
POINTS 64 float
0 0 0 -0.796869 0.194942 0.335844 -1.90585 0.434772 0.738874 
-2.81409 0.563252 0.952673 -3.82871 0.616164 1.09173 -4.84756 0.486334 1.08608 
-5.74492 0.0451655 0.959118 -6.44459 -0.687676 0.823048 -6.95643 -1.56418 0.792531 
-7.39964 -2.47392 0.875966 -7.84618 -3.36846 1.04882 -8.32865 -4.23188 1.27605 
-8.86403 -5.05918 1.51826 -9.45827 -5.85342 1.73307 -10.1112 -6.61737 1.87635 
-10.8143 -7.34916 1.90581 -11.5481 -8.04134 1.78873 -12.284 -8.68675 1.51937 
-12.9971 -9.28596 1.11487 -13.6701 -9.84804 0.603646 -14.2927 -10.387 0.0104291 
-14.8534 -10.9175 -0.648616 -15.332 -11.4526 -1.36626 -15.6919 -12.0019 -2.14101 
-15.8726 -12.5663 -2.96696 -15.826 -13.1317 -3.80919 -15.5488 -13.6798 -4.61953 
-15.0914 -14.2011 -5.36128 -14.511 -14.7003 -6.02822 -13.8502 -15.1868 -6.6255 
-13.1351 -15.6706 -7.15892 -12.3817 -16.1609 -7.6295 -11.5989 -16.6686 -8.03039 
-10.7962 -17.2042 -8.34242 -9.9844 -17.7838 -8.52409 -9.1848 -18.4315 -8.48877 
-8.54874 -19.0849 -8.06046 -8.22497 -19.6018 -7.23389 -8.22003 -19.8585 -6.25052 
-8.37115 -19.9403 -5.24575 -8.58217 -19.9259 -4.25489 -8.82324 -19.8575 -3.27132 
-9.07465 -19.7675 -2.29238 -9.32744 -19.6802 -1.31374 -9.5768 -19.6174 -0.332181 
-9.81928 -19.6013 0.653001 -10.0521 -19.6553 1.63938 -10.2717 -19.8032 2.61922 
-10.4742 -20.063 3.57937 -10.6559 -20.4416 4.50364 -10.8151 -20.9311 5.37848 
-10.9517 -21.5146 6.1977 -11.0674 -22.1723 6.96196 -11.1637 -22.8863 7.6766 
-11.2418 -23.6428 8.34852 -11.3013 -24.4314 8.98399 -11.3393 -25.2457 9.58807 
-11.3503 -26.0826 10.1639 -11.3297 -26.933 10.7098 -11.2602 -27.8083 11.2287 
-11.1317 -28.7012 11.715 -10.9684 -29.5297 12.1355 -10.6026 -30.5841 12.5821 
-10.2726 -31.3541 12.8747 
LINES 1 65
64 0 1 2 3 4 5 6 7 8 9 10 11 12 13 14 15 16 17 18 19 20 21 22 23 24 25 26 27 28 29 30 31 32 33 34 35 36 37 38 39 40 41 42 43 44 45 46 47 48 49 50 51 52 53 54 55 56 57 58 59 60 61 62 63 

CELL_DATA 1
FIELD FieldData 2
Length 1 1 double
63.979932718 
Tortuosity 1 1 double
0.80647531936 
POINT_DATA 64
SCALARS MaximumInscribedSphereRadius float
LOOKUP_TABLE default
1.24 1.24 1.24 1.25433 1.31018 1.45504 1.36341 1.07979 0.955188 
0.949119 1.04425 1.23027 1.32941 1.32087 1.31216 1.4146 1.66717 1.91884 
2.16021 2.39206 2.37652 2.28363 2.16688 2.1267 2.0494 1.92533 1.74135 
1.65471 1.59487 1.54104 1.45589 1.36163 1.4643 1.79494 2.30993 2.21902 
1.99061 1.86 1.86 1.86 1.89136 1.98869 2.10863 2.16411 2.1675 
2.15529 2.04632 1.95891 1.93477 2.06551 2.13777 2.17 2.17 2.17 
2.17 2.17 2.17 2.17 2.21361 2.30644 2.42413 2.39218 2.29358 
2.17 
TEXTURE_COORDINATES TCoords 2 float
0 0 0.015873 0 0.031746 0 0.047619 0 0.0634921 
0 0.0793651 0 0.0952381 0 0.111111 0 0.126984 0 
0.142857 0 0.15873 0 0.174603 0 0.190476 0 0.206349 
0 0.222222 0 0.238095 0 0.253968 0 0.269841 0 
0.285714 0 0.301587 0 0.31746 0 0.333333 0 0.349206 
0 0.365079 0 0.380952 0 0.396825 0 0.412698 0 
0.428571 0 0.444444 0 0.460317 0 0.47619 0 0.492063 
0 0.507937 0 0.52381 0 0.539683 0 0.555556 0 
0.571429 0 0.587302 0 0.603175 0 0.619048 0 0.634921 
0 0.650794 0 0.666667 0 0.68254 0 0.698413 0 
0.714286 0 0.730159 0 0.746032 0 0.761905 0 0.777778 
0 0.793651 0 0.809524 0 0.825397 0 0.84127 0 
0.857143 0 0.873016 0 0.888889 0 0.904762 0 0.920635 
0 0.936508 0 0.952381 0 0.968254 0 0.984127 0 
1 0 
FIELD FieldData 7
Curvature 1 64 double
0 0.051250759003 0.12352779803 0.12982232989 0.22423373445 0.35366990699 0.35236690258 0.25345408874 0.13358580864 
0.08827117828 0.070229186035 0.063953459782 0.070833744538 0.094714533966 0.1251629549 0.1510931823 0.15548484328 0.14100483684 
0.11673750295 0.096317986426 0.088280740756 0.098248524804 0.12905573694 0.1826506656 0.22356284688 0.2290964923 0.19027444715 
0.1419985319 0.10425594397 0.081562689537 0.071841905276 0.075432195405 0.09266945684 0.13471831186 0.22036759943 0.42847161551 
0.54204483696 0.44220882127 0.2302543117 0.11073588553 0.060541031938 0.023684256922 0.0029556804429 0.024199860822 0.046007870535 
0.068805075468 0.092473223983 0.111879595 0.12257752588 0.12027781496 0.10858598855 0.092102800626 0.075370187779 0.061184973621 
0.050549539033 0.044626575892 0.043797081049 0.044113997712 0.05870618577 0.066562087912 0.057108821418 0.14131290591 0.076703259498 
0 
Torsion 1 64 double
0 0 0.12061945093 0.24459179639 0.27851720899 0.24112361027 0.28535616848 0.40134410352 0.69428568692 
0.69351626128 0.6039795641 0.63291306566 0.53356679323 0.31155165905 0.17690555634 0.11220898978 0.092091068556 0.10127261224 
0.14159065399 0.20378420656 0.24177007036 0.18921599379 0.10204413477 0.055219725425 0.046518287382 0.052753415443 0.070671513402 
0.094225928108 0.13189136346 0.1714607281 0.19924398824 0.18032495639 0.13388831866 0.078615853829 0.0077116503581 -0.025424260172 
-0.048236663018 -0.073496037955 -0.12332101033 -0.14735692392 -0.052822877672 -0.0081128095233 5.658151357 0.03375516715 -0.017676937803 
-0.019018966875 -0.014065731668 -0.0092786549612 -0.0060638520944 -0.0017526982612 0.0031938089252 0.010821982195 0.025856330758 0.048030161686 
0.092010624935 0.14017982872 0.1409987838 0.16789692154 0.10295527036 0.046503197094 0.12556942429 0.021126261215 0 
0 
Abscissas 1 64 double
0 0.88644990758 2.0905222723 3.0323939704 4.0578574175 5.0849621687 6.0929403006 7.1152428005 8.1307041977 
9.1460996749 10.160739573 11.175573053 12.190326658 13.205261912 14.220345762 15.235617532 16.251143433 17.266391662 
18.281809459 19.29680963 20.311743744 21.326673762 22.341788684 23.357390829 24.373963158 25.389423567 26.406256521 
27.421711238 28.437020861 29.451996291 30.466809513 31.481428487 32.496983194 33.511143719 34.524990191 35.554622158 
36.562098512 37.589328495 38.605651299 39.625023865 40.638198832 41.653192948 42.66789889 43.682423015 44.697106876 
45.71181959 46.726743039 47.74172849 48.756807571 49.772009295 50.78704416 51.802086675 52.816977735 53.831722762 
54.846532874 55.861085662 56.875707923 57.891591801 58.902357119 59.922322942 60.947086391 61.890495679 63.092558598 
63.979911541 
ParallelTransportNormals 3 64 double
0.38837197669 0 0.92150269002 0.34352042511 0.010328235214 0.93908841176 0.2330500838 0.029992253693 0.97200212097 
0.13768676583 0.039169150338 0.98970103172 -0.009821470318 0.033600073263 0.99938709907 -0.13779782889 -0.0047528331788 0.99044897341 
-0.16549068702 -0.025056962062 0.98589298667 -0.11994258939 0.035498050909 0.99214598907 -0.071720857182 0.12568829513 0.98947388602 
-0.032492254564 0.20523745534 0.97817270475 -0.0050610505412 0.2571453524 0.96635948462 0.0068296027713 0.27689642709 0.96087549932 
-0.0028217181317 0.26304211819 0.9647802247 -0.039744274302 0.21690986039 0.9753822354 -0.10714571792 0.14256309809 0.98396928722 
-0.20194208905 0.048620664743 0.97818987095 -0.30683868442 -0.046843675129 0.95060806426 -0.40407868671 -0.13036943221 0.90538623034 
-0.48346316809 -0.19688143979 0.85293672905 -0.54576973419 -0.24983200585 0.79982458458 -0.5967565192 -0.2959125631 0.74586688611 
-0.64290907799 -0.34322888234 0.68473487699 -0.68808029134 -0.40164745244 0.60433834614 -0.72717104277 -0.48217520583 0.4885993711 
-0.73853616537 -0.57796134595 0.34716712839 -0.71167051662 -0.67039867331 0.20997784311 -0.66429595369 -0.73934448882 0.10991184086 
-0.61887850043 -0.78400253422 0.048264148617 -0.58486015133 -0.81101986619 0.013615433701 -0.56270004765 -0.82664837464 -0.0045957678147 
-0.55092642546 -0.8344580071 -0.012645478225 -0.54902480702 -0.83569336834 -0.013724262617 -0.55767073055 -0.83000396911 -0.0098370497673 
-0.58141394657 -0.81360382437 -0.0025767626116 -0.62949054104 -0.77700596826 0.0018395713335 -0.70847638141 -0.70532853195 -0.023934891099 
-0.76541238304 -0.63604838504 -0.097909834941 -0.77584834468 -0.61140614516 -0.15569801449 -0.77507395634 -0.60960833065 -0.16624694104 
-0.7768298111 -0.60993390558 -0.15657610101 -0.77869384405 -0.60959249403 -0.1484347953 -0.7797419921 -0.60925531777 -0.14425804492 
-0.77906510415 -0.60949326828 -0.14688607631 -0.77618442587 -0.61035419374 -0.15813125948 -0.770795947 -0.61121948357 -0.17967846558 
-0.76265810383 -0.61057205692 -0.21343472063 -0.75194210113 -0.60578941345 -0.26000435209 -0.73961435561 -0.59388094816 -0.31666389814 
-0.72715808409 -0.57318304723 -0.37775959964 -0.71622910508 -0.54534919097 -0.43544245193 -0.70767787389 -0.51433095868 -0.48441272872 
-0.70155650682 -0.48421643655 -0.52283162711 -0.69746791993 -0.4577607877 -0.5513561117 -0.6949005361 -0.43611886369 -0.57176357147 
-0.69343512067 -0.41965718914 -0.58569239113 -0.69275577423 -0.4084938408 -0.5943250115 -0.69258372704 -0.40270567947 -0.59846129094 
-0.69259062912 -0.40151195523 -0.59925484584 -0.69226098969 -0.40784123589 -0.59534884602 -0.69090922104 -0.41992586457 -0.58847830592 
-0.68895339956 -0.4313893192 -0.58244868316 -0.67750861416 -0.4734711639 -0.56285622916 -0.6684612431 -0.49681543147 -0.55347447414 
-0.6684612431 -0.49681543147 -0.55347447414 
FrenetTangent 3 64 double
-0.9119812257 0.20804570339 0.35356361417 -0.9119812257 0.20804570339 0.35356361417 -0.9420394521 0.17200025231 0.28805829948 
-0.9793697478 0.092388342675 0.17972003567 -0.99714482775 -0.037717972363 0.065418247072 -0.95625570062 -0.28494824822 -0.06617802401 
-0.79871571875 -0.58715249696 -0.13154902487 -0.59938297099 -0.79620816461 -0.082417308246 -0.47134443278 -0.88156244895 0.026116551891 
-0.43873374808 -0.88968641754 0.12637553852 -0.45804919257 -0.86676338964 0.19726166269 -0.50176773971 -0.83347127664 0.23141902775 
-0.55690911322 -0.79942856687 0.22531357279 -0.61506262786 -0.7684472079 0.17659799685 -0.66921435285 -0.73816310428 0.085248938002 
-0.70963014701 -0.70324431922 -0.043272184288 -0.72596595464 -0.66070927528 -0.19088396023 -0.71536849672 -0.61446689803 -0.33268355104 
-0.68384442886 -0.57293215916 -0.45178040917 -0.63902119835 -0.54305947952 -0.54473691794 -0.58352954506 -0.52739072771 -0.61753727852 
-0.5125915241 -0.52556264818 -0.67899472182 -0.41379057868 -0.53513961183 -0.73648011029 -0.26715210421 -0.5503655705 -0.79102938758 
-0.066411717911 -0.5595225254 -0.82615012394 0.16038868915 -0.55155412566 -0.81857407414 0.36313699698 -0.52864001496 -0.76724914859 
0.51235469977 -0.50381351656 -0.69545999321 0.61220662089 -0.48618404511 -0.62356084516 0.67842839895 -0.47843536147 -0.55752534686 
0.72406011154 -0.48029075278 -0.49503307735 0.75725671837 -0.4919555118 -0.42958356218 0.7820179662 -0.51458843107 -0.35163425195 
0.79792673276 -0.55116005032 -0.24399903296 0.79346669698 -0.60433218685 -0.072063921081 0.72063382362 -0.65309118707 0.23272041944 
0.48818662059 -0.59523596332 0.63825384562 0.16471827831 -0.38765411068 0.90696867601 -0.072293353837 -0.16740462026 0.98323413494 
-0.17845180386 -0.033212728975 0.98338795413 -0.22301013646 0.040844099196 0.9739600806 -0.24265494091 0.078046660759 0.96696809585 
-0.2484686778 0.087372815983 0.96469130149 -0.24747995235 0.073975657564 0.9660648401 -0.24242365855 0.03888980683 0.9693907121 
-0.23432274913 -0.018685150317 0.97197927673 -0.22312268049 -0.099572418125 0.96969149888 -0.20825858384 -0.20115357661 0.95716539891 
-0.18959948783 -0.31504549276 0.92994535953 -0.1682227269 -0.428379483 0.88780185441 -0.14593117767 -0.52935779681 0.83575380007 
-0.12442571748 -0.6121164362 0.78091722312 -0.10452548992 -0.67630904423 0.72916424669 -0.085969583575 -0.72487357278 0.68349655023 
-0.067827355528 -0.76162912744 0.6444536617 -0.048062250603 -0.79014535558 0.61103218992 -0.024137388243 -0.81338394518 0.58122624185 
0.0047378564496 -0.83275475638 0.55362177382 0.044389455411 -0.85019594686 0.52459167759 0.096889888021 -0.8652520543 0.49188538516 
0.14831760365 -0.87496305015 0.46091381985 0.24730967072 -0.88009810856 0.40529649156 0.33326633569 -0.87383046309 0.35405348645 
0.33326633569 -0.87383046309 0.35405348645 
FrenetNormal 3 64 double
-0.40876768388 -0.388098498 -0.82600758863 -0.40876768388 -0.388098498 -0.82600758863 -0.33548501881 -0.47425807927 -0.8139588911 
-0.19487783105 -0.66707872847 -0.71904700889 -0.011112168942 -0.78359471813 -0.62117295291 0.28987562183 -0.89258799218 -0.34533867448 
0.59435789304 -0.80394123866 -0.020424978823 0.70961341386 -0.57617427071 0.40555149197 0.5002881335 -0.24286714864 0.83110007315 
-0.040372149797 0.16000644245 0.98629003234 -0.49615884278 0.43341480428 0.75231510031 -0.80489041383 0.54787047506 0.22801176347 
-0.80652739616 0.45570519209 -0.37662492901 -0.60162981458 0.31261751008 -0.73505908511 -0.38980808064 0.25107441189 -0.88600863425 
-0.1969914058 0.25699717837 -0.94612199866 -0.014584229388 0.29228404455 -0.95622033944 0.15893195975 0.32054817176 -0.93380378118 
0.33170226674 0.30738509687 -0.89190134458 0.50855821458 0.23303090582 -0.82889392525 0.68249247114 0.093630872085 -0.72487053094 
0.813717075 -0.04492688446 -0.57952230061 0.89763909685 -0.10500366366 -0.42804004768 0.95973534351 -0.078000383029 -0.26985924233 
0.99712984121 -0.0070499990259 -0.075381544675 0.98694463893 0.077272407642 0.14131261339 0.92823971515 0.13399267703 0.34701151814 
0.84499037017 0.15124603985 0.51294825251 0.75268858594 0.11676992768 0.64793879078 0.64790086129 0.031864874874 0.76105788458 
0.52092059889 -0.089631090929 0.8488863276 0.37018105026 -0.21859316528 0.90287486293 0.21986298927 -0.30014877327 0.92820847866 
0.067710813614 -0.32028137495 0.94489951136 -0.10900759281 -0.25760846123 0.96008084317 -0.34628016825 -0.048244117389 0.93688982822 
-0.61531323351 0.28388435128 0.73539057634 -0.72002386416 0.58119573115 0.37917958429 -0.66214373819 0.74528476316 0.078206724596 
-0.53507790383 0.84200791373 -0.068660833427 -0.47665986474 0.8669633122 -0.14549910189 -0.4267153135 0.88656762066 -0.17863900811 
-0.46872500768 -0.88240110038 -0.040806436095 0.13929742565 -0.98400596142 0.11103375659 0.14547670135 -0.98644181423 0.07595443701 
0.13717139634 -0.99044797976 0.014028806617 0.13923161398 -0.98782514147 -0.06939774885 0.14900494168 -0.97372484969 -0.17221336898 
0.16548162212 -0.94382939744 -0.2860103167 0.18198948309 -0.89865144685 -0.39913081205 0.20258861966 -0.84288495844 -0.49850054966 
0.22063369337 -0.78439772393 -0.57969042087 0.2501013161 -0.72749342678 -0.63890738427 0.28918208798 -0.67465691066 -0.67912574159 
0.35723877823 -0.62165355688 -0.6970848661 0.46836924954 -0.55814380519 -0.68491294251 0.59908171674 -0.47720908114 -0.6429405801 
0.69846894146 -0.39343844942 -0.59778534972 0.8020151272 -0.28276341029 -0.52613362328 0.84214478711 -0.19213645876 -0.50386083272 
0.849956739 -0.12547172838 -0.51169364586 0.86808923127 0.015443451305 -0.49616790139 0.84673825739 0.11222794198 -0.52003770297 
0.84673825739 0.11222794198 -0.52003770297 
FrenetBinormal 3 64 double
-0.034629822173 -0.89782879279 0.43898090421 -0.034629822173 -0.89782879279 0.43898090421 -0.0033871588116 -0.86342063182 0.50447332903 
0.05345585142 -0.7392363385 0.6713211659 0.074690777145 -0.62012633574 0.78093829175 0.03933394076 -0.34941547198 0.93614190647 
-0.093765108686 -0.094500952897 0.99109922525 -0.37039014155 0.18459623068 0.91034904002 -0.72632376332 0.40480019357 0.55550931056 
-0.89770974586 0.42761667041 -0.10611877954 -0.73757531135 0.24672420597 -0.62857762152 -0.31682890826 -0.071858009826 -0.94575677069 
0.19840816227 -0.39146742441 -0.89854741487 0.50964647553 -0.55835399262 -0.65460009846 0.6326150569 -0.62616041968 -0.45576454295 
0.67647575011 -0.66287244459 -0.32090603253 0.68757598341 -0.6913995161 -0.22182420106 0.68043261685 -0.72088785592 -0.13165163545 
0.64986952795 -0.75977835138 -0.020160690127 0.57707924104 -0.80671122382 0.12726567062 0.44011055074 -0.84444791439 0.30530382082 
0.27407015757 -0.8495678183 0.45068844099 0.15172807517 -0.83821228008 0.5238117646 0.086820640643 -0.83127232545 0.54904325632 
0.036353314676 -0.82878515979 0.55838480945 -0.014688365379 -0.83055223887 0.55674700757 -0.080638406774 -0.83820385175 0.53936235526 
-0.15324469306 -0.85046844501 0.50320918919 -0.24220434749 -0.86601954843 0.43743250427 -0.34635152869 -0.87754443457 0.33159671881 
-0.45208260807 -0.87251765617 0.18529504888 -0.5380782959 -0.84273175003 0.016581465038 -0.58318793411 -0.80318706445 -0.12158278253 
-0.59893920799 -0.77048195293 -0.21824157564 -0.59877203132 -0.7539366609 -0.27028053179 -0.60064709883 -0.75574096522 -0.26091886892 
-0.61892119704 -0.75173387782 -0.2276680232 -0.67411684732 -0.71549689906 -0.18338665053 -0.74588158642 -0.64538849921 -0.16472505614 
-0.82574002599 -0.53844181473 -0.16802922847 -0.85033043717 -0.49669545485 -0.17387286376 -0.87122478206 -0.45596773212 -0.1818263083 
0.84767929273 -0.46231405893 0.26020285855 0.95882735693 0.16204897403 0.23321712979 0.95920138612 0.15943691562 0.23347927274 
0.96243278065 0.13661502313 0.23464756165 0.96479574373 0.11952750071 0.2342698219 0.96665706929 0.10675746211 0.23275943519 
0.9678160295 0.099661457021 0.23108380954 0.96880387189 0.094427726983 0.2291341576 0.96832945972 0.09656743645 0.23024505999 
0.96738772691 0.10016825462 0.23265275968 0.96256103892 0.11558283039 0.2451873889 0.9534059737 0.13927080232 0.26762042696 
0.93154704936 0.18294241569 0.31424857577 0.88222461208 0.25327023075 0.39690543466 0.80032398637 0.33268310839 0.49880203111 
0.71562468552 0.3895198355 0.57978927829 0.59565200578 0.44408524604 0.66931829667 0.53047573661 0.46305773263 0.71005142709 
0.50554468673 0.46764998263 0.72507107477 0.43041725491 0.47454064011 0.76782300536 0.41469009267 0.47310169183 0.77730747856 
0.41469009267 0.47310169183 0.77730747856 
