# vtk DataFile Version 4.2
vtk output
ASCII
DATASET POLYDATA
POINTS 64 float
0 0 0 -0.918162 0.0432309 0.4974 -1.86057 0.0234412 0.744999 
-2.87215 -0.119281 0.820256 -3.82807 -0.45009 0.781873 -4.69308 -0.979277 0.779609 
-5.44667 -1.6465 0.903242 -6.10506 -2.37508 1.15742 -6.69559 -3.12592 1.49895 
-7.23427 -3.9018 1.86982 -7.70702 -4.74286 2.18305 -7.99888 -5.70638 2.23513 
-7.91908 -6.63063 1.8337 -7.5992 -7.37797 1.22488 -7.20575 -8.07492 0.601727 
-6.8025 -8.81627 0.0389128 -6.46444 -9.68742 -0.35781 -6.38306 -10.689 -0.337819 
-6.72576 -11.446 0.225287 -7.30063 -11.7214 1.0133 -7.90361 -11.6114 1.81998 
-8.42399 -11.2271 2.60054 -8.8087 -10.6908 3.37067 -9.04149 -10.1214 4.17714 
-9.11061 -9.65245 5.07308 -8.99054 -9.47413 6.06152 -8.69051 -9.74315 6.98869 
-8.29951 -10.3533 7.69756 -7.89031 -11.1232 8.21573 -7.49583 -11.9669 8.61792 
-7.1356 -12.853 8.95623 -6.82292 -13.7678 9.2639 -6.56341 -14.702 9.56266 
-6.34854 -15.6457 9.86693 -6.14845 -16.5875 10.1871 -5.90783 -17.5098 10.5346 
-5.53863 -18.3706 10.9241 -4.93933 -19.0616 11.3581 -4.12694 -19.4734 11.8015 
-3.22885 -19.6623 12.2337 -2.31689 -19.744 12.6707 -1.41173 -19.7796 13.1276 
-0.519 -19.7868 13.6097 0.360201 -19.7583 14.1152 1.22484 -19.6699 14.6385 
2.0694 -19.4902 15.171 2.88191 -19.1981 15.7034 3.65449 -18.8032 16.2291 
4.39774 -18.3473 16.7479 5.1403 -17.886 17.2629 5.91288 -17.475 17.7762 
6.7326 -17.1645 18.2867 7.59488 -16.9992 18.7945 8.4697 -17.0168 19.307 
9.29403 -17.2489 19.8497 9.94894 -17.7235 20.4597 10.2568 -18.4066 21.1385 
10.1562 -19.1483 21.8211 9.77469 -19.8297 22.4681 9.25365 -20.4373 23.0917 
8.68303 -21.001 23.7107 8.13963 -21.5864 24.3488 7.71548 -22.2107 24.9781 
7.69832 -23.0547 25.5871 
LINES 1 65
64 0 1 2 3 4 5 6 7 8 9 10 11 12 13 14 15 16 17 18 19 20 21 22 23 24 25 26 27 28 29 30 31 32 33 34 35 36 37 38 39 40 41 42 43 44 45 46 47 48 49 50 51 52 53 54 55 56 57 58 59 60 61 62 63 

CELL_DATA 1
FIELD FieldData 2
Length 1 1 double
63.860378764 
Tortuosity 1 1 double
0.80951666868 
POINT_DATA 64
SCALARS MaximumInscribedSphereRadius float
LOOKUP_TABLE default
0.93 0.93 0.897245 0.756815 0.75815 1.07803 1.24 1.24656 1.33703 
1.49526 1.48637 1.37652 1.29118 1.46761 1.7995 1.87517 1.86311 1.87106 
2.11149 2.25051 1.96529 1.78183 1.72387 1.83641 2.13431 2.60248 2.42629 
2.19191 2.17 2.33629 2.62644 2.71072 2.55712 2.31809 2.01336 2.06304 
2.36277 2.35083 2.30949 2.4355 2.39131 2.2413 2.2795 2.43937 2.66214 
2.86956 2.89952 2.85925 2.83017 2.78166 2.62185 2.41113 2.10732 1.95352 
2.09798 2.07796 1.94498 2.05013 2.22513 2.38427 2.48 2.48 2.70242 
3.1 
TEXTURE_COORDINATES TCoords 2 float
0 0 0.015873 0 0.031746 0 0.047619 0 0.0634921 
0 0.0793651 0 0.0952381 0 0.111111 0 0.126984 0 
0.142857 0 0.15873 0 0.174603 0 0.190476 0 0.206349 
0 0.222222 0 0.238095 0 0.253968 0 0.269841 0 
0.285714 0 0.301587 0 0.31746 0 0.333333 0 0.349206 
0 0.365079 0 0.380952 0 0.396825 0 0.412698 0 
0.428571 0 0.444444 0 0.460317 0 0.47619 0 0.492063 
0 0.507937 0 0.52381 0 0.539683 0 0.555556 0 
0.571429 0 0.587302 0 0.603175 0 0.619048 0 0.634921 
0 0.650794 0 0.666667 0 0.68254 0 0.698413 0 
0.714286 0 0.730159 0 0.746032 0 0.761905 0 0.777778 
0 0.793651 0 0.809524 0 0.825397 0 0.84127 0 
0.857143 0 0.873016 0 0.888889 0 0.904762 0 0.920635 
0 0.936508 0 0.952381 0 0.968254 0 0.984127 0 
1 0 
FIELD FieldData 7
Curvature 1 64 double
0 0.24804383498 0.21996136577 0.2210312496 0.21806932246 0.21399721438 0.1692449525 0.10998911621 0.062840081208 
0.10636262109 0.3425853554 0.63007612434 0.36553734164 0.087835800525 0.073531560658 0.21682678885 0.52958257117 0.83542974056 
0.62137398301 0.39100649981 0.28582386485 0.20043430849 0.15617722726 0.20833742377 0.36139279242 0.50443538144 0.42278823326 
0.24632546686 0.13499184359 0.081722983569 0.061683703255 0.055708192372 0.044684551857 0.021171381193 0.051159159859 0.14516161215 
0.28766108343 0.35321758331 0.2359245601 0.10543271317 0.049255764775 0.038826454434 0.043520516318 0.062399496862 0.09146582252 
0.11396026957 0.1076832468 0.066173776489 0.0064498384147 0.056979195715 0.10822223338 0.14791677187 0.17977609797 0.21897865089 
0.3021465585 0.41817254731 0.42038582534 0.28767312656 0.15603704292 0.0646244065 0.037316692558 0.11918020769 0.47316850042 
0 
Torsion 1 64 double
0 0 0.4200539596 0.53636575612 0.52948578467 0.32739248976 0.19651321475 -0.048077432907 -1.0791511678 
-0.63836522767 -0.048575892393 0.016204860675 0.093576306545 1.1019618689 1.1178760924 0.19368907922 0.068207498913 0.033634322085 
-0.0054289056369 -0.12655154671 -0.26107566777 -0.48336889147 -0.81871657975 -0.53197365751 -0.17862943376 -0.054808146891 -0.022143395166 
-0.048775821237 -0.18605795802 -0.39395433035 -0.44691080793 -0.32536412118 -0.34469057021 -1.8948012945 -0.53347820132 -0.086569662049 
-0.0082345236664 0.022437647001 0.083556776576 0.29788601322 0.58377945282 0.14554124605 -0.25730966883 -0.21711275122 -0.087879326565 
-0.02168141249 0.00045525122106 -0.022311294527 -5.7438920333 -0.087863840352 -0.070059620624 -0.11738693707 -0.20601263405 -0.28470163754 
-0.24127529105 -0.15269926106 -0.12349414833 -0.14257400867 -0.18377718681 -0.3489689212 -0.6541831891 -0.21214606977 0 
0 
Abscissas 1 64 double
0 1.0451306335 2.0197254377 3.044084752 4.0563575084 5.070407123 6.0844858772 7.0988373227 8.1133046726 
9.1280485893 10.142437677 11.150539602 12.161360033 13.176988297 14.191316096 15.205700471 16.220870796 17.225930706 
18.229720367 19.243269705 20.25639413 21.270196645 22.28446043 23.298716483 24.312346355 25.323894247 26.334851414 
27.348590277 28.362856713 29.377351858 30.391895419 31.406454562 32.421016804 33.435607412 34.45021107 35.464742167 
36.479146759 37.4916101 38.50458917 39.518997635 40.533550304 41.548129695 42.562715621 43.577287282 44.591816893 
45.606267901 46.620662028 47.635147368 48.649747767 49.664351309 50.678868811 51.693254759 52.707481859 53.721563656 
54.735419374 55.74842836 56.759495714 57.772515006 58.786665235 59.801283877 60.814494672 61.836779652 62.819479731 
63.860393118 
ParallelTransportNormals 3 64 double
0.47632919715 0 0.87926702198 0.25405472546 0.0025363305994 0.9671865195 0.0758716946 -0.012016856071 0.99704517507 
-0.027334555872 -0.036918981524 0.99894434823 0.0093679291731 -0.019589353651 0.99976422177 0.11256171256 0.056687431142 0.99202640893 
0.20708329579 0.15012508184 0.96673624552 0.26500582669 0.21873769202 0.93910901066 0.28467377672 0.24532881885 0.92670092883 
0.25971550099 0.20542809267 0.94358208826 0.17309678216 0.00080133067756 0.98490449378 0.12959068351 -0.38558511103 0.91352634165 
0.17498200883 -0.57574396932 0.79868653324 0.18456273212 -0.59514042574 0.78214095376 0.15531816432 -0.5423444932 0.82567470503 
0.083440343139 -0.38600503155 0.91871531214 -0.0070466682146 0.019383227916 0.99978729485 0.075307506591 0.57297358094 0.81610664437 
0.29127481602 0.81681919986 0.49796121968 0.47932746278 0.84322166151 0.24335655526 0.62696930837 0.77826849552 0.034751046467 
0.7171845635 0.68650723783 -0.11980865698 0.7556217497 0.61768580631 -0.21794498403 0.76188736828 0.59613398478 -0.25328227384 
0.76324250911 0.61327788604 -0.20334971548 0.7903987224 0.60740718169 -0.079538514294 0.83184241041 0.5546996116 0.018615722437 
0.86227713856 0.50221077414 0.065287630226 0.88475987112 0.45706960645 0.091034857744 0.90513128732 0.41037949875 0.11102260902 
0.92418849796 0.35937825854 0.12931700401 0.9401176227 0.30790355301 0.14619937594 0.95028153163 0.26766758614 0.15911968441 
0.95249894133 0.25759217677 0.16245626249 0.94220246223 0.30114317093 0.14685813144 0.89875014179 0.428191639 0.094340356797 
0.76206584887 0.6471302567 -0.02186487719 0.51877521436 0.83720611705 -0.17308435671 0.32233604414 0.90621032087 -0.27364635754 
0.23388329031 0.91943834844 -0.31611980313 0.203386165 0.92140750823 -0.33112274412 0.18997709094 0.92172642905 -0.3381258566 
0.17069825926 0.92149406356 -0.3488707427 0.13132818375 0.91885565775 -0.37209835847 0.066488873314 0.90868659561 -0.41215033748 
-0.014326400346 0.88567445919 -0.46408566729 -0.087468953062 0.85397294023 -0.51291266275 -0.13040196825 0.82987551021 -0.54249604997 
-0.13512224161 0.82696173297 -0.54578042473 -0.10229243656 0.84586280736 -0.52350011323 -0.033604773152 0.87698680411 -0.47933794409 
0.071127137228 0.90660929177 -0.41593331489 0.21322022351 0.91869453064 -0.3324717968 0.39551387074 0.89190534117 -0.21925701914 
0.61509637231 0.78698090899 -0.048140436753 0.80193015041 0.56221451599 0.20204670714 0.83994317061 0.30136617308 0.45130244833 
0.78398495386 0.13614264531 0.60566721246 0.73389443662 0.064596536764 0.67618506589 0.71442856168 0.043711510467 0.69834170297 
0.73145472959 0.061269942995 0.67913177856 0.77025509287 0.10992846626 0.62819011789 0.83302062617 0.31248713306 0.45653962374 
0.83302062617 0.31248713306 0.45653962374 
FrenetTangent 3 64 double
-0.92828048415 0.011695345133 0.37169686797 -0.92828048415 0.011695345133 0.37169686797 -0.98331799026 -0.081781913994 0.16247291645 
-0.97207646912 -0.23395605295 0.018218218351 -0.90404295784 -0.42696497827 -0.020180131663 -0.80270546542 -0.59333051338 0.060190013106 
-0.69863245089 -0.6906282181 0.18693678855 -0.61654556235 -0.73033493169 0.29407899805 -0.55676104587 -0.75275468773 0.35125136 
-0.49917625558 -0.7980167848 0.33762742341 -0.38352509151 -0.90516978331 0.18323800798 -0.10979032257 -0.97735981005 -0.18086980615 
0.20047851474 -0.83846534942 -0.50673881137 0.35174970603 -0.71219298219 -0.60749757236 0.39298528334 -0.70946478884 -0.58499767562 
0.36743533095 -0.79924653064 -0.47560094705 0.21446445239 -0.95754879652 -0.19262736294 -0.13966362749 -0.9398805441 0.31163862722 
-0.47488930197 -0.53431968862 0.69927292327 -0.5920614356 -0.083140192177 0.80159276751 -0.55989120195 0.24636280451 0.79109241593 
-0.44856282645 0.45624986863 0.76852290018 -0.30535066724 0.54676394791 0.77962180272 -0.14969703366 0.51484788356 0.84411045184 
0.025563236029 0.3247557333 0.94545239682 0.21398421349 -0.046199453375 0.97574400684 0.34870748986 -0.44364717854 0.825578747 
0.3975986877 -0.68571149836 0.6096843647 0.39707059344 -0.79722410224 0.45471823653 0.37226481953 -0.85323323089 0.36525601685 
0.33178731857 -0.88795789161 0.31850896059 0.28210477988 -0.91160536181 0.29898588176 0.23384678469 -0.92571544068 0.29726520849 
0.20450489765 -0.92923188038 0.30774317103 0.217257188 -0.91894758916 0.32914228328 0.3013709804 -0.88120220972 0.36422273098 
0.4827902194 -0.7735608128 0.41050855405 0.70771690023 -0.55286240528 0.43986355835 0.84960272577 -0.29837040788 0.43491413872 
0.89337394085 -0.1335578861 0.42900500332 0.89580261261 -0.057826497957 0.44067422818 0.88619125359 -0.021096833516 0.46283904943 
0.87343984131 0.010499117052 0.48681886996 0.85985146261 0.057640721354 0.50728001092 0.84329585715 0.13227730224 0.52091728002 
0.81812028511 0.23293559061 0.52575679712 0.78243333397 0.33911761591 0.52230002918 0.74746905209 0.41953677147 0.51505234059 
0.73221662873 0.45200210371 0.50946335182 0.74700416385 0.43006659843 0.50697879651 0.78598347204 0.35614346485 0.5053630518 
0.83144689628 0.23519740201 0.5033669047 0.85995641191 0.073119011034 0.50510254389 0.84297211981 -0.12387898677 0.523499763 
0.73811832972 -0.35263217082 0.57517987051 0.48576413909 -0.58411682532 0.65026205144 0.10459647953 -0.71904400528 0.6870482479 
-0.24029099491 -0.70929452267 0.66269262699 -0.44625311912 -0.63732716044 0.6282294519 -0.5386256686 -0.57791982765 0.61309955303 
-0.54739355367 -0.56463072379 0.61769931452 -0.48342288959 -0.60440940849 0.63323895707 -0.2239246361 -0.74502875063 0.62832310006 
-0.2239246361 -0.74502875063 0.62832310006 
FrenetNormal 3 64 double
-0.36263615277 -0.24994452925 -0.89778769929 -0.36263615277 -0.24994452925 -0.89778769929 -0.091870326901 -0.54762221951 -0.83166684901 
0.19361680297 -0.84348520758 -0.50104414796 0.41832188656 -0.89346839613 0.16346566715 0.51236235483 -0.63445419585 0.57875097471 
0.55192195663 -0.35394333237 0.75505382011 0.60201407757 -0.1965944032 0.77390547939 0.80481069423 -0.38413639226 0.45245881425 
0.60230642401 -0.59967506655 -0.52689352449 0.52420488531 -0.37671544114 -0.76373733353 0.63297835509 0.071549583797 -0.77085605598 
0.65829383931 0.49836190511 -0.56416720276 0.81973026383 0.54771746347 -0.16747499745 0.12943477649 -0.58716906852 0.79904888687 
-0.29678048825 -0.58539689565 0.75447452996 -0.50245917301 -0.27727934064 0.81893280964 -0.58025373036 0.3327079022 0.7433781408 
-0.39198963794 0.83983875974 0.37551961519 -0.073326426468 0.99609591637 0.049154456214 0.28844889354 0.95300345251 -0.092637224283 
0.6660759686 0.74400380357 -0.052925838019 0.95151415556 0.20715509001 0.22739300879 0.77206683617 -0.47245632325 0.42508566561 
0.52728612416 -0.80788107317 0.26324421148 0.37051064913 -0.92040125775 -0.1248334235 0.21677657989 -0.81880526558 -0.53156923488 
0.072150495036 -0.63904112105 -0.76578113824 -0.10719553079 -0.53234384109 -0.83971373279 -0.40828673532 -0.50396406589 -0.76113215807 
-0.74935842723 -0.453177482 -0.48279614471 -0.92810424189 -0.33824519767 -0.15560431371 -0.97101249192 -0.20679372178 0.11987951103 
-0.67921014222 0.091683454646 0.72819484126 0.77059753071 0.36844410647 0.52002729359 0.86563046375 0.41302200569 0.28301364464 
0.79840819709 0.5813975089 0.15659274398 0.60531208761 0.79556270365 0.026024241743 0.353386966 0.93416888971 -0.049458444774 
0.1270882053 0.99092205692 0.043841363753 -0.13441629665 0.90982055187 0.39263064398 -0.31221855663 0.71088883428 0.63020364819 
-0.30114835306 0.79728045259 0.5231190585 -0.22643279629 0.9335928604 0.27772749194 -0.21318575857 0.97205561087 0.098283883315 
-0.27357601426 0.96185028526 -0.00043951403794 -0.36224798869 0.93006996878 -0.061206599934 -0.43236313742 0.89588058315 -0.10227462112 
-0.10379000045 0.81334904908 -0.57244297547 0.51314813133 -0.8578299708 -0.028403107398 0.42563276418 -0.90456402624 -0.024508620633 
0.2819070996 -0.95928350957 -0.01742226928 0.069395329882 -0.99724477015 0.026213672103 -0.22632357459 -0.9644815727 0.1362091609 
-0.55642565273 -0.80030140282 0.22340133757 -0.84265998621 -0.51064068488 0.17079296996 -0.99034800682 -0.1384799494 0.0058420024638 
-0.96937046439 0.21107197339 -0.12557676866 -0.87293182908 0.46461851159 -0.14872679806 -0.7591406826 0.64854830059 -0.055592497924 
0.83412711198 -0.42787570686 0.34807232084 0.83861214481 -0.52722303571 0.13698737604 0.915717069 -0.38153835673 -0.12605844632 
0.915717069 -0.38153835673 -0.12605844632 
FrenetBinormal 3 64 double
0.082403661689 -0.96818952236 0.23625978359 0.082403661689 -0.96818952236 0.23625978359 0.15698908583 -0.83271941448 0.53097344913 
0.1325891089 -0.48352587302 0.86522994534 -0.087824424892 0.13933819449 0.98634260678 -0.30520280658 0.49540566736 0.81328006959 
-0.45529644447 0.63067961901 0.62844917521 -0.50739592031 0.65418768575 0.5608813171 -0.20566206323 0.53460229353 0.81969720233 
0.62293662395 -0.059657570602 0.77999419024 0.7603405437 -0.19685817178 0.61897424649 0.7663448878 -0.19911920743 0.61079215301 
0.72557397022 -0.22047963479 0.65186742854 0.45201154728 -0.43907486415 0.77646559795 -0.91038959007 -0.3897334966 -0.13891938639 
-0.8814264685 -0.13607151733 -0.45229627769 -0.83757971449 -0.078844591087 -0.54059573837 -0.80237128535 -0.077006588225 -0.59183638432 
-0.78792402846 -0.095777492079 -0.60827822367 -0.80254999325 -0.029675475212 -0.59584635143 -0.77673617001 0.17632296521 -0.60464132685 
-0.59593136751 0.48815407163 -0.63762952219 -0.037172325505 0.81125578824 -0.58350858115 0.61765977577 0.71534374912 -0.32677166644 
0.84930316391 0.49179455598 -0.19189124647 0.90384324706 0.3882359273 -0.17983394977 0.91181741644 0.36432831078 -0.1893512108 
0.91471831162 0.34846260436 -0.20460748705 0.91150647941 0.28468186747 -0.29683694569 0.83349915771 0.13421353879 -0.53597190235 
0.57304373549 -0.078491735494 -0.81575727069 0.24298026537 -0.23359334446 -0.94148539026 -0.049501735566 -0.31668166906 -0.9472393038 
-0.7048768187 -0.35794169445 -0.61239400213 -0.5991483622 0.14065656326 0.78818587356 -0.3998242519 0.22999019197 0.88726832423 
-0.35980266102 0.2521519493 0.89831032477 -0.3643268666 0.24783693307 0.89768746726 -0.39152632175 0.19571301745 0.89911264821 
-0.43096588018 0.015354744029 0.90223757512 -0.42363892461 -0.41095335445 0.80724680366 -0.34232241376 -0.70298790097 0.6233966443 
-0.38263888075 -0.60351772837 0.6995383038 -0.45758458345 -0.35366922153 0.81580293621 -0.49335983791 -0.19393453712 0.84793010658 
-0.50580170375 -0.14347487368 0.85063482006 -0.50653180808 -0.14131205101 0.85056242078 -0.50433335559 -0.14624253182 0.85103524505 
-0.67311696191 0.36627506413 0.64246099725 0.42268637842 0.28137246155 -0.86149043139 0.44840465178 0.23436244339 -0.86255870142 
0.47877389847 0.15638839586 -0.86389711412 0.50562758807 0.012509142253 -0.86266115222 0.48803242188 -0.23330086276 -0.84106781096 
0.38153875861 -0.48494145703 -0.78693072055 0.2322872119 -0.63091491132 -0.74026280865 0.090941749756 -0.68102791579 -0.72658831264 
-0.050804926346 -0.67256962625 -0.73828785531 -0.19709940499 -0.61477128206 -0.76368062389 -0.36549666639 -0.49537235955 -0.78804721448 
0.067766204385 0.70577228993 0.70519019868 0.25106170635 0.59726471313 0.76173675378 0.33364652987 0.54713859585 0.76767138154 
0.33364652987 0.54713859585 0.76767138154 
