# vtk DataFile Version 4.2
vtk output
ASCII
DATASET POLYDATA
POINTS 64 float
0 0 0 -0.952496 0.081613 0.413259 -1.91324 0.132956 0.590018 
-2.93737 0.114586 0.652663 -3.93894 -0.0274396 0.649935 -4.90723 -0.330442 0.66808 
-5.80014 -0.802585 0.758164 -6.59059 -1.41335 0.93401 -7.27632 -2.12192 1.17224 
-7.86518 -2.90742 1.42766 -8.34879 -3.77823 1.62118 -8.66188 -4.74155 1.59926 
-8.73109 -5.68901 1.25061 -8.62942 -6.5283 0.689961 -8.46579 -7.30434 0.0573188 
-8.29943 -8.07998 -0.576076 -8.17589 -8.90415 -1.15 -8.16701 -9.83861 -1.56245 
-8.49636 -10.7668 -1.39469 -9.04194 -11.1902 -0.658552 -9.56295 -11.2907 0.204644 
-10.0184 -11.2512 1.11102 -10.3665 -11.1551 2.05833 -10.5104 -11.0826 3.06088 
-10.2491 -11.1925 4.03043 -9.61376 -11.5684 4.72204 -8.87697 -12.099 5.17387 
-8.15333 -12.7184 5.52327 -7.4822 -13.4108 5.83844 -6.8906 -14.1723 6.15358 
-6.40277 -14.9974 6.4856 -6.03042 -15.8722 6.83953 -5.75929 -16.7753 7.214 
-5.544 -17.6845 7.60939 -5.31354 -18.577 8.03338 -4.97742 -19.4137 8.49804 
-4.45651 -20.1228 9.00142 -3.74479 -20.6311 9.51402 -2.90574 -20.9231 10.003 
-2.00701 -21.0357 10.4596 -1.0896 -21.0114 10.8919 -0.175374 -20.8796 11.3115 
0.722711 -20.661 11.7297 1.59678 -20.3741 12.1576 2.44281 -20.0399 12.6069 
3.25917 -19.6802 13.0902 4.04498 -19.3146 13.6176 4.80172 -18.9575 14.1913 
5.53792 -18.6214 14.8033 6.26833 -18.321 15.4401 7.00789 -18.0736 16.0891 
7.76481 -17.8988 16.7417 8.53629 -17.8173 17.3954 9.30456 -17.8544 18.0569 
10.023 -18.0493 18.7452 10.5625 -18.4758 19.4918 10.6413 -19.1436 20.2433 
10.2483 -19.8427 20.8626 9.64904 -20.4749 21.3821 8.98906 -21.0612 21.8828 
8.34071 -21.6221 22.4225 7.78602 -22.1686 23.0844 7.44767 -22.6533 23.8702 
7.53321 -23.0136 24.8412 
LINES 1 65
64 0 1 2 3 4 5 6 7 8 9 10 11 12 13 14 15 16 17 18 19 20 21 22 23 24 25 26 27 28 29 30 31 32 33 34 35 36 37 38 39 40 41 42 43 44 45 46 47 48 49 50 51 52 53 54 55 56 57 58 59 60 61 62 63 

CELL_DATA 1
FIELD FieldData 2
Length 1 1 double
63.875913079 
Tortuosity 1 1 double
0.84128600339 
POINT_DATA 64
SCALARS MaximumInscribedSphereRadius float
LOOKUP_TABLE default
0.62 0.77841 0.90816 0.93 0.993471 1.14913 1.40515 1.70831 1.66146 
1.36439 1.24 1.24 1.24 1.46344 1.78734 2.10149 2.32899 2.11537 
2.01551 2.17 2.16025 2.01976 1.69929 1.8054 2.07447 1.93085 2.05836 
2.35518 2.57413 2.72977 2.55486 2.11151 1.86 1.87732 2.07809 2.44449 
2.0981 1.4926 1.82867 2.22169 2.53565 2.60618 2.23807 1.91639 1.92303 
2.10813 2.56348 2.90055 3.08737 2.85037 2.36491 2.08535 1.94999 1.86153 
1.80757 1.6699 1.91786 2.6344 2.65595 2.50227 2.35031 2.20779 2.17 
2.17 
TEXTURE_COORDINATES TCoords 2 float
0 0 0.015873 0 0.031746 0 0.047619 0 0.0634921 
0 0.0793651 0 0.0952381 0 0.111111 0 0.126984 0 
0.142857 0 0.15873 0 0.174603 0 0.190476 0 0.206349 
0 0.222222 0 0.238095 0 0.253968 0 0.269841 0 
0.285714 0 0.301587 0 0.31746 0 0.333333 0 0.349206 
0 0.365079 0 0.380952 0 0.396825 0 0.412698 0 
0.428571 0 0.444444 0 0.460317 0 0.47619 0 0.492063 
0 0.507937 0 0.52381 0 0.539683 0 0.555556 0 
0.571429 0 0.587302 0 0.603175 0 0.619048 0 0.634921 
0 0.650794 0 0.666667 0 0.68254 0 0.698413 0 
0.714286 0 0.730159 0 0.746032 0 0.761905 0 0.777778 
0 0.793651 0 0.809524 0 0.825397 0 0.84127 0 
0.857143 0 0.873016 0 0.888889 0 0.904762 0 0.920635 
0 0.936508 0 0.952381 0 0.968254 0 0.984127 0 
1 0 
FIELD FieldData 7
Curvature 1 64 double
0 0.22863868685 0.1400930943 0.13640029055 0.16247682927 0.19492482014 0.18889218682 0.15279720985 0.12182839039 
0.14549341352 0.28787927684 0.41480583033 0.29149821016 0.11123561257 0.0027131222107 0.085670708268 0.22186380686 0.73929709263 
0.92718771459 0.35047886315 0.15701943484 0.12493744518 0.20905963191 0.45646956056 0.56489955809 0.30193889144 0.13296367366 
0.093692523164 0.10264587722 0.11983934994 0.12450007542 0.10433704588 0.058283831298 0.035399862116 0.12311675457 0.22444766025 
0.27484274551 0.24908125315 0.1881631413 0.13699092312 0.10552472394 0.085954855106 0.071055988019 0.057368870111 0.050386188567 
0.05246922825 0.053790975533 0.046915356727 0.042619463723 0.053622951734 0.072697829016 0.091952068408 0.11592641601 0.16410217461 
0.29638644262 0.54397280514 0.51057574858 0.23553185133 0.076280121978 0.046651378367 0.14997300163 0.25674841834 0.49262866131 
0 
Torsion 1 64 double
0 0 0.57816471452 0.60303161255 0.38228902748 0.15459095175 0.048319374757 -0.10792039651 -0.45795189006 
-0.56391199356 -0.17672476987 -0.062994908031 -0.043965090201 -0.030990710127 23.598047302 0.026265811022 0.041227924008 0.010830132624 
-0.007473374542 -0.1129349627 -0.49029131909 -0.77979401977 -0.45430907112 -0.16944621911 -0.12666011154 -0.25846269211 -0.62664891714 
-0.61624621396 -0.28689531712 -0.11774912811 -0.065059642217 -0.096489422813 -0.48022329608 -1.806322475 -0.15794245882 -0.032752334346 
-0.0043716550262 0.016403448737 0.052196031315 0.10016005913 0.14020663477 0.17498310103 0.23461113085 0.36222577213 0.44466437969 
0.32178524014 0.25130924592 0.39462068931 0.56332384558 0.29706524259 0.048478754256 -0.10714536533 -0.23650709821 -0.31899905816 
-0.23920015751 -0.11445425927 -0.09520556169 -0.17904117585 -0.79115486984 -1.6601585714 -0.15108954805 -0.054967380835 0 
0 
Abscissas 1 64 double
0 1.0414852643 2.0197027931 3.0459073954 4.0575057703 5.0722611507 6.0863224609 7.100599169 8.1150292837 
9.1294201879 10.144133524 11.157294255 12.169237005 13.183666528 14.19818785 15.213312172 16.225196759 17.246673227 
18.245770709 19.255134282 20.268373885 21.283520774 22.297321708 23.312744578 24.322895408 25.334490289 26.348640108 
27.363249712 28.377725615 29.392201623 30.406622234 31.421065188 32.435589047 33.450195576 34.464799308 35.479168671 
36.492856956 37.506576322 38.520665269 39.534993236 40.549444253 41.563954094 42.578492729 43.593055191 44.607631953 
45.622209511 46.636777529 47.651351923 48.665940201 49.680524912 50.695085849 51.709617761 52.724111061 53.738615362 
54.752449303 55.767527312 56.77593085 57.789205409 58.803464279 59.818402625 60.831421453 61.853386518 62.836673455 
63.875930126 
ParallelTransportNormals 3 64 double
0.39802132978 0 0.91737616115 0.18169559834 0.014923861347 0.98324157149 0.06074257246 0.017036489014 0.99800806506 
-0.0044040855488 0.011849224235 0.99992009677 0.013745032703 0.015947015503 0.99977835882 0.077922027563 0.042677576464 0.99604557229 
0.15016286229 0.089149228241 0.98463370341 0.19954169946 0.13328119126 0.97078279457 0.21555661773 0.15205396997 0.96458018576 
0.18937910631 0.11162659816 0.97553834198 0.11488507909 -0.059903729576 0.99157095651 0.057173665246 -0.34845669994 0.93557955315 
0.060799445279 -0.5493415385 0.8333830461 0.072561904768 -0.62095857242 0.78047755977 0.07266444159 -0.62144072192 0.7800841673 
0.062267115842 -0.56404644716 0.82339201583 0.05007913417 -0.40289273804 0.9138760977 0.14230421884 0.12692733359 0.98165114032 
0.44385349048 0.59423791342 0.67072750148 0.59832432477 0.67019258217 0.43914679231 0.67083894103 0.67473477291 0.30774681383 
0.71903369154 0.66660036437 0.19655661945 0.75330580987 0.65485532773 0.060785331822 0.74212247185 0.65843090292 -0.12539131891 
0.67740833734 0.69349247783 -0.24532861167 0.66352844829 0.70266118309 -0.25689931895 0.69549085564 0.67749365487 -0.23936335838 
0.7483071371 0.6278181603 -0.21419800694 0.81159552852 0.55494819156 -0.18260668874 0.87613326351 0.46008628291 -0.14391357421 
0.92949264339 0.35463938926 -0.10136236709 0.96278627615 0.26265572759 -0.063675389462 0.97619908731 0.2126819218 -0.04244693255 
0.97248239821 0.22770499384 -0.049279011232 0.94112625953 0.32339960615 -0.098458409272 0.85188331318 0.48434719373 -0.19925515465 
0.69420852331 0.64007075291 -0.32921718886 0.51452818266 0.73280222233 -0.44526582194 0.3640209804 0.76784891925 -0.52715914393 
0.25340482654 0.77322630015 -0.5812977573 0.17340244846 0.76640797699 -0.61850659145 0.11643259891 0.75539335705 -0.64484442003 
0.079772930655 0.7449375833 -0.66234754965 0.063956453836 0.7392265138 -0.67041310645 0.06874199104 0.74122415027 -0.66772846107 
0.089868057661 0.75078786207 -0.65440149632 0.11937561861 0.76461303906 -0.6333374789 0.15038908155 0.77901173175 -0.60870669944 
0.18158161054 0.79254902204 -0.58214617269 0.2155128129 0.8051940274 -0.55246430267 0.25673672903 0.81682312053 -0.51661033839 
0.31110615208 0.82594087631 -0.47014320263 0.38813183137 0.82816405903 -0.40434882566 0.50525755996 0.809879775 -0.29800930884 
0.68962040688 0.71883808688 -0.087723994855 0.84872366692 0.43638419 0.29872558633 0.77504805098 0.11470277997 0.62140469176 
0.67029827961 -0.025853157844 0.74164130857 0.6360733078 -0.058974744175 0.76937164404 0.65895159958 -0.038913442085 0.75117809702 
0.74795226518 0.042988047737 0.66235899387 0.86097138854 0.17394869659 0.47798547997 0.92432017257 0.377106424 0.058506098414 
0.92432017257 0.377106424 0.058506098414 
FrenetTangent 3 64 double
-0.95349221428 0.066260642696 0.29404442612 -0.95349221428 0.066260642696 0.29404442612 -0.99266952499 0.016490365343 0.11973003806 
-0.9964468237 -0.078898986483 0.029473334757 -0.97538906785 -0.22035855127 0.0076338190426 -0.92181214394 -0.38391280026 0.053603480119 
-0.83368277876 -0.53630933133 0.13170165346 -0.72981597199 -0.65227260947 0.20471709739 -0.6294356138 -0.73782221305 0.24378102883 
-0.52997194465 -0.81848219016 0.22184824153 -0.39695248131 -0.91384826027 0.08549903378 -0.19273286597 -0.96330289861 -0.18681961327 
0.016188495843 -0.89111067889 -0.45349717812 0.13096445889 -0.79740274205 -0.58906466324 0.16258536053 -0.76450853268 -0.6237729587 
0.14315293798 -0.78998846772 -0.59617569324 0.06553138875 -0.8703051893 -0.48813370563 -0.16815583493 -0.9773632245 -0.12839292257 
-0.47384746084 -0.73199911126 0.48953639801 -0.53530933322 -0.26293936334 0.80268724231 -0.48291240461 -0.030167728597 0.87514885455 
-0.39683373361 0.066966219448 0.91544443486 -0.24380198446 0.083546881914 0.96621970115 0.059414691266 -0.0189277755 0.99805392328 
0.46000171307 -0.24922958815 0.85222241015 0.68504332849 -0.45257514704 0.57086896428 0.72149046202 -0.56812971081 0.39582842863 
0.68816888449 -0.64723205306 0.32789366556 0.62319203534 -0.71754006417 0.31107546254 0.53300894504 -0.78344318122 0.3195594566 
0.42480781929 -0.83951074891 0.33876248188 0.31757687909 -0.87744716687 0.35948768438 0.23982466719 -0.8935374104 0.37957216076 
0.21970670294 -0.88804371673 0.40386547496 0.27978517566 -0.85390302336 0.43882785028 0.42527899549 -0.76706396628 0.48036511908 
0.6137385406 -0.60615528413 0.50586636111 0.77072383899 -0.39774387026 0.49777964772 0.86057158587 -0.20036331884 0.46826390642 
0.89733212645 -0.043628275858 0.43919429457 0.90403061877 0.077045092891 0.42046723294 0.894038364 0.1728576776 0.41329847204 
0.87393207552 0.24928610697 0.41725191941 0.84805122118 0.3062173491 0.4324812844 0.81952017904 0.34207636045 0.4597504103 
0.78985763518 0.35756730934 0.49826753401 0.76049746187 0.3563006549 0.54285675257 0.73594058068 0.34171058989 0.58448724063 
0.72293489368 0.31375009217 0.61556967043 0.72471449654 0.27007257736 0.6339161628 0.73799164682 0.20820827658 0.64188600451 
0.75407715893 0.12645247459 0.64449779677 0.76019146169 0.0219204077 0.64932922104 0.73548231014 -0.11477073388 0.66775253658 
0.62681998427 -0.30963732321 0.71499750727 0.31618059679 -0.55959335102 0.76608427193 -0.16020983669 -0.6969779262 0.69896679364 
-0.49282673129 -0.6612174869 0.56560874105 -0.62104384726 -0.60095176128 0.50315158789 -0.64533338413 -0.56585658635 0.51317750049 
-0.59287629853 -0.54574362928 0.59216685634 -0.44895522185 -0.51841138788 0.72779725314 -0.12860559108 -0.42985497238 0.89369195177 
-0.12860559108 -0.42985497238 0.89369195177 
FrenetNormal 3 64 double
-0.29997595411 -0.11330401115 -0.94719408149 -0.29997595411 -0.11330401115 -0.94719408149 -0.11168335469 -0.50380663303 -0.85656622908 
0.05649811141 -0.88568570617 -0.46083488724 0.21955004701 -0.96745072722 0.12584461554 0.37622013206 -0.85275398916 0.36231070397 
0.53312003937 -0.71937537968 0.4452887678 0.67072895898 -0.62524159784 0.39899324295 0.77553072739 -0.61611278943 0.13768486329 
0.70771367467 -0.57101403119 -0.41603405014 0.58603893133 -0.32404384153 -0.74266678917 0.59712893398 0.035938456575 -0.80133979281 
0.58310486366 0.37685702916 -0.7196995884 0.54286028683 0.55486638208 -0.63041732767 0.9414945117 0.30935266077 -0.13374982513 
-0.48221449364 -0.58171572072 0.65503893197 -0.50907208938 -0.44989442669 0.73378512703 -0.50986161851 -0.025238402945 0.85988612792 
-0.26690908377 0.64914251138 0.71230158004 0.076685214464 0.93125880791 0.35619715128 0.41421794928 0.87265333504 0.25864966139 
0.83408583261 0.44264865926 0.32918534034 0.9612322919 -0.11151167261 0.25218570119 0.91015441712 -0.4096109358 -0.061950127233 
0.69581568907 -0.49504808677 -0.52035364765 0.32905232779 -0.50690289735 -0.79672706634 -0.098761228164 -0.65024566489 -0.7532773693 
-0.54494010538 -0.75944150059 -0.35537147989 -0.75493208725 -0.6558029018 -0.00031243942688 -0.84413441759 -0.51817149334 0.13760591751 
-0.90520129221 -0.38886326532 0.17145256332 -0.94539518643 -0.26368444556 0.1915684072 -0.93158067756 -0.101783305 0.34899512893 
0.41612052476 0.4597388248 0.7845278337 0.83763164511 0.4404702075 0.32304678209 0.81220988159 0.55762690487 0.17136902642 
0.68833916487 0.72463033533 0.033167321647 0.50400952103 0.8585263748 -0.094376196619 0.30999976031 0.93551969317 -0.16941975177 
0.13240657295 0.97587772089 -0.17358333246 -0.02993526565 0.99261902438 -0.11752170999 -0.18274952816 0.98303216971 -0.01582287167 
-0.32979961147 0.93473332602 0.13230958202 -0.47463987295 0.80185457628 0.36296863432 -0.57304754105 0.4917028233 0.65562554043 
-0.56535898785 0.10965002354 0.81752436489 -0.5253940519 -0.15363801786 0.83687301886 -0.4269734941 -0.43573471885 0.7923565423 
-0.13006200044 -0.81321941599 0.56723721449 0.16523830606 -0.9612595256 0.22062734792 0.23223535342 -0.97146915222 0.048108490905 
0.15505224052 -0.98782844362 0.012400349837 -0.027162782641 -0.99748450532 0.065474001621 -0.29442865646 -0.94176960866 0.16242466086 
-0.60221215711 -0.77480320818 0.19240713716 -0.88170032668 -0.47140437489 0.01955631019 -0.95937427275 -0.056653427361 -0.27638993101 
-0.86209725299 0.28293898869 -0.42039725863 -0.76919504788 0.5905703242 -0.2440607926 0.21752841239 0.50784938588 0.83352887836 
0.64116799309 0.12501374611 0.75714936962 0.78319642942 0.16380654006 0.59980894489 0.90692333715 0.31358744293 0.28134138722 
0.90692333715 0.31358744293 0.28134138722 
FrenetBinormal 3 64 double
-0.029445275661 -0.99134843939 0.12791109199 -0.029445275661 -0.99134843939 0.12791109199 0.046195697289 -0.86365904405 0.50195519042 
0.062463516846 -0.45753227189 0.88699635244 -0.02034559338 0.12442346757 0.99202059331 -0.093385135421 0.35414911517 0.93051470741 
-0.14406959434 0.44144236797 0.88564811734 -0.13225471867 0.42850132704 0.89380943277 0.048609659147 0.27572343505 0.96000712935 
0.46719491925 -0.063481340365 0.88187245498 0.7063901886 -0.24469766236 0.66418066479 0.77864695375 -0.2659999114 0.56828951121 
0.8122355881 -0.25278555642 0.52571171937 0.82954868422 -0.23721754786 0.50554605675 0.29521870704 -0.56553305362 0.77007680154 
-0.86427797523 0.19371381244 -0.46421820343 -0.85822563752 0.20040928701 -0.47253028769 -0.84366151101 0.21005749309 -0.4940760108 
-0.83918301035 0.20686058359 -0.50297174285 -0.84116781658 0.25222990287 -0.47834797005 -0.77150443937 0.48740749378 -0.40891910574 
-0.38317595398 0.89419108132 -0.23151349504 0.12881410398 0.99024495222 -0.05312119371 0.40998637959 0.91206393449 -0.0071097088118 
0.55157859895 0.83235329288 -0.054305110348 0.6499540012 0.73363832298 -0.19832954239 0.68534497374 0.50438993545 -0.52525523318 
0.47902386994 0.065873186228 -0.8753267135 0.20422837882 -0.23464613847 -0.95038516349 0.057780183068 -0.34309632071 -0.93752139451 
-0.012203984964 -0.37948262588 -0.92511837048 -0.073299845418 -0.40069562328 -0.91327441119 -0.27320609474 -0.43729973135 -0.85681233345 
-0.88236765215 -0.0043093103319 0.47054091883 -0.46914121818 0.27719239347 0.8384932286 -0.39931551967 0.31727764907 0.86016394318 
-0.38667065816 0.32785156496 0.86197398654 -0.3898194027 0.32362366639 0.862153441 -0.40412460231 0.29095952321 0.86719424678 
-0.4210267857 0.21391411224 0.88146310094 -0.42641824561 0.093656425886 0.89966435614 -0.40902079856 -0.061383846451 0.91045813179 
-0.3570363338 -0.25323910854 0.89910789689 -0.23563980405 -0.51308885547 0.8253567163 -0.0017865760706 -0.80075720239 0.59898640299 
0.23768494065 -0.92742789026 0.28876180039 0.38158184014 -0.92165351558 0.070356922143 0.52543800494 -0.83268789324 -0.17477349748 
0.67856393622 -0.49013779809 -0.54709772742 0.66894334641 -0.055144604452 -0.74126504834 0.63358903861 0.11356495869 -0.76528944218 
0.63822131043 0.090580006826 -0.76450560579 0.64913105365 -0.067410365488 -0.75768378484 0.61022744753 -0.31606594699 -0.72644668038 
0.49440593155 -0.55118482986 -0.67212949509 0.35019189617 -0.68164007866 -0.64244255699 0.23223654541 -0.71485114503 -0.65958625473 
0.11794125366 -0.69479274873 -0.70947367604 -0.15047763321 -0.53859416334 -0.82901918501 -0.73227468421 0.6495346988 -0.20464227795 
-0.48723844192 0.82857435055 0.27579566047 -0.43016573749 0.83929556793 0.33247614642 -0.40118656815 0.84669216269 0.34951640759 
-0.40118656815 0.84669216269 0.34951640759 
