# vtk DataFile Version 4.2
vtk output
ASCII
DATASET POLYDATA
POINTS 64 float
0 0 0 -0.895053 -0.424327 0.336805 -1.73577 -0.689578 0.749802 
-2.60576 -0.896214 1.25199 -3.43807 -1.05295 1.80728 -4.24532 -1.20345 2.40336 
-5.03125 -1.37851 3.02071 -5.80602 -1.60595 3.63494 -6.58397 -1.90867 4.21138 
-7.38213 -2.30039 4.69949 -8.2142 -2.7818 5.02196 -9.0684 -3.32421 5.0713 
-9.8763 -3.85381 4.76819 -10.5412 -4.30188 4.14896 -11.0038 -4.66581 3.32374 
-11.2418 -4.98918 2.39281 -11.2539 -5.32595 1.43655 -11.0724 -5.71727 0.518743 
-10.7625 -6.17968 -0.329206 -10.3915 -6.71268 -1.10859 -10.0123 -7.31243 -1.8337 
-9.66664 -7.97953 -2.51527 -9.39718 -8.72229 -3.15161 -9.27242 -9.55942 -3.71054 
-9.46168 -10.495 -4.03812 -10.0889 -11.2249 -3.78874 -10.7985 -11.5105 -3.11665 
-11.4158 -11.5768 -2.31528 -11.9342 -11.5451 -1.44399 -12.3414 -11.4751 -0.517554 
-12.6108 -11.4173 0.458534 -12.7001 -11.4352 1.46829 -12.5712 -11.6126 2.45754 
-12.2488 -12.0158 3.32919 -11.8347 -12.636 4.01569 -11.4267 -13.4084 4.53095 
-11.0698 -14.2707 4.92858 -10.7723 -15.1827 5.2586 -10.5271 -16.1204 5.55855 
-10.3188 -17.068 5.85525 -10.1258 -18.0146 6.16551 -9.9201 -18.952 6.49454 
-9.66856 -19.8732 6.83732 -9.33708 -20.7668 7.18461 -8.89601 -21.6133 7.52793 
-8.33032 -22.3841 7.86637 -7.64688 -23.0498 8.21066 -6.8699 -23.5897 8.57615 
-6.03108 -23.9974 8.97489 -5.16014 -24.2791 9.41201 -4.2802 -24.4505 9.88682 
-3.40621 -24.5324 10.3954 -2.54619 -24.5471 10.9334 -1.70414 -24.516 11.4985 
-0.882362 -24.4585 12.0908 -0.082695 -24.3917 12.7116 0.69379 -24.3324 13.362 
1.44777 -24.3027 14.0402 2.18277 -24.3441 14.7382 2.89869 -24.5369 15.4301 
3.56215 -24.9903 16.0443 4.09882 -25.745 16.4779 4.46615 -26.6162 16.7096 
4.73018 -27.6245 16.8025 
LINES 1 65
64 0 1 2 3 4 5 6 7 8 9 10 11 12 13 14 15 16 17 18 19 20 21 22 23 24 25 26 27 28 29 30 31 32 33 34 35 36 37 38 39 40 41 42 43 44 45 46 47 48 49 50 51 52 53 54 55 56 57 58 59 60 61 62 63 

CELL_DATA 1
FIELD FieldData 2
Length 1 1 double
63.872429016 
Tortuosity 1 1 double
0.95463698507 
POINT_DATA 64
SCALARS MaximumInscribedSphereRadius float
LOOKUP_TABLE default
0.93 0.93 0.93 0.950398 1.09815 1.19455 1.02463 1.0411 1.21022 
1.24 1.29558 1.36065 1.35591 1.4967 1.24411 1.2267 1.60249 1.66677 
1.61736 1.50076 1.35038 1.54722 1.83542 1.82413 1.37197 1.047 1.18049 
1.26208 1.23022 1.16013 1.06186 0.944706 1.13787 1.24 1.24 1.24 
1.70774 2.16533 2.18775 2.18659 2.17176 2.0003 1.74496 1.3887 1.55516 
1.83456 1.63144 1.55 1.50081 1.35116 1.37296 1.54504 1.73098 2.07557 
2.63252 2.49438 2.20591 2.17633 2.34603 2.46055 2.36036 2.12649 1.96874 
1.86 
TEXTURE_COORDINATES TCoords 2 float
0 0 0.015873 0 0.031746 0 0.047619 0 0.0634921 
0 0.0793651 0 0.0952381 0 0.111111 0 0.126984 0 
0.142857 0 0.15873 0 0.174603 0 0.190476 0 0.206349 
0 0.222222 0 0.238095 0 0.253968 0 0.269841 0 
0.285714 0 0.301587 0 0.31746 0 0.333333 0 0.349206 
0 0.365079 0 0.380952 0 0.396825 0 0.412698 0 
0.428571 0 0.444444 0 0.460317 0 0.47619 0 0.492063 
0 0.507937 0 0.52381 0 0.539683 0 0.555556 0 
0.571429 0 0.587302 0 0.603175 0 0.619048 0 0.634921 
0 0.650794 0 0.666667 0 0.68254 0 0.698413 0 
0.714286 0 0.730159 0 0.746032 0 0.761905 0 0.777778 
0 0.793651 0 0.809524 0 0.825397 0 0.84127 0 
0.857143 0 0.873016 0 0.888889 0 0.904762 0 0.920635 
0 0.936508 0 0.952381 0 0.968254 0 0.984127 0 
1 0 
FIELD FieldData 7
Curvature 1 64 double
0 0.16761785764 0.098024541811 0.078135330484 0.046967528764 0.037759575317 0.052152550827 0.082042552676 0.12392342864 
0.18777490182 0.27864378705 0.35783969682 0.35858856391 0.29945053298 0.24858703242 0.22435568632 0.20121129368 0.15903677198 
0.11293359228 0.084119340062 0.084622002607 0.11359398471 0.1855866122 0.40914079724 0.87374523313 0.67441019665 0.26703829852 
0.15241636861 0.12676398744 0.14361500766 0.19464819981 0.26865679974 0.31948054694 0.29831616548 0.2258291734 0.15314953694 
0.10015602034 0.063776687983 0.037263207299 0.019884670641 0.023763176666 0.049115699758 0.082431299625 0.11638851861 0.14254208145 
0.1544653147 0.15470871831 0.1462945703 0.13235821193 0.11398760307 0.093336429465 0.072651629066 0.054609973957 0.04177798765 
0.0361990768 0.037256348579 0.045125996661 0.074147215596 0.14928902382 0.27513975403 0.37351778339 0.2910149478 0.20659473921 
0 
Torsion 1 64 double
0 0 -0.23831905182 -0.27741874717 -0.69613145644 -0.94137387271 -0.60423209436 -0.37570533189 -0.28164084374 
-0.20302014272 -0.12215626773 -0.046553043574 0.039964422516 0.16422254138 0.28069705522 0.30116645472 0.27262510955 0.28677785194 
0.38480380493 0.5270130674 0.42953574015 0.1974139386 0.021731533596 -0.066210155789 -0.05827861751 -0.095461516144 -0.28273537841 
-0.39600499295 -0.42197346213 -0.35607938686 -0.27288895636 -0.22516204367 -0.21297343055 -0.22507312563 -0.24512568645 -0.25891720108 
-0.28113277225 -0.34890662263 -0.55103788672 -1.2840540729 -1.0178252278 -0.31604624351 -0.1007076069 0.0087592899407 0.087025451876 
0.13709126709 0.15149135666 0.13974479771 0.1177407604 0.10129045822 0.099062483911 0.12995683695 0.2182253007 0.35357893441 
0.44489740774 0.48964612024 0.58713834223 0.44842951966 0.19021515976 0.066740884648 0.025012140152 0.015559476873 0 
0 
Abscissas 1 64 double
0 1.046236646 2.0197504269 3.0453078731 4.0580575534 5.0727564186 6.0873766002 7.1019087938 8.1163684387 
9.1306475338 10.14458775 11.157654112 12.170097642 13.183182625 14.196800252 15.210630044 16.224526041 17.238650827 
18.253014411 19.267492011 20.282029878 21.296430768 22.31094299 23.325210405 24.33437467 25.328521561 26.346777804 
27.360496478 28.374828535 29.389231411 30.403465696 31.417317196 32.430575382 33.443616228 34.457235816 35.47141002 
36.485820377 37.500332026 38.514903115 39.529498169 40.544099371 41.558690703 42.573241364 43.587713963 44.602060011 
45.616331164 46.630582491 47.644856049 48.659181173 49.673571278 50.688022613 51.702528531 52.717077131 53.731653728 
54.746239316 55.760826325 56.775409987 57.789971652 58.80443817 59.818563055 60.830064301 61.852545725 62.826018479 
63.872411894 
ParallelTransportNormals 3 64 double
0.35218648581 0 0.93592984738 0.43261275844 0.031721730559 0.9010216052 0.49080628359 0.047833146754 0.86995470115 
0.54620699803 0.059650305351 0.83552364202 0.58458971469 0.066842941318 0.80857089155 0.60627678228 0.071274594492 0.79205327816 
0.60671129566 0.07138665365 0.7917103949 0.57857565701 0.061779980177 0.81328558524 0.51012178537 0.031618813764 0.85952080528 
0.38014107932 -0.037998652881 0.92414764091 0.16370244433 -0.16941214937 0.97185443013 -0.11820994397 -0.35123882782 0.92879367729 
-0.36942181317 -0.51799593256 0.77149707569 -0.52502833466 -0.63005770125 0.57216478474 -0.59562835605 -0.69931420032 0.39520439104 
-0.61228687599 -0.74327513565 0.26953080385 -0.60665745636 -0.76747505137 0.20724086508 -0.60451864569 -0.77119020854 0.19955668183 
-0.61489207871 -0.75602663486 0.22434673815 -0.63591378213 -0.72428487931 0.2665053007 -0.66475508432 -0.6738758519 0.32247792809 
-0.69959286715 -0.59402191699 0.39712439155 -0.73592951767 -0.44839316627 0.50729805191 -0.722859917 -0.093490869205 0.6846407801 
-0.39096746003 0.58013714556 0.71455254358 0.035218804978 0.90582550538 0.42218454445 0.20341060177 0.95038772383 0.23534506897 
0.27546714644 0.95258586498 0.1292208229 0.30897643718 0.94890446895 0.06413945802 0.32029262874 0.94676714973 0.032320212931 
0.31802405355 0.94701968139 0.044882339771 0.31964988399 0.93902412396 0.12671876845 0.3568729277 0.89113650616 0.28020963735 
0.43477681676 0.7828820486 0.44504473662 0.51495059123 0.64706958633 0.56225157984 0.57125242094 0.5267564929 0.62944282406 
0.60401873685 0.43791499158 0.6658767346 0.62059050561 0.38142167274 0.68511672868 0.62695971382 0.35494173763 0.69349684941 
0.62691871699 0.35513524187 0.69343484356 0.62222457293 0.37731347748 0.68590897395 0.61243173425 0.41711548728 0.67152218217 
0.59442876866 0.47315603931 0.65021365831 0.56244063548 0.54520710069 0.62161865233 0.50918402137 0.63075972905 0.58555426443 
0.42993253825 0.72189772807 0.54223766262 0.32817867447 0.80589215393 0.49278453086 0.21511590298 0.872199924 0.43930904937 
0.10359085166 0.91717390852 0.38478689814 0.003997238281 0.94294843002 0.33291482456 -0.077645589666 0.95473654497 0.28713984764 
-0.13976576217 0.9581975087 0.2496458813 -0.1837615309 0.9577747119 0.22113186337 -0.21209164644 0.95626614462 0.20142540594 
-0.22731555993 0.95509904094 0.19003541304 -0.23019442414 0.95486865033 0.18771357894 -0.21688534534 0.95564300352 0.19926664749 
-0.1734751122 0.95530064244 0.23938894712 -0.072275621453 0.93896488599 0.33633491852 0.11099687788 0.85305565611 0.50987816258 
0.3279802513 0.63504643765 0.69938900248 0.45603923996 0.40325508636 0.79335587661 0.52065535008 0.21253355475 0.82689025544 
0.52065535008 0.21253355475 0.82689025544 
FrenetTangent 3 64 double
-0.86244521115 -0.34262790889 0.37255116939 -0.86244521115 -0.34262790889 0.37255116939 -0.85677271411 -0.23633498234 0.45835171265 
-0.83581513731 -0.17841263501 0.51921285415 -0.80891205857 -0.15158146596 0.56805311431 -0.78522519068 -0.16045763936 0.59805914915 
-0.76940793751 -0.19842809796 0.60715542955 -0.76592788449 -0.26151802699 0.58733533635 -0.77841980632 -0.34297462196 0.52576707182 
-0.80737647961 -0.43242040348 0.40144216871 -0.83999549745 -0.51000373902 0.18521271678 -0.83353541947 -0.53760810153 -0.12726442418 
-0.73864789302 -0.49032739984 -0.46257791896 -0.56255350978 -0.40513814098 -0.72069177556 -0.34824796799 -0.34163672089 -0.87293052629 
-0.12412488383 -0.32762924201 -0.93661736744 0.083958886604 -0.36085910335 -0.92883346887 0.24303436351 -0.42223394284 -0.87329994599 
0.33616258824 -0.49143747553 -0.80342014034 0.37007238616 -0.55878346623 -0.7421640431 0.35758719775 -0.62496098553 -0.69394175733 
0.30367630516 -0.6960286809 -0.65063413455 0.19516500176 -0.7821493459 -0.59173729204 -0.032525760657 -0.89392268608 -0.44703949066 
-0.43979592671 -0.89710938956 -0.042122274598 -0.69805829709 -0.53027216446 0.48117153434 -0.65888817671 -0.17474016993 0.73166402372 
-0.56164974238 -0.017111228367 0.827198146 -0.45718277325 0.050233192853 0.88795300449 -0.3344049916 0.063164329389 0.94031035785 
-0.17771720784 0.019768301256 0.98388302572 0.019711853822 -0.097216757189 0.99506801021 0.22554504772 -0.29016556127 0.93001794526 
0.36744240642 -0.51057697644 0.77736556979 0.40803139781 -0.69118564388 0.59646691785 0.37818664465 -0.80823977543 0.4513572058 
0.32295448709 -0.87563943223 0.35910441935 0.26760429043 -0.91208161752 0.31063655085 0.22353154101 -0.92927088846 0.29409057456 
0.19776750035 -0.93349598956 0.29912080047 0.19649431211 -0.92850585547 0.31506644008 0.2254087099 -0.91624582567 0.33118650401 
0.28759635195 -0.89521756846 0.34040247277 0.3814547831 -0.85919372848 0.34099616625 0.49756604877 -0.79931053309 0.3369431685 
0.61765661138 -0.71030548034 0.33758915122 0.72212356553 -0.59612483081 0.35095974441 0.79868826503 -0.4683972962 0.3777578963 
0.84467737944 -0.34058597923 0.41294226645 0.86443477276 -0.22370215261 0.45023312913 0.86541451343 -0.12498174757 0.48521879882 
0.85517295373 -0.047640641103 0.51614880463 0.83914664077 0.0080851478672 0.54384514862 0.82013247085 0.043672703185 0.57050453571 
0.79920239469 0.061266872008 0.59793135285 0.77688154631 0.062154653215 0.62657151395 0.75442524736 0.043871879838 0.65491816611 
0.73435925627 -0.0057711765435 0.67873645567 0.7172723643 -0.11577815999 0.68710681345 0.68744585621 -0.32204782498 0.65092502887 
0.60023738878 -0.60422405719 0.524049965 0.45755916419 -0.8229488142 0.33674153364 0.31424934655 -0.93549142323 0.16156467824 
0.31424934655 -0.93549142323 0.16156467824 
FrenetNormal 3 64 double
-0.050764015191 0.79089026665 0.60984883444 -0.050764015191 0.79089026665 0.60984883444 0.15744521966 0.72649047066 0.66889655317 
0.33274276351 0.58761480566 0.73755751877 0.55228010933 0.13541782541 0.82258658718 0.54702241298 -0.63233310026 0.54856296814 
0.2067783724 -0.97671608527 -0.057169865132 -0.038387701186 -0.89330238715 -0.44781383355 -0.16025033145 -0.70122977578 -0.69469175382 
-0.17858077693 -0.46937295638 -0.86475310577 -0.08148696024 -0.21890182219 -0.97233835035 0.1286990312 0.035066302087 -0.99106352664 
0.40252300556 0.22961763974 -0.88614387631 0.67375629341 0.28054711298 -0.6836269264 0.89323570381 0.16153350601 -0.41956752005 
0.99209090654 -0.058738881875 -0.11092960347 0.94530875902 -0.26599002479 0.18878733231 0.78962067942 -0.43679903224 0.43093594426 
0.52706147764 -0.60880630336 0.59292586702 0.094673247559 -0.77203900658 0.6284844855 -0.38536669248 -0.7756057116 0.49992828731 
-0.65420806389 -0.64878376626 0.38870481573 -0.76413929556 -0.49948038926 0.40817946754 -0.78109889182 -0.25631608404 0.56937385456 
-0.59122931742 0.25389974919 0.76549514145 -0.10468017813 0.74034427346 0.66402742192 0.32984559507 0.80704262922 0.48977962191 
0.63699843374 0.62908170779 0.4455212681 0.85624156199 0.29483019642 0.42417631098 0.93717323584 -0.082943243674 0.33886095135 
0.90814840845 -0.38181479387 0.17170885655 0.8050394443 -0.58865556247 -0.073458300319 0.60525652223 -0.70630326964 -0.36715151314 
0.30535967428 -0.72327023934 -0.619383266 -0.027635554899 -0.66237872102 -0.74865927233 -0.32685433207 -0.57274919844 -0.7517476979 
-0.57794816184 -0.48294048473 -0.65783311747 -0.79799120086 -0.39047730275 -0.45906156384 -0.96234138269 -0.25830164971 -0.084730873488 
-0.74840428678 0.053281917352 0.66109913085 0.52031888974 0.37109686214 0.76912636926 0.90707941541 0.32141470734 0.2718446616 
0.94452701977 0.32396607877 0.053987857227 0.91829093161 0.39451069948 -0.033212541535 0.85468972487 0.51808227654 -0.033109348196 
0.7453351626 0.66566661704 0.036924928556 0.59132620959 0.79521702725 0.13402683845 0.41297036548 0.88326001037 0.2220523166 
0.23650180058 0.92953611692 0.28289486679 0.076433254607 0.943617037 0.32209446607 -0.062539896888 0.93387475177 0.35208906444 
-0.18749740955 0.89990786974 0.39371378868 -0.32036124397 0.81538948634 0.48219151685 -0.4724528891 0.61412955402 0.6321654518 
-0.59227851635 0.24971796195 0.7660594615 -0.60611472666 -0.19568678433 0.77092906325 -0.48358130994 -0.63752198311 0.5997623177 
-0.24820322672 -0.93299373602 0.26061052701 -0.12330213821 -0.99162692799 -0.038374710316 -0.18268953536 -0.94416353741 -0.27418925633 
-0.35783311106 -0.78884668369 -0.49967626945 -0.51669563295 -0.55428875877 -0.65252555107 -0.60687617473 -0.32882824252 -0.72358364787 
-0.60687617473 -0.32882824252 -0.72358364787 
FrenetBinormal 3 64 double
-0.50359832459 0.50704901357 -0.69949269139 -0.50359832459 0.50704901357 -0.69949269139 -0.49107180653 0.64525760139 -0.58522739911 
-0.43668674078 0.78922605877 -0.43177183626 -0.20161339822 0.97912464566 -0.025825683329 0.29015147701 0.75789722013 0.58429780429 
0.6043625819 0.081559663495 0.79252374784 0.64177944823 -0.36553955556 0.67416613172 0.60694516753 -0.62501616799 0.4908893494 
0.56236298445 -0.76987117265 0.30173871353 0.53643959546 -0.83185225757 0.14231789062 0.53726647379 -0.84246536049 0.039960637011 
0.54071667269 -0.84074656139 0.027761472901 0.47915133907 -0.87014734621 0.11514160912 0.28434720015 -0.92584624932 0.24890840161 
-0.018672075006 -0.94297869728 0.33232894861 -0.31518606487 -0.89388478801 0.31879104484 -0.56341235413 -0.79430793962 0.22724747804 
-0.78051323695 -0.62277130043 0.054359859347 -0.92416632983 -0.3028478334 -0.23280847195 -0.85066086564 0.088654084462 -0.51818582089 
-0.69267056443 0.30760965523 -0.65236783273 -0.61481847651 0.37250737099 -0.69515214126 -0.62355961711 0.36770136847 -0.68990514387 
-0.6760380441 0.36156556879 -0.64206144752 -0.70834784828 0.41316072944 -0.57231244743 -0.67606823177 0.56404615736 -0.47411357116 
-0.52799863853 0.77715082885 -0.34242375345 -0.24048762829 0.95422836974 -0.17780303435 0.099396315889 0.99455049435 -0.031459284259 
0.37905548706 0.92402742245 0.049902507756 0.59289369699 0.80251699726 0.066659831785 0.76340944044 0.64570863271 0.016321393825 
0.87848821693 0.46496377494 -0.10985053801 0.91254953537 0.28899279512 -0.28937261422 0.86610686836 0.13677288146 -0.48078276953 
0.74945067983 0.0049064179679 -0.66204199683 0.5399981362 -0.12503839019 -0.83232650678 0.15470201466 -0.26407550743 -0.95201439749 
-0.63307111713 -0.35460721193 -0.68809496867 -0.83105850473 0.012806063443 0.55603755849 -0.35552474969 0.23913630598 0.90355740245 
-0.15860973258 0.30599262234 0.93872864439 -0.10599062867 0.32580277001 0.93947780266 -0.14809963304 0.30445595154 0.94094265089 
-0.25094980735 0.22881013867 0.94056903767 -0.35898589103 0.11074775692 0.92674919173 -0.43766714812 -0.021347762994 0.89888360786 
-0.48019477609 -0.14129330519 0.86570732868 -0.49690087667 -0.24401687319 0.83279366253 -0.49713829187 -0.33504852003 0.8003724183 
-0.48324314854 -0.4334699474 0.76064437426 -0.43954702666 -0.57885629991 0.68682151641 -0.32275532194 -0.78799593011 0.52430088336 
-0.10238013184 -0.96637845065 0.23586224524 0.1705285933 -0.97869478466 -0.11435260096 0.44383742837 -0.76918201956 -0.45974705868 
0.63175283219 -0.35984633118 -0.68658501073 0.68579657197 -0.057196620078 -0.72554228583 0.70288173148 0.069573077004 -0.70789607889 
0.71531149979 0.11240194989 -0.68970664773 0.72364717519 0.1245761659 -0.67883395962 0.73003332577 0.12933593462 -0.67106151677 
0.73003332577 0.12933593462 -0.67106151677 
