# vtk DataFile Version 4.2
vtk output
ASCII
DATASET POLYDATA
POINTS 64 float
0 0 0 -0.968165 -0.025353 -0.393626 -1.83318 -0.0326388 -0.840583 
-2.74072 -0.0665924 -1.3199 -3.64983 -0.171028 -1.75184 -4.58389 -0.415356 -2.06211 
-5.48278 -0.869546 -2.17233 -6.27316 -1.50599 -2.20465 -6.95798 -2.20467 -2.46109 
-7.50648 -2.85457 -3.01317 -7.90451 -3.49087 -3.69558 -8.15103 -4.18687 -4.39083 
-8.22855 -4.95002 -5.05422 -8.12085 -5.71577 -5.71055 -7.81871 -6.36844 -6.42471 
-7.35127 -6.808 -7.20932 -6.78216 -7.05675 -8.01457 -6.16919 -7.22657 -8.7781 
-5.44019 -7.38946 -9.5956 -5.2875 -8.15849 -9.34726 -5.86825 -8.32831 -8.52477 
-6.44958 -8.27983 -7.70427 -6.98125 -7.9832 -6.89057 -7.38301 -7.51778 -6.08464 
-7.61831 -6.98964 -5.25133 -7.66651 -6.56228 -4.33319 -7.53381 -6.46235 -3.33637 
-7.31312 -6.78733 -2.40313 -7.10943 -7.39136 -1.61435 -6.95841 -8.13943 -0.946232 
-6.86226 -8.96893 -0.370257 -6.80432 -9.84681 0.134975 -6.75034 -10.7509 0.592253 
-6.65419 -11.6612 1.02974 -6.47713 -12.5544 1.47702 -6.20926 -13.4075 1.95608 
-5.8714 -14.211 2.47528 -5.49451 -14.9714 3.0313 -5.10005 -15.7036 3.6123 
-4.69087 -16.4219 4.20065 -4.25098 -17.1312 4.77741 -3.75335 -17.8235 5.32729 
-3.17608 -18.4782 5.84432 -2.51146 -19.0672 6.33464 -1.76293 -19.5561 6.81373 
-0.941593 -19.9025 7.29749 -0.0708357 -20.0644 7.79133 0.813128 -20.026 8.28684 
1.67851 -19.818 8.77344 2.51671 -19.5052 9.25186 3.33834 -19.1556 9.73365 
4.15681 -18.8252 10.2339 4.97754 -18.5567 10.7664 5.79414 -18.3843 11.343 
6.58597 -18.3431 11.9755 7.30906 -18.4764 12.6737 7.88406 -18.8198 13.4343 
8.21658 -19.3604 14.224 8.26521 -20.0254 14.9873 8.07038 -20.7365 15.6838 
7.70919 -21.4499 16.3039 7.25071 -22.1723 16.8716 6.7854 -22.863 17.3763 
6.37527 -23.6488 17.9305 
LINES 1 65
64 0 1 2 3 4 5 6 7 8 9 10 11 12 13 14 15 16 17 18 19 20 21 22 23 24 25 26 27 28 29 30 31 32 33 34 35 36 37 38 39 40 41 42 43 44 45 46 47 48 49 50 51 52 53 54 55 56 57 58 59 60 61 62 63 

CELL_DATA 1
FIELD FieldData 2
Length 1 1 double
63.775318849 
Tortuosity 1 1 double
1.1009976041 
POINT_DATA 64
SCALARS MaximumInscribedSphereRadius float
LOOKUP_TABLE default
1.24 1.05993 0.937832 0.93 0.93 0.934086 0.941427 0.819293 0.969316 
0.91009 0.797632 1.08928 0.908259 0.815673 1.16815 1.07141 1.06527 1.49961 
1.72454 0.93 0.973836 1.15559 1.23829 1.24 1.24265 1.32319 1.50801 
1.57204 1.45765 1.29033 1.40411 1.52866 1.55 1.44388 1.27037 1.24 
1.38811 1.747 1.72479 1.53779 1.3484 1.38445 1.69095 1.81823 1.91326 
2.06677 1.84598 1.35701 1.42744 1.4823 1.3124 1.25611 1.3442 1.65618 
1.77548 1.63583 1.72898 1.68085 1.33784 1.43295 1.56018 1.55943 1.56094 
1.581 
TEXTURE_COORDINATES TCoords 2 float
0 0 0.015873 0 0.031746 0 0.047619 0 0.0634921 
0 0.0793651 0 0.0952381 0 0.111111 0 0.126984 0 
0.142857 0 0.15873 0 0.174603 0 0.190476 0 0.206349 
0 0.222222 0 0.238095 0 0.253968 0 0.269841 0 
0.285714 0 0.301587 0 0.31746 0 0.333333 0 0.349206 
0 0.365079 0 0.380952 0 0.396825 0 0.412698 0 
0.428571 0 0.444444 0 0.460317 0 0.47619 0 0.492063 
0 0.507937 0 0.52381 0 0.539683 0 0.555556 0 
0.571429 0 0.587302 0 0.603175 0 0.619048 0 0.634921 
0 0.650794 0 0.666667 0 0.68254 0 0.698413 0 
0.714286 0 0.730159 0 0.746032 0 0.761905 0 0.777778 
0 0.793651 0 0.809524 0 0.825397 0 0.84127 0 
0.857143 0 0.873016 0 0.888889 0 0.904762 0 0.920635 
0 0.936508 0 0.952381 0 0.968254 0 0.984127 0 
1 0 
FIELD FieldData 7
Curvature 1 64 double
0 0.09157714976 0.027116628602 0.080591116056 0.18385157292 0.29028429765 0.22242575326 0.25274013383 0.32971954374 
0.19589573324 0.1598205662 0.1809997842 0.18173397254 0.22891794003 0.2765730196 0.21312195638 0.095927420014 0.053832730771 
2.6923469207 1.9761590398 0.21438264041 0.25119696486 0.20918746539 0.1764438171 0.22538740444 0.38686858638 0.44972285381 
0.31401215304 0.19147971776 0.13144766959 0.091371173055 0.053269408416 0.045680208939 0.08104483838 0.1015509475 0.092225409859 
0.066936615213 0.040400651459 0.020925265094 0.033072327174 0.064113318061 0.091522394679 0.10967069964 0.1279431884 0.15659634269 
0.18764562639 0.19713877141 0.16727096539 0.1058099231 0.039358075854 0.026060129007 0.067929180081 0.10310069714 0.14140216516 
0.19510630919 0.2618664971 0.31323282399 0.31025416927 0.25371053858 0.17983620697 0.10603945692 0.047030764155 0.095480109501 
0 
Torsion 1 64 double
0 0 2.8035066253 0.30434398888 -0.0089175578062 -0.18391517228 -0.82866746447 -0.61619660816 -0.010894330385 
0.54007780713 0.50708728875 -0.085022585226 -0.49850069485 -0.37489750205 -0.12431319186 0.055773845801 0.49168633348 9.5061509428 
0.026710077326 -0.036834126601 -0.89770855617 -0.21239274678 -0.42991517523 -0.76773077432 -0.66630164278 -0.27332666457 -0.16834995626 
-0.17633935585 -0.17573321597 -0.082273473877 0.10837534106 0.6844047656 1.0614568692 0.32849608504 0.19367376116 0.18669104833 
0.19102193434 0.035338355038 -0.92158587407 -0.28521218642 0.079903093232 0.16546692784 0.22222249547 0.22684274037 0.15483952209 
0.07943076246 0.040403140708 0.034398689622 0.078276001524 0.56175584867 1.0261226889 0.058265031281 -0.038374933491 -0.070750201311 
-0.090666129861 -0.10181220987 -0.09507467441 -0.071979238894 -0.035550781909 0.023315216784 0.13535048455 1.0857069735 0 
0 
Abscissas 1 64 double
0 1.0454320447 2.0191197908 3.0460250426 4.0579328141 5.0720508344 6.0851844648 7.1004721319 8.1118490119 
9.1257583973 10.140152714 11.154332356 12.168480272 13.182749754 14.196299857 15.209873215 16.226828041 17.220576811 
18.327955765 19.15038918 20.171468867 21.178201451 22.194451157 23.208137528 24.222385212 25.236258625 26.246832346 
27.259372132 28.27353393 29.287829357 30.302260653 31.31679622 32.331390015 33.345943269 34.360414842 35.37487517 
36.389394211 37.403967024 38.418564702 39.433167637 40.447750057 41.462265351 42.476727022 43.491142849 44.505496843 
45.519708293 46.533759818 47.547857894 48.562213805 49.576757645 50.591366458 51.605942691 52.620443007 53.634851226 
54.649123598 55.663101254 56.676537439 57.689658452 58.703174315 59.717419599 60.729314594 61.756182387 62.72997251 
63.775333094 
ParallelTransportNormals 3 64 double
-0.37663036014 0 0.92636362829 -0.45903874136 -0.001441265472 0.8884150813 -0.46696641704 -0.0016226500052 0.88427356195 
-0.42927034147 0.0012597045049 0.90317516965 -0.32030389893 0.021869542832 0.94706237145 -0.16209723742 0.082169680167 0.9833476645 
-0.12551764884 0.10578052752 0.98643590761 -0.30167541107 -0.053686343693 0.95189795822 -0.50229464986 -0.27303405889 0.82045870549 
-0.58880975279 -0.39059267968 0.70763015312 -0.61244961367 -0.43945852195 0.657100965 -0.62087960413 -0.47741805488 0.62175599559 
-0.61926273966 -0.55937045209 0.55101574986 -0.57570585754 -0.71008811262 0.40538578899 -0.47069766241 -0.85912211889 0.20088030127 
-0.36106686991 -0.93196626287 0.032704744582 -0.30884296301 -0.95041041908 -0.036552147865 -0.28553103835 -0.95622376073 -0.064094816825 
-0.95443458781 -0.098541258884 0.28168109252 -0.72153389989 0.57101636663 -0.39157265016 -0.64906047193 0.57848770412 -0.49403692165 
-0.58597082188 0.55899560181 -0.5866533159 -0.57552296667 0.5504621137 -0.60478490078 -0.5998204561 0.58835268902 -0.54226979795 
-0.63019467848 0.6907347052 -0.35459869465 -0.61437375558 0.78901053403 0.0026954838354 -0.54388824652 0.74419464091 0.38776270029 
-0.49005244155 0.626375698 0.60621950603 -0.46611743623 0.53513996095 0.70452803907 -0.45611306269 0.47128785031 0.75488319374 
-0.45170443757 0.42244005671 0.78581645412 -0.44914934081 0.38175518416 0.80779195899 -0.44642727479 0.34885743268 0.82401527898 
-0.44349363398 0.32949303758 0.83351528769 -0.44336158241 0.32897474993 0.83379021412 -0.44890367748 0.34413201725 0.82465668193 
-0.45852343639 0.3651794753 0.81018529307 -0.46693174536 0.38145037847 0.7977909212 -0.46863370111 0.384522279 0.79531444796 
-0.46029184153 0.37049650042 0.80676128055 -0.44118480964 0.34193036347 0.82972259839 -0.41525639053 0.30944000416 0.85545836483 
-0.39177707125 0.28592774145 0.87450331795 -0.38205530201 0.27851206457 0.88117238727 -0.39433516921 0.28504656184 0.87364079112 
-0.42914278943 0.29550211712 0.85353088114 -0.47647324249 0.2988323752 0.82684488311 -0.52114113095 0.29254160296 0.80176762978 
-0.55290082465 0.28283317108 0.78377680206 -0.57081674779 0.27568348502 0.77341247503 -0.57944845112 0.27210446433 0.76824387599 
-0.58467490507 0.2701948566 0.76495097545 -0.59282039772 0.2680013785 0.75943349753 -0.61006428381 0.26571182756 0.74647089315 
-0.64329821787 0.26773277485 0.71727718782 -0.69710042062 0.28749118609 0.65681033906 -0.75662574715 0.34548063173 0.5551221594 
-0.78649460885 0.4399456237 0.43344443522 -0.77621843847 0.53672752349 0.33076955923 -0.74816265577 0.60857627574 0.26436254864 
-0.727199257 0.64532941865 0.23394696417 -0.72211170423 0.65310588798 0.22805127866 -0.7599316339 0.58960834876 0.27361634977 
-0.7599316339 0.58960834876 0.27361634977 
FrenetTangent 3 64 double
-0.90887525489 -0.016182043182 -0.4167540192 -0.90887525489 -0.016182043182 -0.4167540192 -0.88609637316 -0.020615486966 -0.46304235137 
-0.89178442306 -0.067934564081 -0.447331463 -0.91364932258 -0.17288022602 -0.367909422 -0.91368737327 -0.34819668469 -0.20960546915 
-0.83801636769 -0.54104385198 -0.070711510449 -0.73374394228 -0.6640719889 -0.14362527886 -0.61716553483 -0.67484259212 -0.40459137223 
-0.46893584565 -0.63721740712 -0.61159884625 -0.31877093004 -0.65890774132 -0.68134109123 -0.16042321509 -0.72238475008 -0.67262520389 
0.014941122331 -0.75690835284 -0.65335021869 0.20344716748 -0.70411262937 -0.68031952435 0.38328197616 -0.54397530616 -0.74644878795 
0.51342914409 -0.34093698243 -0.78749761143 0.58857437891 -0.20841190636 -0.78111758256 0.63894385485 -0.15841127985 -0.75276597743 
0.62821067426 -0.66399994005 -0.40553104488 -0.28785630188 -0.63134568317 0.72009817235 -0.57640630531 -0.060186052 0.81494380809 
-0.55452946729 0.17194397608 0.81420657023 -0.46238794333 0.37749259062 0.80230713189 -0.31538731656 0.49187845664 0.81153337852 
-0.14068268524 0.47415225441 0.86913061257 0.042504395003 0.26523314295 0.96324698613 0.17893087482 -0.11394879243 0.97724071484 
0.21196476581 -0.46401156654 0.86009546224 0.17568206308 -0.66967277709 0.7215775664 0.122104458 -0.77933570247 0.61459447133 
0.076026383212 -0.8424038517 0.53345640843 0.055176688019 -0.87851420281 0.47451904974 0.074007199916 -0.89441184088 0.44107867015 
0.1347634433 -0.88959353735 0.43641969783 0.21958446597 -0.86184442502 0.45717266909 0.29886621942 -0.8173637301 0.49253986195 
0.35244224587 -0.7711571463 0.53018970099 0.38021768598 -0.73573966635 0.56046556954 0.39606140808 -0.71485569004 0.57629567364 
0.41848734905 -0.70363203137 0.57425630438 0.46229017276 -0.69112765438 0.55554510305 0.53033061239 -0.66457852655 0.52638847214 
0.6130391374 -0.61393265144 0.49726222007 0.69802278018 -0.53242665887 0.4788382308 0.77631671642 -0.41306535417 0.47614007288 
0.83799368213 -0.25173019999 0.48414718333 0.86945058907 -0.061192751824 0.49021538153 0.86547584853 0.12190404968 0.48589192038 
0.84085880513 0.25705774533 0.47631689599 0.81815530681 0.32650754956 0.47330192692 0.80833990835 0.33514509085 0.48400863696 
0.80833841493 0.29533538107 0.50927990303 0.80809309914 0.2176026474 0.54738892112 0.79487111364 0.10555921342 0.59752586987 
0.75052834741 -0.045628652165 0.65926112113 0.64579363783 -0.23715591467 0.72574627073 0.45328014664 -0.44153187579 0.77432984659 
0.19032415352 -0.60200653851 0.77547717192 -0.072682973255 -0.68412418316 0.72573499807 -0.27554833749 -0.70594275163 0.65247064695 
-0.40263930981 -0.70529554836 0.58347217215 -0.46187842407 -0.70652525911 0.53618129361 -0.43406129685 -0.73207898242 0.52502490805 
-0.43406129685 -0.73207898242 0.52502490805 
FrenetNormal 3 64 double
0.40719239697 0.18173410019 -0.89507936446 0.40719239697 0.18173410019 -0.89507936446 0.17074516599 -0.94327321311 -0.2847485447 
-0.17883381891 -0.85523947946 0.48639890828 -0.122553519 -0.74580348813 0.65479599271 0.11731547325 -0.71974557738 0.68425388824 
0.48826579433 -0.80141617549 0.34543975993 0.40200129666 -0.25391007637 -0.87972986229 0.41892545026 0.15343980405 -0.8949623979 
0.75526059363 0.069701502637 -0.65170786111 0.92708758963 -0.36632023937 -0.079486372316 0.91535637237 -0.3638466685 0.17244800196 
0.99916627606 -0.01352653207 0.03851993915 0.83784892624 0.48471743715 -0.25111388435 0.59297358857 0.76454648232 -0.25268755338 
0.46013710218 0.88398669482 -0.082712578109 0.59479347139 0.76601865625 0.24379529254 0.73325549824 0.42126721302 0.53373243253 
-0.25458296985 -0.6679535059 0.69930367182 -0.61358144693 0.69890610122 0.36748887011 -0.040837958461 0.99815945739 0.044832563781 
0.21733035374 0.97438798227 -0.057754457351 0.60395038166 0.79657374668 -0.026724569121 0.92589225025 0.34692415859 0.14955657494 
0.81743832362 -0.4396463288 0.37216352945 0.47362646083 -0.85425074229 0.21432135895 0.19980938261 -0.9683627758 -0.14949831126 
-0.055121325392 -0.88436896946 -0.46352256185 -0.27002919405 -0.73764515536 -0.6188407381 -0.40760655617 -0.60397459178 -0.68488801117 
-0.40729014364 -0.51457323019 -0.75453901799 -0.072327586847 -0.4775112094 -0.87564362904 0.89741211837 -0.13317063794 -0.42061511027 
0.97165630772 0.20497228871 0.11777257968 0.87141426027 0.38396899357 0.30529493767 0.73853045811 0.52497279323 0.42305594052 
0.56689278252 0.62669505542 0.53468297208 0.42329857183 0.67721215075 0.60183222077 0.681050396 0.64966011636 0.33780481246 
0.90397019671 0.26158467943 -0.33824745223 0.87584093317 0.25801374526 -0.40783767241 0.84751291417 0.39968754223 -0.34924451163 
0.77670138843 0.58355045158 -0.23707345628 0.64059684025 0.76312535664 -0.085295828209 0.45535175076 0.88982196543 0.029523768603 
0.25903886398 0.96440738277 0.053077933286 0.065595346546 0.99781249189 0.0082147146754 -0.11009601414 0.99251196442 -0.052904330138 
-0.25179562995 0.96477856348 -0.076166161721 -0.41024657668 0.90822465874 0.082617888949 -0.11618148914 -0.71516036034 0.68923691179 
0.032714363276 -0.88626285389 0.46202589132 -0.038196810734 -0.90795368669 0.41732613921 -0.170375764 -0.90630734209 0.38675457427 
-0.34471101676 -0.87816901048 0.33165268573 -0.55858929828 -0.79476171305 0.23734324368 -0.77203677589 -0.62866820775 0.093463903392 
-0.91285451571 -0.39916135028 -0.085830353503 -0.94846320057 -0.17762191413 -0.26242715711 -0.91234596234 -0.021760446729 -0.408841446 
-0.83081634163 0.014026698762 -0.55636989333 -0.66635060574 -0.12255379109 -0.73549808873 0.88974884221 -0.43971312249 0.12247190575 
0.88974884221 -0.43971312249 0.12247190575 
FrenetBinormal 3 64 double
0.090222629608 -0.98321455355 -0.15858442168 0.090222629608 -0.98321455355 -0.15858442168 -0.43090521667 -0.33137689587 0.83935096779 
-0.41561882536 0.51376096365 0.75054024824 -0.38758940946 0.64334250951 0.66021577165 -0.38911754479 0.60060417299 0.69847130487 
-0.24356740661 0.25495816106 0.93577307855 0.54773605382 -0.70323400563 0.45326278103 0.66603916532 -0.72183356974 0.18801097802 
0.45790895205 -0.76752568465 0.44857966409 -0.19721484558 -0.65700081481 0.72763743308 -0.36930624638 -0.58802710369 0.71960893665 
-0.037993626379 -0.6533810361 0.75607519865 0.50657519367 -0.5189165745 0.68855440008 0.70815058428 -0.34577383166 0.615599876 
0.7243371875 -0.31988982072 0.61074228723 0.54754079929 -0.60809530138 0.5748209961 0.23256638763 -0.89299484973 0.38532203894 
-0.73521347934 -0.33606873342 -0.58865859903 -0.73529351789 -0.33605489139 -0.58856652345 -0.8161421643 -0.0074388689358 -0.57780328044 
-0.80328362815 0.14492525345 -0.57769549389 -0.64918512487 0.47219657997 -0.59631289062 -0.20797687725 0.79856071284 -0.5648419305 
0.55857225957 0.76281763562 -0.32573959789 0.87969958054 0.44710966125 -0.16193084577 0.96335868328 0.22201172751 -0.15050196075 
0.97572156763 0.050840849428 -0.21303199405 0.94668899173 -0.086127791118 -0.31042222299 0.90495712423 -0.1668848565 -0.39141033197 
0.91012896226 -0.15990666469 -0.38222392735 0.99585353003 0.013994297555 -0.089888299327 0.43494186296 0.4269578903 0.79280043879 
-0.19422367006 0.40817851385 0.89200194328 -0.43865686965 0.3313487574 0.8353371485 -0.60436060869 0.23731856033 0.76054464404 
-0.74459185897 0.11211584735 0.65803723323 -0.82234593107 0.0084170208182 0.56892558688 -0.6158780067 0.25869494707 0.74415805124 
0.087785090627 0.66066286404 0.74553226485 0.1385296212 0.67510848951 0.72459510862 0.021709488258 0.63133608374 0.77520542277 
-0.14463045748 0.53155956388 0.83458160824 -0.31999982282 0.36628068878 0.87374971841 -0.4358751414 0.19389142069 0.8788736986 
-0.48027643672 0.080933963614 0.87337519879 -0.4896457124 0.02501355932 0.87156261862 -0.48870279648 -0.007707343718 0.87241628456 
-0.47911943247 -0.055889525146 0.87596856702 -0.40288911659 -0.26176475954 0.87701742879 0.57713815864 -0.61337054631 -0.5391550044 
0.58780845297 -0.35681250889 -0.72606201947 0.58781506171 -0.35814688421 -0.72539938142 0.5823675916 -0.40922396575 -0.70241279467 
0.56380982136 -0.47616931351 -0.67481943526 0.52050799532 -0.55866885685 -0.64572481383 0.44552926428 -0.64017645008 -0.62584166323 
0.36121094907 -0.69156224884 -0.62551443328 0.308439204 -0.70740692507 -0.63595652351 0.30281670812 -0.70793454103 -0.63806796417 
0.38422102061 -0.70877460535 -0.59161876756 0.58535902796 -0.69699542791 -0.41418858249 0.14120123357 0.5203006183 0.84222887521 
0.14120123357 0.5203006183 0.84222887521 
