# vtk DataFile Version 4.2
vtk output
ASCII
DATASET POLYDATA
POINTS 64 float
0 0 0 -0.822663 0.186108 -0.237622 -1.98039 0.361835 -0.566771 
-2.89067 0.334124 -0.812496 -3.8674 0.16143 -1.05845 -4.80231 -0.198566 -1.2641 
-5.65001 -0.732062 -1.41074 -6.41963 -1.38977 -1.50005 -7.12239 -2.12105 -1.53782 
-7.78751 -2.88725 -1.53483 -8.44403 -3.66019 -1.50113 -9.11557 -4.41878 -1.4456 
-9.82107 -5.14509 -1.37853 -10.5742 -5.82233 -1.31507 -11.3829 -6.43469 -1.27952 
-12.2455 -6.96971 -1.30881 -13.1406 -7.42665 -1.45232 -14.0286 -7.82716 -1.739 
-14.8672 -8.20958 -2.16525 -15.633 -8.61297 -2.6957 -16.3216 -9.05748 -3.29449 
-16.9367 -9.54819 -3.93555 -17.4817 -10.0811 -4.60558 -17.9552 -10.6491 -5.3007 
-18.3497 -11.2446 -6.02175 -18.6506 -11.8595 -6.77124 -18.8352 -12.4847 -7.54983 
-18.8746 -13.1094 -8.34945 -18.7443 -13.7231 -9.14839 -18.4335 -14.3187 -9.91051 
-17.9531 -14.8972 -10.5937 -17.3287 -15.465 -11.1593 -16.5936 -16.0303 -11.5743 
-15.7849 -16.6 -11.808 -14.9445 -17.1728 -11.8229 -14.1306 -17.7334 -11.5828 
-13.4185 -18.2524 -11.0722 -12.8776 -18.699 -10.3372 -12.5236 -19.0703 -9.45847 
-12.3261 -19.3901 -8.51539 -12.2389 -19.6953 -7.55135 -12.224 -20.0218 -6.59052 
-12.2511 -20.4037 -5.6507 -12.2955 -20.8715 -4.75076 -12.3372 -21.4436 -3.91338 
-12.3642 -22.1156 -3.15289 -12.3711 -22.8649 -2.46831 -12.3568 -23.6615 -1.8399 
-12.3183 -24.4796 -1.24088 -12.2492 -25.2976 -0.644582 -12.1395 -26.0972 -0.0293782 
-11.9781 -26.8636 0.615831 -11.7589 -27.5908 1.28885 -11.4837 -28.2835 1.97748 
-11.1625 -28.9561 2.66602 -10.8087 -29.6243 3.34238 -10.4371 -30.2994 4.00263 
-10.0612 -30.9844 4.65113 -9.693 -31.6709 5.29542 -9.34211 -32.3426 5.97997 
-9.0224 -32.967 6.72111 -8.75756 -33.4904 7.46918 -8.54508 -33.8986 8.58709 
-8.44136 -34.0884 9.43986 
LINES 1 65
64 0 1 2 3 4 5 6 7 8 9 10 11 12 13 14 15 16 17 18 19 20 21 22 23 24 25 26 27 28 29 30 31 32 33 34 35 36 37 38 39 40 41 42 43 44 45 46 47 48 49 50 51 52 53 54 55 56 57 58 59 60 61 62 63 

CELL_DATA 1
FIELD FieldData 2
Length 1 1 double
63.967157703 
Tortuosity 1 1 double
0.75904853683 
POINT_DATA 64
SCALARS MaximumInscribedSphereRadius float
LOOKUP_TABLE default
0.9796 1.04926 1.12599 1.1982 1.23304 1.24 1.29171 1.42024 1.58183 
1.54639 1.37368 1.17411 1.08573 1.0335 0.993319 1.13511 1.1948 1.15946 
0.965818 1.07053 1.28079 1.5352 1.55673 1.57131 1.56088 1.4602 1.35096 
1.27602 1.25826 1.25078 1.28155 1.33592 1.37988 1.3888 1.41962 1.4974 
1.69735 1.81649 1.87198 1.88169 1.9637 2.06436 2.16534 2.05473 1.95623 
1.8848 1.8848 1.91018 1.97205 2.07704 2.09854 2.03421 1.90109 1.71659 
1.48865 1.31565 1.24 1.24 1.24 1.24 1.24 1.24 1.24 
1.24 
TEXTURE_COORDINATES TCoords 2 float
0 0 0.015873 0 0.031746 0 0.047619 0 0.0634921 
0 0.0793651 0 0.0952381 0 0.111111 0 0.126984 0 
0.142857 0 0.15873 0 0.174603 0 0.190476 0 0.206349 
0 0.222222 0 0.238095 0 0.253968 0 0.269841 0 
0.285714 0 0.301587 0 0.31746 0 0.333333 0 0.349206 
0 0.365079 0 0.380952 0 0.396825 0 0.412698 0 
0.428571 0 0.444444 0 0.460317 0 0.47619 0 0.492063 
0 0.507937 0 0.52381 0 0.539683 0 0.555556 0 
0.571429 0 0.587302 0 0.603175 0 0.619048 0 0.634921 
0 0.650794 0 0.666667 0 0.68254 0 0.698413 0 
0.714286 0 0.730159 0 0.746032 0 0.761905 0 0.777778 
0 0.793651 0 0.809524 0 0.825397 0 0.84127 0 
0.857143 0 0.873016 0 0.888889 0 0.904762 0 0.920635 
0 0.936508 0 0.952381 0 0.968254 0 0.984127 0 
1 0 
FIELD FieldData 7
Curvature 1 64 double
0 0.066160898704 0.16294479107 0.14453877944 0.18937262342 0.19773738661 0.15398820299 0.10888599339 0.063726777999 
0.031669308191 0.029276111623 0.046890966849 0.066573286253 0.087417219791 0.11135833224 0.13854309567 0.15030569582 0.14543249698 
0.12547679635 0.10804586017 0.093938669385 0.084423598254 0.081211662813 0.085175221328 0.097035513028 0.1171468009 0.14302573108 
0.16601788508 0.18086098566 0.18355905596 0.18194267919 0.18264418366 0.19130182893 0.2164172645 0.25212404424 0.28784070566 
0.28750203915 0.24301182563 0.1725165495 0.11022071298 0.073339826078 0.0706066605 0.093653561901 0.11848073331 0.12365166108 
0.10725267861 0.074317225364 0.042483433432 0.029847084832 0.047048897729 0.066474872648 0.073099589475 0.065716938097 0.048781167692 
0.034087106896 0.024265743881 0.015472271884 0.0074853587269 0.043697630769 0.076953674067 0.094511545441 0.25818675655 0.13676153923 
0 
Torsion 1 64 double
0 0 0.021033298054 0.042962709763 0.030190053439 0.042462444578 0.070624578266 0.11588415063 0.28786898909 
0.93072683842 0.89934967477 0.36606529564 0.26508302518 0.27144507315 0.31167807886 0.30275281114 0.30761450519 0.32549381825 
0.32587648102 0.24627153457 0.1398465294 0.023563951501 -0.057277609574 -0.085285854596 -0.070649793358 -0.027952818335 0.021108403976 
0.067758790341 0.11328533738 0.15186153013 0.17152716337 0.1731716042 0.15015844826 0.10652864124 0.071982292658 0.054276851861 
0.054932842227 0.076767342705 0.14564121601 0.31607126454 0.62620137314 0.59187311717 0.27897458197 0.12266296812 0.069515335034 
0.069487792796 0.15376315717 0.53408162373 1.0190622309 0.27542851522 0.02388450551 -0.076279954452 -0.16952308626 -0.32221910667 
-0.48603073439 -0.53418186486 -0.6495585245 -3.8535567723 -0.1867174941 -0.060404532997 -0.088604905372 -0.011179711133 0 
0 
Abscissas 1 64 double
0 0.87628477207 2.092649355 3.0359221859 4.0578465819 5.0805520932 6.0928414022 7.1091417667 8.1240673993 
9.1386869553 10.153371317 11.168022612 12.182790202 13.19763267 14.21261156 15.228088851 16.243288451 17.258774349 
18.274177334 19.289330912 20.304398807 21.319344995 22.334219429 23.34914093 24.364081377 25.379127191 26.394603591 
27.410089302 28.42589621 29.441867182 30.457808425 31.473803102 32.489771681 33.506206942 34.523319939 35.540418891 
36.558719078 37.57475906 38.592297926 39.607543203 40.622487516 41.637368214 42.652186883 43.667430758 44.6824126 
45.697631082 46.712598801 47.72735382 48.742050947 49.756685909 50.771490787 51.786229092 52.801037273 53.815779807 
54.830543697 55.844972779 56.859741994 57.875206789 58.886123215 59.907325514 60.92783471 61.878476797 63.087373639 
63.96715219 
ParallelTransportNormals 3 64 double
-0.27750005352 0 0.96072562176 -0.27357365381 -0.00074111115225 0.96185077153 -0.26057180201 -0.0015217810667 0.96545327188 
-0.24421882516 0.0001670304728 0.96972013362 -0.21760517768 0.0075820354143 0.97600742793 -0.18501803326 0.023935944077 0.98244358512 
-0.15430200825 0.046552204223 0.98692643218 -0.127712536 0.071637489726 0.98922069237 -0.10576595495 0.095663789258 0.98977876427 
-0.087242545709 0.11723547232 0.98926466744 -0.071380790589 0.13552738332 0.98819892284 -0.059201384808 0.14866079598 0.98711456467 
-0.054553695516 0.1531329237 0.98669863788 -0.065627113734 0.14398945888 0.9874006875 -0.10575870201 0.11643716237 0.98755125648 
-0.19166503185 0.067956965764 0.97910488017 -0.31142859055 0.010366794191 0.95021300905 -0.4358864333 -0.046070037847 0.89882176703 
-0.53309387433 -0.093683753981 0.84085330194 -0.60016348182 -0.13278439703 0.78877886572 -0.64539987253 -0.1652341202 0.74575913676 
-0.67918317972 -0.19504233513 0.7075794626 -0.70862643597 -0.22686767267 0.66811648187 -0.73695195105 -0.26483502945 0.62190371363 
-0.76454029507 -0.3128548241 0.56356010882 -0.78865276577 -0.37445038545 0.48766148493 -0.80229195973 -0.45054367824 0.39158396973 
-0.7960466675 -0.53571110347 0.28164395394 -0.76522322322 -0.62020407638 0.17256976062 -0.71627956454 -0.69284004528 0.083164037217 
-0.66178655204 -0.74938196336 0.021569249514 -0.61412477457 -0.78910500558 -0.012808256448 -0.58087522014 -0.8135519546 -0.026780511445 
-0.56332511037 -0.82571111891 -0.029427336389 -0.56112911519 -0.82721560076 -0.029128438574 -0.57229364211 -0.81931770258 -0.034619206177 
-0.59139430935 -0.80459828768 -0.053613117225 -0.60996197801 -0.7876309584 -0.087085353197 -0.62325145079 -0.77097032381 -0.13100530104 
-0.63082468253 -0.75433907439 -0.18174922489 -0.63391227407 -0.73523606315 -0.23996491455 -0.63348189101 -0.71028138249 -0.30692189798 
-0.63055815502 -0.67550704219 -0.38221283219 -0.62667332077 -0.62856597702 -0.46063582316 -0.62369383311 -0.57463291592 -0.52990849632 
-0.62250353186 -0.52472922514 -0.58064498026 -0.62266303858 -0.49150868452 -0.60885955148 -0.62300758669 -0.48098151003 -0.61686168136 
-0.62209657332 -0.49483484242 -0.60674074545 -0.6181177911 -0.53084458467 -0.57977100933 -0.60928491649 -0.58186936974 -0.53870207638 
-0.59578406769 -0.63484978284 -0.49194216929 -0.58064912573 -0.67831909884 -0.4502552531 -0.56896949494 -0.70505388792 -0.42328799766 
-0.56357801553 -0.71576370428 -0.41238591155 -0.56408772211 -0.71481981996 -0.41332513443 -0.56756593716 -0.70849180359 -0.41941420007 
-0.5701839885 -0.70366586444 -0.42396293527 -0.56405801182 -0.71523624313 -0.41264473317 -0.55131514456 -0.73986536341 -0.38555266229 
-0.53659678171 -0.76877324519 -0.34792469205 -0.50036483098 -0.83960204283 -0.21143189351 -0.48814507982 -0.86262807089 -0.13261671219 
-0.48814507982 -0.86262807089 -0.13261671219 
FrenetTangent 3 64 double
-0.94690508011 0.17300804922 -0.27099628071 -0.94690508011 0.17300804922 -0.27099628071 -0.96118382337 0.068795988968 -0.26719425443 
-0.96262024607 -0.10223258711 -0.25082017462 -0.9392847517 -0.26173736494 -0.22189571204 -0.88035389684 -0.44125696078 -0.17398077737 
-0.79967775533 -0.58898630212 -0.11666457707 -0.72597653577 -0.68485909828 -0.062658479179 -0.6743357333 -0.73822580546 -0.017145814149 
-0.65136002918 -0.75855332042 0.018082380277 -0.65450359798 -0.75477893986 0.043974904048 -0.6787321421 -0.73189553142 0.060428555833 
-0.7190873787 -0.69193384748 0.064349766949 -0.77018943982 -0.63594366224 0.048825047443 -0.82441520811 -0.56597705721 0.0030879376873 
-0.86771132534 -0.48969390963 -0.08530492806 -0.88063938321 -0.42347831992 -0.21246267742 -0.85245778504 -0.38654883073 -0.35198824721 
-0.79169357205 -0.38775919489 -0.47208483851 -0.71745536029 -0.41826868115 -0.5570539618 -0.64295076912 -0.46122578876 -0.61146142991 
-0.57205539706 -0.50475581329 -0.64650923555 -0.50220670145 -0.54284223181 -0.67313500903 -0.42801260219 -0.57372416279 -0.69831640207 
-0.34296821406 -0.59696355552 -0.72526361933 -0.23951995033 -0.6118015029 -0.7538760604 -0.110582469 -0.61704292665 -0.77912100743 
0.044906422456 -0.61180418741 -0.78973353069 0.21800603265 -0.5976767223 -0.771528292 0.39105950833 -0.58031163822 -0.71436045767 
0.54601768506 -0.56652749592 -0.61718010659 0.67192322427 -0.56002651875 -0.48465397861 0.76314014098 -0.56106009271 -0.32066914039 
0.81576262692 -0.56516227421 -0.12297536473 0.81980272203 -0.56166627782 0.11159968327 0.75754997475 -0.53594395227 0.37266890905 
0.62232050885 -0.47957859058 0.61864493832 0.44337164832 -0.40522227003 0.79951015837 0.2723407811 -0.34127873524 0.89964399838 
0.14045261649 -0.3083352932 0.94085195939 0.050334276469 -0.31141994568 0.94893839528 -0.0060142654688 -0.34923925589 0.93701428525 
-0.035260455863 -0.41903378447 0.90728572551 -0.042485345058 -0.51312666888 0.8572607638 -0.033904892687 -0.61399121669 0.78858432909 
-0.016722839465 -0.70112105141 0.71284613902 0.0036482448252 -0.76218365411 0.64735057559 0.026023427299 -0.79583133031 0.6049589035 
0.05302895483 -0.80632380683 0.58909239384 0.088127937547 -0.79728882475 0.59712979875 0.13365077221 -0.77202904124 0.62137640008 
0.18765807214 -0.73643172684 0.64996366027 0.2437320636 -0.69999061076 0.67127328714 0.29395557344 -0.6729348481 0.67878480468 
0.33269733794 -0.66085961824 0.67273846799 0.35750098991 -0.66202240273 0.65872557298 0.36820159514 -0.6699548775 0.6446611881 
0.36721631294 -0.67684019962 0.63799649191 0.35394333081 -0.66852024677 0.65406788504 0.32870305813 -0.63529920826 0.69881987347 
0.29687954374 -0.58293969055 0.75633580749 0.22309538003 -0.43542347256 0.87214382469 0.15176005628 -0.28701210588 0.94582923215 
0.15176005628 -0.28701210588 0.94582923215 
FrenetNormal 3 64 double
-0.18242926934 -0.98317046797 0.0097669133177 -0.18242926934 -0.98317046797 0.0097669133177 -0.086446865336 -0.99474514561 0.054854669347 
0.068153438282 -0.98766113908 0.14099852201 0.21709054424 -0.95407366974 0.20643431958 0.38474124808 -0.87884473504 0.28214553643 
0.51632847694 -0.77373612077 0.36706582423 0.5881591347 -0.66551313274 0.45952268977 0.57106649599 -0.53608248978 0.62169013287 
0.26516669464 -0.20523733478 0.94210628937 -0.49932373539 0.47519597876 0.72447538885 -0.70206749818 0.67080403613 0.23900454621 
-0.69485287531 0.71721273173 -0.052776691037 -0.61683264059 0.72319302293 -0.31065953243 -0.46775618355 0.67825240153 -0.56672553548 
-0.23045424854 0.5483828057 -0.80384522001 0.047625627331 0.36704037436 -0.92898501775 0.33132979104 0.12133974369 -0.93568009286 
0.56316366684 -0.16371032867 -0.80996642686 0.69472330831 -0.37089583036 -0.61627575639 0.76052261693 -0.47896216215 -0.43840688448 
0.80714293445 -0.48659197425 -0.33428810025 0.85641595632 -0.42001639342 -0.30022981034 0.90242087535 -0.31354643861 -0.29550836631 
0.93889432698 -0.19388723232 -0.28440320656 0.96730102045 -0.083657952028 -0.23943701237 0.98968227492 0.0034961354103 -0.14323676816 
0.9978066624 0.065954676775 0.0056431440576 0.97498001934 0.098185699438 0.19943302211 0.90282933508 0.091081646814 0.42024198425 
0.77330547535 0.057426908765 0.6314275825 0.59224036341 0.013353368893 0.80565069322 0.3741056418 -0.021053760697 0.92714707999 
0.14077233568 -0.012217189549 0.98996661044 -0.10286818037 0.047271145507 0.9935711229 -0.35224627673 0.14502715587 0.92460244678 
-0.5823471274 0.2444592184 0.7753138163 -0.75789087302 0.30675129357 0.57576476836 -0.88132573507 0.28673111584 0.37556652661 
-0.97387635469 0.12823236823 0.18740679153 -0.95833100463 -0.28257037958 -0.04190066997 -0.57830267016 -0.76322930464 -0.28817885112 
-0.17955143627 -0.89042166509 -0.41822307452 0.022114220258 -0.8583082509 -0.51265769056 0.11588383941 -0.78613107444 -0.60709873132 
0.18236534313 -0.70312574148 -0.6872823825 0.27739795369 -0.62117781329 -0.73293144261 0.55350734557 -0.49246077622 -0.67164871941 
0.99617130249 0.0016557708771 -0.087407062227 0.83817934449 0.38326164653 0.38802821646 0.75624277498 0.48467712679 0.439528097 
0.76876913372 0.52199525623 0.36947932487 0.82846699749 0.51011753392 0.23113315571 0.91671584001 0.39953881001 -0.00089887398389 
0.9318083034 0.12063020057 -0.34231803988 0.70803086075 -0.26782369598 -0.65342388088 0.25499553729 -0.59401861455 -0.76296733975 
-0.78717426943 -0.59153701532 -0.17447243063 -0.46484444421 0.48110063807 0.74327775342 -0.38629727136 0.58476815575 0.71331663528 
-0.37284579761 0.65841360231 0.65381766533 -0.37949302214 0.78531464822 0.4891481876 -0.40544537615 0.85462546161 0.32439076331 
-0.40544537615 0.85462546161 0.32439076331 
FrenetBinormal 3 64 double
-0.26474578551 0.058685993322 0.96253084275 -0.26474578551 0.058685993322 0.96253084275 -0.26201640631 0.075823526544 0.96208013993 
-0.26213998305 0.11863377466 0.95771011104 -0.26573643113 0.14572914772 0.95296755699 -0.27740077209 0.18145034104 0.94346414102 
-0.30646433974 0.23329713098 0.92284996459 -0.35640833573 0.29674953353 0.88595305326 -0.46813926983 0.40943647163 0.78307560283 
-0.71092667445 0.61844522514 0.33482647306 -0.56771546352 0.45221403529 -0.68789651749 -0.21546207851 0.11979514261 -0.96913632505 
-0.0096344932536 -0.082664673005 -0.99653084668 0.16225202711 -0.2693835742 -0.94926643765 0.31865924966 -0.46866155222 -0.82390086301 
0.44041786432 -0.67784671813 -0.58869001309 0.47138739521 -0.82821946134 -0.30306178825 0.40439620953 -0.91425197186 0.024638134165 
0.23678676549 -0.90710624244 0.34798030493 0.05115985613 -0.82914871609 0.55668220353 -0.090662327448 -0.74690429039 0.6587217344 
-0.14585234338 -0.71305667345 0.68576765335 -0.11975031848 -0.72726098522 0.67583379658 -0.049414330835 -0.75665660366 0.65194248829 
0.029158993534 -0.77848715758 0.62698285349 0.083420196719 -0.78657502383 0.61183396658 0.091107147175 -0.78692172654 0.61028983608 
0.048634120591 -0.78825479186 0.61342408286 -0.043443429985 -0.79570227098 0.60412793707 -0.17880618743 -0.80928520075 0.5595407145 
-0.3222783415 -0.82203938258 0.46945492231 -0.44471398969 -0.82836705985 0.34064274767 -0.526936518 -0.8275072879 0.19382877617 
-0.56099419428 -0.82488929202 0.06959288674 -0.56333083922 -0.82601236744 -0.019024574213 -0.54958220157 -0.83170379588 -0.078918943458 
-0.52305736537 -0.8427597914 -0.1271492294 -0.47856348174 -0.86121922631 -0.17110943334 -0.38612879671 -0.89516148939 -0.22268915614 
-0.17843180292 -0.94259525073 -0.28226987973 0.28119058692 -0.90728804578 -0.31266636501 0.81580012889 -0.54361104725 -0.19737573055 
0.9831164641 -0.17765119138 -0.043841444027 0.99885231977 -0.0028227855312 0.047812918382 0.9926839346 0.070800562418 0.097805349271 
0.98308861669 0.11850511779 0.13961844002 0.96074818012 0.18224763833 0.20916197724 0.83243762507 0.35232779848 0.42768296995 
0.069502993129 0.59147204241 0.80332444068 -0.53822751053 0.46630573687 0.70204708294 -0.64049538357 0.41116814353 0.64861885678 
-0.61137424463 0.43033622226 0.66410260414 -0.50421931265 0.49979320368 0.70425111878 -0.27059598949 0.62251701142 0.73433669455 
0.14507159283 0.74075159109 0.65592782626 0.60900356521 0.69999771868 0.37298505521 0.89409443645 0.44531151757 -0.04788309747 
0.49548849539 -0.43814529974 -0.75001323139 -0.81156870397 -0.56711802626 -0.14047556026 -0.86181710224 -0.50442156972 -0.053199269561 
-0.87911805107 -0.47610171758 -0.021877084041 -0.89789392333 -0.44009919658 0.0099599003787 -0.90143382024 -0.43271164931 0.013330276927 
-0.90143382024 -0.43271164931 0.013330276927 
