# vtk DataFile Version 4.2
vtk output
ASCII
DATASET POLYDATA
POINTS 64 float
0 0 0 -0.747295 -0.173273 0.714876 -1.51404 -0.35911 1.28582 
-2.36083 -0.561185 1.82004 -3.2316 -0.756907 2.30245 -4.117 -0.936078 2.76393 
-5.0074 -1.09315 3.22436 -5.89779 -1.22829 3.69165 -6.7893 -1.34523 4.16169 
-7.68789 -1.45004 4.621 -8.59991 -1.55464 5.05303 -9.52737 -1.68186 5.4441 
-10.4645 -1.86733 5.78549 -11.3941 -2.15731 6.06911 -12.2818 -2.60181 6.27451 
-13.0774 -3.22637 6.33461 -13.7564 -3.94223 6.10903 -14.3536 -4.55616 5.56822 
-14.9232 -5.00126 4.85695 -15.4784 -5.33547 4.07647 -15.9917 -5.62069 3.24915 
-16.3925 -5.90706 2.36272 -16.548 -6.23455 1.41716 -16.3605 -6.60902 0.495306 
-15.9211 -7.01793 -0.321795 -15.3591 -7.47346 -1.03281 -14.7522 -8.00587 -1.64688 
-14.1563 -8.66182 -2.13771 -13.6647 -9.51459 -2.37388 -13.5268 -10.4424 -2.02603 
-13.7333 -11.0602 -1.24915 -14.0324 -11.4591 -0.366545 -14.3272 -11.7749 0.551492 
-14.5653 -12.0932 1.48486 -14.7069 -12.4822 2.41073 -14.7455 -12.982 3.2923 
-14.7232 -13.5908 4.10333 -14.6985 -14.2826 4.8449 -14.7095 -15.0319 5.52869 
-14.7617 -15.8209 6.16443 -14.8333 -16.6399 6.75888 -14.8885 -17.4852 7.31728 
-14.8866 -18.3523 7.84378 -14.7883 -19.2298 8.34319 -14.559 -20.0941 8.82165 
-14.1683 -20.9091 9.28121 -13.6007 -21.6292 9.7138 -12.875 -22.2196 10.1046 
-12.0364 -22.6765 10.446 -11.1273 -23.0153 10.742 -10.1766 -23.2508 11.0062 
-9.20396 -23.3903 11.2583 -8.22631 -23.4387 11.5247 -7.2615 -23.4081 11.8366 
-6.32721 -23.3265 12.2233 -5.43595 -23.2382 12.6997 -4.58984 -23.1926 13.2574 
-3.78273 -23.2306 13.8707 -3.00634 -23.3766 14.5069 -2.2578 -23.6387 15.1392 
-1.54884 -24.0156 15.7591 -0.921712 -24.506 16.3906 -0.463357 -25.0821 17.0573 
-0.605344 -25.6232 17.9255 
LINES 1 65
64 0 1 2 3 4 5 6 7 8 9 10 11 12 13 14 15 16 17 18 19 20 21 22 23 24 25 26 27 28 29 30 31 32 33 34 35 36 37 38 39 40 41 42 43 44 45 46 47 48 49 50 51 52 53 54 55 56 57 58 59 60 61 62 63 

CELL_DATA 1
FIELD FieldData 2
Length 1 1 double
63.877564433 
Tortuosity 1 1 double
1.0423303971 
POINT_DATA 64
SCALARS MaximumInscribedSphereRadius float
LOOKUP_TABLE default
1.24 1.05516 1.01407 1.18491 1.10251 1.00512 1.14492 1.14165 1.0013 
1.10063 1.14007 0.779808 1.12649 1.85904 1.80478 1.29068 1.24282 1.6526 
1.84942 2.11166 1.8866 1.37235 1.24902 1.25694 1.27442 1.2772 1.43557 
1.80372 2.12752 1.54525 1.02996 1.25398 1.62219 1.77666 1.57898 1.55 
1.55 1.59545 1.77807 1.6569 1.30814 1.24032 1.31006 1.50668 1.70716 
1.75605 1.3693 1.55047 1.89035 1.93795 1.82686 1.6107 1.56574 1.62633 
1.7883 1.97459 2.15073 2.22804 2.41671 2.75035 2.30581 1.94147 2.00932 
1.55 
TEXTURE_COORDINATES TCoords 2 float
0 0 0.015873 0 0.031746 0 0.047619 0 0.0634921 
0 0.0793651 0 0.0952381 0 0.111111 0 0.126984 0 
0.142857 0 0.15873 0 0.174603 0 0.190476 0 0.206349 
0 0.222222 0 0.238095 0 0.253968 0 0.269841 0 
0.285714 0 0.301587 0 0.31746 0 0.333333 0 0.349206 
0 0.365079 0 0.380952 0 0.396825 0 0.412698 0 
0.428571 0 0.444444 0 0.460317 0 0.47619 0 0.492063 
0 0.507937 0 0.52381 0 0.539683 0 0.555556 0 
0.571429 0 0.587302 0 0.603175 0 0.619048 0 0.634921 
0 0.650794 0 0.666667 0 0.68254 0 0.698413 0 
0.714286 0 0.730159 0 0.746032 0 0.761905 0 0.777778 
0 0.793651 0 0.809524 0 0.825397 0 0.84127 0 
0.857143 0 0.873016 0 0.888889 0 0.904762 0 0.920635 
0 0.936508 0 0.952381 0 0.968254 0 0.984127 0 
1 0 
FIELD FieldData 7
Curvature 1 64 double
0 0.12297114972 0.076379265908 0.055076988014 0.029575679391 0.022039086704 0.022325378413 0.017915253579 0.017171576414 
0.029545046561 0.047896868693 0.075083292524 0.11669386607 0.17464134632 0.24614509662 0.32189765651 0.34258551068 0.23847608021 
0.12836625731 0.077544798913 0.12401183644 0.25296345026 0.34866908532 0.27288416458 0.16517657145 0.12846997086 0.17142517467 
0.33939779046 0.76753972675 0.69027280772 0.25735432604 0.088104580153 0.05716306567 0.11690465131 0.15419167297 0.14010855544 
0.10550460937 0.086638295828 0.072687096684 0.053083705729 0.046213262632 0.067063669128 0.098069261346 0.13014907928 0.16631164533 
0.19902665413 0.20523162027 0.17812203701 0.14151940201 0.11292127983 0.09664150911 0.08993089404 0.089646358551 0.093044118301 
0.097128349262 0.099694691359 0.10496875777 0.11172986394 0.11651415799 0.11906703568 0.13685744877 0.19112127892 0.68365830993 
0 
Torsion 1 64 double
0 0 -0.14046501436 -0.23927904532 -0.70332311166 -0.6919250198 -0.13013592097 0.47392900799 0.98937988365 
0.57348541342 0.44061362762 0.31574671747 0.15405765903 -0.05286178412 -0.32749945703 -0.42826562483 -0.36083972594 -0.29593824049 
0.013918188074 0.89943046578 0.42202520216 0.10394829606 0.071279981261 0.14947785317 0.39376799496 0.54881698569 0.26504337346 
-0.0011123153487 -0.045042534687 -0.071171646636 -0.22527842767 -0.84321584087 -1.3708208163 -0.31332634185 -0.22022612405 -0.30087339447 
-0.43304535826 -0.32246281459 -0.022822830025 0.42654443948 0.78649370511 0.41475497103 0.23231945483 0.15787316097 0.092060059809 
0.039569803779 0.01146306547 0.0073842682655 0.04258978083 0.13257071098 0.25028810064 0.3554771707 0.42403746385 0.45523168641 
0.46078653586 0.45393346137 0.38762427445 0.26720301584 0.094510980908 -0.1837295578 -0.39266831253 -0.84858528711 0 
0 
Abscissas 1 64 double
0 1.0485804513 2.0224413 3.043852769 4.0583778924 5.0727788895 6.0874142718 7.1020093772 8.1166100626 
9.1312055819 10.145784816 11.160330947 12.174775463 13.189019029 14.202855546 15.216082555 16.228203418 17.241124871 
18.255252326 19.269732318 20.284234483 21.298361136 22.311020368 23.323544954 24.337411485 25.351723807 26.366103015 
27.379108409 28.391370339 29.39177418 30.405614712 31.419307794 32.433921615 33.448421788 34.46262082 35.4767556 
36.491087841 37.505536379 38.52002129 39.53455268 40.549119709 41.56367354 42.578159626 43.592530376 44.606729178 
45.62071976 46.634507578 47.648408692 48.662552234 49.676872319 50.691290085 51.705740298 52.720198318 53.734647849 
54.749079931 55.763502972 56.777913293 57.792298916 58.806665 59.820981031 60.835332464 61.851500801 62.844664378 
63.877561756 
ParallelTransportNormals 3 64 double
0.69125888561 0 0.7226071914 0.60045669736 -0.021554676053 0.79936671843 0.53939583871 -0.036237164623 0.84127224909 
0.49215271506 -0.047177862426 0.86922951765 0.4698214041 -0.051944934574 0.88123184919 0.46600639407 -0.052667291932 0.88321243031 
0.47025004269 -0.051970953455 0.8810016557 0.47107351565 -0.051854457777 0.88056848573 0.45941272229 -0.053298971722 0.88662233798 
0.43269421335 -0.056389217795 0.89977551303 0.39491241399 -0.061150740981 0.91668139075 0.35337796093 -0.068116062645 0.93299743769 
0.31319632145 -0.078350441649 0.94645088226 0.2697219591 -0.095921388614 0.95814881516 0.18893463758 -0.14723244252 0.97088944303 
0.010422459252 -0.30951652004 0.9508369451 -0.20117069684 -0.52999950863 0.82379055079 -0.33673392046 -0.65305403161 0.67832934376 
-0.40490026788 -0.70028085199 0.58793069439 -0.44590009389 -0.72404952707 0.52623700803 -0.48175781377 -0.74647221756 0.4590083194 
-0.51333084383 -0.78132530991 0.35499606316 -0.5112217931 -0.82749487343 0.23217345394 -0.48761503237 -0.8570025967 0.1666677217 
-0.48657234884 -0.85790274584 0.16507643086 -0.52082685747 -0.82895182243 0.20390748055 -0.59950420003 -0.75121359401 0.27617539775 
-0.75264427543 -0.53872877638 0.37854709108 -0.93876552617 -0.01040495426 0.3443995119 -0.92193163632 0.38277220624 0.059392727501 
-0.87804766578 0.47102600958 -0.084656924792 -0.86868783548 0.48229093363 -0.1130349496 -0.88220679548 0.46620394802 -0.066068516354 
-0.90398122608 0.42564590583 0.040540174314 -0.91650916567 0.36384218353 0.16622218481 -0.91736021568 0.30585125814 0.2547650733 
-0.91632393062 0.27714289633 0.28903679557 -0.9163244503 0.27719776023 0.28898253148 -0.91593052392 0.28678894766 0.28075500859 
-0.91607491595 0.28491308609 0.28219015174 -0.91808904961 0.25848270236 0.30049823554 -0.91984313759 0.20206771371 0.33623985682 
-0.91497517267 0.11731119579 0.38608097174 -0.89474722735 0.0097526050434 0.44646644426 -0.84847077089 -0.11557513504 0.51646852673 
-0.76612311574 -0.24748921736 0.59313106378 -0.6529230943 -0.3622008344 0.66520822942 -0.53404300648 -0.44178674967 0.72084848273 
-0.4295676887 -0.48935287064 0.75895017545 -0.3455348466 -0.51530364073 0.7842626012 -0.2832539684 -0.52744594972 0.80097937521 
-0.2471542563 -0.53092307225 0.81057724181 -0.24541406828 -0.53093898024 0.81109539165 -0.28337838005 -0.53318106769 0.79712900009 
-0.35455080016 -0.53980452501 0.76348202656 -0.44020482861 -0.54640798441 0.71250124452 -0.52272085694 -0.546786735 0.6540544107 
-0.59230586642 -0.53870090948 0.59914530018 -0.64934865738 -0.52343384702 0.55169133485 -0.70542850052 -0.49884418878 0.50351276645 
-0.78365042467 -0.44807767069 0.43025389359 -0.88545043959 -0.34779261724 0.30824959762 -0.98654966895 -0.003364029739 -0.16342715197 
-0.98654966895 -0.003364029739 -0.16342715197 
FrenetTangent 3 64 double
-0.75005707868 -0.17790348804 0.63699664651 -0.75005707868 -0.17790348804 0.63699664651 -0.8092640573 -0.1945561975 0.55429195517 
-0.84395214156 -0.19546426908 0.4995382891 -0.8656645677 -0.18479508748 0.46526941858 -0.87525175428 -0.16572660579 0.45438866487 
-0.87762359996 -0.14401031264 0.45720656891 -0.87816691821 -0.12423160316 0.46194087559 -0.88220571059 -0.10928390825 0.45800667201 
-0.89238662406 -0.10321094298 0.43931038509 -0.90680590503 -0.11427995285 0.40576242184 -0.91962612009 -0.15422033822 0.36125321662 
-0.92175809802 -0.23476881256 0.30861888047 -0.89956740568 -0.36356922154 0.24206590794 -0.83676100743 -0.53142504951 0.13197891197 
-0.73743320787 -0.67033116411 -0.082755026147 -0.63934927927 -0.66619702127 -0.383945345 -0.5797394345 -0.52619265241 -0.6221121126 
-0.55564721721 -0.38497625896 -0.73691888973 -0.52702633975 -0.30552718902 -0.79302986954 -0.45148394871 -0.28231459664 -0.84644002302 
-0.27668471418 -0.30531307721 -0.91116930031 0.016037915153 -0.35181628928 -0.93593166624 0.31225616001 -0.39019776348 -0.86616499347 
0.49545143877 -0.42768926168 -0.7560487863 0.57740498121 -0.48801574815 -0.65455642785 0.59549452186 -0.58834515786 -0.54702490771 
0.54460711262 -0.75554889871 -0.36407273249 0.33273771056 -0.94116997609 0.059031280539 -0.035864839917 -0.8080540439 0.58801562513 
-0.25144581107 -0.5056268115 0.82529784417 -0.29309801322 -0.35271502141 0.88864259875 -0.26273979135 -0.31263527137 0.9128126802 
-0.1874926621 -0.34925867349 0.91807672917 -0.089110845151 -0.43952242044 0.89380048065 -0.0080558383709 -0.54788938836 0.83651199728 
0.023199345512 -0.64198115016 0.76636935821 0.0067586255437 -0.7109627104 0.70319723079 -0.031168499461 -0.75864701487 0.65075589239 
-0.061033355517 -0.79274765294 0.60648667609 -0.062507791171 -0.82043638486 0.56831057921 -0.026283985319 -0.84444257238 0.53500083557 
0.049448467852 -0.86094965141 0.50628109462 0.16184083101 -0.86048479142 0.48308743427 0.30678291788 -0.8309366833 0.46414272551 
0.47496479297 -0.76084552756 0.44217929467 0.64122176352 -0.6497502797 0.40823917502 0.77444506589 -0.51849153063 0.36249327246 
0.86377320364 -0.39326229022 0.31502479866 0.91820992075 -0.283539673 0.2765787325 0.94912622265 -0.18505431302 0.25478287756 
0.9622670211 -0.092709511377 0.25582636027 0.95838985921 -0.008782028008 0.28532745006 0.93707490092 0.055362861582 0.34471086961 
0.90086756738 0.083842238542 0.42592030366 0.8574253154 0.066082056151 0.5103479111 0.81602598013 0.0037507906626 0.57800305477 
0.78178902874 -0.09084256491 0.61689021952 0.75301280306 -0.20152047726 0.62638743256 0.71975243866 -0.31555524555 0.61836988449 
0.65957806577 -0.428154453 0.61777062048 0.54267234347 -0.53318188614 0.64901756827 0.16437989529 -0.58047923571 0.79751056854 
0.16437989529 -0.58047923571 0.79751056854 
FrenetNormal 3 64 double
-0.60434239879 -0.20690005925 -0.76939107774 -0.60434239879 -0.20690005925 -0.76939107774 -0.5475405837 -0.092015658435 -0.83170453155 
-0.52237743834 0.087802304459 -0.84818191872 -0.48452007898 0.54309400814 -0.6857763421 -0.21131850284 0.97608349256 -0.051044156516 
-0.00074001465559 0.95421038058 0.29913542413 -0.061067000739 0.98690129494 0.14932064649 -0.40027962423 0.68630771398 -0.60725443116 
-0.44229469377 0.0068315435305 -0.89684376225 -0.31398690752 -0.45914906848 -0.83102006885 -0.1261566182 -0.75500688036 -0.64346648576 
0.061129574949 -0.87391596801 -0.48221785111 0.23288812742 -0.86809739131 -0.43837203298 0.36797478854 -0.72422846269 -0.58317037718 
0.35974058387 -0.28611182889 -0.88810288463 0.24125831811 0.3003111275 -0.92282590484 0.11718451308 0.70173095707 -0.70273853871 
0.11081158711 0.84414115162 -0.52454409567 0.5264538736 0.61516681412 -0.58686975538 0.88367094524 -0.010017672646 -0.46800139612 
0.95795556632 -0.16256166052 -0.23642089476 0.98844257596 -0.13554470823 0.067888924738 0.91453788811 -0.12331286863 0.38524587947 
0.72535503532 -0.27515637169 0.63099052596 0.34118062438 -0.58412710168 0.73647220628 -0.058549364626 -0.71089528672 0.70085652114 
-0.30697427985 -0.58354776002 0.75182365172 -0.50891987162 -0.12651669371 0.8514658481 -0.54470703431 0.50911514851 0.66640529134 
-0.35610848738 0.84121090743 0.40687953308 0.050516312791 0.92245086777 0.38279563569 0.96391995504 -0.043149382139 0.26267175541 
0.80464732839 -0.59067504286 -0.060379389345 0.65337192103 -0.70310942274 -0.2806105352 0.42467726027 -0.75922548589 -0.49317936512 
0.022150058456 -0.76605742971 -0.64239037143 -0.40117514102 -0.64606930251 -0.64934810586 -0.55136638473 -0.53000001021 -0.64427874322 
-0.35539734707 -0.55053782554 -0.75538124702 0.34502814727 -0.55207914883 -0.75905480107 0.82816350746 -0.31813202093 -0.4614512132 
0.95755685882 -0.10325606337 -0.26911530523 0.98293851957 0.097208038155 -0.15614885225 0.95083999062 0.28923028517 -0.11067589788 
0.87361426621 0.46811443688 -0.13291722184 0.75733834116 0.62154157132 -0.20031153768 0.62009190064 0.7356784657 -0.27251280679 
0.48584822299 0.81577909186 -0.31377695503 0.35830412858 0.89223405902 -0.27483910816 0.2213680242 0.96754128168 -0.12190187079 
0.053901368401 0.98648238196 0.1547486755 -0.13928941354 0.85807587608 0.49427143369 -0.31953485368 0.53382073405 0.78290031369 
-0.43156360664 0.067195521534 0.89957635324 -0.44085148443 -0.41726469832 0.79469499823 -0.3620785393 -0.7761547069 0.51621991663 
-0.26753424526 -0.94250906235 0.20025507485 -0.2330275839 -0.97192516293 -0.032551848088 -0.32466995909 -0.9403172479 -0.1019455294 
-0.59127588154 -0.80299651445 0.074762488447 -0.81751829019 -0.51264103777 0.26241762822 -0.95946319382 0.093552002805 0.26585409998 
-0.95946319382 0.093552002805 0.26585409998 
FrenetBinormal 3 64 double
0.2686720003 -0.96205130551 0.047672233301 0.2686720003 -0.96205130551 0.047672233301 0.21281681032 -0.97656592436 -0.032062448861 
0.12192864584 -0.97677247855 -0.17620706705 -0.12595693427 -0.81908465616 -0.55967417016 -0.43506190018 -0.1406972199 -0.8893398874 
-0.47934984007 0.26218996824 -0.83754411906 -0.47444039161 0.10291910816 -0.87425052015 -0.24797037451 -0.71905406551 -0.64920870622 
0.089562922389 -0.99463602954 -0.051746030488 0.28127437229 -0.88097799365 0.3804766776 0.37198428317 -0.63732307184 0.6748681317 
0.38291667997 -0.42562246828 0.81989043823 0.36951536199 -0.33797091642 0.86558307337 0.40549423109 -0.43940932009 0.80155715827 
0.57164584862 -0.68468690055 0.45213368815 0.73008692841 -0.68263808533 -0.031278130042 0.80633118381 -0.48030714803 -0.34515947846 
0.82400058384 -0.3731206188 -0.42638485157 0.66715032503 -0.72678946579 -0.16336314224 0.12364426631 -0.95926957356 0.25399602487 
-0.075938803572 -0.93827375078 0.33745468837 -0.15074501421 -0.92620350392 0.34557634471 -0.25713137061 -0.91243610286 0.31834543572 
-0.47789951304 -0.86102895803 0.17389993927 -0.74175418382 -0.64856469118 -0.17077638051 -0.80122296918 -0.38532825817 -0.45778148403 
-0.78049335961 -0.29768754329 -0.54973833973 -0.79390564946 -0.31335698863 -0.52107697841 -0.83785915286 -0.2963957282 -0.45841205512 
-0.89997874937 -0.19158741272 -0.39157695792 -0.95474690719 0.15708758777 -0.25255065428 -0.042733152374 0.94889267987 0.31269243638 
0.56337303678 0.72740729494 0.39177729476 0.75177416163 0.55897869511 0.34982628307 0.90530896829 0.35127464994 0.23879236219 
0.99948545026 0.031878162264 -0.0035521109896 0.91597643376 -0.27771654754 -0.2895871061 0.83368077489 -0.37888612539 -0.40177315684 
0.93272056652 -0.26164720791 -0.24813924192 0.93650859774 0.14863630722 0.31758289396 0.55986994652 0.43093939157 0.70769829996 
0.28397132101 0.49810027416 0.81930238967 0.087403730817 0.50011650747 0.86153587667 -0.042279469351 0.47527893966 0.87881873898 
-0.10586103775 0.44942514079 0.88702338386 -0.12358514068 0.43761929704 0.89062678146 -0.1253829122 0.43582534091 0.89125495654 
-0.13359400021 0.4240863643 0.8957139045 -0.16884517428 0.35145929745 0.92085160007 -0.22395448495 0.17210104436 0.95928390959 
-0.26671487134 -0.1351201561 0.95425663258 -0.24917330725 -0.51344782293 0.82114797453 -0.14067020775 -0.84378337116 0.51792037535 
0.046802558258 -0.99421086341 0.096717524878 0.26546524666 -0.90637924369 -0.32864094301 0.45055602441 -0.63053136521 -0.63200432463 
0.56323293774 -0.32159647976 -0.76114674147 0.61536157141 -0.12145359162 -0.77883192122 0.61363331453 -0.1273905817 -0.77924694096 
0.46405776263 -0.41458456574 -0.78279628946 0.19279671376 -0.67299052199 -0.71408205725 -0.22893149571 -0.80888310631 -0.54157039302 
-0.22893149571 -0.80888310631 -0.54157039302 
