# vtk DataFile Version 4.2
vtk output
ASCII
DATASET POLYDATA
POINTS 64 float
0 0 0 -0.703398 0.118174 0.592277 -1.63138 0.181402 1.26613 
-2.47567 0.0912373 1.70678 -3.4197 -0.127293 2.06001 -4.35 -0.493851 2.22743 
-5.24206 -0.977926 2.22677 -6.07579 -1.54099 2.08864 -6.85037 -2.15107 1.84831 
-7.57777 -2.78639 1.53679 -8.26902 -3.43384 1.17272 -8.93219 -4.08414 0.764214 
-9.5703 -4.72846 0.308969 -10.1805 -5.3548 -0.206203 -10.7521 -5.94222 -0.804601 
-11.269 -6.4622 -1.50673 -11.7214 -6.89559 -2.305 -12.1196 -7.25849 -3.16517 
-12.4813 -7.5884 -4.0539 -12.8179 -7.92494 -4.94994 -13.1277 -8.298 -5.84127 
-13.3979 -8.72701 -6.72032 -13.607 -9.22286 -7.58078 -13.7272 -9.78755 -8.41556 
-13.7281 -10.4132 -9.21491 -13.5826 -11.0821 -9.96487 -13.2761 -11.7681 -10.6477 
-12.8164 -12.4464 -11.247 -12.229 -13.1021 -11.7527 -11.547 -13.7341 -12.1597 
-10.8009 -14.3507 -12.4651 -10.0167 -14.9639 -12.6631 -9.21702 -15.5839 -12.7425 
-8.42505 -16.2164 -12.6855 -7.66922 -16.8578 -12.4657 -6.98985 -17.49 -12.0515 
-6.44746 -18.0725 -11.4193 -6.10218 -18.5579 -10.5968 -5.97568 -18.9257 -9.65747 
-6.04227 -19.1947 -8.68052 -6.25853 -19.4035 -7.71107 -6.58502 -19.5924 -6.7689 
-6.98896 -19.7984 -5.86103 -7.4416 -20.0551 -4.98984 -7.91471 -20.3922 -4.1577 
-8.37817 -20.8314 -3.3687 -8.80164 -21.3805 -2.62761 -9.16185 -22.0306 -1.93642 
-9.44694 -22.7611 -1.29199 -9.65622 -23.5479 -0.686228 -9.79591 -24.3706 -0.108822 
-9.87458 -25.2139 0.449932 -9.89841 -26.0677 0.997729 -9.86939 -26.9246 1.54036 
-9.78562 -27.778 2.08279 -9.64189 -28.62 2.63057 -9.43132 -29.4393 3.1909 
-9.14588 -30.218 3.77639 -8.78211 -30.9305 4.40036 -8.34145 -31.5397 5.07967 
-7.82328 -31.9944 5.84562 -7.30641 -32.2742 6.60392 -6.6825 -32.3149 7.56487 
-6.19362 -32.2171 8.34761 
LINES 1 65
64 0 1 2 3 4 5 6 7 8 9 10 11 12 13 14 15 16 17 18 19 20 21 22 23 24 25 26 27 28 29 30 31 32 33 34 35 36 37 38 39 40 41 42 43 44 45 46 47 48 49 50 51 52 53 54 55 56 57 58 59 60 61 62 63 

CELL_DATA 1
FIELD FieldData 2
Length 1 1 double
63.95110744 
Tortuosity 1 1 double
0.8891159392 
POINT_DATA 64
SCALARS MaximumInscribedSphereRadius float
LOOKUP_TABLE default
1.24 1.14245 1.03416 1.04922 1.23125 1.51578 1.49962 1.43519 1.4246 
1.49964 1.57112 1.47518 1.36402 1.25923 1.18708 1.25192 1.45566 1.66368 
1.83442 1.93887 1.89583 1.76853 1.55588 1.34129 1.24 1.24 1.24972 
1.26373 1.3443 1.59651 1.87163 2.0304 2.14101 2.16777 1.95437 1.66548 
1.67706 1.76661 1.77097 1.63024 1.56805 1.55 1.588 1.68394 1.81521 
1.85088 1.86 1.86 1.85695 1.83243 1.61221 1.39258 1.30772 1.43969 
1.531 1.39035 1.24764 1.2329 1.42298 1.45069 1.3415 1.32494 1.44038 
1.581 
TEXTURE_COORDINATES TCoords 2 float
0 0 0.015873 0 0.031746 0 0.047619 0 0.0634921 
0 0.0793651 0 0.0952381 0 0.111111 0 0.126984 0 
0.142857 0 0.15873 0 0.174603 0 0.190476 0 0.206349 
0 0.222222 0 0.238095 0 0.253968 0 0.269841 0 
0.285714 0 0.301587 0 0.31746 0 0.333333 0 0.349206 
0 0.365079 0 0.380952 0 0.396825 0 0.412698 0 
0.428571 0 0.444444 0 0.460317 0 0.47619 0 0.492063 
0 0.507937 0 0.52381 0 0.539683 0 0.555556 0 
0.571429 0 0.587302 0 0.603175 0 0.619048 0 0.634921 
0 0.650794 0 0.666667 0 0.68254 0 0.698413 0 
0.714286 0 0.730159 0 0.746032 0 0.761905 0 0.777778 
0 0.793651 0 0.809524 0 0.825397 0 0.84127 0 
0.857143 0 0.873016 0 0.888889 0 0.904762 0 0.920635 
0 0.936508 0 0.952381 0 0.968254 0 0.984127 0 
1 0 
FIELD FieldData 7
Curvature 1 64 double
0 0.098462217366 0.20088473703 0.17216974679 0.23004747086 0.20491199804 0.16505247138 0.12381108913 0.086640858828 
0.063120177908 0.051164653734 0.051872311981 0.066601147618 0.096991089692 0.13189724946 0.14105777847 0.10549296051 0.055283122438 
0.026203672401 0.044258072885 0.067707782574 0.089950961564 0.11232787039 0.13513315737 0.15664171041 0.17129036301 0.17072646242 
0.15614643495 0.13528450451 0.11798764453 0.11102135026 0.11669461144 0.13375720683 0.16312110165 0.20480510704 0.25814171032 
0.28747906508 0.27079120819 0.21575245401 0.15768215441 0.11228129387 0.084058115345 0.07711665011 0.089223011749 0.10833524997 
0.12316457317 0.12593511169 0.1164613333 0.099317285332 0.081010472237 0.065189238509 0.055310377744 0.051698592702 0.053325864983 
0.059560311054 0.06972028745 0.086377334752 0.10665808236 0.13698816508 0.18607630491 0.1627687422 0.251744248 0.13763724011 
0 
Torsion 1 64 double
0 0 -0.0036366385861 -0.0066608800069 -0.0048877145877 -0.0085202921423 -0.012950173796 -0.023610898826 -0.047753178615 
-0.094892776517 -0.16340804959 -0.18004822459 -0.13278623925 -0.077433446055 -0.044778978637 -0.019009183804 0.038405379014 0.32691927249 
1.417527523 0.24039463363 -0.046811037405 -0.11777286533 -0.13259170996 -0.12044961246 -0.093996708123 -0.054898059546 -0.0094808098764 
0.047442243012 0.11961139952 0.18770729889 0.21160795136 0.17106920233 0.10336699411 0.043202292065 0.0096330769708 0.0094775022974 
0.028697983242 0.059096385086 0.10721580734 0.18220902833 0.31011927926 0.48306263512 0.52124087903 0.36424310584 0.23305021634 
0.16241946283 0.12964412919 0.11999036078 0.12346040637 0.13235264825 0.1460346206 0.15497674986 0.15273301664 0.14741313449 
0.14898457158 0.17519545849 0.17942270883 0.18123030051 0.1712839167 0.082654661225 0.11646499342 0.043821981948 0 
0 
Abscissas 1 64 double
0 0.92710584408 2.0756839066 3.0323046319 4.0636749959 5.0775032219 6.0924371433 7.1079336342 8.1227873134 
9.1375752561 10.152249319 11.166922005 12.181601282 13.196505614 14.211324267 15.22651938 16.241255112 17.256208999 
18.270879565 19.285491829 20.300178555 21.31496702 22.329856747 23.344835147 24.359942084 25.375295149 26.390570191 
27.405778326 28.42099925 29.43602568 30.450940695 31.465887524 32.480944221 33.496065143 34.511439557 35.527672864 
36.544144628 37.55970666 38.576383235 39.591861031 40.606856504 41.621730593 42.63653399 43.651300809 44.666146264 
45.681145862 46.69607451 47.711035108 48.7259848 49.740791684 50.755517264 51.770232471 52.784915103 53.799586264 
54.814265481 55.829021665 56.843656841 57.858879499 58.873423235 59.886730475 60.917210401 61.876611879 63.023058895 
63.951104329 
ParallelTransportNormals 3 64 double
0.64409900134 0 0.7649421393 0.58785470228 0.0065524649767 0.8089399942 0.4623781925 0.0036425972542 0.88667532873 
0.35343276696 -0.014908119857 0.93534112879 0.20065100292 -0.06270680423 0.97765384044 0.067113609148 -0.12503361714 0.98987997154 
-0.035947197333 -0.18756444576 0.98159430402 -0.10932454639 -0.24108881143 0.96432584149 -0.15879458943 -0.28210835329 0.94614964745 
-0.1946930604 -0.31456841339 0.92905399495 -0.22486577871 -0.34347862425 0.91184308751 -0.25668389366 -0.37513400205 0.89072322258 
-0.29750844462 -0.41668990258 0.85898675803 -0.35455528241 -0.47528067027 0.8052321629 -0.42615124604 -0.54811558046 0.71969745446 
-0.49435363004 -0.61519522647 0.61412484219 -0.53913618725 -0.65712270528 0.52680349449 -0.55994664211 -0.67609511313 0.47891038409 
-0.56439420532 -0.68033946484 0.46754400176 -0.5606587629 -0.67623850816 0.4778736566 -0.55459061045 -0.66784639992 0.49639746264 
-0.54992437213 -0.65884322422 0.51333107332 -0.54837899651 -0.65386722617 0.52128507242 -0.5487977571 -0.65798352285 0.51563427491 
-0.54692622704 -0.6747324178 0.49558840438 -0.53739731526 -0.70329105477 0.46538781444 -0.51905445445 -0.73595081071 0.43469400448 
-0.49758185647 -0.76330956185 0.41203253379 -0.4822902026 -0.77882251718 0.40103821165 -0.48085446513 -0.78007777549 0.40032192988 
-0.49722497453 -0.76692193348 0.40570688021 -0.53246013847 -0.73948810997 0.41187805981 -0.58638703541 -0.69705165199 0.41263693383 
-0.65786591137 -0.63822264673 0.39985534367 -0.74368493968 -0.56206938688 0.36195402309 -0.83561659133 -0.47067386218 0.28321551468 
-0.91153881996 -0.37932599292 0.15877270169 -0.95186631326 -0.30640326848 0.0082194123489 -0.95637643932 -0.25838088499 -0.13632103502 
-0.93860955889 -0.22837518443 -0.25856695672 -0.91059801735 -0.20784760771 -0.35722629069 -0.87992803166 -0.19126705255 -0.43490639648 
-0.85139177743 -0.17585231561 -0.49417406287 -0.82848828789 -0.16116129381 -0.53631538689 -0.81407896251 -0.14921805618 -0.56125699506 
-0.8094390725 -0.14404763464 -0.56926151009 -0.81259271265 -0.14887352468 -0.56349778792 -0.8197355622 -0.16415520727 -0.54871365574 
-0.8273567744 -0.18754574676 -0.52944061114 -0.83344121471 -0.21560776284 -0.50881139357 -0.83735784266 -0.24549030661 -0.48843254673 
-0.8392516254 -0.27684609995 -0.46798819024 -0.83914797275 -0.31099083905 -0.44622346179 -0.83657524537 -0.35000327508 -0.4214730908 
-0.83033951232 -0.39647684301 -0.39158959031 -0.8183749501 -0.45257792566 -0.35416897417 -0.79702591989 -0.52136054579 -0.30484892047 
-0.76265999356 -0.60029292532 -0.24082802583 -0.70995675712 -0.68687565657 -0.15544528113 -0.62978782839 -0.77599690083 -0.034584694876 
-0.55622158597 -0.82775622942 0.073737181664 -0.43973925143 -0.86294520945 0.24890752548 -0.37909933321 -0.85898982976 0.34412231536 
-0.37909933321 -0.85898982976 0.34412231536 
FrenetTangent 3 64 double
-0.78695992963 0.087506348463 0.61076731096 -0.78695992963 0.087506348463 0.61076731096 -0.84645814573 -0.012865288046 0.53229981391 
-0.9028204833 -0.15584245586 0.40078461035 -0.92268654088 -0.28802460638 0.25630328401 -0.90304619115 -0.42151977828 0.082635665213 
-0.85291939489 -0.517516697 -0.068592814067 -0.79369162874 -0.57893988119 -0.18676780351 -0.740736679 -0.61419814216 -0.27215770163 
-0.69938669403 -0.63239848969 -0.33306216004 -0.66764095383 -0.63970634865 -0.3808298101 -0.64145005123 -0.63816697586 -0.42577546042 
-0.61540428316 -0.62642276119 -0.47840578229 -0.58294574747 -0.59871087859 -0.5492900321 -0.53740558189 -0.54673669903 -0.64208583732 
-0.47872348498 -0.4708555644 -0.74102554774 -0.41967117589 -0.39287541982 -0.81824507859 -0.37455394766 -0.34148534102 -0.86203080117 
-0.3441451175 -0.32844868417 -0.87959399723 -0.31861065945 -0.34976244192 -0.88099573319 -0.28595510056 -0.39544127861 -0.87284355737 
-0.23639302519 -0.45614484837 -0.85793368913 -0.1624905725 -0.52331558599 -0.8365032046 -0.059792521374 -0.5877270248 -0.80684682481 
0.071437795339 -0.63955635175 -0.76541773845 0.22341901566 -0.66971353213 -0.70821446492 0.3787582186 -0.67441883039 -0.63379922141 
0.51731515305 -0.65905708512 -0.54592013242 0.62671533833 -0.63575073062 -0.45060946863 0.70477393259 -0.6161900169 -0.35157298959 
0.75505855605 -0.60678976432 -0.24838027066 0.78161199616 -0.60855854773 -0.13689112985 0.78580991971 -0.61836920079 -0.011059005033 
0.76485907866 -0.62950848626 0.13678324283 0.71019821846 -0.63023157041 0.31373023148 0.60611427806 -0.60261226427 0.51911842664 
0.44138543377 -0.53100290959 0.72333588937 0.23429732546 -0.42371893216 0.87496687355 0.029655301432 -0.31521574413 0.94855658648 
-0.13974485942 -0.23606180929 0.96163724785 -0.2678154334 -0.196241453 0.94327312363 -0.36020138649 -0.19474016031 0.91232189009 
-0.42237198652 -0.22815326277 0.87723884643 -0.45658645374 -0.29286608119 0.84009420231 -0.46209400972 -0.38301858314 0.79985366859 
-0.43778003412 -0.48781570967 0.75523802547 -0.38685929817 -0.5919783172 0.7070371669 -0.31844487306 -0.68130233152 0.65910545126 
-0.24386741392 -0.74846693291 0.61670571164 -0.17208886693 -0.79369941358 0.58346093507 -0.10765536428 -0.82136801462 0.56014721913 
-0.050528109233 -0.83659775816 0.54548244814 0.0025587276349 -0.84325659223 0.53750513726 0.055600052546 -0.8430951664 0.53488239319 
0.11215340236 -0.8358019206 0.53745396442 0.17469176518 -0.81912480135 0.54636741025 0.24458827045 -0.78799235555 0.56501736747 
0.32031182887 -0.73573859684 0.59673197451 0.39764184278 -0.65333575007 0.64423083018 0.47123853169 -0.52287734482 0.71030523617 
0.52183395675 -0.3703118135 0.76847802985 0.54633963144 -0.15349282015 0.82337899006 0.53776041262 0.027594887293 0.84264598783 
0.53776041262 0.027594887293 0.84264598783 
FrenetNormal 3 64 double
-0.47879987875 -0.71095848869 -0.51506184431 -0.47879987875 -0.71095848869 -0.51506184431 -0.36493750456 -0.71394942272 -0.59757580235 
-0.18983437792 -0.69184348584 -0.69664589287 -0.010793993176 -0.64521334538 -0.7639261932 0.18812096995 -0.56105567468 -0.80611849661 
0.34809072399 -0.46586353494 -0.81351337708 0.46139727189 -0.37283612043 -0.80505017533 0.52918820927 -0.28390171199 -0.79959968553 
0.55560608841 -0.18789454583 -0.80993673467 0.53339368661 -0.054157662883 -0.84413157898 0.4696691589 0.11216104268 -0.87568874703 
0.40946755947 0.2645505976 -0.87312616445 0.3868142346 0.39001563627 -0.83562105728 0.40568628668 0.49988667348 -0.76520059493 
0.44479884277 0.59761977418 -0.66708664729 0.50108107748 0.65137964695 -0.56975635963 0.63952687262 0.57801907617 -0.50685237178 
0.93025953191 -0.24619934522 -0.27203508174 0.58904055995 -0.80124314355 0.10507446714 0.56900944615 -0.80297412339 0.17737194638 
0.66115651508 -0.72254596115 0.20198860513 0.77096038845 -0.59642895388 0.22336647556 0.86092932286 -0.43944340794 0.25630097984 
0.91232193668 -0.26829837299 0.30932938253 0.91872965007 -0.098025979247 0.38252678009 0.87735856236 0.043666339735 0.47784433011 
0.79823047591 0.14158718549 0.58547517132 0.68294098526 0.16964313881 0.71050180584 0.52944501625 0.12698052575 0.83878717256 
0.33400284062 0.029983828897 0.94209504428 0.12919224425 -0.056762230277 0.98999364303 -0.057125848964 -0.090375900693 0.994267989 
-0.21745550916 -0.052430625207 0.97466103394 -0.36869072578 0.046676821476 0.92837946071 -0.52283758023 0.18997985664 0.8309924902 
-0.67671734036 0.33238470054 0.65694295955 -0.79802264764 0.43018595202 0.42201883909 -0.8769902791 0.44711554049 0.17599927223 
-0.92720452652 0.37203074273 -0.043415348212 -0.95641533821 0.17241135757 -0.23567779831 -0.89653261352 -0.19804551038 -0.39624140206 
-0.61439940097 -0.63948531996 -0.46213840096 -0.22279808026 -0.87653953544 -0.42666082343 0.087321920671 -0.91719192522 -0.38875937864 
0.31614701885 -0.869887499 -0.37861167647 0.48973134284 -0.78156496443 -0.38641870843 0.62841372835 -0.67228776738 -0.39131233541 
0.74248955193 -0.55317856073 -0.37776016893 0.83555116967 -0.4313289381 -0.34030808105 0.90991258974 -0.30842053196 -0.27737313226 
0.96381193183 -0.18399217585 -0.19290785179 0.99356480408 -0.058721635247 -0.096854270111 0.99797012512 0.063587038883 -0.0035096804299 
0.97852037532 0.18704201962 0.086678474706 0.93240834769 0.3159242194 0.17551797842 0.84159632115 0.4619229475 0.27989787922 
0.71700961528 0.59997473808 0.35486268507 0.55218842786 0.73114320805 0.4006464145 0.36019662184 0.84920043545 0.38615672213 
0.22466217683 0.92871882559 0.2949716076 0.014618898565 0.9846620784 0.17385879089 -0.11861102881 0.99200018963 0.043209346382 
-0.11861102881 0.99200018963 0.043209346382 
FrenetBinormal 3 64 double
0.38915902311 -0.69776834719 0.60139387126 0.38915902311 -0.69776834719 0.60139387126 0.38772312969 -0.70007907136 0.59963327839 
0.38584722871 -0.70502887887 0.59502621459 0.3853998404 -0.7076309526 0.59222073414 0.38615809886 -0.71241673649 0.58595589959 
0.38905186504 -0.71773785962 0.57748680606 0.39644186957 -0.72513573989 0.56303818945 0.4138466039 -0.73631546235 0.53532282629 
0.44962220446 -0.75151033917 0.48277539641 0.5193714777 -0.76670902893 0.37737320136 0.60659105908 -0.76168419402 0.22778164022 
0.67350863841 -0.73321722945 0.093694228344 0.71452711874 -0.69959494518 0.0042319336375 0.73933340067 -0.67170849005 -0.04683830742 
0.75695298031 -0.64895735067 -0.07665861083 0.75683145939 -0.64911744703 -0.076502823709 0.67135290235 -0.7411354191 0.0018897253834 
-0.12720590154 -0.91187024531 0.39027082178 -0.74264289293 -0.48546437473 0.46130887098 -0.7710109796 -0.44593581639 0.45462436912 
-0.71203258367 -0.51947975065 0.47238796391 -0.61580588929 -0.60861588907 0.50036966962 -0.50519853071 -0.67931320872 0.53226685885 
-0.40319390526 -0.72040520263 0.56431464519 -0.32560677747 -0.7361213842 0.59338481122 -0.2945915221 -0.73705664096 0.60824612051 
-0.30856626476 -0.73864526497 0.59932464724 -0.37525923754 -0.7530220541 0.54049818749 -0.47220935898 -0.7772939014 0.41573129801 
-0.56420623835 -0.79429663975 0.22530905149 -0.6102393395 -0.7914761798 0.034255004424 -0.61582416928 -0.78067389356 -0.10634314484 
-0.60638576115 -0.77522261013 -0.17699212809 -0.59973797547 -0.7750028658 -0.19921073965 -0.59938831038 -0.77509103531 -0.19991883442 
-0.58926440594 -0.77945899241 -0.21262911147 -0.55521582933 -0.79712126632 -0.23734588609 -0.47959213241 -0.83709421698 -0.2631817973 
-0.34750991391 -0.89770148081 -0.27086696196 -0.11638124623 -0.96527903526 -0.23386275809 0.25784536852 -0.9606530309 -0.10325463745 
0.66641974842 -0.73416933622 0.12992345697 0.86133026517 -0.38197892783 0.33496607738 0.88252139257 -0.1097986215 0.45727481274 
0.84166484077 0.073017617632 0.53504086136 0.78134697495 0.19676859084 0.59226600983 0.70971053877 0.28957950703 0.64222633103 
0.62388937297 0.36577415203 0.69063110269 0.52176590991 0.42894823468 0.73740338162 0.40058632225 0.4798243012 0.78057622203 
0.26175077886 0.51599522311 0.81561967821 0.11323618237 0.53429401009 0.83767981818 -0.031052592928 0.53399178727 0.8449192314 
-0.17297251059 0.51618836913 0.83882660792 -0.3163818268 0.47877598875 0.81894816214 -0.48155187693 0.40705679967 0.77615240234 
-0.6191102841 0.31419584782 0.7197106539 -0.73278162163 0.19642303074 0.65149757328 -0.80510411741 0.073877619803 0.58851461955 
-0.82293148432 0.018721745912 0.5678320776 -0.83743614379 -0.082949053801 0.54020381297 -0.83471262268 -0.12318338348 0.53673148927 
-0.83471262268 -0.12318338348 0.53673148927 
