# vtk DataFile Version 4.2
vtk output
ASCII
DATASET POLYDATA
POINTS 64 float
0 0 0 -0.762105 -0.0847142 0.702735 -1.63158 -0.266594 1.1159 
-2.60761 -0.559004 1.18744 -3.51232 -0.913625 0.901659 -4.32223 -1.29458 0.423854 
-5.06249 -1.7033 -0.136796 -5.77002 -2.16795 -0.696086 -6.47493 -2.73454 -1.15522 
-7.17803 -3.42708 -1.38407 -7.84652 -4.18887 -1.34004 -8.48203 -4.9544 -1.14137 
-9.11749 -5.71296 -0.917272 -9.77597 -6.4712 -0.773941 -10.4505 -7.22653 -0.825787 
-11.0676 -7.9536 -1.16862 -11.5114 -8.61841 -1.79167 -11.7218 -9.21416 -2.58476 
-11.7251 -9.76722 -3.43506 -11.5781 -10.313 -4.27753 -11.3314 -10.8806 -5.08136 
-11.0218 -11.4933 -5.82835 -10.6771 -12.1738 -6.49746 -10.3248 -12.9479 -7.04694 
-10.01 -13.8729 -7.35718 -9.93762 -14.7866 -7.01136 -10.1784 -15.1765 -6.10715 
-10.5012 -15.1631 -5.14415 -10.8186 -14.9718 -4.19998 -11.1097 -14.6779 -3.27362 
-11.3652 -14.3301 -2.3554 -11.5811 -13.9736 -1.43037 -11.7571 -13.6663 -0.479622 
-11.895 -13.4902 0.509757 -11.9967 -13.5373 1.51742 -12.0636 -13.8397 2.4829 
-12.0965 -14.3394 3.36498 -12.0925 -14.958 4.16899 -12.0437 -15.6403 4.91824 
-11.9378 -16.3514 5.6341 -11.762 -17.0677 6.33081 -11.5068 -17.7715 7.01551 
-11.1666 -18.4489 7.68975 -10.7361 -19.0855 8.35206 -10.2024 -19.6589 8.99655 
-9.54111 -20.1292 9.60526 -8.73237 -20.4305 10.1368 -7.79607 -20.5098 10.5185 
-6.80625 -20.3831 10.6933 -5.81296 -20.2185 10.821 -4.82483 -20.1547 11.0432 
-3.82351 -20.1837 11.1958 -2.81114 -20.2341 11.2628 -1.82123 -20.1585 11.4619 
-0.90913 -19.9272 11.8415 -0.0979928 -19.5933 12.3507 0.627653 -19.2045 12.9436 
1.29827 -18.7988 13.5879 1.94615 -18.4077 14.2636 2.60522 -18.0683 14.9567 
3.30737 -17.8335 15.6476 4.09748 -17.813 16.2973 4.90033 -18.0658 16.8006 
5.70764 -18.6412 17.1133 
LINES 1 65
64 0 1 2 3 4 5 6 7 8 9 10 11 12 13 14 15 16 17 18 19 20 21 22 23 24 25 26 27 28 29 30 31 32 33 34 35 36 37 38 39 40 41 42 43 44 45 46 47 48 49 50 51 52 53 54 55 56 57 58 59 60 61 62 63 

CELL_DATA 1
FIELD FieldData 2
Length 1 1 double
63.872745998 
Tortuosity 1 1 double
1.4622295682 
POINT_DATA 64
SCALARS MaximumInscribedSphereRadius float
LOOKUP_TABLE default
0.62 0.62 0.653856 0.811929 1.12189 1.55777 1.50531 1.3144 1.31058 
1.2741 1.32006 1.46765 1.3769 1.22303 1.1319 0.840978 0.708735 0.919441 
1.12716 1.24877 1.25142 1.24006 1.25103 1.37563 1.56531 1.61104 1.71173 
2.07592 2.02916 1.82963 1.4976 1.32851 1.47932 1.68204 1.84496 1.86315 
2.00029 2.10808 1.9619 1.86551 1.86 1.86 1.86 1.86821 1.96999 
2.14128 2.178 2.06088 1.88602 2.28725 2.66231 1.99902 1.7139 2.0981 
2.07494 1.84938 1.90202 1.96427 1.99134 2.09553 1.99529 1.28466 1.4672 
2.17 
TEXTURE_COORDINATES TCoords 2 float
0 0 0.015873 0 0.031746 0 0.047619 0 0.0634921 
0 0.0793651 0 0.0952381 0 0.111111 0 0.126984 0 
0.142857 0 0.15873 0 0.174603 0 0.190476 0 0.206349 
0 0.222222 0 0.238095 0 0.253968 0 0.269841 0 
0.285714 0 0.301587 0 0.31746 0 0.333333 0 0.349206 
0 0.365079 0 0.380952 0 0.396825 0 0.412698 0 
0.428571 0 0.444444 0 0.460317 0 0.47619 0 0.492063 
0 0.507937 0 0.52381 0 0.539683 0 0.555556 0 
0.571429 0 0.587302 0 0.603175 0 0.619048 0 0.634921 
0 0.650794 0 0.666667 0 0.68254 0 0.698413 0 
0.714286 0 0.730159 0 0.746032 0 0.761905 0 0.777778 
0 0.793651 0 0.809524 0 0.825397 0 0.84127 0 
0.857143 0 0.873016 0 0.888889 0 0.904762 0 0.920635 
0 0.936508 0 0.952381 0 0.968254 0 0.984127 0 
1 0 
FIELD FieldData 7
Curvature 1 64 double
0 0.31994072939 0.38521091731 0.36938685606 0.21235588453 0.1088793463 0.063034266526 0.13959546453 0.25980305402 
0.28150010358 0.15460481976 0.025617304262 0.081737082916 0.19219649889 0.29634305007 0.33566222718 0.2952583045 0.21549208081 
0.147234563 0.10634125938 0.093510666796 0.10624944125 0.14884661738 0.28007916519 0.79069052052 1.004865039 0.4214343199 
0.1750718956 0.10466660642 0.063318109165 0.039954767861 0.066492468556 0.13863935786 0.22337899792 0.25825836036 0.21332197914 
0.14356224029 0.092704100892 0.070178779078 0.070680161354 0.079080805757 0.08724102197 0.097206729511 0.11929320303 0.16428763626 
0.23388089124 0.29488866788 0.29521301964 0.058921273324 0.13487267887 0.11390268518 0.086519075293 0.18027068913 0.24785051011 
0.18994125535 0.12846915627 0.075082501264 0.040260904482 0.054123990583 0.11041562374 0.22992592849 0.31365991413 0.37545087016 
0 
Torsion 1 64 double
0 0 0.0077327150933 0.019427545725 0.091968142041 0.44205034756 1.5570684227 0.36204015516 0.10594640868 
0.065316735367 0.102146125 1.5845952288 0.21684598404 0.14310340635 0.15686294112 0.1811365514 0.21072648415 0.26245576519 
0.34461329515 0.43601713842 0.44136478684 0.32458837003 0.20805749542 0.10223756942 0.008175917583 -0.017959701598 -0.085575408889 
-0.21281053311 -0.24503451528 -0.48348745751 -1.2920938905 -0.63863442548 -0.19568725486 -0.071432466732 -0.018710550976 0.034766764561 
0.14027397343 0.3336634258 0.4718412749 0.33053080935 0.1713764067 0.097642654717 0.072555160525 0.045053924881 0.01875507189 
-0.034309540956 -0.081608045499 -0.064609242957 -0.34195545518 0.38010707805 0.80837178452 0.90436689851 0.15996582984 0.043186050023 
0.059273252154 0.10793125206 0.30429774172 1.1141389 0.68345649766 0.20098745596 0.048617270213 0.022415775026 0 
0 
Abscissas 1 64 double
0 1.0401040363 2.0197877623 3.0411852232 4.0540698407 5.0686481823 6.0832255756 7.0977675578 8.1120344954 
9.1251192992 10.13957729 11.154164177 12.168776565 13.18320467 14.197191785 15.210632046 16.224088926 17.238080783 
18.252425176 19.266904249 20.281418329 21.295944153 22.310593061 23.323188764 24.348405371 25.327985794 26.341692068 
27.357468283 28.371749783 29.386253101 30.400858705 31.415450689 32.429992343 33.444333315 34.458216698 35.472163428 
36.486455902 37.500932916 38.515486412 39.5300467 40.544596388 41.5591271 42.573650242 43.588155362 44.602601505 
45.616957881 46.630567835 47.644765107 48.657861373 49.672744601 50.687576947 51.700858328 52.716703856 53.729259439 
54.74391824 55.758172065 56.772712757 57.787296286 58.801846156 59.816729114 60.829387504 61.852505375 62.833215071 
63.872779418 
ParallelTransportNormals 3 64 double
0.67789096666 0 0.73516245641 0.43565642738 -0.039933112996 0.89922679218 0.10929614926 -0.12349985846 0.98630732367 
-0.20871872906 -0.23296768664 0.94982237767 -0.37400490588 -0.30387026723 0.87623238417 -0.44212878448 -0.33857374392 0.83059614607 
-0.43819300318 -0.33619950697 0.83364068008 -0.35773947295 -0.27745886248 0.8916496224 -0.19067053163 -0.12804611612 0.97326714756 
-0.0084862010556 0.065118971258 0.99784142226 0.089522934825 0.17991259223 0.97960048147 0.10567651847 0.19928322744 0.97422721616 
0.054636112365 0.13945188925 0.98872041842 -0.071914177838 -0.0042428871939 0.99740179914 -0.26111698417 -0.22138557296 0.9395777502 
-0.43229113171 -0.44595702414 0.78373892979 -0.51845186959 -0.61196815027 0.59724588067 -0.53607643534 -0.70671033391 0.46171696895 
-0.53031352002 -0.75077691221 0.39382940288 -0.52623293642 -0.76231607647 0.37676663358 -0.53239632387 -0.74923898557 0.39394808901 
-0.55238893418 -0.70971933935 0.43722411272 -0.59148936074 -0.62812074126 0.50557360544 -0.66904724149 -0.43075961532 0.60565827202 
-0.79175111318 0.1603699462 0.58941636823 -0.72733823018 0.679071439 0.099202216011 -0.63047065368 0.74386015041 -0.22176300748 
-0.58879225001 0.73052308078 -0.34591865341 -0.56934140985 0.71501518528 -0.4057137462 -0.56358332926 0.7082557633 -0.42514421639 
-0.56795815676 0.71479162817 -0.40803977805 -0.58098649822 0.73685695476 -0.34568268268 -0.60123791991 0.76804954109 -0.22048325581 
-0.62449696047 0.78057436169 -0.026593462334 -0.64284454559 0.74256029296 0.18802952299 -0.65187445704 0.66997871684 0.35522980061 
-0.65372739581 0.59816250141 0.46351064051 -0.65134458197 0.53942294825 0.53364137625 -0.64603826594 0.49161772306 0.58390630525 
-0.63797315247 0.45074856081 0.62435245788 -0.62694599408 0.41442019825 0.65969282229 -0.61268286844 0.38133185391 0.69224686342 
-0.594651512 0.35058967047 0.72351673252 -0.57014246351 0.31983359829 0.75673247631 -0.53109161274 0.28572561144 0.79768576134 
-0.46469956007 0.2508843173 0.84918277079 -0.35121015302 0.22612900832 0.90857971583 -0.19772962848 0.2299159042 0.9529122053 
-0.16211767581 0.23514502809 0.95834475788 -0.2276675778 0.22759129023 0.94676801733 -0.1400944419 0.2291194062 0.96326416162 
-0.053165519314 0.22569231782 0.97274683512 -0.20857748227 0.2237163185 0.95207480942 -0.41791375623 0.18995135155 0.88840676292 
-0.56734756905 0.14093889223 0.81132790199 -0.66043626702 0.097163521266 0.74456912865 -0.71218857114 0.06771351055 0.69871476271 
-0.73603913764 0.053300036369 0.67483738337 -0.73650340814 0.053040537191 0.67435111864 -0.71071225904 0.063917338094 0.70057309308 
-0.63442762296 0.077029239526 0.76913463547 -0.51669164495 0.059433970249 0.85410616859 -0.37044959925 -0.014948535856 0.92873227342 
-0.37044959925 -0.014948535856 0.92873227342 
FrenetTangent 3 64 double
-0.81800585431 -0.13365905895 0.55946552911 -0.81800585431 -0.13365905895 0.55946552911 -0.9386349975 -0.24122666524 0.24652390846 
-0.9401665618 -0.32344550775 -0.10709733698 -0.85052671547 -0.36487796874 -0.37877219303 -0.76510776888 -0.3897549926 -0.5125438008 
-0.71386983916 -0.43063730941 -0.55221495859 -0.69792637878 -0.50956478115 -0.50323205742 -0.70040518944 -0.62634582368 -0.34223307814 
-0.68319587795 -0.72440899932 -0.092059730893 -0.64462682504 -0.75502424217 0.11997770699 -0.62639404361 -0.75114352055 0.20836005774 
-0.63825626483 -0.74818511572 0.18124009773 -0.66024734939 -0.74968004325 0.04531302662 -0.64407913688 -0.73920784473 -0.19680911494 
-0.53073102976 -0.69630827157 -0.48319702504 -0.32618608274 -0.62851939985 -0.70609206442 -0.10597681798 -0.56971241794 -0.81498262245 
0.071023916015 -0.54310434988 -0.83665600368 0.19431787466 -0.54952988009 -0.8125622896 0.2744820545 -0.58236791199 -0.76518443322 
0.32290670254 -0.63821377861 -0.69886653536 0.3447866376 -0.71954959416 -0.60280225288 0.33062528705 -0.84210060441 -0.4260909429 
0.20601665164 -0.97836533349 0.018931811214 -0.09283748442 -0.71866454612 0.68913167946 -0.28371677054 -0.18953739386 0.93998955869 
-0.31659488082 0.10122954575 0.94314381751 -0.30034948203 0.23948961714 0.92327401779 -0.26951890541 0.31641075212 0.90952943634 
-0.23235994799 0.34715953282 0.90856431437 -0.19324517488 0.32731863461 0.92494260029 -0.15509412224 0.23884215876 0.95859284185 
-0.11887898639 0.064003936385 0.99084372265 -0.083841068217 -0.17379940583 0.98120560629 -0.049488521694 -0.39774257054 0.91616141253 
-0.014282641995 -0.55267141314 0.83327685389 0.02605155739 -0.64186256703 0.76637703606 0.076288593554 -0.68714288533 0.72250585163 
0.13891561469 -0.70389777507 0.69658479329 0.21257790166 -0.70042047222 0.6813382404 0.29372715362 -0.68138440456 0.67040260475 
0.38029948283 -0.64839010766 0.65951692294 0.47609712357 -0.59746636776 0.64526387496 0.59104222601 -0.51621373818 0.61983260934 
0.72987589467 -0.38310295231 0.56613894612 0.86991101518 -0.18973096465 0.45525485909 0.96043707288 0.023635209871 0.27749235286 
0.9783046943 0.14370357083 0.14922871319 0.97847939118 0.11279074957 0.17278983722 0.98256759961 0.017187128075 0.18510946715 
0.9933433032 -0.039168128137 0.1083279268 0.99120714601 0.012474934928 0.13172991195 0.9454989175 0.15256156812 0.28767475547 
0.8532377831 0.27985158828 0.44007769091 0.75909072867 0.35697620751 0.54437969555 0.68860469593 0.39182930145 0.61015848045 
0.64991392305 0.39275920622 0.65065513027 0.64425085376 0.36009391604 0.6747393638 0.67241604851 0.28364340586 0.68366883506 
0.73794479137 0.12624993168 0.66294678492 0.80447464385 -0.11731574468 0.58228649603 0.8107358795 -0.41700875181 0.41086620036 
0.8107358795 -0.41700875181 0.41086620036 
FrenetNormal 3 64 double
-0.49515525348 -0.33134845373 -0.80313727168 -0.49515525348 -0.33134845373 -0.80313727168 -0.17924232437 -0.26950121308 -0.94617191107 
0.17095734365 -0.17592904126 -0.969444459 0.44613385937 -0.11915912407 -0.88699813003 0.62329023903 -0.24850643403 -0.74145386248 
0.50462419881 -0.86309039039 0.020721872298 0.016938774586 -0.71422031444 0.69971595692 0.0037185520647 -0.48268468805 0.875786312 
0.12538781839 -0.24057100299 0.96249856494 0.20899904135 -0.023086660044 0.97764329223 0.0026372933956 0.26525368184 0.96417505099 
-0.27550738333 0.0021636865975 -0.96129652043 -0.083388480684 0.013213352168 -0.99642951011 0.19143181196 0.093338601898 -0.97705770902 
0.5169555536 0.18582899403 -0.83559831294 0.78666342067 0.23370698628 -0.57143827939 0.94559063243 0.19580912931 -0.25984060643 
0.99740003296 0.048924969001 0.052910506226 0.9136525769 -0.20011262203 0.35382751056 0.65491654669 -0.46943896361 0.59220889584 
0.32131762222 -0.62063769404 0.71523691067 0.054841241911 -0.62564186942 0.77818037074 -0.14633635229 -0.49176418108 0.85834355721 
-0.33305451554 -0.051914047549 0.94147736104 -0.37476712198 0.6664438302 0.64451704824 -0.19586394146 0.97105852538 0.13668451533 
0.027587581044 0.99485124971 -0.097518799839 0.24550714796 0.95476286982 -0.16779184342 0.54703246623 0.82760350291 -0.12580907304 
0.96325067944 0.21155049292 0.16551289227 0.5835512892 -0.71950483712 0.37653775672 0.26811442782 -0.92373815374 0.27353697541 
0.15932871706 -0.98375877592 0.082662148053 0.13330919237 -0.97777757561 -0.16180133457 0.15684624432 -0.90899900287 -0.38616067695 
0.25113229911 -0.80863212587 -0.53202129032 0.47054661825 -0.66852270635 -0.57590213678 0.79144760158 -0.39900269016 -0.46304162577 
0.96193322997 -0.071252079535 -0.26383252687 0.97714328708 0.15328815601 -0.1472879416 0.94858312437 0.29432371434 -0.11646290109 
0.90469239722 0.40891798814 -0.11965678164 0.84417976187 0.51607140186 -0.14502012907 0.75989448598 0.61410551978 -0.21315435899 
0.62416678707 0.71120909407 -0.32341528478 0.42813889616 0.74873513338 -0.50605610917 0.18400140258 0.69409425835 -0.69597172671 
0.028033058039 0.62186753168 -0.78262054708 -0.036685080184 -0.72895616755 0.68357670432 0.12576739888 -0.79473147701 -0.5937882121 
0.095910564985 -0.23961914726 -0.96611791609 -0.10440195692 0.68537040111 0.72067166218 -0.31827199217 0.61966740127 0.71743658312 
-0.51950150473 0.53028641056 0.67001082779 -0.65098484046 0.41632958366 0.63473491732 -0.71386657915 0.21853041924 0.6653111776 
-0.54758705377 -0.35168543185 0.75925343303 0.19710786449 -0.93059863353 0.30843909129 0.39393197312 -0.91911922284 -0.0061200303072 
0.34112651822 -0.91738904672 -0.20501228143 0.15384901516 -0.90569465634 -0.39502869517 -0.11907489666 -0.80463746525 -0.58170415032 
-0.11907489666 -0.80463746525 -0.58170415032 
FrenetBinormal 3 64 double
0.29272460993 -0.93399328593 0.20486298976 0.29272460993 -0.93399328593 0.20486298976 0.29468038724 -0.93229758775 0.20972524229 
0.29472092347 -0.92974834012 0.22069798667 0.27851191322 -0.92339870645 0.26413243481 0.16161491246 -0.88675565856 0.43306468579 
-0.48553503552 -0.26386831141 0.8334442054 -0.71596916674 0.4798260896 0.50710460067 -0.71373576552 0.61213266624 0.34040395993 
-0.71938952408 0.64603188328 0.25518918165 -0.73537450129 0.65529031724 0.17268162317 -0.77950211469 0.60450301555 -0.16417234051 
0.71883560161 -0.6634865116 -0.20751151 0.74640458125 -0.66166852735 -0.071238760551 0.74061861089 -0.6669780114 0.081390450987 
0.67162603409 -0.69326933866 0.26133521464 0.52417869282 -0.74185201259 0.41820125467 0.30761545787 -0.79817701403 0.51796349712 
0.012197442959 -0.838238637 0.54516713935 -0.35704275979 -0.81115463963 0.46319393162 -0.70409084543 -0.66368266101 0.25254981063 
-0.89021696631 -0.45551292575 0.004661262556 -0.93707769834 -0.30136461765 -0.17625196314 -0.93234789192 -0.22143749066 -0.28581960424 
-0.92012598536 -0.20026533873 -0.33654415041 -0.92245910791 -0.19842855475 -0.33120281232 -0.93869170155 -0.14533037062 -0.31262912984 
-0.94815958931 -0.0048548963119 -0.31775749114 -0.92169215519 0.17627417763 -0.34555894628 -0.79253709094 0.46363420702 -0.39614174429 
-0.1347478502 0.91363376017 -0.38355751739 0.78874849937 0.61251555148 -0.051966373128 0.95082094363 0.29943654841 0.079229329403 
0.98004191059 0.16769665151 0.10675058107 0.9875218147 0.11723813019 0.10514697484 0.98638235075 0.1245859557 0.10736944527 
0.96784739214 0.20166406249 0.15034304579 0.88199047411 0.37561927019 0.28461020264 0.60645753721 0.60715031779 0.51339823448 
0.23534424375 0.70671851781 0.66720463392 -0.00127759288 0.6970752494 0.71699683711 -0.11795938022 0.67014091384 0.73280061423 
-0.19210405974 0.6421653582 0.74210490024 -0.24635758275 0.61376237062 0.75006912604 -0.27060941827 0.59699060889 0.75523026664 
-0.27874181656 0.58941814737 0.75821451269 -0.24485079389 0.63513609651 0.73256414575 -0.20905528668 0.71949603014 0.66228494602 
-0.20526585874 0.76982469224 0.60434747493 0.2030573464 -0.6752045265 -0.70913084933 0.13690680619 0.60671779443 -0.78303898009 
0.063798475777 0.97007655471 -0.23426743795 -0.0812934505 -0.72808776207 0.68064644686 -0.068809417993 -0.76989433024 0.63445093133 
-0.045863624763 -0.80029957598 0.59784372257 -5.6108442076e-05 -0.83620432015 0.54841802652 0.12735022543 -0.89370814833 0.43019491593 
0.52702970615 -0.84973970306 -0.013495402116 0.73897857018 -0.065715712806 -0.67051630696 0.62663726211 0.27343421975 -0.72976672246 
0.58229733252 0.37743647375 -0.72004966831 0.57371685346 0.40737477282 -0.71055947431 0.57317405966 0.42268457557 -0.7020037371 
0.57317405966 0.42268457557 -0.7020037371 
