# vtk DataFile Version 4.2
vtk output
ASCII
DATASET POLYDATA
POINTS 64 float
0 0 0 -0.935766 0.348623 0.291506 -1.84913 0.49545 0.612564 
-2.80761 0.436395 0.972748 -3.70292 0.118675 1.3193 -4.5053 -0.426757 1.61558 
-5.1899 -1.14326 1.83126 -5.76487 -1.9696 1.95585 -6.2487 -2.86068 1.98714 
-6.65813 -3.7865 1.92114 -7.00037 -4.72492 1.74409 -7.26579 -5.65111 1.42693 
-7.41722 -6.52121 0.928627 -7.39536 -7.26619 0.241789 -7.17795 -7.85256 -0.556424 
-6.80462 -8.33124 -1.36915 -6.32852 -8.78321 -2.14267 -5.7948 -9.27832 -2.84911 
-5.24628 -9.87543 -3.45928 -4.74205 -10.6271 -3.91292 -4.38554 -11.5626 -4.07726 
-4.40503 -12.4688 -3.64397 -4.76686 -12.8083 -2.76051 -5.1672 -12.7512 -1.8327 
-5.52421 -12.5215 -0.910776 -5.80937 -12.2167 0.0138159 -5.99805 -11.9042 0.96036 
-6.05476 -11.6592 1.94291 -5.93803 -11.5899 2.94747 -5.64712 -11.8022 3.89456 
-5.26067 -12.2929 4.69314 -4.86399 -12.9741 5.33135 -4.4984 -13.7681 5.846 
-4.17461 -14.628 6.27622 -3.88802 -15.5258 6.65192 -3.62778 -16.4448 6.99425 
-3.37925 -17.3739 7.31727 -3.12607 -18.3052 7.63039 -2.85184 -19.2319 7.93932 
-2.54217 -20.1476 8.24755 -2.18491 -21.0447 8.55874 -1.76971 -21.9133 8.87885 
-1.28851 -22.7401 9.21673 -0.73706 -23.5088 9.58312 -0.117056 -24.2012 9.98967 
0.56286 -24.7993 10.4469 1.28904 -25.2868 10.9608 2.04754 -25.6515 11.5271 
2.82841 -25.889 12.1296 3.62727 -26.0048 12.7441 4.44463 -26.0153 13.3449 
5.28339 -25.9452 13.9114 6.14637 -25.8256 14.4313 7.03473 -25.692 14.9028 
7.94696 -25.5839 15.3335 8.87753 -25.5433 15.7356 9.81321 -25.6117 16.1215 
10.7295 -25.8219 16.5025 11.5935 -26.1843 16.8909 12.3733 -26.684 17.3057 
13.0393 -27.2895 17.7679 13.556 -27.9811 18.321 13.8816 -28.6729 18.9342 
13.9804 -29.3803 19.69 
LINES 1 65
64 0 1 2 3 4 5 6 7 8 9 10 11 12 13 14 15 16 17 18 19 20 21 22 23 24 25 26 27 28 29 30 31 32 33 34 35 36 37 38 39 40 41 42 43 44 45 46 47 48 49 50 51 52 53 54 55 56 57 58 59 60 61 62 63 

CELL_DATA 1
FIELD FieldData 2
Length 1 1 double
63.890554463 
Tortuosity 1 1 double
0.67996406536 
POINT_DATA 64
SCALARS MaximumInscribedSphereRadius float
LOOKUP_TABLE default
0.62 0.62 0.641034 0.755989 0.955274 1.24895 1.54018 1.68709 1.77312 
1.57477 1.38533 1.34941 1.40061 1.4856 1.49687 1.33972 1.30456 1.45898 
1.61837 1.79296 1.42606 1.0142 1.26178 1.59328 1.77516 1.68442 1.57066 
1.55 1.49783 1.35415 1.55911 1.98844 2.05334 1.90461 1.86135 1.85775 
1.77228 1.61998 1.46485 1.30793 1.42904 1.73394 1.67186 1.38542 1.3386 
1.49014 1.59 1.65051 1.74774 1.85737 1.87521 1.88265 1.98193 2.12426 
2.17998 2.19272 2.1948 2.19352 2.18277 2.17272 2.17 2.10557 1.84802 
1.55 
TEXTURE_COORDINATES TCoords 2 float
0 0 0.015873 0 0.031746 0 0.047619 0 0.0634921 
0 0.0793651 0 0.0952381 0 0.111111 0 0.126984 0 
0.142857 0 0.15873 0 0.174603 0 0.190476 0 0.206349 
0 0.222222 0 0.238095 0 0.253968 0 0.269841 0 
0.285714 0 0.301587 0 0.31746 0 0.333333 0 0.349206 
0 0.365079 0 0.380952 0 0.396825 0 0.412698 0 
0.428571 0 0.444444 0 0.460317 0 0.47619 0 0.492063 
0 0.507937 0 0.52381 0 0.539683 0 0.555556 0 
0.571429 0 0.587302 0 0.603175 0 0.619048 0 0.634921 
0 0.650794 0 0.666667 0 0.68254 0 0.698413 0 
0.714286 0 0.730159 0 0.746032 0 0.761905 0 0.777778 
0 0.793651 0 0.809524 0 0.825397 0 0.84127 0 
0.857143 0 0.873016 0 0.888889 0 0.904762 0 0.920635 
0 0.936508 0 0.952381 0 0.968254 0 0.984127 0 
1 0 
FIELD FieldData 7
Curvature 1 64 double
0 0.19402917468 0.2106257904 0.26114379228 0.24849908568 0.21918659007 0.17630139779 0.14223737902 0.1241964933 
0.12724041443 0.15671842602 0.21769266796 0.28289859817 0.27292363476 0.18639460664 0.11032731941 0.09582847385 0.1376732879 
0.22110962571 0.37612109876 0.79000831207 0.93335142703 0.40689071123 0.1746527988 0.10124171324 0.096665546911 0.14909605093 
0.24474313388 0.33643861296 0.32964825916 0.24608759882 0.16657236962 0.11207486395 0.074043473251 0.046179606759 0.024035861735 
0.010838144465 0.021325699109 0.036065515661 0.049754440453 0.06339437694 0.077956661676 0.093007118726 0.10734880701 0.11965144748 
0.12940906739 0.13410551597 0.13091027972 0.12054719187 0.10502882051 0.087782505025 0.070200056741 0.05485061274 0.052214301918 
0.073516691499 0.10750368752 0.13986240449 0.15758518356 0.15960325182 0.15920263841 0.18909166942 0.19602472948 0.26093892631 
0 
Torsion 1 64 double
0 0 -0.074254033442 -0.069190989361 -0.089920073186 -0.10087984309 -0.12764211557 -0.15836507317 -0.17788836712 
-0.14293069506 -0.052034129791 0.040256070084 0.096999582853 0.16283021233 0.33313537453 0.73612049934 0.79285509709 0.36563687605 
0.13547410104 -0.017060927806 -0.067560729075 -0.084989396368 -0.19860682932 -0.41625675255 -0.71932076679 -0.72634339195 -0.38611385182 
-0.21059286373 -0.14490784599 -0.1377899683 -0.15370014941 -0.16057080372 -0.1427580665 -0.10163325428 -0.019278639196 0.28761734859 
1.716754186 0.37086290752 0.11971839102 0.097488062781 0.10921139081 0.11485508071 0.11535762665 0.1131181727 0.098641094652 
0.055834892223 -0.0099721945251 -0.081089124494 -0.14978376713 -0.21495246856 -0.28325311989 -0.39251588423 -0.62090869709 -0.74635728349 
-0.41647300412 -0.21264123299 -0.14758511706 -0.15984444934 -0.20666421797 -0.26859927208 -0.19029940832 -0.16881697352 0 
0 
Abscissas 1 64 double
0 1.0402748323 2.019489969 3.0451217763 4.0563631791 5.0708093752 6.0849943352 7.0993685946 8.1138075836 
9.1282735132 10.142714768 11.157051357 12.171105173 13.184623344 14.198646507 15.213056249 16.227599306 17.242012982 
18.256768845 19.269241876 20.283699605 21.288373244 22.301637027 23.313747259 24.328730242 25.343145182 26.357647317 
27.371878793 28.385571535 29.398817595 30.412654018 31.426888334 32.441327709 33.455868195 34.470444986 35.485039523 
36.4996443 37.514248321 38.528847288 39.543431892 40.558005532 41.572558806 42.587090906 43.601594698 44.616071113 
45.630520475 46.644938865 47.659361845 48.673802056 49.688278232 50.702786342 51.717326824 52.731891094 53.74647429 
54.761047485 55.775570366 56.790014438 57.804384228 58.818661509 59.833505468 60.845281819 61.8705659 62.850652979 
63.890594326 
ParallelTransportNormals 3 64 double
0.29741908075 0 0.95474702953 0.330360944 -0.0087208496025 0.94381438507 0.35227890395 -0.0098050085609 0.93584370257 
0.36330025342 -0.0075535642428 0.93164149196 0.3537626002 -0.01240032674 0.93525304308 0.33066114991 -0.03200590166 0.94320667205 
0.30218340056 -0.066887791196 0.95090021338 0.27278253461 -0.11457731186 0.95522862626 0.24287185195 -0.17541571432 0.95406634502 
0.21081095731 -0.25493139487 0.94369948828 0.1754088338 -0.36356335492 0.91490624 0.14133748366 -0.51038705114 0.84825041924 
0.12852362936 -0.67017245396 0.73099285813 0.14779564613 -0.77742875467 0.61135994177 0.16793929888 -0.81374852136 0.55642585839 
0.16076186658 -0.80588467123 0.56982937703 0.12030975662 -0.76794595644 0.62911411561 0.046016958646 -0.69296931499 0.71949702432 
-0.067034841842 -0.54809623482 0.83372468319 -0.21948633693 -0.24935898559 0.94321039233 -0.33980177666 0.41162662369 0.84563483564 
-0.17878406696 0.94069952118 0.28830655257 -0.026783671714 0.99697847637 -0.07291469394 0.036807974818 0.97291377062 -0.22821912262 
0.060248237433 0.95340339186 -0.29562158629 0.061811230115 0.951367465 -0.30179350287 0.053788260773 0.9695985018 -0.23871650195 
0.058722952801 0.99541755458 -0.07546858183 0.11295354799 0.97638767898 0.18414286933 0.21059187138 0.87506428233 0.43579073591 
0.30120583367 0.739472977 0.60204215969 0.36359522994 0.6187285772 0.69640035649 0.40212478782 0.52628918606 0.74920981551 
0.42462807235 0.46148794981 0.77892225052 0.43710184374 0.42004535397 0.79530112461 0.44321998719 0.39782113329 0.8033021778 
0.44486016342 0.3917390957 0.80538184478 0.4428700748 0.39874983959 0.8030346582 0.43732560373 0.41624428168 0.7971743939 
0.42731642807 0.44345076784 0.78787821825 0.41062186298 0.4816126185 0.7742344421 0.38401862606 0.53192786339 0.75470685898 
0.34409649253 0.59360825494 0.72747978907 0.28812314492 0.66342226339 0.69054757534 0.21531310028 0.73570727999 0.64216436138 
0.12765686048 0.80338092275 0.58162085496 0.031156564961 0.85877153398 0.5114105209 -0.065412406003 0.89654704324 0.43809201818 
-0.1525470071 0.91603031245 0.37096883601 -0.22226925924 0.92148160005 0.31854047963 -0.26949062478 0.919784454 0.28525665871 
-0.29081664837 0.91740723589 0.27164248666 -0.28425999735 0.91835520349 0.27535427022 -0.24801358395 0.92322107083 0.29351680794 
-0.18049801314 0.9286694525 0.32402702859 -0.082857115653 0.92721397985 0.36525187743 0.036158320486 0.90931304518 0.41453873368 
0.15567920099 0.87087661724 0.46619513503 0.2524895044 0.8201042273 0.51349596544 0.31712097478 0.77068098769 0.5527070676 
0.35342518063 0.73091313145 0.58382928667 0.36740482047 0.70783625847 0.60330881735 0.36917509815 0.7020930541 0.60891304 
0.36917509815 0.7020930541 0.60891304 
FrenetTangent 3 64 double
-0.91997802696 0.24649597151 0.30476247464 -0.91997802696 0.24649597151 0.30476247464 -0.9387903376 0.044020487939 0.34166489236 
-0.91799091301 -0.18657778394 0.34997344781 -0.84458889776 -0.42941207741 0.31980441141 -0.73745896913 -0.62584924522 0.25390350748 
-0.62337657524 -0.76357174597 0.16840378319 -0.52323042853 -0.84870255796 0.077031725704 -0.44113655079 -0.89727627318 -0.017141561846 
-0.37124726456 -0.92074180619 -0.12004163815 -0.30045870201 -0.92196051731 -0.24436319874 -0.20674170689 -0.89089135821 -0.4044384434 
-0.064544775492 -0.80454551477 -0.59037317573 0.11911335163 -0.66277177846 -0.73928721018 0.29251629066 -0.52737966784 -0.79768722294 
0.4193085064 -0.45940138806 -0.78302665415 0.4982906153 -0.46733218619 -0.73027877585 0.53463329822 -0.53956381726 -0.65041380946 
0.52252361717 -0.66945569362 -0.52801339356 0.43203035352 -0.84683935621 -0.31018200851 0.17817621068 -0.97367120424 0.14218869149 
-0.20586332472 -0.67251631077 0.71087418245 -0.38390997327 -0.1422467193 0.91234807134 -0.37506596994 0.142033497 0.91605240239 
-0.31684799072 0.2637234724 0.91107479434 -0.23382107703 0.30461271021 0.92333027716 -0.12130154216 0.27558422454 0.95359282246 
0.029820745415 0.15615758237 0.98728189116 0.20393326052 -0.071540036743 0.97636737368 0.338663318 -0.35148293829 0.87279258769 
0.38909215075 -0.58224932457 0.71385784458 0.37708625409 -0.72976445069 0.57030676261 0.34031889562 -0.81646366695 0.46644413367 
0.30102049545 -0.86684289298 0.39745447565 0.26955606754 -0.89557829548 0.35394779716 0.25074398538 -0.91082394072 0.32791340749 
0.24725037689 -0.91683431302 0.31349975056 0.25992236496 -0.91567409556 0.30656372079 0.28779746613 -0.90809720591 0.30419086624 
0.32878335453 -0.89367542039 0.30536166881 0.38089079142 -0.87064514288 0.31128642789 0.44211495425 -0.83619112009 0.32452854716 
0.50949350219 -0.78719548393 0.34747610177 0.57821896593 -0.72118541349 0.38151595878 0.64188337934 -0.63723127098 0.42652319352 
0.6945291133 -0.5362228136 0.4796815662 0.73346803028 -0.42100826707 0.53364472041 0.76038936499 -0.29746334827 0.57734181387 
0.78003447234 -0.17445148662 0.60092670167 0.79770071544 -0.062336954874 0.59982303444 0.81701553566 0.0294029432 0.57586550637 
0.83918484376 0.093547951672 0.53574021572 0.86343378662 0.12483121735 0.48877322277 0.88767894797 0.11915611198 0.44477849129 
0.90881149771 0.073333609175 0.41071138698 0.92115786569 -0.013721544299 0.38894717598 0.91511998396 -0.13766494852 0.37895088984 
0.8803744849 -0.28315709272 0.38047710467 0.81276445 -0.42625916413 0.39713608979 0.71569564253 -0.54709281037 0.43413039988 
0.58323540212 -0.63965044282 0.5006833098 0.42202042895 -0.69312923932 0.58435487091 0.21188146167 -0.69854949115 0.68347264365 
0.21188146167 -0.69854949115 0.68347264365 
FrenetNormal 3 64 double
-0.17382920509 -0.95344518209 0.24642583509 -0.17382920509 -0.95344518209 0.24642583509 -0.0062735557336 -0.99382210393 0.11080734744 
0.18728772797 -0.98177901698 -0.032144498361 0.38105094087 -0.90168132499 -0.20437947212 0.52781488431 -0.76859512901 -0.36148717206 
0.60989121663 -0.60959466273 -0.50638626664 0.62616794032 -0.44419655974 -0.6407832136 0.58446800107 -0.27274829418 -0.76420254105 
0.51520902517 -0.096708512158 -0.85159093704 0.47913819217 0.075630444052 -0.87447505896 0.51494575476 0.2524031828 -0.81922127839 
0.60789505567 0.43747022253 -0.66263368892 0.71004468567 0.57731743962 -0.40316388512 0.81981505049 0.56773279434 -0.074717850791 
0.907481481 0.23646620056 0.34721909169 0.58620121291 -0.43900149135 0.68091543423 0.10367672712 -0.72195250788 0.68413135626 
-0.19198038733 -0.69575535308 0.69214739726 -0.39823545569 -0.48772245037 0.77687536532 -0.52946527772 0.026933359662 0.84790395318 
-0.42521088126 0.71574641492 0.55398806485 -0.097171245392 0.98880025229 0.11327758008 0.24943676691 0.96720885081 -0.047836578314 
0.68946709001 0.72368303982 0.03029834447 0.97227031392 0.077414908335 0.2206748029 0.86492742431 -0.44200706624 0.23776102302 
0.69980523286 -0.70852280428 0.090928938621 0.51856135757 -0.83802794905 -0.1697152764 0.28919001345 -0.84382387345 -0.45202921003 
0.04039703102 -0.76339257887 -0.64467034243 -0.18298584922 -0.66232786827 -0.72652458589 -0.36414877648 -0.57178098254 -0.73516132692 
-0.4887154157 -0.49812331826 -0.71626140638 -0.55501587747 -0.4448492457 -0.70289865867 -0.47265362125 -0.4108034133 -0.77964037219 
0.41538552905 -0.19201263545 -0.88914903705 0.95928328037 0.20851760013 -0.19051508719 0.95490410213 0.29631497147 -0.018857184634 
0.93029293958 0.36216150881 0.05825880284 0.88868711299 0.43766073522 0.13670514272 0.82381453202 0.52165844683 0.22181542257 
0.73567071335 0.60795933676 0.29862023769 0.62268765031 0.69222997271 0.3647982388 0.48845088991 0.76857110364 0.41317573354 
0.34883858165 0.83408983007 0.42732399808 0.23544731348 0.89384904586 0.38157364399 0.16636773678 0.94849826313 0.26957896987 
0.14545951936 0.98459586359 0.097018109749 0.17181121094 0.9769140122 -0.12696424915 0.23640506339 0.89382399406 -0.3810397796 
0.33571362763 0.68589909531 -0.64563053775 0.44980163791 0.2481440482 -0.8579644619 0.4443708038 -0.47481193174 -0.75966322684 
0.24304118832 -0.89320288903 -0.37831148517 0.047144154795 -0.98808491015 -0.14651156608 -0.13489118678 -0.99027687265 -0.034001223803 
-0.32390334311 -0.94496071839 0.046215419744 -0.51876502662 -0.83974187788 0.16036341756 -0.68747350347 -0.66143414134 0.29980836994 
-0.80861290268 -0.3984975839 0.43283351215 -0.88123067655 -0.16225493418 0.44396602465 -0.91618815221 0.10143584338 0.38769838719 
-0.91618815221 0.10143584338 0.38769838719 
FrenetBinormal 3 64 double
0.35131728875 0.17372973485 0.91999681622 0.35131728875 0.17372973485 0.91999681622 0.34443191566 0.10188141336 0.93326675344 
0.34959403683 0.036037374492 0.93620794541 0.37612467912 -0.050754861223 0.92517791252 0.42138547288 -0.13256790683 0.89713991848 
0.48932029317 -0.21296134843 0.84570273428 0.57805158003 -0.28704247842 0.76384748897 0.68102547624 -0.34713636745 0.64474851152 
0.77248632929 -0.37799734128 0.510277259 0.82471277497 -0.37982738243 0.41902267046 0.83191870774 -0.37763106491 0.40657845803 
0.79138964692 -0.40165447721 0.46084282319 0.69400904448 -0.47690475316 0.5393637943 0.49227787142 -0.63209980239 0.5984248801 
0.02564640516 -0.8561741065 0.51605054138 -0.63880717019 -0.76738407486 0.055200371137 -0.83870040699 -0.43319217845 -0.33003963979 
-0.83073016099 -0.26029514582 -0.49207096712 -0.80917136347 -0.21210826522 -0.54795235957 -0.82940928234 -0.22636028843 -0.5107262106 
-0.88137165713 -0.1882256127 -0.4333071898 -0.91824336725 -0.045165605581 -0.39343256929 -0.8928083879 0.21055527693 -0.39819550205 
-0.65133899206 0.6377560568 -0.41112617216 -0.0042591789829 0.94932503851 -0.31426713263 0.487017953 0.85362936253 -0.18474421473 
0.71371097736 0.68819346501 -0.13040857146 0.8303645848 0.54091698046 -0.13380387348 0.895363777 0.40548861228 -0.18412683714 
0.92031265237 0.27967390755 -0.27350891635 0.90792187768 0.16960436732 -0.38329130256 0.86693639783 0.080334230307 -0.49190211787 
0.8188674519 0.021367234132 -0.57358481284 0.78695419321 -0.0069760489083 -0.61697198683 0.8448230632 0.04050067458 -0.53351071896 
0.87539825987 0.35006569427 0.33336450968 0.11052579881 0.34360058375 0.9325892379 -0.073012151176 0.29590015596 0.95242444502 
-0.16265470283 0.26492127989 0.95045260961 -0.25525951541 0.22456650692 0.94043206228 -0.35477314451 0.1692834178 0.91949939662 
-0.4463238429 0.10348292093 0.88886799489 -0.52718395043 0.026632015518 0.84933374957 -0.5911018994 -0.056875002661 0.80458919866 
-0.62923839261 -0.12945752028 0.76635487583 -0.63764348278 -0.15422685329 0.75473496447 -0.62779757069 -0.10893393079 0.77071629602 
-0.60859489826 0.011733039152 0.79339434432 -0.57806096252 0.20433579428 0.78999519416 -0.52592609794 0.44745294118 0.72331708464 
-0.42786114363 0.72165865323 0.54419080292 -0.22838691437 0.96064650029 0.15810666914 0.12066761812 0.8719836297 -0.4744300533 
0.3391056508 0.44363361099 -0.82957614285 0.38632320038 0.15329686738 -0.90953529635 0.3799470788 -0.020001935881 -0.9247919441 
0.34644969426 -0.16392468253 -0.92363483466 0.26513542948 -0.33635799907 -0.90364069214 0.12312566459 -0.51302469094 -0.84949734385 
-0.077341058459 -0.65730281198 -0.74964749986 -0.21291137183 -0.7023141704 -0.67928164542 -0.34015513513 -0.70833563944 -0.61851039276 
-0.34015513513 -0.70833563944 -0.61851039276 
