# vtk DataFile Version 4.2
vtk output
ASCII
DATASET POLYDATA
POINTS 64 float
0 0 0 -0.635772 0.153178 0.81955 -1.32718 0.308656 1.48853 
-2.13377 0.461457 2.09425 -3.01823 0.581607 2.57606 -3.97094 0.643916 2.91722 
-4.96785 0.622138 3.10119 -5.97355 0.496165 3.13091 -6.95489 0.258997 3.03474 
-7.89202 -0.083195 2.85166 -8.77859 -0.515314 2.61438 -9.61623 -1.01837 2.3415 
-10.4091 -1.57156 2.03388 -11.1578 -2.15278 1.67236 -11.85 -2.74074 1.22059 
-12.4499 -3.31786 0.641661 -12.9006 -3.87537 -0.0750469 -13.1488 -4.41387 -0.897123 
-13.1756 -4.94184 -1.76214 -13.002 -5.47263 -2.60845 -12.664 -6.02121 -3.39154 
-12.1937 -6.60332 -4.07591 -11.6176 -7.23853 -4.61695 -10.9687 -7.95095 -4.92399 
-10.3694 -8.73078 -4.71548 -10.2743 -9.16271 -3.81805 -10.5693 -9.17222 -2.84882 
-10.9847 -9.00966 -1.9381 -11.4416 -8.76136 -1.06696 -11.8965 -8.47892 -0.205175 
-12.3081 -8.22196 0.685672 -12.6095 -8.10673 1.64666 -12.6882 -8.34876 2.62184 
-12.5551 -8.9698 3.40994 -12.3468 -9.76803 3.99944 -12.1279 -10.6395 4.47043 
-11.9149 -11.5462 4.87255 -11.7049 -12.4701 5.23549 -11.4849 -13.3993 5.57842 
-11.2355 -14.3235 5.91466 -10.932 -15.2302 6.25378 -10.5474 -16.1011 6.60402 
-10.056 -16.9074 6.97412 -9.44075 -17.6068 7.37472 -8.70571 -18.1487 7.81492 
-7.88296 -18.4967 8.2942 -7.01875 -18.6537 8.8009 -6.14759 -18.6593 9.32043 
-5.28318 -18.5654 9.84314 -4.42593 -18.4209 10.3663 -3.57176 -18.272 10.8932 
-2.71922 -18.165 11.4326 -1.87638 -18.1504 11.9968 -1.07017 -18.285 12.5968 
-0.355972 -18.623 13.2312 0.193056 -19.1833 13.8723 0.539035 -19.92 14.4762 
0.708023 -20.7608 15.0174 0.754462 -21.654 15.4959 0.734334 -22.573 15.9252 
0.708667 -23.5035 16.329 0.769548 -24.4266 16.748 1.08401 -25.2342 17.2321 
1.91782 -25.4966 17.7801 
LINES 1 65
64 0 1 2 3 4 5 6 7 8 9 10 11 12 13 14 15 16 17 18 19 20 21 22 23 24 25 26 27 28 29 30 31 32 33 34 35 36 37 38 39 40 41 42 43 44 45 46 47 48 49 50 51 52 53 54 55 56 57 58 59 60 61 62 63 

CELL_DATA 1
FIELD FieldData 2
Length 1 1 double
63.856826126 
Tortuosity 1 1 double
1.0504390271 
POINT_DATA 64
SCALARS MaximumInscribedSphereRadius float
LOOKUP_TABLE default
1.55 1.40302 1.28938 1.25394 1.24 1.24 1.24 1.26085 1.39175 
1.54862 1.55 1.55 1.55 1.55 1.54957 1.48049 1.40089 1.3888 
1.35911 1.27951 1.24 1.24 1.37377 1.69925 2.43129 2.43958 2.12925 
1.96746 2.30876 2.4786 2.48314 3.06128 2.96364 2.14016 1.95181 1.862 
1.86109 2.02624 2.33793 2.30526 2.0023 1.97003 2.14489 1.8545 1.69747 
1.99022 2.08672 1.92762 1.87513 1.84554 1.72494 1.56161 2.18168 2.65765 
2.59241 2.23116 1.68975 1.68009 1.8635 2.14666 2.46593 2.11253 2.07637 
2.48 
TEXTURE_COORDINATES TCoords 2 float
0 0 0.015873 0 0.031746 0 0.047619 0 0.0634921 
0 0.0793651 0 0.0952381 0 0.111111 0 0.126984 0 
0.142857 0 0.15873 0 0.174603 0 0.190476 0 0.206349 
0 0.222222 0 0.238095 0 0.253968 0 0.269841 0 
0.285714 0 0.301587 0 0.31746 0 0.333333 0 0.349206 
0 0.365079 0 0.380952 0 0.396825 0 0.412698 0 
0.428571 0 0.444444 0 0.460317 0 0.47619 0 0.492063 
0 0.507937 0 0.52381 0 0.539683 0 0.555556 0 
0.571429 0 0.587302 0 0.603175 0 0.619048 0 0.634921 
0 0.650794 0 0.666667 0 0.68254 0 0.698413 0 
0.714286 0 0.730159 0 0.746032 0 0.761905 0 0.777778 
0 0.793651 0 0.809524 0 0.825397 0 0.84127 0 
0.857143 0 0.873016 0 0.888889 0 0.904762 0 0.920635 
0 0.936508 0 0.952381 0 0.968254 0 0.984127 0 
1 0 
FIELD FieldData 7
Curvature 1 64 double
0 0.14005617078 0.1244074216 0.14557625228 0.16319195488 0.18013370494 0.18279009052 0.16620726577 0.14001411841 
0.11363523186 0.090794306889 0.073615080398 0.073082688775 0.10397025894 0.15406178329 0.20052843186 0.22581541711 0.22247440861 
0.19777272234 0.17348845758 0.1649280132 0.18231863399 0.25463602592 0.55054749693 1.1619006177 0.62306202684 0.21466343234 
0.10051718959 0.034455517022 0.056438968145 0.18914278386 0.43095776225 0.4902735947 0.27460111125 0.13647384053 0.075492441074 
0.041692245684 0.022333860652 0.029697673583 0.055355146912 0.086983197204 0.12332852578 0.16292767359 0.1982793083 0.21296337883 
0.19382369059 0.14871400574 0.097197756449 0.049678403071 0.0063593346594 0.042531100314 0.093652499539 0.15430819563 0.22260881907 
0.27499310336 0.26929129 0.21126346289 0.14394795412 0.084406066788 0.027706934423 0.085733976221 0.2887326168 0.85560926495 
0 
Torsion 1 64 double
0 0 0.15534808945 0.11584268812 0.11375124951 0.11098842894 0.1271280411 0.15054326585 0.15489701746 
0.11399610135 -0.0041419503342 -0.25254623558 -0.41269155618 -0.16217437781 0.034435405342 0.12103943417 0.15841775035 0.17982094526 
0.20415372444 0.22916508673 0.24946677143 0.25866348912 0.24746687398 0.10113719026 0.026223545377 0.0021863949736 -0.074056772465 
-0.19632857865 -1.3697534392 -0.81964291756 -0.22226343421 -0.1088446099 -0.10132127003 -0.16395356142 -0.19221379741 -0.1110277982 
0.15226344128 1.0104921584 0.57860052983 0.15967918961 0.085290176345 0.082299037512 0.089100287135 0.083066674597 0.066840768457 
0.04757499812 0.027263957718 0.014187552988 0.059718606515 5.5173157375 0.053168641044 -0.043130200086 -0.049781512146 -0.037631129137 
-0.019391617917 0.00040016073133 0.026238976898 0.069367671976 0.20209730594 2.3493234362 0.46881991248 0.11932432076 0 
0 
Abscissas 1 64 double
0 1.0484897591 2.023039034 3.0432542569 4.0575711018 5.0714398843 6.0854156328 7.0994184861 8.1135764457 
9.1278899266 10.142298385 11.156780831 12.171299736 13.185786165 14.200094651 15.214075273 16.227788736 17.241384909 
18.255152886 19.269123741 20.283214063 21.297295641 22.311269259 23.32267079 24.328029848 25.328518849 26.341683728 
27.355785078 28.37030213 29.384910018 30.399317101 31.413035108 32.420872427 33.433046328 34.446991757 35.461445759 
36.475995091 37.49058376 38.505181354 39.519754437 40.534273639 41.548673899 42.562889548 43.576883271 44.590633172 
45.604409123 46.6184277 47.632758545 48.64727552 49.661868726 50.676469834 51.690989949 52.705338914 53.719298934 
54.732658471 55.745705554 56.759193404 57.77325753 58.78762099 59.802135416 60.816770295 61.832362881 62.825085492 
63.85680559 
ParallelTransportNormals 3 64 double
0 -0.98297794607 0.18372359004 -0.02030271255 -0.97826217057 0.20637569018 -0.026278519115 -0.97702997222 0.21147546622 
-0.019898053673 -0.97805934491 0.20737402269 0.0059738393594 -0.9806286265 0.19578511213 0.055131617077 -0.98165068865 0.18254432411 
0.12745854696 -0.97631450257 0.17482651653 0.21468313301 -0.96037418688 0.17774299866 0.3036187425 -0.93351690202 0.19068784134 
0.38271881026 -0.89993261682 0.20892007435 0.44578413752 -0.86572738498 0.22757987089 0.48978321606 -0.83722419634 0.24324482794 
0.51373219138 -0.8196011183 0.25363998584 0.52197648387 -0.81291148818 0.25829336554 0.52605505488 -0.80923374349 0.26154698934 
0.53980060767 -0.79438899201 0.2784985338 0.56214520841 -0.75934604866 0.32769855514 0.57601503598 -0.70556276182 0.41278065295 
0.56698640303 -0.64045041686 0.5180247893 0.53257544379 -0.56784978684 0.62762251096 0.47263573427 -0.4839939434 0.73645456441 
0.37960752921 -0.37576913994 0.84539675729 0.22492147352 -0.20560681394 0.95243696317 -0.1008392296 0.1839417184 0.97775093659 
-0.44606794424 0.78708160226 0.42605861159 -0.38939946588 0.91453385406 -0.10952573098 -0.31575082958 0.89867393086 -0.30444470698 
-0.27233638492 0.87822505824 -0.3931331079 -0.25764822661 0.86967529868 -0.42104900687 -0.27685337907 0.88163039639 -0.3822042002 
-0.3406328645 0.91492194956 -0.21653424169 -0.41963636304 0.88830366567 0.18660632459 -0.40678644513 0.68287176057 0.60680387826 
-0.3607154128 0.49132501258 0.79276990544 -0.33282296251 0.38230829763 0.86201464094 -0.31792038785 0.32094951262 0.89214238625 
-0.3097993423 0.28580904129 0.90682829655 -0.30505067194 0.26534376991 0.91462384144 -0.3019118288 0.25294823868 0.91916616353 
-0.29941854087 0.24469189968 0.92221169566 -0.29765592383 0.24013869277 0.92397746685 -0.29853824476 0.24182788207 0.92325196554 
-0.30777289408 0.2543925714 0.91682073782 -0.33398117835 0.27848497338 0.90050135597 -0.37990165457 0.30471680784 0.87339704595 
-0.43489595577 0.32118046817 0.84125419139 -0.48273994329 0.32566314623 0.81296104602 -0.51505987393 0.32401812339 0.79355250739 
-0.53212688528 0.32165527602 0.78318507479 -0.53713332201 0.3207972055 0.78011341953 -0.53482576298 0.32114323982 0.78155513099 
-0.53058678131 0.32144740925 0.78431449724 -0.53024027142 0.32142218767 0.78455913214 -0.53804018622 0.32384745872 0.77822591932 
-0.55186920668 0.33368219459 0.76426210931 -0.56285562166 0.34960169407 0.74898077724 -0.56699241017 0.36227224066 0.73978269138 
-0.56741634141 0.36568415177 0.73777625108 -0.56731490715 0.35869882817 0.74127521663 -0.56775693804 0.34084684558 0.74931668016 
-0.56715517696 0.30913491831 0.76339413642 -0.55582975135 0.25735065998 0.79045804779 -0.49392177826 0.19858310738 0.84652585691 
-0.49392177826 0.19858310738 0.84652585691 
FrenetTangent 3 64 double
-0.65766507766 0.152950069 0.73761976792 -0.65766507766 0.152950069 0.73761976792 -0.75240247725 0.15483991913 0.64024613366 
-0.83343678047 0.13452434436 0.53599098289 -0.90889281592 0.090266910612 0.40714338263 -0.96539238797 0.020069732462 0.26002835056 
-0.99169000682 -0.073166124929 0.10581894221 -0.98317548998 -0.17968004577 -0.032879128046 -0.9481396637 -0.28632925915 -0.13800990355 
-0.90042611849 -0.38230501905 -0.20754680808 -0.85072649351 -0.4614161119 -0.25171333877 -0.80415390519 -0.52093191977 -0.28629780251 
-0.76030113751 -0.5594902559 -0.33001944467 -0.71120979025 -0.57709197355 -0.40142930675 -0.63895904768 -0.5761460624 -0.50969309409 
-0.52077459036 -0.56242758992 -0.64223752003 -0.34696282552 -0.54410444223 -0.76391567183 -0.13649234731 -0.52932805641 -0.83736589841 
0.072755682041 -0.52473294543 -0.84815207759 0.25322664302 -0.53425524449 -0.80650331741 0.39991100764 -0.55941532364 -0.72603421521 
0.51814327468 -0.60277779599 -0.60678371399 0.60976424104 -0.67080570008 -0.42214604475 0.6407754233 -0.76606030986 -0.050581207559 
0.38978951527 -0.6801999203 0.6207996474 -0.10365361915 -0.22889939339 0.96791579951 -0.35246584314 0.075936095331 0.93273873022 
-0.43054960459 0.20279216677 0.87948983796 -0.44942454202 0.26160082623 0.85415606815 -0.42723135443 0.26595344718 0.86414242676 
-0.3531527968 0.18434742736 0.91722359768 -0.19224214555 -0.064131039006 0.97924979822 0.027699360408 -0.43946136134 0.89783431507 
0.17009171215 -0.70710617574 0.68634515055 0.21110703664 -0.82510554145 0.52405597464 0.21302123834 -0.87702680149 0.43063434778 
0.20851513506 -0.90238216857 0.37713109167 0.21191927241 -0.91327478708 0.34787840587 0.23134927237 -0.9134705464 0.33473732243 
0.27259282949 -0.90267675925 0.33296819309 0.33947389953 -0.87697914143 0.34009565866 0.43266440424 -0.82838417939 0.35578246813 
0.54748566985 -0.7449043956 0.38128320539 0.6692270315 -0.61521029362 0.41671510043 0.7727305323 -0.44142852228 0.45610128718 
0.83588543288 -0.25022607944 0.4885513814 0.85797031546 -0.080389556356 0.50737013809 0.85648303091 0.043575342637 0.51433258431 
0.84873771123 0.11752531547 0.5155890784 0.84339483654 0.14458861205 0.51747394423 0.84131159852 0.12614395258 0.52562581503 
0.83657121306 0.060002117353 0.54456253212 0.81548977405 -0.059341990286 0.57572124905 0.75468356412 -0.23458356306 0.61271793672 
0.62929017573 -0.44749827133 0.63540473077 0.4456537845 -0.64581991391 0.61992688533 0.25541822472 -0.78242311881 0.56795738716 
0.10648338689 -0.85709836345 0.50402746322 0.012980041635 -0.89401604406 0.44784688396 -0.02257033913 -0.91153697266 0.41059825532 
0.017361196643 -0.91386096296 0.40565592467 0.18881276621 -0.87061206934 0.45429545897 0.61127956607 -0.56961152212 0.54943607997 
0.61127956607 -0.56961152212 0.54943607997 
FrenetNormal 3 64 double
-0.73302550409 0.09576439841 -0.67342615806 -0.73302550409 0.09576439841 -0.67342615806 -0.65543057791 -0.079211199999 -0.75109010334 
-0.55258692876 -0.21261893975 -0.80587894415 -0.4119154427 -0.34674928974 -0.8426687357 -0.24008281978 -0.45783913093 -0.85600442162 
-0.047073492867 -0.55912414558 -0.82774650474 0.14450401011 -0.65497664994 -0.74170356551 0.3094743759 -0.73254527556 -0.60630275434 
0.43465073828 -0.77132366938 -0.46490701518 0.52538497204 -0.76047887638 -0.38163137938 0.59235784393 -0.66219337343 -0.45892496219 
0.58691873249 -0.37400674743 -0.71808450361 0.52913946276 -0.063522302624 -0.84615385481 0.58437548919 0.067325806893 -0.80868567649 
0.73064721861 0.095447880923 -0.67605054838 0.88386654898 0.08272592699 -0.4603654468 0.98073716889 0.047023605561 -0.18958741013 
0.99550418579 -0.013503470515 0.093750052578 0.92843028016 -0.10004474515 0.35778242529 0.78544719604 -0.19908723887 0.58603495933 
0.56953863356 -0.28611181718 0.77056198515 0.28951947292 -0.30729859888 0.90650209372 -0.087339941609 -0.13819537993 0.98654638592 
-0.54461381457 0.37333485984 0.75101056944 -0.6710218409 0.73441299562 0.10181964888 -0.55077586905 0.78896516655 -0.272359887 
-0.40046628334 0.83034098805 -0.38750561218 0.056934106138 0.96260499163 -0.2648587126 0.74483612356 -0.4382681844 0.5031303485 
0.57043755747 -0.73464512008 0.36728400532 0.52600973147 -0.84914244365 0.047653675567 0.44775976357 -0.79757821029 -0.40420315758 
0.27081563983 -0.63613402132 -0.72249041249 0.075012904576 -0.52088222663 -0.85032627275 -0.075996164888 -0.45428827652 -0.88760731449 
-0.070526952221 -0.39847673178 -0.91446281676 0.43500607205 -0.2306054386 -0.87039694908 0.96197294169 0.16343513473 -0.2188538695 
0.95067646899 0.30594330684 0.051116966949 0.90803268911 0.39988387472 0.12477789166 0.84584038153 0.50955904018 0.15780885127 
0.74482873646 0.64146599802 0.18371588588 0.59435521264 0.77977627195 0.19669989047 0.40533709527 0.89615107254 0.18059649604 
0.208972883 0.9680932308 0.13829617003 0.043996681337 0.99554951247 0.08333942796 -0.069283120632 0.9971185389 0.030894475 
-0.1417934626 0.98986569222 0.0077798024233 -0.4671892823 0.67302293813 0.57338843662 -0.035581040085 -0.95735788667 0.28670519076 
-0.099540020482 -0.96079374345 0.25878015162 -0.23010270628 -0.94597775393 0.22842686714 -0.40518954037 -0.90115940415 0.15405571945 
-0.59576164171 -0.80278292479 0.02465039423 -0.7484014536 -0.648762726 -0.1378484298 -0.82514006663 -0.48257058461 -0.29371670247 
-0.83219711714 -0.35423972375 -0.42657024784 -0.76778157838 -0.29584129916 -0.5683215407 -0.19413345057 -0.39888920962 -0.89621403795 
0.98132728719 0.093305153165 0.1681990006 0.90437729143 0.33444108984 0.26504881092 0.65428022037 0.75431541109 0.054089313321 
0.65428022037 0.75431541109 0.054089313321 
FrenetBinormal 3 64 double
-0.17363829067 -0.98358296874 0.049135400909 -0.17363829067 -0.98358296874 0.049135400909 -0.065584066322 -0.98475894778 0.16108552079 
0.0055514979077 -0.96783076374 0.2515408389 0.06511157531 -0.93360420678 0.35234027282 0.10187137431 -0.88880849233 0.44681280987 
0.11972892982 -0.82584920415 0.55103364268 0.11173426946 -0.73397593229 0.66992147588 0.072503715644 -0.61757021837 0.78316679999 
0.017650519722 -0.5088247925 0.8606891365 -0.015331809786 -0.45691033065 0.88938061895 0.049484153938 -0.53863704955 0.84108349607 
0.27833178359 -0.73965505909 0.61273306734 0.4628088841 -0.81420499331 0.35053982038 0.50023656706 -0.81456918092 0.2936672036 
0.44152969092 -0.82131900509 0.36122932316 0.31368251674 -0.83492920476 0.45221289426 0.13972989904 -0.84711309116 0.51271333715 
-0.060646737795 -0.85115979244 0.52139138939 -0.27183355595 -0.83938214343 0.47068475135 -0.47238108367 -0.80462336966 0.35977401907 
-0.63808564613 -0.74484827766 0.19505832839 -0.73781165967 -0.67497206155 0.0068316158056 -0.76274411928 -0.62773691833 -0.1554598658 
-0.74260347883 -0.63083210988 -0.22492425921 -0.73415639769 -0.63893866651 -0.22972105729 -0.75658031397 -0.60972754194 -0.23625950374 
-0.80885956376 -0.51904641475 -0.27629155877 -0.89150215288 -0.070403393365 -0.44751231671 0.512535383 0.8585975556 -0.010849824623 
0.74154170155 0.65292616241 0.15428328262 0.82846648687 0.52425596824 0.19697451585 0.89372475604 0.41321024959 0.17468070895 
0.94748493322 0.30876263237 0.083294286568 0.97458036263 0.21882082044 -0.048068340057 0.97408753967 0.15635265039 -0.16342372464 
0.97547290453 0.16408143126 -0.14673069363 0.87513424071 0.33578310704 0.34841034107 0.14520872437 0.37263993022 0.91654454817 
-0.14801148814 0.30261090744 0.9415515058 -0.24542637806 0.26645913803 0.93207586639 -0.31201852873 0.23265690597 0.9211488489 
-0.38143098281 0.18340887326 0.90601964138 -0.44595634485 0.11603990833 0.8875008046 -0.48845610207 0.045322344373 0.8714106503 
-0.50756859366 -0.013505763285 0.86150549452 -0.51181171325 -0.049180153012 0.85768880296 -0.51150431764 -0.06209516007 0.85703414409 
-0.50944961626 -0.079710172406 0.85680066346 -0.26536639614 -0.72535112739 0.63517432079 0.53937814544 -0.25991071554 -0.80094796096 
0.5387396308 -0.27069379096 -0.79779977547 0.53106418914 -0.31875479174 -0.78508993737 0.51601759119 -0.36453021858 -0.77514099706 
0.49906105938 -0.39406201647 -0.77178571261 0.49121071711 -0.40252150768 -0.77245612642 0.50389026675 -0.39362379757 -0.76886598641 
0.54415921066 -0.37402755712 -0.75099543273 0.64058017955 -0.33647175018 -0.69024908178 0.98071544454 -0.099938710874 -0.16795675309 
-0.19156028884 0.39516109217 0.89841658877 -0.38268976215 0.36080989752 0.85050853246 -0.44525799862 0.32642146751 0.83378314939 
-0.44525799862 0.32642146751 0.83378314939 
