# vtk DataFile Version 4.2
vtk output
ASCII
DATASET POLYDATA
POINTS 64 float
0 0 0 -0.857483 0.139298 0.180151 -2.03073 0.222111 0.431262 
-2.94136 0.0819331 0.64387 -3.88251 -0.237242 0.897638 -4.71833 -0.745565 1.18451 
-5.43198 -1.38636 1.51088 -6.06053 -2.0922 1.88297 -6.6379 -2.81679 2.29656 
-7.20198 -3.53345 2.74099 -7.78099 -4.23122 3.19656 -8.39528 -4.90975 3.63453 
-9.05994 -5.57538 4.01553 -9.78247 -6.23765 4.28407 -10.5466 -6.90065 4.37031 
-11.3081 -7.55876 4.22563 -12.0063 -8.19905 3.85937 -12.6113 -8.82038 3.32992 
-13.1178 -9.43022 2.69579 -13.5323 -10.039 1.99738 -13.8578 -10.6543 1.25874 
-14.0913 -11.2799 0.49438 -14.2226 -11.9154 -0.286144 -14.2361 -12.5542 -1.07506 
-14.1146 -13.1826 -1.86331 -13.8502 -13.7819 -2.63898 -13.4495 -14.3353 -3.39012 
-12.9346 -14.8347 -4.10822 -12.3332 -15.2855 -4.79047 -11.6707 -15.701 -5.437 
-10.9653 -16.1012 -6.04661 -10.2273 -16.5119 -6.6118 -9.47215 -16.9537 -7.11608 
-8.69393 -17.502 -7.49469 -7.96157 -18.2262 -7.57785 -7.58252 -19.0026 -7.09558 
-7.55163 -19.6487 -6.27445 -7.70589 -20.1159 -5.39253 -7.92825 -20.5053 -4.4824 
-8.18544 -20.8388 -3.55846 -8.46046 -21.1275 -2.6257 -8.74012 -21.3832 -1.68442 
-9.01849 -21.6119 -0.735905 -9.29236 -21.821 0.218394 -9.56067 -22.0198 1.17648 
-9.82388 -22.2195 2.13578 -10.0828 -22.4333 3.09326 -10.3371 -22.6742 4.0455 
-10.5843 -22.954 4.98899 -10.8187 -23.2811 5.92051 -11.0312 -23.6596 6.83773 
-11.211 -24.0881 7.73981 -11.3479 -24.5601 8.62757 -11.436 -25.065 9.50332 
-11.476 -25.5915 10.3699 -11.4752 -26.1312 11.229 -11.445 -26.6822 12.0804 
-11.3968 -27.2512 12.9204 -11.34 -27.8436 13.7378 -11.2791 -28.4901 14.5239 
-11.2172 -29.2032 15.257 -11.1606 -29.9115 15.8805 -11.0882 -30.9464 16.4851 
-11.0348 -31.7526 16.8535 
LINES 1 65
64 0 1 2 3 4 5 6 7 8 9 10 11 12 13 14 15 16 17 18 19 20 21 22 23 24 25 26 27 28 29 30 31 32 33 34 35 36 37 38 39 40 41 42 43 44 45 46 47 48 49 50 51 52 53 54 55 56 57 58 59 60 61 62 63 

CELL_DATA 1
FIELD FieldData 2
Length 1 1 double
63.971373592 
Tortuosity 1 1 double
0.70120095215 
POINT_DATA 64
SCALARS MaximumInscribedSphereRadius float
LOOKUP_TABLE default
0.62 0.720275 0.833188 1.0068 1.33211 1.50048 1.47647 1.31965 1.29985 
1.33825 1.48913 1.77064 1.83437 1.71694 1.60178 1.70678 1.84765 1.99904 
2.0936 1.92467 1.69233 1.65042 1.85195 1.9879 1.90495 1.75439 1.64737 
1.60996 1.58439 1.56686 1.5547 1.64309 1.7549 1.85837 1.84396 1.55623 
1.50746 1.86601 2.04457 2.01139 1.93718 1.97566 2.1099 2.22898 2.3184 
2.35058 2.12915 1.9299 1.82899 1.85128 2.13506 2.47635 2.72874 2.60939 
2.47321 2.33204 2.18752 2.05005 1.96152 1.94354 2.08103 2.002 1.80867 
1.55 
TEXTURE_COORDINATES TCoords 2 float
0 0 0.015873 0 0.031746 0 0.047619 0 0.0634921 
0 0.0793651 0 0.0952381 0 0.111111 0 0.126984 0 
0.142857 0 0.15873 0 0.174603 0 0.190476 0 0.206349 
0 0.222222 0 0.238095 0 0.253968 0 0.269841 0 
0.285714 0 0.301587 0 0.31746 0 0.333333 0 0.349206 
0 0.365079 0 0.380952 0 0.396825 0 0.412698 0 
0.428571 0 0.444444 0 0.460317 0 0.47619 0 0.492063 
0 0.507937 0 0.52381 0 0.539683 0 0.555556 0 
0.571429 0 0.587302 0 0.603175 0 0.619048 0 0.634921 
0 0.650794 0 0.666667 0 0.68254 0 0.698413 0 
0.714286 0 0.730159 0 0.746032 0 0.761905 0 0.777778 
0 0.793651 0 0.809524 0 0.825397 0 0.84127 0 
0.857143 0 0.873016 0 0.888889 0 0.904762 0 0.920635 
0 0.936508 0 0.952381 0 0.968254 0 0.984127 0 
1 0 
FIELD FieldData 7
Curvature 1 64 double
0 0.085140658936 0.20539692056 0.17441416184 0.21179593517 0.17999395426 0.11351530428 0.066540629528 0.033529947535 
0.025773536206 0.042627610099 0.075008317327 0.12314150459 0.182765376 0.22665867322 0.22672915518 0.18462153751 0.14050038956 
0.10926004598 0.095243153999 0.09347870529 0.10115851536 0.11503965411 0.13194121142 0.14273456038 0.14226149651 0.12722161219 
0.10267205154 0.076905854744 0.057000555773 0.054417516679 0.068502099833 0.16121697463 0.33714559312 0.7322205534 0.51416568113 
0.25241315516 0.10478862876 0.06538904521 0.04760639972 0.033426411623 0.027183223531 0.020330390685 0.011949589129 0.0051662245285 
0.014426883524 0.027189026178 0.0393540253 0.049020031641 0.056055082506 0.059910786908 0.061000955979 0.058390170293 0.052010665945 
0.042300178078 0.031506426891 0.027049607155 0.032461863101 0.060248325019 0.081479405937 0.078557356715 0.1809738225 0.095867777388 
0 
Torsion 1 64 double
0 0 0.050398428179 0.11048409854 0.085580435789 0.1463984687 0.27357243097 0.43395608656 0.98557146514 
1.2602625237 0.62300888368 0.33908361642 0.21517313242 0.14391663329 0.11796330956 0.11798928121 0.14089020449 0.17221840925 
0.18685313376 0.15680176868 0.09534301148 0.028846599897 -0.018523733965 -0.038527454679 -0.041102014325 -0.033777594917 -0.011891144683 
0.034432944356 0.1405379447 0.3937329963 0.48608152892 0.42648750767 0.10224446237 0.01352410433 -0.006473898758 -0.02415158701 
-0.062929446824 -0.13930874435 -0.14874921674 -0.18627203751 -0.23951999131 -0.16930625886 -0.18627564717 -0.41361017443 -2.317787819 
-0.28946018272 -0.034402990092 0.044595593353 0.097635987479 0.13719384133 0.16564785813 0.17655818602 0.16647695507 0.1262520804 
0.027145314248 -0.23051889683 -0.48820776341 -0.36054005796 -0.08520160906 -0.021458284327 0.014548937227 0.0048062441675 0 
0 
Abscissas 1 64 double
0 0.8872062406 2.0898798119 3.0354443023 4.0611343882 5.0805848714 6.0937165621 7.1094600808 8.1240809079 
9.1386255186 10.153350577 11.168032236 12.18291939 13.199170545 14.21449144 15.231335999 16.247002613 17.263045545 
18.278244793 19.293206577 20.308165568 21.323153486 22.338170687 23.353398268 24.368742476 25.383988386 26.399381447 
27.414387513 28.429428079 29.444072026 30.458694795 31.474942456 32.484775532 33.509267568 34.542545587 35.532044064 
36.577333824 37.587211709 38.601815822 39.61721762 40.631622044 41.646308527 42.660944882 43.675546527 44.690163474 
45.704767633 46.719399692 47.734049516 48.748718767 49.763438428 50.778173764 51.792910699 52.807659509 53.822358443 
54.837113319 55.851648167 56.866226942 57.881996252 58.893029696 59.912652966 60.937295556 61.882653654 63.083347646 
63.971379803 
ParallelTransportNormals 3 64 double
0.20560462561 0 0.97863514035 0.20926216058 -0.00042538456092 0.97785948234 0.22731336358 0.00031386480729 0.97382161417 
0.25786951094 0.0077785869371 0.96614844041 0.30758417607 0.030949975736 0.95101738871 0.36147104059 0.070937624306 0.92968088088 
0.40633983622 0.11594816604 0.90633545682 0.43928976047 0.15503377374 0.88486667659 0.4583474098 0.17909676779 0.8705412108 
0.46180643788 0.18337686792 0.86781780244 0.44555653382 0.16463487707 0.8799856433 0.40174446782 0.11858878814 0.90804079308 
0.31744120046 0.037886274306 0.94752082535 0.18226337484 -0.082617119647 0.97977266431 0.01308681023 -0.22911229322 0.97331202217 
-0.14374144963 -0.36861156979 0.91840291064 -0.25216373458 -0.47357961153 0.84388139125 -0.31640212836 -0.54473512339 0.77662947312 
-0.35211619806 -0.59198861239 0.72495769936 -0.37249983954 -0.62570556813 0.68537319145 -0.3848515207 -0.65312699719 0.6521613547 
-0.39256541097 -0.6797991664 0.61948808824 -0.39603006451 -0.71028286142 0.58194367835 -0.3928489866 -0.74763389668 0.53545609556 
-0.3794566342 -0.79023979114 0.48117952499 -0.35476198132 -0.83303665067 0.4244924914 -0.32287123053 -0.86970415872 0.37332136935 
-0.29202851081 -0.89595905051 0.33462924064 -0.26894016591 -0.91178464702 0.31035454662 -0.25960720354 -0.91734957133 0.3017844659 
-0.26988590579 -0.91157454673 0.31015067887 -0.30095707139 -0.89383126877 0.33240111937 -0.39725171138 -0.8316959049 0.38790849382 
-0.60134501432 -0.65990127437 0.45046029996 -0.91195005488 -0.23731524129 0.33470669795 -0.99597417076 0.048333771963 0.075493692874 
-0.98371849183 0.15583540256 -0.089516792535 -0.96964215887 0.18787073995 -0.15652050604 -0.95983696901 0.20265301644 -0.1940225447 
-0.95350155808 0.21005944697 -0.21612451847 -0.95093720469 0.21257616403 -0.22478836097 -0.95015612629 0.21325417372 -0.22743349151 
-0.95053584103 0.21295313496 -0.22612513619 -0.95157472036 0.21217154042 -0.22246075834 -0.95294927018 0.21114090852 -0.21750219587 
-0.9546406369 0.20980146525 -0.21129268697 -0.95686951767 0.20782688488 -0.20299929084 -0.96006573771 0.20450864233 -0.19091881647 
-0.96468604639 0.19868617096 -0.17292957346 -0.97094349513 0.18880578857 -0.14704116253 -0.97838169784 0.17350321732 -0.11254282253 
-0.9857406676 0.15257899949 -0.070957629265 -0.99147036871 0.1277020183 -0.026051919201 -0.99459072577 0.10256759633 0.016406596241 
-0.99539184383 0.080821095314 0.051604532577 -0.99493028416 0.064558914907 0.077109507663 -0.99417431171 0.053757371158 0.093421533811 
-0.99355913042 0.04695494854 0.10312849828 -0.99300135865 0.041087012761 0.11072560275 -0.99243834321 0.034853529004 0.11769182826 
-0.99196073695 0.029115919456 0.1231509626 -0.99057244153 0.010505294001 0.13658651791 -0.98982326419 -0.00050744821309 0.1423012585 
-0.98982326419 -0.00050744821309 0.1423012585 
FrenetTangent 3 64 double
-0.97263424851 0.10638182632 0.20655634982 -0.97263424851 0.10638182632 0.20655634982 -0.97577180111 -0.026861017218 0.217135621 
-0.94282423494 -0.23387721829 0.2374529612 -0.87389613133 -0.40695533726 0.26588137415 -0.76547191603 -0.56768926825 0.30295484892 
-0.66264135126 -0.66483078477 0.34482817059 -0.59428239096 -0.70492203002 0.3871864814 -0.56260420122 -0.71037125595 0.42290565317 
-0.56334706907 -0.69707077572 0.44354527774 -0.58814073786 -0.67833596753 0.4403984419 -0.63061477101 -0.66276794162 0.40381142399 
-0.68429058425 -0.65504329562 0.32041329118 -0.73489338095 -0.6551143354 0.17537652692 -0.75564262196 -0.65434424724 -0.028945361857 
-0.7228694354 -0.64299092849 -0.25302657023 -0.64420913443 -0.62365462466 -0.44277477374 -0.54858759789 -0.60765142462 -0.57429208039 
-0.45435436939 -0.60117840297 -0.65737860843 -0.36496681041 -0.60371451724 -0.70875102044 -0.2756900051 -0.61199235945 -0.74125594302 
-0.1799401996 -0.62204569791 -0.76202406411 -0.071442475342 -0.62872286178 -0.77434071041 0.053305368516 -0.62545103798 -0.77844045166 
0.19053591407 -0.60616917505 -0.77217549603 0.32838042098 -0.56912373324 -0.75383318803 0.45188635923 -0.51959993522 -0.72513076453 
0.55063109686 -0.46869959816 -0.69074313739 0.62316483997 -0.42712884577 -0.65515382265 0.67437425885 -0.40213984931 -0.61927611015 
0.71101577733 -0.39944738262 -0.57870402876 0.73741260331 -0.42101839406 -0.52817247595 0.75626203236 -0.48832028818 -0.43544349182 
0.7447208761 -0.62734712099 -0.22765413788 0.58203211234 -0.78584592168 0.20900910884 0.20783675247 -0.72119840965 0.66081520733 
-0.060523312224 -0.5461662471 0.83548749793 -0.18629374387 -0.42371425634 0.8864315371 -0.23636154222 -0.35630464445 0.9039802109 
-0.26227372889 -0.30662098832 0.91498418601 -0.27340171005 -0.26833439778 0.92371432592 -0.27500963726 -0.23872297437 0.93133293774 
-0.27215721201 -0.21575800114 0.93775206579 -0.2671921383 -0.20101741591 0.94244382312 -0.26193464033 -0.1963822466 0.94489378102 
-0.2573084684 -0.20377493334 0.94459945407 -0.25293194889 -0.22409164368 0.94117392891 -0.24717871217 -0.25664214264 0.93436475473 
-0.2373845443 -0.2991456855 0.92420800525 -0.22029423046 -0.34781656662 0.91131448359 -0.19338993361 -0.39782220456 0.89684883182 
-0.15612677843 -0.44392916784 0.88235555362 -0.11091759433 -0.48158082057 0.86935447346 -0.063141449611 -0.50838639801 0.85881105469 
-0.019321065417 -0.5255156814 0.85056449787 0.015279347391 -0.53758427929 0.84307157715 0.038618288003 -0.55169170766 0.8331535798 
0.051812335471 -0.57309619559 0.81784853885 0.057986845882 -0.61036702984 0.78999342693 0.060124098699 -0.66567437243 0.74381632319 
0.060200101483 -0.72209211919 0.6891726338 0.060386146993 -0.8160047136 0.57488244071 0.060301297283 -0.88251612106 0.46640009607 
0.060301297283 -0.88251612106 0.46640009607 
FrenetNormal 3 64 double
-0.09522451554 -0.99344404432 0.063255216728 -0.09522451554 -0.99344404432 0.063255216728 0.044437846375 -0.9960807427 0.076475040524 
0.26972595857 -0.9539294589 0.13140203466 0.45609260168 -0.87564447941 0.15882784507 0.63625926473 -0.73803987137 0.22465817659 
0.74580466336 -0.54370123273 0.38492125641 0.73737687417 -0.28536040776 0.61224568853 0.38404111999 0.22843437286 0.89461173447 
-0.5588578405 0.71688350179 0.41684044786 -0.80489154204 0.43775017875 -0.400654947 -0.65134275739 0.16905184155 -0.73971216515 
-0.45003412241 0.033622639527 -0.89237817476 -0.22610079985 -0.0071291435838 -0.97407782216 0.016285722505 0.025408629808 -0.99954448464 
0.27027337992 0.07390265549 -0.95994306999 0.49476510869 0.101672293 -0.86305864926 0.67968868367 0.075889287522 -0.72956432844 
0.81896355234 0.0084716969578 -0.57378299931 0.9090855126 -0.066811933872 -0.4112173346 0.95753737276 -0.10716608161 -0.2676520329 
0.98338095559 -0.094732113004 -0.15487970478 0.99717890225 -0.027098927713 -0.069999178688 0.9969661681 0.077611317265 0.0059112678894 
0.9764279402 0.19828131747 0.085281866376 0.93389042017 0.31516766231 0.16887281533 0.87603432359 0.41193035335 0.25075336067 
0.81947885187 0.46106658812 0.34039978357 0.77573555022 0.44414075431 0.44830050914 0.73268417747 0.26037931853 0.6287897157 
0.56031489896 -0.17540414849 0.8094940387 0.31179605501 -0.4814843987 0.81911903523 0.071996734313 -0.59938802644 0.79721418954 
-0.15143625957 -0.49107120642 0.85785554117 -0.48905933262 -0.13293924206 0.86206039643 -0.72068823967 0.34387331171 0.60196312735 
-0.71460674753 0.60810336055 0.3457564161 -0.62780971629 0.74533929762 0.22433076374 -0.51480282132 0.83495515075 0.19449409092 
-0.36910991331 0.90794891926 0.19846065584 -0.13266148235 0.96164386819 0.24008748797 0.045506770923 0.96436627968 0.26062772763 
0.21462025265 0.93637833192 0.2777296647 0.45236266373 0.83738076971 0.30685740495 0.9582351924 -0.16937094374 0.23043176747 
0.28977395865 -0.94879864434 -0.12574651246 0.1648217597 -0.96856541427 -0.18631915038 0.17563738078 -0.96017995289 -0.21726934563 
0.25399216268 -0.93742010986 -0.23818379231 0.37980054049 -0.89112219374 -0.24829978909 0.53053260671 -0.81133789857 -0.24549127796 
0.68360380826 -0.69336437058 -0.22788524072 0.81240407376 -0.54779494413 -0.19980070101 0.89883917998 -0.40293128458 -0.17243696948 
0.93719325838 -0.3058603635 -0.16768492623 0.90673775317 -0.34791893359 -0.23828357607 0.64427168803 -0.62358379132 -0.44278352184 
0.26523529598 -0.78163945066 -0.56452635629 0.058095157386 -0.78792081678 -0.61302996597 0.0082569226458 -0.74480723227 -0.667228604 
-0.0069064953547 -0.69070962804 -0.72309923942 0.0014975111637 -0.57585875797 -0.81754782633 -0.0011507067771 -0.46731153854 -0.88409196457 
-0.0011507067771 -0.46731153854 -0.88409196457 
FrenetBinormal 3 64 double
0.21193138103 0.041854961844 0.97638785936 0.21193138103 0.041854961844 0.97638785936 0.21423041325 0.084271227401 0.97314114612 
0.19578143245 0.18793625037 0.96247056916 0.1681817182 0.26006556703 0.95083164152 0.096056721857 0.36472735431 0.92614635086 
-0.068423999545 0.51223919916 0.85611281916 -0.32109778142 0.64934918901 0.68937786844 -0.73211264907 0.66572548097 0.14429363487 
-0.60853758625 -0.013052911512 -0.793417688 0.078994164458 -0.59011447717 -0.80344559606 0.42199244422 -0.729493064 -0.53829568695 
0.57377319994 -0.75484289689 -0.31779949033 0.63938262953 -0.75549611704 -0.14288271479 0.65478164537 -0.75576981127 -0.0085433748155 
0.63593402132 -0.76229985137 0.12036136065 0.58326844449 -0.77505977445 0.24306432828 0.48690342034 -0.79056977061 0.37138187498 
0.35051505953 -0.79906993321 0.48849404795 0.20090484833 -0.79439596371 0.57321225977 0.084363504243 -0.78356925854 0.61555017361 
0.024154104301 -0.77722903734 0.62875400815 0.02302628101 -0.77715713417 0.6288851876 0.056718580228 -0.7763938965 0.62769062454 
0.10141273608 -0.77022298743 0.62966023108 0.14147431654 -0.7594521189 0.63499409199 0.1684119421 -0.74855146203 0.64133308541 
0.15893333985 -0.75348409937 0.63796700972 0.099498433951 -0.78759122613 0.60811193227 -0.091614709978 -0.87777340589 0.47023461467 
-0.4248573624 -0.89981952258 0.099101202844 -0.59917098775 -0.76871079456 -0.22378078955 -0.65029547796 -0.6342533326 -0.418136941 
-0.64996759611 -0.60438783907 -0.46071408053 -0.64966113427 -0.60396468878 -0.46170018987 -0.66137156389 -0.60135181001 -0.44828969994 
-0.69690323938 -0.57611867997 -0.42709851501 -0.75574440198 -0.51471891397 -0.40486397527 -0.82408208118 -0.4194006397 -0.38077792332 
-0.89161110526 -0.28567871734 -0.35130799511 -0.95270794898 -0.056900981972 -0.298512717 -0.96036390666 0.11405709149 -0.25434650905 
-0.93801311244 0.27684671652 -0.20853607948 -0.85086801661 0.50831628443 -0.13280878471 0.11478484324 0.96578853619 0.23254449709 
0.92185866866 0.24136468061 0.30318259511 0.95334108102 0.10799987733 0.28191631691 0.95291877656 0.11040502117 0.28241199793 
0.93762282365 0.17820043903 0.29850970522 0.89845534194 0.29141872246 0.32840999791 0.82530932794 0.42833200662 0.36796223354 
0.71295880834 0.56760262821 0.41172441519 0.57244817076 0.68410570268 0.45199831787 0.43370645128 0.76104510393 0.4823992785 
0.34827502477 0.79390346179 0.49841930187 0.42141806857 0.76808564516 0.4821319873 0.76382106533 0.55387680481 0.33135760932 
0.96279058972 0.24617172822 0.11150677362 0.99662554573 0.081442466629 -0.010229674308 0.99815675922 0.046258152285 -0.039284441744 
0.99816243573 0.038770880001 -0.04656791557 0.99817396816 0.050229456088 -0.033551915438 0.9981795577 0.05277520263 -0.02919500929 
0.9981795577 0.05277520263 -0.02919500929 
