# vtk DataFile Version 4.2
vtk output
ASCII
DATASET POLYDATA
POINTS 64 float
0 0 0 -0.728577 0.368181 0.644514 -1.60343 0.463588 1.09192 
-2.55208 0.396438 1.44338 -3.50275 0.253487 1.76894 -4.43664 0.107515 2.13733 
-5.34147 0.00612263 2.5844 -6.21181 -0.041803 3.10336 -7.06455 -0.0852071 3.6514 
-7.93518 -0.282761 4.13104 -8.69986 -0.910727 4.27542 -9.14148 -1.7862 4.02863 
-9.36407 -2.66758 3.58064 -9.44609 -3.49816 3.00496 -9.4115 -4.25601 2.33213 
-9.26915 -4.92692 1.58516 -9.03639 -5.50277 0.783367 -8.74444 -5.98979 -0.0572108 
-8.41307 -6.40973 -0.919227 -8.03548 -6.79368 -1.77904 -7.59303 -7.17967 -2.60625 
-7.0686 -7.61454 -3.35742 -6.46085 -8.16241 -3.95427 -5.84102 -8.9139 -4.21441 
-5.55682 -9.78567 -3.83424 -5.80876 -10.3978 -3.07316 -6.36554 -10.7133 -2.28963 
-7.08396 -10.7433 -1.5773 -7.82932 -10.4646 -0.951615 -8.45587 -9.92294 -0.368453 
-8.89769 -9.24263 0.239388 -9.17043 -8.54087 0.918495 -9.30593 -7.89798 1.69063 
-9.30813 -7.38899 2.56669 -9.13897 -7.14897 3.53385 -8.78641 -7.34247 4.45862 
-8.35898 -7.91199 5.17724 -7.95075 -8.69677 5.67071 -7.59519 -9.60999 5.92606 
-7.30102 -10.5748 5.85637 -7.05945 -11.4295 5.37598 -6.83806 -12.0572 4.61209 
-6.60092 -12.5602 3.76355 -6.32481 -13.1131 2.95963 -6.02141 -13.8916 2.3938 
-5.7706 -14.8601 2.2518 -5.60523 -15.8428 2.43379 -5.49692 -16.7687 2.83169 
-5.39442 -17.5935 3.4118 -5.19847 -18.2496 4.1576 -4.7296 -18.5959 4.97931 
-3.94867 -18.5572 5.61793 -3.05728 -18.3447 6.05237 -2.1521 -18.1236 6.45373 
-1.27223 -17.9622 6.93155 -0.446203 -17.8811 7.51442 0.346566 -17.8509 8.1469 
1.16776 -17.8214 8.74162 2.05328 -17.7622 9.2324 2.98643 -17.6813 9.62206 
3.93309 -17.6074 9.9798 4.83463 -17.5871 10.4407 5.29762 -17.7437 11.2717 
4.89837 -18.0411 12.1883 
LINES 1 65
64 0 1 2 3 4 5 6 7 8 9 10 11 12 13 14 15 16 17 18 19 20 21 22 23 24 25 26 27 28 29 30 31 32 33 34 35 36 37 38 39 40 41 42 43 44 45 46 47 48 49 50 51 52 53 54 55 56 57 58 59 60 61 62 63 

CELL_DATA 1
FIELD FieldData 2
Length 1 1 double
63.763684913 
Tortuosity 1 1 double
1.8572330993 
POINT_DATA 64
SCALARS MaximumInscribedSphereRadius float
LOOKUP_TABLE default
1.24 0.810558 0.620604 0.758995 1.25613 1.03031 0.686849 0.692884 1.07296 
0.854965 0.859063 1.13817 1.07949 0.93 0.93 0.93 0.93 0.93 
0.93 0.9525 1.23352 1.55 1.56508 1.65618 1.07 1.38631 1.34568 
1.24 1.34259 1.59013 1.77339 1.89764 1.92382 1.82265 1.61687 1.78644 
1.86 1.7622 1.53916 1.32871 1.43015 1.55 1.57444 1.61212 1.15661 
1.27327 1.496 1.42074 1.47982 1.64158 1.90787 2.04313 1.39221 1.24142 
1.3468 1.52395 1.35669 1.62097 1.67252 1.25288 1.26472 1.39398 1.59014 
1.6678 
TEXTURE_COORDINATES TCoords 2 float
0 0 0.015873 0 0.031746 0 0.047619 0 0.0634921 
0 0.0793651 0 0.0952381 0 0.111111 0 0.126984 0 
0.142857 0 0.15873 0 0.174603 0 0.190476 0 0.206349 
0 0.222222 0 0.238095 0 0.253968 0 0.269841 0 
0.285714 0 0.301587 0 0.31746 0 0.333333 0 0.349206 
0 0.365079 0 0.380952 0 0.396825 0 0.412698 0 
0.428571 0 0.444444 0 0.460317 0 0.47619 0 0.492063 
0 0.507937 0 0.52381 0 0.539683 0 0.555556 0 
0.571429 0 0.587302 0 0.603175 0 0.619048 0 0.634921 
0 0.650794 0 0.666667 0 0.68254 0 0.698413 0 
0.714286 0 0.730159 0 0.746032 0 0.761905 0 0.777778 
0 0.793651 0 0.809524 0 0.825397 0 0.84127 0 
0.857143 0 0.873016 0 0.888889 0 0.904762 0 0.920635 
0 0.936508 0 0.952381 0 0.968254 0 0.984127 0 
1 0 
FIELD FieldData 7
Curvature 1 64 double
0 0.36523755401 0.20274838572 0.077978911575 0.044790470593 0.0925099277 0.093506878958 0.033325712019 0.16609044752 
0.59342996221 0.60588703988 0.29669179586 0.1931316062 0.16483475246 0.15365979944 0.13892491831 0.11073701572 0.078546154408 
0.057002419153 0.070654859289 0.11905812795 0.20530030581 0.4006911426 0.84546165644 0.80664065082 0.43680799987 0.33714171772 
0.32218019113 0.2904753548 0.2292439136 0.1812477406 0.17245444914 0.21232478568 0.33280224861 0.49055220937 0.44745615931 
0.31195727349 0.2737616556 0.33615862789 0.43940409892 0.36739298603 0.14824748708 0.075402178854 0.33036021693 0.48436654692 
0.33687478758 0.22736711587 0.20508056061 0.25172567774 0.43009633147 0.55771648706 0.28914873037 0.035831123491 0.097672709661 
0.13949111919 0.076373752624 0.045952857972 0.12275136339 0.11102123298 0.034361683309 0.12179560108 0.67466543044 1.0719655575 
0 
Torsion 1 64 double
0 0 0.14009501758 0.65952471736 1.3619046805 0.1712280621 -0.033788462919 -2.6984178908 -0.17635986989 
-0.020989843098 -0.037917611618 -0.13287970994 -0.11895468562 -0.032320167264 -0.019479203767 -0.065845975367 -0.070589416376 0.16008288695 
0.74482347627 0.65041966855 0.36696624272 0.30495064517 0.24369101489 0.13039033047 0.1126933527 0.066285335712 -0.15611588118 
-0.31660603705 -0.41013655424 -0.49790179107 -0.52812272632 -0.39300607564 -0.19772351428 -0.083305415762 -0.056350332129 -0.070293244791 
-0.063891846912 0.068591982871 0.1646675808 0.14071713387 0.14271295168 0.41104151095 1.3904166676 0.10670588962 0.047047273485 
0.010463599341 -0.15262937755 -0.38759270916 -0.52067981972 -0.30246448655 -0.16210440633 -0.18726506204 -1.9765845652 -0.11633334649 
0.0044133664512 0.28341841496 0.87288739015 0.029132967874 -0.079610654913 -1.6394434592 -0.3943079353 -0.034585009339 0 
0 
Abscissas 1 64 double
0 1.040086699 2.0273230866 3.0412168044 4.0562039921 5.0706847967 6.0850106978 7.0994671273 8.1140499542 
9.127505373 10.127467143 11.13859574 12.152041895 13.165944861 14.179963889 15.194040387 16.208263051 17.222656508 
18.2371665 19.251694789 20.266106781 21.280208997 22.292995691 23.301267817 24.29387599 25.302540169 26.314217375 
27.326367382 28.338655624 29.351595992 30.365254264 31.379177252 32.393008866 33.406200346 34.416956669 35.425393217 
36.437057461 37.449995328 38.46271411 39.473763298 40.483515382 41.496711449 42.511272747 43.525246191 44.534336838 
45.544832468 46.557811411 47.571467258 48.584993575 49.59745558 50.604918018 51.6144629 52.628608165 53.64317676 
54.657334063 55.67154815 56.686153036 57.700519762 58.714671686 59.72914269 60.743834141 61.756574329 62.72063531 
63.763718213 
ParallelTransportNormals 3 64 double
0.66257569879 0 0.74899495551 0.45953781878 0.057665336796 0.88628421065 0.3430828727 0.059609253493 0.93741179818 
0.31583187613 0.056595364791 0.94712575232 0.35768663452 0.063012153615 0.93171333573 0.43514728445 0.07343288677 0.89735971159 
0.5072853286 0.079500907224 0.85810325786 0.53595436151 0.081020479061 0.8403502867 0.4687715632 0.071623842149 0.88041083976 
0.22593038304 -0.051445864926 0.97278403821 0.035805584539 -0.28783627952 0.95701005026 -0.024770656507 -0.44800121316 0.89368972668 
-0.045767045306 -0.56599083101 0.82314018052 -0.048704816685 -0.6643694441 0.74581571623 -0.03846541951 -0.74705156428 0.66365229737 
-0.018147658262 -0.81458427799 0.57976125824 0.0063860150582 -0.86428106382 0.50296864866 0.027162621464 -0.89451229604 0.4462173733 
0.037490420669 -0.90622305857 0.42113446365 0.030301635224 -0.89947346441 0.43592349985 -0.007240870501 -0.86760110702 0.49720809415 
-0.10434080196 -0.78331558574 0.6128047733 -0.33262512966 -0.5416014757 0.77202873304 -0.68441324916 0.09227102743 0.72323202492 
-0.69820430478 0.65279051786 0.29389673115 -0.52727879502 0.84906129762 -0.032741185181 -0.31601636048 0.90631875728 -0.2805707934 
-0.086948928594 0.86739914481 -0.48995776083 0.075999310943 0.76997188371 -0.63353563675 0.13141952173 0.70658934616 -0.6953131706 
0.12714967628 0.71484760517 -0.68762334254 0.10942359816 0.7732338451 -0.624608595 0.098992052569 0.86051910987 -0.49970734943 
0.1208244488 0.95830171281 -0.25895806571 0.22450079689 0.96744343209 0.11684433191 0.37299304207 0.82227320121 0.42981737184 
0.49025265349 0.63226174907 0.59991450758 0.58504958114 0.42151272004 0.692852087 0.67738701152 0.15458815514 0.7192004859 
0.7636981141 -0.13854300566 0.6305323355 0.81636538302 -0.30721396811 0.48904717483 0.83134611649 -0.34416135556 0.43636750101 
0.81410354247 -0.30868835369 0.49188100434 0.75315853087 -0.16863422018 0.63585747394 0.67799549804 0.068265041874 0.73188932817 
0.6407719887 0.24273275986 0.7283488627 0.62262474799 0.36928206708 0.68990519502 0.60608780953 0.50662221209 0.61318145875 
0.57006066083 0.68534208933 0.45314132846 0.43256012288 0.89229431022 0.12923855482 0.13291365767 0.96616951594 -0.22102132493 
-0.056594557529 0.93774123807 -0.34269290406 -0.072819742397 0.9338245953 -0.35024121735 -0.0025915467377 0.94887158829 -0.31565169542 
0.088363198741 0.96180041205 -0.25909826801 0.13943689123 0.96531087978 -0.22075384197 0.13020154853 0.96496923638 -0.22777605142 
0.079736165656 0.96234524294 -0.2598726174 0.034518462166 0.9588627393 -0.28176359409 0.032057825356 0.95866015738 -0.28274192911 
0.10608204524 0.96243063556 -0.24994773736 0.34814806619 0.93727979895 -0.017306140154 0.3731635208 0.82243203455 0.42936527025 
0.3731635208 0.82243203455 0.42936527025 
FrenetTangent 3 64 double
-0.8039095668 0.23242849399 0.54745447627 -0.8039095668 0.23242849399 0.54745447627 -0.91586512302 0.0141922517 0.4012351635 
-0.93687515665 -0.10363626291 0.33395278988 -0.92883832109 -0.14240075952 0.34202543322 -0.9072987594 -0.12205958311 0.40238093812 
-0.87597449877 -0.073682371155 0.47669653416 -0.84933000682 -0.045017683918 0.52593911022 -0.85275738481 -0.11923075867 0.50851634079 
-0.84502007165 -0.42657418919 0.3224523835 -0.62493569082 -0.77887135289 -0.053054669773 -0.33167315731 -0.87728377535 -0.34693817061 
-0.15096153739 -0.8484313851 -0.50732119904 -0.023469470841 -0.78599167715 -0.61779144328 0.087507280893 -0.70660637733 -0.70217512296 
0.1853940481 -0.61619808876 -0.76545996782 0.2590600019 -0.52476085359 -0.81087234628 0.30746393843 -0.44737412176 -0.83983469906 
0.34955307535 -0.39635817285 -0.84894808223 0.4044308684 -0.37972240062 -0.83201356429 0.47751059036 -0.40539628088 -0.77951105928 
0.56156200727 -0.48743954217 -0.6686185794 0.61925416819 -0.65546377444 -0.43230951364 0.48554295636 -0.87183261092 0.064466549984 
0.017230250528 -0.79256096247 0.60954920985 -0.4094932469 -0.46970268003 0.78210911842 -0.6389509908 -0.17311604569 0.74951482045 
-0.73236730479 0.12443117258 0.66944380957 -0.68454969023 0.4093398735 0.60318536915 -0.5306734112 0.60696842862 0.59158689751 
-0.35389243006 0.6844826945 0.63737240988 -0.20208811265 0.66563180168 0.71839731299 -0.068319759266 0.57150402007 0.81775030757 
0.0836226674 0.37514560599 0.92318634295 0.26576351701 0.023697108885 0.96374695852 0.39540391236 -0.3868011546 0.83309099917 
0.41774575536 -0.67701287212 0.60592248255 0.38059795905 -0.84611634942 0.37313846868 0.32553230668 -0.94094413936 0.093020663953 
0.27127477719 -0.92131841795 -0.27853611615 0.23264401473 -0.74492723838 -0.62526808005 0.22676554893 -0.5591866614 -0.79742564765 
0.25319910404 -0.52090190614 -0.81520023178 0.29031184277 -0.66697903776 -0.68619093344 0.28207897088 -0.8891786932 -0.36026754745 
0.2085601586 -0.97780419965 0.020040144342 0.13592667917 -0.94793149954 0.28801008673 0.10454723347 -0.86822776503 0.48502620961 
0.14848123144 -0.7367593654 0.65965063588 0.33647751999 -0.50733248189 0.79334521575 0.64204852895 -0.15802057032 0.75020209665 
0.83499042512 0.12542418725 0.53577958454 0.8857264818 0.21376877743 0.4120576528 0.88096474922 0.18877271853 0.43389626799 
0.84310434622 0.11985075894 0.52422405226 0.79849667577 0.05490024155 0.59949063568 0.79567758284 0.029431877419 0.60500491631 
0.84298361796 0.043811496061 0.5361521917 0.89791838114 0.069170768352 0.43469297857 0.92653705821 0.076298437015 0.36838516295 
0.91333049334 0.046551158564 0.4045496256 0.72426581099 -0.072344919721 0.68571513591 0.035279008961 -0.25128244258 0.96727065787 
0.035279008961 -0.25128244258 0.96727065787 
FrenetNormal 3 64 double
-0.52192476437 -0.71705078967 -0.46198777621 -0.52192476437 -0.71705078967 -0.46198777621 -0.24523355869 -0.81105405888 -0.53108550655 
-0.01236290996 -0.94465268367 -0.32783908505 0.3538110329 -0.067102184972 0.93290677442 0.30452435666 0.4691388214 0.82895939735 
0.36033745539 0.55702377664 0.74825225058 0.51679452167 0.13204510054 0.84586495009 -0.1112622359 -0.90978227522 -0.39989614472 
0.16935532741 -0.78546550035 -0.59528373137 0.58531848102 -0.42249759342 -0.69202460891 0.73893475155 -0.012959442783 -0.67365234788 
0.7154161914 0.26039547036 -0.64836245427 0.69287558874 0.43268389709 -0.57680851564 0.68608141874 0.55380435748 -0.47179764782 
0.63567309314 0.66923038508 -0.38477319338 0.52078966534 0.78292926431 -0.34029383122 0.48800958081 0.83181558689 -0.26444182431 
0.78833008985 0.61408476803 0.037888878419 0.89379064708 -0.028713251655 0.44756432875 0.67300655276 -0.40158730892 0.62111980588 
0.40291019421 -0.54470394651 0.73550050038 0.03794783706 -0.52495212687 0.85028537924 -0.44693445425 -0.18417726019 0.87540181084 
-0.75889549852 0.3865583178 0.52407088191 -0.71277101971 0.69981424851 0.047090243581 -0.48054367436 0.85066622322 -0.21317775143 
-0.083412382564 0.95936104832 -0.26957142541 0.40889184651 0.90064038945 -0.14715415983 0.79691896536 0.59499721085 0.10439579367 
0.91577366012 0.11511569126 0.38484669813 0.7799375972 -0.33426708096 0.52911516994 0.6179727578 -0.61924446197 0.48440269089 
0.51728714479 -0.80817217731 0.28155237816 0.38939411929 -0.91715670388 -0.084828063681 0.16899386375 -0.86088523673 -0.47991424566 
-0.063247777552 -0.68695265774 -0.72394458673 -0.19078394229 -0.46667059392 -0.86360873324 -0.18174203396 -0.15881242483 -0.97043724517 
-0.12193409321 0.25416016086 -0.95944499037 -0.057700668691 0.63120387212 -0.77346771403 0.10192512246 0.82788409705 -0.55156068683 
0.50480631239 -0.64769948256 0.57066274388 0.087320128895 -0.69561803522 0.71308536948 -0.1133628512 -0.40377763207 0.90780641538 
-0.25636456488 -0.034883923959 0.96595047581 -0.24796758494 0.24890331047 0.93624741327 -0.02786620448 0.48494996113 0.87409782624 
0.36819988272 0.66027247298 0.65457551725 0.65428549031 0.73185739677 0.19051311754 0.58803154821 0.72937056137 -0.3496247739 
0.36760049404 0.59739047728 -0.71273732499 0.36404060778 0.23091026281 -0.90230531774 -0.24902288518 -0.59475744501 0.76436325412 
-0.37743617022 -0.56249074132 0.73562633405 -0.42778043562 -0.64891866439 0.62921257609 0.60554496496 -0.014614072329 -0.79567689692 
0.5127173242 0.23617041899 -0.8254359325 0.4158457291 0.19039038209 -0.88928276268 0.3761814722 -0.19849998424 -0.90503329012 
-0.34743097536 -0.4291200746 0.83375516726 -0.67117633767 -0.30183649989 0.67706502723 -0.99071517483 -0.13595137576 0.00081596164595 
-0.99071517483 -0.13595137576 0.00081596164595 
FrenetBinormal 3 64 double
0.28517354146 -0.65712644157 0.69775417666 0.28517354146 -0.65712644157 0.69775417666 0.31788610874 -0.58479901981 0.7462965418 
0.34944541679 -0.31127292244 0.8837403852 -0.10989597936 0.98753193389 0.11271004064 -0.28995495752 0.87464862912 -0.38847895463 
-0.32066430382 0.82722150627 -0.46138810542 -0.10752656365 0.99022093472 -0.088884973716 0.51031907423 -0.39759305563 0.76255767296 
0.5072078978 -0.44841767235 0.73597672486 0.51658267308 -0.46352475575 0.7199216226 0.58648814965 -0.47979707205 0.65255376788 
0.68219519737 -0.46082359291 0.56767184966 0.72067510188 -0.44159000062 0.53443958394 0.72224286957 -0.44046357527 0.53325141933 
0.7493655754 -0.4152476455 0.51577187527 0.81342857086 -0.33413741729 0.47611568602 0.816892022 -0.32854105465 0.47407615402 
0.50630851952 -0.68249549192 0.52711629321 -0.1938400162 -0.92465477214 0.32777980486 -0.56484140785 -0.82120733604 0.081072160535 
-0.72271120608 -0.68242237902 -0.10949068097 -0.78427306268 -0.54294797623 -0.30020536015 -0.7513305738 -0.45385750557 -0.47907800357 
-0.65098443975 -0.47161402407 -0.59481045006 -0.56944951857 -0.53818157712 -0.62135966706 -0.6006824522 -0.4963847413 -0.62672384686 
-0.6757814035 -0.25326520142 -0.69222556471 -0.60348917095 0.14590324486 -0.78390883634 -0.28862760316 0.52684689022 -0.79945385167 
0.19004933935 0.71988319786 -0.66756979415 0.59233245665 0.6672329602 -0.45159986451 0.78322543441 0.53844168799 -0.31086728281 
0.85171665437 0.45400826658 -0.26163951259 0.88189680399 0.39782160267 -0.25297430612 0.90282712637 0.33054723714 -0.27503036908 
0.90635986369 0.26410152783 -0.32979111644 0.90484621949 0.25749889322 -0.33903928837 0.92790007566 0.29900291024 -0.22270767671 
0.95474712473 0.29423627473 -0.04339288484 0.97084880143 0.21602102059 0.10386300315 0.9686013913 0.043797255133 0.24473076066 
-0.82526407936 -0.55600951833 0.098957641687 -0.95293978248 -0.26693540842 -0.14370545812 -0.95267009933 -0.21523214303 -0.21469701081 
-0.94381135304 -0.20659636732 -0.25794974489 -0.95918507844 -0.19867816742 -0.2012236842 -0.99412944359 -0.10490034905 0.026505964371 
-0.91781379935 0.14569110789 0.3693127818 -0.6772690571 0.45497088216 0.57819384352 -0.49192741821 0.66561857213 0.56121237661 
-0.40946412144 0.79208168197 0.45270933539 -0.28803304554 0.94920143296 0.12670281903 0.40235396518 -0.78142718301 -0.47695161638 
0.3830365502 -0.81807087805 -0.42900237726 0.42356458503 -0.75887451564 -0.49467414711 -0.014576679289 0.99945995091 -0.029450414927 
-0.16278687086 0.97072348586 0.17662488123 -0.14427373426 0.97926855725 0.14219065507 0.004071823558 0.97712655514 -0.21261964982 
0.21241263451 -0.90204708924 -0.37575513501 0.1579916415 -0.95061082464 -0.26716605565 0.13129673984 -0.95831850524 -0.25374555883 
0.13129673984 -0.95831850524 -0.25374555883 
