# vtk DataFile Version 4.2
vtk output
ASCII
DATASET POLYDATA
POINTS 64 float
0 0 0 -0.987095 0.00201445 0.346064 -1.91843 0.00116659 0.655447 
-2.88337 -0.00794853 0.973231 -3.82612 0.0175202 1.34748 -4.77585 0.0357308 1.70315 
-5.74132 0.0458268 2.01385 -6.71978 0.00772106 2.27618 -7.68676 -0.282257 2.35799 
-8.54079 -0.81359 2.24746 -9.20992 -1.52501 1.97831 -9.71053 -2.32935 1.61667 
-10.1009 -3.1727 1.20995 -10.4229 -4.03172 0.776757 -10.6851 -4.89521 0.313256 
-10.8635 -5.75146 -0.200369 -10.9083 -6.57671 -0.787571 -10.7713 -7.33231 -1.44901 
-10.4463 -7.99052 -2.14816 -9.96846 -8.56262 -2.83582 -9.37695 -9.09114 -3.46775 
-8.69984 -9.64286 -3.98085 -7.98493 -10.3369 -4.16875 -7.67689 -11.0347 -3.54768 
-7.91033 -11.3473 -2.61525 -8.39762 -11.3804 -1.7291 -9.05191 -11.1708 -0.985686 
-9.78649 -10.7652 -0.417022 -10.5214 -10.2382 0.0424035 -11.2106 -9.64308 0.489445 
-11.8097 -9.01831 1.01764 -12.2354 -8.42592 1.71958 -12.3499 -8.00208 2.62823 
-12.1017 -7.87924 3.59997 -11.6158 -8.02338 4.47672 -11.0026 -8.35848 5.21057 
-10.316 -8.85623 5.76462 -9.60546 -9.5215 6.04005 -8.99886 -10.3097 5.87588 
-8.62719 -11.0706 5.32209 -8.43511 -11.7697 4.61292 -8.33273 -12.4673 3.88348 
-8.25957 -13.2305 3.21968 -8.16285 -14.112 2.73014 -7.99407 -15.0936 2.55541 
-7.73316 -16.0499 2.75736 -7.38508 -16.8671 3.24381 -6.94177 -17.4959 3.90305 
-6.39298 -17.907 4.649 -5.7467 -18.1016 5.40512 -5.02568 -18.1179 6.11786 
-4.25927 -18.0142 6.77421 -3.47277 -17.8415 7.39139 -2.68114 -17.6319 7.99033 
-1.88813 -17.4033 8.5805 -1.08708 -17.1694 9.15758 -0.26681 -16.947 9.71172 
0.580696 -16.7583 10.2365 1.45437 -16.6256 10.7347 2.34418 -16.5694 11.2186 
3.23295 -16.6129 11.7065 4.09176 -16.7862 12.2191 4.85256 -17.1059 12.753 
5.49217 -17.6553 13.3688 
LINES 1 65
64 0 1 2 3 4 5 6 7 8 9 10 11 12 13 14 15 16 17 18 19 20 21 22 23 24 25 26 27 28 29 30 31 32 33 34 35 36 37 38 39 40 41 42 43 44 45 46 47 48 49 50 51 52 53 54 55 56 57 58 59 60 61 62 63 

CELL_DATA 1
FIELD FieldData 2
Length 1 1 double
63.816360574 
Tortuosity 1 1 double
1.7969237751 
POINT_DATA 64
SCALARS MaximumInscribedSphereRadius float
LOOKUP_TABLE default
0.62 0.812897 0.924967 0.927588 0.903015 0.8742 0.8742 0.956717 1.1325 
0.831047 0.748511 0.866214 0.702596 0.755178 0.946863 1.13835 1.24 1.21909 
1.07254 0.985809 1.16453 1.24 1.24 1.52335 1.6607 1.27054 1.49438 
1.581 1.57722 1.56067 1.55 1.55 1.55 1.55 1.45967 1.18981 
1.02772 1.00865 1.25198 1.64499 1.85117 1.84498 1.70519 1.44962 1.05111 
1.09941 1.17459 0.977857 1.08446 1.22709 1.25025 1.37569 1.59988 2.04716 
2.02762 1.66046 1.56196 1.39811 1.01154 1.23195 1.46092 1.33076 1.35548 
1.55 
TEXTURE_COORDINATES TCoords 2 float
0 0 0.015873 0 0.031746 0 0.047619 0 0.0634921 
0 0.0793651 0 0.0952381 0 0.111111 0 0.126984 0 
0.142857 0 0.15873 0 0.174603 0 0.190476 0 0.206349 
0 0.222222 0 0.238095 0 0.253968 0 0.269841 0 
0.285714 0 0.301587 0 0.31746 0 0.333333 0 0.349206 
0 0.365079 0 0.380952 0 0.396825 0 0.412698 0 
0.428571 0 0.444444 0 0.460317 0 0.47619 0 0.492063 
0 0.507937 0 0.52381 0 0.539683 0 0.555556 0 
0.571429 0 0.587302 0 0.603175 0 0.619048 0 0.634921 
0 0.650794 0 0.666667 0 0.68254 0 0.698413 0 
0.714286 0 0.730159 0 0.746032 0 0.761905 0 0.777778 
0 0.793651 0 0.809524 0 0.825397 0 0.84127 0 
0.857143 0 0.873016 0 0.888889 0 0.904762 0 0.920635 
0 0.936508 0 0.952381 0 0.968254 0 0.984127 0 
1 0 
FIELD FieldData 7
Curvature 1 64 double
0 0.016484732357 0.0085202328505 0.067812841094 0.02053356415 0.04700521436 0.067681233538 0.30925820315 0.3293431 
0.30229818806 0.21016220079 0.12229726878 0.07294705995 0.065355372605 0.095376608936 0.15224719732 0.20494257912 0.21169982804 
0.17229352189 0.13074405675 0.14510254282 0.35868426414 1.1416234965 0.85283056589 0.3855818948 0.32819519515 0.27261284295 
0.15986907146 0.080766207102 0.12181785558 0.24483962405 0.41836636488 0.49372624422 0.37394970612 0.26822617069 0.25069825308 
0.32658065227 0.48513967518 0.47081413466 0.24267818038 0.089575145681 0.094782244158 0.20858980151 0.3395579035 0.39444227288 
0.32927864938 0.27078099511 0.25442007394 0.23464620825 0.19465703306 0.13690896881 0.079660189751 0.040313072797 0.020378312385 
0.015785668055 0.031154129316 0.050882897506 0.065447703827 0.077351533627 0.097162880154 0.1321136924 0.17624761385 0.2629500514 
0 
Torsion 1 64 double
0 0 3.5557993754 0.066929991904 0.06702296491 0.35994709856 0.64924140981 0.037219963678 0.028894992967 
0.030421450491 0.027003957748 0.0031825546471 -0.10214750807 -0.18254400582 -0.073724044491 0.00017429648436 0.039853214048 0.092193059916 
0.22282435552 0.56726518855 0.83401254814 0.27383687368 0.048823727688 0.031121996812 0.031710622663 -0.01134704048 -0.085587734734 
-0.33896985268 -1.3184550733 -0.59505884306 -0.17926573439 -0.073610183002 -0.043989547185 -0.039420472635 -0.038710423979 -0.03490524267 
-0.029056514182 -0.027869441887 -0.051235495182 -0.19690020386 -1.1599897941 -0.90804265635 -0.19875701172 -0.091844399334 -0.092051502407 
-0.16055165506 -0.2250351078 -0.1953409466 -0.15925261355 -0.12782509631 -0.074405269066 0.024270082384 0.1313083169 -0.22965591507 
-1.1112782076 -0.4261959752 -0.27261411528 -0.28055954241 -0.30737743219 -0.26765639861 -0.17288125257 -0.12373240286 0 
0 
Abscissas 1 64 double
0 1.0460023568 2.0273764369 3.0433458573 4.0579797622 5.0722889936 6.0865669874 7.1003026669 8.1131313011 
9.1250118211 10.138076656 11.152149748 12.166583365 13.181102838 14.195593357 15.209884055 16.22372056 17.237232964 
18.250982888 19.265112446 20.279292101 21.292281161 22.306229222 23.289890172 24.300655151 25.312490137 26.324771359 
27.338394512 28.352741214 29.367186526 30.381187007 31.393546661 32.402699223 33.41310493 34.425829897 35.439138064 
36.452171134 37.46373658 38.471787525 39.483634456 40.497759382 41.512293768 42.52645486 43.539377067 44.550585059 
45.562163735 46.574940679 47.588066707 48.60129234 49.614844093 50.628813405 51.643171578 52.65771365 53.672301823 
54.686902648 55.701498253 56.716063385 57.73059038 58.745071499 59.759471465 60.774326258 61.789358267 62.772216976 
63.816332999 
ParallelTransportNormals 3 64 double
0.33084456627 0 0.9436852616 0.3152550586 8.7466139128e-06 0.94900697993 0.3128019871 -3.9604029701e-06 0.94981835992 
0.36895523778 -0.00048600339966 0.92944703793 0.35070584738 -6.4810527507e-05 0.93648566696 0.30634799522 0.00059079627235 0.95191940666 
0.2589598462 -9.2323407131e-05 0.96588808334 0.092656104758 -0.028147953095 0.99530022555 -0.066355907281 -0.099877632754 0.99278464535 
-0.18162070975 -0.19390756256 0.96406108467 -0.24017539567 -0.26977529994 0.93248971408 -0.26537641434 -0.31637668613 0.91075855812 
-0.27830893167 -0.34728128413 0.89551094256 -0.2903060128 -0.38265764902 0.87709494502 -0.30555555643 -0.44218462343 0.84327253052 
-0.31828282544 -0.53806282507 0.78050268372 -0.31132721037 -0.65728042938 0.68633651021 -0.27758342093 -0.76053458529 0.58697068837 
-0.23779190954 -0.82151784084 0.51823107291 -0.22006798241 -0.83976080203 0.49635861883 -0.25709727773 -0.80823088401 0.5297771493 
-0.45113880379 -0.63458425718 0.62751621513 -0.90286338656 -0.016185361544 0.42962278719 -0.9318497737 0.34301974656 -0.11829392514 
-0.80850816739 0.40221657455 -0.42957696681 -0.64032558364 0.37620939622 -0.66966382397 -0.47351692279 0.30233430759 -0.82727002259 
-0.38202121461 0.24426889332 -0.89128699045 -0.37492182668 0.23867494704 -0.8958057231 -0.43744534414 0.29787636879 -0.84847583336 
-0.55553770375 0.43815793157 -0.70667919646 -0.66391101384 0.64217952481 -0.38318092804 -0.63218958676 0.77218133944 0.063814617547 
-0.49784849086 0.76833707489 0.40224994655 -0.3520243051 0.70475840576 0.6159500614 -0.19040487333 0.60120176281 0.77608145488 
0.03476187325 0.41375260462 0.90972544998 0.3453688856 0.070888783441 0.93578582659 0.56928956785 -0.28355204303 0.77169140647 
0.63606339684 -0.45642527052 0.62217306888 0.64614247457 -0.50422897626 0.57293371523 0.64171174405 -0.46735291531 0.60810138143 
0.62695990387 -0.32453573931 0.70823571842 0.58683497304 -0.043028160204 0.80856248481 0.50887728749 0.30856533855 0.80363632205 
0.41252339449 0.58920950994 0.6947349152 0.30633336847 0.78324566716 0.5410047063 0.18371651217 0.91176503759 0.36733194713 
0.054532503887 0.97724972642 0.20496140671 -0.059314822267 0.99481144127 0.082655599811 -0.1406293274 0.99003152329 0.0078086593096 
-0.18984390969 0.98127451324 -0.032551798945 -0.21743501373 0.97459022425 -0.053813656324 -0.23175602251 0.97062924484 -0.064560166468 
-0.23493476819 0.96970700525 -0.066887806518 -0.22376908694 0.9728488563 -0.059097364883 -0.19375867443 0.98024628981 -0.039683590997 
-0.14437422391 0.9894692265 -0.010331180355 -0.077531770652 0.9966270889 0.0268936834 0.0082319012458 0.99724245109 0.07375452225 
0.11730642344 0.98371164773 0.13620057686 0.24393264639 0.94494480739 0.21811963463 0.39852777272 0.85002409082 0.34443382441 
0.39852777272 0.85002409082 0.34443382441 
FrenetTangent 3 64 double
-0.94629336632 0.00057543742412 0.32330872819 -0.94629336632 0.00057543742412 0.32330872819 -0.94940858428 -0.0049881684117 0.31400391441 
-0.94002729382 0.008058353682 0.34100403196 -0.93279161414 0.0215292718 0.35977256017 -0.94437214737 0.013957790879 0.32858245137 
-0.95910197525 -0.013819528688 0.28272322455 -0.97140848986 -0.16382073466 0.17183804213 -0.91147916517 -0.41109497474 -0.014375437192 
-0.7607618245 -0.62070895435 -0.18963607349 -0.5802669526 -0.7519148954 -0.31291253378 -0.4400716208 -0.81382496978 -0.37950742697 
-0.35134389977 -0.83961626881 -0.41424869975 -0.28808081951 -0.84940454079 -0.44217798172 -0.21742669737 -0.84865602309 -0.48219144096 
-0.1103780739 -0.83154173684 -0.54438499308 0.045720091629 -0.78391693321 -0.61918003444 0.22918825682 -0.70135931634 -0.67495766706 
0.3973941984 -0.60898547633 -0.68645068336 0.52835953214 -0.54381011413 -0.65200212006 0.62749111866 -0.53431358508 -0.56636021117 
0.69766564689 -0.62436156832 -0.35133356963 0.5744297437 -0.78157732198 0.24324341579 0.040222711624 -0.54478419327 0.83761107695 
-0.36281364989 -0.17402408046 0.91546811789 -0.57151676258 0.088362002919 0.81581906482 -0.69193308889 0.3064917469 0.65367530899 
-0.72696169128 0.46136038024 0.50859935014 -0.7025534281 0.55357344904 0.4471857748 -0.63632845004 0.60253928122 0.48169753815 
-0.5095465957 0.60519093199 0.61164221784 -0.2728931644 0.51336912163 0.81362243441 0.068117013008 0.27851960449 0.95801195319 
0.36907309543 -0.010708854171 0.92933867383 0.54738369256 -0.2386756095 0.80212533095 0.64653025999 -0.41426560927 0.64061113626 
0.69921248125 -0.58204459764 0.41512165979 0.67042280721 -0.73981495429 0.05663120146 0.49714220116 -0.78722901381 -0.36485628903 
0.28032077779 -0.72597454974 -0.62799778237 0.14529773166 -0.68918671281 -0.70986635648 0.086631036176 -0.72092203367 -0.68758016619 
0.084267542347 -0.8158400156 -0.5721049294 0.1330349187 -0.93354915192 -0.33284785017 0.21645209109 -0.97619694673 0.013711799897 
0.30487398159 -0.88785313333 0.34462830556 0.39422835764 -0.72031982958 0.5707217756 0.49357505844 -0.51735585179 0.69908982563 
0.59374127475 -0.30092786926 0.74626651819 0.67761748989 -0.10452013396 0.72794922831 0.73508293369 0.043193014569 0.67659991434 
0.766012116 0.13634202937 0.62820083506 0.77790480801 0.18844614399 0.59945989064 0.78097239866 0.21596204632 0.58603968046 
0.78558415086 0.22792986538 0.57524387732 0.79910189221 0.22489654621 0.55754614999 0.82219866305 0.20266787814 0.5318976308 
0.8487636167 0.15849147605 0.50446087558 0.86985401539 0.09317657942 0.48442968216 0.87753269687 0.0062665572588 0.47947585569 
0.86285390354 -0.1070426934 0.49398886924 0.81374614356 -0.24769966596 0.52579662353 0.69687705393 -0.43248504057 0.57211804847 
0.69687705393 -0.43248504057 0.57211804847 
FrenetNormal 3 64 double
-0.31886154346 -0.1669615344 -0.93297972225 -0.31886154346 -0.1669615344 -0.93297972225 -0.090712438807 -0.95289672851 -0.28941160697 
0.29996380859 0.49547422148 0.81518526077 -0.3448881195 -0.34316436921 -0.87366492475 -0.32616262478 -0.16788837047 -0.93028567508 
-0.19447715864 -0.69357161478 -0.69364043274 0.034170110453 -0.81272649432 -0.58164254399 0.34100866721 -0.73561660064 -0.5853044556 
0.61333886941 -0.59199415675 -0.52283682889 0.79206348086 -0.43160080807 -0.43168991737 0.8808235917 -0.30904640037 -0.35866435943 
0.91241636283 -0.20787080992 -0.35254234811 0.88988012477 -0.066892262131 -0.45126354694 0.85541602565 0.072249428441 -0.5128776103 
0.85806512712 0.19666951989 -0.47438943661 0.87260470777 0.33306746306 -0.35724933734 0.87392360422 0.45361693544 -0.17461159718 
0.86845145276 0.49123155731 0.066959923142 0.84890314072 0.32559420758 0.41635546071 0.58235520275 -0.16076381979 0.79687979776 
0.10397730642 -0.39696350652 0.91192581619 -0.4280478953 -0.033524556043 0.90313404513 -0.74005235789 0.54699476142 0.39130453431 
-0.66629101832 0.73526013561 -0.12429324957 -0.50936783869 0.74126217459 -0.43712102836 -0.28887809963 0.71224037136 -0.63973674035 
0.0010504600884 0.74141273511 -0.67104847273 0.55144871495 0.82068904988 -0.14957873572 0.71985359188 0.23933512919 0.65155928525 
0.69689177473 -0.12667088867 0.70590108392 0.75713460521 -0.40715909732 0.51085091667 0.76253704455 -0.63374289526 0.1300276832 
0.64036774212 -0.72177201479 -0.26262961278 0.46957824201 -0.70577283827 -0.5304535563 0.29063765184 -0.64264153151 -0.70890169792 
0.076480685459 -0.51642847332 -0.85290816428 -0.21682688558 -0.26833746747 -0.93860593715 -0.51967781233 0.066584913131 -0.85176371179 
-0.73460901014 0.25886900773 -0.62716540008 -0.97579099276 0.018719815425 -0.2179025171 -0.30000164923 -0.67701634785 0.67204752451 
0.11164107135 -0.56280201456 0.8190178042 0.2138191695 -0.30089096507 0.92937935736 0.23684883675 0.066131307209 0.96929318513 
0.26434827487 0.42652418991 0.86498387557 0.3484343116 0.69180328037 0.63245691692 0.41036286986 0.84725727398 0.337279449 
0.40941303891 0.91139208073 0.041778448493 0.37573633126 0.90010770779 -0.22051830706 0.32181010414 0.856151088 -0.40428154965 
0.24368131412 0.84272255279 -0.4800397027 0.12348997507 0.88952511075 -0.4398810105 0.064246267297 0.90555997999 -0.41932510035 
0.49505875329 0.32616460118 -0.80531576647 0.59992355627 -0.35859423999 -0.71519360853 0.5212029483 -0.64364238329 -0.56042124257 
0.38983884076 -0.83211408685 -0.3944766466 0.20323307403 -0.96247946229 -0.17980434447 -0.013768047314 -0.99917308117 0.038256956628 
-0.22269141094 -0.9578602378 0.18141747526 -0.41107545654 -0.88481326448 0.21936831137 -0.61916315943 -0.76537549402 0.17560562394 
-0.61916315943 -0.76537549402 0.17560562394 
FrenetBinormal 3 64 double
0.053443249894 -0.98596324217 0.15817807729 0.053443249894 -0.98596324217 0.15817807729 0.30065693662 -0.30325392492 0.90423584506 
-0.16238965611 0.86858526282 -0.46817650604 0.10465175405 -0.93902859709 0.32752603594 0.042180439417 -0.98570719544 0.16310161065 
0.20567458725 -0.72025511855 0.66251832304 0.23494243844 -0.55914078041 0.79508718912 0.23004091015 -0.53839496524 0.81068615448 
0.21226605394 -0.51406547478 0.83107148308 0.18954077663 -0.49834198354 0.846008015 0.17460460726 -0.49211710088 0.85283878321 
0.20989007819 -0.50183089536 0.83911376317 0.3537270204 -0.52348576997 0.77513859643 0.4700947291 -0.52398757099 0.71024500781 
0.50153855128 -0.51947997058 0.69180896333 0.48628252817 -0.52396594057 0.69927748134 0.42863769891 -0.54984250951 0.71689813629 
0.29642861752 -0.62275857819 0.72408689258 -0.014130196991 -0.7734720239 0.63367291702 -0.51683393254 -0.82985781134 0.21028242705 
-0.70883803855 -0.67275003269 -0.21202836747 -0.69771446086 -0.62290689024 -0.35381002982 -0.67134539624 -0.63561538193 -0.38116721422 
-0.65147719404 -0.65506347204 -0.3827130952 -0.64336070364 -0.66537398879 -0.3786349958 -0.66164797593 -0.63148749987 -0.40428392679 
-0.6866772138 -0.48729226935 -0.53946329651 -0.44980328528 0.1415129673 -0.88184527251 0.27730292088 0.76135741313 -0.58603581763 
0.50468219815 0.7859379249 -0.35720786255 0.59352886233 0.75542942386 -0.27757859275 0.64334852781 0.72166250604 -0.2555501891 
0.67358310926 0.69204803237 -0.25952902693 0.69272459733 0.66702222916 -0.27425166921 0.70535691551 0.64451211544 -0.29508601253 
0.71081123431 0.62811282291 -0.31657806442 0.70959098166 0.61698366021 -0.34031133066 0.69482703114 0.61305540464 -0.37600328142 
0.61787528172 0.63714032203 -0.46074108378 0.16346408664 0.72434193817 -0.66978223997 -0.94999688106 0.14805501043 -0.27492842679 
-0.99016930496 -0.13288702474 0.043655310798 -0.96777222173 -0.19480915814 0.15958169927 -0.94712782706 -0.20655791294 0.245525371 
-0.91497095305 -0.17260918011 0.36473857216 -0.85039845516 -0.050473402638 0.52371261498 -0.76680243657 0.12040778339 0.6304886906 
-0.69271369427 0.28072565378 0.66433488925 -0.63218410829 0.42294403409 0.64920073726 -0.59673389167 0.51491715645 0.61544210494 
-0.59484859863 0.52079703344 0.61231168098 -0.61612850586 0.41621283997 0.66869465088 -0.62125238805 0.3651321914 0.69334259435 
-0.37117970407 0.91742281932 0.14339106627 0.039088265489 0.90599763496 -0.4214740715 0.22877247465 0.73800420975 -0.63483300263 
0.35724781485 0.53147586821 -0.76805429515 0.44950006622 0.25485566448 -0.85615318767 0.47931910748 -0.040173176591 -0.8767207703 
0.45375288058 -0.26654385498 -0.85033093366 0.41089436947 -0.39465220446 -0.82183663501 0.36193832858 -0.47660994832 -0.80115142355 
0.36193832858 -0.47660994832 -0.80115142355 
