# vtk DataFile Version 4.2
vtk output
ASCII
DATASET POLYDATA
POINTS 64 float
0 0 0 -1.03149 0.12702 0.11463 -1.99991 0.0926968 0.210229 
-2.99554 -0.122507 0.327855 -3.89652 -0.549987 0.499243 -4.67384 -1.14695 0.759942 
-5.33216 -1.83479 1.10991 -5.92106 -2.55102 1.52164 -6.49146 -3.26431 1.96359 
-7.08205 -3.9605 2.40606 -7.72085 -4.63408 2.81524 -8.42747 -5.28834 3.1379 
-9.15145 -5.99776 3.13409 -9.30859 -6.78063 2.56837 -9.03231 -7.57194 1.98293 
-8.75053 -8.40834 1.48327 -8.48493 -9.25401 0.989936 -8.18663 -10.0646 0.457565 
-7.78639 -10.7995 -0.115244 -7.2262 -11.4424 -0.66416 -6.46195 -11.9967 -1.03391 
-5.57432 -12.4336 -0.882006 -4.99151 -12.6373 -0.0850519 -4.81766 -12.6533 0.915227 
-4.85596 -12.5967 1.92707 -5.01067 -12.5287 2.92739 -5.23448 -12.5009 3.91655 
-5.49982 -12.5771 4.89263 -5.7806 -12.8392 5.831 -6.03865 -13.3425 6.67202 
-6.2383 -14.0419 7.37867 -6.36907 -14.8435 7.98646 -6.43109 -15.6829 8.55294 
-6.41814 -16.5248 9.11893 -6.31439 -17.3479 9.70273 -6.09599 -18.1381 10.3001 
-5.73527 -18.8825 10.887 -5.21118 -19.5615 11.4281 -4.52517 -20.1452 11.8938 
-3.70669 -20.6041 12.2785 -2.79883 -20.9205 12.6015 -1.84187 -21.0871 12.8935 
-0.869706 -21.1025 13.1825 0.0886792 -20.9743 13.489 1.0132 -20.7271 13.8255 
1.89976 -20.4047 14.1988 2.7606 -20.0654 14.6151 3.61319 -19.7744 15.0815 
4.46298 -19.5914 15.6042 5.29307 -19.5475 16.1854 6.07103 -19.6311 16.8309 
6.75742 -19.8085 17.5563 7.29946 -20.057 18.3765 7.63633 -20.3848 19.2747 
7.74511 -20.8302 20.1788 7.67482 -21.4261 20.996 7.51161 -22.1625 21.6738 
7.32579 -22.997 22.2197 7.15416 -23.887 22.6756 7.00717 -24.7994 23.0949 
6.87892 -25.7044 23.5307 6.74738 -26.5764 24.0534 6.60296 -27.3285 24.6574 
6.39449 -27.942 25.4769 
LINES 1 65
64 0 1 2 3 4 5 6 7 8 9 10 11 12 13 14 15 16 17 18 19 20 21 22 23 24 25 26 27 28 29 30 31 32 33 34 35 36 37 38 39 40 41 42 43 44 45 46 47 48 49 50 51 52 53 54 55 56 57 58 59 60 61 62 63 

CELL_DATA 1
FIELD FieldData 2
Length 1 1 double
63.854880252 
Tortuosity 1 1 double
0.66505850786 
POINT_DATA 64
SCALARS MaximumInscribedSphereRadius float
LOOKUP_TABLE default
1.55 1.41177 1.25632 1.08381 0.995145 1.14403 1.15509 1.00499 1.04021 
1.2068 1.38345 1.49155 1.5843 1.63726 1.02578 1.20211 1.4973 1.83959 
1.80137 1.59277 1.85726 1.98783 2.06188 2.15762 2.16994 2.10757 1.94017 
1.76484 1.58223 1.71353 1.82169 1.6476 1.63314 1.78526 1.67508 1.3954 
1.50113 1.72688 1.4997 1.26257 1.34551 1.43003 1.51763 1.44108 1.32195 
1.7732 2.29281 2.30931 2.22926 2.39474 2.39333 2.16604 1.81931 1.63406 
1.84254 2.19096 2.25802 1.81959 1.72073 2.03854 2.18681 2.17408 2.17 
2.17 
TEXTURE_COORDINATES TCoords 2 float
0 0 0.015873 0 0.031746 0 0.047619 0 0.0634921 
0 0.0793651 0 0.0952381 0 0.111111 0 0.126984 0 
0.142857 0 0.15873 0 0.174603 0 0.190476 0 0.206349 
0 0.222222 0 0.238095 0 0.253968 0 0.269841 0 
0.285714 0 0.301587 0 0.31746 0 0.333333 0 0.349206 
0 0.365079 0 0.380952 0 0.396825 0 0.412698 0 
0.428571 0 0.444444 0 0.460317 0 0.47619 0 0.492063 
0 0.507937 0 0.52381 0 0.539683 0 0.555556 0 
0.571429 0 0.587302 0 0.603175 0 0.619048 0 0.634921 
0 0.650794 0 0.666667 0 0.68254 0 0.698413 0 
0.714286 0 0.730159 0 0.746032 0 0.761905 0 0.777778 
0 0.793651 0 0.809524 0 0.825397 0 0.84127 0 
0.857143 0 0.873016 0 0.888889 0 0.904762 0 0.920635 
0 0.936508 0 0.952381 0 0.968254 0 0.984127 0 
1 0 
FIELD FieldData 7
Curvature 1 64 double
0 0.1568178759 0.17845679424 0.23272837717 0.22503291664 0.17070866676 0.094622874572 0.034550667653 0.025713023722 
0.061073609792 0.10865370524 0.3308924237 0.96266911778 0.45248915285 0.093489747747 0.019138438723 0.060133652233 0.13006651223 
0.18245666272 0.28341815032 0.58383618428 0.86447936657 0.51285359397 0.22073475096 0.11462197503 0.078548046159 0.10989480902 
0.18668223367 0.25835627821 0.2416900789 0.15452136576 0.08631621827 0.072975833372 0.09194102664 0.11707124093 0.14647322727 
0.1782120449 0.19884955521 0.19560679181 0.17556181442 0.15716211634 0.14856494369 0.14197035226 0.12421273335 0.089504125529 
0.051403113405 0.068166087096 0.11882100701 0.1487577353 0.14858829257 0.15007323356 0.1831285613 0.23007495941 0.25385078466 
0.24653607242 0.21517493347 0.16239547613 0.10394883169 0.048085958212 0.025254354879 0.088964804676 0.13726927961 0.25398835317 
0 
Torsion 1 64 double
0 0 0.1895704415 0.1629661452 0.18223230521 0.19169623386 0.28078097546 0.96056722127 1.3135309612 
0.41444700111 0.97941956728 0.74043483443 0.27200950756 0.57596695006 2.304251658 2.7957619159 0.47396793992 0.37165519619 
0.51244311349 0.5365928771 0.23662175146 0.10271965982 0.080152186725 0.1420862867 0.40389806492 0.8302363902 0.43200451366 
0.15206617404 0.083660715591 0.10390140934 0.24350770055 0.61167041378 0.53361704837 0.10222668438 -0.08667551641 -0.1166840324 
-0.058501569101 0.023189701212 0.10578933631 0.18642456392 0.23003253349 0.20818513964 0.1694433967 0.1730772549 0.32674353997 
1.1176430204 0.6091466504 0.096777935096 -0.081487408448 -0.24396264751 -0.29594659955 -0.088085059317 0.12964730564 0.27231511184 
0.3258630837 0.29351292049 0.25532722342 0.27453733388 0.64617085608 2.1847776787 0.21003888015 0.13006159428 0 
0 
Abscissas 1 64 double
0 1.0455836132 2.0193112683 3.0447041866 4.0565755418 5.0707554315 6.0851406581 7.0996873591 8.1143142715 
9.1288359437 10.143327049 11.158947119 12.17257995 13.151159679 14.173529487 15.187739684 16.202176856 17.21676804 
18.230890634 19.244979315 20.258900698 21.259860564 22.267957232 23.28335866 24.297504733 25.312005885 26.326547431 
27.340915803 28.354847807 29.368375279 30.382450019 31.396890695 32.41143678 33.425956288 34.440414806 35.454799292 
36.469071222 37.483150791 38.497199726 39.511331706 40.52557237 41.539869068 42.554185757 43.568539206 44.582978435 
45.597522259 46.612110246 47.626602846 48.640926878 49.655209986 50.669546357 51.683835353 52.69787864 53.711617617 
54.725323618 55.739140328 56.753250457 57.767635514 58.78219295 59.796996766 60.809644994 61.834807484 62.81012108 
63.85491203 
ParallelTransportNormals 3 64 double
0.11045055382 0 0.9938816203 0.098220576088 0.00053235497863 0.99516452661 0.11672080938 0.0028395506311 0.99316070684 
0.17625123452 0.023062844604 0.98407500097 0.26376235273 0.076465312808 0.96155211883 0.34127305361 0.14583142279 0.92858273676 
0.38797244461 0.19840341433 0.90006303524 0.40766550024 0.22268665977 0.88556168135 0.40543557604 0.21997944729 0.88726041073 
0.37905913452 0.1905912446 0.90553252289 0.31336745029 0.12575560687 0.94126848903 0.084931737625 -0.092000632538 0.9921302755 
-0.18302526321 -0.55141181521 0.81390832596 -0.17792207828 -0.6246623005 0.76035566966 -0.20294951788 -0.55165852565 0.80900207927 
-0.20654236243 -0.54061802432 0.81551971423 -0.19075868681 -0.5869763301 0.78680995882 -0.15814137808 -0.65913814022 0.73520624089 
-0.12591546161 -0.7053674896 0.69756863544 -0.15012061214 -0.6834890699 0.71435739874 -0.3925756095 -0.53817364091 0.74582405637 
-0.7938365151 -0.36326461221 0.48771139909 -0.93337684107 -0.32271066201 0.15705254274 -0.94512639207 -0.32623424392 -0.017530576334 
-0.93510714177 -0.33270387321 -0.1219949432 -0.92048574662 -0.3364028829 -0.19884438803 -0.90241816769 -0.33461323971 -0.27143218387 
-0.87927879146 -0.32027876983 -0.35254831794 -0.85485420269 -0.28558081276 -0.43320652294 -0.84033365864 -0.24742840684 -0.48230542777 
-0.83789626695 -0.23635671721 -0.49200136998 -0.84055633785 -0.2589986551 -0.47579905376 -0.84203954791 -0.30981596488 -0.44156932374 
-0.83691780075 -0.38288674509 -0.39110910911 -0.81902923802 -0.47246969391 -0.32552034592 -0.78088587225 -0.5735436834 -0.24751746959 
-0.71421007345 -0.68080130219 -0.16252248438 -0.61421276209 -0.78514349855 -0.079324457558 -0.48650880286 -0.87364651459 -0.0071380870596 
-0.34480792105 -0.9372895314 0.050949307322 -0.19985993582 -0.97483520609 0.098753870863 -0.057696236707 -0.98824602451 0.14156602457 
0.072959973404 -0.98061205615 0.18187038687 0.17750974752 -0.9597663976 0.21757470345 0.23995862308 -0.94012343418 0.24204914318 
0.24982252689 -0.93638849215 0.24650618011 0.20358104366 -0.95339751356 0.22268349694 0.10820565339 -0.97995597976 0.16726569973 
-0.010083790345 -0.99593259817 0.089535339788 -0.11475071264 -0.99334705953 0.0096898543447 -0.18956159811 -0.98001262063 -0.060346200565 
-0.24454030777 -0.96094983601 -0.12952007775 -0.29492372236 -0.92791274421 -0.2280305618 -0.33348439438 -0.86101500691 -0.38398088049 
-0.33772077062 -0.74644606103 -0.57337854779 -0.31289200458 -0.60477195047 -0.73235884742 -0.28503821362 -0.4794031578 -0.83001555954 
-0.26811944008 -0.39777842334 -0.87743050538 -0.26278965214 -0.36762957895 -0.89207067624 -0.26578687055 -0.38742151903 -0.88275812431 
-0.2768248626 -0.4629408251 -0.84205331655 -0.29397366185 -0.56356410754 -0.77199415984 -0.33212118169 -0.71262865588 -0.61794491623 
-0.33212118169 -0.71262865588 -0.61794491623 
FrenetTangent 3 64 double
-0.99346540426 0.046047604566 0.10443231611 -0.99346540426 0.046047604566 0.10443231611 -0.98632227032 -0.12530946012 0.10707902817 
-0.93738925266 -0.31764302399 0.14284361484 -0.83365830124 -0.50886929951 0.21462961768 -0.71033913574 -0.63570656444 0.30215141265 
-0.61542139887 -0.69281653197 0.37584804755 -0.57140456219 -0.70459267942 0.42076832392 -0.57220571206 -0.6946767217 0.43589548679 
-0.60619388789 -0.67541311923 0.41993581492 -0.66373532686 -0.65506246364 0.3610382038 -0.7145943218 -0.68116719551 0.15926772117 
-0.48301994729 -0.81805664295 -0.31220996052 0.060978346883 -0.80569412651 -0.58918470425 0.27432725041 -0.80013896147 -0.53340622608 
0.26983759774 -0.8291976629 -0.48950884229 0.27804145554 -0.81664979134 -0.50574308428 0.34507190261 -0.76345678886 -0.54594790371 
0.47554054548 -0.68219407834 -0.55540294299 0.65963795333 -0.59626592258 -0.45754204189 0.85204589944 -0.51126482634 -0.11236575366 
0.7890446868 -0.34374844662 0.50916155361 0.3855871354 -0.11195707616 0.91585379516 0.067200741414 0.020127906761 0.99753642927 
-0.095302662623 0.061523913609 0.99354527353 -0.1866991327 0.047251592886 0.9812801439 -0.24146274829 -0.023892012335 0.97011592757 
-0.27044227967 -0.16752825022 0.94804813103 -0.26799815967 -0.38068750484 0.88501638972 -0.22739750166 -0.59753338921 0.76892406974 
-0.16338352614 -0.74220303251 0.64995421525 -0.095108322122 -0.80954822484 0.5792979188 -0.02419949395 -0.82915607002 0.55849314771 
0.057578704656 -0.82149778175 0.56729717728 0.15906579734 -0.79658885182 0.58321888967 0.28625605837 -0.75854439025 0.58537840503 
0.43797422965 -0.70457264718 0.55835110729 0.59964746796 -0.6257130562 0.4989048862 0.74541090368 -0.51656334471 0.42133703323 
0.85443766195 -0.3837278849 0.3502701703 0.92219919446 -0.23885522393 0.30413291131 0.95363337966 -0.089969505427 0.28720874862 
0.95408627459 0.055745632043 0.29429883647 0.92993398141 0.18540368883 0.31756615435 0.89352783721 0.28102247045 0.35019191201 
0.86143394255 0.32620571178 0.38925749347 0.84493856227 0.3108172657 0.43528318751 0.84063352585 0.23406028015 0.48841689209 
0.83043649833 0.11216642611 0.54570497075 0.79491649939 -0.019624902241 0.60640137055 0.72391468379 -0.12902753553 0.67771633127 
0.60821507421 -0.21086960005 0.76525057025 0.43632977454 -0.28610060805 0.85309013001 0.22158941885 -0.3844566791 0.89615355344 
0.019128907283 -0.51751160301 0.85546234614 -0.11581897137 -0.66083783553 0.74153848249 -0.17264779256 -0.77704609097 0.60530332251 
-0.17641861516 -0.8511223219 0.49443631074 -0.15704622156 -0.88839509069 0.43138225177 -0.13576755692 -0.89646855415 0.42179533178 
-0.12761925707 -0.8729323963 0.47085279728 -0.13826871979 -0.81375010865 0.56452858369 -0.17609879541 -0.68145958325 0.71035346881 
-0.17609879541 -0.68145958325 0.71035346881 
FrenetNormal 3 64 double
-0.053782611183 -0.99591709993 -0.072502143448 -0.053782611183 -0.99591709993 -0.072502143448 0.13543500616 -0.98639454647 0.093183463157 
0.34381485183 -0.90944150969 0.23389631917 0.55084561112 -0.73813741042 0.38951543749 0.68351052324 -0.52053511481 0.51171921878 
0.71551842521 -0.29106633729 0.63506989417 0.52150394669 0.084134746865 0.84909067711 -0.76509665393 0.64356371274 0.021280455507 
-0.76794748212 0.35976110792 -0.5299326466 -0.60096958605 0.17968288722 -0.77881295359 -0.056709720222 -0.17051706839 -0.98372147329 
0.68491662517 -0.13085150824 -0.71677548742 0.99781863483 0.064162123536 0.015530418046 0.080021029807 -0.53376817727 0.84183618817 
-0.82480820692 -0.46136471991 0.32685473381 0.52797150826 0.56976719543 -0.62977093413 0.76640627551 0.56497652494 -0.30565167613 
0.85958315994 0.49457431881 0.12850305183 0.71485304945 0.30976195962 0.62692315803 0.2458939753 0.20141122531 0.9481401116 
-0.41428146228 0.31425826912 0.85417364177 -0.83418343047 0.38187201761 0.3978841119 -0.9445137762 0.32347039656 0.05710191867 
-0.99016812209 0.096806395689 -0.10097332198 -0.85594793934 -0.49806449539 -0.13887002401 -0.36873230513 -0.92245711792 -0.11449608182 
-0.081740756494 -0.97719195179 -0.1959957604 0.086618718382 -0.92442070582 -0.37140753394 0.23911037788 -0.7996982627 -0.55073488706 
0.43631615096 -0.64523600418 -0.62713532457 0.77551375187 -0.4251105732 -0.46675413357 0.99941838537 -0.033491768287 -0.0064181338935 
0.96172359614 0.19812816939 0.18929594057 0.95511961546 0.27368816209 0.11331950451 0.94984691982 0.30492763452 -0.069353922837 
0.89868419743 0.3592750957 -0.25157129983 0.80026221793 0.47026743545 -0.37206037373 0.66442082323 0.62686591986 -0.40692024793 
0.49849031564 0.79549580457 -0.34451970934 0.30520194967 0.93250796702 -0.19308200682 0.099820362361 0.99480825122 -0.019810062148 
-0.094879797283 0.98817964885 0.1204109865 -0.26671649801 0.93458673224 0.23539318088 -0.41393407405 0.8177420606 0.39994562714 
-0.48794365394 0.31900801424 0.81249300146 -0.11560348114 -0.68846065537 0.71600122986 -0.022060403885 -0.88625075037 0.46268017686 
-0.12923880975 -0.91401572757 0.38454203908 -0.34321852932 -0.83872762867 0.42277299588 -0.5963045421 -0.61104576286 0.52061883251 
-0.77208327356 -0.38098491745 0.50866286611 -0.87856802446 -0.34015047932 0.33528477123 -0.88854587742 -0.45820408504 0.023135258059 
-0.71762321849 -0.60287085828 -0.34865978334 -0.42484713635 -0.64186550458 -0.63836790706 -0.13596190807 -0.58984829252 -0.79598577334 
0.13339870375 -0.51835441988 -0.84469727194 0.49873142186 -0.44835528122 -0.74178467944 0.71057945022 0.20856385006 0.67199550994 
-0.018346123346 0.47673101957 0.87885775569 -0.1447747069 0.58048773306 0.80129537376 -0.20314997615 0.73125522957 0.65114965747 
-0.20314997615 0.73125522957 0.65114965747 
FrenetBinormal 3 64 double
0.10066737937 -0.077645013903 0.9918857447 0.10066737937 -0.077645013903 0.9918857447 0.093945399967 0.10641117378 0.98987419601 
0.055612378604 0.2683636521 0.96171108633 -0.03978629763 0.44295056085 0.89566279992 -0.16802284625 0.57001785777 0.80426859006 
-0.33059020706 0.65976180575 0.67485144637 -0.63366431168 0.70460662818 0.31937288493 -0.29530955492 -0.32132538021 -0.89974566784 
0.20684688779 -0.64373058308 -0.73676678903 0.44529874524 -0.7338986502 -0.51293449749 0.69723666203 -0.71199380696 0.083221727758 
0.54550980476 -0.56005465065 0.6235044837 0.025290575178 -0.58884649648 0.80784911363 -0.95830120237 -0.27362232232 -0.082399212744 
-0.49686929131 0.3155532143 -0.80842258522 0.80245812069 -0.09191551182 0.5895867224 0.54179959661 -0.31294609409 0.78007559846 
0.18702401119 -0.53852342814 0.82159268289 -0.2320837957 -0.74061763275 0.6305732581 -0.46211896538 -0.83548895604 0.29732854921 
-0.45362909104 -0.88491736662 0.10555520841 -0.39428487841 -0.91740905558 0.053852199509 -0.32152416227 -0.94602419098 0.040748535696 
-0.10239381082 -0.99339988414 0.051693110734 0.48217896987 -0.86585163013 0.13343311288 0.8976258844 -0.3853596208 0.21392927409 
0.95925983034 -0.13049971167 0.25058013321 0.95951768303 -0.022877550157 0.28071771169 0.94398972634 0.058621987486 0.32472582151 
0.88483560044 0.1811219408 0.42925610393 0.62412565058 0.40486129997 0.6682473345 0.024026557769 0.55801300433 0.82948430457 
-0.2679037465 0.53468366637 0.80146176423 -0.24988916 0.53901854429 0.80437206355 -0.12589002323 0.57587285553 0.80778843537 
-0.023351390828 0.61196306298 0.79054153723 -0.0018156878274 0.6223597918 0.78272919508 -0.053921742599 0.58326788821 0.81048813456 
-0.14643663157 0.46897690269 0.87098620981 -0.23748771686 0.27088202865 0.93285717605 -0.28393533146 0.047560817878 0.95766314336 
-0.28410773433 -0.14280548348 0.94809777406 -0.25315035041 -0.30360025047 0.91855418349 -0.17397294755 -0.50231891606 0.84700007089 
0.14086359784 -0.88984477324 0.43397433835 0.52222089305 -0.6552973015 -0.54577539842 0.54115488892 -0.39971914232 -0.73984862875 
0.54191563209 -0.38986400528 -0.74453576481 0.50030870483 -0.54419741649 -0.67345406061 0.34694152773 -0.7810089441 -0.5192847057 
0.1842873902 -0.90021358824 -0.39452966094 0.19425383971 -0.89579243885 -0.39977662796 0.40172671453 -0.80140007384 -0.44314057418 
0.69616880222 -0.60723016147 -0.38291060291 0.8978256382 -0.38897561513 -0.20641485952 0.97555476488 -0.21972338136 -0.003812663536 
0.97523395042 -0.083063160005 0.2049859834 0.85241037836 0.098649402676 0.51348304958 -0.69039410152 0.39095428361 0.60869592796 
-0.9916535408 0.10352085035 -0.076854983954 -0.97975611525 0.029064625261 -0.19807372917 -0.96318186312 -0.029641619938 -0.26721166315 
-0.96318186312 -0.029641619938 -0.26721166315 
