# vtk DataFile Version 4.2
vtk output
ASCII
DATASET POLYDATA
POINTS 64 float
0 0 0 -0.885337 0.553059 0.0236862 -1.80455 0.788084 0.25876 
-2.77201 0.842683 0.585578 -3.71737 0.740922 0.93571 -4.65262 0.533985 1.27004 
-5.57396 0.243238 1.57969 -6.47357 -0.116159 1.88109 -7.34054 -0.528761 2.20881 
-8.16476 -0.976404 2.59544 -8.94683 -1.44603 3.03949 -9.71124 -1.94927 3.4773 
-10.4952 -2.53382 3.74729 -11.2307 -3.21048 3.60444 -11.7602 -3.89144 3.07353 
-12.0625 -4.55513 2.36934 -12.1655 -5.22067 1.61106 -12.0956 -5.90051 0.86166 
-11.8808 -6.60356 0.162804 -11.5482 -7.34093 -0.44953 -11.1232 -8.12835 -0.923314 
-10.6318 -8.98943 -1.15396 -10.2362 -9.78951 -0.705168 -10.269 -9.93827 0.289953 
-10.487 -9.72292 1.25302 -10.7568 -9.37837 2.16951 -11.0341 -8.99217 3.0656 
-11.2921 -8.62278 3.97464 -11.5009 -8.33584 4.9249 -11.6227 -8.21979 5.92468 
-11.6233 -8.36741 6.92685 -11.509 -8.79596 7.83792 -11.3254 -9.42911 8.60838 
-11.1146 -10.1806 9.25628 -10.897 -10.995 9.82072 -10.6776 -11.8413 10.3356 
-10.4523 -12.7012 10.8247 -10.2114 -13.5639 11.3013 -9.94034 -14.4218 11.7702 
-9.6199 -15.2675 12.2301 -9.22606 -16.0882 12.6778 -8.73277 -16.8606 13.1126 
-8.12056 -17.5479 13.5386 -7.38813 -18.1049 13.9649 -6.56009 -18.4934 14.4028 
-5.67844 -18.6993 14.8598 -4.78303 -18.7366 15.3347 -3.89905 -18.6362 15.8221 
-3.03596 -18.4353 16.316 -2.19084 -18.1731 16.8124 -1.35424 -17.8892 17.3113 
-0.51621 -17.6222 17.8171 0.327741 -17.4096 18.3385 1.1716 -17.2874 18.8881 
1.99487 -17.2881 19.4805 2.76128 -17.4341 20.1284 3.42197 -17.7329 20.8373 
3.92312 -18.1718 21.6016 4.22762 -18.7091 22.4058 4.3334 -19.2827 23.2355 
4.26817 -19.8287 24.086 4.08314 -20.2832 24.9844 3.8556 -20.5855 25.885 
3.70434 -20.5936 26.9184 
LINES 1 65
64 0 1 2 3 4 5 6 7 8 9 10 11 12 13 14 15 16 17 18 19 20 21 22 23 24 25 26 27 28 29 30 31 32 33 34 35 36 37 38 39 40 41 42 43 44 45 46 47 48 49 50 51 52 53 54 55 56 57 58 59 60 61 62 63 

CELL_DATA 1
FIELD FieldData 2
Length 1 1 double
63.872538084 
Tortuosity 1 1 double
0.873410185 
POINT_DATA 64
SCALARS MaximumInscribedSphereRadius float
LOOKUP_TABLE default
1.2772 1.05729 1.04759 1.20764 1.24 1.15794 1.04875 1.16316 1.30434 
1.38737 1.38513 1.34936 1.22847 1.28719 1.40755 0.865385 0.910001 1.31137 
1.81907 2.04294 1.69082 1.55 1.76431 1.67893 1.65755 1.78726 1.68075 
1.49111 1.35155 1.58012 1.83402 1.86 1.85312 1.75601 1.65068 1.90314 
2.19115 2.1569 1.94209 1.65135 1.74336 1.94978 2.12542 2.12601 1.94165 
1.64059 1.89708 2.02242 1.68616 1.55363 1.58296 1.92832 2.07536 1.90394 
2.32963 2.63195 2.06624 1.86 1.86 1.82862 1.46962 1.35811 1.52586 
1.55 
TEXTURE_COORDINATES TCoords 2 float
0 0 0.015873 0 0.031746 0 0.047619 0 0.0634921 
0 0.0793651 0 0.0952381 0 0.111111 0 0.126984 0 
0.142857 0 0.15873 0 0.174603 0 0.190476 0 0.206349 
0 0.222222 0 0.238095 0 0.253968 0 0.269841 0 
0.285714 0 0.301587 0 0.31746 0 0.333333 0 0.349206 
0 0.365079 0 0.380952 0 0.396825 0 0.412698 0 
0.428571 0 0.444444 0 0.460317 0 0.47619 0 0.492063 
0 0.507937 0 0.52381 0 0.539683 0 0.555556 0 
0.571429 0 0.587302 0 0.603175 0 0.619048 0 0.634921 
0 0.650794 0 0.666667 0 0.68254 0 0.698413 0 
0.714286 0 0.730159 0 0.746032 0 0.761905 0 0.777778 
0 0.793651 0 0.809524 0 0.825397 0 0.84127 0 
0.857143 0 0.873016 0 0.888889 0 0.904762 0 0.920635 
0 0.936508 0 0.952381 0 0.968254 0 0.984127 0 
1 0 
FIELD FieldData 7
Curvature 1 64 double
0 0.38305248939 0.20527129237 0.15473369585 0.1042102542 0.0861150894 0.070505192183 0.065886920381 0.078612077702 
0.072521762344 0.037397910454 0.18374826181 0.4349099185 0.45093357752 0.28444734386 0.2029693428 0.17013357068 0.15175988774 
0.14670055345 0.1705298803 0.25906110334 0.76646534426 1.2216730022 0.42004904182 0.14367673305 0.045610491976 0.027874699211 
0.1017992477 0.19443733519 0.28848427558 0.31647033386 0.25497482571 0.16895668567 0.10204799296 0.057334675518 0.028893780247 
0.019611197547 0.030603736629 0.050213900967 0.076377987291 0.1084939436 0.14313975959 0.17369289855 0.19047053189 0.18764181498 
0.1665439397 0.13547947304 0.10019709476 0.062172113111 0.022777862175 0.017788077532 0.055320900279 0.092211743811 0.12859893027 
0.16208333183 0.19194836988 0.21595447573 0.22006147301 0.20000872821 0.17111477788 0.15311759496 0.15176550934 0.32651065788 
0 
Torsion 1 64 double
0 0 -0.20975263985 -0.21473237254 -0.25215169437 0.020115420098 0.36706855959 0.55819718481 0.2537475807 
-0.16520070511 -2.9757788437 -0.13368029395 0.039441119357 0.12317560128 0.28732820623 0.31444665026 0.25787244836 0.25606724445 
0.29964378299 0.30569686511 0.28378118977 0.047375376954 0.001310628798 -0.044569463331 -0.10846142786 -0.42472025239 -0.95986585727 
-0.10319544916 -0.057080003772 -0.050398215402 -0.054436715085 -0.066667090153 -0.076535377884 -0.05873905476 0.029846362612 0.39837781514 
0.85517942801 0.23787631981 0.072508758376 0.08112822852 0.11097686122 0.13057075875 0.13819960122 0.13316219269 0.11044024751 
0.079134968539 0.051080418088 0.028719982481 0.032713776871 0.34483544389 0.4992778487 -0.046905555787 -0.10044091363 -0.12061082505 
-0.12719313532 -0.12623903468 -0.12988509423 -0.15650473942 -0.21903681275 -0.37198029456 -0.48935519017 -0.81446241617 0 
0 
Abscissas 1 64 double
0 1.0441536604 2.0216231758 3.0442516682 4.0574905376 5.0720346462 6.0865686536 7.101112997 8.1156473921 
9.130147529 10.144719433 11.159238518 12.1737135 13.183302193 14.196215214 15.209980814 16.224150811 17.238380426 
18.252698802 19.267217251 20.279707134 21.297616623 22.296635599 23.303350659 24.31399048 25.329587227 26.343988156 
27.358568035 28.372945414 29.386765213 30.39974943 31.413057468 32.427053904 33.441411723 34.455941259 35.470528995 
36.485130735 37.499728922 38.514316685 39.528866311 40.543350995 41.557735154 42.571983295 43.586083961 44.600153394 
45.61429526 46.628565812 47.642965182 48.657481531 49.672067855 50.686676869 51.701268756 52.715801615 53.730228042 
54.744523358 55.758690584 56.772710762 57.786557743 58.800541126 59.814735399 60.827536222 61.851202912 62.828081086 
63.872536887 
ParallelTransportNormals 3 64 double
0.026744278024 0 0.99964230782 0.2261777377 -0.085884176734 0.97029250185 0.31341280624 -0.099471860957 0.94439280057 
0.3549259326 -0.098432612416 0.92969812476 0.35423534177 -0.098545945903 0.92994947131 0.34541861929 -0.10090938561 0.93300764913 
0.35138166508 -0.098780362026 0.93100664097 0.38680090833 -0.083302058993 0.91839306633 0.44733084036 -0.052512793873 0.89282558529 
0.50302281356 -0.020710016966 0.86402496737 0.50616768189 -0.018731634279 0.86223164155 0.3900421647 -0.10031555792 0.91531628336 
0.11795433601 -0.32621824031 0.93790641021 -0.10133773838 -0.561489233 0.82125544382 -0.17365042996 -0.67837232683 0.7139023143 
-0.18798347262 -0.72538232639 0.66218025838 -0.18824657126 -0.73606712726 0.65020643843 -0.19139835674 -0.72075778033 0.66623936474 
-0.20740496541 -0.67863630243 0.70458210972 -0.24920621015 -0.59450614654 0.76449899055 -0.34529754176 -0.42164242055 0.83844336532 
-0.63257062258 0.11671098535 0.76565850962 -0.81085255814 0.58213820727 0.060276335318 -0.76470799759 0.56999929148 -0.30053699627 
-0.73439914477 0.53521603186 -0.41737476613 -0.72474108226 0.52231421509 -0.44937537138 -0.73217147244 0.53280220273 -0.42431915783 
-0.75432643747 0.56394624556 -0.33608965745 -0.78334065179 0.59931495919 -0.16492120225 -0.79874463014 0.59532695367 0.087136869675 
-0.78359230797 0.51850770686 0.34224677182 -0.75287955205 0.40907133135 0.51558997854 -0.72737578758 0.31954366477 0.60730248637 
-0.71157828516 0.26179459211 0.65201222046 -0.70267270401 0.2279471977 0.67401123589 -0.69732180578 0.20741970874 0.68608990928 
-0.69281818646 0.1907806236 0.69541765449 -0.68650554853 0.1695637173 0.70707727839 -0.67552134758 0.13792596063 0.72432543676 
-0.65642832818 0.093382275898 0.7485864015 -0.6259654017 0.038676541784 0.7788911612 -0.58382859957 -0.016961738718 0.81169973866 
-0.5363146435 -0.060928809197 0.84181606268 -0.49667395681 -0.084945801559 0.86377033488 -0.47510176231 -0.092445616639 0.87506121124 
-0.46958824628 -0.093200114985 0.87795251439 -0.47254642268 -0.093304920525 0.8763527088 -0.47785054338 -0.094219596246 0.8733736462 
-0.48201249108 -0.095347943354 0.87096080747 -0.48549298322 -0.096478032696 0.8689007725 -0.49104881518 -0.09830574598 0.86556746786 
-0.50408563166 -0.10202358368 0.85760647405 -0.5316176905 -0.10748417115 0.84013676511 -0.58055543662 -0.11105095948 0.80661209352 
-0.65360974412 -0.10430994131 0.74960905714 -0.74513386885 -0.075777351785 0.66259588774 -0.84020133126 -0.01541673415 0.54205539132 
-0.91491013798 0.075102070774 0.39660952888 -0.95303827185 0.17833248742 0.24477658451 -0.95647024284 0.27336733865 0.10215171424 
-0.93906239 0.34317653635 -0.019791224762 -0.91944793735 0.37890127966 -0.10511570186 -0.91436263048 0.38317112061 -0.13084675128 
-0.91436263048 0.38317112061 -0.13084675128 
FrenetTangent 3 64 double
-0.90860806404 0.39680775277 0.13028811652 -0.90860806404 0.39680775277 0.13028811652 -0.94819188389 0.14555736272 0.28239193593 
-0.9424512998 -0.023236836296 0.33353500109 -0.9287130764 -0.15244623068 0.33801208333 -0.91586339839 -0.24550955492 0.31767797205 
-0.89799776939 -0.3206171878 0.30133805777 -0.87111634292 -0.38067958031 0.31022471569 -0.83415773906 -0.42430485833 0.35234394215 
-0.79217224026 -0.4523685596 0.40966550751 -0.76228971564 -0.47954429399 0.43468570201 -0.76639618284 -0.53842287522 0.35033940454 
-0.76787676969 -0.63736722868 0.06425171106 -0.64077853154 -0.68769499626 -0.34128941623 -0.41458354157 -0.67019651698 -0.61559492825 
-0.20090130843 -0.65887988081 -0.72492480088 -0.016378494493 -0.66571633836 -0.7460251348 0.14075961316 -0.68372114087 -0.71603919783 
0.27055053523 -0.71192200383 -0.64805051373 0.3751323943 -0.75501367351 -0.53780111524 0.45516256085 -0.81878624968 -0.34988015166 
0.46789266898 -0.87626187791 0.11507202801 0.20550012972 -0.53744974428 0.81787374885 -0.12696771227 0.033710899721 0.99133383645 
-0.24137349605 0.27704993286 0.93004417643 -0.26957699337 0.36006896316 0.89312853857 -0.26385297999 0.37243544562 0.88976032941 
-0.23037721156 0.32391447491 0.91760871473 -0.16378464623 0.19964766249 0.96608250192 -0.061018547251 -0.015738026177 0.99801255073 
0.056811716415 -0.28789120359 0.95597650796 0.14814634202 -0.52798707499 0.83623101473 0.19514878729 -0.68511919553 0.70180384634 
0.21143493245 -0.77283819265 0.59834471446 0.21545611034 -0.81878193141 0.53214172295 0.21917181449 -0.84090548586 0.49481479321 
0.2297563319 -0.84894543048 0.47592403178 0.25233067094 -0.84803531459 0.46601001889 0.29159555828 -0.83983421056 0.45787610678 
0.3522931167 -0.82189215501 0.4476414251 0.43792072298 -0.78641405002 0.43563560727 0.54637891351 -0.72143730319 0.42543895031 
0.66547120687 -0.61581279736 0.4218088091 0.77293801287 -0.46832947238 0.42805879684 0.84671345222 -0.29437312729 0.44319385347 
0.87918058435 -0.12032063065 0.46104711901 0.87918234117 0.031177605297 0.47546437081 0.86218724814 0.14869298251 0.48427631173 
0.8422761952 0.22834339627 0.48829305174 0.82882269988 0.26914146373 0.49052604892 0.82530171339 0.27149776943 0.49514244725 
0.82923498579 0.23644848872 0.50642023115 0.83275481223 0.16518856404 0.52842422448 0.8235125088 0.060017422386 0.56411440051 
0.78633940937 -0.072565492096 0.61351820073 0.70692106644 -0.22033455503 0.67209767868 0.57629977366 -0.36591714262 0.73074155187 
0.39972759663 -0.48434681048 0.77821977337 0.20331682005 -0.55051326769 0.80968970154 0.020079503676 -0.55440482705 0.83200486854 
-0.12326010493 -0.49277456289 0.8613827121 -0.2068190938 -0.37938074205 0.90182931589 -0.18987062269 -0.15558568162 0.96940303399 
-0.18987062269 -0.15558568162 0.96940303399 
FrenetNormal 3 64 double
-0.253232172 -0.77149265817 0.58367160755 -0.253232172 -0.77149265817 0.58367160755 -0.025635403193 -0.92102434106 0.38866050646 
0.082983373243 -0.98262398221 0.1660237012 0.105967207 -0.98267694219 -0.15204268587 0.15719096496 -0.94735120088 -0.27895645312 
0.29994935383 -0.94713447965 -0.11387125449 0.48165216116 -0.78549378036 0.38860097358 0.52883115932 -0.43395784597 0.72939577244 
0.5662532693 -0.29442482942 0.76985144984 0.45784800969 -0.87423090163 -0.16154111136 -0.10439610366 -0.43373844347 -0.89497062309 
0.10475883406 -0.22388934669 -0.96896808365 0.47382266976 -0.0044683796305 -0.88060894341 0.7949986886 0.062443800712 -0.60338864496 
0.96543136074 -0.0077133176026 -0.26054326402 0.99530060665 -0.082073493937 0.051387196713 0.93352072873 -0.14921800706 0.32599545303 
0.78420510908 -0.22748452781 0.57729813485 0.53584052335 -0.29679652716 0.79043453556 0.24345390441 -0.2635311114 0.93342463528 
-0.12547697836 0.06302024829 0.99009291292 -0.45192622153 0.68915527229 0.5664165437 -0.45075328491 0.88830638931 -0.087938813132 
-0.34490309819 0.87131698866 -0.34906812821 -0.16660125957 0.8960402055 -0.4115288209 0.67442147644 -0.58825057731 0.44622520144 
0.47038598607 -0.7884157562 0.39640587721 0.43884808695 -0.86232413317 0.25260531651 0.41746153037 -0.90862563181 0.011195171974 
0.36252103755 -0.88622097742 -0.2884282866 0.26845914753 -0.79234173603 -0.5478359786 0.15723904841 -0.68445039143 -0.71190135787 
0.064683918085 -0.59977854657 -0.79754729378 0.03004294444 -0.53912456499 -0.84169004088 0.19858300026 -0.45808379508 -0.86644332111 
0.77267300092 -0.13822240611 -0.6195732403 0.95799436787 0.15110327597 -0.24375108436 0.95577915167 0.23670417758 -0.17452032991 
0.93577208354 0.31692588675 -0.15455934127 0.89366818977 0.43355778221 -0.11569276593 0.81236468856 0.58009612212 -0.059599512363 
0.67852184669 0.73457761545 0.0019571522305 0.49281509648 0.86807188358 0.059870573926 0.27982803843 0.95486710565 0.099624693004 
0.080562991503 0.99119849761 0.10504828766 -0.08357516276 0.99247781833 0.089459333202 -0.20377973674 0.97699906277 0.062822370535 
-0.28218289852 0.9585886786 0.038478007313 -0.3635512049 0.92546725315 0.10649359021 0.077693221268 -0.92309074443 0.37665267943 
0.104838788 -0.9558238361 0.27460812601 -2.9574075815e-05 -0.95443790624 0.29840958807 -0.15508992417 -0.93268868757 0.32563618885 
-0.34279234757 -0.87743055396 0.33557268872 -0.54032663483 -0.78141489512 0.31215042748 -0.72655375396 -0.63878510972 0.25312689744 
-0.88010770169 -0.44007551382 0.17816839103 -0.97620560412 -0.17765848093 0.12433858068 -0.98005308034 0.15365493851 0.12604015073 
-0.7506751912 0.61402338123 0.24384840502 -0.34607701135 0.89053406162 0.29526223483 0.27511045768 0.93937863591 0.20465095767 
0.27511045768 0.93937863591 0.20465095767 
FrenetBinormal 3 64 double
0.33212174429 0.49733558664 0.80146893966 0.33212174429 0.49733558664 0.80146893966 0.31666224502 0.36128550668 0.87703922674 
0.32388162541 0.18414711248 0.9280035203 0.35533501484 -0.10538583413 0.92877922737 0.36943908296 -0.20554989819 0.90623617415 
0.32191674593 -0.011869976815 0.94669356834 0.095747129158 0.48793706371 0.8676116119 -0.15658375172 0.79476158382 0.58637492577 
-0.2276408943 0.84182938064 0.48939035252 0.45748179139 0.075878855666 0.88597562597 0.63382832413 -0.72247613809 0.27620623713 
0.63197377576 -0.73731714767 0.23868927605 0.60406535337 -0.72598596798 0.32870872084 0.44282905526 -0.73955216204 0.50691718006 
0.16607513951 -0.75220861959 0.6376529155 -0.095438185813 -0.74167762433 0.6639321157 -0.32973592514 -0.71432442762 0.61726398873 
-0.55841271009 -0.66439284318 0.49674681191 -0.75640638567 -0.58469323091 0.2932289301 -0.85647956171 -0.51003963636 0.079387213836 
-0.87483254296 -0.47769610593 -0.080463980519 -0.86806243265 -0.48601726621 -0.10126613434 -0.88357267736 -0.45801237314 -0.097590931257 
-0.90707259261 -0.40503091237 -0.11475744752 -0.9484578351 -0.25973504171 -0.18156388175 0.68959210919 0.71781132419 -0.095966795307 
0.85185877028 0.52295316074 0.02926819378 0.88350831702 0.46533633021 0.053620458334 0.90664359456 0.41731495989 0.062013036541 
0.93024240186 0.36294770156 0.054018882977 0.95183104985 0.30565376161 0.024360430239 0.96808720293 0.24927765562 -0.025842173495 
0.97524933226 0.20733263869 -0.076823934135 0.97605127222 0.19733436654 -0.091559061689 0.95526358024 0.28816176105 0.066590477761 
0.59176723599 0.51008452488 0.62419974037 0.13629388702 0.50794084812 0.85054104614 0.038186956209 0.48851778994 0.87171791612 
-0.014838045526 0.47334054109 0.88075454274 -0.097890791124 0.43997794425 0.89265715792 -0.2037981738 0.37817549718 0.90302247906 
-0.31105654855 0.28490406364 0.90668268877 -0.39962496036 0.16467759482 0.90176559084 -0.45251806454 0.03966449892 0.89087267821 
-0.46962868791 -0.055213079796 0.88113586427 -0.46909871365 -0.11838807818 0.87517464531 -0.46379625704 -0.15285034609 0.87265675019 
-0.45928599236 -0.17019705826 0.87183102639 -0.42530395435 -0.26659564107 0.86489497084 0.55932177255 -0.27238288997 -0.78292190926 
0.54897920441 -0.17462218221 -0.81739153813 0.55364196177 -0.24851764814 -0.7948078741 0.54568696454 -0.35565393444 -0.75877270355 
0.51396861744 -0.47418337416 -0.71483311896 0.45640961155 -0.58381799008 -0.67145127965 0.37416335136 -0.67679999138 -0.63399018775 
0.25618017471 -0.7561360389 -0.60218768567 0.075398204048 -0.81570374907 -0.57353509446 -0.19771892488 -0.81793975794 -0.5402608436 
-0.64907141661 -0.61656185211 -0.44559822562 -0.91512652931 -0.25103652655 -0.315474401 -0.94247725846 0.30555011713 -0.13555715846 
-0.94247725846 0.30555011713 -0.13555715846 
