# vtk DataFile Version 4.2
vtk output
ASCII
DATASET POLYDATA
POINTS 64 float
0 0 0 -0.935958 -0.210351 0.419633 -1.85194 -0.390575 0.693313 
-2.83413 -0.582663 0.916295 -3.81112 -0.788966 1.08705 -4.78328 -1.03619 1.23932 
-5.72952 -1.36546 1.39898 -6.60327 -1.84836 1.57585 -7.32629 -2.54959 1.68387 
-7.8464 -3.39706 1.49925 -8.17693 -4.16092 0.923067 -8.37278 -4.71763 0.0991395 
-8.46688 -5.08443 -0.841539 -8.45997 -5.31034 -1.8303 -8.33784 -5.45268 -2.82716 
-8.09175 -5.58029 -3.80293 -7.73365 -5.76513 -4.73374 -7.30058 -6.06604 -5.60008 
-6.84314 -6.51633 -6.38506 -6.41236 -7.12928 -7.07 -6.06652 -7.90984 -7.60759 
-5.93227 -8.88934 -7.82042 -6.2985 -9.5966 -7.22259 -6.80442 -9.68877 -6.34474 
-7.27106 -9.59908 -5.45025 -7.68039 -9.44972 -4.5338 -8.01266 -9.32049 -3.58405 
-8.24075 -9.29117 -2.59631 -8.33274 -9.4608 -1.60146 -8.28571 -9.8953 -0.687613 
-8.14927 -10.5554 0.0694625 -7.98287 -11.3515 0.675542 -7.82027 -12.2177 1.17801 
-7.67471 -13.12 1.61835 -7.54858 -14.0426 2.0213 -7.43513 -14.9778 2.39795 
-7.31462 -15.9218 2.74972 -7.15189 -16.8696 3.07309 -6.90118 -17.8081 3.36512 
-6.52087 -18.7107 3.62851 -5.99431 -19.5424 3.87276 -5.33349 -20.2742 4.11024 
-4.56518 -20.8906 4.35225 -3.7162 -21.3838 4.60681 -2.80867 -21.7452 4.87986 
-1.86318 -21.9604 5.17723 -0.905742 -22.0157 5.50717 0.0308773 -21.9122 5.88219 
0.915634 -21.6776 6.3192 1.73207 -21.3677 6.83541 2.48326 -21.0515 7.43941 
3.1854 -20.7918 8.12395 3.85616 -20.6417 8.86988 4.50407 -20.6501 9.65001 
5.11828 -20.8638 10.4278 5.65822 -21.3115 11.1594 6.06725 -21.9736 11.8089 
6.31506 -22.7852 12.3638 6.41657 -23.6765 12.8372 6.41732 -24.6 13.2571 
6.37724 -25.531 13.6561 6.39164 -26.459 14.0828 6.55832 -27.3049 14.5505 
7.13622 -27.9492 15.1315 
LINES 1 65
64 0 1 2 3 4 5 6 7 8 9 10 11 12 13 14 15 16 17 18 19 20 21 22 23 24 25 26 27 28 29 30 31 32 33 34 35 36 37 38 39 40 41 42 43 44 45 46 47 48 49 50 51 52 53 54 55 56 57 58 59 60 61 62 63 

CELL_DATA 1
FIELD FieldData 2
Length 1 1 double
63.86824577 
Tortuosity 1 1 double
0.96073067568 
POINT_DATA 64
SCALARS MaximumInscribedSphereRadius float
LOOKUP_TABLE default
1.24 1.05461 0.873286 0.692569 0.735486 0.92935 1.14829 1.39829 1.40268 
1.12531 1.1646 1.64303 1.41727 1.24 1.27723 1.44331 1.44639 1.27726 
1.42309 1.6307 1.80486 1.58867 1.55458 1.57233 1.5657 1.58582 1.76514 
1.81822 1.74774 1.68382 1.92944 2.00457 1.49856 1.55281 2.01098 1.87022 
1.65464 1.76809 1.86 1.82898 1.67412 1.56159 1.55059 1.59722 1.71399 
1.97928 2.05113 1.70465 1.69275 1.88711 2.08011 2.06732 1.9081 1.87482 
2.17756 2.78968 2.75475 2.57308 2.40948 2.41105 2.40569 2.08508 1.78089 
1.581 
TEXTURE_COORDINATES TCoords 2 float
0 0 0.015873 0 0.031746 0 0.047619 0 0.0634921 
0 0.0793651 0 0.0952381 0 0.111111 0 0.126984 0 
0.142857 0 0.15873 0 0.174603 0 0.190476 0 0.206349 
0 0.222222 0 0.238095 0 0.253968 0 0.269841 0 
0.285714 0 0.301587 0 0.31746 0 0.333333 0 0.349206 
0 0.365079 0 0.380952 0 0.396825 0 0.412698 0 
0.428571 0 0.444444 0 0.460317 0 0.47619 0 0.492063 
0 0.507937 0 0.52381 0 0.539683 0 0.555556 0 
0.571429 0 0.587302 0 0.603175 0 0.619048 0 0.634921 
0 0.650794 0 0.666667 0 0.68254 0 0.698413 0 
0.714286 0 0.730159 0 0.746032 0 0.761905 0 0.777778 
0 0.793651 0 0.809524 0 0.825397 0 0.84127 0 
0.857143 0 0.873016 0 0.888889 0 0.904762 0 0.920635 
0 0.936508 0 0.952381 0 0.968254 0 0.984127 0 
1 0 
FIELD FieldData 7
Curvature 1 64 double
0 0.12882032626 0.066077930885 0.051025227548 0.043934688029 0.084050301723 0.16717900842 0.27185064566 0.38986135421 
0.4545024974 0.35153888742 0.2419774139 0.17630399341 0.13926125774 0.12352100916 0.13039231652 0.14906100185 0.16829488668 
0.18902636151 0.23636967478 0.4478287502 1.3005258231 0.77130883949 0.18276490947 0.083409902897 0.084009839501 0.14586880372 
0.2380104775 0.30912699417 0.28719761397 0.20185536642 0.12209205187 0.071845500198 0.04546268608 0.030899463897 0.026543154093 
0.049599752055 0.09139428363 0.13426268806 0.16013319117 0.16394245071 0.15430106482 0.14442146696 0.14206197984 0.1495689059 
0.16010565158 0.1628489133 0.15058322452 0.12576388853 0.10677710837 0.10714045877 0.12635533692 0.16023049628 0.20451202275 
0.24686386089 0.26168863654 0.23617830355 0.18186194865 0.11559407021 0.04521166191 0.05866207435 0.17401377137 0.48306599268 
0 
Torsion 1 64 double
0 0 0.28424534833 0.50928104624 0.90851591306 0.16625666224 -0.24140050589 -0.47989030013 -0.43931205125 
-0.26812973267 -0.14229403711 0.028645389132 0.23008040157 0.43606556954 0.57093309627 0.51345168087 0.37978394005 0.26886527084 
0.18047162162 0.08847718223 -0.013516491281 -0.022725400871 -0.058042513552 -0.46953235936 -0.98922184295 -0.81094871324 -0.31984306893 
-0.17413690445 -0.12599634529 -0.12146551287 -0.14093150561 -0.17720996482 -0.21537995618 -0.13800066331 0.28367878054 0.97374230259 
0.43951976338 0.20145350026 0.13744613697 0.1169302593 0.10875166018 0.10145368594 0.089822893937 0.079978294872 0.083587282252 
0.11066434162 0.16584567127 0.26532918471 0.43462173681 0.58387833748 0.53131017892 0.353903162 0.18425324517 0.049359593532 
-0.044779704985 -0.090270070217 -0.09861317862 -0.088008064651 -0.071369740847 -0.040801671923 -0.0052007871361 -0.017365729378 0 
0 
Abscissas 1 64 double
0 1.0470708718 2.0199065182 3.0452408928 4.0582668325 5.0728607498 6.0873937588 7.1012648503 8.1142471537 
9.1255820227 10.137871647 11.151348569 12.165387358 13.179649853 14.194005806 15.208381604 16.222684107 17.236901983 
18.250910859 19.26600611 20.27491055 21.286213093 22.282070774 23.299460624 24.312338067 25.327091385 26.341557925 
27.355711475 28.36909889 29.382079927 30.395766131 31.410004476 32.424500038 33.439065949 34.453651317 35.468247453 
36.482840122 37.497372473 38.511781353 39.526041093 40.540223543 41.554444464 42.568724663 43.583036621 44.597337325 
45.611579065 46.625778533 47.63998984 48.65429098 49.668709101 50.683147281 51.697560714 52.711884728 53.726016053 
54.739837552 55.753404428 56.767011348 57.780924396 58.795261987 59.809793368 60.823503609 61.844896187 62.825777683 
63.868210801 
ParallelTransportNormals 3 64 double
0.40910943554 0 0.91248532577 0.29068537198 -0.024914742333 0.95649426037 0.22814867166 -0.037181825474 0.97291607833 
0.18153753704 -0.046662222916 0.9822763153 0.16695958725 -0.050053968938 0.9846923867 0.18162906777 -0.045645655155 0.98230715965 
0.21468028996 -0.030895441702 0.97619559761 0.19241310432 -0.047410211304 0.98016808209 0.040699491216 -0.23645625209 0.97078936555 
-0.13037170645 -0.56048444796 0.8178388605 -0.21925535441 -0.78345895196 0.58148014597 -0.25346081786 -0.89240195693 0.37333143596 
-0.26069309757 -0.9415619509 0.21330776237 -0.25373245675 -0.96142773099 0.10619114127 -0.24594189216 -0.96713910167 0.064455749893 
-0.25499537675 -0.9624571709 0.093024470001 -0.29312262591 -0.93904844824 0.17963055984 -0.35756129481 -0.88468959588 0.29912244883 
-0.43735236721 -0.78918541567 0.43117199188 -0.52717441763 -0.62790130103 0.57256186527 -0.6313273958 -0.24631497135 0.73536022071 
-0.49950753285 0.69537404421 0.51666929777 -0.19018824302 0.98172589194 -0.0065349302928 -0.10865183643 0.98189965774 -0.15513813385 
-0.08777207298 0.97620334188 -0.19830052572 -0.099688371027 0.98067980135 -0.16831326716 -0.13111453165 0.98957100726 -0.05965065955 
-0.1651039294 0.9746610182 0.15091915747 -0.17167945405 0.88624961823 0.43021829255 -0.14590841886 0.73247173673 0.66497811106 
-0.11551362376 0.58632595489 0.80179703002 -0.095652173005 0.48597979737 0.86871991939 -0.085171860173 0.42583273284 0.90078423492 
-0.079807027651 0.3897985627 0.91743551209 -0.076541216108 0.36447420047 0.92806249759 -0.073492550021 0.33998611387 0.9375544184 
-0.069224014983 0.31147672122 0.94772901606 -0.062595808999 0.28123653591 0.95759478672 -0.054761096354 0.25837685361 0.9644908625 
-0.051149285298 0.25146979865 0.96651264398 -0.057946574686 0.26042014044 0.96375491954 -0.07765487489 0.27901228546 0.95714255206 
-0.10935387374 0.30075991249 0.94740973467 -0.15289841565 0.32194666123 0.93432993199 -0.21086843185 0.33998531427 0.91648485559 
-0.28691165476 0.35079561659 0.891416927 -0.38136925694 0.34839063389 0.85626015678 -0.48688060599 0.32880104052 0.80922008827 
-0.58822361909 0.29636756764 0.75243553797 -0.66943434044 0.2639350623 0.69440330265 -0.72173441746 0.24321167072 0.64803357465 
-0.74570991201 0.23605587411 0.62305244677 -0.7463116021 0.23599119783 0.62235612563 -0.73092827283 0.2332838517 0.64134429483 
-0.71391168713 0.223531266 0.66359918332 -0.70967700656 0.21857927117 0.66976238217 -0.71562662539 0.23192685158 0.65885390532 
-0.72120760075 0.25913107614 0.64242562371 -0.72269575825 0.28554092276 0.62942610561 -0.72242193271 0.29844789145 0.62372702942 
-0.72268665785 0.27943932734 0.63216900976 -0.71690900751 0.2238424544 0.66025451953 -0.65268760465 0.092571492837 0.75195040359 
-0.65268760465 0.092571492837 0.75195040359 
FrenetTangent 3 64 double
-0.91877279017 -0.19376959726 0.34396206655 -0.91877279017 -0.19376959726 0.34396206655 -0.95047157524 -0.1864277652 0.24869353232 
-0.96147687521 -0.19551227674 0.19322827969 -0.96153630349 -0.22372969827 0.15935168394 -0.94628794312 -0.28436687414 0.1538655569 
-0.90045172547 -0.40182623687 0.1665003467 -0.79511188008 -0.58963765559 0.14186096453 -0.62550935627 -0.77926406301 -0.038543031935 
-0.43080504079 -0.81605480343 -0.38530711728 -0.26380771311 -0.66183462235 -0.70169824224 -0.14406322536 -0.45885189673 -0.87675579495 
-0.043157098845 -0.29337608194 -0.95502248108 0.063767485202 -0.18197777811 -0.98123279404 0.18185707228 -0.13332316806 -0.974244804 
0.29847119997 -0.15435099192 -0.94185493261 0.39112950354 -0.24013954656 -0.88845411229 0.44064322772 -0.37170951446 -0.81710806062 
0.43973007751 -0.52637715641 -0.72771185791 0.38640245221 -0.69333248534 -0.60826245133 0.24337068441 -0.89222220057 -0.38040801092 
-0.13289234567 -0.96627972536 0.22055184609 -0.46111531263 -0.42266741822 0.78020825556 -0.48107243351 -0.0012269716794 0.87667999194 
-0.43240134276 0.11800120561 0.8939266157 -0.36579157968 0.13741362616 0.92049661356 -0.27697848704 0.078369223328 0.95767488353 
-0.15899396192 -0.069696645218 0.98481637767 -0.022451633145 -0.30168358133 0.95314371473 0.091463281658 -0.54567944117 0.83298764432 
0.15010456359 -0.72177402028 0.67565589144 0.16247438029 -0.82091545087 0.54744853482 0.15197758866 -0.87218376613 0.46497127938 
0.13392984108 -0.8995863689 0.41570080894 0.11808121026 -0.91565082546 0.38424002083 0.11530972374 -0.92618349403 0.35900947479 
0.13962815204 -0.93259508178 0.33282186316 0.20399017909 -0.9306948549 0.30363645022 0.3117782484 -0.90966201599 0.27442547345 
0.44853290943 -0.85777564122 0.25107604124 0.58737514524 -0.77343528988 0.23830293982 0.70666225469 -0.66664466509 0.23709354338 
0.79936414929 -0.54843264567 0.24543551089 0.8681097378 -0.42236355359 0.26075757274 0.91608827441 -0.28505664987 0.28200173733 
0.94118780119 -0.13378933165 0.31026752589 0.93692392849 0.023842211284 0.34871922974 0.90048988398 0.16715620944 0.40146826835 
0.84024471071 0.26893693351 0.47080967696 0.7737873637 0.30904610218 0.55294088518 0.7173842397 0.28427288521 0.63604149186 
0.67810694505 0.20240945195 0.70654184932 0.65221344908 0.070084177005 0.75478859621 0.62565645963 -0.11009877303 0.77229026583 
0.57365972009 -0.32874274992 0.75022845182 0.47215135812 -0.55217111708 0.68715366002 0.32623320136 -0.73194307751 0.59818996115 
0.17295432961 -0.84313400083 0.50912852652 0.050490478163 -0.89605377716 0.4410650066 -0.019396961123 -0.91461112859 0.40386908937 
-0.012623393951 -0.9138339613 0.40589178496 0.09077330885 -0.88923574884 0.44835252803 0.37825337362 -0.75703530981 0.53274940173 
0.37825337362 -0.75703530981 0.53274940173 
FrenetNormal 3 64 double
-0.37020534796 0.12024083118 -0.92113524678 -0.37020534796 0.12024083118 -0.92113524678 -0.24722849845 -0.031448002587 -0.96844674231 
-0.12532880083 -0.3138398109 -0.94116803217 0.14036405145 -0.89889188473 -0.41507988705 0.2994872383 -0.95024565494 0.08567723943 
0.42099606822 -0.90137079088 0.10145446217 0.54737334445 -0.79844433715 -0.25073703806 0.52435929456 -0.38329161454 -0.7603518057 
0.42888458059 0.19052145302 -0.88303997218 0.38583371827 0.5943304176 -0.70562291386 0.41555190431 0.77604062791 -0.47442339599 
0.56152154147 0.78351912492 -0.26606641906 0.80815016944 0.58628785257 -0.056212610411 0.97909149217 0.1163879155 0.16683435824 
0.83871888289 -0.42853676134 0.33601618959 0.49189519321 -0.76136069685 0.42233755242 0.14237336236 -0.86978236414 0.47244943086 
-0.14077373657 -0.84063224705 0.5229915681 -0.34573371844 -0.72027947515 0.60138645946 -0.48703793097 -0.45158434169 0.7475731644 
-0.50757018717 0.25748073631 0.82223851498 -0.18721124668 0.90581461095 0.38006820403 0.19866826539 0.97383108734 0.11038085727 
0.67923813122 0.69464629339 0.23685879375 0.89138243391 -0.23269691277 0.38895951371 0.69740946515 -0.66921160771 0.25646805264 
0.56386854134 -0.82521961457 0.032632128601 0.44854966418 -0.85508008759 -0.26007930054 0.30926085856 -0.77956637287 -0.54464115862 
0.14538840016 -0.65985437314 -0.73719361049 -0.030630911762 -0.55874941872 -0.82877067656 -0.23076017242 -0.4887456864 -0.8413545013 
-0.41576429273 -0.43178346121 -0.80043931408 -0.39848626572 -0.39811802372 -0.82626311501 0.25831062181 -0.32102735371 -0.91116247773 
0.82747127657 -0.074718310638 -0.55651456451 0.93787297885 0.096863067762 -0.33318436586 0.94282091488 0.26037110848 -0.2080759677 
0.89372636493 0.43310802008 -0.11692145897 0.80168361778 0.59638217755 -0.040394000444 0.68084402891 0.73187139352 0.028559965667 
0.54583405992 0.83357912543 0.084917728883 0.40279135967 0.9064104883 0.12719727702 0.24836856578 0.95552026405 0.15904112838 
0.073265028704 0.97722852611 0.19913975827 -0.12513115415 0.95442789294 0.27094204444 -0.33732367524 0.8511277016 0.4022367135 
-0.53097186277 0.58398033825 0.61403244661 -0.5955392632 0.057492706372 0.8012662321 -0.44604419926 -0.51389861422 0.73277062346 
-0.24188219908 -0.8463147854 0.474599079 -0.1387583544 -0.9678548524 0.20976916781 -0.16110339467 -0.98688506355 -0.01017681489 
-0.296540059 -0.93714709551 -0.18390028489 -0.49562908959 -0.81091736815 -0.31107045439 -0.67388659725 -0.62385480357 -0.39583082005 
-0.78919470422 -0.42790584736 -0.44053184291 -0.8500836985 -0.27036473919 -0.45195200337 -0.8789466133 -0.17692740379 -0.44288773381 
0.89930000118 0.16708819318 0.40415472728 0.90138419965 0.2647724066 0.34263989452 0.82837174935 0.53368894235 0.17022443332 
0.82837174935 0.53368894235 0.17022443332 
FrenetBinormal 3 64 double
0.13712972102 -0.97365059734 -0.18220854513 0.13712972102 -0.97365059734 -0.18220854513 0.18836627673 -0.98196522927 -0.016199823904 
0.24465263153 -0.9291283672 0.27724640151 0.2361056334 -0.37674713229 0.89572078696 0.12184630813 0.12715610938 0.98437025607 
0.10931148444 0.16145083684 0.98080814977 0.26111208308 -0.12171308714 0.95760451361 0.57774161649 -0.49581756556 0.64836684544 
0.79401828276 -0.54567035263 0.26791571977 0.88404628405 -0.45688760913 0.098569164922 0.89808819273 -0.43268450482 0.078877863619 
0.82633590221 -0.54774835046 0.13092257744 0.58551431363 -0.78939891196 0.18445147418 0.091147436739 -0.98421480683 0.15170154512 
-0.45548389463 -0.89024267224 0.0015512101271 -0.77785399039 -0.60221498442 -0.17966714272 -0.88632012927 -0.32451606415 -0.33034217496 
-0.88702886877 -0.12753240539 -0.44375136231 -0.85507972778 -0.022080363574 -0.51802617375 -0.83878767502 0.0033357378949 -0.54444844484 
-0.85130025817 -0.0026763368401 -0.52467200008 -0.86736648401 0.029191508532 -0.4968130818 -0.85387366398 0.22726968092 -0.46823953068 
-0.59301318694 0.70960710435 -0.38051690839 0.2676450574 0.96279262675 -0.037369521233 0.66098635057 0.73892766151 0.13070178049 
0.81041544171 0.56049528577 0.17050468165 0.89347586589 0.42169308811 0.15451801353 0.9465686396 0.30742514174 0.097455593742 
0.97792169067 0.2088886543 0.0058904173741 0.98623720422 0.11788515431 -0.11592785428 0.96106844468 0.020570175716 -0.27554366714 
0.89955703019 -0.065630842691 -0.43184458075 0.90954138103 -0.055548222427 -0.41188453621 0.95915550891 0.19780185426 0.20222545878 
0.54387063316 0.35310563221 0.7612628632 0.28068181698 0.35273876051 0.8926326705 0.11782633954 0.32360763669 0.93882642229 
-0.0084506676688 0.27683639983 0.9608799061 -0.11087748073 0.2147699948 0.97035046947 -0.19256133073 0.14124147357 0.97106692872 
-0.25116157323 0.06608687325 0.96568648604 -0.29007689276 -0.0053902975297 0.95698816136 -0.31479410577 -0.075655345811 0.94614002115 
-0.32984505219 -0.16469615202 0.92955764698 -0.3263675022 -0.29748772436 0.89720973432 -0.27446440018 -0.49763484324 0.82281763218 
-0.10980759114 -0.76592420665 0.63348433492 0.21583813788 -0.94930769271 0.22853621768 0.53516766058 -0.80938071452 -0.2418644952 
0.69402015306 -0.49272882784 -0.52493269032 0.74522730487 -0.24154749598 -0.62152318643 0.76328218291 -0.11805139352 -0.63518830101 
0.76353029996 -0.11697660341 -0.63508893495 0.72898895779 -0.19370100541 -0.65654780475 0.66290930931 -0.2739790418 -0.69676877964 
0.58928644876 -0.32560964734 -0.73940505737 0.52422172519 -0.35212289933 -0.7753715539 0.47652555952 -0.36357004447 -0.80046249999 
-0.43715004039 0.37012028703 0.81970166239 -0.42339902104 0.37303532767 0.82557732121 -0.41318837136 0.3769265877 0.82897630681 
-0.41318837136 0.3769265877 0.82897630681 
