# vtk DataFile Version 4.2
vtk output
ASCII
DATASET POLYDATA
POINTS 64 float
0 0 0 -0.980323 0.1544 0.270087 -1.90308 0.304103 0.608349 
-2.83948 0.428757 1.00222 -3.75486 0.4954 1.42751 -4.66473 0.473447 1.87795 
-5.55282 0.320792 2.34346 -6.3929 -0.00365278 2.81042 -7.14846 -0.513394 3.25543 
-7.80608 -1.17674 3.6513 -8.39254 -1.9398 3.9725 -8.95811 -2.75475 4.18577 
-9.54612 -3.57941 4.24212 -10.156 -4.3792 4.11076 -10.748 -5.14708 3.81233 
-11.2715 -5.91204 3.3998 -11.6636 -6.71445 2.9187 -11.8438 -7.56344 2.39383 
-11.7519 -8.40819 1.84014 -11.4152 -9.17758 1.27121 -10.919 -9.85109 0.697052 
-10.3354 -10.4515 0.125429 -9.70326 -11.0115 -0.443427 -9.06403 -11.5664 -0.973736 
-8.38012 -12.1871 -1.52768 -8.08485 -12.9923 -1.35741 -8.41182 -13.2396 -0.432979 
-8.78023 -13.0984 0.508949 -9.06045 -12.8847 1.45869 -9.24848 -12.6171 2.41936 
-9.33204 -12.3462 3.39349 -9.31129 -12.1293 4.38433 -9.20665 -12.0561 5.39075 
-9.07803 -12.2469 6.37791 -9.0098 -12.7426 7.26018 -9.02364 -13.4346 8.00212 
-9.07809 -14.2165 8.64622 -9.12676 -15.0421 9.23406 -9.13025 -15.8928 9.78683 
-9.05558 -16.7599 10.3084 -8.87833 -17.6337 10.7924 -8.58904 -18.5015 11.2311 
-8.19733 -19.3499 11.6261 -7.72051 -20.1681 11.9903 -7.16947 -20.9447 12.3405 
-6.54592 -21.6647 12.6898 -5.84619 -22.3086 13.0436 -5.06828 -22.8548 13.3982 
-4.21806 -23.2876 13.7433 -3.31023 -23.6026 14.0687 -2.36381 -23.8082 14.3709 
-1.39681 -23.9205 14.6566 -0.42417 -23.9585 14.9428 0.541676 -23.9407 15.253 
1.48922 -23.8839 15.6112 2.40721 -23.8038 16.0358 3.28499 -23.7145 16.5366 
4.11392 -23.6285 17.1154 4.88927 -23.5566 17.7654 5.61436 -23.5119 18.4749 
6.2953 -23.5092 19.223 6.95752 -23.576 20.0003 7.59047 -23.7241 20.7526 
8.24955 -24.0015 21.4918 
LINES 1 65
64 0 1 2 3 4 5 6 7 8 9 10 11 12 13 14 15 16 17 18 19 20 21 22 23 24 25 26 27 28 29 30 31 32 33 34 35 36 37 38 39 40 41 42 43 44 45 46 47 48 49 50 51 52 53 54 55 56 57 58 59 60 61 62 63 

CELL_DATA 1
FIELD FieldData 2
Length 1 1 double
63.826026505 
Tortuosity 1 1 double
0.9191787726 
POINT_DATA 64
SCALARS MaximumInscribedSphereRadius float
LOOKUP_TABLE default
0.98 0.953392 0.9184 0.805892 0.704121 0.655315 0.735954 1.11687 1.41654 
1.36409 1.26124 1.24 1.41607 1.75521 1.75734 1.60262 1.41875 1.25324 
1.47974 1.65509 1.6089 1.56483 1.55 1.56592 1.68952 1.83871 1.74423 
1.58344 1.43528 1.29238 1.33412 1.4845 1.55 1.57363 1.72259 1.85168 
1.86 1.86 1.86 1.91083 2.04101 2.09733 1.99215 1.8008 1.51758 
1.30512 1.54679 1.7909 1.54021 1.35714 1.57603 1.6562 1.20399 0.821018 
0.92441 1.12908 1.08894 0.996717 1.08136 1.22384 1.31309 1.38876 1.46902 
1.55 
TEXTURE_COORDINATES TCoords 2 float
0 0 0.015873 0 0.031746 0 0.047619 0 0.0634921 
0 0.0793651 0 0.0952381 0 0.111111 0 0.126984 0 
0.142857 0 0.15873 0 0.174603 0 0.190476 0 0.206349 
0 0.222222 0 0.238095 0 0.253968 0 0.269841 0 
0.285714 0 0.301587 0 0.31746 0 0.333333 0 0.349206 
0 0.365079 0 0.380952 0 0.396825 0 0.412698 0 
0.428571 0 0.444444 0 0.460317 0 0.47619 0 0.492063 
0 0.507937 0 0.52381 0 0.539683 0 0.555556 0 
0.571429 0 0.587302 0 0.603175 0 0.619048 0 0.634921 
0 0.650794 0 0.666667 0 0.68254 0 0.698413 0 
0.714286 0 0.730159 0 0.746032 0 0.761905 0 0.777778 
0 0.793651 0 0.809524 0 0.825397 0 0.84127 0 
0.857143 0 0.873016 0 0.888889 0 0.904762 0 0.920635 
0 0.936508 0 0.952381 0 0.968254 0 0.984127 0 
1 0 
FIELD FieldData 7
Curvature 1 64 double
0 0.080788926468 0.054266926163 0.065951739362 0.089918941136 0.13003314112 0.17472233629 0.20113974566 0.18497042214 
0.1400832927 0.11851420486 0.15525192856 0.18689841775 0.16739436776 0.12988714229 0.14937912845 0.21770493031 0.27095542249 
0.25345794538 0.18241913226 0.11114122582 0.061149736045 0.033890471537 0.026062306478 1.0462825163 1.9395375076 0.393125001 
0.1106771724 0.10470022853 0.1026346684 0.11566306974 0.16348765464 0.26298322843 0.32765128921 0.2516252097 0.13561117632 
0.069518824508 0.060732846014 0.083443010473 0.10663989801 0.11798618471 0.11016106691 0.092902194055 0.083914861657 0.089554392871 
0.10499869404 0.12203283378 0.13157673054 0.12938493988 0.11532935469 0.094412971773 0.072487145038 0.059429938298 0.062720280446 
0.074249404155 0.084331207213 0.089648460581 0.087831620311 0.08022147965 0.070209451657 0.074280290719 0.083801887105 0.12572796095 
0 
Torsion 1 64 double
0 0 -0.63904014157 -0.36581035844 -0.17827255972 -0.063207341716 -0.033933445516 -0.049185579981 -0.13002124184 
-0.37047428429 -0.59967948276 -0.22704045293 0.025258810953 0.24024790148 0.58269234605 0.38085062343 0.04321420731 -0.070067529531 
-0.10049612114 -0.08857661027 -0.032067903997 0.27115884825 1.1574027278 -1.2970534257 -0.087992468555 -0.11532046005 -0.54739996256 
-1.4040468053 -0.30631473877 -0.49442604921 -0.56676806683 -0.49661904907 -0.271652151 -0.14384402246 -0.069168285109 0.11996281514 
0.63447955625 0.59917817522 0.17675393812 0.05027611121 0.033709171269 0.075188694374 0.1662767661 0.21895633707 0.14232076134 
0.041231240924 -0.016043082682 -0.033117629835 -0.021554854171 0.020226867428 0.11619974444 0.30449091772 0.50266879579 0.41587063499 
0.24721235742 0.1560427749 0.11726191048 0.13520734602 0.21320214238 0.40640884482 0.42712375266 0.37653196479 0 
0 
Abscissas 1 64 double
0 1.0285030572 2.022647239 3.0461267336 4.0576785313 5.0731746833 6.0874337841 7.1018461245 8.1161151874 
9.1306160616 10.145191291 11.159828501 12.17422485 13.188571973 14.203062099 15.217612603 16.232069032 17.246339433 
18.260545225 19.274937381 20.28960857 21.303395616 22.321648116 23.320559884 24.397490792 25.271889936 26.283129175 
27.304344743 28.317354658 29.332183725 30.346705853 31.361241193 32.375726687 33.389336427 34.403625934 35.418275712 
36.432799501 37.447417923 38.461998585 39.476564394 40.491090187 41.5055965 42.520155342 43.534734758 44.549309102 
45.563872146 46.578414356 47.592937748 48.607455094 49.621983766 50.636535272 51.651109372 52.665700694 53.680294415 
54.694874161 55.709452272 56.723996627 57.738626009 58.752939219 59.768410433 60.780052523 61.803346022 62.7975745 
63.826083035 
ParallelTransportNormals 3 64 double
0.26561159726 0 0.96408012084 0.34239753868 -0.012273071481 0.9394750115 0.385548669 -0.018650055021 0.9224989969 
0.41991473643 -0.022194147255 0.90729214367 0.44399234493 -0.02278593653 0.89574081002 0.46692829953 -0.020557500946 0.88405619293 
0.48997638697 -0.014194739852 0.87162012917 0.50948942063 -0.0039932633777 0.86046765431 0.5151881272 0.00073712155013 0.85707680533 
0.49854454324 -0.0183456773 0.86666993402 0.45240042746 -0.081552528503 0.8880782839 0.36853023893 -0.20075731787 0.90767943808 
0.26080119623 -0.34684556771 0.90093334282 0.16850391438 -0.46723001007 0.86793003666 0.1201637042 -0.53365916196 0.83711921675 
0.1104752694 -0.55024436462 0.82766318877 0.11408863755 -0.53981863414 0.83401416356 0.11429456397 -0.53586770463 0.83653006867 
0.11961892141 -0.55592188916 0.82258262004 0.13533217873 -0.58314255031 0.80101808183 0.15049489285 -0.6010299451 0.78492948239 
0.15919946862 -0.60933975685 0.7767628917 0.14152459624 -0.59384153655 0.79203725804 0.12576906823 -0.57985452351 0.80495395709 
-0.30779084957 0.087470914656 0.94742473686 -0.31826165628 0.93786567145 0.13826604956 -0.1861412729 0.95838953516 -0.21642764479 
-0.16992193714 0.94950477201 -0.26375599178 -0.16246069578 0.94183748463 -0.29419156151 -0.16482998305 0.94653540387 -0.2773117486 
-0.16705998509 0.96385316792 -0.20755248027 -0.15749964681 0.98597060589 -0.0552795222 -0.12714558734 0.97065290989 0.20412478571 
-0.096702892777 0.86452059538 0.49320653958 -0.09050121389 0.72913207721 0.67836269375 -0.094776468866 0.63685898052 0.76513270737 
-0.098355447367 0.5810704507 0.80788819604 -0.099558484046 0.54240692668 0.83419592072 -0.098081438889 0.50676193691 0.85648839493 
-0.092479689075 0.46805167541 0.87884875619 -0.081709668377 0.42784678315 0.90015035424 -0.068614283613 0.39484392072 0.91618249184 
-0.059271434336 0.37691614457 0.92434902339 -0.058435845268 0.37561972392 0.9249297676 -0.0676978854 0.38742135723 0.91941377425 
-0.086050220957 0.40633707666 0.90966232175 -0.11025807742 0.42583427784 0.89805808508 -0.13560692802 0.44107676616 0.88716517483 
-0.15845033405 0.45079271843 0.87845285397 -0.17908817481 0.45658705628 0.87146754712 -0.20197010191 0.46038915956 0.86443617445 
-0.23353909368 0.46283638901 0.85512687288 -0.27873870539 0.46330647565 0.84122044895 -0.33783214806 0.46100126407 0.82057740297 
-0.40606518758 0.45599363798 0.7919475144 -0.47675963651 0.4493245704 0.75551815294 -0.54379810179 0.44243890937 0.71311390112 
-0.60135723804 0.43677388477 0.6690276869 -0.64379929021 0.43347454248 0.63057298939 -0.66749665888 0.43267683031 0.60600245123 
-0.66756104786 0.43267988561 0.60592933909 -0.64764398979 0.42935592784 0.62945273827 -0.59737694038 0.41288082208 0.68751015837 
-0.59737694038 0.41288082208 0.68751015837 
FrenetTangent 3 64 double
-0.94167113108 0.15047449703 0.3010197778 -0.94167113108 0.15047449703 0.3010197778 -0.92180413824 0.1360312422 0.36300500255 
-0.91046222037 0.094054757867 0.40275581659 -0.90137863017 0.022069630183 0.43246906998 -0.88772050078 -0.086210536637 0.45223893669 
-0.85518434726 -0.23609267554 0.4614325311 -0.79057759326 -0.41330680614 0.45184571818 -0.69960341564 -0.58074409065 0.41628279091 
-0.6146653478 -0.70474753152 0.35428438721 -0.56874270843 -0.77904365963 0.26386115289 -0.57028562415 -0.81056040799 0.1332896541 
-0.59308728529 -0.80428119048 -0.037138102614 -0.59452246245 -0.77546393788 -0.21259991225 -0.55094606709 -0.75707099013 -0.35114376978 
-0.45253883319 -0.77467878985 -0.44168017502 -0.2837962987 -0.81890814725 -0.4988477796 -0.043931620059 -0.84268343107 -0.53661405848 
0.21298794883 -0.80212993512 -0.55787426975 0.41222902776 -0.71413795351 -0.56575101593 0.53316786795 -0.62901728178 -0.56574666045 
0.59856936724 -0.57132796844 -0.56151497316 0.63038472283 -0.55280188618 -0.54500016133 0.63745695293 -0.56637570112 -0.52236691926 
0.55265417177 -0.80478597852 -0.2165476742 -0.020870121092 -0.69292443621 0.72070809885 -0.34864512663 -0.053195829872 0.93574397105 
-0.31935961325 0.17473904004 0.93138375835 -0.2312360199 0.23768054021 0.94341818082 -0.13401132891 0.26571308316 0.95469236991 
-0.031008277283 0.24081897919 0.97007458785 0.062009520279 0.1434640746 0.98771092871 0.11601390315 -0.058489095776 0.99152397851 
0.098365889685 -0.34304444004 0.93415451822 0.027021088376 -0.59005297618 0.80691222948 -0.033733511435 -0.72807137555 0.6846708131 
-0.050850630152 -0.7926930821 0.60749641233 -0.025717208589 -0.82648659121 0.56236868666 0.035109748077 -0.84731685297 0.52992589696 
0.12433297363 -0.85920680393 0.49629122474 0.23034589648 -0.85988368049 0.45556648693 0.33615143468 -0.84714134649 0.41152612557 
0.42850339438 -0.82224497759 0.37456379675 0.50699051599 -0.78663285999 0.35237673062 0.57946918728 -0.73832830077 0.34508952648 
0.65307226104 -0.67311895473 0.3469978309 0.72961306419 -0.58763466847 0.34978603884 0.8041909313 -0.48356274692 0.34560673575 
0.86829029969 -0.36933427895 0.3311557728 0.91539720278 -0.25700793337 0.30983041059 0.94406595622 -0.15684914655 0.29006519186 
0.95653719786 -0.074120273798 0.28203328548 0.95573949988 -0.0099596461314 0.29404559819 0.94341714339 0.036782425852 0.32956205288 
0.92000583807 0.067513507095 0.38604557279 0.88580410567 0.083560008915 0.45647432708 0.84194768915 0.086478619597 0.53258383104 
0.79146814869 0.077899572469 0.60622588712 0.73982864449 0.057492513873 0.67033438495 0.69407024871 0.023399157137 0.71952690658 
0.66052349898 -0.031522474501 0.7501433469 0.6425190333 -0.10660992911 0.75881724734 0.64004512118 -0.21078346862 0.73885896639 
0.64004512118 -0.21078346862 0.73885896639 
FrenetNormal 3 64 double
0.30532223679 0.0057992682102 0.95223143206 0.30532223679 0.0057992682102 0.95223143206 0.24316743998 -0.52636955718 0.81474209748 
0.14880649744 -0.8340932558 0.53117329276 0.098448712408 -0.96210400241 0.2542906596 0.15499633758 -0.98093204357 0.11725383251 
0.26996227124 -0.96284019973 0.0076890760866 0.41201900795 -0.90489241326 -0.10681787079 0.51992302175 -0.81338095394 -0.26094343301 
0.49634856313 -0.69465118976 -0.52067055654 0.17214839172 -0.4264366766 -0.88798462378 -0.14218828758 -0.062407390092 -0.98787033994 
-0.11492842388 0.13022340278 -0.98480115899 0.10504705252 0.18722977212 -0.97668322868 0.51507247782 0.022587080474 -0.85684897525 
0.85904260309 -0.24581188035 -0.44902374721 0.9571913246 -0.21103690171 -0.19811157017 0.9943082599 0.015304814533 -0.10543645927 
0.95389137147 0.29430126147 -0.058974731287 0.85620546386 0.5159105283 -0.027359284402 0.77071649548 0.63691865118 0.018185581507 
0.72778548158 0.68074266713 0.08317279572 0.55991133508 -0.16250237974 0.81246062885 -0.18207088234 -0.76949990289 0.61214385013 
-0.32664905304 -0.44821268273 0.83210923993 -0.55598092809 0.6071648705 0.56765837229 -0.096937466507 0.99508033071 0.020451479559 
0.74966904022 0.64778932378 0.13551871507 0.86280144658 0.49817997975 0.085967270304 0.99097154131 0.031999309888 0.13019772839 
0.87919674396 -0.45509309003 0.14107928557 0.50197670069 -0.85982593336 0.093374280638 0.090605424955 -0.99347934852 -0.069205787506 
-0.18429332665 -0.92874916078 -0.32165348762 -0.32203941606 -0.76931003873 -0.55177230703 -0.29232901178 -0.64791298317 -0.70338646213 
0.080994001104 -0.60955296288 -0.78859695487 0.72328631672 -0.40371372602 -0.56024292184 0.9115542035 -0.19021567317 -0.36453659866 
0.93739324678 -0.062278211124 -0.34265919703 0.92592698234 0.049668464775 -0.37442257808 0.90609429106 0.17171006585 -0.38666366391 
0.89152542845 0.31738430787 -0.32318665125 0.86091405333 0.48218480021 -0.16224922566 0.78876111491 0.61462697415 -0.0094650011988 
0.70632869626 0.70666853389 0.041465118484 0.62530965023 0.78034840532 0.0066488830817 0.53612375786 0.84118688396 -0.070540360833 
0.4345127726 0.88833136522 -0.14854641028 0.32603429663 0.92478421364 -0.19615248055 0.2121735709 0.96229545455 -0.1702052701 
0.07532109131 0.99713750699 0.0065973752257 -0.11128754945 0.91293373441 0.39264115668 -0.28356854052 0.60469833441 0.74426393651 
-0.38742174733 0.30524196159 0.86990329036 -0.46338488185 0.10625422807 0.87976388326 -0.53160114892 -0.035949717823 0.84623155002 
-0.59090537179 -0.15600672442 0.7915129459 -0.61947728098 -0.3305120367 0.71204613048 -0.57582107946 -0.58183260703 0.57437000431 
-0.34469950512 -0.90032992401 0.26568454812 -0.12415277773 -0.99167355116 -0.034200229834 0.032618845439 -0.95331220872 -0.30021965897 
0.032618845439 -0.95331220872 -0.30021965897 
FrenetBinormal 3 64 double
0.14154085137 0.98859688156 -0.051404213467 0.14154085137 0.98859688156 -0.051404213467 0.30190516203 0.83930363422 0.45213126713 
0.38589528579 0.54354589792 0.74541443859 0.42169232397 0.27178818952 0.86504726111 0.43350714852 0.17418400982 0.88415580239 
0.44247045586 0.13114495164 0.88714198263 0.45302031536 0.10172120934 0.88567792647 0.49013785029 0.033878089528 0.87098631606 
0.61304536055 -0.14418960219 0.77677843979 0.80429886413 -0.45961150687 0.37664386351 0.80904684522 -0.58232048106 -0.079662158983 
0.79689329864 -0.57980482234 -0.16966861402 0.7971876557 -0.6029931123 -0.029852104151 0.65662681467 -0.65294206458 0.37750216762 
0.23927893877 -0.58262276992 0.77672150571 0.056959889049 -0.53371609727 0.84374326578 0.097062335895 -0.5381917852 0.8372147307 
0.21148849871 -0.51959054523 0.82782744592 0.31141520889 -0.47312081982 0.82412211324 0.34889555484 -0.44572625119 0.82437855432 
0.33472825605 -0.45844713286 0.82327590817 -0.53769359125 -0.81731453628 0.20708102451 -0.74866469595 -0.29510754756 -0.59364358702 
-0.76672926289 -0.3891335501 -0.51058918674 -0.83093299709 -0.38885285871 -0.39792437551 -0.9322283536 -0.083578341172 -0.35208657689 
-0.57966004482 0.74150877263 -0.33787419634 -0.44955930297 0.83386130057 -0.32026826963 0.0040457428399 0.96352093989 -0.26760237361 
0.47544881128 0.85726104464 -0.19761560967 0.86265532593 0.49001777888 -0.12533301649 0.98910638015 0.097866284954 -0.10995798754 
0.97793666538 -0.14051871228 -0.15457803854 0.94634057045 -0.24494805492 -0.21080791044 0.95572265803 -0.22387683745 -0.19098000569 
0.99541658877 0.0091029130005 0.09519953664 0.69006922061 0.39234569193 0.60816883247 0.40967821479 0.49585496706 0.76569681465 
0.32532324319 0.50782387942 0.79767142041 0.29933257649 0.50806800691 0.80763042848 0.25689559876 0.50285901836 0.82531052277 
0.14685792943 0.47241972645 0.86905255918 -0.042280131041 0.38562489809 0.92168640463 -0.20511305322 0.2776778762 0.93852204687 
-0.27312340563 0.21801480682 0.93694885095 -0.27686209181 0.21387347364 0.93680602015 -0.25660916247 0.24201590039 0.93572434066 
-0.23931277842 0.2728728201 0.9318099689 -0.23611352897 0.28057277201 0.93033828312 -0.25243186429 0.22222916862 0.94174962198 
-0.28171496643 0.014932420036 0.95938193673 -0.27235471302 -0.40798627677 0.87141844614 -0.1719097914 -0.79560478726 0.58091311408 
-0.059107085937 -0.94987855605 0.30698058757 0.02501075067 -0.99082176194 0.13284087633 0.092327174748 -0.99560487451 0.015704351688 
0.156233835 -0.98467941917 -0.077443077525 0.26249090488 -0.94204904567 -0.20890696593 0.43208398987 -0.81297189179 -0.39035897435 
0.66700146812 -0.43406492779 -0.605554853 0.75614507843 -0.072234970433 -0.65040505027 0.76764461424 0.21625485443 -0.60328731477 
0.76764461424 0.21625485443 -0.60328731477 
