# vtk DataFile Version 4.2
vtk output
ASCII
DATASET POLYDATA
POINTS 64 float
0 0 0 -1.00527 -0.0850277 0.260027 -1.95467 -0.0119449 0.480805 
-2.94632 0.135172 0.704235 -3.91592 0.321727 0.923798 -4.88723 0.503173 1.15682 
-5.85967 0.631882 1.41541 -6.82904 0.635173 1.71401 -7.75772 0.411629 2.05284 
-8.57099 -0.0898939 2.39076 -9.24893 -0.791333 2.66911 -9.84912 -1.58765 2.85565 
-10.4278 -2.41749 2.93035 -11.0133 -3.2435 2.86836 -11.6038 -4.03637 2.64163 
-12.1666 -4.77148 2.22769 -12.641 -5.42941 1.61925 -12.9503 -6.00202 0.841847 
-13.0368 -6.50064 -0.0367344 -12.8976 -6.95473 -0.932781 -12.5717 -7.39864 -1.78455 
-12.104 -7.86006 -2.5574 -11.5271 -8.35934 -3.22572 -10.8597 -8.91372 -3.7519 
-10.1188 -9.52828 -4.06145 -9.35071 -10.1658 -3.89244 -8.97925 -10.4885 -3.01279 
-9.03184 -10.5144 -2.00199 -9.26375 -10.458 -1.01603 -9.59777 -10.3936 -0.0601948 
-9.99172 -10.3687 0.874409 -10.4106 -10.4268 1.79656 -10.8042 -10.6164 2.71196 
-11.0993 -10.9771 3.61253 -11.2327 -11.5013 4.47017 -11.2079 -12.1388 5.25878 
-11.0742 -12.8501 5.96957 -10.8821 -13.6219 6.59941 -10.6735 -14.4525 7.14316 
-10.4817 -15.3404 7.59493 -10.3259 -16.275 7.95746 -10.2017 -17.2385 8.24992 
-10.0832 -18.2137 8.50383 -9.93381 -19.1861 8.75161 -9.71255 -20.1391 9.02 
-9.37828 -21.0461 9.32746 -8.8977 -21.8654 9.68292 -8.26207 -22.5472 10.0822 
-7.49904 -23.0593 10.5111 -6.65709 -23.4065 10.9578 -5.78079 -23.6212 11.4217 
-4.90097 -23.7434 11.9118 -4.03855 -23.8087 12.4422 -3.21017 -23.8457 13.0268 
-2.43041 -23.8767 13.6751 -1.71169 -23.9201 14.3898 -1.06314 -23.9936 15.1664 
-0.48916 -24.1173 15.9937 0.0106237 -24.3167 16.8537 0.438946 -24.6256 17.7202 
0.795913 -25.0769 18.5526 1.07722 -25.717 19.3023 1.26902 -26.4749 19.8899 
1.37744 -27.4166 20.3217 
LINES 1 65
64 0 1 2 3 4 5 6 7 8 9 10 11 12 13 14 15 16 17 18 19 20 21 22 23 24 25 26 27 28 29 30 31 32 33 34 35 36 37 38 39 40 41 42 43 44 45 46 47 48 49 50 51 52 53 54 55 56 57 58 59 60 61 62 63 

CELL_DATA 1
FIELD FieldData 2
Length 1 1 double
63.89086687 
Tortuosity 1 1 double
0.87063563285 
POINT_DATA 64
SCALARS MaximumInscribedSphereRadius float
LOOKUP_TABLE default
0.62 0.952803 1.13518 0.898542 0.794575 1.14413 1.53241 1.55 1.55 
1.55 1.55 1.47461 1.31564 1.2861 1.35332 1.31873 1.36454 1.67905 
1.64946 1.33355 1.45609 1.62578 1.6678 1.65015 1.58784 1.85101 2.06518 
1.85906 1.68309 1.68085 1.95795 2.18092 2.16743 2.04252 1.89237 1.86 
1.86 1.86 1.74413 1.64944 1.96086 2.27719 2.04547 1.63265 1.8677 
2.12614 1.82054 1.69679 1.98426 2.16068 2.18926 2.37191 2.62535 2.5095 
2.11723 2.16768 2.4504 2.63397 2.72112 2.38863 2.25845 2.42189 2.20396 
1.86 
TEXTURE_COORDINATES TCoords 2 float
0 0 0.015873 0 0.031746 0 0.047619 0 0.0634921 
0 0.0793651 0 0.0952381 0 0.111111 0 0.126984 0 
0.142857 0 0.15873 0 0.174603 0 0.190476 0 0.206349 
0 0.222222 0 0.238095 0 0.253968 0 0.269841 0 
0.285714 0 0.301587 0 0.31746 0 0.333333 0 0.349206 
0 0.365079 0 0.380952 0 0.396825 0 0.412698 0 
0.428571 0 0.444444 0 0.460317 0 0.47619 0 0.492063 
0 0.507937 0 0.52381 0 0.539683 0 0.555556 0 
0.571429 0 0.587302 0 0.603175 0 0.619048 0 0.634921 
0 0.650794 0 0.666667 0 0.68254 0 0.698413 0 
0.714286 0 0.730159 0 0.746032 0 0.761905 0 0.777778 
0 0.793651 0 0.809524 0 0.825397 0 0.84127 0 
0.857143 0 0.873016 0 0.888889 0 0.904762 0 0.920635 
0 0.936508 0 0.952381 0 0.968254 0 0.984127 0 
1 0 
FIELD FieldData 7
Curvature 1 64 double
0 0.15777225932 0.069141299632 0.041003559368 0.013646756107 0.05696126412 0.12851594887 0.23062860981 0.29963018679 
0.2455456477 0.14973693675 0.11575828388 0.13366187857 0.16453178088 0.19421076232 0.22371463548 0.24813075586 0.25270323994 
0.22731823684 0.18849236975 0.15967850595 0.15236491857 0.17358218852 0.23370194624 0.49670475876 1.0512277809 0.56248356912 
0.19548322193 0.10401924368 0.072817963207 0.085223719656 0.13086923715 0.19434529814 0.23058562355 0.20284386373 0.14938730443 
0.11378980527 0.10283833178 0.10686610611 0.10421536558 0.079917761467 0.039540269704 0.030721149469 0.075157902054 0.12499595905 
0.17357977436 0.20823497835 0.21069875357 0.18002972871 0.13467987766 0.093684726989 0.069906276775 0.068067544482 0.078193079785 
0.088631903148 0.09573090251 0.10054018243 0.1081078855 0.12770698579 0.15963474663 0.21374419257 0.21620490581 0.24591549956 
0 
Torsion 1 64 double
0 0 -0.10197695495 -0.25279076707 -2.6909967556 -0.21401075616 -0.10018476399 -0.082635228187 -0.10082631184 
-0.20054401373 -0.48546917077 -0.55214682073 -0.20544404921 0.013387316301 0.12918052823 0.19470932727 0.22588607963 0.23590207705 
0.2483309006 0.26561654482 0.26365387162 0.22242889863 0.13315795605 0.034483953701 0.012062604056 0.028656676333 0.095097407034 
0.34506639989 0.51305664171 0.7787005562 0.6134688923 0.35509974663 0.19957609255 0.10463356733 0.010192448221 -0.1449530748 
-0.31437654137 -0.3371759402 -0.2205468917 -0.10038482739 0.040216973765 0.64282820912 1.2039804125 0.1537331855 0.03029155223 
0.0070755020198 0.0092695446825 0.026844545768 0.066962968842 0.15103993059 0.31639540547 0.50842428497 0.43662555656 0.26381477572 
0.18732269319 0.18698248963 0.23363093319 0.28750521707 0.26201663816 0.19371865192 0.090054509563 0.053188120229 0 
0 
Abscissas 1 64 double
0 1.0418269379 2.0192955709 3.0464008514 4.0579035067 5.0731131617 6.0875470301 7.1018742492 8.1153934836 
9.1288624235 10.143310963 11.157771409 12.172227871 13.186589961 14.20085588 15.214992945 16.228978493 17.242813996 
18.256725727 19.270862831 20.285151405 21.299513449 22.313805066 23.328491278 24.339629169 25.352060362 26.359980242 
27.372480748 28.386909117 29.401481387 30.416022634 31.43050958 32.44484116 33.4588136 34.472803908 35.48713588 
36.501587305 37.51608165 38.530568205 39.545033637 40.559523534 41.574098456 42.588707565 43.603284977 44.617780429 
45.632151462 46.646323191 47.660372044 48.674508345 49.68886121 50.703344324 51.71788534 52.73244446 53.746992079 
54.761518632 55.776025626 56.790523323 57.80501277 58.819438105 59.834229261 60.846124901 61.871294712 62.849266951 
63.890921641 
ParallelTransportNormals 3 64 double
0.25042289031 0 0.96813654823 0.22649478878 -8.4612229374e-05 0.97401237338 0.21989276207 0.00065850859043 0.97552382829 
0.22094266035 0.00047971057419 0.9752866813 0.23297188497 -0.0018011302404 0.97248180278 0.25629818252 -0.0055229610221 0.96658198749 
0.29434853192 -0.0081093944335 0.95566373766 0.3432674323 -0.0024303903381 0.93923456236 0.37745875022 0.011801538345 0.92595119503 
0.37272544447 0.0079836556701 0.92790732527 0.33714625308 -0.033709190542 0.94084860339 0.28148040227 -0.11049497508 0.95318395057 
0.20611362159 -0.21768966562 0.95400649079 0.11092234476 -0.34873160147 0.93063553745 0.0026402524224 -0.49219337046 0.87048188674 
-0.10312316837 -0.63423669859 0.76623065868 -0.18078178324 -0.75618116914 0.62889425684 -0.21204857182 -0.84080931151 0.4980713853 
-0.20960989341 -0.8849325783 0.41588222426 -0.20283200061 -0.89801874646 0.3904119754 -0.20973199416 -0.89014705131 0.40453765914 
-0.23683412965 -0.86522194358 0.44192825592 -0.29107731941 -0.81929003037 0.49400186261 -0.38513324074 -0.74121826197 0.54978893677 
-0.59557995325 -0.5665964998 0.56943210808 -0.91351769764 -0.29867385459 0.27618715519 -0.96981496438 -0.2372007675 -0.056521949408 
-0.94805964138 -0.23952781076 -0.20930681846 -0.92017061292 -0.24548203396 -0.3049993674 -0.89490733758 -0.24858195477 -0.37060473407 
-0.87610174013 -0.24781270983 -0.4135632984 -0.87083105726 -0.24620581878 -0.42548321297 -0.88349617546 -0.25632596938 -0.39208609432 
-0.90123616965 -0.29296265865 -0.31929022402 -0.90590001692 -0.34283182524 -0.2486191846 -0.90172045878 -0.37839771556 -0.20908223998 
-0.89967791939 -0.38769640008 -0.20067671197 -0.90461353672 -0.3679558696 -0.21513443986 -0.91552980138 -0.32110404063 -0.24227541739 
-0.92732854058 -0.25924408742 -0.26991532185 -0.93490373278 -0.2079001401 -0.28763265146 -0.93713976449 -0.19004178161 -0.29266565064 
-0.93353390956 -0.21626119843 -0.28591175868 -0.91961431528 -0.28857011817 -0.26652729323 -0.88502835452 -0.40436750111 -0.23067669094 
-0.81477134587 -0.55320752659 -0.1735197005 -0.69954522022 -0.70816313463 -0.095610980646 -0.55368099632 -0.83267760752 -0.0092388444362 
-0.41112800621 -0.90899767114 0.068534636216 -0.29933881055 -0.94555264732 0.12777506663 -0.22650896631 -0.95952634747 0.16734060082 
-0.18927386759 -0.9635336331 0.18915163475 -0.18059025658 -0.96405902787 0.19487778222 -0.19264824671 -0.96354905234 0.18563371671 
-0.21890348275 -0.96224600424 0.16175256589 -0.25509797186 -0.9591528829 0.1222733494 -0.2988108581 -0.95210146247 0.064922078216 
-0.34924483816 -0.93692197504 -0.01432674806 -0.40690238295 -0.90534424471 -0.12158227388 -0.46937853016 -0.84484208206 -0.25675991083 
-0.53630273178 -0.73062321682 -0.42257436614 -0.58558808407 -0.58405014768 -0.56211388596 -0.62126372714 -0.38451684917 -0.68277241746 
-0.62126372714 -0.38451684917 -0.68277241746 
FrenetTangent 3 64 double
-0.97103749177 -0.005933966489 0.23885346474 -0.97103749177 -0.005933966489 0.23885346474 -0.96889333255 0.10991474315 0.22173060092 
-0.96226670875 0.16371261067 0.21734986161 -0.95768447335 0.18157919119 0.22331468117 -0.9580771455 0.15287583243 0.24231624613 
-0.9591658289 0.065202006771 0.27522647217 -0.94228558446 -0.10934446648 0.31645167873 -0.86901077543 -0.36171596684 0.33761195404 
-0.74093207172 -0.59771135169 0.30620386209 -0.63176217332 -0.7403200133 0.22978867305 -0.58203444998 -0.80286988839 0.12898000371 
-0.57513573687 -0.81803389708 0.0062791241749 -0.58170021556 -0.80076786811 -0.14281344694 -0.57129907673 -0.75690054473 -0.3173624589 
-0.51465196653 -0.69121759172 -0.50729832864 -0.38947296156 -0.61153756062 -0.68871810211 -0.19676051129 -0.53253015459 -0.82322350285 
0.026155434686 -0.47283734241 -0.88076145514 0.23032721771 -0.44470816729 -0.86555416857 0.39246704876 -0.4477220608 -0.80343921482 
0.51645195488 -0.47497121743 -0.71251647063 0.61561964229 -0.52130016765 -0.59098104135 0.69994742196 -0.58098220698 -0.41537125762 
0.76760778404 -0.63692015393 -0.071491309949 0.62538269611 -0.52696632582 0.57550236738 0.16364124397 -0.17889835427 0.97016334816 
-0.14104017041 0.015120024436 0.98988840542 -0.27930746801 0.059618885529 0.95834906313 -0.35900805328 0.044039547789 0.93229487605 
-0.40097197851 -0.016377340412 0.91594391486 -0.40134959818 -0.12235894232 0.90771514765 -0.341171517 -0.27261028837 0.89960303838 
-0.2127144408 -0.43927876634 0.87280394827 -0.053821081212 -0.5757284185 0.81586768495 0.078348793165 -0.66672795909 0.74117156933 
0.16084189726 -0.73218124685 0.66184628566 0.1977573612 -0.79083317663 0.57920196204 0.19763214789 -0.84822861161 0.49137537237 
0.17155416654 -0.89947456639 0.40188888061 0.13811035232 -0.93624152698 0.32307481137 0.11962789965 -0.95559512148 0.26930861374 
0.13203438965 -0.95990937352 0.24726688935 0.18280655854 -0.94961670277 0.2545778466 0.27436299662 -0.91860896385 0.28439851903 
0.40323495593 -0.8542739286 0.32805125398 0.55336266284 -0.74417174965 0.37416329377 0.69350087498 -0.59197374637 0.41063806449 
0.7944827986 -0.42536340792 0.43343171773 0.84886197657 -0.27759429408 0.44986081473 0.86648564903 -0.16622986881 0.47071249265 
0.85917698334 -0.09246469419 0.50325459921 0.83375718244 -0.050444942521 0.54982203349 0.79316150495 -0.033538186425 0.60808717887 
0.73925843999 -0.036704384836 0.67242081097 0.67466522929 -0.057683790017 0.73586643405 0.60332595283 -0.097319780004 0.79153436758 
0.53001332919 -0.15948280184 0.83285719472 0.45832808144 -0.25101499114 0.85260004925 0.38873582432 -0.37631631469 0.84099375158 
0.31516016788 -0.53889908856 0.78119257608 0.23754731636 -0.70193609345 0.67145885444 0.14977435254 -0.84789991258 0.50856010614 
0.14977435254 -0.84789991258 0.50856010614 
FrenetNormal 3 64 double
-0.04274553545 0.98787726789 -0.14923579594 -0.04274553545 0.98787726789 -0.14923579594 0.084613418188 0.98909203381 -0.12057163067 
0.16525784153 0.98618707093 -0.011176177952 0.13189995793 -0.41273432625 0.90125067381 -0.032095026669 -0.89769310052 0.43945080104 
0.022510409443 -0.95238323783 0.30407145502 0.17068109484 -0.97000935187 0.17306016629 0.38329446855 -0.92362143166 -0.0029667071935 
0.54717619886 -0.80163790562 -0.24077972437 0.50754177422 -0.619117898 -0.59924483794 0.1810353879 -0.28257258231 -0.94200792144 
-0.050100897137 0.027561163645 -0.99836380261 -0.030094955313 0.19664288637 -0.98001319833 0.13961713211 0.29141694639 -0.94635258745 
0.38876091878 0.33923073638 -0.85661394778 0.65715282887 0.33942389484 -0.67300934549 0.87158132902 0.28953947026 -0.3956170902 
0.97824661051 0.1934823664 -0.074820738598 0.97146468864 0.053327667986 0.23111148511 0.86854147983 -0.10704298512 0.48391889522 
0.70107626241 -0.24325157834 0.67031391447 0.50896268114 -0.30952613299 0.80321265067 0.32133499896 -0.26321685395 0.90964867187 
0.054609749163 -0.046143141024 0.99744101872 -0.45098183748 0.35778698155 0.81768200304 -0.79565366553 0.55746312163 0.23700234714 
-0.900395435 0.41372526366 -0.13460856896 -0.95610172974 0.074866339991 -0.28330992485 -0.8007537818 -0.52769544976 -0.283427051 
-0.28496343296 -0.94800700538 -0.14169883423 0.18799070728 -0.98094229749 -0.049109092523 0.49699490048 -0.86463258236 -0.073529357563 
0.69120263909 -0.69901347909 -0.18335503204 0.7663228457 -0.54764819874 -0.33590288266 0.71245667144 -0.48258554927 -0.50942779562 
0.50017749878 -0.51762181394 -0.69418306479 0.1565104642 -0.55781770224 -0.81507293273 -0.15335278933 -0.52184301553 -0.83914408128 
-0.33651514453 -0.43690229107 -0.83419059307 -0.38489999001 -0.35129740313 -0.85348821448 -0.14043452777 -0.28481614474 -0.94823937226 
0.97754468867 0.084762710859 -0.19292916966 0.93052851271 0.25069934448 0.26695791001 0.88239245885 0.35805273773 0.30525691732 
0.82604878203 0.49405715716 0.27120275658 0.73233422005 0.64868820949 0.20709948579 0.59442641338 0.7921965635 0.13813704736 
0.42848575294 0.89840579426 0.096265198135 0.24828738631 0.96067850375 0.1242987781 0.036525380194 0.96151374707 0.27231821606 
-0.24295625451 0.79187157338 0.56027820738 -0.48632017908 0.40440258528 0.77456518928 -0.60474292343 0.074635646015 0.79291583217 
-0.67029566402 -0.13620643866 0.7294871684 -0.71350893632 -0.30627646303 0.63015849275 -0.7227047034 -0.48636936829 0.49106287711 
-0.66878699715 -0.68245608553 0.29491972427 -0.54681113196 -0.83588741541 0.047852008556 -0.43138818378 -0.88089161826 -0.19476701924 
-0.36433602885 -0.82877018527 -0.4247343147 -0.36514542859 -0.70507443336 -0.60789707961 -0.37679734778 -0.52449482523 -0.76349783039 
-0.37679734778 -0.52449482523 -0.76349783039 
FrenetBinormal 3 64 double
-0.23507234796 -0.15512347222 -0.95951951496 -0.23507234796 -0.15512347222 -0.95951951496 -0.23256457084 -0.09805966499 -0.96762493896 
-0.21617730466 0.025164305011 -0.97602977962 0.25581800289 0.89256897395 0.37131896819 0.28470702932 0.41325062267 0.8649657972 
0.28194714777 0.29785040978 0.91202573388 0.28803791623 0.21708441893 0.93268886231 0.3128987417 0.12682669398 0.94128070581 
0.38938139721 -0.01085395467 0.92101265962 0.58589922664 -0.26195287035 0.76687860183 0.79275600746 -0.52493111743 0.30981483921 
0.81652237219 -0.57450929103 -0.056835642294 0.81284632797 -0.56577592441 -0.13848628259 0.80877958762 -0.58495959582 -0.060809949063 
0.7641978156 -0.63807581712 0.094132620451 0.64533787408 -0.71471199204 0.26967720838 0.44903372712 -0.79534805564 0.40717340568 
0.20578984977 -0.85964493922 0.46761214293 -0.05661917966 -0.89408657622 0.44430109467 -0.30266369695 -0.88774250524 0.34685433678 
-0.49170057208 -0.84571331564 0.2073632927 -0.60163896585 -0.79526078 0.074771963731 -0.63782240861 -0.77017956541 0.002451958541 
-0.63858912078 -0.7695476126 -0.00063778438681 -0.63679813573 -0.77090529074 -0.01389845475 -0.58322961841 -0.81069738304 -0.051117172636 
-0.41157712638 -0.91027621691 -0.04473788071 -0.088638708769 -0.99540977473 0.036090991718 0.47948576477 -0.84829124158 0.22471175058 
0.87064189787 -0.31782778429 0.37545730144 0.89642511902 0.15093209807 0.41670314105 0.79787095754 0.42201200006 0.43047393291 
0.69064569672 0.56428212935 0.4523209039 0.64019730347 0.60713938972 0.4706688582 0.69732844337 0.56796568224 0.43720478711 
0.85085389686 0.44269434093 0.28296531009 0.96767582417 0.25183784031 0.013461110754 0.96820682508 0.09048806321 -0.2332111796 
0.92591939468 0.0078671771849 -0.37763922212 0.91256645143 -0.0064759336624 -0.40887716249 0.98283635924 0.075615656472 -0.16827050681 
0.16423550653 0.26718771953 0.94954590249 -0.31733018954 0.18809028816 0.92947490246 -0.38224140887 0.16719990592 0.9088100444 
-0.39375751425 0.16162790719 0.90489305423 -0.39683290379 0.15941146099 0.90394227281 -0.40707956897 0.14829594867 0.90127384082 
-0.43034525936 0.1092382719 0.89603010982 -0.46667624595 0.0061822594325 0.88440661527 -0.49786395393 -0.21876687343 0.83920947234 
-0.4503189644 -0.60364699254 0.65789295384 -0.26142234824 -0.91318883961 0.31264116659 -0.071977938427 -0.996646733 0.038916140411 
0.064812666182 -0.9900003001 -0.12529454937 0.18902863851 -0.95019330063 -0.24779197982 0.33718793917 -0.86831658859 -0.36377272529 
0.52135383697 -0.71331544722 -0.46837084605 0.70066608004 -0.48814311732 -0.52036846685 0.81411835367 -0.28708184928 -0.50477254088 
0.87631805109 -0.15075726301 -0.45753570461 0.9001333726 -0.1007758113 -0.42379729517 0.91410688764 -0.077271705965 -0.39804231111 
0.91410688764 -0.077271705965 -0.39804231111 
