# vtk DataFile Version 4.2
vtk output
ASCII
DATASET POLYDATA
POINTS 64 float
0 0 0 -0.884956 0.214088 0.518713 -1.76459 0.32419 0.929306 
-2.72147 0.289403 1.27285 -3.66646 0.00752243 1.50469 -4.5025 -0.54911 1.63475 
-5.20303 -1.27699 1.72432 -5.83576 -2.06345 1.82681 -6.47417 -2.84183 1.95289 
-7.16389 -3.57702 2.06645 -7.91561 -4.25723 2.09225 -8.69355 -4.88747 1.93455 
-9.39524 -5.46841 1.49362 -9.85763 -5.97913 0.753512 -10.0002 -6.40668 -0.153073 
-9.8734 -6.77231 -1.08986 -9.56023 -7.11183 -1.99273 -9.13119 -7.46459 -2.84151 
-8.6382 -7.8702 -3.62982 -8.11755 -8.36309 -4.3473 -7.59382 -8.96785 -4.97041 
-7.08142 -9.69879 -5.4507 -6.58922 -10.556 -5.67418 -6.17393 -11.406 -5.34543 
-5.99338 -11.8196 -4.44773 -6.01079 -11.8578 -3.436 -6.15205 -11.7562 -2.4366 
-6.40174 -11.6482 -1.45941 -6.75901 -11.6427 -0.510538 -7.20614 -11.82 0.381583 
-7.70357 -12.191 1.18325 -8.21608 -12.7124 1.8861 -8.72232 -13.339 2.50251 
-9.20503 -14.0416 3.05241 -9.64096 -14.8044 3.55966 -9.99783 -15.6187 4.04811 
-10.2337 -16.4761 4.53572 -10.2991 -17.36 5.02796 -10.1428 -18.2347 5.51526 
-9.73515 -19.0409 5.97375 -9.09726 -19.716 6.3787 -8.29762 -20.2346 6.72432 
-7.40715 -20.6158 7.02508 -6.4723 -20.896 7.30189 -5.51734 -21.1064 7.57224 
-4.55318 -21.261 7.84754 -3.58365 -21.3502 8.13257 -2.61284 -21.3416 8.42637 
-1.65401 -21.1991 8.72444 -0.72661 -20.9196 9.02546 0.164465 -20.5497 9.33923 
1.03435 -20.1584 9.68496 1.90143 -19.8133 10.0826 2.77195 -19.5797 10.5474 
3.62944 -19.5245 11.0851 4.42531 -19.7112 11.6832 5.07979 -20.1763 12.2998 
5.52347 -20.8836 12.8729 5.76421 -21.7331 13.3711 5.86872 -22.6401 13.8128 
5.90667 -23.5612 14.2377 5.94034 -24.4709 14.6931 6.02209 -25.3048 15.2004 
6.27565 -26.0422 15.8971 
LINES 1 65
64 0 1 2 3 4 5 6 7 8 9 10 11 12 13 14 15 16 17 18 19 20 21 22 23 24 25 26 27 28 29 30 31 32 33 34 35 36 37 38 39 40 41 42 43 44 45 46 47 48 49 50 51 52 53 54 55 56 57 58 59 60 61 62 63 

CELL_DATA 1
FIELD FieldData 2
Length 1 1 double
63.853630785 
Tortuosity 1 1 double
1.0499019087 
POINT_DATA 64
SCALARS MaximumInscribedSphereRadius float
LOOKUP_TABLE default
1.24 1.24 1.24 1.23176 1.09437 0.938107 0.950449 1.09574 1.24567 
1.26925 1.32137 1.41112 1.59937 1.37842 1.14475 1.22448 1.24 1.29631 
1.47424 1.66048 1.81888 1.82997 1.6616 1.37973 1.31334 1.49971 1.55 
1.61 1.81458 1.85992 1.79274 1.59437 1.69636 1.83682 1.86 1.77547 
1.59056 1.71176 1.91488 2.12097 2.17 2.05373 1.7122 1.56037 1.58358 
1.74071 1.86608 1.86544 1.86 2.04801 2.71676 2.91296 2.54533 2.14882 
2.06863 2.57325 2.37376 2.27306 2.42723 2.14791 1.93115 2.06601 1.84504 
1.24 
TEXTURE_COORDINATES TCoords 2 float
0 0 0.015873 0 0.031746 0 0.047619 0 0.0634921 
0 0.0793651 0 0.0952381 0 0.111111 0 0.126984 0 
0.142857 0 0.15873 0 0.174603 0 0.190476 0 0.206349 
0 0.222222 0 0.238095 0 0.253968 0 0.269841 0 
0.285714 0 0.301587 0 0.31746 0 0.333333 0 0.349206 
0 0.365079 0 0.380952 0 0.396825 0 0.412698 0 
0.428571 0 0.444444 0 0.460317 0 0.47619 0 0.492063 
0 0.507937 0 0.52381 0 0.539683 0 0.555556 0 
0.571429 0 0.587302 0 0.603175 0 0.619048 0 0.634921 
0 0.650794 0 0.666667 0 0.68254 0 0.698413 0 
0.714286 0 0.730159 0 0.746032 0 0.761905 0 0.777778 
0 0.793651 0 0.809524 0 0.825397 0 0.84127 0 
0.857143 0 0.873016 0 0.888889 0 0.904762 0 0.920635 
0 0.936508 0 0.952381 0 0.968254 0 0.984127 0 
1 0 
FIELD FieldData 7
Curvature 1 64 double
0 0.12970617606 0.17506175636 0.26814923651 0.31211908927 0.21885281386 0.088154065815 0.02484890589 0.066363672528 
0.11774127764 0.18846834254 0.29634193887 0.39525472908 0.37395318101 0.27614735552 0.18769378479 0.12547040772 0.10002780884 
0.11287359473 0.14307330741 0.18739045325 0.28498102007 0.59478376878 0.87327033779 0.45336286649 0.1837742718 0.10806497067 
0.14790121267 0.20802624155 0.21627919229 0.17705072448 0.13309992523 0.10104427821 0.085043974722 0.0936965893 0.12536040582 
0.16907028856 0.21864199263 0.25963980395 0.26809639913 0.22961163913 0.16719895634 0.11006217365 0.070948430754 0.055196255413 
0.064521040146 0.095655860307 0.13132899006 0.1373341106 0.095705279909 0.042684131999 0.067653650841 0.12709920908 0.18962861501 
0.25422712268 0.31249091785 0.32435729351 0.25632409313 0.15489014762 0.068145853418 0.031676694205 0.096819747544 0.26328356832 
0 
Torsion 1 64 double
0 0 0.20825294265 0.14869689662 0.1359235499 0.19699071232 0.54106600186 2.9812194733 0.68956134593 
0.51193766921 0.38267165379 0.24588743905 0.16578481218 0.1496618209 0.16898251652 0.23667466785 0.42077942668 0.54448254113 
0.29862876457 0.065105561449 -0.094744497682 -0.19892992677 -0.10550868001 -0.031549824916 0.064823693031 0.48935461678 1.0611417118 
0.46467251668 0.16991760599 0.082545048153 0.056412931749 0.091317728109 0.22899221355 0.41990880932 0.36881480932 0.18119679939 
0.076991950699 0.037896909121 0.030299835676 0.03684720391 0.052040613372 0.078411390198 0.12480898815 0.19579369111 0.17223590134 
0.0073437971711 -0.02921962277 0.0061603867589 0.065854244195 0.25806825413 1.5183395021 0.56806513837 0.13741295698 0.047258282924 
0.018511085419 0.00749038061 -0.0014237409771 -0.019414814459 -0.078637924763 -0.44008467352 -1.9917735234 -0.27416344492 0 
0 
Abscissas 1 64 double
0 1.0478757151 2.0248424759 3.0421224097 4.0551442919 5.0679197641 6.0821077049 7.0966874689 8.1112449083 
9.1256961126 10.139823212 11.153357389 12.165426573 13.176556572 14.188998512 15.202572526 16.216733805 17.231108817 
18.245501176 19.259788215 20.273834137 21.287498353 22.300893168 23.302463373 24.307207098 25.319808604 26.334244695 
27.348590063 28.362509037 29.376041539 30.389815578 31.403954591 32.418295032 33.432732802 34.447192742 35.461575776 
36.475744073 37.489585565 38.503014021 39.516106467 40.529348762 41.543150234 42.557400366 43.571849355 44.586386779 
45.600932505 46.615424986 47.62975143 48.643917851 49.658197806 50.672729968 51.687304408 52.701714752 53.71581707 
54.729454742 55.742382859 56.754736617 57.767462026 58.781277277 59.795492414 60.810570377 61.828427143 62.807954568 
63.853629147 
ParallelTransportNormals 3 64 double
0.50567983211 0 0.86272122229 0.42443883079 0.014759497105 0.90533631108 0.33725321212 0.01847718831 0.94123263035 
0.23773707326 0.0018801213881 0.97132772489 0.17240045041 -0.028881990849 0.98460343048 0.16365542787 -0.03619140391 0.98585347959 
0.18050135029 -0.017057877097 0.98342681038 0.19410895006 -0.00030626804607 0.98097992931 0.17973426697 -0.016688029644 0.9835736388 
0.1105536444 -0.084618077922 0.99026141629 -0.031274326286 -0.20611858347 0.97802711929 -0.24486067504 -0.38095510141 0.89158087717 
-0.45289716101 -0.57606305155 0.68046713527 -0.5464201435 -0.72106699757 0.42601339391 -0.54803887277 -0.80167019764 0.23870125294 
-0.5232236376 -0.84144515964 0.1349335702 -0.50794517671 -0.85569584504 0.098875266022 -0.51635449699 -0.84877921349 0.11380632752 
-0.54989271208 -0.81905053966 0.16362829427 -0.60368057041 -0.76251818855 0.23267097164 -0.6729924938 -0.67316434742 0.30648142628 
-0.76146546127 -0.53329976859 0.36845855685 -0.88715466551 -0.29673110147 0.35342220204 -0.98354552581 -0.092326997576 0.15528658726 
-0.99851992876 -0.050919313214 -0.01910956337 -0.98943722535 -0.054543517543 -0.13430927658 -0.96849261447 -0.06577141914 -0.2402002834 
-0.93355255594 -0.07230180182 -0.35107274853 -0.88722831081 -0.062406765801 -0.45709005687 -0.84163203158 -0.03594063999 -0.53885414892 
-0.80631451315 -0.0047361617869 -0.59146806732 -0.78315227706 0.021364017116 -0.62146286269 -0.77289970827 0.035144538243 -0.63355418267 
-0.77792785883 0.027123845826 -0.62776790572 -0.79765911947 -0.012125209204 -0.60298665692 -0.82527518392 -0.09000939522 -0.55751159592 
-0.84607333711 -0.21025079794 -0.48985151853 -0.83769867424 -0.37223229501 -0.39962989093 -0.77493914134 -0.55929631513 -0.29437554095 
-0.65261219145 -0.73260563499 -0.19335540113 -0.50461553942 -0.85550499082 -0.1160791457 -0.3737538427 -0.92517462205 -0.066030173202 
-0.27730636067 -0.96012502982 -0.035512102818 -0.21073851235 -0.97740759091 -0.016238246311 -0.15799165002 -0.9874396681 -0.0012411223207 
-0.096431968522 -0.99520119427 0.016596938463 -0.0044853119216 -0.99902031979 0.044025931352 0.12138166097 -0.98916039747 0.082632925933 
0.24940107004 -0.96051951862 0.12329379797 0.33296046003 -0.93068360766 0.15154324296 0.35192263947 -0.92248701849 0.15864474954 
0.30979953682 -0.94034619497 0.14061749746 0.21192521812 -0.9729421513 0.09203951409 0.061371820128 -0.99810392345 0.0046965608556 
-0.13347675034 -0.98259886494 -0.12916434394 -0.34359510032 -0.88815660061 -0.30515612371 -0.50897165856 -0.71161144604 -0.48431085126 
-0.59048628073 -0.52622925786 -0.6118894675 -0.6150237309 -0.40140451358 -0.67869008163 -0.61904341508 -0.34983365674 -0.70313701571 
-0.61825420558 -0.37000535906 -0.69343909001 -0.61265970402 -0.45377607318 -0.64709764524 -0.56960203564 -0.65939703329 -0.49066187287 
-0.56960203564 -0.65939703329 -0.49066187287 
FrenetTangent 3 64 double
-0.87333613726 0.16044907331 0.45993487172 -0.87333613726 0.16044907331 0.45993487172 -0.92438066593 0.037908627004 0.37958308769 
-0.94522714937 -0.15738340371 0.28596520825 -0.88983192284 -0.41893491336 0.18081119287 -0.76265668712 -0.63755116331 0.10901051211 
-0.65783314951 -0.74717840092 0.094762780669 -0.62649174808 -0.77124411587 0.112652578 -0.65493887884 -0.74638469246 0.11817341429 
-0.71183063186 -0.69897129698 0.068820618553 -0.75780218145 -0.64920413712 -0.065344029178 -0.73846664478 -0.60448638508 -0.29876951787 
-0.58633181486 -0.54985498069 -0.59487351857 -0.30408370622 -0.47162198947 -0.8277111807 -0.0078581077651 -0.3952384422 -0.91854494933 
0.21794723956 -0.34930908468 -0.91130794144 0.36662243648 -0.34195939282 -0.86524664849 0.45506274017 -0.37428904378 -0.80797624607 
0.50046878567 -0.44361979499 -0.74345979855 0.51623935645 -0.54257077554 -0.66265668365 0.5132658645 -0.66166336785 -0.54658918758 
0.50062981817 -0.79143462065 -0.35071502162 0.46867649541 -0.88169528054 0.054367038891 0.32051594733 -0.67971951949 0.65973547906 
0.0828576127 -0.22946518917 0.96978365782 -0.078612697124 0.031411531636 0.99641023656 -0.19298988997 0.10346735508 0.97573019263 
-0.30008573592 0.056115120492 0.95226028183 -0.39893070359 -0.085201593644 0.9130142289 -0.46867663674 -0.27205819363 0.84043235864 
-0.4999990062 -0.44180805738 0.74485343138 -0.50335783495 -0.56721947264 0.65183813931 -0.48810600013 -0.65603914742 0.57564326599 
-0.45319435503 -0.72292870369 0.52152561389 -0.39119292454 -0.77819162749 0.49131037715 -0.29278286202 -0.82573337659 0.48212299933 
-0.14909589855 -0.86175583029 0.48491989235 0.045110258987 -0.87273147163 0.48611196545 0.28064561934 -0.83648762203 0.47066601166 
0.52063112992 -0.73761996987 0.42995349354 0.71389432167 -0.59280565221 0.37274167487 0.83632738441 -0.44525393328 0.3198522174 
0.9011503285 -0.32652946352 0.285143113 0.93200981673 -0.24195177253 0.26984632904 0.94617402597 -0.17995400633 0.26901908517 
0.95352131254 -0.12022069333 0.27630434566 0.95751163482 -0.039774541449 0.28563867917 0.95337070803 0.074653542211 0.29242288164 
0.93212730341 0.20854220381 0.29605546689 0.89736545145 0.32046068566 0.30338127084 0.86805315873 0.37522828804 0.32509605575 
0.85658031672 0.36315427034 0.36659123958 0.85835415147 0.28587062274 0.42603537144 0.85607689621 0.143074628 0.49665078133 
0.82248251032 -0.065416268997 0.56501613425 0.72482590685 -0.3257431819 0.60705748015 0.54936413042 -0.58650321122 0.595157992 
0.34052249794 -0.77456185871 0.53300877613 0.17075897209 -0.86875615781 0.46486999443 0.070242642747 -0.90137984926 0.42729420601 
0.035233864518 -0.90067214208 0.43306843254 0.057852884571 -0.87395994395 0.48254228843 0.16700835071 -0.78262002304 0.59967833905 
0.16700835071 -0.78262002304 0.59967833905 
FrenetNormal 3 64 double
-0.42912064268 -0.70023741869 -0.57054625711 -0.42912064268 -0.70023741869 -0.57054625711 -0.23074054406 -0.84794596296 -0.47722787558 
0.028855972419 -0.91294296748 -0.40706568387 0.34782700102 -0.87926000705 -0.32545079099 0.61501288751 -0.76698652998 -0.18300494807 
0.75179922973 -0.64385303026 0.1423066885 -0.22248698531 0.31547268086 0.92248389092 -0.75312113574 0.63182622154 -0.18331443118 
-0.51564978882 0.45356601904 -0.7268996916 -0.13886851195 0.25832458864 -0.95602507461 0.25267201654 0.16272886477 -0.95376945256 
0.6129680678 0.17895157963 -0.76957551937 0.86541464161 0.22645090623 -0.4469647471 0.96885677913 0.22434192106 -0.10482005529 
0.973959006 0.13761738104 0.18018132831 0.90072517038 -0.10243425433 0.42213906592 0.6228161442 -0.51471050307 0.58921400913 
0.23936733136 -0.75436416196 0.61125934908 0.021910686798 -0.76510983609 0.64352689184 -0.058295458769 -0.66228756349 0.74697846203 
-0.069984328714 -0.44081787871 0.89486411904 -0.12755493119 -0.0066465896984 0.99180923689 -0.31261001978 0.58155527193 0.7510448996 
-0.45206339542 0.85859260425 0.24177970643 -0.66093816798 0.74661432879 -0.075682112506 -0.97817043928 0.057805746579 -0.19960232309 
-0.71205884735 -0.67745336869 -0.18446986519 -0.42571167931 -0.86466245034 -0.26669910586 -0.22849573703 -0.88167917851 -0.41283353102 
-0.082441644188 -0.83189394619 -0.5487766737 0.046627973693 -0.77110568497 -0.63499752336 0.22731707939 -0.73234216286 -0.64187374297 
0.53590642193 -0.6884816383 -0.48866894791 0.82139559905 -0.53600196317 -0.19496452328 0.94145124923 -0.33710208841 -0.0056327006231 
0.98748916305 -0.15522203846 0.02777177766 0.99898174801 0.039764428239 -0.021313314909 0.95930884731 0.26032555911 -0.10934870253 
0.8514963361 0.48541416517 -0.19831055911 0.69314591108 0.67386684985 -0.25583630435 0.52993772534 0.806025552 -0.26360731549 
0.39165400191 0.89520968266 -0.21261882998 0.27433713078 0.9575068652 -0.088992930973 0.16214164144 0.98290536264 0.087218898167 
0.081718189555 0.98576960666 0.14690275722 0.014590695416 0.99585652765 0.089760168999 -0.087818361617 0.99561803431 0.032135107177 
-0.22453286049 0.97424712067 0.020677098899 -0.37189732118 0.91926526124 0.12901070486 -0.48304763336 0.48708823846 0.72760568432 
-0.038470996644 -0.66350825439 0.74717921463 0.028456317533 -0.85563341228 0.51679947928 -0.065358697056 -0.92323972066 0.37862469401 
-0.23758839913 -0.94206464041 0.23678252868 -0.45071429346 -0.8906330618 0.060244293553 -0.65117806749 -0.74683863603 -0.13490432218 
-0.78540825989 -0.54597301295 -0.29162876132 -0.86107487781 -0.3609109975 -0.35818055041 -0.95069409304 -0.1902050247 -0.24495466936 
-0.13381126087 0.42518388635 0.89516099628 0.52231978833 0.438416156 0.73141869875 0.60617485868 0.56119145533 0.56357447703 
0.60617485868 0.56119145533 0.56357447703 
FrenetBinormal 3 64 double
0.23051998911 -0.69564621205 0.68039465186 0.23051998911 -0.69564621205 0.68039465186 0.30377489328 -0.5287254296 0.79257191113 
0.32513530867 -0.37651773181 0.86747992985 0.29532274965 -0.22670548817 0.92811049729 0.20028461195 -0.072527077602 0.97704958791 
-0.045315180464 0.16485664261 0.98527601301 -0.74699908364 0.55286481293 -0.36923280958 0.062158023504 -0.20905864402 -0.97592564444 
0.47686732623 -0.5529168042 -0.68328658761 0.63753540308 -0.71540365896 -0.28591294927 0.62515907304 -0.77981762408 0.032566955118 
0.52960848816 -0.8158650822 0.23211854063 0.39823435022 -0.85222807165 0.33928854415 0.24749705388 -0.89076218839 0.38116654111 
0.062472837353 -0.92684659993 0.37020605721 -0.23298531392 -0.93411508777 0.27045673646 -0.63641020814 -0.77134999172 -0.0011123128616 
-0.832006175 -0.48387621212 -0.27134762962 -0.8561640314 -0.34673317155 -0.38309171107 -0.85624750617 -0.35153487863 -0.3785015684 
-0.86282789645 -0.42345110585 -0.27607459511 -0.87411216796 -0.47177246117 -0.11557968121 -0.8941725242 -0.44696178864 -0.026089393529 
-0.88812910241 -0.45843698245 -0.032591879078 -0.74631145104 -0.6645151313 -0.037932285924 -0.077055136681 -0.99295166151 0.090052783493 
0.63476038708 -0.73342213391 0.24325136071 0.8121723092 -0.49507528257 0.30866908617 0.85330645628 -0.38552064206 0.35105829461 
0.8620930165 -0.33579473304 0.37952276369 0.86281905523 -0.28923708694 0.41459038275 0.84266213754 -0.18244887928 0.5065895068 
0.71233361812 0.058026917015 0.69943812693 0.41506308635 0.32729143952 0.84888335357 0.16717577885 0.45224614179 0.87608543316 
0.051337762867 0.48299379679 0.87411751291 -0.00072916367968 0.48657843013 0.87363659473 -0.031057556489 0.48220230346 0.87550920425 
-0.062427687496 0.46935047491 0.88080242707 -0.099517050998 0.44100445278 0.89197053157 -0.14043686603 0.38996377321 0.91005809828 
-0.18583656322 0.3032789698 0.93460507074 -0.23684771521 0.15697115295 0.95878215302 -0.28011569162 -0.038905059971 0.95917756209 
-0.29003317747 -0.11749581899 0.94977654661 -0.28802531276 -0.081778739193 0.95412455006 -0.28874249502 -0.056316768247 0.95574902207 
-0.2841191384 -0.085747869282 0.954946919 -0.23754500426 -0.22859643133 0.9440953567 0.11466777017 -0.78863729293 0.60407162049 
0.51457763595 -0.65412213867 -0.55437720398 0.51226788759 -0.4314735807 -0.74257131678 0.51269931587 -0.35659230083 -0.78101302326 
0.51679229175 -0.32899076741 -0.79037383696 0.52104129436 -0.31727610796 -0.79237102477 0.52360880113 -0.31344223544 -0.79220438551 
0.51689292286 -0.31932334109 -0.7942633758 0.47894825218 -0.33912533104 -0.80969289338 0.30207070795 -0.38901981432 -0.87029700187 
-0.99038029123 -0.089489414267 -0.10553920352 -0.85078498016 0.2097267044 0.4818502122 -0.77759903002 0.26938828852 0.56812824126 
-0.77759903002 0.26938828852 0.56812824126 
