# vtk DataFile Version 4.2
vtk output
ASCII
DATASET POLYDATA
POINTS 64 float
0 0 0 -0.419799 -0.206257 0.936081 -1.01152 -0.323117 1.70097 
-1.76095 -0.408881 2.39315 -2.60202 -0.480617 2.95335 -3.50594 -0.57529 3.4039 
-4.44752 -0.726539 3.7497 -5.40247 -0.968855 3.99075 -6.34025 -1.33174 4.12258 
-7.22346 -1.82966 4.14236 -8.01823 -2.45401 4.05882 -8.70894 -3.17823 3.89385 
-9.29898 -3.97342 3.67351 -9.80549 -4.81389 3.41607 -10.2585 -5.67122 3.11765 
-10.6983 -6.50234 2.73657 -11.146 -7.22818 2.18894 -11.5486 -7.78811 1.44605 
-11.8341 -8.2273 0.577706 -11.9682 -8.61731 -0.348866 -11.9392 -8.99943 -1.28789 
-11.753 -9.39543 -2.2029 -11.4294 -9.81988 -3.06545 -10.9954 -10.2875 -3.85403 
-10.4772 -10.8163 -4.54716 -9.89849 -11.4377 -5.1019 -9.29762 -12.2062 -5.39001 
-8.98291 -12.971 -4.92431 -9.24353 -13.1232 -3.9396 -9.65147 -12.9487 -3.02981 
-10.0896 -12.6551 -2.16313 -10.5273 -12.3133 -1.31394 -10.948 -11.9799 -0.453005 
-11.3335 -11.7237 0.449506 -11.6501 -11.648 1.40947 -11.8372 -11.8727 2.3785 
-11.8541 -12.4088 3.2377 -11.7273 -13.1376 3.93112 -11.5034 -13.9552 4.48813 
-11.2157 -14.8096 4.95324 -10.8844 -15.6781 5.35982 -10.5211 -16.5506 5.72875 
-10.1318 -17.4223 6.07229 -9.71633 -18.2893 6.39648 -9.26586 -19.1457 6.70145 
-8.76106 -19.9794 6.98329 -8.17442 -20.7671 7.23709 -7.48011 -21.4722 7.45951 
-6.67109 -22.0527 7.65162 -5.76831 -22.4823 7.82185 -4.80776 -22.7637 7.98601 
-3.82039 -22.9157 8.16212 -2.82781 -22.9591 8.36705 -1.84518 -22.9149 8.61538 
-0.882937 -22.8079 8.91851 0.0526325 -22.6688 9.2854 0.957861 -22.5337 9.72307 
1.82846 -22.4413 10.2355 2.65561 -22.4266 10.8226 3.42466 -22.5101 11.4787 
4.11957 -22.6887 12.1936 4.73656 -22.9494 12.9698 5.24679 -23.2472 13.7422 
5.70401 -23.609 14.6122 
LINES 1 65
64 0 1 2 3 4 5 6 7 8 9 10 11 12 13 14 15 16 17 18 19 20 21 22 23 24 25 26 27 28 29 30 31 32 33 34 35 36 37 38 39 40 41 42 43 44 45 46 47 48 49 50 51 52 53 54 55 56 57 58 59 60 61 62 63 

CELL_DATA 1
FIELD FieldData 2
Length 1 1 double
63.850825794 
Tortuosity 1 1 double
1.2526339006 
POINT_DATA 64
SCALARS MaximumInscribedSphereRadius float
LOOKUP_TABLE default
0.93 0.96059 0.979459 0.987584 1.39838 1.79273 1.44224 1.15891 0.964449 
1.08746 1.22888 1.24 1.11594 0.95058 1.20266 1.68039 1.47778 1.26511 
1.77451 1.62543 1.55 1.55 1.55 1.49012 1.31311 1.38681 1.64315 
1.83147 1.60511 1.25434 1.24 1.24 1.24 1.24 1.24802 1.26634 
1.25113 1.35948 1.54507 1.72268 1.84141 1.86 1.79093 1.61397 1.43163 
1.29785 1.43134 1.55 1.55 1.55 1.52461 1.43369 1.34335 1.27469 
1.38897 1.64253 2.2984 2.39001 1.96879 2.10738 2.45366 2.89611 2.68907 
2.17 
TEXTURE_COORDINATES TCoords 2 float
0 0 0.015873 0 0.031746 0 0.047619 0 0.0634921 
0 0.0793651 0 0.0952381 0 0.111111 0 0.126984 0 
0.142857 0 0.15873 0 0.174603 0 0.190476 0 0.206349 
0 0.222222 0 0.238095 0 0.253968 0 0.269841 0 
0.285714 0 0.301587 0 0.31746 0 0.333333 0 0.349206 
0 0.365079 0 0.380952 0 0.396825 0 0.412698 0 
0.428571 0 0.444444 0 0.460317 0 0.47619 0 0.492063 
0 0.507937 0 0.52381 0 0.539683 0 0.555556 0 
0.571429 0 0.587302 0 0.603175 0 0.619048 0 0.634921 
0 0.650794 0 0.666667 0 0.68254 0 0.698413 0 
0.714286 0 0.730159 0 0.746032 0 0.761905 0 0.777778 
0 0.793651 0 0.809524 0 0.825397 0 0.84127 0 
0.857143 0 0.873016 0 0.888889 0 0.904762 0 0.920635 
0 0.936508 0 0.952381 0 0.968254 0 0.984127 0 
1 0 
FIELD FieldData 7
Curvature 1 64 double
0 0.24710458439 0.17092516994 0.15613598272 0.12548496937 0.12180535352 0.13617173975 0.16007590712 0.18015722726 
0.18208726171 0.16210280183 0.13183392537 0.099365041589 0.067572592048 0.0853751348 0.19359471397 0.25748517829 0.20633421871 
0.1659606155 0.16025141945 0.15614601295 0.14640535237 0.13645243456 0.13794434516 0.17354988082 0.30276277458 0.99826979941 
1.3367141773 0.36239699572 0.12729961537 0.049843202058 0.021669504648 0.092014933088 0.19800469446 0.32749754425 0.37496595947 
0.29035522097 0.18590759248 0.11484232272 0.072319895957 0.048188504591 0.035323364176 0.031952481248 0.040150952817 0.061518239099 
0.095425406189 0.13601741035 0.16848997682 0.17540913086 0.15569913855 0.12951588773 0.10964149544 0.095709288225 0.083518339555 
0.074143559145 0.075029809784 0.090357911175 0.11328241278 0.13014775213 0.13114936384 0.12387139967 0.1005152508 0.10236367782 
0 
Torsion 1 64 double
0 0 0.16225522441 0.18567114086 0.30885005573 0.3003857682 0.2217107849 0.13355842231 0.081344331016 
0.060992160607 0.0601057452 0.048928352609 -0.082427853574 -0.70777685054 -0.62148700731 0.023288121435 0.18720897148 0.39507345215 
0.43947284174 0.27094029441 0.18873698254 0.18756127421 0.22425601696 0.26421510198 0.242008015 0.14641506197 0.008129233235 
-0.019502451923 -0.11096983506 -0.19979418604 -0.45373091083 -2.1422849695 -0.16966983453 -0.045510463036 -0.0076254636048 0.01208448963 
0.035729403799 0.064599177654 0.087772459404 0.10738159903 0.12909588555 0.1679468971 0.20275518888 0.16772292633 0.12860504598 
0.10300638366 0.08597946448 0.080350969598 0.09248089215 0.12644234413 0.17113649698 0.20852363678 0.24317405283 0.31496886064 
0.43617360031 0.4664426099 0.31633352925 0.14853468898 0.029103399877 -0.054647696549 -0.085818787771 -0.12256542353 0 
0 
Abscissas 1 64 double
0 1.0464321027 2.0205175759 3.0442935132 4.0573962235 5.0718039681 6.086208615 7.1004844551 8.1146374276 
9.1287183294 10.142847614 11.157139672 12.171549138 13.186058492 14.200605794 15.215173866 16.228682896 17.242320372 
18.256450888 19.270665711 20.284881136 21.299142545 22.313452499 23.327793246 24.342018364 25.356295326 26.373438209 
27.322572394 28.352508501 29.364742497 30.379279997 31.393925193 32.408486337 33.4228025 34.436424579 35.448621245 
36.461445032 37.475412588 38.489731831 39.504213519 40.518771371 41.533353475 42.547945991 43.562536595 44.577108589 
45.591630342 46.606030411 47.620277977 48.634378522 49.648556676 50.662871768 51.677268788 52.691714756 53.706197129 
54.720713417 55.735240607 56.749754752 57.764197238 58.778607298 59.792960458 60.805798872 61.831032374 62.803488215 
63.850777277 
ParallelTransportNormals 3 64 double
0 -0.97657460698 -0.21517908123 -0.026528363105 -0.98491409188 -0.17099847243 -0.035760718145 -0.98631837222 -0.16092619319 
-0.027473464634 -0.98549836169 -0.16744607445 0.0088930306816 -0.98203053494 -0.18851244643 0.076376147102 -0.97303800746 -0.21763207526 
0.178601318 -0.95182404661 -0.24926402367 0.31293980736 -0.90886867153 -0.2757288793 0.46531306624 -0.83683978057 -0.28841451426 
0.61073497286 -0.73957848583 -0.28288947706 0.72735551522 -0.63370731856 -0.26337993258 0.81035749761 -0.53523992624 -0.23840920164 
0.86418030998 -0.45495632134 -0.21495845535 0.89343453122 -0.40319475936 -0.19801193005 0.90111891868 -0.38866177777 -0.19216325584 
0.8940978698 -0.40097905661 -0.19951139159 0.89948392506 -0.39283440837 -0.19133686564 0.9271560565 -0.35265730767 -0.12654829215 
0.95395940454 -0.29969907118 -0.011913069594 0.96184495747 -0.24174068456 0.12812384328 0.94525398878 -0.18176573599 0.27102788401 
0.90809282458 -0.12195187074 0.40061847582 0.85805227781 -0.0630311214 0.50967967027 0.80006858539 -0.0023543344758 0.59990392212 
0.72932135489 0.071835142696 0.68038964834 0.62010353314 0.20050302999 0.7584656506 0.38964511994 0.59062072751 0.70664265137 
0.36407872704 0.90105471003 0.23568430167 0.43881205268 0.89824786637 0.024387557918 0.47704134629 0.87710244904 -0.055882446464 
0.49557173089 0.86366118784 -0.092184663357 0.49562731342 0.86361746429 -0.092295403864 0.47477754387 0.87886649928 -0.046690044835 
0.43041369949 0.89983463575 0.071004757537 0.37646439556 0.88384342993 0.27766049456 0.35159325481 0.7911499065 0.50046379351 
0.36169133571 0.67487652294 0.64321151767 0.38103927047 0.58955832154 0.71220085641 0.39671836124 0.53831642294 0.74352536651 
0.40688720388 0.51001378799 0.75784479901 0.41283497064 0.49510482848 0.76448577216 0.4158464049 0.48812474844 0.76733695173 
0.41648733177 0.48674009046 0.76786873019 0.41440540406 0.49088330931 0.76635614288 0.40699850568 0.50398760335 0.76180621686 
0.3883293017 0.53172097553 0.75264411087 0.34947941839 0.57699509513 0.73820105413 0.2835086677 0.63341000477 0.72001013965 
0.1942711504 0.68606724876 0.70112085285 0.095318152223 0.72382990414 0.68336280242 -0.0039779940677 0.74592568572 0.66601730229 
-0.10064196 0.7554639561 0.64741440123 -0.19226360654 0.75542731237 0.62638987965 -0.27336754489 0.74912379564 0.60339350693 
-0.33787253999 0.74075818632 0.58061988953 -0.38115467974 0.73431022914 0.56170241009 -0.40178247917 0.73166797554 0.55066579066 
-0.40319221394 0.73157904882 0.54975279349 -0.39505867396 0.73122863536 0.55608751735 -0.38963006474 0.73025658266 0.5611717528 
-0.39260904007 0.73125277166 0.55778806512 -0.40002511309 0.73494335749 0.54757480784 -0.41273225532 0.74355776639 0.52609308441 
-0.41273225532 0.74355776639 0.52609308441 
FrenetTangent 3 64 double
-0.50444534686 -0.16113854054 0.84827428511 -0.50444534686 -0.16113854054 0.84827428511 -0.67371619443 -0.1017865093 0.73194671656 
-0.78330251934 -0.07756689474 0.61678240898 -0.86238909651 -0.082240770083 0.49952127278 -0.91136953675 -0.12144452752 0.39326428038 
-0.93707376572 -0.19446009624 0.28996211575 -0.93615406493 -0.29933551597 0.18442834812 -0.90152709954 -0.42616325717 0.075058424139 
-0.83080824051 -0.55566271298 -0.031569239916 -0.73478755682 -0.66706578205 -0.12292472798 -0.63271851839 -0.7506221255 -0.19035152009 
-0.54114640499 -0.80719666448 -0.23578403936 -0.4731707643 -0.83724049695 -0.27411271052 -0.44040747032 -0.83288185302 -0.33518514138 
-0.43968603988 -0.77135072714 -0.46010242563 -0.42295332539 -0.63956342111 -0.64192609771 -0.34117078739 -0.49537936859 -0.79887531881 
-0.20759641518 -0.41024569976 -0.88803276642 -0.051983669063 -0.38190209126 -0.9227396658 0.10641939245 -0.38479212705 -0.91684782373 
0.25199504584 -0.40554984234 -0.87865113797 0.37433554371 -0.44077860543 -0.81583522951 0.47054515142 -0.49239715034 -0.73221056181 
0.54282863809 -0.56919999687 -0.61753415551 0.58732650323 -0.69204704397 -0.41966470847 0.51016678845 -0.85436404092 0.098954199251 
0.031505477565 -0.53412441464 0.84481862821 -0.33276105702 0.01109921858 0.94294585543 -0.41831361067 0.23143827815 0.87832229081 
-0.43175133148 0.31322838067 0.84585978112 -0.42304351146 0.33275705537 0.8427970868 -0.39779841253 0.29092304641 0.87012654485 
-0.34793610222 0.16447832615 0.92297743689 -0.25194674512 -0.074528664297 0.96486699385 -0.10247711659 -0.3821786597 0.91838875899 
0.054795117414 -0.63066475075 0.77411850984 0.17366684575 -0.76577739573 0.61921305451 0.25259795009 -0.82553583731 0.50466311232 
0.30527846017 -0.84970036827 0.42990039069 0.34241411431 -0.85825358875 0.38230008073 0.37094825769 -0.85969656823 0.35116833668 
0.39664568151 -0.85695016929 0.32910273577 0.42683555572 -0.84949114995 0.31012287005 0.47100944606 -0.83332784081 0.28933511965 
0.53855832501 -0.80006092133 0.26430560479 0.63291946696 -0.73759501011 0.23530097622 0.74383963539 -0.63610822713 0.20510709444 
0.84727519412 -0.49996034895 0.17934434729 0.92143208951 -0.35159552807 0.16535866796 0.96224237004 -0.21409343872 0.16808813399 
0.97740159328 -0.096459270028 0.18810033144 0.97466686211 0.00039529589872 0.22366124304 0.95939332054 0.074586600227 0.27203179146 
0.93598704417 0.12137443149 0.33044893786 0.90788400768 0.13523507711 0.39680990729 0.87616325599 0.11224510561 0.4687632506 
0.83817343704 0.052875647872 0.54283464821 0.78848658292 -0.033985625618 0.61411227459 0.72374756476 -0.12957624212 0.67779012975 
0.64496256239 -0.21597105082 0.73306193348 0.56497398718 -0.27992591737 0.77617386879 0.47963514812 -0.32701117739 0.8142566024 
0.47963514812 -0.32701117739 0.8142566024 
FrenetNormal 3 64 double
-0.84125478878 0.31301067925 -0.44081140529 -0.84125478878 0.31301067925 -0.44081140529 -0.73339528853 0.21374236404 -0.6453259274 
-0.62156267365 0.082006427712 -0.77906019571 -0.4804926118 -0.17773566421 -0.8587996761 -0.30161177963 -0.45309350312 -0.83889010712 
-0.096795362336 -0.65326264904 -0.75091848372 0.10423611889 -0.7372650015 -0.66751415647 0.29667168538 -0.73498517758 -0.60973986242 
0.47644161928 -0.68074816972 -0.55640391159 0.62901273526 -0.60229772766 -0.49150831747 0.74599895504 -0.52488597927 -0.40985395918 
0.81943073069 -0.44316750413 -0.36350493929 0.77036558004 -0.24228329244 -0.58977595686 0.15089785136 0.2993607705 -0.94213213911 
-0.042522337114 0.5295803374 -0.84719331742 0.17360380836 0.63809510474 -0.75013089193 0.55881634736 0.57649703209 -0.59613376177 
0.89332683688 0.29039166899 -0.34298664856 0.99593994458 0.048173669279 -0.076045541476 0.98475340701 -0.086822793996 0.15073994101 
0.91710495426 -0.18973573399 0.35059785242 0.7900943639 -0.30894158998 0.52943931674 0.59671733721 -0.43372045197 0.67514071794 
0.34125139352 -0.52237321568 0.78145614718 0.06696717117 -0.47518942535 0.87733141288 -0.30905284949 -0.074733511978 0.94810402299 
-0.58805466217 0.6735615053 0.44777964769 -0.41923611284 0.89394000062 -0.15846878869 -0.22440868223 0.91068150977 -0.34684280461 
0.0093646624219 0.93927397532 -0.3430403801 0.76050201543 -0.37528183535 0.52990586766 0.37135077788 -0.81618148272 0.4426583186 
0.34073287059 -0.89498263663 0.28793608844 0.39457681707 -0.91830207793 0.032100297418 0.45835681179 -0.83753765385 -0.2973881495 
0.49192229388 -0.65761667054 -0.57057231917 0.51195456928 -0.4669256372 -0.72102910366 0.54147344351 -0.31164807347 -0.78082135491 
0.58601512727 -0.1882114826 -0.78813876216 0.64553354974 -0.08074378772 -0.75945169491 0.71485619319 0.022967572076 -0.6988942078 
0.79600796436 0.14251992116 -0.58826812998 0.8474589361 0.25604608506 -0.4650309172 0.85895568012 0.35857918626 -0.36553537008 
0.83603605915 0.46835632735 -0.28580772984 0.77375917239 0.59216596064 -0.22502492796 0.66736186804 0.7236420115 -0.1759840228 
0.52346030311 0.84322581933 -0.12230915211 0.36222809932 0.93130399879 -0.038257886691 0.20131235951 0.97539152524 0.089914995443 
0.045990097472 0.96553888094 0.25616319081 -0.10168652097 0.89145475778 0.4415521105 -0.23795775357 0.73186042904 0.63855807873 
-0.35001660406 0.42122021207 0.83669702391 -0.39345314755 -0.051866870637 0.91788041074 -0.37233342697 -0.46001025468 0.80607591748 
-0.37398723877 -0.66872904424 0.64260019501 -0.43513306391 -0.73648387336 0.51792926252 -0.54467403759 -0.71034299392 0.44580603828 
-0.67064817155 -0.61986571419 0.4074279401 -0.76913823254 -0.51923109327 0.37259287571 -0.85569997112 -0.3797275005 0.35154599241 
-0.85569997112 -0.3797275005 0.35154599241 
FrenetBinormal 3 64 double
-0.19448720367 -0.93598006679 -0.29345534956 -0.19448720367 -0.93598006679 -0.29345534956 -0.090762548033 -0.97157280136 -0.21865143845 
0.0098491581606 -0.99360873721 -0.11244852791 0.15941109192 -0.98063575776 0.11376121646 0.28006410315 -0.88315202777 0.37630651597 
0.33544510047 -0.73173299935 0.59333245507 0.3357832608 -0.60567199576 0.72139520051 0.31501555499 -0.52742930045 0.7890396271 
0.28768220473 -0.47730585459 0.83031203186 0.25383109585 -0.43847541513 0.86215374795 0.20773260596 -0.40132422488 0.89206840038 
0.18892815028 -0.38991807875 0.90126025425 0.42737138521 -0.49023173751 0.75962263173 0.88502604399 -0.46550074973 -0.0061606375908 
0.89714437923 -0.3529344443 -0.265648717 0.88936618007 -0.42871117047 -0.15885380087 0.7558616168 -0.64980801254 0.080142142944 
0.3985861148 -0.86450630097 0.30619922383 0.073493706811 -0.92294641788 0.37784730352 -0.13760683226 -0.91891067107 0.36968572912 
-0.30889642236 -0.89416423359 0.32411930462 -0.48541095665 -0.84277477121 0.23260887382 -0.65001206139 -0.75460692807 0.089736860655 
-0.76738813914 -0.63493116722 -0.089318849119 -0.80657484252 -0.54338374927 -0.23274691071 -0.80263078946 -0.51427326177 -0.30217019714 
-0.80820734913 -0.51090704465 -0.29287347531 -0.84469589831 -0.44804919668 -0.29281522627 -0.88014457134 -0.34219221379 -0.32901371151 
-0.90194406194 -0.14018694955 -0.40846606751 0.49261635371 0.86512212211 -0.094301865847 0.8389606801 0.49921094572 0.21664119857 
0.87340802588 0.41467211186 0.25535359792 0.88364697309 0.38880171278 0.26077050271 0.88284057092 0.39047426349 0.26100263579 
0.8689130865 0.41207073032 0.27420386818 0.84127423928 0.44222780275 0.31095373418 0.80187329771 0.47049554687 0.36828406806 
0.75059398636 0.49252991988 0.44048035786 0.6826704992 0.50683450766 0.52638367316 0.59277146792 0.51028844902 0.62307919691 
0.45721277762 0.4953024121 0.73866907107 0.31563390185 0.46130812748 0.82919843917 0.20086124893 0.42069665665 0.88468586615 
0.1048743933 0.3748931485 0.92111697891 0.026640035394 0.32448894608 0.94551426874 -0.03647922564 0.26778454505 0.96278798472 
-0.090078057814 0.19750915699 0.97615371556 -0.14054788683 0.095149600474 0.98549116944 -0.18320195195 -0.052681799459 0.98166270827 
-0.20632749792 -0.24172355826 0.94815541183 -0.1992093355 -0.45310954369 0.86891160774 -0.15146142747 -0.67736042951 0.71989046703 
-0.037638146076 -0.89880018932 0.43673972757 0.14471091625 -0.98945505287 0.0061195643683 0.30611397879 -0.88079032797 -0.3612514777 
0.39698719711 -0.74162364529 -0.54073610392 0.43468163666 -0.67560083003 -0.59549592208 0.42369759886 -0.69182572117 -0.58468582696 
0.36640731858 -0.75440241356 -0.54463076971 0.29871520392 -0.80749028017 -0.50865378636 0.19423615551 -0.8653731653 -0.46195411099 
0.19423615551 -0.8653731653 -0.46195411099 
