# vtk DataFile Version 4.2
vtk output
ASCII
DATASET POLYDATA
POINTS 64 float
0 0 0 -0.779082 0.561999 0.362196 -1.54924 0.885572 0.91331 
-2.32086 1.00121 1.55758 -3.08539 0.882957 2.21112 -3.82626 0.480579 2.76961 
-4.48566 -0.211332 3.09664 -5.02095 -1.06927 3.1443 -5.4698 -1.9633 2.98053 
-5.88297 -2.83319 2.66296 -6.27643 -3.64899 2.20719 -6.62074 -4.38798 1.60492 
-6.83548 -5.03215 0.853335 -6.81257 -5.57838 0.00155455 -6.52097 -6.05533 -0.843116 
-6.0367 -6.51475 -1.60612 -5.4421 -6.9998 -2.26912 -4.7839 -7.54494 -2.81463 
-4.09486 -8.19634 -3.16767 -3.51445 -8.99529 -3.03891 -3.47524 -9.60852 -2.25544 
-3.82675 -9.91011 -1.35599 -4.33754 -10.0633 -0.493628 -4.93849 -10.1297 0.320699 
-5.61132 -10.1066 1.07899 -6.35287 -9.91477 1.74124 -7.10559 -9.43941 2.21918 
-7.75732 -8.73087 2.53556 -8.23854 -7.94876 2.95735 -8.23158 -7.54989 3.84994 
-7.79814 -7.73774 4.74489 -7.2382 -8.12333 5.49701 -6.59917 -8.58901 6.13183 
-5.88037 -9.09728 6.63451 -5.07896 -9.64008 6.9317 -4.26075 -10.2259 6.86363 
-3.65748 -10.8566 6.35952 -3.41639 -11.5529 5.66724 -3.48514 -12.3497 5.04769 
-3.75437 -13.243 4.65628 -4.10118 -14.1898 4.57517 -4.40174 -15.124 4.82065 
-4.55414 -15.9745 5.34698 -4.50001 -16.6816 6.06883 -4.22172 -17.2111 6.88545 
-3.73309 -17.5557 7.70271 -3.07798 -17.7242 8.457 -2.3169 -17.7374 9.12645 
-1.4936 -17.6363 9.70994 -0.629497 -17.4785 10.2174 0.26299 -17.324 10.6744 
1.16907 -17.2181 11.1183 2.07471 -17.1852 11.5741 2.97302 -17.2341 12.0428 
3.8623 -17.3665 12.5126 4.73902 -17.5854 12.9734 5.58719 -17.9076 13.4266 
6.35813 -18.3773 13.8869 6.90938 -19.0696 14.373 6.98623 -19.9533 14.8469 
6.619 -20.8115 15.2365 6.04297 -21.5786 15.559 5.38502 -22.2757 15.8467 
4.66982 -22.9577 16.1378 
LINES 1 65
64 0 1 2 3 4 5 6 7 8 9 10 11 12 13 14 15 16 17 18 19 20 21 22 23 24 25 26 27 28 29 30 31 32 33 34 35 36 37 38 39 40 41 42 43 44 45 46 47 48 49 50 51 52 53 54 55 56 57 58 59 60 61 62 63 

CELL_DATA 1
FIELD FieldData 2
Length 1 1 double
63.731036935 
Tortuosity 1 1 double
1.2402598994 
POINT_DATA 64
SCALARS MaximumInscribedSphereRadius float
LOOKUP_TABLE default
0.9796 0.941628 1.10996 1.1822 1.01712 1.38092 0.896194 1.17737 1.4386 
1.26063 1.28542 1.57946 1.36454 1.13639 1.54756 1.56281 1.92912 2.27911 
2.29523 1.70744 1.75948 1.61014 1.84592 2.0786 2.01483 1.98561 2.16909 
2.24545 2.47996 2.25581 1.96457 1.77166 1.57333 1.78247 2.17545 2.4986 
2.09678 1.32613 1.39404 1.51965 1.91954 1.94327 1.57507 1.62147 2.02967 
1.95733 2.04823 2.08385 1.86219 1.69114 2.35645 2.03797 2.01046 2.32765 
2.67186 2.30287 2.44397 2.88781 2.73505 2.15648 1.89293 2.43759 2.885 
3.1 
TEXTURE_COORDINATES TCoords 2 float
0 0 0.015873 0 0.031746 0 0.047619 0 0.0634921 
0 0.0793651 0 0.0952381 0 0.111111 0 0.126984 0 
0.142857 0 0.15873 0 0.174603 0 0.190476 0 0.206349 
0 0.222222 0 0.238095 0 0.253968 0 0.269841 0 
0.285714 0 0.301587 0 0.31746 0 0.333333 0 0.349206 
0 0.365079 0 0.380952 0 0.396825 0 0.412698 0 
0.428571 0 0.444444 0 0.460317 0 0.47619 0 0.492063 
0 0.507937 0 0.52381 0 0.539683 0 0.555556 0 
0.571429 0 0.587302 0 0.603175 0 0.619048 0 0.634921 
0 0.650794 0 0.666667 0 0.68254 0 0.698413 0 
0.714286 0 0.730159 0 0.746032 0 0.761905 0 0.777778 
0 0.793651 0 0.809524 0 0.825397 0 0.84127 0 
0.857143 0 0.873016 0 0.888889 0 0.904762 0 0.920635 
0 0.936508 0 0.952381 0 0.968254 0 0.984127 0 
1 0 
FIELD FieldData 7
Curvature 1 64 double
0 0.30185583446 0.2276485988 0.23162812122 0.3000588711 0.38507289412 0.35052165401 0.22831304603 0.15635039562 
0.14640759805 0.16913183027 0.21609167562 0.27418909484 0.27592925294 0.20671883494 0.1477909767 0.14322217135 0.21903146971 
0.54734597023 1.0833756499 0.54459827882 0.21786375319 0.13092200358 0.12469768769 0.20267304527 0.34021854048 0.30072768279 
0.21085528291 0.93019748809 0.84411776564 0.27283104328 0.15915619767 0.15674167921 0.22107404761 0.37286046986 0.51015180012 
0.42340376206 0.33543337622 0.31925498714 0.32520921992 0.33139288736 0.329532355 0.31900589989 0.30078844479 0.27853830427 
0.24783269246 0.20293347646 0.15261319569 0.10061845188 0.056390513004 0.050690771687 0.071966566496 0.080926224415 0.081763261115 
0.085553592136 0.10473533835 0.16325205154 0.31425744176 0.53863465933 0.46860598221 0.23522469819 0.11159005572 0.04996691048 
0 
Torsion 1 64 double
0 0 -0.27259202303 -0.28100222627 -0.19449333721 -0.12244841108 -0.1299228792 -0.23301265093 -0.28152283419 
-0.033257657281 0.22414472876 0.32571937865 0.29343712195 0.2765693502 0.34113085371 0.43137191281 0.37146634074 0.21600531242 
0.088331163229 0.053549382217 0.098562518779 0.15323260781 0.03360500031 -0.1866583424 -0.18833443943 -0.14677035557 -0.4606482682 
-1.8188986222 -0.1236856624 -0.013771364614 0.17223644199 0.26608569293 0.10674048702 -0.1162290583 -0.22492574975 -0.28977446982 
-0.48197921603 -0.56748893942 -0.4240172146 -0.31724107346 -0.25658195298 -0.20653960607 -0.16776362638 -0.14849911999 -0.10917083605 
-0.035112070735 -0.0046128226666 -0.097946276707 -0.33244433351 -0.92536224583 -0.83441096185 -0.18304500056 0.044455024557 0.10159773931 
-0.011018819329 -0.18380231649 -0.22062355259 -0.12905997832 -0.060954277771 -0.049430563797 -0.064288978767 -0.1192467785 0 
0 
Abscissas 1 64 double
0 1.0266443353 2.0274287268 3.0392831249 4.0520026102 5.0632971944 6.0734935612 7.0858479736 8.0995459702 
9.113579316 10.127516574 11.141112048 12.154010944 13.166145495 14.179052102 15.192836294 16.20693487 17.220827983 
18.23262718 19.228509831 20.224210882 21.235905907 22.249822329 23.264063106 24.278082429 25.290638165 26.301075824 
27.314429046 28.324959782 29.302644681 30.314620919 31.328474173 32.342482324 33.356235215 34.368764427 35.377349618 
36.385293237 37.396281716 38.408008006 39.419761223 40.43134684 41.442935149 42.454614674 43.466556908 44.478828862 
45.491464977 46.504627317 47.518326606 48.532478931 49.546918617 50.561459636 51.57595029 52.59037593 53.604789947 
54.619203254 55.633575186 56.647746008 57.6610653 58.670796993 59.676407864 60.687926324 61.700050204 62.70084107 
63.73103121 
ParallelTransportNormals 3 64 double
0.42157006103 0 0.9067958335 0.55831634072 -0.077903791361 0.82596238593 0.62912429911 -0.098127914478 0.77108594117 
0.65536008101 -0.098084959445 0.74892089365 0.63444693183 -0.10532047512 0.76575759102 0.56688810335 -0.15812571604 0.80847642897 
0.48916580197 -0.25893065036 0.83286957952 0.42873173427 -0.36650848881 0.82574852568 0.37787760396 -0.47056887319 0.79735403179 
0.32731197563 -0.57623981903 0.74887551808 0.2774500899 -0.68132012662 0.67736573037 0.24168500286 -0.76981259078 0.59074269735 
0.23433078073 -0.81546960183 0.52924324625 0.23273214507 -0.81026700888 0.53786905746 0.2042722566 -0.77591569806 0.59684811693 
0.1504071993 -0.72876061292 0.66804613871 0.069649865069 -0.66235295125 0.74594736025 -0.074120608165 -0.53465574131 0.84181314657 
-0.40868349121 -0.15185016087 0.8999551837 -0.71061843315 0.53634163385 0.45536698855 -0.62956267792 0.77681577727 0.014425074038 
-0.53821806323 0.82501627071 -0.17224827858 -0.46854647303 0.83878127321 -0.27732684384 -0.39121207079 0.84140990626 -0.37280354787 
-0.24870369738 0.81973921173 -0.51592062922 -0.00029758567435 0.70877884211 -0.70543069427 0.19525708253 0.5439971767 -0.8160525372 
0.18814832491 0.55335294209 -0.81141896041 0.045848055081 0.91189765229 -0.40784878031 0.17394416269 0.97730710851 0.12088938713 
0.26682379667 0.92370205547 0.27491739532 0.31677268775 0.8882381172 0.3326982288 0.35434446027 0.86128858146 0.36417301234 
0.41083333471 0.82223307336 0.39388925369 0.55244820693 0.72354760252 0.41385969308 0.79889958962 0.51261004666 0.31462737607 
0.96398512427 0.25334661904 0.080920768721 0.99155863569 0.014619660553 -0.12883220684 0.95269316142 -0.17974205255 -0.24508883027 
0.90933785536 -0.30924202404 -0.2783415804 0.89219801907 -0.35904368989 -0.27398964124 0.89791705329 -0.33651124938 -0.28373428493 
0.90194089985 -0.27275237315 -0.33482645671 0.8817029986 -0.19745371124 -0.42849953814 0.82501499719 -0.13283740454 -0.54927632241 
0.74095631929 -0.095123900186 -0.66478205189 0.65728494566 -0.084385572783 -0.74890291448 0.58316552856 -0.08849453751 -0.80751884382 
0.51725796789 -0.098605591272 -0.85013006771 0.4678273356 -0.10739605827 -0.87727058011 0.44759401019 -0.1103264209 -0.88740502754 
0.45004460655 -0.11013873295 -0.88618807915 0.45503434312 -0.11018324556 -0.88363080468 0.45146098138 -0.10982087711 -0.88550683636 
0.44134831452 -0.10780951316 -0.89083599733 0.43681862607 -0.10638851953 -0.89323623462 0.45618956143 -0.11586348996 -0.88230761967 
0.52063790948 -0.17254280452 -0.83616095809 0.58803945785 -0.3419639091 -0.73298723106 0.55699721765 -0.52901230247 -0.64023439721 
0.5002743755 -0.6267630986 -0.59740569754 0.46087223198 -0.67348846567 -0.57793604525 0.43554310881 -0.69894513007 -0.56725470956 
0.43554310881 -0.69894513007 -0.56725470956 
FrenetTangent 3 64 double
-0.77283319549 0.44176464215 0.45560163838 -0.77283319549 0.44176464215 0.45560163838 -0.77099224757 0.2196349011 0.597772084 
-0.76387813541 -0.0013003727578 0.64535920484 -0.75210776725 -0.26011064238 0.6055380749 -0.70523371154 -0.55112905618 0.44598450146 
-0.59961963704 -0.77787550823 0.1880584605 -0.4889382677 -0.87040895347 -0.0576855622 -0.42644064463 -0.87260985435 -0.23811849717 
-0.39884037982 -0.83349379298 -0.38237997918 -0.36520025309 -0.76962962277 -0.52373563838 -0.27750003254 -0.68656981212 -0.67202353011 
-0.095621112087 -0.59337585234 -0.79922568826 0.15679019318 -0.5100773104 -0.84571743079 0.38489775693 -0.46451921389 -0.79754348887 
0.53350124135 -0.4670407167 -0.70515912703 0.61937162208 -0.50931549488 -0.59747512119 0.66910584784 -0.59426050903 -0.44626428469 
0.65420617082 -0.74743236062 -0.1155817994 0.34581963147 -0.78815964945 0.50912979629 -0.16091423145 -0.4713662531 0.86713347621 
-0.42824949334 -0.22586050886 0.87497965805 -0.5493526774 -0.10850733713 0.82851541544 -0.62926558706 -0.021390662596 0.77689591355 
-0.70154751255 0.10660735083 0.70460340645 -0.74919637767 0.33451523553 0.57166803731 -0.70178275704 0.59157717051 0.39690983013 
-0.56293198694 0.74066357081 0.36677657089 -0.2592229585 0.6455051606 0.71841947735 0.23766249384 0.11387733418 0.96464941392 
0.49493117142 -0.28570485044 0.82061920157 0.59315763016 -0.42114271476 0.68615074115 0.67171703527 -0.48181171596 0.56271990803 
0.75487871651 -0.52192157314 0.3971850889 0.81497623753 -0.56791001472 0.11529070837 0.72654012192 -0.62178163471 -0.29245008117 
0.42727225797 -0.67150342803 -0.60541024415 0.086386767067 -0.74842844942 -0.65756534472 -0.16914426383 -0.84582118842 -0.50594143458 
-0.30845408884 -0.92134677255 -0.23659289885 -0.3243235855 -0.94235511228 0.082347156899 -0.22687694591 -0.89391369102 0.38658138136 
-0.049173519204 -0.77941150578 0.62457959434 0.1660735702 -0.61779268062 0.76860378158 0.38242026802 -0.4358647766 0.81472488309 
0.5689487873 -0.25523929392 0.78176094828 0.70235534959 -0.090113474608 0.70609951466 0.78363191915 0.043475284407 0.61970227927 
0.83288896643 0.12779086631 0.53848441397 0.8661118501 0.15398385178 0.47554099351 0.88670673582 0.12837949268 0.4441507295 
0.89354106361 0.068456058126 0.44373205401 0.88991051205 -0.0078933634517 0.45606685403 0.8818463437 -0.089438699413 0.46297704603 
0.87129606198 -0.1733214723 0.45913270372 0.85150625791 -0.26711824497 0.45120387403 0.80127400094 -0.39190008577 0.4520777568 
0.66158305521 -0.58142838326 0.47354925425 0.32221328206 -0.80848315134 0.49247699932 -0.14771970819 -0.88612564646 0.43927238303 
-0.46938083007 -0.80877450159 0.35435214397 -0.61400940559 -0.72856275465 0.30362602389 -0.67629987884 -0.67923057702 0.28506893398 
-0.67629987884 -0.67923057702 0.28506893398 
FrenetNormal 3 64 double
-0.037230297043 -0.7482498965 0.66237149498 -0.037230297043 -0.7482498965 0.66237149498 0.031327583641 -0.92443032053 0.38006205413 
0.033115371271 -0.99875957388 0.037184482903 0.075105589915 -0.9466610002 -0.31335618882 0.21259523483 -0.76449879798 -0.60855965527 
0.36055264001 -0.47237145058 -0.80428042775 0.37664694098 -0.15100306418 -0.91396671518 0.22430813224 0.15301058326 -0.96243110051 
0.13138499268 0.36074046076 -0.92336574751 0.28411319347 0.44360862117 -0.84999475558 0.59004585894 0.43022892981 -0.68319027533 
0.8611708193 0.35337496276 -0.36539151013 0.96757597775 0.25102547805 0.027981005147 0.91588239563 0.085428836546 0.39225164278 
0.72908851465 -0.1686604515 0.66331258838 0.4350070988 -0.41088954892 0.80121071048 0.14528313175 -0.48430783575 0.86275067769 
-0.18993626844 -0.31028766494 0.93147505544 -0.62234431354 0.21341026693 0.75308937941 -0.75675009267 0.62293590611 0.19819221509 
-0.71694748043 0.67432554656 -0.17683712157 -0.67131015605 0.64771539603 -0.36028799608 -0.56378609592 0.70061394315 -0.43736179613 
-0.33869530359 0.82005277686 -0.46130134889 -0.037774772051 0.84010897989 -0.54110070089 0.34226271835 0.76862302389 -0.5404395237 
0.79110946025 0.35439013686 0.49855135423 0.61543998698 -0.46286764377 0.63795545831 0.57664411974 -0.81571216089 -0.045773679618 
0.45696691038 -0.71767810708 -0.52547062472 0.48592759741 -0.49224420416 -0.72219804316 0.49926258828 -0.26675208262 -0.82436654127 
0.3727112524 -0.15693200845 -0.91458114296 0.054464441591 -0.12300459359 -0.9909104372 -0.43917046526 -0.092869001531 -0.89359087451 
-0.87949252382 -0.15346310522 -0.45049081664 -0.92851728229 -0.29971596973 0.21914833783 -0.62905160183 -0.30253705525 0.71607640126 
-0.239410837 -0.16552122507 0.95670537533 0.14013283814 0.038229148038 0.9893944208 0.45127908343 0.25525905231 0.85509648875 
0.64846416746 0.45070171589 0.61348364837 0.74382715184 0.59019619947 0.31367118822 0.75056391849 0.66079674344 0.0012116606458 
0.66366417384 0.70387859699 -0.25318922775 0.5119595272 0.75314205125 -0.41312769593 0.39663687979 0.73274095365 -0.55296462856 
0.39286760898 0.54878599717 -0.73789495941 0.4882752754 -0.057084426131 -0.87082066106 0.26079304877 -0.93213465085 -0.25122097522 
-0.0046144267021 -0.98685576117 0.16153765419 -0.088238269225 -0.98394274223 0.15514731019 -0.10765698709 -0.99410290348 0.013015007384 
-0.14211342559 -0.98458218119 -0.10198873831 -0.2645650961 -0.96181503205 -0.070122421857 -0.45927029355 -0.88715820674 0.04495679782 
-0.69231068436 -0.71623746928 0.087805489175 -0.92453701453 -0.38057351123 -0.019877407181 -0.97903189148 0.068021460091 -0.19201467764 
-0.87812884191 0.38547989339 -0.28336370411 -0.78845919635 0.54842163013 -0.27850639362 -0.72533828643 0.68153761141 -0.09690642116 
-0.72533828643 0.68153761141 -0.09690642116 
FrenetBinormal 3 64 double
0.63351618521 0.49494049474 0.59471938739 0.63351618521 0.49494049474 0.59471938739 0.63607353089 0.31175165229 0.70584797981 
0.64451033073 0.049775723137 0.76297366335 0.65474655921 -0.19019832919 0.73152685444 0.67634952372 -0.33436260456 0.65631773588 
0.71446349428 -0.41445736376 0.56370826583 0.78681411542 -0.468600393 0.40166804635 0.87626151257 -0.46383165427 0.13048355484 
0.90755954908 -0.41851453622 -0.034369286501 0.88651478749 -0.45921850462 0.056655949195 0.75818178314 -0.58611002469 0.28571913249 
0.49924084659 -0.72320898332 0.477207862 0.19802414651 -0.8226830172 0.53289688553 -0.1140752124 -0.88143281866 0.45832633799 
-0.42872644342 -0.86800150982 0.25053346218 -0.65356531255 -0.75615309645 -0.032937470607 -0.72882794679 -0.64210619654 -0.23771717722 
-0.7320782062 -0.58742355356 -0.34495661862 -0.702208187 -0.57728712522 -0.41670521614 -0.63358969954 -0.62431139051 -0.45694570829 
-0.55008061388 -0.70304486898 -0.45070969641 -0.49754829938 -0.75411598811 -0.42866626442 -0.5349486508 -0.71321984143 -0.45293200239 
-0.62699009478 -0.56227067851 -0.53919857672 -0.66126988006 -0.42698531486 -0.61677036781 -0.6247857181 -0.24342370156 -0.74188119532 
0.2392768271 0.57081091945 -0.78544350163 0.74433667128 0.60751677508 -0.27728376762 0.78166367332 0.567138099 -0.25953088153 
0.73906994146 0.63506761298 -0.22464360345 0.64190217001 0.7617968609 -0.087333538052 0.54729616522 0.83468604684 0.061368646285 
0.53967068263 0.83843319126 0.076061410064 0.57692924771 0.8138477039 -0.069314919054 0.52845884768 0.77766506112 -0.3405411855 
0.20959799168 0.72493601199 -0.65615277215 -0.36109968563 0.5916292704 -0.7208202435 -0.75873862446 0.43938348559 -0.48089276594 
-0.9206185563 0.35174258877 -0.16952470332 -0.93550895215 0.33242348684 0.11965628206 -0.86306085549 0.36845777128 0.34549215695 
-0.75965530903 0.43518463662 0.48325784372 -0.64741079499 0.51961586764 0.55754696002 -0.53889566974 0.61103973716 0.57984644239 
-0.48564095974 0.66287843797 0.5698640493 -0.49456486472 0.65165682098 0.57510780055 -0.47812153358 0.67911751155 0.5569552986 
-0.38980894218 0.82613765427 0.40687290988 -0.10694633488 0.98642300342 -0.12462800556 0.38175666382 0.33859075377 -0.86001055289 
0.44895776496 -0.14638809637 -0.881480261 0.44751903689 -0.1783097721 -0.8763174863 0.45908278037 -0.061319950544 -0.88627471161 
0.46973071717 0.023613464727 -0.88249388532 0.45270564682 -0.059663115261 -0.8896616829 0.38344591911 -0.24364859733 -0.89084487322 
0.28812111583 -0.38593383208 -0.8763796551 0.20349424963 -0.44890845007 -0.87009843916 0.14026918148 -0.45842602418 -0.87759337798 
0.092581711878 -0.44417232846 -0.89114508878 0.036394306351 -0.41040227598 -0.91117804316 -0.12846339599 -0.27230921298 -0.95359574685 
-0.12846339599 -0.27230921298 -0.95359574685 
