# vtk DataFile Version 4.2
vtk output
ASCII
DATASET POLYDATA
POINTS 64 float
0 0 0 -0.892234 0.046237 0.521421 -1.80946 0.167131 0.888714 
-2.74761 0.291553 1.24932 -3.67387 0.368082 1.65591 -4.56303 0.323836 2.14059 
-5.36304 0.0519096 2.69776 -5.9958 -0.501383 3.2611 -6.46128 -1.24478 3.76935 
-6.84592 -2.06862 4.21934 -7.24645 -2.91777 4.60322 -7.74495 -3.7729 4.81586 
-8.25721 -4.61126 4.5984 -8.47606 -5.39003 3.99324 -8.368 -6.115 3.29457 
-8.03825 -6.77837 2.60259 -7.56154 -7.37014 1.93131 -6.97605 -7.88528 1.28829 
-6.27925 -8.41685 1.29765 -6.50741 -8.42853 2.33317 -6.81167 -8.35731 3.29586 
-7.15391 -8.19375 4.23551 -7.4909 -7.90783 5.14818 -7.72886 -7.49841 6.04449 
-7.70004 -7.11775 6.98001 -7.41504 -7.11056 7.94726 -7.16809 -7.5096 8.843 
-7.10779 -8.16997 9.60706 -7.25091 -9.00374 10.1616 -7.53169 -9.94345 10.408 
-7.80835 -10.9127 10.3173 -7.94489 -11.8676 10.0067 -7.87169 -12.8212 9.67235 
-7.575 -13.7744 9.50744 -7.10797 -14.6684 9.59699 -6.53618 -15.459 9.87152 
-5.87538 -16.1293 10.2483 -5.11951 -16.6421 10.6873 -4.28482 -16.9481 11.1733 
-3.41914 -17.0449 11.6918 -2.55661 -16.9887 12.2224 -1.69918 -16.8428 12.7447 
-0.837439 -16.6465 13.2428 0.0295855 -16.4163 13.7168 0.890087 -16.1622 14.1905 
1.73545 -15.9113 14.6922 2.56995 -15.7113 15.2332 3.39975 -15.6238 15.8094 
4.20889 -15.7276 16.4102 4.92889 -16.1047 17.0127 5.45808 -16.7552 17.579 
5.75607 -17.5752 18.0936 5.84118 -18.4664 18.5687 5.73232 -19.372 19.0109 
5.43794 -20.2607 19.3996 4.96631 -21.1131 19.6784 4.35238 -21.9132 19.774 
3.67618 -22.66 19.6623 3.01883 -23.3865 19.4 2.42442 -24.1372 19.0651 
1.90942 -24.9376 18.7138 1.47512 -25.7878 18.3767 1.11709 -26.6629 18.0687 
0.805767 -27.6072 17.7762 
LINES 1 65
64 0 1 2 3 4 5 6 7 8 9 10 11 12 13 14 15 16 17 18 19 20 21 22 23 24 25 26 27 28 29 30 31 32 33 34 35 36 37 38 39 40 41 42 43 44 45 46 47 48 49 50 51 52 53 54 55 56 57 58 59 60 61 62 63 

CELL_DATA 1
FIELD FieldData 2
Length 1 1 double
63.734905872 
Tortuosity 1 1 double
0.94046971851 
POINT_DATA 64
SCALARS MaximumInscribedSphereRadius float
LOOKUP_TABLE default
1.24 1.24 1.25933 1.19833 0.988548 0.93 0.93 0.973047 1.19189 
1.40805 1.46317 1.3539 1.68905 1.84765 1.42044 1.12531 0.999835 1.26369 
1.74063 1.60583 1.55 1.55 1.55 1.34759 1.44548 1.56493 1.65289 
1.84346 1.86 1.86 1.86 1.82929 1.6228 1.55 1.55 1.56137 
1.74531 1.75619 1.62065 1.79297 2.01435 2.0637 1.71117 1.39623 1.56742 
2.11398 1.93239 2.00912 2.16029 2.17274 2.18884 1.94016 1.70674 1.85608 
1.87064 1.95304 2.1855 2.39785 2.35692 2.29791 2.5119 3.22302 3.35981 
2.48 
TEXTURE_COORDINATES TCoords 2 float
0 0 0.015873 0 0.031746 0 0.047619 0 0.0634921 
0 0.0793651 0 0.0952381 0 0.111111 0 0.126984 0 
0.142857 0 0.15873 0 0.174603 0 0.190476 0 0.206349 
0 0.222222 0 0.238095 0 0.253968 0 0.269841 0 
0.285714 0 0.301587 0 0.31746 0 0.333333 0 0.349206 
0 0.365079 0 0.380952 0 0.396825 0 0.412698 0 
0.428571 0 0.444444 0 0.460317 0 0.47619 0 0.492063 
0 0.507937 0 0.52381 0 0.539683 0 0.555556 0 
0.571429 0 0.587302 0 0.603175 0 0.619048 0 0.634921 
0 0.650794 0 0.666667 0 0.68254 0 0.698413 0 
0.714286 0 0.730159 0 0.746032 0 0.761905 0 0.777778 
0 0.793651 0 0.809524 0 0.825397 0 0.84127 0 
0.857143 0 0.873016 0 0.888889 0 0.904762 0 0.920635 
0 0.936508 0 0.952381 0 0.968254 0 0.984127 0 
1 0 
FIELD FieldData 7
Curvature 1 64 double
0 0.16485119236 0.013828348591 0.06570441866 0.14521821055 0.25258212296 0.32825299786 0.25683931362 0.12502496997 
0.070596022439 0.19403574744 0.44282990487 0.51206550176 0.3465405354 0.22716974327 0.16138078835 0.13329648598 0.82724020293 
3.6408301881 0.11689920774 0.10016013079 0.12251363779 0.15577606315 0.26956737464 0.46931195463 0.42405100191 0.34956315223 
0.34150340991 0.35672198508 0.34019285347 0.25892999899 0.20784473783 0.27892488262 0.31179561072 0.23350213806 0.17779084875 
0.19076277367 0.22312722381 0.21066978225 0.15017078348 0.087861686081 0.054523108264 0.040749971662 0.024070848193 0.031084997538 
0.063435208927 0.11507456198 0.19055948053 0.28622179065 0.33683088152 0.29021584387 0.22485733412 0.19385000836 0.1903674894 
0.20836903533 0.23489675995 0.21975181613 0.14979870896 0.096534328256 0.092614126771 0.09353649654 0.082990119305 0.071674248546 
0 
Torsion 1 64 double
0 0 3.6450406313 -0.092154530779 -0.19046615307 -0.13850301319 -0.087325484277 -0.10083703627 -0.42302575336 
-1.2799168072 0.32317483925 0.36716330638 0.38527019232 0.37528493131 0.088757556125 -0.055386466859 2.3088432139 0.26940286067 
0.072738178508 -0.48877139289 -0.46067755715 -0.52138422896 -0.93443092453 -0.82628448956 -0.4702081441 -0.46698486952 -0.2500444501 
0.072528316623 0.24521420871 0.34989617172 0.60486252722 0.8944141964 0.38284275986 0.10146210543 -0.10692003239 -0.26638169695 
-0.11329250197 0.014130207179 0.036268324895 -0.021516804094 -0.21744088784 -0.35053286671 0.079466390036 1.1837829322 1.1132695511 
0.49256513619 0.18169169441 0.012492942041 -0.05660731019 -0.090096483106 -0.13504657577 -0.15473377675 -0.056195301518 0.12174885276 
0.23998129163 0.24746280674 0.27241124759 0.46895050434 0.77333362131 0.46305956486 0.19630224475 0.10263882738 0 
0 
Abscissas 1 64 double
0 1.034456035 2.0298597672 3.0425946114 4.0570557198 5.0707021917 6.0828317767 7.0946974228 8.1084186596 
9.1228829641 10.137204274 11.149610597 12.155861673 13.166109017 14.178727513 15.192451225 16.206390713 17.217144532 
18.093612934 19.154027907 20.166163554 21.179489261 22.193530363 23.207248066 24.21766337 25.226050485 26.237269343 
27.248957672 28.260462333 29.271696678 30.283751357 31.297102906 32.310244073 33.322097266 34.334676795 35.348299909 
36.362120713 37.375551046 38.388768789 39.402465924 40.416719931 41.431212337 42.445758747 43.460334392 44.474924723 
45.489472766 46.503887961 47.51791601 48.531067355 49.542826839 50.554678297 51.567610513 52.581144929 53.594817314 
54.608419132 55.6216923 56.634756471 57.648388362 58.662643918 59.677061185 60.691535983 61.704012435 62.69844183 
63.734839582 
ParallelTransportNormals 3 64 double
0.50455788295 0 0.86337786788 0.37310249573 0.01224298911 0.92770934937 0.36036171371 0.013927522472 0.93270866802 
0.40257060504 0.0093772352302 0.91534090667 0.4782884173 0.0080328000985 0.87816607996 0.56573532661 0.024410207454 0.82422550434 
0.63243344901 0.062827972606 0.77206254827 0.660334618 0.095761785495 0.74484083716 0.6612833533 0.097510729008 0.74377145978 
0.63754284392 0.046925788646 0.76898445532 0.55152652856 -0.1161173941 0.82603585823 0.3613393059 -0.43474636616 0.82488150853 
0.2698495791 -0.63696589719 0.72211886173 0.26909034654 -0.64723533974 0.71321581614 0.26378946952 -0.63042051486 0.73005827864 
0.26033812622 -0.62504890957 0.73589260133 0.25970201213 -0.62438620404 0.73667953216 -0.20260797299 -0.24890741523 0.94709825674 
-0.86822727602 0.45993844684 -0.18611292887 -0.83811404984 0.45647313604 -0.29865886149 -0.81257766481 0.44720117493 -0.37380295316 
-0.79250263911 0.43391794415 -0.42854962927 -0.79753025582 0.43999861139 -0.41273079972 -0.82263730745 0.53503734648 -0.19236137414 
-0.754927161 0.61856884733 0.21784756757 -0.69017081424 0.57094213076 0.44462268329 -0.67795986321 0.52884647292 0.51057989773 
-0.68049182522 0.4831771071 0.55088180127 -0.70769521857 0.36936962787 0.60227365509 -0.76842298807 0.16140640566 0.61925284304 
-0.81788014652 -0.068854464319 0.57125399664 -0.82365493738 -0.24290888991 0.51243323012 -0.80573507775 -0.33525202106 0.48825922096 
-0.79319045171 -0.36559620569 0.48701983706 -0.77740803607 -0.39119204876 0.49255002431 -0.73754317822 -0.43844165995 0.5136136399 
-0.66296368126 -0.5007201811 0.5565594825 -0.56130639692 -0.55305507902 0.61568271727 -0.46659588861 -0.5754978578 0.67163270646 
-0.40034430043 -0.57705594229 0.71185032175 -0.3536738189 -0.57157132457 0.74041950998 -0.31343171891 -0.56355944555 0.76430446088 
-0.28054202686 -0.55544627549 0.78279985067 -0.27062965396 -0.55266759316 0.78823735123 -0.29385066817 -0.55954278215 0.77496042464 
-0.34463173785 -0.57317167986 0.74344010564 -0.41948780568 -0.58610240104 0.69319113985 -0.53058116721 -0.58499208845 0.61340678302 
-0.68914966418 -0.53509790269 0.48861331838 -0.85229741903 -0.4008970124 0.33596234158 -0.95430290465 -0.21959438157 0.20269255969 
-0.99413041313 -0.041724575393 0.099818743247 -0.99191358233 0.12612658564 0.014125494405 -0.95519324226 0.28951484699 -0.061538795258 
-0.88483974339 0.44941060645 -0.12283621345 -0.79267338515 0.58971403937 -0.15461648115 -0.720925042 0.67574790345 -0.15372655852 
-0.70573827589 0.69252629301 -0.14946845631 -0.73641337108 0.65632702288 -0.16410419231 -0.784170446 0.58955884503 -0.19364162743 
-0.82838569519 0.51267347196 -0.22570567372 -0.86118865248 0.44117340127 -0.25242847473 -0.885001501 0.37659063053 -0.27377333731 
-0.885001501 0.37659063053 -0.27377333731 
FrenetTangent 3 64 double
-0.89451364145 0.082621866076 0.43933924536 -0.89451364145 0.082621866076 0.43933924536 -0.92394929954 0.1221636641 0.36248273208 
-0.92020602987 0.099182207473 0.37866047101 -0.89754076841 0.015960670864 0.44064251499 -0.84052747681 -0.15732673286 0.51842247237 
-0.7173398333 -0.41315937626 0.56100168749 -0.54667632395 -0.64545958857 0.53341064514 -0.41998989567 -0.7742714381 0.47340492991 
-0.38726161068 -0.82515216285 0.41128135509 -0.44570580013 -0.84491926766 0.29573260027 -0.51250409228 -0.85868130451 -0.002443907071 
-0.37375873243 -0.82671048937 -0.42054033898 -0.055579672254 -0.75437473148 -0.65408689372 0.21746702246 -0.68961011324 -0.69075754492 
0.39905022437 -0.62106500007 -0.6745644403 0.52580915333 -0.54794152903 -0.65060342378 0.72347746228 -0.59056150765 -0.35751568811 
0.36974004389 -0.42860446739 0.82437279824 -0.2573590001 0.028780119553 0.96588718274 -0.31959634275 0.11606281717 0.94041884295 
-0.33567413005 0.22213209027 0.91541259162 -0.2844169841 0.34397189185 0.89486888245 -0.10426321374 0.39388140298 0.91322868037 
0.15953506104 0.19716952854 0.96730178399 0.26911331759 -0.19823677538 0.94248618196 0.15417157199 -0.53158937049 0.83285284869 
-0.041524218988 -0.74913123234 0.66111885162 -0.21284514293 -0.89048497059 0.4021609905 -0.27945088113 -0.95698212255 0.078053969559 
-0.20572411346 -0.95799671648 -0.19979960048 -0.0314258879 -0.94689931376 -0.31999078607 0.18443944655 -0.95079296023 -0.24894745897 
0.38180764183 -0.92347361559 -0.03767500439 0.51622060787 -0.83712803768 0.18092244896 0.61039438749 -0.72345599279 0.32253700287 
0.70202961866 -0.58628414137 0.40425897653 0.78977666685 -0.40656695103 0.45929960901 0.8436168462 -0.19984481493 0.49837000989 
0.85465257505 -0.020078794792 0.51881192928 0.84863056062 0.099716776357 0.51950239276 0.84760589341 0.16871606357 0.50308959376 
0.85216613382 0.21023622221 0.47918014487 0.85139815778 0.23868296279 0.46706704038 0.8407861373 0.2489043462 0.48075492485 
0.82836601257 0.22234614867 0.51417111878 0.82187042237 0.14197397172 0.55169955609 0.81222085377 -0.0080780044797 0.5832941201 
0.76290648469 -0.23992670913 0.60034062819 0.62596337402 -0.51492536928 0.58568056008 0.41281977062 -0.73388034383 0.53944367447 
0.19025873078 -0.84983254527 0.49151425244 -0.011771869068 -0.89058651688 0.45466149941 -0.1998169804 -0.88912773161 0.41173419974 
-0.37998851207 -0.86369405468 0.3311212929 -0.53946094437 -0.82119738072 0.18605577497 -0.64047064328 -0.76794106087 -0.0079926296542 
-0.65949132801 -0.72860269392 -0.18495756996 -0.6177731142 -0.72903299236 -0.29473254898 -0.54739343159 -0.76532733022 -0.33857718274 
-0.46885180842 -0.81521843423 -0.33999542089 -0.39514849144 -0.86043739091 -0.32172218768 -0.32981244271 -0.89647923289 -0.29588635931 
-0.32981244271 -0.89647923289 -0.29588635931 
FrenetNormal 3 64 double
-0.35621018151 0.46207686823 -0.81215717348 -0.35621018151 0.46207686823 -0.81215717348 -0.35172977705 0.101128888 -0.93062296982 
0.1998192148 -0.71280366536 0.67229697013 0.24485087585 -0.81306145852 0.52818473404 0.34452093118 -0.89371678103 0.28735978023 
0.51029463542 -0.85978305495 0.019299831436 0.64946663666 -0.72893584485 -0.21643849462 0.63372211136 -0.62360999381 -0.45771919469 
-0.21982542382 -0.35058581191 -0.91036606457 -0.50072882473 -0.038531372002 -0.86474619251 -0.03945055652 0.026388980795 -0.99887300258 
0.60214189977 0.1285998445 -0.78796396652 0.95003904503 0.16156403928 -0.26706342716 0.96205273088 0.27093396807 0.03239333192 
0.89134390436 0.43532247618 0.12649263174 0.81218595674 0.55068762484 0.19260610459 0.33226363828 -0.15607204407 0.93018406336 
-0.71003964017 0.44192240796 0.54822285134 -0.70833855491 0.67427583183 -0.20882670862 -0.36696853056 0.89985936357 -0.23576942841 
0.04379483129 0.97442742313 -0.2203933071 0.62168595687 0.77673126444 -0.10097085656 0.98258285041 -0.10121972242 0.15583808863 
0.56500971089 -0.82173101232 0.074311304668 -0.093739125789 -0.97933283505 -0.17922102133 -0.53796926381 -0.7521921526 -0.38052074421 
-0.59897154524 -0.51094082395 -0.61658135101 -0.38934160983 -0.3002085813 -0.87079728902 0.012840865022 -0.0850103154 -0.99629732433 
0.53764625612 0.059950068691 -0.84103655839 0.99359864795 0.0051602182018 -0.1128498956 0.79776174909 -0.0031213928893 0.60296471587 
0.54521272356 0.19212695474 0.81598426414 0.44100067076 0.44089908777 0.7817457405 0.49016519897 0.66485504129 0.56365401781 
0.49113998463 0.80965468526 0.32131107377 0.34922092901 0.91361199333 0.20822552288 0.14273366552 0.97822826658 0.1506537726 
-0.023375734081 0.99675059861 0.077083196813 -0.059395537344 0.9938238005 -0.093735925333 0.077153336817 0.89884397772 -0.43142423012 
0.12436393726 0.80812904212 -0.57572655175 -0.26365861681 0.96453775917 -0.012290033245 -0.47156191097 -0.09946539802 0.87620545463 
-0.16517896653 -0.78009898075 0.60345794323 -0.036945905979 -0.9531243182 0.30031489154 -0.10279980512 -0.9862378928 0.12948752398 
-0.3063306644 -0.95188393041 0.0088604222044 -0.5692334623 -0.81502776636 -0.10818043012 -0.79518230969 -0.5792088523 -0.17944971379 
-0.93451033896 -0.31018413181 -0.17457442754 -0.98327884468 -0.072325019566 -0.16712810998 -0.95716713386 0.087265158407 -0.2760722188 
-0.83800826988 0.16989296568 -0.51853497454 -0.59902103364 0.21900714983 -0.77020105789 -0.27759801803 0.24119811617 -0.92992623855 
0.12582673112 0.13558045628 -0.98274390032 0.63619777128 -0.24307963923 -0.73223267122 0.83566658754 -0.52160854559 -0.17200546397 
0.83171587064 -0.53705541491 0.14078420311 0.82875923206 -0.48498902466 0.27918413501 0.82109365197 -0.42707061103 0.37870292828 
0.82109365197 -0.42707061103 0.37870292828 
FrenetBinormal 3 64 double
-0.2701104438 -0.88298278301 -0.38390331211 -0.2701104438 -0.88298278301 -0.38390331211 -0.15034578751 -0.98734441163 -0.050469366896 
0.33659046924 0.69431536377 0.63610772016 0.36669962862 0.58195903779 0.725847822 0.41811348784 0.42014118393 0.80539586344 
0.47436583839 0.30012068945 0.82758964659 0.52852444096 0.22811061706 0.81769643615 0.64961894454 0.10776973489 0.75258282676 
0.89537993496 -0.44295992667 -0.045620997715 0.74203570252 -0.53350423101 -0.4059017759 0.85777806511 -0.51183008799 -0.047399915985 
0.70549949856 -0.54773337197 0.44973170976 0.30714282174 -0.63625138563 0.70770577314 0.16481091333 -0.67158966391 0.722360496 
0.21509291616 -0.65174581504 0.72729803382 0.25274237071 -0.62968501698 0.73458700876 -0.60512910708 -0.79175666889 0.083307508786 
-0.59927957526 -0.78803730614 -0.14092975128 -0.65728444124 -0.73791856416 -0.15314488558 -0.87360876557 -0.42045516796 -0.24500036012 
-0.94095955873 -0.033889991617 -0.33681831497 -0.72980377512 0.52760959095 -0.43475805841 0.15381847852 0.91357101978 -0.37646761811 
0.80951379908 0.53467964279 -0.24249760552 0.95853586192 -0.040117067134 -0.28213405029 0.82874615992 -0.38938375256 -0.40194538889 
0.7996929581 -0.42159443918 -0.42749187315 0.89616407872 -0.3419229809 -0.28280491359 0.96007412069 -0.27741388466 0.036044685808 
0.81768826115 -0.28044300753 0.50273017326 0.10850871098 -0.32148882057 0.94067571346 -0.57407166995 -0.30981123878 0.75793054701 
-0.74630155481 -0.33208991942 0.57684510461 -0.73418982041 -0.32376634001 0.59677522123 -0.6222192294 -0.18595483477 0.76043673635 
-0.5156897614 -0.027022143068 0.85634915412 -0.50427924729 -0.0040546232644 0.86353112323 -0.51762700619 -0.05595988221 0.85377442808 
-0.51867383877 -0.078006962346 0.85140610921 -0.52564088665 0.048691047096 0.8493119805 -0.52498724944 0.40449276089 0.74884844549 
-0.50827796674 0.55020739922 0.6625143971 -0.45343721806 -0.11268253816 0.88413649109 0.26590982577 -0.96340711075 0.033744681346 
0.53528091525 -0.58481430421 -0.60948057505 0.56847516117 -0.26720296668 -0.77809932896 0.57422076309 -0.16513498915 -0.8018734006 
0.56932874481 -0.19066241706 -0.7996953314 0.53305076661 -0.26567198598 -0.80329028133 0.44414516923 -0.35487567733 -0.82267753239 
0.30081895176 -0.42611084165 -0.85319253917 0.18172544318 -0.44902644409 -0.87484348075 0.2095334155 -0.44926236101 -0.86848090294 
0.3916003962 -0.47451971521 -0.78834013571 0.59173954638 -0.52694471268 -0.61006030769 0.71605634937 -0.59337171806 -0.36765922909 
0.74110648493 -0.67138368634 0.0022635601027 0.46217829373 -0.63986184841 0.61397723065 -0.044964269335 -0.3770923001 0.92508357011 
-0.29736625946 -0.21677265927 0.92982951229 -0.39625219873 -0.15631104341 0.90473811278 -0.4658636789 -0.1180494735 0.87694660869 
-0.4658636789 -0.1180494735 0.87694660869 
