# vtk DataFile Version 4.2
vtk output
ASCII
DATASET POLYDATA
POINTS 64 float
0 0 0 -0.665716 0.596232 0.539387 -1.37889 0.736946 1.19718 
-2.11617 0.574811 1.87765 -2.82817 0.194502 2.49148 -3.5246 -0.325511 3.01402 
-4.21624 -0.943739 3.4239 -4.90737 -1.63854 3.68433 -5.57813 -2.3963 3.71063 
-6.08671 -3.15501 3.29139 -6.10395 -3.64948 2.41506 -5.74338 -3.87552 1.49453 
-5.23315 -4.02275 0.63027 -4.65889 -4.18594 -0.18997 -4.06259 -4.41944 -0.976723 
-3.47776 -4.76819 -1.72844 -2.95101 -5.28489 -2.42309 -2.58626 -6.04658 -2.97851 
-2.68287 -7.02832 -3.07925 -3.27491 -7.67845 -2.58113 -3.97059 -7.9198 -1.88552 
-4.65469 -7.91624 -1.13729 -5.29203 -7.74081 -0.36822 -5.855 -7.43619 0.418509 
-6.30561 -7.04102 1.23667 -6.57396 -6.61875 2.11776 -6.52295 -6.33846 3.0864 
-6.09489 -6.50559 3.98148 -5.56359 -7.09556 4.61018 -5.10904 -7.903 5.02038 
-4.77411 -8.82778 5.26588 -4.56954 -9.81468 5.37722 -4.48795 -10.8256 5.38937 
-4.49508 -11.8397 5.3609 -4.52791 -12.8536 5.37297 -4.50026 -13.8586 5.50469 
-4.32842 -14.8176 5.78426 -3.97557 -15.6875 6.1668 -3.4553 -16.4507 6.58498 
-2.79944 -17.1064 6.99541 -2.03921 -17.6558 7.3812 -1.19968 -18.0954 7.74276 
-0.301419 -18.4124 8.09105 0.633678 -18.5853 8.44345 1.57673 -18.5915 8.81608 
2.4946 -18.4288 9.21537 3.36857 -18.1311 9.63546 4.20618 -17.7554 10.0673 
5.03192 -17.3622 10.5067 5.87262 -17.0135 10.9548 6.74302 -16.7731 11.4166 
7.63276 -16.7004 11.8973 8.50242 -16.8336 12.4008 9.29372 -17.1807 12.9306 
9.93892 -17.728 13.4883 10.3628 -18.446 14.0634 10.506 -19.277 14.6245 
10.371 -20.1426 15.1339 10.0335 -20.9883 15.5803 9.59461 -21.8079 15.9861 
9.1514 -22.6257 16.3917 8.82853 -23.474 16.8508 8.79389 -24.3004 17.3741 
9.21476 -25.0489 17.9693 
LINES 1 65
64 0 1 2 3 4 5 6 7 8 9 10 11 12 13 14 15 16 17 18 19 20 21 22 23 24 25 26 27 28 29 30 31 32 33 34 35 36 37 38 39 40 41 42 43 44 45 46 47 48 49 50 51 52 53 54 55 56 57 58 59 60 61 62 63 

CELL_DATA 1
FIELD FieldData 2
Length 1 1 double
63.818507358 
Tortuosity 1 1 double
0.9834579009 
POINT_DATA 64
SCALARS MaximumInscribedSphereRadius float
LOOKUP_TABLE default
0.62 0.824596 0.736767 0.62 0.726237 1.12281 1.08242 0.931767 1.06073 
1.35837 0.757202 0.915723 0.925806 0.894415 1.03897 1.25913 0.814741 0.669457 
1.06736 1.25641 1.62968 1.75608 1.54904 1.34456 1.24 1.40738 1.91281 
1.81072 1.07175 1.22392 1.64509 1.86633 1.82194 1.61048 1.55 1.39144 
1.24345 1.24 1.26942 1.45324 1.57096 1.5202 1.35624 1.56463 1.87855 
1.69891 1.41333 1.33854 1.58867 1.98349 2.17 2.11142 1.93866 1.9306 
1.92039 1.86 1.88554 2.06123 2.17 2.22154 2.41176 2.31444 2.07462 
1.86 
TEXTURE_COORDINATES TCoords 2 float
0 0 0.015873 0 0.031746 0 0.047619 0 0.0634921 
0 0.0793651 0 0.0952381 0 0.111111 0 0.126984 0 
0.142857 0 0.15873 0 0.174603 0 0.190476 0 0.206349 
0 0.222222 0 0.238095 0 0.253968 0 0.269841 0 
0.285714 0 0.301587 0 0.31746 0 0.333333 0 0.349206 
0 0.365079 0 0.380952 0 0.396825 0 0.412698 0 
0.428571 0 0.444444 0 0.460317 0 0.47619 0 0.492063 
0 0.507937 0 0.52381 0 0.539683 0 0.555556 0 
0.571429 0 0.587302 0 0.603175 0 0.619048 0 0.634921 
0 0.650794 0 0.666667 0 0.68254 0 0.698413 0 
0.714286 0 0.730159 0 0.746032 0 0.761905 0 0.777778 
0 0.793651 0 0.809524 0 0.825397 0 0.84127 0 
0.857143 0 0.873016 0 0.888889 0 0.904762 0 0.920635 
0 0.936508 0 0.952381 0 0.968254 0 0.984127 0 
1 0 
FIELD FieldData 7
Curvature 1 64 double
0 0.48377633806 0.31070902645 0.22556991594 0.16409990102 0.14618459842 0.16441450463 0.24047682814 0.49320770353 
0.8183087281 0.48167131112 0.1746288017 0.077200776756 0.078769753742 0.11802332646 0.18313851392 0.325700077 0.77229963543 
1.025544963 0.48031606931 0.24797403513 0.17579744529 0.14674450945 0.14434327392 0.19124172678 0.36370482038 0.63481361012 
0.53494166784 0.31737275153 0.2318359882 0.19357921541 0.15635468809 0.095096198632 0.046662985506 0.1311909544 0.2081320729 
0.22324124795 0.19820927816 0.16968179236 0.14761683846 0.13437148188 0.13337874635 0.14543749179 0.16460789631 0.16930382074 
0.14018022775 0.084556883709 0.021817932724 0.046411383151 0.11029504447 0.16635425788 0.20466059561 0.22608394441 0.24656154971 
0.27815328968 0.30199651698 0.28333464917 0.20958040691 0.10949241 0.0045384614071 0.13152869279 0.30137560681 0.47748970128 
0 
Torsion 1 64 double
0 0 -0.13786715153 -0.16992642704 -0.24293911376 -0.23115800844 -0.1421577121 0.00075831446709 0.081511311856 
0.082191754846 0.16110618652 0.4922378248 1.095346495 0.65395472552 0.24646930226 0.11744565056 0.05307641916 0.011791505737 
0.0023138478056 -0.011904813396 -0.067007404448 -0.14717218589 -0.27969971493 -0.47859067461 -0.59095594657 -0.39018737181 -0.22638910998 
-0.24269114765 -0.27341725117 -0.16408657213 -0.10773527568 -0.13859721922 -0.43522483699 -2.1737874109 -0.37512749513 -0.21837848536 
-0.21189366205 -0.19425691214 -0.11714331493 -0.012767079425 0.092061145925 0.16734833023 0.17099238406 0.12135903376 0.073066866493 
0.046031381101 0.065699737495 1.0630377189 0.1642012287 -0.038935165731 -0.080090541011 -0.11116231558 -0.13582396426 -0.12888450577 
-0.085986705229 -0.044492520613 -0.020270538995 -0.0098049159216 -0.014512711543 -9.5283535442 -0.014108124522 -0.0037639434134 0 
0 
Abscissas 1 64 double
0 1.0438430482 2.0242015037 3.0405268611 4.05461081 5.068746064 6.0829380197 7.0969541166 8.109285647 
9.1143026666 10.120655038 11.13479061 12.149170629 13.163664877 14.178099951 15.192365984 16.205762381 17.216566228 
18.208179402 19.218763952 20.231728565 21.245566987 22.259691067 23.27392126 24.288121724 25.301353888 26.311022071 
27.317168071 28.329894398 29.343227727 30.356967083 31.37097988 32.385240367 33.399782184 34.414262243 35.428239487 
36.441811222 37.455539516 38.46948797 39.483625766 40.497860062 41.512131869 42.5263763 43.540510489 44.554534745 
45.56862148 46.582979684 47.597528902 48.612135693 49.626624805 50.640859005 51.654758884 52.668448016 53.682009017 
54.695323137 55.708266926 56.7210953 57.734466523 58.748588646 59.763034044 60.777772291 61.794945876 62.773726257 
63.818552434 
ParallelTransportNormals 3 64 double
0.62953253187 0 0.77697412525 0.67523937765 -0.023928626363 0.73721042024 0.680869858 -0.023866631776 0.7320154509 
0.66206556877 -0.030908056196 0.74880830304 0.62502253807 -0.054587270179 0.77869574087 0.57117272238 -0.098744801711 0.81486881481 
0.49404161147 -0.17198544174 0.85225811463 0.37370747533 -0.30033817119 0.8775760399 0.17056309233 -0.5616870425 0.80957760457 
0.04090880273 -0.87053804131 0.49039778597 0.083179295667 -0.95975220297 0.26824785865 0.10368579284 -0.96854281103 0.22621688613 
0.086776830125 -0.96370280508 0.25248105915 0.042273089916 -0.94862123371 0.31357732829 -0.026759345931 -0.91459046685 0.40349500041 
-0.1239723814 -0.83889439173 0.52998778116 -0.25784508442 -0.64683231424 0.71772130364 -0.34620424344 -0.061981874242 0.93610943222 
-0.053558270266 0.63759320132 0.76850922006 0.22366638303 0.82963573962 0.51154461061 0.38234500923 0.85699480462 0.34550282021 
0.49397742545 0.8418762958 0.21732603553 0.58158803645 0.8068379555 0.103768345 0.65175740693 0.75839201211 -0.0073374709112 
0.70081277474 0.70260919153 -0.12329549358 0.71322636598 0.6623919116 -0.22922719368 0.71596087302 0.66303251144 -0.21860447634 
0.79023039256 0.60450753898 -0.10053139799 0.87398854863 0.48579176895 -0.012262711208 0.93612047712 0.34947205089 0.03934130099 
0.97559137542 0.20961368681 0.065448991618 0.99399946862 0.081107787276 0.073393345954 0.99731516293 -0.0090533513797 0.072667066927 
0.99687455615 -0.031414292943 0.072486284969 0.99704789966 0.036293135929 0.067663092332 0.98178981456 0.18648793339 0.036207882057 
0.9305898537 0.36496007363 -0.028401916144 0.84749734889 0.52039007905 -0.10460597137 0.74858634664 0.63971934329 -0.17429183415 
0.64450766281 0.72829135595 -0.23281231376 0.53765257377 0.79435039967 -0.28273159084 0.42511018421 0.84334799054 -0.32870275041 
0.30332715622 0.87588957607 -0.3752467013 0.17384373543 0.88823237033 -0.42523124526 0.051489494225 0.87794497474 -0.47598471961 
-0.041650340852 0.85401629625 -0.51857633465 -0.093338159984 0.83367885872 -0.54430464669 -0.1026971954 0.8293524532 -0.54920651346 
-0.067671329148 0.84494575469 -0.53055373229 0.016406177514 0.87389223062 -0.48584277972 0.15039242156 0.89772321414 -0.41409558116 
0.3210879143 0.89184709306 -0.31860840212 0.5047055794 0.8387505334 -0.20437666413 0.68038145051 0.72937347954 -0.071382134673 
0.82713822027 0.55566548429 0.084132241975 0.91085274662 0.32696243901 0.2518786165 0.9119932462 0.092920142743 0.39954244575 
0.86367229126 -0.082121648457 0.49731902052 0.82207735869 -0.17134416118 0.54298249949 0.82035787717 -0.17453607898 0.54456414728 
0.86995380243 -0.066693607621 0.48860243996 0.92165796605 0.17926753534 0.34410716991 0.83657628327 0.54067520329 0.088376732355 
0.83657628327 0.54067520329 0.088376732355 
FrenetTangent 3 64 double
-0.7002358956 0.37424016346 0.60795887242 -0.7002358956 0.37424016346 0.60795887242 -0.73491608711 -0.010853601287 0.67807119409 
-0.71839284239 -0.26888377262 0.64157091644 -0.69679947946 -0.44542068107 0.56220183414 -0.68621066381 -0.56270446132 0.460954026 
-0.6841194588 -0.64961538311 0.33163295994 -0.67698833564 -0.72206053675 0.14253201283 -0.60144375276 -0.77337448856 -0.20039289587 
-0.28004648474 -0.66743085263 -0.69000726325 0.17462107984 -0.36645871189 -0.91390124792 0.43094664227 -0.18472595547 -0.88326740735 
0.534938327 -0.15311842575 -0.83090055603 0.57739461843 -0.19567269648 -0.79267121208 0.58324920084 -0.28751873557 -0.75970609212 
0.55054413956 -0.42864083451 -0.71635758207 0.4462116362 -0.6398569435 -0.6256822417 0.14247475919 -0.92636178569 -0.348647078 
-0.37936816905 -0.89897586979 0.21891134703 -0.65391353378 -0.4526999074 0.60618469478 -0.68604082569 -0.11823170624 0.71789222667 
-0.654174916 0.088608425064 0.75113495877 -0.59339166417 0.2373200801 0.76913296151 -0.50101645513 0.34590875325 0.79330299767 
-0.35626289459 0.40506235385 0.84202211339 -0.1091853626 0.35294591564 0.92925117015 0.24852758038 0.058704221048 0.96684427713 
0.49114215756 -0.38759561754 0.78009551872 0.49268080571 -0.69835858388 0.51919255772 0.39211162869 -0.86034263838 0.32566703124 
0.26732435116 -0.94724541706 0.17681575476 0.14152431976 -0.98804902892 0.061073589758 0.036744004585 -0.99929225846 -0.0080535900516 
-0.019699864757 -0.99977324929 -0.0080848829828 -0.0025592042288 -0.99747004995 0.071041888539 0.098929090868 -0.97396729356 0.20396260945 
0.26044524954 -0.90782840131 0.32865767262 0.43276250142 -0.80944727571 0.39687746877 0.5820463393 -0.7021887387 0.41006467069 
0.70007959096 -0.59577094829 0.39363122779 0.79046181445 -0.48867768846 0.3692752858 0.85862680738 -0.37382891024 0.35073059678 
0.90629675811 -0.24217600603 0.34637691659 0.92923160217 -0.088611400763 0.35871527592 0.92091188146 0.077446867732 0.38199906972 
0.88557042047 0.22754055858 0.4049571886 0.84438764861 0.33221431196 0.42028936438 0.81977233504 0.37894786504 0.42938541462 
0.82148540718 0.36572549941 0.43750038272 0.84476149146 0.29083564207 0.44921337006 0.87092630052 0.15492389429 0.46635390644 
0.87233834303 -0.029996449499 0.48798158603 0.82460637604 -0.23845194358 0.51299609667 0.71414254923 -0.44464349666 0.54064089769 
0.53273492093 -0.63051339296 0.56448770165 0.28311789118 -0.77334750925 0.56725469556 0.0040878291316 -0.84571522907 0.53361881617 
-0.23434317944 -0.84874410195 0.4740429555 -0.38332644117 -0.8222073981 0.42075626438 -0.43470885838 -0.80692898516 0.39986725467 
-0.37785740119 -0.82177950887 0.42649996854 -0.18108914539 -0.84828474951 0.49761401223 0.19606509143 -0.79948019613 0.56779388507 
0.19606509143 -0.79948019613 0.56779388507 
FrenetNormal 3 64 double
-0.19882228574 -0.92012545572 0.33740012513 -0.19882228574 -0.92012545572 0.33740012513 0.0086947842677 -0.99994053768 -0.0065819328616 
0.1030990427 -0.95324631683 -0.28406345566 0.093119962324 -0.8333558752 -0.54483635881 0.032252715161 -0.65661232509 -0.75353833141 
0.0023503408511 -0.45664524274 -0.88964577118 0.078992975384 -0.26382511039 -0.96133054719 0.33254709598 -0.014277906167 -0.94297856304 
0.6818142509 0.36770426118 -0.63239457902 0.80863113657 0.58295410429 -0.079247695581 0.83900676431 0.44235948224 0.31683708419 
0.80638852527 -0.20096824566 0.55619179295 0.27274188053 -0.8688607688 0.41314988932 -0.093968059969 -0.95286395939 0.2884792516 
-0.30862473866 -0.90182453575 0.3024289626 -0.49479527526 -0.75895432567 0.42328001031 -0.6704406044 -0.34944964111 0.65451840639 
-0.57707463058 0.41483385109 0.70348969199 -0.21915064486 0.88021653232 0.42094162433 0.048573749636 0.97706356143 0.2073340005 
0.26181429111 0.95824496189 0.11497769341 0.49587860437 0.86046399028 0.11707318718 0.76066126676 0.61320094184 0.21302357187 
0.9342850097 0.14119252579 0.32737775018 0.88532537427 -0.39053267446 0.25235532858 0.6409412359 -0.75835516254 -0.11870880156 
0.19578840353 -0.82351597243 -0.53243623487 -0.24254289054 -0.68318713074 -0.68878755117 -0.50980663856 -0.49791186237 -0.70155610509 
-0.66173463864 -0.31384624969 -0.68088750875 -0.7697707272 -0.14863053468 -0.620775315 -0.90884674911 -0.03006528954 -0.41604526796 
-0.53542242007 0.0037202929332 0.84457622007 0.45012440178 0.06228908249 0.8907907123 0.68166877929 0.21565293085 0.69915769949 
0.79901702951 0.3937534382 0.45445573652 0.82953576791 0.52991468366 0.17624085167 0.78195528555 0.62168280026 -0.045347847284 
0.69103405471 0.70413776745 -0.16328484221 0.57588460494 0.798293089 -0.17630957388 0.43035022322 0.8974342928 -0.097007089902 
0.24811608903 0.96833047493 0.027829798579 0.047997778977 0.99154025868 0.12059904074 -0.14609693703 0.97719622158 0.15408838215 
-0.30760960887 0.94051919908 0.14422192864 -0.42007251833 0.89745853881 0.13456318387 -0.53395240465 0.77681768514 0.33383995211 
0.31640246754 -0.93063733136 0.18385765152 0.2644212024 -0.95664539962 0.12211063466 0.11551281298 -0.98695493822 0.1121460653 
-0.095580657587 -0.9893195815 0.11005045915 -0.34128472923 -0.93290378072 0.11495768576 -0.5851188006 -0.80312382597 0.11237486082 
-0.789446532 -0.61057245205 0.063051200768 -0.92663452434 -0.37311529955 -0.046189084637 -0.97590829105 -0.1197809747 -0.18236097598 
-0.94991575962 0.096213692986 -0.29732637776 -0.90181450215 0.23479772992 -0.36276801092 -0.89260471204 0.44498981394 -0.072394015886 
0.897090384 -0.21100805336 0.38820670313 0.95793077369 -0.037588990162 0.28452715271 0.95563766433 0.28557955972 0.072117748121 
0.95563766433 0.28557955972 0.072117748121 
FrenetBinormal 3 64 double
0.68566711253 0.11538390615 0.71871215727 0.68566711253 0.11538390615 0.71871215727 0.67810231207 0.0010585144065 0.73496675701 
0.68795516671 -0.13792380602 0.7125269906 0.71119558354 -0.3272894776 0.62215949708 0.72668747563 -0.5022190197 0.46872312618 
0.72936619197 -0.60784453301 0.3139267139 0.73174237492 -0.63955053936 0.23564423259 0.72641437295 -0.6337886413 0.26577079774 
0.67579826402 -0.64755666414 0.35208958105 0.56180349183 -0.72517068665 0.39812599989 0.33219367988 -0.87760720704 0.34561965973 
-0.25214783881 -0.96755698123 0.015967324415 -0.76956307163 -0.45474515972 -0.44830739287 -0.80683974457 -0.096867185333 -0.58277472061 
-0.77566224678 0.054585178558 -0.6287833786 -0.74570289747 0.12071215104 -0.65525244394 -0.72815543599 0.14049480536 -0.67085830896 
-0.72323209488 0.14055341168 -0.6761509265 -0.72413402434 0.14241365832 -0.67479497977 -0.72593978836 0.17711030618 -0.66456253514 
-0.70958329761 0.27187338969 -0.65005876944 -0.63402739895 0.4508668329 -0.62827410926 -0.41276742718 0.71016317798 -0.57034315259 
0.013721173128 0.90332118328 -0.42874534312 0.45197072723 0.85024314806 -0.26983152319 0.72624264121 0.64919277713 -0.22609812961 
0.84879107094 0.41423553737 -0.32857668431 0.83572637264 0.21342594198 -0.50597509559 0.76573210846 0.1090610925 -0.63384541977 
0.70046053372 0.065012701906 -0.71072384883 0.62243384746 0.04084214258 -0.78160605481 0.41550868192 0.022606648371 -0.90930823965 
-0.84435463368 0.020966864925 -0.53537430192 -0.89296219035 0.034257402938 0.44882619904 -0.72494186686 0.069867907417 0.68525744446 
-0.54197791333 0.1442422396 0.82792156499 -0.35296887557 0.252953624 0.90079267148 -0.22308740508 0.34704678517 0.91092839378 
-0.17989024865 0.38632496894 0.90465049429 -0.20863135358 0.35202593775 0.91244216116 -0.27849361038 0.23422987851 0.93143849662 
-0.34214703361 0.060719629641 0.93768253368 -0.36636708741 -0.094846903318 0.92562369362 -0.36135438503 -0.19771071595 0.91122636113 
-0.34805367248 -0.25228739638 0.90288964481 -0.33248846329 -0.29017550214 0.89735700796 -0.2070462467 -0.50294413172 0.83915377142 
0.47439562006 -0.012610177077 -0.88022143754 0.46525202875 0.01562717759 -0.88504030477 0.47764439608 -0.04380110619 -0.87746070795 
0.47946861543 -0.14264283607 -0.86588848482 0.45116411448 -0.2698725746 -0.85065841281 0.38423483518 -0.39659082319 -0.83371416589 
0.30490601362 -0.47922243488 -0.82302987841 0.24737161921 -0.51256082877 -0.82224611816 0.2181428365 -0.52001756645 -0.82583014807 
0.20674458609 -0.51997728286 -0.82878242104 0.19947792664 -0.51850267168 -0.83148273358 -0.11952002549 -0.38839371571 -0.91370962844 
-0.22902538572 0.52929579652 0.81694144985 -0.22265523625 0.52820455466 0.81940502452 -0.21980703912 0.52846544927 0.82000556979 
-0.21980703912 0.52846544927 0.82000556979 
