# vtk DataFile Version 4.2
vtk output
ASCII
DATASET POLYDATA
POINTS 64 float
0 0 0 -0.863691 0.111826 0.581646 -1.71297 0.217271 1.04357 
-2.63643 0.301169 1.48145 -3.57519 0.331685 1.86072 -4.53404 0.276236 2.18721 
-5.49506 0.0843627 2.44858 -6.41492 -0.303104 2.62525 -7.2276 -0.903775 2.7032 
-7.90714 -1.65652 2.69306 -8.49291 -2.48132 2.61719 -9.04327 -3.32367 2.48716 
-9.60832 -4.14447 2.2969 -10.2208 -4.90492 2.02228 -10.8829 -5.56323 1.62644 
-11.5552 -6.0896 1.07962 -12.1709 -6.48989 0.380374 -12.6676 -6.80413 -0.446023 
-13.0045 -7.08455 -1.36049 -13.1599 -7.37428 -2.31981 -13.1274 -7.70027 -3.2795 
-12.913 -8.07627 -4.19655 -12.5303 -8.50985 -5.02954 -11.9934 -9.01163 -5.72796 
-11.3191 -9.60096 -6.20174 -10.5777 -10.2835 -6.28376 -9.97752 -10.9683 -5.84753 
-9.69358 -11.5138 -5.04408 -9.70588 -11.8694 -4.0955 -9.91612 -12.0442 -3.11907 
-10.2327 -12.0674 -2.15574 -10.5859 -11.9713 -1.20964 -10.918 -11.7905 -0.268197 
-11.1739 -11.5687 0.688027 -11.2954 -11.3715 1.67539 -11.2282 -11.3049 2.68443 
-10.9672 -11.4882 3.64545 -10.5927 -11.9482 4.467 -10.1984 -12.6079 5.1284 
-9.82842 -13.3865 5.66293 -9.49111 -14.2335 6.10788 -9.17907 -15.1202 6.48965 
-8.87644 -16.029 6.82403 -8.55776 -16.9463 7.11812 -8.18241 -17.8543 7.3708 
-7.68729 -18.7163 7.57151 -6.99886 -19.4485 7.70099 -6.11361 -19.9382 7.75236 
-5.12796 -20.1762 7.75848 -4.11597 -20.2456 7.761 -3.10192 -20.223 7.78441 
-2.09117 -20.1561 7.84168 -1.08453 -20.0767 7.94027 -0.0833993 -20.0007 8.08628 
0.909423 -19.937 8.28519 1.88942 -19.8869 8.54286 2.85049 -19.8501 8.86576 
3.78455 -19.8287 9.26108 4.68047 -19.8302 9.73701 5.52176 -19.8701 10.3024 
6.28168 -19.9733 10.9646 6.9146 -20.1837 11.7394 7.34725 -20.5036 12.553 
7.51125 -21.0138 13.451 
LINES 1 65
64 0 1 2 3 4 5 6 7 8 9 10 11 12 13 14 15 16 17 18 19 20 21 22 23 24 25 26 27 28 29 30 31 32 33 34 35 36 37 38 39 40 41 42 43 44 45 46 47 48 49 50 51 52 53 54 55 56 57 58 59 60 61 62 63 

CELL_DATA 1
FIELD FieldData 2
Length 1 1 double
63.882312331 
Tortuosity 1 1 double
1.4517080249 
POINT_DATA 64
SCALARS MaximumInscribedSphereRadius float
LOOKUP_TABLE default
0.9796 0.954368 1.10105 1.46057 1.54966 1.52404 1.34038 1.24201 1.2775 
1.63957 1.84667 1.8037 1.58235 1.38038 1.90283 1.86326 1.48099 1.89014 
1.97611 1.67438 1.7132 1.93641 2.27783 2.25518 1.92822 1.88127 1.93255 
1.79194 1.7284 1.99861 1.83677 1.63551 1.75223 1.85311 1.87431 2.04984 
1.94007 1.59231 1.54742 1.46704 1.30842 1.56274 2.05646 1.89449 1.66012 
1.7692 1.7242 1.64635 2.02689 2.12852 2.05098 1.78788 1.48752 1.12644 
1.02997 1.19933 1.50593 1.71014 1.46677 1.37497 1.64979 1.63068 1.6616 
1.86 
TEXTURE_COORDINATES TCoords 2 float
0 0 0.015873 0 0.031746 0 0.047619 0 0.0634921 
0 0.0793651 0 0.0952381 0 0.111111 0 0.126984 0 
0.142857 0 0.15873 0 0.174603 0 0.190476 0 0.206349 
0 0.222222 0 0.238095 0 0.253968 0 0.269841 0 
0.285714 0 0.301587 0 0.31746 0 0.333333 0 0.349206 
0 0.365079 0 0.380952 0 0.396825 0 0.412698 0 
0.428571 0 0.444444 0 0.460317 0 0.47619 0 0.492063 
0 0.507937 0 0.52381 0 0.539683 0 0.555556 0 
0.571429 0 0.587302 0 0.603175 0 0.619048 0 0.634921 
0 0.650794 0 0.666667 0 0.68254 0 0.698413 0 
0.714286 0 0.730159 0 0.746032 0 0.761905 0 0.777778 
0 0.793651 0 0.809524 0 0.825397 0 0.84127 0 
0.857143 0 0.873016 0 0.888889 0 0.904762 0 0.920635 
0 0.936508 0 0.952381 0 0.968254 0 0.984127 0 
1 0 
FIELD FieldData 7
Curvature 1 64 double
0 0.093245939296 0.061373263265 0.076906391429 0.10034540785 0.14776247194 0.2135992492 0.25549950994 0.21706078453 
0.13209036542 0.065211117399 0.063834159933 0.11118994546 0.16256529983 0.19718275897 0.2021956523 0.19064865212 0.18196944148 
0.18358971185 0.18775998321 0.18980750318 0.19313753716 0.21223700722 0.27532614971 0.41543248943 0.56617783588 0.52633122484 
0.38492682845 0.26708668756 0.18202707526 0.12290935768 0.085091779616 0.085455390113 0.13686698498 0.22720299261 0.31966730852 
0.33038724429 0.25395939273 0.1719975197 0.11442273333 0.076657652983 0.05164991667 0.042952473464 0.068867042814 0.1351752187 
0.24041179223 0.32176187798 0.27247859858 0.16712768099 0.091889034736 0.05430388855 0.042146463689 0.0465209524 0.053416094177 
0.059961936556 0.067318890021 0.076689097287 0.089644297129 0.10880498463 0.13826085981 0.19549322717 0.23025763929 0.33483328572 
0 
Torsion 1 64 double
0 0 0.50301275544 0.27077521933 0.21148037635 0.12205876196 0.064823717193 0.022598225149 -0.028248848864 
-0.18256753859 -0.83377032643 -0.69283952439 -0.055407753145 0.12097851072 0.20396639305 0.27952137699 0.33839340956 0.32736796621 
0.24551336731 0.16853540653 0.128989571 0.12881899397 0.15528610538 0.16915181842 0.13618027662 0.093642785743 0.059796067683 
-0.0084366801928 -0.10771757557 -0.20897596119 -0.37496164755 -0.73574828487 -0.84845123286 -0.50162926413 -0.30604317399 -0.20968146703 
-0.17289134194 -0.16190629196 -0.13522592326 -0.074076733998 0.051240678462 0.35910551164 0.80386334591 0.45053058923 0.18102893144 
0.093631098264 0.073892553667 0.10081176514 0.18218029529 0.33750834903 0.56987068812 0.56178305954 0.24305133319 0.060795230502 
-0.02097334886 -0.013825500958 0.030778607719 0.082136676674 0.1153177886 0.12487027975 0.078532805495 0.067994024926 0 
0 
Abscissas 1 64 double
0 1.0472719849 2.0197787095 3.0452337062 4.0581674923 5.072598566 6.086840616 7.1004927918 8.1140632839 
9.1282209476 10.142698587 11.157272308 12.171769357 13.186090247 14.200178878 15.214121422 16.228144396 17.2422376 
18.256346905 19.270434202 20.284501076 21.298565492 22.312614774 23.326456815 24.339606523 25.350667791 26.360314392 
27.372139269 28.385252921 29.399242588 30.413522023 31.42796911 32.442491147 33.456928619 34.471094629 35.484561487 
36.497126536 37.510413396 38.524425127 39.538737072 40.553215481 41.567768272 42.582347628 43.596924647 44.611423166 
45.625574416 46.638870893 47.651866329 48.665849659 49.680223307 50.694789153 51.709366066 52.723940902 53.738508954 
54.753065169 55.767610281 56.782141282 57.796641525 58.811124292 59.825516391 60.838796803 61.861124428 62.836551644 
63.882250917 
ParallelTransportNormals 3 64 double
0.55858494317 0 0.82944732278 0.47874731307 0.010118648632 0.87789442599 0.42953302779 0.015396857658 0.90291988283 
0.37505271504 0.018734351564 0.92681415883 0.32134327075 0.018030426896 0.94679111004 0.2605321632 0.010196192175 0.96541132664 
0.1929226487 -0.010630726681 0.9811563786 0.12956419372 -0.046767022299 0.99046754885 0.083389731771 -0.088644029502 0.99256656637 
0.051868676751 -0.12794259488 0.99042431957 0.024484403302 -0.16812612781 0.98546137374 -0.0098683569438 -0.21934834416 0.97559669918 
-0.064438363075 -0.29262640674 0.9540531869 -0.15323998017 -0.39147465708 0.90733957333 -0.27583416804 -0.50031539398 0.82073139229 
-0.40480424677 -0.59310342708 0.6959610956 -0.50726151347 -0.65891635947 0.55544125538 -0.56948929341 -0.70330574643 0.4254914473 
-0.59747484151 -0.73571521947 0.31897794532 -0.60264158071 -0.76160321932 0.23829322591 -0.5952037829 -0.78274823759 0.1817626292 
-0.58354796825 -0.79855263462 0.14759897864 -0.57643769906 -0.80578485573 0.13575840813 -0.58957552695 -0.79395022105 0.14847135926 
-0.65640521615 -0.73390453523 0.17468922514 -0.78712029783 -0.60066863656 0.14013859497 -0.88708957115 -0.46159732251 6.7819267383e-05 
-0.91114305169 -0.3818471984 -0.15495501423 -0.89935362836 -0.35373519565 -0.2569717154 -0.88763446271 -0.34933005104 -0.30012260169 
-0.88894331501 -0.3491876114 -0.29639128656 -0.90461165514 -0.34285678223 -0.25323305522 -0.92943268827 -0.32585836746 -0.17312192907 
-0.9519611927 -0.30084606082 -0.057109852739 -0.95575141532 -0.28243041688 0.082293934986 -0.9362879445 -0.28935595384 0.1990929857 
-0.91912525971 -0.30672722315 0.24723908983 -0.92044641447 -0.30480309817 0.24469055854 -0.93075922293 -0.28539542257 0.22855354233 
-0.94092213742 -0.26203809525 0.21447976115 -0.94743409214 -0.24465211759 0.20618919081 -0.94880167885 -0.24065727758 0.20459581851 
-0.94232210436 -0.25970115323 0.21115009506 -0.92053817473 -0.31699089731 0.2283117165 -0.86242795638 -0.43515006207 0.25857773211 
-0.72117056949 -0.62539673621 0.29797975105 -0.47197817303 -0.81887669169 0.32661532113 -0.22315078703 -0.91568030985 0.33426530841 
-0.065291080191 -0.93997176244 0.33494799697 0.013232480938 -0.94178581356 0.33595294735 0.043076873584 -0.9404677262 0.33714216428 
0.041223398565 -0.94060210841 0.33699896895 0.022664045173 -0.94203865151 0.33473798725 -0.0054734838475 -0.94401023323 0.32987076338 
-0.036464024834 -0.94579917822 0.3226984496 -0.06894275424 -0.9472527868 0.31298411227 -0.10497224384 -0.94835785745 0.29932958797 
-0.14935070318 -0.94884061313 0.2782011113 -0.20818617444 -0.94743923474 0.24293499797 -0.28682993551 -0.94041115351 0.18263474601 
-0.39359060353 -0.91641717102 0.072567247877 -0.49396322312 -0.86599508936 -0.07779999618 -0.57980578413 -0.7493530587 -0.31983628017 
-0.57980578413 -0.7493530587 -0.31983628017 
FrenetTangent 3 64 double
-0.84903437478 0.10769047081 0.51724596948 -0.84903437478 0.10769047081 0.51724596948 -0.88769076691 0.094812621986 0.45057260131 
-0.91427238071 0.056172505577 0.40118656942 -0.93720361289 -0.012314072964 0.34856527595 -0.94900739478 -0.12225343882 0.2905840005 
-0.93286515687 -0.28733685557 0.21725591025 -0.86165717117 -0.49143791865 0.12663211078 -0.74029799483 -0.67143665029 0.033640801243 
-0.62511669156 -0.7793737834 -0.042492678073 -0.56023624374 -0.82208684288 -0.10153114778 -0.55000421032 -0.82009287644 -0.15793366535 
-0.58132505953 -0.78063415446 -0.22950270599 -0.63047435606 -0.7017932844 -0.33164479842 -0.66121819416 -0.58702968847 -0.4671045328 
-0.63841256269 -0.45931007387 -0.61762744097 -0.55101907751 -0.35393710638 -0.7557158864 -0.41273819759 -0.29443234548 -0.86194940349 
-0.24376941968 -0.28231789644 -0.92783246084 -0.06086833066 -0.30494599123 -0.9504225317 0.12229494367 -0.34771154525 -0.92959164586 
0.29580494198 -0.40106761992 -0.86697416372 0.45606550514 -0.46388123586 -0.75948565098 0.60322344302 -0.54341429948 -0.58379994596 
0.71405599613 -0.64151033625 -0.28033644587 0.68867656187 -0.70189984663 0.18182738634 0.45163962291 -0.62848053792 0.63327234621 
0.13658387158 -0.45308433271 0.88094235537 -0.11076558015 -0.26399802394 0.95814196736 -0.26083364358 -0.098031645665 0.96039346459 
-0.33078743337 0.036003340653 0.94301825719 -0.33806934965 0.13659932693 0.93115505621 -0.2900750209 0.19861295474 0.93616738699 
-0.18648617915 0.20704229698 0.9603938735 -0.026954888672 0.13095120263 0.99102230878 0.16404903857 -0.058332074554 0.98472599337 
0.31793875364 -0.32184112179 0.89181457785 0.3823071646 -0.55680114878 0.73743726012 0.37823239113 -0.71179603177 0.59185020694 
0.34921115693 -0.80260975332 0.48360019825 0.32026781579 -0.85508419339 0.40774936957 0.3030280736 -0.88516931564 0.35305703401 
0.30625952769 -0.90013104544 0.30978896484 0.34224158811 -0.90009627496 0.26962453739 0.43009517729 -0.87454800192 0.22401770199 
0.58801718342 -0.7920381812 0.1640466748 0.78662207637 -0.61078110522 0.090399947308 0.93160099541 -0.36235355564 0.028626666952 
0.98835741838 -0.15208990378 0.0042748921244 0.99965151087 -0.023090555925 0.012793867589 0.9982339303 0.044124042132 0.039775486322 
0.99443290799 0.072115410431 0.076828113908 0.98974381581 0.076605118865 0.12057709081 0.98302629049 0.06887259153 0.1700466946 
0.97271397011 0.056110002213 0.22512041222 0.95718360097 0.042852684257 0.28629216106 0.93471401145 0.028705756007 0.35423960305 
0.90284933903 0.0098176660509 0.42984495397 0.8575328825 -0.020436585372 0.51402305532 0.79161894932 -0.070747277357 0.60690548014 
0.68759642352 -0.15481363544 0.70939685412 0.5368486538 -0.26717149058 0.80025803185 0.29927559309 -0.41637199491 0.85852692517 
0.29927559309 -0.41637199491 0.85852692517 
FrenetNormal 3 64 double
-0.51854935518 0.017724128153 -0.85486397838 -0.51854935518 0.017724128153 -0.85486397838 -0.444123219 -0.4345135968 -0.78355121118 
-0.33537325855 -0.66044509193 -0.67181623826 -0.18176688291 -0.83569106962 -0.51824823823 -0.01551570464 -0.90251653291 -0.43037561586 
0.18703989768 -0.90180159093 -0.38957665133 0.41477937428 -0.82574289338 -0.38223911979 0.60581110513 -0.68796418687 -0.39962255002 
0.69461285047 -0.53064980992 -0.48571984435 0.52889148428 -0.2606795128 -0.80766328966 -0.22449803564 0.32732302555 -0.91785634439 
-0.4167644956 0.52791627137 -0.74000794971 -0.29947657017 0.61410891176 -0.7301945141 -0.051412393489 0.65664034159 -0.75244948508 
0.27539221516 0.61300308603 -0.74053112315 0.61279274627 0.44309696433 -0.65433181974 0.86112746658 0.18225003988 -0.47459920908 
0.96959489799 -0.049736067723 -0.2396081329 0.9818736547 -0.18952527457 -0.0020728018298 0.94050015312 -0.25857571956 0.22044967505 
0.85544728671 -0.29267053695 0.42726326365 0.71530416501 -0.31666377893 0.62294783299 0.49662530671 -0.31683909425 0.80806948531 
0.16806600585 -0.23164422933 0.95817261947 -0.26106565244 -0.0060855987159 0.96530186502 -0.62911019919 0.27897090262 0.72553124865 
-0.77876927289 0.50051018297 0.37816395431 -0.73403944469 0.67167279729 0.10020851767 -0.57241965898 0.81678556532 -0.072090736494 
-0.29026041312 0.94694946283 -0.13796958878 0.24177095355 0.96881032326 -0.054344857725 0.86764339971 0.46733099789 0.16969581421 
0.95873382595 -0.17517353458 0.2239278539 0.81854758678 -0.56617658515 0.097076890142 0.60635106406 -0.78143453972 -0.1473039281 
0.34321612134 -0.83775839189 -0.42469232495 0.076133431682 -0.77636771305 -0.62566514584 -0.13927076548 -0.67582441306 -0.72378520059 
-0.2789048377 -0.58172889125 -0.76407040814 -0.32114349938 -0.50293314314 -0.80244944161 -0.17697575505 -0.41630199264 -0.89183643851 
0.36255355338 -0.19060935385 -0.9122625692 0.80110225086 0.12956299675 -0.58433604505 0.8663459284 0.33004090354 -0.37485695182 
0.79588225724 0.53039688659 -0.29197701159 0.61221740129 0.75257635782 -0.24252562587 0.36193979002 0.91751688739 -0.16481004141 
0.15214658618 0.98813265164 -0.021101637025 0.019688153902 0.97499596291 0.22134870433 -0.059211466822 0.79310546664 0.60619940695 
-0.094521296752 0.28824905639 0.95287890414 -0.11520837704 -0.071024915915 0.99079891561 -0.15087703542 -0.22385372241 0.96287363197 
-0.20783165019 -0.22053698893 0.95297924515 -0.27330850385 -0.19216115346 0.94253729519 -0.3423026825 -0.19538739594 0.91904985668 
-0.41414929794 -0.24873568352 0.87556320089 -0.48877253525 -0.34398789861 0.80173170973 -0.56877729518 -0.44820896125 0.68963839478 
-0.66466601055 -0.52749066904 0.52912445464 -0.77175288274 -0.53874527439 0.33786242363 -0.87264768596 -0.48333823671 0.069786568348 
-0.87264768596 -0.48333823671 0.069786568348 
FrenetBinormal 3 64 double
-0.10122843816 -0.99402646734 0.040794430133 -0.10122843816 -0.99402646734 0.040794430133 0.12148937682 -0.89566092965 0.42782219486 
0.22722409933 -0.74877027863 0.62266546276 0.29767463491 -0.54906174494 0.78097439905 0.31487176367 -0.41293825751 0.8545980154 
0.3078614555 -0.32278696074 0.89500273865 0.292412363 -0.276834691 0.91534559803 0.29146489284 -0.27545980149 0.91606228719 
0.35600858122 -0.33314754237 0.87308109882 0.63750227377 -0.50618120705 0.58083684161 0.80442277481 -0.46936905625 -0.36413828199 
0.69883369293 -0.33453658592 -0.63223155751 0.71611163255 -0.36104906933 -0.59735056647 0.74842986679 -0.47351832768 -0.46436314221 
0.71874093221 -0.64285416119 -0.2648584524 0.56644772605 -0.82364652912 -0.027264789112 0.29682767145 -0.93813352829 0.17832222677 
0.021498925944 -0.95803075573 0.28585812436 -0.17949699867 -0.93332101269 0.31095452198 -0.31702272588 -0.90124096587 0.29540025849 
-0.42509925425 -0.86803728091 0.25651881605 -0.52947540692 -0.82736826754 0.18739675378 -0.6240871594 -0.77737628435 0.078748523831 
-0.67961595926 -0.731303931 -0.057590870992 -0.6764387025 -0.71224965482 -0.18743295061 -0.63264682746 -0.72607675141 -0.26938920314 
-0.61226078236 -0.73770193452 -0.28448653779 -0.67001274606 -0.69221434306 -0.26818318995 -0.77736834537 -0.56855178896 -0.26916039621 
-0.89795799818 -0.31935947507 -0.30278863781 -0.909536102 0.20675391514 -0.36055082544 -0.40379625208 0.86148397119 -0.30788626826 
0.21459812664 0.96252154264 -0.16583101036 0.5738059621 0.81381561607 -0.091928564075 0.7780914471 0.62125472168 -0.092823869474 
0.88380860088 0.44111128883 -0.15589479746 0.92089355111 0.29533989716 -0.25441975684 0.91517425236 0.19133157571 -0.35475106195 
0.89457456893 0.1319434764 -0.42699796212 0.89123250557 0.12605267053 -0.43567802937 0.93640459671 0.20776894276 -0.28280469885 
0.88020453454 0.39170419357 0.26796977835 0.49102533442 0.41598091984 0.76541099763 0.25389539345 0.35530099116 0.89961010158 
0.14424709565 0.30224933781 0.94225161883 0.080097206719 0.24612043221 0.96592399821 0.033454054151 0.16389832846 0.98590981544 
-0.0010148145456 0.021506369737 0.99976819624 -0.017585033885 -0.22101967908 0.97511079783 -0.0047981874676 -0.60748398143 0.79431743636 
0.046571621925 -0.95483603256 0.29346078948 0.084464246438 -0.99452859038 -0.061470919878 0.10438118792 -0.97218623581 -0.20966280192 
0.10311904541 -0.97376337175 -0.20285797571 0.095404485006 -0.98042732446 -0.17222150181 0.095595974523 -0.98030594463 -0.17280527937 
0.11551376555 -0.96852164311 -0.22050486796 0.16043305211 -0.93875165597 -0.30496977589 0.22323043604 -0.89112487891 -0.39505015203 
0.29228454077 -0.83533605954 -0.46560005891 0.34086802562 -0.79898243031 -0.49541504334 0.3859017175 -0.77007695121 -0.50799739531 
0.3859017175 -0.77007695121 -0.50799739531 
