# vtk DataFile Version 4.2
vtk output
ASCII
DATASET POLYDATA
POINTS 64 float
0 0 0 -0.891056 0.430161 -0.342377 -1.82586 0.600228 -0.572448 
-2.83024 0.502339 -0.684376 -3.77054 0.127413 -0.643236 -4.59141 -0.440646 -0.467584 
-5.29444 -1.11455 -0.184684 -5.9085 -1.83228 0.185117 -6.46765 -2.55505 0.625762 
-7.00192 -3.26176 1.12064 -7.53514 -3.94244 1.64935 -8.09054 -4.59707 2.18303 
-8.7392 -5.29266 2.66848 -8.89783 -5.87962 2.07695 -8.46681 -6.04055 1.17759 
-7.95274 -6.20122 0.314525 -7.40024 -6.4144 -0.508802 -6.8381 -6.72795 -1.29262 
-6.30204 -7.19629 -2.01437 -5.87204 -7.90001 -2.60111 -5.7296 -8.86272 -2.85636 
-6.0107 -9.78843 -2.58696 -6.53716 -10.3562 -1.93829 -7.09619 -10.5696 -1.12147 
-7.58051 -10.5199 -0.232652 -7.92888 -10.2963 0.692727 -8.09032 -9.9927 1.64633 
-7.99478 -9.74596 2.62403 -7.59397 -9.80445 3.54714 -7.05939 -10.3176 4.23292 
-6.61165 -11.1079 4.68133 -6.2957 -12.0188 4.99552 -6.09377 -12.9827 5.23873 
-5.9688 -13.9681 5.44518 -5.86942 -14.9594 5.63696 -5.72504 -15.9448 5.83039 
-5.44758 -16.8978 6.03751 -4.96855 -17.7623 6.26093 -4.29197 -18.4803 6.49315 
-3.47342 -19.0312 6.72631 -2.56568 -19.4191 6.95824 -1.60605 -19.6507 7.19041 
-0.623297 -19.7316 7.42751 0.358233 -19.6712 7.67577 1.31978 -19.4893 7.94276 
2.25304 -19.2208 8.23626 3.16293 -18.9135 8.56341 4.06116 -18.6172 8.93035 
4.95706 -18.3765 9.34092 5.8516 -18.2322 9.79677 6.73426 -18.2231 10.296 
7.57936 -18.3883 10.8311 8.34161 -18.7623 11.3843 8.95874 -19.356 11.9256 
9.38038 -20.1306 12.4246 9.60116 -21.0124 12.8734 9.65313 -21.9362 13.2886 
9.57893 -22.8624 13.6955 9.41924 -23.7704 14.1189 9.21674 -24.6493 14.5833 
9.03315 -25.4909 15.1194 8.9798 -26.2698 15.769 9.19843 -26.8784 16.5047 
9.80622 -27.2265 17.2795 
LINES 1 65
64 0 1 2 3 4 5 6 7 8 9 10 11 12 13 14 15 16 17 18 19 20 21 22 23 24 25 26 27 28 29 30 31 32 33 34 35 36 37 38 39 40 41 42 43 44 45 46 47 48 49 50 51 52 53 54 55 56 57 58 59 60 61 62 63 

CELL_DATA 1
FIELD FieldData 2
Length 1 1 double
63.727266184 
Tortuosity 1 1 double
0.89073769701 
POINT_DATA 64
SCALARS MaximumInscribedSphereRadius float
LOOKUP_TABLE default
0.8742 0.905961 0.848908 0.691989 1.02776 1.36154 1.52168 1.35195 1.14962 
0.980639 0.93 0.943518 1.03373 1.116 1.12392 1.19247 1.24972 1.04608 
1.03052 1.2104 1.24 1.24784 1.42658 1.5552 1.54155 1.27605 1.17544 
1.20235 1.05998 1.44319 1.55 1.3841 1.09075 1.36355 1.83386 1.6351 
1.55 1.45049 1.06404 1.10696 1.24 1.26047 1.48639 1.71488 1.84408 
2.03855 2.08948 1.89739 1.53458 1.34477 1.5178 1.581 1.65217 1.84413 
2.05906 1.85945 1.39075 1.51175 1.63406 1.53425 1.34059 1.38256 1.54017 
1.55 
TEXTURE_COORDINATES TCoords 2 float
0 0 0.015873 0 0.031746 0 0.047619 0 0.0634921 
0 0.0793651 0 0.0952381 0 0.111111 0 0.126984 0 
0.142857 0 0.15873 0 0.174603 0 0.190476 0 0.206349 
0 0.222222 0 0.238095 0 0.253968 0 0.269841 0 
0.285714 0 0.301587 0 0.31746 0 0.333333 0 0.349206 
0 0.365079 0 0.380952 0 0.396825 0 0.412698 0 
0.428571 0 0.444444 0 0.460317 0 0.47619 0 0.492063 
0 0.507937 0 0.52381 0 0.539683 0 0.555556 0 
0.571429 0 0.587302 0 0.603175 0 0.619048 0 0.634921 
0 0.650794 0 0.666667 0 0.68254 0 0.698413 0 
0.714286 0 0.730159 0 0.746032 0 0.761905 0 0.777778 
0 0.793651 0 0.809524 0 0.825397 0 0.84127 0 
0.857143 0 0.873016 0 0.888889 0 0.904762 0 0.920635 
0 0.936508 0 0.952381 0 0.968254 0 0.984127 0 
1 0 
FIELD FieldData 7
Curvature 1 64 double
0 0.27678908304 0.30770663858 0.32209240777 0.2614464872 0.18776763218 0.12872917136 0.087408111184 0.060075455153 
0.04151673334 0.033656276734 0.090243651479 2.0292904481 1.0859678859 0.088092403961 0.073938864402 0.10558292253 0.16531940969 
0.28995005582 0.53442877856 0.7533386811 0.61877858382 0.39996494781 0.28109068211 0.22046924824 0.2018272017 0.26186214354 
0.44684441252 0.55936244408 0.37979936883 0.22020336777 0.14107970082 0.085626739382 0.029231511798 0.044144397963 0.13442950805 
0.21743074448 0.24322210879 0.2159167094 0.18226819234 0.1612124938 0.14915989583 0.13847738619 0.12151861768 0.092402072197 
0.054863471495 0.041696074401 0.068788376198 0.10380181001 0.13920705517 0.17833447655 0.22210532115 0.26115039772 0.2674450291 
0.22999962826 0.17365211599 0.12341479835 0.08660318671 0.064228877095 0.080780303349 0.17982151311 0.34129139794 0.48006847195 
0 
Torsion 1 64 double
0 0 0.02244004731 0.033836909287 0.06981052884 0.13684841051 0.23299956796 0.33660574885 0.43863865045 
0.686443326 1.7831181157 4.0293909325 0.11520544484 0.17498770572 3.8780721703 0.76698825483 0.32047924068 0.15749061025 
0.077450463868 0.014398983304 -0.023754466342 -0.072865796876 -0.15655488816 -0.24787741725 -0.3794126803 -0.57816093729 -0.5909087827 
-0.34843727015 -0.24644893693 -0.2893493611 -0.30173178086 -0.20239940129 -0.085503056577 0.44043636151 0.27508736382 0.022152009793 
0.010153091542 0.015007042809 0.027190042789 0.04261515355 0.058717338556 0.074530617336 0.090601833633 0.12301224932 0.22251424774 
0.65047298414 1.068726183 0.33980739496 0.12081571737 0.050739359331 0.020641923571 0.00091038199336 -0.019860458888 -0.048404775469 
-0.093123692762 -0.1587757459 -0.25180366308 -0.42576666564 -0.86954477109 -0.879245271 -0.28727752488 -0.1138419826 0 
0 
Abscissas 1 64 double
0 1.0470155162 2.0246180847 3.0399518892 4.0530771363 5.0666677117 6.0807865252 7.0951582794 8.1096641992 
9.1244415352 10.137946432 11.148795581 12.216632055 13.064916344 14.075133304 15.092461984 16.10664952 17.120889734 
18.134603557 19.146727962 20.152828353 21.157094368 22.167168917 23.179717131 24.193145188 25.206899396 26.220587758 
27.23346349 28.241530108 29.251192899 30.264157314 31.278202978 32.292552242 33.307085156 34.321697152 35.336184894 
36.350117509 37.363468383 38.376950483 39.390794898 40.404816988 41.418937492 42.433118889 43.447361552 44.461723468 
45.476218491 46.490789622 47.505335145 48.519793787 49.534100418 50.548193571 51.5620105 52.575411311 53.588486199 
54.60175496 55.615560868 56.629722993 57.64411675 58.658618101 59.673084086 60.687662976 61.7032752 62.682819195 
63.727297273 
ParallelTransportNormals 3 64 double
-0.35867186089 0 0.9334637091 -0.2451226742 -0.036743199019 0.96879554702 -0.10658482738 -0.042265831617 0.99340488928 
0.045778221762 -0.005196499477 0.9989381116 0.16860789641 0.060566378914 0.98382065998 0.25756687959 0.1330641801 0.95705445326 
0.32201267841 0.20115639998 0.92511833713 0.36895986261 0.25879911957 0.89268787126 0.40177816272 0.30170415759 0.86460910778 
0.42127788661 0.32704718519 0.84591079962 0.42307029141 0.32924564491 0.84416161595 0.37222637744 0.27215603053 0.88734357438 
-0.18615979324 -0.67201402828 0.71675775348 -0.097554644006 -0.98672804306 0.12981086424 -0.095877176985 -0.98729902642 0.12668148785 
-0.12345928652 -0.97762962107 0.17028836891 -0.17978357217 -0.95101302381 0.25149969326 -0.26988641856 -0.88685811038 0.37502534998 
-0.40843827958 -0.71872101284 0.5626884373 -0.55579405105 -0.28890984423 0.77950245331 -0.50659949703 0.37917776669 0.774326269 
-0.26744137875 0.82215683632 0.5025268604 -0.05562956291 0.97467481855 0.21659720639 0.083229509494 0.99647617523 -0.010396198856 
0.15879320832 0.97167450376 -0.17502392905 0.18446149676 0.94513200175 -0.26962836549 0.18404450551 0.94861935212 -0.25738870366 
0.24015791098 0.96978852511 -0.042829830205 0.43675424031 0.84969803354 0.29539631917 0.60732832686 0.62346868381 0.49238105538 
0.69058126383 0.43804041213 0.57551552141 0.72670370972 0.30728115063 0.61439402076 0.74025128653 0.226501562 0.63302849478 
0.74347515496 0.19809525037 0.63875109842 0.73924475367 0.23239998002 0.63206601194 0.71563777577 0.34086163223 0.60965229563 
0.64694595342 0.50588741383 0.57056012643 0.52874890951 0.66775288157 0.52395675379 0.39103565415 0.78462923249 0.48109051613 
0.25372385391 0.85930370222 0.44409610819 0.11887054177 0.90404267124 0.41058086033 -0.015037742287 0.92558986535 0.37822912034 
-0.14465514283 0.92694088339 0.34620151408 -0.26019680188 0.9125334028 0.31556364346 -0.34764444841 0.89175068522 0.28969648409 
-0.39467656753 0.87705847021 0.27385917342 -0.39988843437 0.87531834941 0.27185846913 -0.36847846735 0.88472039729 0.2854705549 
-0.30582629501 0.8981913705 0.3157887573 -0.2154429777 0.90599430752 0.36436058801 -0.099548744654 0.89552204432 0.43373991698 
0.035755399193 0.85012984726 0.52535777735 0.17131877372 0.75501962694 0.6329259362 0.27266301474 0.6215292717 0.73440877229 
0.32280774289 0.49224940437 0.80838461454 0.33647812262 0.40175893831 0.85168787034 0.33593061514 0.35615906402 0.8719526036 
0.33503373773 0.34912544935 0.87513645519 0.34062264416 0.37669841599 0.86143747172 0.35607571471 0.44556083585 0.82139249263 
0.37549238147 0.57831911973 0.7242599445 0.35193931828 0.76990650979 0.5323370008 0.20609933015 0.94283007314 0.26190555416 
0.20609933015 0.94283007314 0.26190555416 
FrenetTangent 3 64 double
-0.91045973247 0.29930193325 -0.28544951972 -0.91045973247 0.29930193325 -0.28544951972 -0.98414087762 0.036630523959 -0.17356537013 
-0.97108504316 -0.2361023856 -0.0353483021 -0.87643840049 -0.46927224157 0.10788555712 -0.75490435777 -0.61523945612 0.22715594257 
-0.65067153315 -0.68749791985 0.32244870313 -0.5788226852 -0.71069452085 0.39984696714 -0.53907003025 -0.7047518641 0.46122479609 
-0.52641834797 -0.68417273675 0.5047686492 -0.53783967198 -0.65971872929 0.52488063926 -0.57987556182 -0.65026656362 0.49081333422 
-0.53139897571 -0.84423889273 -0.069827076527 0.16117185814 -0.44252388306 -0.88215432044 0.46658937738 -0.1587734018 -0.8701065221 
0.5253815206 -0.18415458958 -0.83069931079 0.55029488867 -0.26004521523 -0.79344314323 0.54341499481 -0.38689743633 -0.74499027992 
0.48187837703 -0.58463271669 -0.65268508205 0.29313066308 -0.85333216459 -0.43115963544 -0.073227499433 -0.99728726689 0.0074726589174 
-0.41839171393 -0.77376290049 0.47564624201 -0.54712743484 -0.39373884357 0.73866182595 -0.52007971508 -0.081599736803 0.85021089908 
-0.41328894811 0.13564700877 0.90043996712 -0.25275226062 0.26137443496 0.93155767374 -0.032797978302 0.27390092376 0.9611985105 
0.25150166343 0.095386526644 0.96314501703 0.48046146954 -0.29362191469 0.82640362264 0.4942386732 -0.655810048 0.57064990568 
0.37906615952 -0.84440961305 0.37852510101 0.25595716821 -0.92660212385 0.27548944104 0.16127088986 -0.96165588928 0.22183248341 
0.1105794702 -0.97429214906 0.19628293112 0.12016270825 -0.97442407821 0.18989112501 0.20843919217 -0.95780012148 0.19791925238 
0.37539572827 -0.90190485162 0.21364850998 0.57441519147 -0.78660814371 0.22648358894 0.74182889125 -0.62958166165 0.23090436856 
0.85487881394 -0.46490416475 0.23031789134 0.92377984926 -0.30646359173 0.22958845147 0.96036181208 -0.15450766322 0.23201847321 
0.97075317478 -0.010131237524 0.23986586184 0.95964772167 0.1196672489 0.25447200207 0.93494619009 0.22223856375 0.27656037752 
0.90872187407 0.28388465227 0.3059968297 0.89129545591 0.29753862076 0.34214496844 0.88478586359 0.26482508481 0.38343402307 
0.88374142217 0.19003185481 0.42765522667 0.87832369988 0.075812251497 0.47201692846 0.85543563653 -0.077286737287 0.51210998037 
0.7978412565 -0.26764295471 0.54020049816 0.68651678907 -0.48162424113 0.54473185026 0.51722293362 -0.68130198477 0.51798459676 
0.31903652223 -0.82259558567 0.47069331832 0.13501349388 -0.89378678968 0.42768742215 -0.01098023436 -0.91377877763 0.40606376346 
-0.11539179309 -0.9049211007 0.40963707791 -0.17860358224 -0.88115753176 0.43779237618 -0.19043991333 -0.84864102824 0.49349877872 
-0.11718697789 -0.80147725364 0.58643109067 0.084000103864 -0.70516678944 0.70404813871 0.41955917752 -0.48569986664 0.76685444258 
0.41955917752 -0.48569986664 0.76685444258 
FrenetNormal 3 64 double
-0.38690748133 -0.86025206905 0.33206773193 -0.38690748133 -0.86025206905 0.33206773193 -0.10727626896 -0.9021482537 0.41787597497 
0.1917340095 -0.85952824007 0.47376077732 0.45407603568 -0.73093133309 0.50946475848 0.61810131529 -0.55164106331 0.56003830342 
0.67599873712 -0.33099510414 0.65838282819 0.61245780163 -0.05514924627 0.78857720095 0.40511825745 0.26314318922 0.87557687238 
0.0087666098819 0.58928850306 0.80787511826 -0.68475547632 0.7050341411 0.1844906435 -0.61917547401 -0.039787821236 -0.78424400646 
0.29674255466 -0.10830708567 -0.94879577963 0.72891312925 0.65598159743 -0.19589230166 0.88234922464 0.015407799019 0.47034290205 
0.52618858827 -0.69690592968 0.48728605023 0.088722141282 -0.92667418023 0.36524422698 -0.15281780029 -0.91822336026 0.36539373365 
-0.36137090152 -0.81117211414 0.45979438096 -0.56079714024 -0.51870476596 0.64533087115 -0.6274156318 0.051890753209 0.7769536503 
-0.4213193208 0.62927345312 0.65307346534 -0.079282720619 0.9028684262 0.42254331753 0.26579829565 0.93053631676 0.25189964118 
0.60821754076 0.77704133469 0.16210548202 0.91056021553 0.3897695781 0.13769448021 0.97221805316 -0.21427161332 0.09423233437 
0.70445454284 -0.70043898424 -0.11458196383 0.25089440214 -0.85689131068 -0.45032130823 -0.23597917975 -0.73299034388 -0.63799606778 
-0.59163504743 -0.53567964173 -0.60250750376 -0.79034150078 -0.36468568275 -0.49230545898 -0.87517895801 -0.24323939739 -0.41820615373 
-0.85084588017 -0.19487035742 -0.48794142272 0.9909351767 0.12930179037 0.036448903831 0.96769460041 0.23131760342 0.10029619475 
0.91427389078 0.39818930234 0.074488469781 0.80218129881 0.5960215871 0.035544782415 0.6463502046 0.76303074548 0.0039363005289 
0.47915942736 0.87770120354 -0.0068440102859 0.3145763083 0.9492312547 0.0013309251066 0.15116840097 0.98798293535 0.032215431184 
-0.0090268551795 0.99686245783 0.078636861944 -0.16143902466 0.97539805399 0.15012021044 -0.29941841013 0.91241097733 0.27902477331 
-0.41537112896 0.68726677969 0.59592885377 -0.27072953059 -0.25609688718 0.92796546576 -0.032251017199 -0.78605118025 0.61731953956 
-0.011459903393 -0.904779028 0.42572712047 -0.082095232739 -0.94876054451 0.30514554222 -0.20515887147 -0.95848154535 0.19804788483 
-0.36606796872 -0.9270243957 0.08136345657 -0.54981949957 -0.83409535136 -0.044536083585 -0.72531304351 -0.67021205897 -0.15727932133 
-0.86217078725 -0.45813622444 -0.21627004755 -0.95309527089 -0.23515544225 -0.19055530059 -0.99764655567 -0.017475216593 -0.066302087182 
-0.96090687742 0.20618106786 0.18478998942 -0.64843700025 0.44006260718 0.62118786085 0.22811616688 0.45068433963 0.86304498169 
0.70934296466 0.34572552278 0.61425273413 0.83294267718 0.43750228858 0.33881889561 0.77640891532 0.6296946233 -0.025959152435 
0.77640891532 0.6296946233 -0.025959152435 
FrenetBinormal 3 64 double
-0.14617002581 0.4127768531 0.89902702579 -0.14617002581 0.4127768531 0.89902702579 -0.14127467965 0.42986827407 0.89177056009 
-0.14223891362 0.4532845332 0.87994387515 -0.16022073513 0.49550272411 0.85370156755 -0.21924911551 0.56318074266 0.79671655967 
-0.34590788277 0.64636588032 0.68011681746 -0.53838623712 0.70133576743 0.46719203868 -0.73843259676 0.65884783677 0.14365524015 
-0.85018049229 0.42970539495 -0.30421440478 -0.49177070358 -0.26018850496 -0.83094134389 0.52949604832 -0.75866351271 -0.37955712257 
0.79344753126 -0.52490977053 0.30807588016 0.66536402229 -0.61144153994 0.42828724133 -0.061271516151 -0.98719481695 0.14728270332 
-0.66865523806 -0.69311558366 -0.26924145354 -0.83024328793 -0.27138800588 -0.48687229652 -0.82543737699 -0.084712658061 -0.55810115771 
-0.79825077594 0.014296426445 -0.60215555375 -0.77432614695 0.052626824376 -0.63059450957 -0.7752337443 0.05220590997 -0.62951345074 
-0.80463557195 0.072841574861 -0.58928405827 -0.83328615748 0.17262192225 -0.52520077276 -0.81170706292 0.35699250153 -0.46226399153 
-0.67768995011 0.61465978655 -0.40364548594 -0.3271030245 0.88304194733 -0.33651230382 0.23176787899 0.93758517463 -0.25926374713 
0.66369474185 0.70730943716 -0.24335704168 0.8403622881 0.42370208034 -0.33803516362 0.83668510244 0.18066083338 -0.51702969223 
0.71153131861 0.0044414894439 -0.70264034599 0.55663833877 -0.091721627102 -0.82567602783 0.45612881025 -0.12669864313 -0.88084843321 
0.5136472223 -0.11305021928 -0.85052112199 -0.060069951955 0.18378999652 0.98112834943 -0.14184591465 0.17061973404 0.97507366022 
-0.15225406342 0.16737060112 0.97406662095 -0.16294892345 0.16126343654 0.97336619645 -0.17866535511 0.14632502441 0.97296848773 
-0.19896848154 0.11620978832 0.97309137724 -0.21834041394 0.070993605695 0.97328689069 -0.23420782321 0.0041353917222 0.97217775848 
-0.23990996131 -0.078502217784 0.96761594254 -0.23024702303 -0.18514422974 0.95535748418 -0.19032665947 -0.34368041729 0.91959748448 
-0.041126400315 -0.66863583343 0.74245184454 0.36372782618 -0.91972014957 -0.14770550069 0.4648804658 -0.55856173919 -0.68694609397 
0.46783519465 -0.38113357849 -0.79741295826 0.47096480866 -0.30676690124 -0.82709504732 0.47554149052 -0.27448112406 -0.83577533065 
0.47900268444 -0.26266522149 -0.83759382144 0.4758079615 -0.26892942421 -0.83742686162 0.4543142369 -0.29435251239 -0.84080626342 
0.39354444616 -0.33681998498 -0.85538007144 0.27088883527 -0.38189932256 -0.88361312029 0.067681492397 -0.40583612746 -0.91143636818 
-0.25167977078 -0.37229983718 -0.8933365123 -0.74002041669 -0.17293439795 -0.64997190469 -0.95482755187 0.27693326127 0.10776045184 
-0.69505378979 0.48796319 0.52800772202 -0.54694650478 0.55797091909 0.62411375113 -0.47027576247 0.60628402662 0.64129586487 
-0.47027576247 0.60628402662 0.64129586487 
