# vtk DataFile Version 4.2
vtk output
ASCII
DATASET POLYDATA
POINTS 64 float
0 0 0 -1.01696 0.115449 0.129632 -1.99161 -0.00575101 0.256125 
-2.96362 -0.305817 0.371247 -3.87492 -0.737155 0.455639 -4.75384 -1.24339 0.501786 
-5.61115 -1.78563 0.499042 -6.46282 -2.33302 0.431959 -7.31322 -2.86311 0.273502 
-8.14734 -3.36163 -0.0178818 -8.91848 -3.82386 -0.487479 -9.55002 -4.26423 -1.14764 
-9.97843 -4.70871 -1.95234 -10.1922 -5.17805 -2.82581 -10.2163 -5.68153 -3.70614 
-10.0834 -6.22091 -4.55499 -9.81912 -6.79599 -5.34786 -9.43919 -7.40804 -6.06218 
-8.94969 -8.06056 -6.66531 -8.35124 -8.7578 -7.09476 -7.65597 -9.48971 -7.20695 
-6.99949 -10.1448 -6.81161 -6.56691 -10.5958 -6.01304 -6.35733 -10.8814 -5.06213 
-6.29913 -11.0846 -4.06991 -6.34793 -11.2584 -3.07153 -6.47691 -11.4405 -2.08181 
-6.66694 -11.6644 -1.11067 -6.89885 -11.9648 -0.169763 -7.14772 -12.3773 0.72303 
-7.37917 -12.9295 1.54189 -7.55313 -13.623 2.26143 -7.63747 -14.4287 2.87198 
-7.61773 -15.302 3.38788 -7.49358 -16.202 3.8393 -7.26711 -17.0986 4.2566 
-6.93709 -17.9677 4.66285 -6.49967 -18.7853 5.07453 -5.95181 -19.5244 5.50195 
-5.29743 -20.1578 5.94895 -4.55125 -20.6646 6.41311 -3.73684 -21.0378 6.88916 
-2.87937 -21.2841 7.37224 -1.99975 -21.4183 7.85962 -1.11268 -21.4579 8.35042 
-0.227282 -21.4191 8.84432 0.651653 -21.317 9.34073 1.52265 -21.1662 9.83877 
2.38707 -20.9832 10.3375 3.24813 -20.7867 10.8369 4.1098 -20.5983 11.3383 
4.97498 -20.4438 11.8453 5.84293 -20.3526 12.3627 6.70621 -20.357 12.8956 
7.54743 -20.4895 13.4469 8.33743 -20.7767 14.0148 9.03878 -21.2291 14.5912 
9.61772 -21.8325 15.1655 10.0579 -22.5506 15.7306 10.3603 -23.342 16.2901 
10.5359 -24.1654 16.8508 10.5867 -24.9969 17.4465 10.5254 -25.7669 18.0661 
10.3145 -26.4455 18.8142 
LINES 1 65
64 0 1 2 3 4 5 6 7 8 9 10 11 12 13 14 15 16 17 18 19 20 21 22 23 24 25 26 27 28 29 30 31 32 33 34 35 36 37 38 39 40 41 42 43 44 45 46 47 48 49 50 51 52 53 54 55 56 57 58 59 60 61 62 63 

CELL_DATA 1
FIELD FieldData 2
Length 1 1 double
63.907929847 
Tortuosity 1 1 double
0.87662190713 
POINT_DATA 64
SCALARS MaximumInscribedSphereRadius float
LOOKUP_TABLE default
0.62 0.959827 1.20597 1.07057 1.06547 1.25412 1.51527 1.65796 1.44835 
1.39501 1.49031 1.37683 1.41186 1.54644 1.55 1.52257 1.36635 1.34314 
1.63609 1.78971 1.69584 1.60988 1.5708 1.57362 1.72254 1.86 1.86 
1.86 1.85549 1.79301 1.68494 1.83273 2.05196 1.98857 1.94144 2.06754 
2.0898 1.94263 1.94463 2.08632 1.94303 1.69743 1.82831 2.0197 1.85505 
1.61491 1.55 1.64622 1.9348 2.18273 2.23466 2.2419 2.19745 2.17637 
2.18752 2.18514 2.17374 2.17 2.22676 2.37178 2.38993 2.24363 2.18293 
2.1948 
TEXTURE_COORDINATES TCoords 2 float
0 0 0.015873 0 0.031746 0 0.047619 0 0.0634921 
0 0.0793651 0 0.0952381 0 0.111111 0 0.126984 0 
0.142857 0 0.15873 0 0.174603 0 0.190476 0 0.206349 
0 0.222222 0 0.238095 0 0.253968 0 0.269841 0 
0.285714 0 0.301587 0 0.31746 0 0.333333 0 0.349206 
0 0.365079 0 0.380952 0 0.396825 0 0.412698 0 
0.428571 0 0.444444 0 0.460317 0 0.47619 0 0.492063 
0 0.507937 0 0.52381 0 0.539683 0 0.555556 0 
0.571429 0 0.587302 0 0.603175 0 0.619048 0 0.634921 
0 0.650794 0 0.666667 0 0.68254 0 0.698413 0 
0.714286 0 0.730159 0 0.746032 0 0.761905 0 0.777778 
0 0.793651 0 0.809524 0 0.825397 0 0.84127 0 
0.857143 0 0.873016 0 0.888889 0 0.904762 0 0.920635 
0 0.936508 0 0.952381 0 0.968254 0 0.984127 0 
1 0 
FIELD FieldData 7
Curvature 1 64 double
0 0.23499131371 0.17500492414 0.14302455725 0.087826771425 0.062631186164 0.06301359096 0.090541496399 0.13430043978 
0.1887393879 0.23381257257 0.24612384801 0.22319882729 0.18911534152 0.16051084597 0.14378731561 0.14122394671 0.15768916246 
0.206148397 0.33271377298 0.53740472743 0.52603863537 0.31545850004 0.17348762146 0.10830156257 0.078887114981 0.074215582189 
0.089859601953 0.12010545281 0.15547237327 0.17834013231 0.17659147855 0.15256627312 0.12249430437 0.10514216275 0.1049375976 
0.11624112774 0.13313881861 0.1478704063 0.15378848513 0.14703567973 0.13095302405 0.11144778512 0.092455337266 0.076352751946 
0.061923511445 0.047986661307 0.031942331936 0.013530472841 0.0081288644627 0.033558619028 0.062437853114 0.094415803674 0.12809298804 
0.16021136957 0.18397152744 0.19067999043 0.17658851956 0.15254974286 0.12782258754 0.12527460077 0.12430058378 0.21111707996 
0 
Torsion 1 64 double
0 0 -0.086343489825 -0.12714916638 -0.32462578368 -0.55662451136 -0.45931930461 -0.076170487892 0.10426333119 
0.18291759301 0.20989492204 0.20885209655 0.19651864187 0.17189074341 0.14533502558 0.1294040035 0.1236066938 0.12223217422 
0.1231304997 0.10098162278 0.069372939229 0.074883086044 0.12805537859 0.21969784254 0.33511311016 0.48223234724 0.51170108798 
0.38191814925 0.25433397296 0.18349649854 0.15841895056 0.16605336056 0.21016941279 0.28690940073 0.32007636181 0.25653988849 
0.16846158973 0.10214244785 0.063566304422 0.046022341211 0.042340040976 0.045538971085 0.05117157304 0.053303973869 0.046253815914 
0.032773387866 0.018047716036 0.01600432665 0.14894199406 0.43496682842 -0.01740959847 -0.04168802245 -0.046372687649 -0.047052629095 
-0.047601560665 -0.052866897488 -0.065453281296 -0.095654936993 -0.14169237017 -0.25200459207 -0.29145987966 -0.42242668674 0 
0 
Abscissas 1 64 double
0 1.0316694535 2.0219426238 3.0457008043 4.0574588257 5.0727933042 6.0871957769 7.1018267671 8.1163625517 
9.1308478729 10.145167326 11.159348401 12.173571751 13.187919828 14.202342884 15.216814335 16.231307644 17.245806797 
18.260278119 19.274540604 20.290254264 21.298443053 22.312435049 23.327185618 24.34167452 25.356242954 26.370817653 
27.385388697 28.399942489 29.414439665 30.428824299 31.443188763 32.457589009 33.472098006 34.486645848 35.501193431 
36.515727008 37.530238892 38.544721322 39.559179221 40.57363705 41.588119701 42.602635539 43.617181303 44.63174597 
45.646323976 46.660912155 47.675508346 48.690111833 49.704717756 50.719321333 51.733914119 52.74848786 53.76302552 
54.777507702 55.791919745 56.806251565 57.820654153 58.834899019 59.850206678 60.861758944 61.885896539 62.876126823 
63.907863928 
ParallelTransportNormals 3 64 double
0.12644701508 0 0.99197336274 0.12870158629 1.2000276088e-05 0.99168336758 0.11829283194 -0.0022245531763 0.99297626219 
0.09711358377 -0.010460018782 0.99521833778 0.067364067601 -0.026037635302 0.9973886524 0.028223283555 -0.049674548819 0.99836660875 
-0.024807617152 -0.083486749615 0.99620005258 -0.10144857814 -0.13200376424 0.98604421413 -0.21399224791 -0.20072547492 0.95598985431 
-0.36443946607 -0.29076788781 0.88466824911 -0.52054093913 -0.39121759203 0.75893736657 -0.63239862421 -0.484597237 0.60434882145 
-0.68463174977 -0.55892688095 0.467846245 -0.69791883965 -0.61326085589 0.36989243829 -0.69387684729 -0.6520124183 0.30563822923 
-0.68403477862 -0.67962770171 0.2649577489 -0.6735979833 -0.6988609959 0.24053911387 -0.66561249116 -0.71047575289 0.22843864858 
-0.66504231958 -0.71118312675 0.22789750635 -0.68604150013 -0.68798499839 0.23669326583 -0.75256147529 -0.61973504303 0.22266500028 
-0.82721134084 -0.54392372655 0.1409552315 -0.86430627426 -0.50137980047 0.039911902575 -0.87625708706 -0.47956420644 -0.046815481107 
-0.87662088387 -0.46498362845 -0.12379842983 -0.87011462401 -0.4519571655 -0.19655854508 -0.85837586043 -0.43701685314 -0.26871388557 
-0.84245558378 -0.41723458772 -0.34085757754 -0.82429477565 -0.39030407952 -0.41012296735 -0.80774905228 -0.35707291088 -0.46908464572 
-0.79769488518 -0.32618118972 -0.50723633706 -0.79511703347 -0.31121894871 -0.52051096919 -0.79550942704 -0.32141618369 -0.51366953224 
-0.79260757183 -0.35718098732 -0.49416088411 -0.78142614857 -0.41447672391 -0.46645709306 -0.7577951646 -0.48945541097 -0.43148567669 
-0.71704097658 -0.5790242339 -0.38805047927 -0.65418345693 -0.678337008 -0.33451892064 -0.56724816837 -0.77758094914 -0.27128837613 
-0.46108689945 -0.8640049579 -0.20222340094 -0.34724327711 -0.92820443522 -0.1336361962 -0.23813252987 -0.96863102947 -0.071041023084 
-0.14160073103 -0.98977594585 -0.017111691579 -0.060058479603 -0.99780103894 0.028036863614 0.0072281994093 -0.99783175914 0.065418144164 
0.061384638411 -0.99350455624 0.095815567087 0.1026881068 -0.98753514944 0.11928738967 0.13005280467 -0.98227287721 0.13500467654 
0.14149458876 -0.97975617665 0.14162314663 0.13447144161 -0.98132530818 0.13754297843 0.10556724017 -0.98706416839 0.1206643497 
0.051616984407 -0.9947131093 0.088777908946 -0.029477391197 -0.99878158697 0.039578086706 -0.13708491263 -0.99013842857 -0.028872460976 
-0.2644804889 -0.95735549514 -0.11627780067 -0.39646983409 -0.89189797182 -0.21755385199 -0.51178937588 -0.79680554803 -0.32120484642 
-0.59437446867 -0.68971588112 -0.41353475588 -0.64320255808 -0.59047229436 -0.48747609057 -0.66659096837 -0.51142269598 -0.54231292343 
-0.67407384417 -0.45689883799 -0.58040322574 -0.67386466431 -0.42996097553 -0.60086601977 -0.67589888996 -0.44092456261 -0.59054739068 
-0.67589888996 -0.44092456261 -0.59054739068 
FrenetTangent 3 64 double
-0.99182787399 -0.0028640205201 0.12755103203 -0.99182787399 -0.0028640205201 0.12755103203 -0.97026299141 -0.20996929608 0.12042683337 
-0.92765851966 -0.36026634946 0.098274250651 -0.88402195303 -0.46297944692 0.064460982631 -0.85582810495 -0.51681770156 0.021394348182 
-0.84269252424 -0.53729301505 -0.034431461982 -0.83968429085 -0.53155450095 -0.11126591671 -0.83212778401 -0.50811808141 -0.22221468544 
-0.79482028896 -0.47570084271 -0.37678829136 -0.69626274028 -0.44803265199 -0.5607895677 -0.52654568825 -0.43956238128 -0.72769124713 
-0.3185625609 -0.45331395552 -0.83248084214 -0.11778098554 -0.48168987757 -0.86839075381 0.053801673706 -0.51569530287 -0.85508112744 
0.1962723403 -0.55072735037 -0.81128081081 0.31831152419 -0.58657461487 -0.74472007812 0.42986779576 -0.62523455729 -0.65137963319 
0.53916354336 -0.66891086868 -0.51172348321 0.64608877773 -0.71372298593 -0.27049730249 0.69060651239 -0.70861551746 0.14466061476 
0.55612746008 -0.56482393314 0.60966890416 0.32045449311 -0.36758249841 0.87303609588 0.13246714445 -0.24180292957 0.96124076011 
0.0046396138138 -0.18608021667 0.98252360122 -0.087683817476 -0.17553508538 0.98056054477 -0.15732599263 -0.20022671079 0.96703557139 
-0.20815677761 -0.25865421284 0.94327554517 -0.23738713753 -0.35199769687 0.90539768518 -0.23747075159 -0.47694866882 0.84624323303 
-0.20063915571 -0.61650179832 0.76136027074 -0.12782326426 -0.74190038961 0.65821351021 -0.031934428474 -0.82999860432 0.55685052672 
0.071053473682 -0.87566302944 0.47766689518 0.1730454801 -0.88669593713 0.4287488506 0.27464296373 -0.87142080001 0.40644437722 
0.37887630742 -0.83270403874 0.40380283251 0.48670284093 -0.76897033541 0.41449362828 0.59419701862 -0.67834727732 0.43217458789 
0.692376928 -0.56366595783 0.45043853915 0.77130056089 -0.43492770925 0.4646862732 0.82579417899 -0.30599016471 0.47374464963 
0.85746367858 -0.18782309013 0.47903917035 0.87163100455 -0.085747383126 0.48260416305 0.87415809808 -0.00039414469315 0.48564129171 
0.86991762537 0.069471635766 0.4882796503 0.8626375058 0.12466787762 0.49021878164 0.85532696926 0.16451815628 0.49127339834 
0.85033424062 0.18702214527 0.49188860162 0.84898092685 0.18968267984 0.49320570437 0.85112349531 0.16900698072 0.49701653513 
0.85452565723 0.12114363675 0.5050842706 0.85417908736 0.042826435804 0.51821229541 0.84183864553 -0.067613759746 0.53547742659 
0.80662246803 -0.20753696113 0.5534334683 0.73827825884 -0.36613133505 0.56647423421 0.63399574041 -0.52282980262 0.56982312926 
0.50434171322 -0.65398365747 0.56386595222 0.36696989966 -0.7459670873 0.55575731881 0.23632941988 -0.79837840729 0.55384142502 
0.11144187327 -0.8145981359 0.56921927749 -0.0052227176294 -0.79659204166 0.60449470005 -0.13537239782 -0.7204257177 0.6801919576 
-0.13537239782 -0.7204257177 0.6801919576 
FrenetNormal 3 64 double
0.0040705194708 -0.99994940068 0.009199291072 0.0040705194708 -0.99994940068 0.009199291072 0.20029941768 -0.9758120673 -0.08758397445 
0.33613936402 -0.92022433076 -0.20049316453 0.39480807191 -0.81334842811 -0.42730658881 0.32295674442 -0.56619622194 -0.75836717987 
0.09003355591 -0.077579966673 -0.99291253773 0.012794492144 0.18546172814 -0.98256819019 0.1180189234 0.22926406793 -0.96618296449 
0.32651388177 0.18812680379 -0.92628126976 0.58807506251 0.091907416624 -0.8035675128 0.8147344063 -0.016434626544 -0.57960137185 
0.94677457623 -0.10934651087 -0.30275607735 0.98359912829 -0.17688202288 -0.035291710125 0.95671985031 -0.21863640046 0.19205533685 
0.89246163053 -0.24240283805 0.38046432439 0.79974238661 -0.25564931177 0.54319015497 0.67949751447 -0.25104378531 0.68939114129 
0.51976103554 -0.21381328015 0.82712293353 0.28743903691 -0.10078499225 0.95248159321 -0.064890393307 0.13850219609 0.98823396953 
-0.45062744529 0.41145094077 0.79223924978 -0.70490366818 0.5231343177 0.47900031757 -0.85392304073 0.46455118819 0.23453706332 
-0.96278247588 0.26468934081 0.054675927067 -0.98899727627 -0.10239557767 -0.10676859648 -0.8002662066 -0.54791669048 -0.24364174288 
-0.45374079559 -0.8288128775 -0.32739655543 -0.13785325535 -0.91040044581 -0.39008653945 0.1094406677 -0.87875278818 -0.46456030558 
0.31577844777 -0.77638203814 -0.54544926692 0.49716273371 -0.62218513894 -0.60474363915 0.66685183025 -0.43269495294 -0.60669903098 
0.83137930725 -0.21260917695 -0.51342554023 0.94807430904 0.032017270439 -0.31643324563 0.96143874018 0.25519451401 -0.10252467454 
0.90075929264 0.43192458566 0.045539532553 0.80995163688 0.57498068465 0.11565274827 0.70365137277 0.6986946793 0.12923037841 
0.58383783832 0.80448215397 0.1092787376 0.45317142555 0.88792692142 0.078876113454 0.32052493066 0.94580196192 0.052176792218 
0.19372333993 0.98033485144 0.037614446987 0.07816143265 0.99629588825 0.035850990321 -0.02145285619 0.99899217149 0.039426086198 
-0.10149917872 0.99405518324 0.03939808857 -0.16119314898 0.98637751172 0.032805077392 -0.20035560395 0.9795021971 0.020810522188 
-0.24108094175 0.96930648378 0.048217424501 0.076201483922 -0.96754404841 0.24093951157 0.10060508947 -0.98172381205 0.16154557506 
0.043781486186 -0.98575961264 0.16236122555 -0.047710044597 -0.98594350042 0.16012234583 -0.16767326859 -0.97579495843 0.14039185913 
-0.31258439236 -0.94446056141 0.10141619982 -0.47177293995 -0.88053301862 0.045737252363 -0.63016297962 -0.7763817828 -0.011222586616 
-0.76932018421 -0.63686133993 -0.050537984351 -0.88465279108 -0.46457918273 -0.039441376739 -0.9631718533 -0.26771471556 0.025076125571 
-0.97641487544 0.016828664975 0.21524587583 -0.89417524518 0.27435180709 0.35381028371 -0.67481297835 0.56970847816 0.46910520586 
-0.67481297835 0.56970847816 0.46910520586 
FrenetBinormal 3 64 double
0.12751823107 0.0096433122655 0.99178934622 0.12751823107 0.0096433122655 0.99178934622 0.1359039027 -0.060858064452 0.98885106322 
0.16266529702 -0.1529553481 0.97475364202 0.25026340705 -0.35229868892 0.90180588869 0.40405098195 -0.64212249737 0.651476402 
0.53081377941 -0.83981995972 0.11375045866 0.54292411318 -0.82647066489 -0.14892832979 0.54188087694 -0.83021322713 -0.13080945187 
0.51151675757 -0.8592537541 0.0057959281642 0.41156520425 -0.88928047855 0.19948512007 0.24281162532 -0.89806169945 0.36678017749 
0.046214679528 -0.88461844786 0.46401983266 -0.13660305365 -0.85830508086 0.49462308266 -0.28599389491 -0.82840598682 0.48161292869 
-0.40618888028 -0.79871161858 0.44392605677 -0.50900873138 -0.76848789878 0.38773246034 -0.59455597381 -0.73895789205 0.31692968901 
-0.66268479645 -0.71192845918 0.23239348004 -0.70707007528 -0.69313915248 0.14003579524 -0.72031373852 -0.69186789931 0.049668178969 
-0.69832453322 -0.71531954251 -0.025705999394 -0.63278727582 -0.7689041504 -0.091469508877 -0.50325728625 -0.85189408779 -0.14494332352 
-0.27023763269 -0.94621018058 -0.17792671539 0.11914669812 -0.97913358612 -0.16462528619 0.57863851464 -0.8122170674 -0.074033133097 
0.8664814172 -0.49615240831 0.055161049504 0.96158401969 -0.21741354527 0.16759332744 0.96521001984 -0.017706060469 0.26087566584 
0.9273768927 0.13098268409 0.35045061756 0.8581902058 0.2499389221 0.44837496127 0.74450576141 0.35196220611 0.56730395442 
0.55114412939 0.43360304052 0.71290150224 0.26685270537 0.46124311319 0.84619408185 -0.014380241406 0.41892905047 0.90790509379 
-0.2123333238 0.34647530384 0.91371189301 -0.3272593628 0.27943127156 0.90267351458 -0.38962116044 0.22731193648 0.89248228827 
-0.4239664705 0.18732098636 0.88609439675 -0.44691285933 0.14974535031 0.88195534254 -0.46403420431 0.10875967968 0.87911523096 
-0.47668365557 0.06054804596 0.87698724429 -0.4838906719 0.0064721980794 0.87510452421 -0.48516738815 -0.044883025316 0.87326864109 
-0.48263986759 -0.083833075145 0.87179743847 -0.47945104266 -0.10731879924 0.87098184425 -0.47777966431 -0.1162291793 0.87075678019 
-0.46777308468 -0.15958589437 0.86932196773 0.52290029614 -0.1669700433 -0.83588054466 0.51523529741 -0.087492841507 -0.85257116476 
0.51756070427 -0.11662849296 -0.84766072932 0.51778551386 -0.16149709095 -0.84012906821 0.51302375178 -0.20797254291 -0.83279892621 
0.50164847425 -0.2547992498 -0.82669592389 0.48205342615 -0.30101403391 -0.82280924018 0.44826779972 -0.35196636888 -0.82169072948 
0.39215544172 -0.40830504462 -0.8243185671 0.2876152499 -0.47717846519 -0.83040844191 0.12825126237 -0.53937069798 -0.83224447361 
-0.18491808973 -0.57978157355 -0.79351031945 -0.44768666959 -0.53867634542 -0.71372574618 -0.72546657963 -0.39549846421 -0.56327542698 
-0.72546657963 -0.39549846421 -0.56327542698 
