# vtk DataFile Version 4.2
vtk output
ASCII
DATASET POLYDATA
POINTS 64 float
0 0 0 -0.910369 -0.501449 -0.0993952 -1.51181 -1.26499 -0.221373 
-2.02552 -2.14421 -0.280488 -2.48341 -3.04887 -0.253631 -2.91525 -3.96579 -0.207022 
-3.23499 -4.91302 -0.367563 -3.23078 -5.75887 -0.917695 -2.95135 -6.42666 -1.6269 
-2.52601 -6.99343 -2.35271 -2.01096 -7.49289 -3.06992 -1.4481 -7.94287 -3.78412 
-0.885201 -8.37959 -4.5065 -0.360113 -8.84953 -5.23633 0.114162 -9.38386 -5.95643 
0.536501 -10.0032 -6.6409 0.902259 -10.7362 -7.23397 1.18721 -11.6503 -7.54789 
1.22912 -12.4348 -6.96176 1.04941 -12.6221 -5.97222 0.761129 -12.5661 -5.00321 
0.350479 -12.3498 -4.10204 -0.177154 -11.9818 -3.31858 -0.74701 -11.4573 -2.66403 
-1.24731 -10.7949 -2.08155 -1.59813 -10.0523 -1.4866 -1.76471 -9.33467 -0.79113 
-1.73754 -8.86256 0.101181 -1.58276 -9.05839 1.06789 -1.46072 -9.80947 1.73926 
-1.38613 -10.7167 2.18622 -1.33205 -11.6659 2.5403 -1.30826 -12.635 2.83956 
-1.34863 -13.6273 3.04511 -1.44637 -14.6357 3.08761 -1.49854 -15.6449 2.99793 
-1.37195 -16.6475 2.92159 -1.00622 -17.5892 2.99542 -0.465295 -18.4067 3.25315 
0.157816 -19.0902 3.66866 0.801639 -19.6432 4.22358 1.42282 -20.0497 4.91402 
2.00543 -20.2756 5.71229 2.6327 -20.3092 6.50805 3.409 -20.2067 7.15132 
4.28817 -20.0455 7.63096 5.18815 -19.8438 8.05372 6.0435 -19.5713 8.52565 
6.79222 -19.1971 9.0979 7.43574 -18.7409 9.73585 8.0654 -18.2668 10.3747 
8.76994 -17.853 10.9756 9.55039 -17.5591 11.5529 10.3501 -17.4131 12.1592 
11.0877 -17.4455 12.8539 11.6115 -17.7315 13.6705 11.7155 -18.316 14.4856 
11.493 -19.0513 15.1471 11.1588 -19.8211 15.7171 10.8002 -20.5869 16.2776 
10.4588 -21.3306 16.8768 10.179 -22.0505 17.5457 10.0103 -22.7095 18.2427 
10.016 -23.3796 19.0486 
LINES 1 65
64 0 1 2 3 4 5 6 7 8 9 10 11 12 13 14 15 16 17 18 19 20 21 22 23 24 25 26 27 28 29 30 31 32 33 34 35 36 37 38 39 40 41 42 43 44 45 46 47 48 49 50 51 52 53 54 55 56 57 58 59 60 61 62 63 

CELL_DATA 1
FIELD FieldData 2
Length 1 1 double
63.821861483 
Tortuosity 1 1 double
1.0084320227 
POINT_DATA 64
SCALARS MaximumInscribedSphereRadius float
LOOKUP_TABLE default
1.55 1.11384 0.93 0.9976 1.1876 1.23923 1.05912 1.07735 1.23852 
1.24126 1.2612 1.26721 1.25326 1.28801 1.5033 1.81671 1.55484 1.23295 
1.0805 1.04915 1.23739 1.24 1.24 1.25613 1.44466 1.4398 1.26158 
1.26685 1.24978 1.24 1.32882 1.47027 1.35639 1.24032 1.29474 1.46625 
1.33851 1.24 1.24 1.24 1.25342 1.382 1.75308 1.51714 1.30869 
1.24375 1.24 1.24 1.24 1.27062 1.46331 1.67702 1.73109 1.39095 
1.39246 1.43025 1.32515 1.48999 1.33957 1.24374 1.28526 1.87395 1.94694 
1.55 
TEXTURE_COORDINATES TCoords 2 float
0 0 0.015873 0 0.031746 0 0.047619 0 0.0634921 
0 0.0793651 0 0.0952381 0 0.111111 0 0.126984 0 
0.142857 0 0.15873 0 0.174603 0 0.190476 0 0.206349 
0 0.222222 0 0.238095 0 0.253968 0 0.269841 0 
0.285714 0 0.301587 0 0.31746 0 0.333333 0 0.349206 
0 0.365079 0 0.380952 0 0.396825 0 0.412698 0 
0.428571 0 0.444444 0 0.460317 0 0.47619 0 0.492063 
0 0.507937 0 0.52381 0 0.539683 0 0.555556 0 
0.571429 0 0.587302 0 0.603175 0 0.619048 0 0.634921 
0 0.650794 0 0.666667 0 0.68254 0 0.698413 0 
0.714286 0 0.730159 0 0.746032 0 0.761905 0 0.777778 
0 0.793651 0 0.809524 0 0.825397 0 0.84127 0 
0.857143 0 0.873016 0 0.888889 0 0.904762 0 0.920635 
0 0.936508 0 0.952381 0 0.968254 0 0.984127 0 
1 0 
FIELD FieldData 7
Curvature 1 64 double
0 0.40743900546 0.1539520702 0.10220739727 0.033936217713 0.23437036336 0.5410944601 0.36824464718 0.17474068786 
0.109646676 0.066989926874 0.015136294777 0.049462024588 0.080396540788 0.10302386528 0.15325404846 0.34594689052 1.2274764781 
0.8739304096 0.26228011106 0.20961448326 0.22153166872 0.20359801428 0.16692230611 0.16656329868 0.20796773399 0.37364755154 
0.7673672368 0.6886986414 0.27477596551 0.10131688276 0.063914387227 0.11302689206 0.17005091569 0.1365589323 0.17583945089 
0.2872436462 0.28085439155 0.21936376886 0.18850800606 0.19730794375 0.21041308018 0.19393969142 0.25010639637 0.19846885541 
0.070886043026 0.094548026718 0.17469936456 0.14532435612 0.022014555698 0.10070511594 0.14054705953 0.1485515969 0.20503543093 
0.35546635572 0.54016909665 0.3973665672 0.14512350661 0.025740906664 0.04645258594 0.092571735808 0.12164872738 0.18975283161 
0 
Torsion 1 64 double
0 0 0.75575116408 0.29292426465 -3.8277027805 0.00063374531178 0.076689532048 0.17382273878 0.25887844351 
0.030507905726 -0.19878679348 -3.1677049041 -0.37977460075 -0.24328254851 -0.26652738808 -0.32968741428 -0.25155421315 -0.037855688999 
0.030344305264 0.39644545335 0.19142076993 -0.098844877231 -0.38254884942 -0.69396289445 -0.73883667849 -0.73867758444 -0.46001405885 
-0.16422182345 -0.095366659163 -0.065956538933 -0.10020265242 -0.30418443635 0.14806793892 0.32274627785 0.98384300534 0.72262558789 
0.22813785182 0.16300990661 0.18518717618 0.16725716802 0.020419390869 -0.31142065845 -0.78315443879 -0.37986299685 -0.098006063252 
1.0828845308 0.52316117705 0.025339477071 -0.06459809943 -2.3596085644 -0.28467020601 -0.39359739793 -0.54752525154 -0.33022519938 
-0.062397809199 0.026496192492 0.060032737599 0.042917359095 -2.0361457821 -0.57841635782 -0.23399577628 -0.23901091516 0 
0 
Abscissas 1 64 double
0 1.0440798282 2.0236780561 3.0436858717 4.0579762766 5.0725768231 6.0851170931 7.0941401883 8.1075533796 
9.1219119757 10.136379279 11.150955244 12.165559106 13.180058085 14.194445406 15.209573184 16.220916391 17.228511219 
18.208682111 19.231712263 20.244249414 21.25792182 22.27165059 23.28566745 24.299785073 25.313930939 26.327031003 
27.336905668 28.335324388 29.350089658 30.36423317 31.378741344 32.393269669 33.407462618 34.421485605 35.435929588 
36.449420643 37.462304681 38.475867108 39.489827716 40.503837579 41.517672207 42.531431539 43.545252728 44.558636197 
45.573016541 46.587592558 47.601800057 48.615721229 49.630222056 50.644806776 51.659059008 52.673308883 53.687443206 
54.701193459 55.712663444 56.720980824 57.734756682 58.749316564 59.763749513 60.777984483 61.799775745 62.773679243 
63.821789623 
ParallelTransportNormals 3 64 double
-0.10853621248 0 0.99409249599 -0.15272560374 -0.0374630206 0.98755830818 -0.1235110512 0.0054445175116 0.99232826094 
-0.086556833764 0.073306889074 0.99354618138 -0.07943573202 0.087886044511 0.99295821043 -0.16008363613 -0.11218073564 0.98070827059 
-0.23364897423 -0.53094125841 0.81456094736 -0.19248122957 -0.75115201714 0.63144407781 -0.15296663615 -0.82037978819 0.55097932026 
-0.12354143751 -0.85374315067 0.50582620128 -0.099093098707 -0.87527769801 0.4733598094 -0.090635286373 -0.88193945284 0.46256680208 
-0.10611648488 -0.86903829672 0.48323051483 -0.13824001374 -0.83675707168 0.52983705192 -0.18066742233 -0.7821673977 0.59629979414 
-0.24007970417 -0.68018603835 0.69261005543 -0.35068063223 -0.4001145557 0.84671803837 -0.52093595055 0.49287131723 0.69692438619 
-0.46867131304 0.87961167427 0.081427899523 -0.4077683959 0.89652018857 -0.17313719069 -0.33710958234 0.86899299684 -0.3622268639 
-0.23825081502 0.80742570447 -0.53972241098 -0.12716535365 0.71709359115 -0.68527786653 -0.05406219242 0.63601530955 -0.76978036177 
-0.040189887519 0.61311466602 -0.78897096224 -0.066173907295 0.68645877896 -0.72415147503 -0.088986497408 0.88151657358 -0.46369163653 
-0.023573351331 0.97907910143 0.20210989644 0.06701747647 0.670962603 0.73845639223 0.093666504529 0.44617460059 0.89003079257 
0.10014185026 0.3527526929 0.93034248934 0.10245368759 0.29580684518 0.94973762284 0.10162488257 0.19781798991 0.97495662781 
0.090260481566 0.033194826702 0.99536483208 0.080929313402 -0.092376681589 0.99242984383 0.079939220708 -0.065642321362 0.99463601716 
0.039659052447 0.09340942962 0.99483759379 -0.051043237877 0.26941130881 0.96167153153 -0.15628668871 0.4051256443 0.90080390944 
-0.26522096999 0.51144265196 0.81736420942 -0.38431984018 0.60177988109 0.70011373017 -0.50218127134 0.66370403972 0.55435630995 
-0.56388519093 0.67693934319 0.47306090209 -0.51945961138 0.6791234302 0.51860686334 -0.43939666836 0.69187693648 0.57291960397 
-0.42753344971 0.69429625567 0.57893683485 -0.51025743299 0.6719473718 0.53677190837 -0.6490343069 0.61599720279 0.44643243008 
-0.74980897079 0.55589727461 0.35883802392 -0.76260084078 0.54654996963 0.34601024312 -0.69551244685 0.59119757951 0.40834771734 
-0.59877344422 0.63729671024 0.48510129417 -0.5279445725 0.65701232069 0.53815363868 -0.50016578577 0.65906563546 0.56166420119 
-0.50531183195 0.66036599884 0.55549680473 -0.51002322123 0.66690890524 0.5432391977 -0.51107189096 0.65514501068 0.55640860637 
-0.51550746505 0.64315199901 0.56622218223 -0.51226151172 0.65034646661 0.56092567867 -0.50294728792 0.67043212895 0.54549499177 
-0.49608008527 0.68660769482 0.53148322872 -0.49568855277 0.68781733939 0.53028310014 -0.49863145344 0.66474281465 0.55631255963 
-0.49863145344 0.66474281465 0.55631255963 
FrenetTangent 3 64 double
-0.76214437577 -0.63771573654 -0.1116001337 -0.76214437577 -0.63771573654 -0.1116001337 -0.55932473355 -0.82395732275 -0.090830461501 
-0.47825086007 -0.87807971883 -0.015878357364 -0.43859565521 -0.89795450896 0.036215342943 -0.37332908045 -0.92597118477 -0.056592955963 
-0.16144435562 -0.91744944077 -0.36362376665 0.14257966451 -0.76087414714 -0.6330415243 0.34890848894 -0.61119026121 -0.71042897671 
0.46422813333 -0.52634964933 -0.71235404602 0.53154762237 -0.46819543853 -0.70586837051 0.55480137807 -0.43698732366 -0.70798129202 
0.53636029262 -0.44696901393 -0.71591643163 0.49297451106 -0.49539489374 -0.71523424883 0.44239157499 -0.5692233362 -0.6930183893 
0.39006906588 -0.66934181557 -0.63231926886 0.32703514614 -0.82780437634 -0.4558376111 0.18666567648 -0.97004616768 0.15545532411 
-0.074230762158 -0.52349386755 0.84878970575 -0.23191261447 -0.065065610816 0.97055808973 -0.34686399246 0.135136354 0.92812905167 
-0.46567579191 0.28999180076 0.83609258597 -0.54407794537 0.44245502689 0.71289041131 -0.52953310672 0.58730025873 0.61210546067 
-0.42112103732 0.69517218298 0.5825742081 -0.25661832339 0.72424006419 0.64001825405 -0.070091884888 0.59817172723 0.79829675711 
0.096360343553 0.14631755151 0.98453332006 0.14476400684 -0.49518979988 0.85663903975 0.097835353086 -0.82510978633 0.55643695438 
0.063510314662 -0.91631676196 0.39538592752 0.03839739327 -0.94590642009 0.32215940871 -0.0081860770667 -0.96840686056 0.24924112936 
-0.06834615698 -0.99008120235 0.12275184551 -0.074076803279 -0.99697999219 -0.023313566711 0.036841411239 -0.9959356853 -0.082187719034 
0.24546503041 -0.96940463823 -0.0012514919756 0.45181962375 -0.87667472016 0.16522851637 0.57761337834 -0.74482102206 0.33407249251 
0.6275498315 -0.61247486298 0.48068258882 0.62690089272 -0.47550127485 0.61716594878 0.5970418312 -0.31365043588 0.73835252818 
0.59956195605 -0.12859674531 0.78992932466 0.69782179977 0.034255979585 0.71545178987 0.82048059202 0.13069469337 0.55653436124 
0.87744080093 0.17897483193 0.44504567226 0.86620738343 0.23400438124 0.44150506051 0.79397997537 0.32010243644 0.5168464268 
0.68820960418 0.41048207002 0.59822404741 0.62750508385 0.45851162018 0.6292888557 0.65847823741 0.43821186001 0.61186336432 
0.733904267 0.34975625634 0.58228437042 0.78121199966 0.21748202178 0.58515757006 0.76212603415 0.056317442544 0.6449746148 
0.63255798318 -0.15966963041 0.75787598395 0.3214481988 -0.44571654027 0.83546862372 -0.059727652637 -0.66522096125 0.74425377408 
-0.27520865494 -0.7440574804 0.6088010037 -0.34148082224 -0.75689737819 0.5572227624 -0.34513766396 -0.74426517071 0.57179484833 
-0.30544750682 -0.71965971563 0.62353164657 -0.2251471431 -0.69220657017 0.6856812876 -0.08097760271 -0.66028977491 0.74663246715 
-0.08097760271 -0.66028977491 0.74663246715 
FrenetNormal 3 64 double
0.64634409283 -0.75937701161 -0.074738663975 0.64634409283 -0.75937701161 -0.074738663975 0.72192680856 -0.53803168816 0.43513628397 
0.50335652567 -0.28888192948 0.81435829883 0.74987807375 -0.34346495838 0.565433194 0.4688210877 -0.13567330924 -0.87281128595 
0.62580772445 0.18972860131 -0.75654989913 0.75367048074 0.49804693102 -0.42887068093 0.81672853991 0.57006696464 -0.08932047871 
0.79716473016 0.59882766349 0.077031308033 0.69326259222 0.71928110503 0.044962986739 0.0018533859312 0.85160364943 -0.52418297305 
-0.74211080076 -0.65377606 -0.14781211983 -0.61451478783 -0.78020480581 0.11684192967 -0.49391884009 -0.79963787063 0.34150176465 
-0.35233508316 -0.7429541684 0.5691037628 -0.23241177578 -0.53800047076 0.81027171982 -0.25216755056 0.10562559577 0.96190163736 
-0.28992318369 0.82570300358 0.4838998837 -0.41581149988 0.90863796829 -0.038442673388 -0.57325761796 0.7526687948 -0.32382925869 
-0.52018528809 0.67463200365 -0.52371645546 -0.20303643773 0.75497348536 -0.62353126734 0.40823703829 0.80895500657 -0.4230062859 
0.87898004038 0.47122553876 0.073079273578 0.87045883806 -0.11461467093 0.47871169658 0.52368267841 -0.65905538479 0.53981705429 
0.18828990391 -0.97395633642 0.12631693013 -0.055966231041 -0.86847060816 -0.49257139965 -0.17076850161 -0.56474498994 -0.80740399751 
-0.19754170641 -0.39988938183 -0.89502276872 -0.46091759836 -0.30281750195 -0.83418015322 -0.55353621332 -0.20318972656 -0.80765809324 
-0.33053954878 -0.093618332799 -0.93913748432 0.32619492847 -0.0021315974794 -0.94530012426 0.99679271032 0.030776967051 0.073871990375 
0.82828375337 0.20906039204 0.51984591599 0.61859521213 0.44132772834 0.65005368988 0.36803425323 0.60290453303 0.70785373666 
0.10756471631 0.67966918974 0.7255891567 -0.1120554255 0.72888746077 0.6754011039 -0.18020623575 0.84443707201 0.50443210049 
0.22600473127 0.97403985403 -0.012970127076 0.59037107647 0.53810238163 -0.60158774834 0.50517550572 0.28994353985 -0.81285327834 
0.2832777987 0.55539080181 -0.78185340443 -0.4563716338 0.73031433678 0.50829706014 -0.59702078074 0.57097872863 0.56351528712 
-0.71014379168 0.54994384172 0.43961069833 -0.61384779221 0.78852987849 0.037570184119 0.72660898056 -0.58197947658 -0.36515651192 
0.52750625887 -0.8335338705 -0.16419023597 0.12753084229 -0.97318413191 0.19143805699 -0.29645833655 -0.85527700974 0.42498669543 
-0.6007825298 -0.71871043175 0.35002238096 -0.81302480455 -0.58222489371 0.0022000751049 -0.83413001598 -0.37629321555 -0.40327476039 
-0.75110786751 -0.22885843534 -0.61924210769 -0.92102949728 0.15130989386 -0.35890107435 0.35820000939 0.45866090969 0.81321763581 
0.66752368276 0.30514726998 0.67918868996 0.83171625526 0.2300221655 0.5053096814 0.94000461954 0.19848371478 0.2774806844 
0.94000461954 0.19848371478 0.2774806844 
FrenetBinormal 3 64 double
-0.037084553881 -0.12909373958 0.99093871771 -0.037084553881 -0.12909373958 0.99093871771 -0.40740339411 0.1778095409 0.89577131101 
-0.71965847658 0.38147508202 0.58014518776 -0.49529458482 0.2751536338 0.82399863595 0.80051994692 -0.35237780596 0.4847656098 
0.76308611052 -0.34969927292 0.54351633504 0.64160100197 -0.41595647214 0.64445974859 0.45958389706 -0.5490629476 0.69807773287 
0.38603190698 -0.60362362121 0.69758002459 0.48666631625 -0.51325210501 0.70691454458 0.83198076651 0.28950527325 0.47328078443 
-0.40198158652 0.6105698682 -0.68236005169 -0.61591209356 0.38192192952 -0.68904857069 -0.74855452292 0.19121733548 -0.63490318698 
-0.8507091824 0.00079848902672 -0.52563604271 -0.91598732506 -0.15904530164 -0.36833654768 -0.94950905824 -0.21875480815 -0.22489749274 
-0.95416683107 -0.2101635566 -0.21306557199 -0.87938463474 -0.41248455591 -0.23777963606 -0.74233488008 -0.64438175886 -0.18360575877 
-0.71592829452 -0.67880513783 -0.16331032412 -0.81409790217 -0.48399234041 -0.32092993021 -0.74359747812 0.025888287652 -0.66812617603 
-0.22372116694 0.54284632046 -0.80948546116 0.42005767144 0.67995573872 -0.60100894007 0.84902507619 0.45589097876 -0.2670577381 
0.97737484942 0.17320574144 -0.1214008849 0.98788216064 0.023363751053 -0.15343719181 0.98044192207 -0.016029249761 -0.19615478737 
0.97823499946 -0.021262033144 -0.20640787724 0.88661186982 -0.11645859755 -0.44761231814 0.8327848754 -0.14457554234 -0.53438493978 
0.94131419277 -0.10476077756 -0.32086254061 0.94239561536 -0.07762957857 0.32536771917 -0.071042262638 -0.084645667587 0.99387529795 
-0.50367940472 -0.12864058405 0.85425912778 -0.64280556245 -0.19149744445 0.74170731266 -0.7286381637 -0.28591566789 0.62236537279 
-0.771110265 -0.40363886673 0.49240697038 -0.77099860721 -0.49256634797 0.40365770217 -0.7817075952 -0.43422279476 0.44764249142 
-0.76775472796 0.1863041595 0.61306071302 -0.4055942897 0.84218308861 0.35527583287 -0.26759915272 0.94807786643 0.17186928941 
-0.38710635441 0.81210163576 0.43662295356 -0.20349373641 -0.64178105227 0.73939663253 -0.11472569929 -0.75598791104 0.64445348341 
-0.14853732139 -0.72736939799 0.66997792726 -0.47898669892 -0.40986305627 0.77626285327 0.19607600622 0.68503303174 -0.70162949283 
0.42792718275 0.42765856462 -0.79623267854 0.61110039752 -0.074928069532 -0.78799878714 0.57556612371 -0.51510152618 -0.6351331002 
0.48880543144 -0.67672810228 -0.55055274569 0.48545002078 -0.67996392468 -0.54953374642 0.54832446958 -0.64489106727 -0.53240566057 
0.60008096755 -0.62769601116 -0.49588360525 0.18733796517 -0.63577643469 -0.74879423869 -0.86750950784 0.48548895516 0.10829463622 
-0.67905371918 0.62367863305 0.38718343088 -0.50750057606 0.68406130397 0.52393062299 -0.3314120443 0.72430768884 0.60460270325 
-0.3314120443 0.72430768884 0.60460270325 
