# vtk DataFile Version 4.2
vtk output
ASCII
DATASET POLYDATA
POINTS 64 float
0 0 0 -0.600297 0.709924 0.47555 -1.27129 1.19492 1.00504 
-2.05746 1.55634 1.5355 -2.94792 1.74786 1.98068 -3.91353 1.7145 2.28379 
-4.86532 1.42327 2.47241 -5.71705 0.90901 2.66511 -6.43609 0.251429 2.94507 
-7.04136 -0.486078 3.28946 -7.56847 -1.29321 3.60487 -8.0319 -2.18424 3.73468 
-8.40489 -3.10089 3.52516 -8.68631 -3.9575 3.0613 -8.90737 -4.77708 2.5057 
-9.05256 -5.60244 1.93416 -9.04512 -6.42725 1.34496 -8.81057 -7.17452 0.702452 
-8.39458 -7.80142 0.0226657 -7.89394 -8.38656 -0.631373 -7.36213 -9.1042 -1.13202 
-7.24217 -9.86637 -0.582775 -7.60212 -9.91981 0.37077 -8.07824 -9.64107 1.21831 
-8.60497 -9.1127 1.90286 -9.11177 -8.40325 2.42011 -9.51433 -7.58326 2.85926 
-9.66962 -6.74536 3.40256 -9.31834 -6.37524 4.24328 -8.81629 -6.81575 5.00189 
-8.48913 -7.61273 5.5329 -8.3175 -8.55153 5.87404 -8.22626 -9.54651 6.04697 
-8.13545 -10.5564 6.06225 -7.98167 -11.5514 5.94062 -7.7404 -12.5159 5.73934 
-7.41733 -13.4576 5.54444 -7.01664 -14.3842 5.44974 -6.5302 -15.2684 5.54134 
-5.9536 -16.04 5.8547 -5.30205 -16.6424 6.34421 -4.60292 -17.0758 6.93715 
-3.88367 -17.3667 7.59031 -3.17203 -17.5301 8.29419 -2.4789 -17.5546 9.03406 
-1.76546 -17.433 9.74434 -0.979895 -17.2107 10.3457 -0.128402 -16.9645 10.8391 
0.750831 -16.7437 11.2948 1.62452 -16.5701 11.7802 2.47433 -16.4572 12.3226 
3.3026 -16.4186 12.907 4.12868 -16.4704 13.4934 4.9636 -16.6333 14.0457 
5.786 -16.9338 14.5573 6.53738 -17.4024 15.0506 7.12388 -18.0585 15.5519 
7.44522 -18.8721 16.0613 7.46284 -19.7575 16.5527 7.22879 -20.6337 17.0053 
6.84706 -21.4748 17.4256 6.44747 -22.3082 17.8457 6.22794 -23.1588 18.2991 
6.53102 -24.0101 18.8076 
LINES 1 65
64 0 1 2 3 4 5 6 7 8 9 10 11 12 13 14 15 16 17 18 19 20 21 22 23 24 25 26 27 28 29 30 31 32 33 34 35 36 37 38 39 40 41 42 43 44 45 46 47 48 49 50 51 52 53 54 55 56 57 58 59 60 61 62 63 

CELL_DATA 1
FIELD FieldData 2
Length 1 1 double
63.77350815 
Tortuosity 1 1 double
1.0446267428 
POINT_DATA 64
SCALARS MaximumInscribedSphereRadius float
LOOKUP_TABLE default
1.116 1.116 1.15742 1.22502 1.24 1.19788 1.15021 1.23703 1.42537 
1.66804 1.79473 1.74132 1.56041 1.55 1.40593 1.31696 1.47824 1.3943 
1.18589 1.01485 1.16307 1.5751 2.03483 2.18471 2.23284 2.55754 2.56195 
1.89741 2.07117 1.9253 1.87158 1.96206 2.2991 2.47843 2.46382 2.30411 
2.10879 1.90906 1.70344 1.6658 2.07348 2.17 2.17519 2.17716 2.01527 
1.87673 1.82309 1.66005 1.57005 1.55228 1.55 1.62847 1.80756 1.86 
1.80353 1.50441 1.45718 1.58454 1.78143 1.86 1.92011 2.25405 2.48624 
2.4986 
TEXTURE_COORDINATES TCoords 2 float
0 0 0.015873 0 0.031746 0 0.047619 0 0.0634921 
0 0.0793651 0 0.0952381 0 0.111111 0 0.126984 0 
0.142857 0 0.15873 0 0.174603 0 0.190476 0 0.206349 
0 0.222222 0 0.238095 0 0.253968 0 0.269841 0 
0.285714 0 0.301587 0 0.31746 0 0.333333 0 0.349206 
0 0.365079 0 0.380952 0 0.396825 0 0.412698 0 
0.428571 0 0.444444 0 0.460317 0 0.47619 0 0.492063 
0 0.507937 0 0.52381 0 0.539683 0 0.555556 0 
0.571429 0 0.587302 0 0.603175 0 0.619048 0 0.634921 
0 0.650794 0 0.666667 0 0.68254 0 0.698413 0 
0.714286 0 0.730159 0 0.746032 0 0.761905 0 0.777778 
0 0.793651 0 0.809524 0 0.825397 0 0.84127 0 
0.857143 0 0.873016 0 0.888889 0 0.904762 0 0.920635 
0 0.936508 0 0.952381 0 0.968254 0 0.984127 0 
1 0 
FIELD FieldData 7
Curvature 1 64 double
0 0.23089799013 0.16739977055 0.21316538857 0.2743531742 0.28082589843 0.24164748505 0.21055422238 0.14987311582 
0.10587114999 0.21008205793 0.35444107549 0.27510101535 0.11302468362 0.075652764412 0.15029024695 0.2429705405 0.21763755611 
0.095658804948 0.19981022777 1.7217892268 1.2668909893 0.3679937645 0.30205663344 0.24460262598 0.16745051833 0.26722051459 
0.87950800069 1.0066569107 0.47156599714 0.28188570281 0.19122942433 0.15494219286 0.14807318375 0.11920395616 0.082897540547 
0.12458263239 0.20602364906 0.26220484951 0.25290802618 0.20031947843 0.1526026612 0.1342265309 0.14138562067 0.14710314503 
0.16148490845 0.12565859689 0.051773062572 0.05449008894 0.084326353682 0.085700672884 0.088073407189 0.11366331462 0.14075240014 
0.17988833463 0.24708729098 0.30807430956 0.31236774889 0.25221015753 0.15176248577 0.018876062265 0.18280756174 0.54683928931 
0 
Torsion 1 64 double
0 0 -0.43416855761 -0.10600601994 0.10669520006 0.31502014779 0.46455206532 0.27490011069 -0.17736989215 
-1.1281731865 -0.33457144777 -0.075974553577 0.0044177123537 0.43203389119 0.5862288406 -0.20616445365 -0.13956224346 0.018788146131 
1.4584982299 0.58013968253 0.011386598865 0.00044739630676 0.025731553922 -0.056316119998 -0.25479913277 -1.0653359228 -0.95351746029 
-0.25423133666 -0.21522464787 -0.25137475651 0.031591070972 0.32288912776 0.46487028758 0.37969098112 0.48099548447 1.0390346008 
0.38161163474 0.017151674105 -0.083274103025 -0.1117482844 -0.082457645955 0.033031057438 0.045723782146 -0.26402352391 -0.55808789686 
-0.44186614034 -0.40338846838 -1.2700505473 -0.6582309078 0.028114115593 0.35955757708 0.44083947545 0.058607268653 -0.23537840339 
-0.30132097003 -0.18951590869 -0.1007489759 -0.058567305041 -0.040471813788 -0.046684439406 -2.3488335482 -0.046165334505 0 
0 
Abscissas 1 64 double
0 1.044268317 2.0270261563 3.041952965 4.0557481729 5.0683630692 6.0814270871 7.0948558329 8.108667396 
9.1230052926 10.137295475 11.149987391 12.161551489 13.175534382 14.190067857 15.204437326 16.218108018 17.231140035 
18.245126463 19.255468037 20.279418135 21.22650572 22.247128043 23.258420255 24.270953312 25.284715358 26.298268272 
27.308903287 28.292362213 29.303104163 30.315118272 31.328624867 32.342632006 33.356714671 34.370853049 35.385248059 
36.39967289 37.413710893 38.426964893 39.439923802 40.453372865 41.46732681 42.481520922 43.495712472 44.509832938 
45.523865632 46.537874227 47.552324511 48.56690625 49.581380004 50.595799871 51.61025083 52.624635011 53.638876321 
54.652935989 55.666603814 56.679404827 57.691693444 58.704420764 59.718035367 60.732852798 61.748037795 62.736622802 
63.773507758 
ParallelTransportNormals 3 64 double
-0.7636025694 -0.64568654624 0 -0.63441523606 -0.7662165223 -0.10212516442 -0.51320050304 -0.83688099341 -0.19040863045 
-0.33842726859 -0.89450748852 -0.29210158652 -0.091332502433 -0.91554602806 -0.3917063243 0.17516656662 -0.87044034503 -0.46005464857 
0.36212144614 -0.78694704348 -0.49958223448 0.45273163811 -0.71935142683 -0.52684683597 0.50132837845 -0.66815959365 -0.54975686841 
0.55742627197 -0.5916385183 -0.58244297145 0.6517105107 -0.42998412648 -0.62480961998 0.77047547396 -0.17328877345 -0.61346437959 
0.84067724578 0.01691337983 -0.54127230301 0.86542687289 0.099471388218 -0.49106188062 0.87842068705 0.15783104019 -0.45107256548 
0.88799528592 0.27257596345 -0.37036025209 0.8589715285 0.46106831003 -0.22267448599 0.78862289292 0.60969436591 -0.079666259742 
0.74811375132 0.66324657302 -0.02073158106 0.78202649464 0.62047461766 -0.058701026547 0.99044528119 0.13474793187 -0.029345183833 
0.93409473589 -0.078953056612 0.34818592623 0.86184959465 -0.059364975295 0.50367755152 0.79150526955 -0.002759447194 0.61115611241 
0.7470793161 0.050441887099 0.66281830956 0.76120507005 0.026683764755 0.64796204984 0.83227671754 -0.1846764742 0.52269500219 
0.75229152191 -0.65837495966 -0.024492418339 0.42093506041 -0.6352905713 -0.64747167114 0.29274915821 -0.44404925618 -0.84682831108 
0.24856665264 -0.29034090575 -0.92407617524 0.22898129834 -0.14627163249 -0.96237839468 0.21528352497 0.0045809889487 -0.97654084319 
0.19766625737 0.14898785078 -0.9688811439 0.17858904836 0.24361792259 -0.95328708142 0.17472037879 0.25668506163 -0.95057118007 
0.20221630603 0.18570872838 -0.96157206375 0.26940199624 0.048575537239 -0.9618019451 0.36610944309 -0.10205035594 -0.92495924264 
0.45894156532 -0.20591696615 -0.86427474953 0.52689266799 -0.25802661693 -0.80981873365 0.57885310676 -0.28455840787 -0.76416987202 
0.63436520573 -0.3021858593 -0.71152265755 0.68883207521 -0.30947089915 -0.65554415163 0.69694311577 -0.308910893 -0.64718185509 
0.63119278059 -0.32399383697 -0.70471530943 0.54335052478 -0.34913317904 -0.76346331315 0.49892278819 -0.36112012112 -0.78782505009 
0.50681971551 -0.35934313496 -0.78358553287 0.53603537749 -0.35448608629 -0.76616296485 0.55032860172 -0.35319594441 -0.7565653012 
0.52676628453 -0.35300813284 -0.77324157909 0.46985980413 -0.34565037173 -0.81225463064 0.40935593525 -0.32873399943 -0.85109439893 
0.37710856922 -0.31297559228 -0.87168538226 0.38401198564 -0.31877988395 -0.86655304539 0.41061220083 -0.36184816911 -0.83693698869 
0.42477237222 -0.43281031781 -0.7951375105 0.41620296331 -0.50259502193 -0.75774226309 0.3997710678 -0.54842930688 -0.73444427202 
0.39552143937 -0.55753691858 -0.72987353386 0.41325579966 -0.50910742931 -0.75500282746 0.40691631791 -0.35733248736 -0.84067389854 
0.40691631791 -0.35733248736 -0.84067389854 
FrenetTangent 3 64 double
-0.63138819401 0.59345891036 0.49915475574 -0.63138819401 0.59345891036 0.49915475574 -0.73195277687 0.42516622949 0.53242728117 
-0.83120699701 0.2741258166 0.4836837446 -0.92458024073 0.078785595909 0.37275220767 -0.95588669605 -0.16181871917 0.24514348132 
-0.8965190906 -0.40040428627 0.189551913 -0.77918229963 -0.58129317827 0.23446361093 -0.65483869354 -0.6898367565 0.30872566272 
-0.55900201246 -0.76251462823 0.32571182325 -0.49140665242 -0.84245737891 0.22087341775 -0.41959388793 -0.90683075507 -0.039986883691 
-0.32614066302 -0.88374669555 -0.33559506258 -0.2481146755 -0.82767023946 -0.50338959317 -0.18064878779 -0.8113484447 -0.55594938327 
-0.06811868513 -0.8160209791 -0.57399443064 0.12028892033 -0.78145275541 -0.61225988494 0.32285740101 -0.68198852139 -0.65624290877 
0.45333619737 -0.59943698348 -0.65966779138 0.51010912098 -0.64367302687 -0.57050304046 0.40289542414 -0.91475286714 0.030041126367 
-0.13899452742 -0.47237564725 0.87036875474 -0.41836584986 0.11273900083 0.90125464402 -0.50114731877 0.40333141165 0.7656207529 
-0.51390082127 0.61548041961 0.59756991137 -0.45015477113 0.75710933632 0.47344074063 -0.27805725419 0.82636621549 0.48969688715 
0.10608400466 0.65386947005 0.74913343276 0.47038557893 -0.038801588756 0.88160753391 0.42085434258 -0.62807122229 0.65452896197 
0.24870049151 -0.86547337382 0.43486078775 0.13025378217 -0.95820093638 0.25472518083 0.090039049472 -0.99157853931 0.093085820386 
0.12093146114 -0.99126722509 -0.05258203278 0.19510217337 -0.96773085683 -0.15947454557 0.27840114053 -0.94036927147 -0.19544420744 
0.35751604162 -0.92288562375 -0.14305385512 0.43994974693 -0.89802107815 -0.0015373266974 0.5291624278 -0.82422803481 0.20158192291 
0.61096462582 -0.68352058467 0.39940184819 0.6695965338 -0.51349505607 0.53662212898 0.7014145065 -0.35817866229 0.61621890262 
0.7070635586 -0.22448888746 0.67057129636 0.69435119302 -0.092875669134 0.71361791656 0.69543598721 0.048007815112 0.7169825921 
0.74160155367 0.17013771521 0.64890699908 0.80868746006 0.23143357264 0.54079857007 0.85325892481 0.23023350306 0.46791210852 
0.86423681742 0.19444944161 0.46398721757 0.85025256537 0.1413393102 0.50704415437 0.82787861702 0.07474267875 0.55590514249 
0.81624731658 -0.0065131822205 0.57766590399 0.82014383988 -0.1060116971 0.56225047975 0.81915829689 -0.22904325437 0.52585061782 
0.77931681694 -0.38084815041 0.49761429357 0.66528239348 -0.5592754179 0.49458097806 0.45359617578 -0.73432682652 0.50498972382 
0.16941457947 -0.84917136155 0.50020665629 -0.10766194698 -0.87629704575 0.46958747085 -0.30447387529 -0.84912341599 0.43160755748 
-0.38489653015 -0.82489901814 0.41400032723 -0.31025232845 -0.84388296895 0.43772711522 0.042699333572 -0.86977804337 0.49159223161 
0.042699333572 -0.86977804337 0.49159223161 
FrenetNormal 3 64 double
-0.46959531834 -0.80484706332 0.3629069325 -0.46959531834 -0.80484706332 0.3629069325 -0.55210712301 -0.82801746682 -0.097799792259 
-0.48533792857 -0.78213912054 -0.39077549976 -0.27586850631 -0.81324245904 -0.51238000551 0.050450672762 -0.91261565754 -0.40569371603 
0.41063181593 -0.91165369191 0.016402980631 0.62166725824 -0.66894000894 0.40749120785 0.74467467012 -0.51920317113 0.4193896789 
0.71942017919 -0.64133136457 -0.26669961866 0.29470871287 -0.39949344786 -0.86807359117 0.25548927756 -0.075714987379 -0.96384255443 
0.33356127788 0.22458720118 -0.91558585778 0.52202989133 0.32349918821 -0.78919773681 0.9755685551 -0.07595776281 -0.20614658028 
0.99306267226 -0.00018669763626 -0.11758611355 0.92415923966 0.31339554961 -0.21843289412 0.81996382309 0.54783895639 -0.16592711255 
0.88268659219 0.40478783252 0.23877016274 0.11823615231 -0.60451678707 0.78776878996 -0.33261503964 -0.11576094814 0.93593089397 
-0.49662227596 0.79364155899 0.35142480115 -0.3269938691 0.907036542 -0.26525406886 -0.16527850579 0.82384189035 -0.54218774906 
0.083146589387 0.72904760421 -0.67939402078 0.60962775555 0.64798295022 -0.45658744605 0.91654293671 0.07568393321 0.39270980051 
0.67925305707 -0.59786282354 0.4256469531 0.16504234725 -0.97753687453 -0.13108273173 -0.38334428177 -0.77708419984 -0.49918664645 
-0.54999142868 -0.49575174954 -0.67211578705 -0.4132066908 -0.2860014425 -0.86455965993 -0.0027567532166 -0.09371323372 -0.99559541488 
0.41579305454 0.098683101411 -0.90408947638 0.71564449057 0.25165089841 -0.65155566796 0.96029382711 0.2686872816 0.075119307209 
0.60955482626 0.11454355318 0.78442506857 0.41079827088 0.19973141496 0.88957975613 0.34160019897 0.42439943918 0.83856688468 
0.29217618768 0.66358280789 0.6886878338 0.23158884666 0.83083173753 0.50604864392 0.12815686809 0.91384834231 0.38530121259 
-0.055419014261 0.92776559398 0.36902538597 -0.12760191993 0.96003408923 0.24910298584 0.13535462836 0.97115399404 -0.19631363793 
0.43752914636 0.61058316597 -0.66011850718 0.5092246653 0.18480144193 -0.84055854485 0.51800412649 -0.47772712489 -0.7095410623 
-0.096010443389 -0.84158325323 0.53152574975 -0.27585905453 -0.70074736852 0.65791709777 -0.24433365021 -0.84405607939 0.47735772982 
-0.023823573333 -0.99946533099 0.022393961442 0.076861066118 -0.9533642548 -0.29187150287 -0.086112350974 -0.95552668716 -0.28205214612 
-0.385399188 -0.917466351 -0.098605074322 -0.65770149567 -0.75252240889 0.033745617533 -0.85869565751 -0.51176768712 0.027121987153 
-0.97184070291 -0.2282876572 -0.058398576519 -0.98734061132 0.038903231742 -0.15376948915 -0.9492289443 0.23284659442 -0.2115345711 
-0.90977669839 0.4146320557 -0.019662590215 0.94390560567 -0.21868451791 0.24742532047 0.99493952357 0.081811040567 0.05832922155 
0.99493952357 0.081811040567 0.05832922155 
FrenetBinormal 3 64 double
0.61711359202 -0.0052655837208 0.7868564597 0.61711359202 -0.0052655837208 0.7868564597 0.3992779197 -0.36554172394 0.8408069879 
0.27118632564 -0.55956539635 0.78316316562 0.26276975791 -0.57656702359 0.77364237322 0.2893706169 -0.37542957227 0.88052102891 
0.16623787754 0.092541631528 0.98173367799 -0.080029769341 0.46326828657 0.88259715084 -0.12901907271 0.50453277046 0.85369828535 
0.41225156863 0.085238034697 0.90707393392 0.81955248551 -0.36148381684 0.44459326766 0.87101446501 -0.41463866479 0.26345508041 
0.88451633214 -0.41055129663 0.2215366584 0.81604160455 -0.458595955 0.35180370906 0.1250280359 -0.57960686638 0.80524770766 
0.095845572105 -0.5780222546 0.81037269173 0.36257451013 -0.53955057274 0.75988479657 0.47267581643 -0.48452464803 0.73607977694 
0.12389782936 -0.69052307238 0.71261996492 -0.85194418654 -0.46930212937 -0.23226410482 -0.85266787943 -0.38707440493 -0.35090011746 
-0.85676533332 -0.38339838774 -0.34490410248 -0.84737537446 -0.40567798704 -0.34260815167 -0.84943179857 -0.39825659075 -0.34620414138 
-0.85381062922 -0.29945524519 -0.42583326027 -0.65246814612 0.083087598816 -0.75324748206 0.28745992514 0.55802403187 -0.7784445846 
0.72619657698 0.463696841 -0.50756651902 0.8668900915 0.2071620034 -0.45341534337 0.82214888187 -0.040825066912 -0.56780677167 
0.79728131416 -0.072014179335 -0.59929664113 0.90127364486 0.0073580165788 -0.43318780763 0.99593442047 0.08938585018 -0.011171387815 
0.90138322455 0.087469617354 0.42409591902 0.67066243749 0.012992846966 0.74164889326 -0.018126515393 -0.20859716675 0.97783365225 
-0.70754872183 -0.36764371327 0.60350054377 -0.79855431927 -0.39200191973 0.45677729158 -0.77672159045 -0.37487766359 0.50613269828 
-0.73576851071 -0.30406819532 0.60513406055 -0.7056961726 -0.21457271796 0.67524177943 -0.70113729557 -0.19128317526 0.68688953961 
-0.70497507542 -0.29808680285 0.64354828957 -0.70823313307 -0.26402397165 0.6547497015 -0.70572509681 0.23357048089 0.66887735661 
-0.5085227445 0.77346063591 0.37836921523 -0.29447382258 0.95513712551 0.031594925125 0.060174181965 0.84780264697 -0.52688683758 
0.49383875726 -0.50391174083 -0.70865805526 0.44829940567 -0.69926842121 -0.55682251928 0.50489411053 -0.53102058983 -0.68051382817 
0.57721118798 -0.03204107696 -0.81596606171 0.566971303 0.28259178641 -0.77374764868 0.56706644024 0.18576312269 -0.8024510668 
0.4940979303 -0.11493555202 -0.86177552423 0.35331017466 -0.3477370142 -0.86847618818 0.23852102023 -0.44593491259 -0.8626991229 
0.16378140441 -0.47622761816 -0.86393455034 0.11647927886 -0.48019790312 -0.86939205853 0.079120607729 -0.47410113676 -0.8769082287 
-0.15543815538 -0.38421591359 -0.91006434476 -0.11307387087 0.48993735961 0.8643932458 -0.090951148194 0.48661392182 0.86886982899 
-0.090951148194 0.48661392182 0.86886982899 
