# vtk DataFile Version 4.2
vtk output
ASCII
DATASET POLYDATA
POINTS 64 float
0 0 0 -0.805072 0.507433 0.415296 -1.63352 0.847707 0.816521 
-2.54441 1.094 1.22092 -3.47447 1.24804 1.58674 -4.42926 1.35746 1.91445 
-5.39862 1.43658 2.2028 -6.37853 1.47731 2.46266 -7.36092 1.44425 2.71381 
-8.32126 1.26891 2.98936 -9.18022 0.859531 3.337 -9.83782 0.223704 3.77511 
-10.3236 -0.510733 4.27904 -10.7464 -1.2541 4.82498 -11.2027 -1.96841 5.38263 
-11.768 -2.64059 5.88969 -12.501 -3.26549 6.2055 -13.3296 -3.83761 6.10432 
-13.999 -4.39906 5.58979 -14.3798 -5.04882 4.91164 -14.4699 -5.8296 4.27184 
-14.3214 -6.69812 3.76994 -14.0097 -7.58282 3.38341 -13.587 -8.4301 3.0191 
-13.0852 -9.18875 2.57028 -12.5473 -9.81059 1.97722 -12.0165 -10.3098 1.2666 
-11.5214 -10.7355 0.51355 -11.0034 -11.3738 -0.210581 -10.9035 -12.0073 0.231114 
-11.1641 -12.0566 1.25329 -11.4632 -11.7988 2.18312 -11.7755 -11.3607 3.04295 
-12.0843 -10.818 3.84271 -12.3771 -10.2737 4.64799 -12.6214 -9.90708 5.56049 
-12.7609 -9.89895 6.56255 -12.7928 -10.2168 7.52552 -12.7585 -10.7344 8.3972 
-12.6891 -11.3846 9.17268 -12.6045 -12.1383 9.84645 -12.5197 -12.9763 10.4118 
-12.4401 -13.8739 10.8778 -12.3574 -14.8007 11.2824 -12.253 -15.7316 11.6722 
-12.1032 -16.6492 12.0783 -11.8793 -17.5395 12.5102 -11.5483 -18.3861 12.9605 
-11.0839 -19.1666 13.4123 -10.4823 -19.8555 13.8508 -9.76416 -20.4329 14.2751 
-8.96068 -20.8831 14.7003 -8.10462 -21.1892 15.1502 -7.23049 -21.3416 15.6417 
-6.36534 -21.361 16.1712 -5.51295 -21.2989 16.7179 -4.65762 -21.2081 17.2561 
-3.78266 -21.1214 17.7624 -2.8829 -21.0485 18.2253 -1.9661 -20.9889 18.6568 
-1.05101 -20.9477 19.0891 -0.171084 -20.9714 19.6072 0.559309 -21.1197 20.256 
0.917575 -21.5323 21.136 
LINES 1 65
64 0 1 2 3 4 5 6 7 8 9 10 11 12 13 14 15 16 17 18 19 20 21 22 23 24 25 26 27 28 29 30 31 32 33 34 35 36 37 38 39 40 41 42 43 44 45 46 47 48 49 50 51 52 53 54 55 56 57 58 59 60 61 62 63 

CELL_DATA 1
FIELD FieldData 2
Length 1 1 double
63.769536597 
Tortuosity 1 1 double
1.1125327382 
POINT_DATA 64
SCALARS MaximumInscribedSphereRadius float
LOOKUP_TABLE default
1.55 1.23305 0.995856 1.11099 1.22148 1.24 1.18682 1.04977 1.00937 
1.33749 1.50641 1.40578 1.28273 1.17608 1.29188 1.51832 1.46564 1.42052 
1.49476 1.4163 1.26417 1.17691 1.15688 1.26368 1.40757 1.64534 1.80265 
1.67444 1.56026 1.39121 1.18546 1.0178 0.93 0.938976 1.02923 1.26499 
1.61287 1.831 1.86 1.86 1.84626 1.67839 1.39109 1.34978 1.50214 
1.55 1.55 1.55 1.55 1.55 1.55 1.55 1.47731 1.27818 
1.22236 1.42529 1.55 1.55076 1.55811 1.57101 1.47962 1.29487 1.48767 
1.81 
TEXTURE_COORDINATES TCoords 2 float
0 0 0.015873 0 0.031746 0 0.047619 0 0.0634921 
0 0.0793651 0 0.0952381 0 0.111111 0 0.126984 0 
0.142857 0 0.15873 0 0.174603 0 0.190476 0 0.206349 
0 0.222222 0 0.238095 0 0.253968 0 0.269841 0 
0.285714 0 0.301587 0 0.31746 0 0.333333 0 0.349206 
0 0.365079 0 0.380952 0 0.396825 0 0.412698 0 
0.428571 0 0.444444 0 0.460317 0 0.47619 0 0.492063 
0 0.507937 0 0.52381 0 0.539683 0 0.555556 0 
0.571429 0 0.587302 0 0.603175 0 0.619048 0 0.634921 
0 0.650794 0 0.666667 0 0.68254 0 0.698413 0 
0.714286 0 0.730159 0 0.746032 0 0.761905 0 0.777778 
0 0.793651 0 0.809524 0 0.825397 0 0.84127 0 
0.857143 0 0.873016 0 0.888889 0 0.904762 0 0.920635 
0 0.936508 0 0.952381 0 0.968254 0 0.984127 0 
1 0 
FIELD FieldData 7
Curvature 1 64 double
0 0.15746123195 0.11608583975 0.097184595563 0.061946249204 0.050280153554 0.047593392829 0.072321996722 0.14264186645 
0.26241126978 0.31546587386 0.20504407589 0.074160151904 0.044577961894 0.12424411622 0.25583279826 0.44012429236 0.45349389035 
0.34395694776 0.3207436246 0.28726909367 0.19682978486 0.11623740312 0.14240918128 0.19846826778 0.16589472015 0.088520841241 
0.17697896833 2.3134453569 1.3090052252 0.30697376734 0.19091067956 0.11767101397 0.016500436078 0.20949354473 0.3886184341 
0.34664388168 0.22577452306 0.16394593825 0.14252121817 0.13406439377 0.11306131935 0.066194116542 0.025828209164 0.04863901895 
0.080845279848 0.1141856281 0.14547140258 0.1619359362 0.15836143894 0.14969944267 0.1518827461 0.15672354935 0.1353309929 
0.082011100931 0.029224981546 0.036614850164 0.05041262758 0.037030823136 0.017875956699 0.10942477176 0.23302214352 0.53119710304 
0 
Torsion 1 64 double
0 0 -0.16715894792 -0.2051623915 -0.32625217128 0.019386634742 0.52834892436 0.47508323872 0.23508971356 
0.12070023635 0.10562402804 0.19367044777 0.78130131317 1.614897736 0.49617382432 0.37330194287 0.31243374461 0.42376842285 
0.60691821389 0.37530739775 0.11728788437 -0.17932204079 -0.91765898483 -0.56288798767 -0.19188231313 -0.14476922 -0.60239719429 
-0.84550774142 -0.061468084036 -0.076099849599 -0.19670912431 -0.034106844482 -0.10606898988 -9.348525444 -0.057689529289 -0.011433875477 
-0.01851854569 -0.054831064062 -0.092600329648 -0.097098164908 -0.062981304892 0.0072013274568 0.2350244115 1.7955307572 0.23442518511 
-0.084335302968 -0.10696741265 -0.05188443259 0.02264581476 0.11648110342 0.21068004089 0.21486459872 0.1364984452 0.053547368896 
-0.10475668469 -1.329400552 -0.49248948056 -0.086773638587 -0.28570927057 -3.296014144 -0.08668873261 0.010806883137 0 
0 
Abscissas 1 64 double
0 1.0383157862 2.019693214 3.046292787 4.0575167153 5.0728907456 6.0873137924 7.1019225954 8.1164408617 
9.1307990001 10.143845738 11.158069247 12.172622494 13.18723388 14.201816947 15.215979879 16.229646281 17.241682295 
18.255555593 19.269016228 20.282470446 21.296524215 22.311033665 23.325581729 24.339885053 25.353662486 26.371467506 
27.368169254 28.463641429 29.242327967 30.298341204 31.308565123 32.322816858 33.337486974 34.352600603 35.365871511 
36.377624995 37.392211706 38.40652899 39.420951364 40.435381862 41.449807756 42.464343565 43.478956674 44.493557001 
45.508120679 46.522640522 47.537087122 48.55145899 49.565822503 50.580222052 51.594648151 52.609032646 53.623378324 
54.637866912 55.652461543 56.667061136 57.681654966 58.696148866 59.711141249 60.724081198 61.74547456 62.733627021 
63.76940532 
ParallelTransportNormals 3 64 double
0.45844644576 0 0.88872203549 0.43916375243 0.009946988492 0.89835196664 0.41015069634 0.019776975676 0.91180331076 
0.36996834154 0.028499137889 0.92860714266 0.32796972776 0.034371936851 0.94406272442 0.28777756 0.038310007419 0.95693072858 
0.25768519153 0.040160191997 0.96539396157 0.24620844761 0.040205001114 0.96838265072 0.26836650327 0.042582074495 0.96237528379 
0.34641303891 0.067673357614 0.9356379231 0.45157224471 0.14013367296 0.88116120064 0.51992991002 0.22205321774 0.82484256507 
0.54883604316 0.26906723428 0.79144287296 0.54830020157 0.26817871857 0.79211556219 0.50414345354 0.2082501702 0.83813557666 
0.35326904299 0.05752489081 0.93375150345 0.0180441403 -0.19940693892 0.9797506222 -0.29160323707 -0.43370911077 0.85256317031 
-0.3891046544 -0.54617334475 0.74181685436 -0.39218523949 -0.55553051729 0.73319614176 -0.39381469989 -0.50947599122 0.76507790226 
-0.401102326 -0.48171063864 0.77914811473 -0.38489423724 -0.51993529067 0.76257702539 -0.32123862538 -0.63050129792 0.70659313532 
-0.21919921319 -0.76598186093 0.60433723504 -0.13415022217 -0.85521778744 0.50060588684 -0.093565436782 -0.89179417574 0.44266088279 
-0.18289836184 -0.79875877556 0.57317764062 -0.67611558606 0.34669843669 0.65012914739 -0.61672395572 0.77803380334 -0.11964515574 
-0.54133592542 0.74907967701 -0.38188355992 -0.49060531135 0.69136619227 -0.53039533997 -0.45955376826 0.64233577052 -0.61336375177 
-0.46240399946 0.64748519218 -0.60576023904 -0.51588366661 0.73818898807 -0.43467351015 -0.58534810092 0.80599054765 -0.088016122694 
-0.61304781764 0.75605130161 0.22925706669 -0.61280247927 0.66869194578 0.42109880438 -0.60514965321 0.58251508163 0.54265097152 
-0.59578481865 0.49712528575 0.63079862091 -0.58664801454 0.41124824971 0.69765248093 -0.57937685283 0.33451272392 0.74325211062 
-0.57485828541 0.28374460355 0.76748091289 -0.57258133085 0.26113765652 0.77714718291 -0.57137395426 0.2523565302 0.78092764457 
-0.56859797808 0.23892723729 0.787153171 -0.55883230242 0.2083611169 0.80267808163 -0.53572500115 0.16108916402 0.82888419238 
-0.4993272561 0.11091760412 0.85928433968 -0.46185134245 0.074959180941 0.88378416973 -0.44027318804 0.060386665907 0.89583088274 
-0.44649047057 0.063220009293 0.89255223383 -0.47929060499 0.071911628273 0.87470522674 -0.51925642722 0.075859728151 0.85124500847 
-0.54227838268 0.075287051323 0.83681898615 -0.53674593255 0.075782349599 0.84033376666 -0.50512252656 0.079025283934 0.85942203699 
-0.4612387831 0.082973391959 0.88338791094 -0.42878205411 0.085340540905 0.89936807935 -0.42879875043 0.085339622394 0.89936020619 
-0.503858913 0.084593907563 0.85963368163 -0.64930184323 0.10034415784 0.75388206397 -0.86702209318 0.21039702625 0.45166999157 
-0.86702209318 0.21039702625 0.45166999157 
FrenetTangent 3 64 double
-0.81133196828 0.42103663522 0.40554727105 -0.81133196828 0.42103663522 0.40554727105 -0.86767698291 0.29261171616 0.40188933414 
-0.90449349689 0.19669116742 0.37842317417 -0.93051447724 0.13006520902 0.34238260624 -0.94825642068 0.092915950994 0.30360564339 
-0.96097200879 0.059084890221 0.27026241704 -0.96771799088 0.0037825210754 0.25200710835 -0.96002646674 -0.1029836199 0.26027592511 
-0.9051227283 -0.29090449431 0.31004422573 -0.7573515113 -0.52196325484 0.39239399706 -0.56658680648 -0.67901606478 0.46681535375 
-0.4480795312 -0.72880080165 0.51775875196 -0.43333550906 -0.71853408996 0.54399365636 -0.50455503845 -0.68476964239 0.52584669822 
-0.64552009588 -0.64491315762 0.40913423829 -0.78897708678 -0.60477777956 0.10843889473 -0.75775672693 -0.57341157712 -0.31145450072 
-0.52559707283 -0.60617857071 -0.59690473063 -0.23529784857 -0.71480701085 -0.65854829716 0.029101730622 -0.8218726116 -0.5689274994 
0.22797638608 -0.86851914192 -0.44011506168 0.36256779315 -0.85506598395 -0.37068417618 0.45686245641 -0.79360698987 -0.40182663121 
0.51521819309 -0.68409496294 -0.51629864922 0.52789277345 -0.55375149365 -0.64396312241 0.5097573785 -0.45957698297 -0.7272801467 
0.48627400765 -0.5107050523 -0.70902604962 0.42853534678 -0.88203677518 -0.19587900294 -0.098998501027 -0.42063582178 0.90181195503 
-0.27418282206 0.10213881017 0.95623817302 -0.3033967891 0.34532810886 0.88808720607 -0.30666579877 0.48426630504 0.81941578802 
-0.29639965269 0.5355494599 0.79078064082 -0.26626255521 0.45158070739 0.85157449258 -0.19303040579 0.18847903946 0.96291999363 
-0.085843446124 -0.15511916351 0.98415900538 0.0011902496271 -0.41442684878 0.91008184814 0.051290952409 -0.57760611457 0.81470265411 
0.07610194125 -0.6937618872 0.71617242226 0.083685027712 -0.78631248989 0.61213518472 0.081161541903 -0.85683652132 0.50916007292 
0.080030258618 -0.89961245125 0.42929313443 0.092209465147 -0.91554230294 0.39150952231 0.12531097487 -0.91124069738 0.39234876197 
0.18432382429 -0.89172817404 0.41333472079 0.27394503614 -0.85747896616 0.43552719752 0.39311242085 -0.80416580978 0.44584747948 
0.52722414782 -0.72673769446 0.4403260399 0.65259719162 -0.62617164761 0.42664502014 0.75212206384 -0.50793343293 0.41990002238 
0.82040292929 -0.37388110376 0.43261062615 0.85552253311 -0.22671327911 0.46549144397 0.85927819601 -0.084876812607 0.50441739517 
0.84720288998 0.021062333411 0.5308518073 0.8416710533 0.075358998318 0.53470633006 0.85282633481 0.087486192965 0.51481395542 
0.87493108217 0.078681930441 0.47781246874 0.89523765981 0.065299479397 0.44077830078 0.90337041866 0.04970786557 0.42597067362 
0.88373501312 0.0086156867205 0.46790832064 0.80673740906 -0.086168025103 0.58459372583 0.55576997953 -0.28634521282 0.78046534129 
0.55576997953 -0.28634521282 0.78046534129 
FrenetNormal 3 64 double
-0.43725724465 -0.89752607619 0.057035467502 -0.43725724465 -0.89752607619 0.057035467502 -0.37001190949 -0.92002869969 -0.12898983909 
-0.32892387428 -0.8865243905 -0.32539758753 -0.32827350386 -0.71072711823 -0.62217639788 -0.298903659 -0.58373589316 -0.75492318131 
-0.21215580699 -0.78437075304 -0.58288286588 -0.034324373035 -0.99254926973 -0.11690930059 0.14990822355 -0.97442830928 0.16738277867 
0.37797246644 -0.88448233579 0.27354672782 0.63959796864 -0.71408694397 0.28459493137 0.82397705451 -0.47129301053 0.31455478356 
0.82640983282 -0.11676872425 0.55082833375 -0.73030680672 0.6336545243 0.2552134634 -0.85779124053 0.32840184107 -0.39540664947 
-0.64940581507 0.1815397722 -0.73845473691 -0.22491762787 0.12004299567 -0.96695487995 0.36270726887 0.026652445971 -0.93152191828 
0.83989617159 -0.25809973092 -0.47745046848 0.90515637991 -0.40796369224 0.11940499872 0.82493693983 -0.3016701209 0.47798973154 
0.81335739057 -0.078604025176 0.57642966824 0.93096410173 0.31394048227 0.18640604842 0.54332621072 0.60662699468 -0.58034499918 
0.17999595959 0.67533963153 -0.71520475154 -0.054349305001 0.73463894341 -0.67627788362 -0.27818730922 0.71189500743 -0.64483898717 
-0.13224978707 -0.84508968589 0.51800908932 -0.20687166018 -0.30681945374 0.92901342241 -0.39101883613 0.84980830388 0.35345454652 
-0.16023474388 0.97559198621 -0.15015026905 -0.061687082867 0.9229451318 -0.37995656002 0.02992211729 0.86537557229 -0.50022973301 
0.94986726868 0.079043602433 0.30249674512 0.22527895219 -0.82984524549 0.51049609425 0.27207787945 -0.93261077266 0.23708811491 
0.31215337903 -0.9422577553 -0.12128722329 0.28860318496 -0.87121497322 -0.39710536644 0.2094991403 -0.79140210559 -0.57427590711 
0.10411915473 -0.70879952704 -0.6976836189 0.0014906049078 -0.614190492 -0.78915639618 -0.044874922308 -0.51346873175 -0.85693412983 
0.045354394976 -0.42694211787 -0.90314085659 0.816400054 -0.15559185355 -0.55613139359 0.90741285772 0.26515965773 0.3260249401 
0.89199640321 0.32837746122 0.31066164815 0.91467261242 0.37223188907 0.15753549707 0.8961057759 0.44372288053 0.010219769874 
0.82927709117 0.55306307227 -0.080129546002 0.71905924828 0.6893336259 -0.088164333301 0.55735070766 0.83025550694 0.0059984881899 
0.33870690001 0.92733891348 0.15912314547 0.11287560131 0.95908110739 0.25965848353 -0.06579324528 0.95960519547 0.27354911387 
-0.15179289312 0.96715709256 0.2038776003 0.095144564979 0.95402610949 -0.2842212064 0.52188388913 -0.10878750392 -0.84605111267 
0.48035372137 -0.26589454297 -0.83579925484 0.43422222767 -0.34985291299 -0.83009276365 0.011076679799 -0.99563313283 0.092692890619 
-0.37822194616 -0.57567598115 0.72494504907 -0.52796996216 -0.54940058374 0.64761618081 -0.78451679015 -0.49125716476 0.37841749965 
-0.78451679015 -0.49125716476 0.37841749965 
FrenetBinormal 3 64 double
0.38800327222 -0.1310537842 0.91229291699 0.38800327222 -0.1310537842 0.91229291699 0.33200578332 -0.26062535434 0.90655754617 
0.27147854247 -0.41879241839 0.86655196687 0.16241709983 -0.69133928343 0.70403883477 0.10708110609 -0.8066095915 0.5813042264 
0.17754636543 -0.6174718597 0.76629354075 0.24968725946 -0.12178521948 0.96063761782 0.2363825452 0.19970939916 0.95091505836 
0.19465266845 0.3647815413 0.91051895411 0.13165533351 0.46651280481 0.87466146372 0.0064190621409 0.56286773047 0.82652205877 
-0.34098610227 0.67469582521 0.65460982387 -0.52808361521 -0.28668921397 -0.79933534261 0.098073446142 -0.65057110883 -0.75308620458 
0.40196503972 -0.74238152606 -0.53599792593 0.57177549546 -0.7872950632 -0.23073635658 0.54244647654 -0.81883381119 0.18778447685 
0.13535929221 -0.75228456671 0.6447835239 -0.35401532504 -0.56799345335 0.74300510536 -0.56447509651 -0.48323963875 0.66921395455 
-0.53523501622 -0.48938319071 0.68849660134 -0.043016702165 -0.41267849071 0.9098604435 0.70432472956 0.046814900983 0.70833257752 
0.83794490752 0.27555482898 0.47108159398 0.84757027601 0.39200115576 0.3577145805 0.81410026167 0.53103153872 0.23504524848 
-0.86374046061 -0.15812581178 -0.4784857828 -0.87952349188 -0.3575932746 -0.31395139303 -0.91504293155 -0.31763399078 -0.24860627771 
-0.94823446834 -0.19439120324 -0.25112437788 -0.95086544378 -0.17006110938 -0.25871630583 -0.95134681098 -0.12888469532 -0.27987136429 
0.099495817885 0.84079657761 -0.53212939902 0.9372052312 0.32776780388 0.1192250869 0.94271569943 0.30775444498 0.12874125851 
0.94614542789 0.29679684581 0.12930762389 0.95744805861 0.26312517446 0.1185679452 0.97646267129 0.20013466386 0.080416216702 
0.9916489783 0.12766234502 0.018292881311 0.99649114107 0.066953026594 -0.050226467087 0.9956902357 0.046701576572 -0.080124386313 
0.99576007982 0.091748926701 0.0066330903307 0.57007750908 0.37090897351 0.73310174396 -0.40112225721 0.31516780825 0.86009894048 
-0.4127555505 0.31143074122 0.85594611335 -0.29720048664 0.3552087321 0.88628360437 -0.20605111739 0.39550898306 0.89505060267 
-0.18529491091 0.40739852914 0.89425512828 -0.23889475286 0.36431884378 0.90011170258 -0.35167113865 0.22951997931 0.90755054368 
-0.46066980528 0.01598310943 0.88742767069 -0.50531207581 -0.16960105694 0.84610589616 -0.50725952997 -0.26824204649 0.8189835003 
-0.50912295254 -0.25330522383 0.82257539641 -0.5315424252 0.29009516333 0.79580616134 -0.01801246571 0.99020777872 -0.13843448287 
0.061285429169 0.96078574398 -0.27043455831 0.1000029472 0.93452603884 -0.34155598852 0.42871808201 -0.079017674651 -0.89997611815 
0.275609481 -0.81763251811 -0.50548637896 0.26537232689 -0.83110412707 -0.48871613241 0.27505115129 -0.8226012504 -0.49766861164 
0.27505115129 -0.8226012504 -0.49766861164 
