# vtk DataFile Version 4.2
vtk output
ASCII
DATASET POLYDATA
POINTS 64 float
0 0 0 -0.987381 0.327539 0.100295 -1.94829 0.321299 0.294944 
-2.85682 -0.0271527 0.577176 -3.63693 -0.596167 0.888043 -4.3591 -1.24347 1.18604 
-5.1001 -1.88911 1.4374 -5.90128 -2.48971 1.59833 -6.75991 -3.02855 1.62048 
-7.63085 -3.52621 1.47259 -8.44253 -4.04046 1.14943 -9.10024 -4.63854 0.663811 
-9.48888 -5.34967 0.0577034 -9.55272 -6.1245 -0.590971 -9.34485 -6.89333 -1.21776 
-8.94058 -7.62462 -1.79156 -8.37792 -8.31152 -2.28315 -7.6418 -8.94572 -2.599 
-6.86963 -9.26148 -2.17076 -6.67522 -9.06466 -1.19449 -6.71004 -8.78709 -0.219594 
-6.82793 -8.52532 0.7535 -6.98615 -8.32908 1.73611 -7.16404 -8.26682 2.73232 
-7.33934 -8.46335 3.70966 -7.47655 -9.04025 4.52681 -7.55846 -9.89558 5.06257 
-7.60477 -10.8499 5.40269 -7.62815 -11.8315 5.65826 -7.62319 -12.8188 5.89162 
-7.57124 -13.802 6.1366 -7.44215 -14.7699 6.41104 -7.1975 -15.7044 6.7201 
-6.80017 -16.5744 7.05645 -6.23168 -17.3379 7.40472 -5.50651 -17.9556 7.75122 
-4.66553 -18.4059 8.09448 -3.7568 -18.688 8.44497 -2.82206 -18.8143 8.81747 
-1.89268 -18.8047 9.2235 -0.988642 -18.6836 9.66732 -0.119142 -18.4786 10.148 
0.714846 -18.2189 10.664 1.51735 -17.9366 11.2168 2.29368 -17.6689 11.8126 
3.0453 -17.4598 12.4609 3.76381 -17.3597 13.1695 4.42661 -17.4184 13.9344 
5.0029 -17.6662 14.7305 5.4718 -18.1019 15.5165 5.83424 -18.7001 16.2504 
6.10699 -19.4277 16.902 6.30951 -20.2544 17.4533 6.45206 -21.1569 17.8935 
6.53025 -22.1172 18.2099 6.52668 -23.1165 18.3812 6.42201 -24.1248 18.3849 
6.21528 -25.1036 18.2202 5.93276 -26.0304 17.9206 5.61353 -26.9132 17.5361 
5.29577 -27.78 17.1138 5.01666 -28.6639 16.6974 4.81838 -29.5566 16.3416 
4.75207 -30.5689 16.0887 
LINES 1 65
64 0 1 2 3 4 5 6 7 8 9 10 11 12 13 14 15 16 17 18 19 20 21 22 23 24 25 26 27 28 29 30 31 32 33 34 35 36 37 38 39 40 41 42 43 44 45 46 47 48 49 50 51 52 53 54 55 56 57 58 59 60 61 62 63 

CELL_DATA 1
FIELD FieldData 2
Length 1 1 double
63.807268241 
Tortuosity 1 1 double
0.82988467844 
POINT_DATA 64
SCALARS MaximumInscribedSphereRadius float
LOOKUP_TABLE default
1.24 1.09004 0.977131 1.14728 1.25246 1.30886 1.71981 2.02102 1.84014 
2.01474 2.31431 2.22587 1.95191 1.60422 1.42268 1.41974 1.7924 1.69087 
1.68146 1.55923 1.43381 1.88506 2.08343 1.89001 1.86 2.09357 2.42048 
2.08244 1.87916 1.86579 1.86009 1.86 1.86 1.86 1.86 1.83333 
1.77767 1.80237 1.85355 1.86 1.92259 2.1004 2.06245 1.94538 2.18031 
2.36879 1.81726 1.56109 1.67514 2.13225 2.26169 1.91537 2.16915 2.39909 
2.27262 2.25813 2.44861 2.63842 2.69061 2.36151 2.25805 2.43796 2.73946 
3.1 
TEXTURE_COORDINATES TCoords 2 float
0 0 0.015873 0 0.031746 0 0.047619 0 0.0634921 
0 0.0793651 0 0.0952381 0 0.111111 0 0.126984 0 
0.142857 0 0.15873 0 0.174603 0 0.190476 0 0.206349 
0 0.222222 0 0.238095 0 0.253968 0 0.269841 0 
0.285714 0 0.301587 0 0.31746 0 0.333333 0 0.349206 
0 0.365079 0 0.380952 0 0.396825 0 0.412698 0 
0.428571 0 0.444444 0 0.460317 0 0.47619 0 0.492063 
0 0.507937 0 0.52381 0 0.539683 0 0.555556 0 
0.571429 0 0.587302 0 0.603175 0 0.619048 0 0.634921 
0 0.650794 0 0.666667 0 0.68254 0 0.698413 0 
0.714286 0 0.730159 0 0.746032 0 0.761905 0 0.777778 
0 0.793651 0 0.809524 0 0.825397 0 0.84127 0 
0.857143 0 0.873016 0 0.888889 0 0.904762 0 0.920635 
0 0.936508 0 0.952381 0 0.968254 0 0.984127 0 
1 0 
FIELD FieldData 7
Curvature 1 64 double
0 0.34316917434 0.36969432585 0.25396504662 0.09568409657 0.048923761505 0.11468339663 0.15895331771 0.17188324725 
0.18224825406 0.23603102938 0.31568693892 0.33477689294 0.27059558515 0.20347412057 0.18022697751 0.24720168137 1.0111568394 
1.2932450223 0.23959221931 0.082336488243 0.075442382445 0.13292291002 0.25706361538 0.42335593569 0.40684647773 0.21892498523 
0.089351296027 0.035427083869 0.047221827819 0.081743873788 0.12214147161 0.16448491493 0.19847508019 0.21066168686 0.20011964324 
0.17795149428 0.15605307966 0.13683984003 0.11746906665 0.095391610745 0.072160175752 0.051961464091 0.050955841427 0.080265156529 
0.12580597721 0.1739383123 0.20686314612 0.2133173781 0.19766528607 0.17413843064 0.1541044218 0.14393948222 0.14766044503 
0.16755823308 0.19243863923 0.19561433115 0.15979022729 0.099815116845 0.039891316418 0.041373882282 0.095686430845 0.1921430058 
0 
Torsion 1 64 double
0 0 -0.016588848393 -0.060303269918 -0.5034948089 -1.4044577665 -0.0033823786314 0.19789871058 0.37564215799 
0.49231152751 0.32368564057 0.13477316357 0.049405707842 0.027082622858 0.07327716506 0.2205430875 0.50718350413 0.10816804184 
0.07576863644 0.41681837526 1.0154609039 0.72787889603 0.22102557999 0.051836831717 0.0047368246109 -0.0051017146859 0.012139463712 
0.21559173068 1.2650402268 0.41621276227 0.0019431912078 -0.066514439629 -0.054874456006 -0.01741312575 0.032756671286 0.090919045251 
0.14322122854 0.16763912077 0.15653030758 0.13511725848 0.14723933199 0.25360145441 0.58556572154 0.71600050837 0.30237537343 
0.11239356038 0.050582436635 0.042330647293 0.063781794453 0.097727521589 0.12096435226 0.10552335964 0.04223657742 -0.02416799606 
-0.045344281478 -0.029478079931 -0.0033469631971 0.034400985137 0.14180462356 0.97990781464 0.87723406251 0.18705878086 0 
0 
Abscissas 1 64 double
0 1.0451135407 2.0255548447 3.0387253567 4.0531161866 5.0676749891 6.0821311467 7.096276589 8.1102255559 
9.1241690003 10.137921394 11.150897989 12.162882457 13.175407546 14.188907302 15.202544859 16.217475376 17.239163922 
18.176903377 19.191611001 20.205848385 21.220409584 22.234838502 23.248718632 24.26092455 25.270561323 26.283149232 
27.297323541 28.311887254 29.326469604 30.340984604 31.355373691 32.369526459 33.383382179 34.397025365 35.41067945 
36.424493896 37.438494971 38.452627724 39.466875746 40.481229869 41.495677723 42.510204283 43.524761936 44.539281182 
45.553670707 46.567780198 47.581542838 48.595136142 49.608794394 50.622635419 51.636666526 52.650802269 53.664961425 
54.679044324 55.692941515 56.706651959 57.720494236 58.734723647 59.749146836 60.764366509 61.780510543 62.761777746 
63.807223983 
ParallelTransportNormals 3 64 double
0.10105666061 0 0.99488067191 0.19860964964 -0.015560982331 0.9799551331 0.29575958842 0.0025711121618 0.95525894669 
0.34980744519 0.031930450819 0.93627730807 0.35399004363 0.035316876606 0.93458213509 0.31828807989 0.003768395553 0.94798654916 
0.23953576907 -0.059870309418 0.96903981414 0.11609698161 -0.14460894677 0.98265443742 -0.031765009161 -0.23322035704 0.97190495896 
-0.17074947242 -0.31680402704 0.93299508365 -0.28056251469 -0.39993869023 0.87254439395 -0.35141770316 -0.48860863323 0.79860328163 
-0.37797357477 -0.57579984097 0.72497622024 -0.37152970708 -0.64492308414 0.66786218062 -0.35292774009 -0.69051047453 0.6313772999 
-0.33652681278 -0.71456880621 0.61330345301 -0.34396410556 -0.70699932694 0.61793255764 -0.5642698146 -0.57037871789 0.59688164196 
-0.79985031486 -0.53724680524 0.26759174891 -0.81083082975 -0.56990052623 0.13329199427 -0.80517501612 -0.58987713602 0.061140476118 
-0.79554114516 -0.60585799435 -0.0070976786908 -0.77965913033 -0.61807069302 -0.10059949761 -0.75167461976 -0.60741475999 -0.25696804345 
-0.71275591205 -0.51102069934 -0.48045484146 -0.68623687487 -0.33779235903 -0.64418574476 -0.67770909936 -0.21746248397 -0.70243892597 
-0.67601990895 -0.17054633753 -0.71687588149 -0.67604007056 -0.17270104656 -0.71634082078 -0.67491073914 -0.21180166265 -0.70684902907 
-0.66820583295 -0.28405900871 -0.68761285938 -0.64804328594 -0.38668624419 -0.65613538854 -0.60347207903 -0.51195644809 -0.61132809938 
-0.52511830251 -0.64447645908 -0.5557885048 -0.41352912965 -0.76362229665 -0.49585748658 -0.2794885294 -0.85502753559 -0.43682270466 
-0.13718854453 -0.91458921375 -0.38040225202 0.0020417546397 -0.94543733686 -0.3257975956 0.12900732549 -0.95339016109 -0.27277153572 
0.23618486985 -0.94575201383 -0.22309154082 0.31894985225 -0.9305314887 -0.17995038283 0.37571123473 -0.91504552561 -0.14674043122 
0.40589209704 -0.90505001227 -0.12702787429 0.40803030453 -0.90430523691 -0.12547234387 0.38112136631 -0.91270209484 -0.14738178389 
0.32509826859 -0.92448564728 -0.19909144568 0.24558019711 -0.92686699533 -0.28391537429 0.15710285407 -0.90498272804 -0.39537950781 
0.076184872444 -0.85206289448 -0.51786551252 0.0119725325 -0.77220322421 -0.63526281095 -0.035091501185 -0.67397463697 -0.73792057517 
-0.068400583782 -0.56504203385 -0.82222190442 -0.091702797819 -0.44827391471 -0.88918001229 -0.10702723859 -0.31895877777 -0.94170614752 
-0.11279518384 -0.1674618376 -0.97940480877 -0.10338365568 0.0070876553204 -0.99461630033 -0.076121932705 0.18105255453 -0.98052303586 
-0.040830666329 0.31851880436 -0.94703676167 -0.012679973753 0.40317619298 -0.91503452158 -2.581095964e-05 0.43793320773 -0.89900751104 
-0.0036989314178 0.42715970513 -0.90416862599 -0.01803649506 0.3736402028 -0.92739834143 -0.036295075022 0.24448764927 -0.96897288759 
-0.036295075022 0.24448764927 -0.96897288759 
FrenetTangent 3 64 double
-0.97584702936 0.16093018145 0.14772965844 -0.97584702936 0.16093018145 0.14772965844 -0.95299895487 -0.1808140272 0.24310343394 
-0.83960880595 -0.45617333816 0.29489479228 -0.74129167099 -0.60018504809 0.30044062071 -0.72134594971 -0.63742362197 0.27083416881 
-0.76149687981 -0.61536781673 0.20358033345 -0.82104339504 -0.56363656071 0.090562524778 -0.85610158943 -0.51304620398 -0.062238743286 
-0.83332122568 -0.50115086169 -0.23328855236 -0.73009997588 -0.5526864546 -0.40186030921 -0.52312641189 -0.65454381787 -0.54581237405 
-0.22660035659 -0.74416290691 -0.62838988405 0.071742836545 -0.76891008667 -0.63531900965 0.30355732292 -0.74390283682 -0.59536671143 
0.47862692218 -0.70199919728 -0.52736457634 0.64266974049 -0.65371390863 -0.39954190059 0.84448090533 -0.53187618068 0.062926377268 
0.56554431333 -0.069591804574 0.82177649662 0.079226850955 0.23550650391 0.96863811235 -0.075336600264 0.26607330121 0.96100436786 
-0.13618180843 0.2258983398 0.96458512073 -0.16608369223 0.12773388539 0.97780379509 -0.17576945216 -0.066821409321 0.98216088241 
-0.15792095761 -0.39083799078 0.90681124613 -0.11053618602 -0.72249553992 0.68248219492 -0.063646783666 -0.89828697402 0.43477534341 
-0.034385927542 -0.9552107162 0.29392192099 -0.0090792103806 -0.97048342325 0.24099687372 0.02805487052 -0.97139492598 0.2358067472 
0.089307254493 -0.96248120938 0.25623063027 0.18459311478 -0.93961098175 0.28819539371 0.31763641347 -0.89282319777 0.31933344074 
0.47874900875 -0.80971226548 0.33936033024 0.64171845242 -0.68514286707 0.34463992735 0.77638646405 -0.52943845192 0.34193418091 
0.86632232763 -0.3626278934 0.34349182753 0.91177269785 -0.20199369024 0.35758788649 0.92122204005 -0.057672068299 0.38473872364 
0.90537776584 0.064542744662 0.41967289076 0.87519681196 0.16092286352 0.45621746166 0.84014745588 0.22918594625 0.49155473187 
0.80680951555 0.2672121953 0.52693078133 0.7783552501 0.271147122 0.56625289657 0.75370465367 0.23519462171 0.61368785629 
0.72621681767 0.15273918186 0.67028342965 0.68377229371 0.020494165019 0.72940759494 0.61449562743 -0.15200165607 0.77413863127 
0.51855060183 -0.33910536363 0.78492854815 0.41207121698 -0.51247411379 0.75337082159 0.31443424247 -0.65630267137 0.68585560485 
0.235043395 -0.76867425411 0.59489032059 0.17057882388 -0.85479657657 0.4901282256 0.10913288719 -0.92096110152 0.37405970436 
0.036926660653 -0.96973631428 0.24134602233 -0.053634233471 -0.99478843296 0.086714143349 -0.15432768168 -0.98479254028 -0.079791097739 
-0.24202967305 -0.94269080046 -0.22968607292 -0.29701109893 -0.89318092755 -0.33765698241 -0.31390651617 -0.86219818109 -0.39758897826 
-0.29389184089 -0.86202438037 -0.41296677045 -0.23927907279 -0.89047302071 -0.38704434462 -0.13115987526 -0.94432576272 -0.30173819942 
-0.13115987526 -0.94432576272 -0.30173819942 
FrenetNormal 3 64 double
-0.1099224468 -0.94612798256 0.30456345203 -0.1099224468 -0.94612798256 0.30456345203 0.23644169735 -0.94556910372 0.22359426165 
0.50407585151 -0.85661571693 0.11007747011 0.59104693219 -0.79584257512 -0.1315223159 -0.37573683982 0.031680299754 -0.92618474713 
-0.51370843955 0.38145557781 -0.76850197221 -0.35481028194 0.37956337295 -0.85442454889 -0.070212963283 0.23477524505 -0.96951055904 
0.31820698354 -0.089794176886 -0.94375914376 0.64176303162 -0.35257558028 -0.68105115185 0.8505203403 -0.36010900206 -0.38332317615 
0.97366624469 -0.18965151301 -0.12651619487 0.99628005405 0.024756464686 0.082541936992 0.94923370184 0.18199862703 0.256577238 
0.85797492995 0.24633540752 0.45077476258 0.66990922489 0.22643947139 0.70706915942 0.14141841218 0.33475720624 0.93163214069 
-0.6654590433 0.55008436633 0.50455074235 -0.94302241241 0.33270796685 -0.0037601183928 -0.98188591932 -0.18782026428 -0.024971779588 
-0.52040365808 -0.84481377444 0.12437732579 -0.14520228441 -0.98393444332 0.10387159306 0.0088331519423 -0.99776050689 -0.066301932935 
0.090904839178 -0.92018927816 -0.38077290157 0.13918819458 -0.69117612325 -0.70915598646 0.16072934489 -0.43919801626 -0.88389545774 
0.25007027481 -0.29296397622 -0.92284178833 0.77739284312 -0.1584377939 -0.60873461617 0.96725512867 0.08591003016 0.23882416709 
0.91886926541 0.17888467931 0.35168102678 0.92331258972 0.26627564817 0.2767510449 0.90964874904 0.38198515376 0.1631762718 
0.84816025738 0.52639425791 0.059441257057 0.73192041756 0.68133915896 -0.0083338365731 0.56818852641 0.82273864475 -0.016214835575 
0.37245377793 0.92720985543 0.039497687289 0.16243421359 0.97705738395 0.13774612419 -0.03908825313 0.97022526489 0.2390293786 
-0.21127284355 0.92581978955 0.31340309964 -0.35347821259 0.85656455447 0.37596584585 -0.47952876512 0.7373266619 0.47581672635 
-0.58953308142 0.42275776211 0.68827801104 -0.4996236168 -0.27865353 0.82020025101 -0.29791182492 -0.71006254009 0.63801233039 
-0.25533512725 -0.84533375497 0.46927051419 -0.31284556966 -0.89484059518 0.31841475902 -0.41064344019 -0.89948162834 0.1493477998 
-0.49591245391 -0.86710029051 -0.046988554532 -0.52962272498 -0.80752416803 -0.25962374165 -0.50534252104 -0.72734429843 -0.46432661777 
-0.4458424055 -0.62911408375 -0.63674172086 -0.40736871959 -0.51409639666 -0.75482158239 -0.4260779152 -0.38332479383 -0.81946306361 
-0.47792970263 -0.22923730206 -0.84795840623 -0.5160157517 -0.046734338269 -0.85530324776 -0.51247767118 0.14883251833 -0.84570415515 
-0.4638439108 0.32033697027 -0.82597400195 -0.3575992272 0.43192461335 -0.82798787497 0.04168514077 0.40583635436 -0.91299463444 
0.91244883837 -0.38171011221 0.14742627854 0.76125398349 -0.41948773344 0.49449207689 0.71915217373 -0.30013014554 0.62669134888 
0.71915217373 -0.30013014554 0.62669134888 
FrenetBinormal 3 64 double
0.18878461531 0.2809685344 0.94096602048 0.18878461531 0.2809685344 0.94096602048 0.18944211723 0.27056488621 0.9438783431 
0.20239710692 0.24107135677 0.94916806313 0.31804116475 0.080078109845 0.94468900377 0.58179192847 -0.76986199072 -0.26235599326 
0.39525452707 -0.68979278939 -0.60659687317 0.44721069675 -0.73365214738 -0.51162204737 0.51201582824 -0.82562956397 -0.23701395473 
0.45201775458 -0.86068857296 0.23429709754 0.23472161481 -0.75513451987 0.6121091573 0.054349865869 -0.66475100385 0.74508536085 
-0.025026432921 -0.64051063347 0.76754140348 -0.0477390753 -0.63887744996 0.76782588171 -0.082512611155 -0.64302804693 0.76138465959 
-0.18653495366 -0.66821852265 0.72020047004 -0.37174888711 -0.72206875812 0.58345477415 -0.51657800304 -0.77784660525 0.35791315355 
-0.48715900007 -0.83220440437 0.26478658954 -0.32315914931 -0.91314954712 0.24844731596 0.17385177051 -0.94547794618 0.27540336814 
0.84299142802 -0.4850356962 0.23260658998 0.97536275497 -0.12472796706 0.18196271722 0.98439172849 -0.0029782781229 0.17596606134 
0.9832585018 0.022301509248 0.18084623668 0.984077435 0.016606066509 0.17696282232 0.98494424442 0.013624053139 0.17233461798 
0.96761690025 0.041768364688 0.24894364436 0.62894986716 0.1818224152 0.75588535766 -0.25225074888 0.22138510452 0.94199691888 
-0.3843221141 0.20403478405 0.90037010141 -0.33677773626 0.21500809791 0.91670730017 -0.26766819425 0.23865053915 0.9334878992 
-0.22676764412 0.25937450215 0.93877649268 -0.22910680956 0.25759697624 0.93869796401 -0.27273770715 0.20687205724 0.93958400105 
-0.33281197088 0.093717100464 0.93832472903 -0.37720773285 -0.067508648138 0.92366493314 -0.3870685487 -0.2352378964 0.89153859743 
-0.36831357117 -0.37241368315 0.85185278182 -0.33027820629 -0.49030704259 0.80654529348 -0.25338590292 -0.63547084567 0.72936437294 
-0.038847799596 -0.86595237586 0.49861541413 0.38018330603 -0.92132049171 -0.081419932255 0.58581382675 -0.66369773171 -0.4651101819 
0.63828920289 -0.51193904425 -0.57489591097 0.659229171 -0.44591512468 -0.60545569754 0.67362236371 -0.40966852067 -0.61514601054 
0.696545843 -0.36488989923 -0.6178019505 0.74141559285 -0.29201883627 -0.60417540329 0.80359196337 -0.20059181211 -0.56035960001 
0.86370084632 -0.11556539573 -0.49057668858 0.89719205923 -0.070906329935 -0.43591134561 0.89807996477 -0.069948208914 -0.4342345276 
0.87762157054 -0.08403416037 -0.47193075637 0.85489830565 -0.090619397942 -0.5108199406 0.84471865329 -0.089624405697 -0.52765316515 
0.85221503377 -0.093371731324 -0.51479243974 0.88538533974 -0.12517571267 -0.44768721351 0.94853837463 -0.3031685175 -0.091453823579 
-0.2847186387 -0.33348366959 0.89873463208 -0.60269220829 -0.17631744347 0.77825077012 -0.68236151573 -0.13479892286 0.71847895742 
-0.68236151573 -0.13479892286 0.71847895742 
