# vtk DataFile Version 4.2
vtk output
ASCII
DATASET POLYDATA
POINTS 64 float
0 0 0 -0.922027 0.367978 0.19671 -1.81499 0.260744 0.643617 
-2.58481 -0.13247 1.17134 -3.27265 -0.662479 1.69528 -3.93447 -1.27333 2.16105 
-4.62607 -1.97542 2.36196 -5.14008 -2.61687 1.79504 -5.44296 -3.14589 0.984156 
-5.6824 -3.71719 0.180912 -5.83825 -4.37178 -0.577485 -5.80963 -5.09984 -1.2808 
-5.5194 -5.83839 -1.9095 -5.01977 -6.53367 -2.45217 -4.41483 -7.21221 -2.90224 
-3.80905 -7.99073 -3.13072 -3.66729 -8.78701 -2.59668 -3.99854 -9.19527 -1.73231 
-4.48864 -9.37405 -0.863997 -5.08654 -9.30913 -0.0504694 -5.72947 -8.90609 0.615293 
-6.28512 -8.20241 1.08457 -6.70157 -7.366 1.47847 -6.98535 -6.50265 1.92771 
-7.10657 -5.69921 2.53078 -6.96854 -5.17242 3.37364 -6.56929 -5.20119 4.29601 
-6.07889 -5.58926 5.09269 -5.53976 -6.11876 5.76899 -4.91164 -6.74386 6.26185 
-4.33711 -7.49589 6.04279 -4.25885 -8.17552 5.29583 -4.37429 -8.90373 4.59994 
-4.54655 -9.73018 4.03914 -4.7235 -10.6704 3.71159 -4.85429 -11.6409 3.91176 
-4.86745 -12.3922 4.58944 -4.75264 -13.0316 5.36816 -4.4853 -13.6693 6.10916 
-4.02735 -14.3058 6.75054 -3.37398 -14.8596 7.29134 -2.57356 -15.2366 7.78458 
-1.70104 -15.3958 8.27443 -0.813698 -15.3633 8.76375 0.0705397 -15.2 9.23308 
0.958083 -14.968 9.66627 1.85585 -14.7111 10.063 2.76098 -14.4449 10.4361 
3.67023 -14.172 10.7942 4.58768 -13.91 11.1392 5.52378 -13.7135 11.4765 
6.47537 -13.6983 11.8223 7.34586 -14.0452 12.1932 7.91269 -14.7833 12.5802 
8.12353 -15.6881 12.9802 8.04317 -16.6086 13.3942 7.6894 -17.4759 13.7773 
7.0537 -18.2273 14.0038 6.21618 -18.7837 13.9155 5.35301 -19.1707 13.5526 
4.52972 -19.5238 13.0765 3.74762 -19.9808 12.6236 3.0446 -20.6427 12.3441 
2.48813 -21.4956 12.3509 
LINES 1 65
64 0 1 2 3 4 5 6 7 8 9 10 11 12 13 14 15 16 17 18 19 20 21 22 23 24 25 26 27 28 29 30 31 32 33 34 35 36 37 38 39 40 41 42 43 44 45 46 47 48 49 50 51 52 53 54 55 56 57 58 59 60 61 62 63 

CELL_DATA 1
FIELD FieldData 2
Length 1 1 double
63.663372817 
Tortuosity 1 1 double
1.5551422037 
POINT_DATA 64
SCALARS MaximumInscribedSphereRadius float
LOOKUP_TABLE default
1.116 1.2435 1.25464 1.54189 1.94406 1.3907 1.14485 1.73753 1.80572 
1.92198 1.85506 2.05998 2.04112 1.79767 1.63345 1.90368 2.08482 2.47075 
2.46652 2.26067 1.99697 1.98537 2.11648 1.88571 1.93326 2.1049 2.17 
2.4343 2.67707 2.25723 2.51212 2.73655 2.42584 2.3934 2.21271 1.97366 
2.1881 2.44673 2.69306 2.17303 1.55342 1.55 1.57293 1.77316 2.01732 
2.194 2.28784 2.41601 2.07301 2.16184 2.4944 2.45383 2.20328 2.18502 
1.97672 2.10306 2.28959 1.91733 2.222 2.20644 2.83549 2.94534 2.80527 
3.2364 
TEXTURE_COORDINATES TCoords 2 float
0 0 0.015873 0 0.031746 0 0.047619 0 0.0634921 
0 0.0793651 0 0.0952381 0 0.111111 0 0.126984 0 
0.142857 0 0.15873 0 0.174603 0 0.190476 0 0.206349 
0 0.222222 0 0.238095 0 0.253968 0 0.269841 0 
0.285714 0 0.301587 0 0.31746 0 0.333333 0 0.349206 
0 0.365079 0 0.380952 0 0.396825 0 0.412698 0 
0.428571 0 0.444444 0 0.460317 0 0.47619 0 0.492063 
0 0.507937 0 0.52381 0 0.539683 0 0.555556 0 
0.571429 0 0.587302 0 0.603175 0 0.619048 0 0.634921 
0 0.650794 0 0.666667 0 0.68254 0 0.698413 0 
0.714286 0 0.730159 0 0.746032 0 0.761905 0 0.777778 
0 0.793651 0 0.809524 0 0.825397 0 0.84127 0 
0.857143 0 0.873016 0 0.888889 0 0.904762 0 0.920635 
0 0.936508 0 0.952381 0 0.968254 0 0.984127 0 
1 0 
FIELD FieldData 7
Curvature 1 64 double
0 0.56962511283 0.32439613915 0.15627111005 0.10036159303 0.28159580164 0.93192195162 0.3468839 0.074564517092 
0.12322396058 0.20278723337 0.27042731418 0.22752880237 0.1380169964 0.24013641343 1.139005319 0.8065590586 0.27763282379 
0.27033983765 0.37672547847 0.37430114058 0.20342163346 0.14301991283 0.22884344234 0.46473441211 0.67788480731 0.39929464598 
0.18863330063 0.22172146693 0.84734522985 0.85316093613 0.20281715889 0.17301585424 0.25747479465 0.56407201404 0.573270099 
0.19455864643 0.15380332127 0.21186601226 0.2319643283 0.23197782489 0.22646480352 0.18887396045 0.1292584 0.075615184135 
0.044053112824 0.025689560375 0.016454770019 0.018372577412 0.066679693449 0.1788073907 0.37720148238 0.51916920642 0.40097916756 
0.2911322802 0.27884655776 0.34520603153 0.43256296787 0.32478596983 0.12179084236 0.11144638598 0.28015571815 0.37806665273 
0 
Torsion 1 64 double
0 0 -0.091408141266 -0.34855308133 -1.2762809491 -0.16227010339 0.025802994109 0.26213363608 2.3616615446 
-0.19140599924 -0.25455808147 -0.11625196592 0.040859862444 0.91841245436 0.66020905258 0.053422990279 0.031081544592 0.0074357754783 
-0.10114818125 -0.12590719042 -0.19944755338 -0.63493098724 -0.95547546979 -0.35162081574 -0.11161449868 -0.034953593847 0.04134509003 
0.38017587117 -0.12925356012 -0.20456407321 -0.29988333469 -1.7676711777 -0.64039972015 -0.12812541504 -0.044847544594 -0.11933249091 
-0.93301861052 -0.63209491136 0.091988598219 0.34085528544 0.38172628766 0.22573554678 0.047516702715 -0.150169299 -0.40715961201 
-0.47730252751 -0.16762045769 -0.43759597741 -1.5706181613 -0.36878016038 -0.16554582778 -0.11675726111 -0.12238546532 -0.17500152467 
-0.088899497816 0.1811240653 0.27653958894 0.19717855285 0.21910817147 0.95530415912 1.0012176338 0.15729944442 0 
0 
Abscissas 1 64 double
0 1.0120453862 2.0163389861 3.0291240168 4.0432977462 5.0572421152 6.0630286019 7.061559894 8.0760195165 
9.0903724967 10.104247987 11.116943108 12.129344146 13.143013022 14.157375589 15.169935545 16.139131919 17.150828753 
18.163811626 19.1755064 20.184980633 21.196977353 22.210964145 23.224731569 24.236614047 25.240096733 26.245580585 
27.258388244 28.27249842 29.286495319 30.257902696 31.270804033 32.284646762 33.298149082 34.309387739 35.308900563 
36.320805079 37.334873925 38.348437489 39.361428742 40.374384457 41.387334867 42.40055232 43.414384754 44.428687038 
45.443193964 46.457764857 47.472358841 48.48695778 49.501532049 50.515780367 51.528349554 52.536175007 53.544008835 
54.555568992 55.568040683 56.580019195 57.589973611 58.599339109 59.612552403 60.62698043 61.639746219 62.644951413 
63.663397961 
ParallelTransportNormals 3 64 double
0.20864912926 0 0.97799056277 0.45060015278 -0.034517643858 0.89205831344 0.56543055159 -5.1069210066e-05 0.82479590731 
0.59629084032 0.019491849432 0.8025318072 0.57473986425 0.0012748048579 0.81833517785 0.41575194324 -0.15298831012 0.89651820877 
-0.02900600676 -0.64881157346 0.76039607686 -0.13820289795 -0.80507111193 0.57685393623 -0.13037258625 -0.78918383569 0.6001598639 
-0.11459768118 -0.74025869531 0.66248353601 -0.11023262964 -0.69277945155 0.71267481987 -0.11523836941 -0.66975711082 0.73358403112 
-0.11913420735 -0.66268366817 0.73936283148 -0.14331320351 -0.63260980982 0.76109536474 -0.28204978262 -0.46563533969 0.83882754518 
-0.65715134098 0.33564543972 0.67490314405 -0.58938146534 0.79396863145 0.14914188074 -0.476555192 0.87463818978 -0.088899864742 
-0.3308270856 0.88986761237 -0.31414816868 -0.10283063318 0.80381819478 -0.58591993533 0.10802147273 0.60920882982 -0.78561820441 
0.18219603004 0.49172191659 -0.85147763528 0.17887629561 0.49978046698 -0.84748023912 0.15261390519 0.60790177316 -0.7792075655 
0.155550894 0.82602622741 -0.5417421813 0.29107026644 0.95184229946 -0.096303359028 0.42820903379 0.88776402895 0.16885512218 
0.49139242585 0.83145464282 0.25926176104 0.53926570411 0.78409986106 0.30721313165 0.78881536862 0.49750932677 0.36090827645 
0.99699388597 0.047612283566 0.06112496859 0.9934868116 -0.085509954348 -0.075312700691 0.9852696254 -0.12991285114 -0.1112043901 
0.98253455803 -0.14375014286 -0.11815980157 0.98045532385 -0.15667247206 -0.11900039677 0.98230581794 -0.13463082757 -0.13019147555 
0.97744367398 -0.068013309574 -0.19994512726 0.94815931566 0.029842878024 -0.31639107881 0.87229674737 0.16311118389 -0.46096976713 
0.74587961395 0.29850910934 -0.59544597836 0.60888562213 0.38622248851 -0.69288562443 0.50127205895 0.42071591812 -0.7561246188 
0.42480425138 0.42622362539 -0.79867062621 0.36393200773 0.41949722221 -0.8316102298 0.31212499372 0.40793852195 -0.85800008776 
0.27342842809 0.39734208894 -0.8759886752 0.25027338384 0.39062337877 -0.8858761817 0.23537694362 0.38619693266 -0.89187982577 
0.22692525312 0.38372209526 -0.89513255058 0.23972332404 0.38688787301 -0.8904215303 0.30819350242 0.39456004616 -0.86564376914 
0.48390742555 0.36248321031 -0.79651712207 0.71090591375 0.19113293978 -0.67681680027 0.82726425044 -0.054430086371 -0.55917012227 
0.84339735054 -0.27990067313 -0.45862459843 0.79341820203 -0.48568467408 -0.36687593822 0.68236841293 -0.66728672083 -0.2984992148 
0.55096355035 -0.78392730882 -0.28617676473 0.49279543474 -0.8162080216 -0.30159098954 0.51422722901 -0.80680232727 -0.29093016628 
0.59132501931 -0.76789557362 -0.24631506157 0.71178275897 -0.67706304833 -0.18695168524 0.82585325733 -0.54008043232 -0.16210960486 
0.82585325733 -0.54008043232 -0.16210960486 
FrenetTangent 3 64 double
-0.93397263977 0.13417581431 0.33119776422 -0.93397263977 0.13417581431 0.33119776422 -0.83503192083 -0.25131965557 0.48944879397 
-0.72137448328 -0.45688948376 0.52045254778 -0.66633263949 -0.56324725084 0.48862393307 -0.6767081444 -0.65646869799 0.33333907042 
-0.65455053148 -0.72943552523 -0.19871440882 -0.4117703563 -0.58999986357 -0.69451086 -0.26749953673 -0.54273303721 -0.79616885656 
-0.19527279608 -0.60558760821 -0.77144810836 -0.063107987908 -0.68581686983 -0.72503282885 0.15889215508 -0.73085396527 -0.66378141319 
0.39239468239 -0.71231274587 -0.58192522312 0.5459751588 -0.67906227664 -0.49069904261 0.60166388514 -0.72408174582 -0.33720349152 
0.42238775833 -0.88981999407 0.17265271434 -0.10213086183 -0.64922047781 0.75371218529 -0.40957965886 -0.29273715547 0.86403093744 
-0.54228808382 -0.056750896143 0.83827380368 -0.62457089262 0.2355475217 0.74459960053 -0.60309100669 0.55686977857 0.57111932848 
-0.48233066748 0.76415209463 0.42828577315 -0.34622495322 0.84043701425 0.41688596384 -0.20125666256 0.82827855674 0.52292483994 
0.0085554721022 0.67702462743 0.73591063164 0.28111987929 0.26057823365 0.92361820988 0.44932030155 -0.21052620272 0.86821079502 
0.51022275578 -0.45473675392 0.72999124935 0.57911751424 -0.57284135568 0.58006524281 0.65052597635 -0.74490400871 0.14810122183 
0.35355849421 -0.77540336379 -0.52320742979 -0.018440263129 -0.69825125784 -0.71561521617 -0.14244991176 -0.76976499448 -0.62222976135 
-0.17390560878 -0.87979692522 -0.44239598733 -0.15866734033 -0.98514535576 -0.065675742421 -0.074276894627 -0.88843074776 0.45296109034 
0.050414152769 -0.68972764613 0.72231169682 0.1890403538 -0.63174997404 0.75176839181 0.35992840854 -0.63232782629 0.68601243489 
0.55226056494 -0.59150895566 0.58747376433 0.72247140912 -0.4625675224 0.51387386607 0.83101310511 -0.26635077478 0.48833849317 
0.87212329011 -0.062788088206 0.4852407885 0.87536491274 0.096747719742 0.47368359511 0.87395377228 0.19498677045 0.44517969773 
0.88008028236 0.24100651666 0.40911435508 0.88857845298 0.25781626355 0.37941943434 0.89417856971 0.265683821 0.36035648008 
0.90024547186 0.26361255303 0.34650615043 0.91413282621 0.2261227519 0.33649617696 0.93514015026 0.10487351307 0.33839983101 
0.9175245557 -0.16703063023 0.36090089811 0.73563513397 -0.55531407019 0.387901061 0.39261970628 -0.82944488831 0.39732976669 
0.065147608072 -0.91135893546 0.406424261 -0.21652259608 -0.89166631436 0.39755395761 -0.49654742419 -0.81231500205 0.30591664384 
-0.74601143427 -0.66224578922 0.069981816205 -0.85184438334 -0.47253150375 -0.22599806312 -0.83330869549 -0.36569553184 -0.41456410362 
-0.79317642811 -0.40024706532 -0.45899176528 -0.74312411519 -0.55987522605 -0.3664782131 -0.6332937218 -0.76166762837 -0.13711851011 
-0.6332937218 -0.76166762837 -0.13711851011 
FrenetNormal 3 64 double
0.040077400206 -0.88165205048 0.47019513384 0.040077400206 -0.88165205048 0.47019513384 0.40527578263 -0.88260868222 0.23822983456 
0.52022302297 -0.85356274114 -0.028260454934 0.25130458319 -0.78659243361 -0.56401981336 -0.12555857273 -0.34322080355 -0.93082464773 
0.21814793511 0.069434790346 -0.97344249357 0.63814158552 0.35737922211 -0.68194971108 0.82761226748 -0.5525699441 0.098612329837 
0.66143138353 -0.6620998002 0.35232425328 0.89487110393 -0.36051520183 0.26312448878 0.96110880901 -0.039318982002 0.27335668072 
0.90636212292 0.19170338025 0.37650699347 0.74301658164 0.12185345771 0.65808669205 0.0079662756815 -0.41670361673 0.90900749956 
-0.49751433374 -0.068374898321 0.86475682189 -0.67508851857 0.60172557006 0.4268276355 -0.56721525495 0.82350729667 0.010128518012 
-0.39883784205 0.89552629343 -0.19738549472 -0.12492976974 0.91101922792 -0.39298412053 0.2403299752 0.80956408151 -0.53558146061 
0.67853647095 0.63513135348 -0.36904799338 0.90661007674 0.18547859854 0.3790196014 0.70001337816 -0.251809207 0.66826147103 
0.57817490506 -0.60379906872 0.54876266616 0.42102657699 -0.89835172675 0.12530281929 0.22433885803 -0.91410765084 -0.33775624264 
0.25033572293 -0.73350929742 -0.63189883401 0.39546283079 -0.42481081037 -0.81433710763 -0.032929362672 -0.22248279505 -0.97438034821 
-0.70452724458 0.14720247773 -0.69424260327 -0.93964151672 -0.23247970915 0.25105179724 -0.32232413296 -0.55829890153 0.76446680102 
-0.019596796322 -0.44606057097 0.89478820544 0.083383359392 -0.079651037291 0.99332921413 0.22030081096 0.42837564435 0.87633433119 
0.64658123336 0.57374855792 0.50273780537 0.97142436146 0.0084194208386 -0.23719996481 0.88707182829 0.0041277873893 -0.46161296864 
0.83237615853 0.35196408875 -0.42810186983 0.62615031134 0.75292837578 -0.20257010776 0.31332877161 0.94952135501 -0.015306118473 
0.074218459458 0.99723249668 -0.0043552090761 -0.026552237333 0.9879144952 -0.15270864041 0.040344008072 0.88372303643 -0.46626811588 
0.22398411576 0.54900654233 -0.80524712502 0.27933723625 0.35197147619 -0.89335703299 0.24016491154 0.39463540111 -0.88689554935 
0.4350464713 -0.5759250933 -0.69213066303 0.27683649666 -0.95452799957 -0.1106248261 0.093517667737 -0.99437445263 0.049738252654 
-0.20605945994 -0.97587076686 0.072220117366 -0.61300330947 -0.78941514664 0.032414022026 -0.90882861043 -0.4161358418 0.02935162739 
-0.99763645184 -0.050567922439 0.046523060788 -0.97601020116 0.18817271258 -0.10952222367 -0.82568502939 0.33331920992 -0.4551291427 
-0.47962895248 0.46142624381 -0.7463523896 -0.06909066196 0.52905788674 -0.84576842747 0.32846879309 0.27564168366 -0.9033990891 
0.34883663334 -0.91639661402 0.1962912353 0.26252504584 -0.74769926527 0.60993967654 0.41474966868 -0.48360609159 0.77078392595 
0.41474966868 -0.48360609159 0.77078392595 
FrenetBinormal 3 64 double
0.3550900029 0.4524229357 0.81806147513 0.3550900029 0.4524229357 0.81806147513 0.3721199151 0.39729125939 0.83886019336 
0.45715080798 0.25036502664 0.85342280975 0.70203049793 -0.25303137712 0.66567882809 0.72546614816 -0.67175019804 0.14983504033 
0.7238612299 -0.6805164395 0.1136762747 0.65055398739 -0.72400293687 0.22934527877 -0.49345914985 -0.63254036013 0.59698472362 
-0.72413884027 -0.44146064757 0.52984472882 -0.4418405699 -0.63220567089 0.6364690884 -0.22588302348 -0.68140039558 0.69618270634 
-0.15663369804 -0.67517432273 0.72083667954 -0.38708847229 -0.72389651145 0.57108349243 -0.79870965174 -0.54960323978 -0.24494728219 
-0.75767279834 -0.45115989564 -0.47157892152 -0.73063313582 -0.46523016833 -0.49973604164 -0.71450077509 -0.48594309352 -0.50333681791 
-0.73949442858 -0.44137511661 -0.50826764263 -0.77091098884 -0.33846909959 -0.53956919473 -0.76060682397 -0.18574726819 -0.62207331697 
-0.55402651994 0.1126043521 -0.82484839522 0.24121867782 0.50917905943 -0.82616598508 0.68518393601 0.50054645711 -0.52912778996 
0.81586799365 0.4207901359 -0.39660443577 0.86238520102 0.35364269991 -0.36225489073 0.86474466948 0.34653415508 -0.36349791743 
0.82280299301 0.5051520516 -0.26041628108 0.71290395858 0.70099112449 -0.019477916415 0.75876980117 0.62898284851 -0.16926005173 
0.61533547989 0.61406925828 -0.49424810896 -0.34166325052 0.67705122831 -0.65181888396 -0.93584997513 0.30945789668 -0.16858420517 
-0.98456731858 0.16427823166 0.060331234001 -0.98380480304 0.15213264044 0.094782747493 -0.97259986408 0.16487908831 0.16390360162 
-0.76117745754 0.44168808728 0.47488999957 0.14352161715 0.77512649526 0.61528892544 0.28905901157 0.77468992602 0.56240590889 
0.04645642181 0.72542293567 0.68673383874 -0.29320786247 0.46811339243 0.83360602278 -0.45961103123 0.16573008523 0.87252005067 
-0.48362442776 0.039812103057 0.87436972119 -0.4827331025 0.12109842645 0.8673545543 -0.48433166832 0.42545711209 0.7644665335 
-0.41867626215 0.80031723423 0.42918820127 -0.36386679066 0.8998037865 0.24073658728 -0.37784322244 0.87958797596 0.28906658715 
0.017107255904 0.77383377336 -0.63315766836 0.29618023255 0.1942802077 -0.9351644084 0.34171237202 -0.014865874102 -0.9396870014 
0.34012966448 -0.14063077526 -0.92980363324 0.28821501045 -0.26162952758 -0.92113087998 0.14099759963 -0.37262868707 -0.91720637725 
-0.021847176646 -0.40849452381 -0.91249927391 0.022848470917 -0.41173075434 -0.91101906309 0.26774033646 -0.47858399654 -0.83622513146 
0.4619772807 -0.59035272184 -0.66186150813 0.51921828454 -0.70484872877 -0.48332250367 0.44464015786 -0.88898168722 -0.10957504185 
-0.49918349044 -0.0044195612446 0.86648503181 -0.61550560495 0.35705117276 0.70261462432 -0.65339251163 0.43126276453 0.62216609814 
-0.65339251163 0.43126276453 0.62216609814 
