# vtk DataFile Version 4.2
vtk output
ASCII
DATASET POLYDATA
POINTS 64 float
0 0 0 -0.97211 0.286541 0.264641 -1.88404 0.475224 0.563668 
-2.84687 0.59077 0.871846 -3.8245 0.603142 1.14408 -4.81178 0.487702 1.34388 
-5.78098 0.205566 1.43547 -6.66095 -0.295169 1.40919 -7.36 -1.02411 1.33278 
-7.86914 -1.90051 1.31181 -8.27497 -2.8279 1.37833 -8.67619 -3.75614 1.46043 
-9.12315 -4.66168 1.37736 -9.51178 -5.45546 0.891637 -9.64567 -6.05413 0.0865095 
-9.53677 -6.55731 -0.786849 -9.26306 -7.06506 -1.62095 -8.87711 -7.62821 -2.37094 
-8.41411 -8.27454 -3.00042 -7.89654 -9.01547 -3.45393 -7.32873 -9.84444 -3.57841 
-6.87402 -10.2945 -2.85113 -6.76629 -9.97696 -1.88539 -6.74512 -9.45206 -1.01906 
-6.74217 -8.89083 -0.174042 -6.74811 -8.41561 0.721822 -6.77062 -8.09432 1.6834 
-6.8064 -7.93734 2.6844 -6.84373 -8.04408 3.69019 -6.85519 -8.56769 4.55209 
-6.81422 -9.40952 5.11325 -6.72578 -10.3594 5.45733 -6.60016 -11.3347 5.70688 
-6.44068 -12.3086 5.94253 -6.24343 -13.2639 6.22089 -6.0016 -14.1859 6.56811 
-5.71333 -15.0713 6.97089 -5.37981 -15.9301 7.39588 -4.99397 -16.7682 7.81764 
-4.5349 -17.5728 8.23099 -3.97025 -18.3067 8.64453 -3.27087 -18.903 9.07186 
-2.44977 -19.298 9.51556 -1.56359 -19.4988 9.96576 -0.658377 -19.5707 10.418 
0.246579 -19.5754 10.8766 1.14316 -19.547 11.3507 2.02458 -19.4909 11.8499 
2.88375 -19.3914 12.3802 3.7167 -19.2348 12.9378 4.52687 -19.0309 13.5135 
5.32377 -18.8165 14.1038 6.11412 -18.6382 14.7143 6.89566 -18.5341 15.3526 
7.65766 -18.5331 16.0221 8.38053 -18.6626 16.7214 9.02869 -18.9576 17.4429 
9.53743 -19.4584 18.1615 9.8346 -20.1629 18.8257 9.92443 -20.9927 19.4008 
9.89217 -21.8659 19.9168 9.86598 -22.7207 20.4648 10.0301 -23.4096 21.151 
10.5961 -23.6179 21.9951 
LINES 1 65
64 0 1 2 3 4 5 6 7 8 9 10 11 12 13 14 15 16 17 18 19 20 21 22 23 24 25 26 27 28 29 30 31 32 33 34 35 36 37 38 39 40 41 42 43 44 45 46 47 48 49 50 51 52 53 54 55 56 57 58 59 60 61 62 63 

CELL_DATA 1
FIELD FieldData 2
Length 1 1 double
63.827632354 
Tortuosity 1 1 double
0.87901764701 
POINT_DATA 64
SCALARS MaximumInscribedSphereRadius float
LOOKUP_TABLE default
0.93 1.18037 1.26147 1.21265 1.01123 1.06047 1.22949 1.25597 1.487 
1.73144 1.72582 1.33228 1.24 1.46139 1.71542 1.69892 1.38698 1.53601 
1.86225 1.87639 1.74474 1.88444 2.35746 2.28921 1.90556 1.7671 2.17 
2.17 2.1987 2.39909 2.25224 2.17 2.17 2.16066 2.01654 1.93713 
2.09306 1.97844 1.86 1.92201 2.21371 2.12302 1.85489 1.85218 1.86 
1.8658 1.91641 2.2156 2.48 2.48 2.48 2.35041 2.19198 2.17021 
2.18275 2.23493 2.34581 2.44061 2.48 2.42643 2.2248 2.33646 2.5754 
2.79 
TEXTURE_COORDINATES TCoords 2 float
0 0 0.015873 0 0.031746 0 0.047619 0 0.0634921 
0 0.0793651 0 0.0952381 0 0.111111 0 0.126984 0 
0.142857 0 0.15873 0 0.174603 0 0.190476 0 0.206349 
0 0.222222 0 0.238095 0 0.253968 0 0.269841 0 
0.285714 0 0.301587 0 0.31746 0 0.333333 0 0.349206 
0 0.365079 0 0.380952 0 0.396825 0 0.412698 0 
0.428571 0 0.444444 0 0.460317 0 0.47619 0 0.492063 
0 0.507937 0 0.52381 0 0.539683 0 0.555556 0 
0.571429 0 0.587302 0 0.603175 0 0.619048 0 0.634921 
0 0.650794 0 0.666667 0 0.68254 0 0.698413 0 
0.714286 0 0.730159 0 0.746032 0 0.761905 0 0.777778 
0 0.793651 0 0.809524 0 0.825397 0 0.84127 0 
0.857143 0 0.873016 0 0.888889 0 0.904762 0 0.920635 
0 0.936508 0 0.952381 0 0.968254 0 0.984127 0 
1 0 
FIELD FieldData 7
Curvature 1 64 double
0 0.095648090035 0.080919793865 0.10704784616 0.143832062 0.19608868993 0.26150274062 0.29433096598 0.24391929335 
0.14137790229 0.015808139163 0.16939849889 0.43167575765 0.46694601305 0.267522384 0.16600523515 0.14743703779 0.16196112981 
0.20408184258 0.34630459304 1.2325314628 1.0925227097 0.24056240349 0.044657219093 0.097745875476 0.16467528285 0.16601246858 
0.26147012849 0.45447553662 0.45337923881 0.24424571443 0.10204432477 0.035595752807 0.058320487791 0.086196524082 0.07896111079 
0.05541409383 0.054798305521 0.078804233935 0.12400479675 0.18954975687 0.23271099967 0.2014504279 0.12720180528 0.065658567223 
0.036438112258 0.039204950756 0.056243959777 0.0666332649 0.053993083256 0.021711946468 0.040707657746 0.077587511012 0.10670530471 
0.13622546075 0.17940903606 0.24579319261 0.29761744946 0.25558770756 0.13914068296 0.036295924984 0.29177123559 0.70026376799 
0 
Torsion 1 64 double
0 0 -0.52319442988 -0.20430394548 -0.073183047773 0.078198455302 0.20614002994 0.27881715825 0.33726292428 
0.37370942582 2.6944800104 0.3606382822 0.22950153421 0.27684873343 0.53298693817 0.6493404917 0.43804442584 0.22626412183 
0.039235547011 -0.22368214386 -0.10853099629 -0.11180706428 -0.31324939519 0.6313192402 0.098798824087 0.0050340426165 0.057786284625 
0.06392594305 0.043958746085 0.052528924986 0.11398904766 0.34239306094 1.8163746052 0.3871022254 -0.0024967646947 -0.18264567015 
-0.4748959279 -0.24409805117 0.11760274477 0.16129801565 0.10580823914 0.065714578417 0.055644769481 0.084632110849 0.23775069415 
0.51630480115 0.077836160846 -0.11989349917 -0.083199581096 0.069959787661 1.5539532433 0.40005921897 0.042247725229 -0.00715107272 
-0.022002461334 -0.028566235849 -0.02639270182 -0.020845341305 -0.028993966537 -0.1510168256 -3.5259485699 -0.077380101303 0 
0 
Abscissas 1 64 double
0 1.0474436893 2.0255243596 3.0430540998 4.0579536007 5.0718373186 6.085416494 7.0982228987 8.1110710419 
9.1248471898 10.139330005 11.15389424 12.167147085 13.175633966 14.187840631 15.201646051 16.215777032 17.229964077 
18.244043574 19.255247408 20.267713869 21.236332882 22.258629817 23.271782884 24.286201715 25.300323287 26.314404814 
27.328275463 28.340402509 29.348954093 30.361502715 31.375622783 32.390166081 33.40474455 34.419219531 35.433651666 
36.448162451 37.462718863 38.477241046 39.491660015 40.505760816 41.519316582 42.532772523 43.546835202 44.561263165 
45.575831467 46.590415267 47.604975241 48.619488817 49.633998827 50.648573359 51.663174184 52.677703479 53.692121371 
54.706430654 55.720536881 56.734272178 57.747233991 58.759960516 59.773569939 60.788387958 61.80408373 62.790197851 
63.827618934 
ParallelTransportNormals 3 64 double
0.26267455119 0 0.96488449058 0.30937119023 -0.011708316403 0.95086927702 0.30364942815 -0.010774901778 0.9527229011 
0.26815135145 -0.0084372683602 0.96333984928 0.19968535507 -0.012030818562 0.97978621055 0.10316555632 -0.031645851522 0.99416065506 
0.010537807021 -0.070865851688 0.99743019088 -0.014567311754 -0.090416454373 0.99579749859 0.024694815044 -0.038253910009 0.99896286441 
0.06577419346 0.042727677053 0.9969193052 0.07196741136 0.056967581378 0.99577878385 0.0027425990638 -0.092691215004 0.9956911252 
-0.17338897724 -0.45088836919 0.87557749006 -0.28424995316 -0.74613094927 0.60207189826 -0.2865137767 -0.84517114982 0.45121567268 
-0.28170868601 -0.85786803189 0.42977046908 -0.29849650988 -0.83061446857 0.47008450112 -0.3411873357 -0.76979335851 0.53945285907 
-0.41335044682 -0.66769869657 0.61912830554 -0.5452173906 -0.47696624135 0.68937740143 -0.86615179513 -0.077185608391 0.49378482121 
-0.99120379614 -0.043679285685 0.1249285977 -0.99527113169 -0.070371575634 0.066956820185 -0.99543723331 -0.077848958295 0.055174760833 
-0.9954104638 -0.087114520185 0.039611474764 -0.99495772002 -0.099790226092 0.010052171476 -0.99410159707 -0.10681519604 -0.018775744969 
-0.99302693439 -0.10755040491 -0.048274402913 -0.99237157796 -0.099066482223 -0.073379038886 -0.99239515628 -0.097972156589 -0.074520536266 
-0.99109490818 -0.11597839974 -0.065420897128 -0.98820540266 -0.14196655852 -0.057407128617 -0.98365141453 -0.17310137564 -0.049656907267 
-0.97628552403 -0.21293704539 -0.039043440899 -0.96488636242 -0.26167606504 -0.022802293641 -0.95053268667 -0.31061453654 -0.0024942473349 
-0.93501101964 -0.35415290805 0.01816895367 -0.91533378959 -0.40056938029 0.041330681099 -0.88210975794 -0.46516802876 0.074169265605 
-0.81914150664 -0.55979880681 0.12502994841 -0.7038947249 -0.68106654292 0.20169427452 -0.53923338642 -0.78841508706 0.29602196788 
-0.38296412501 -0.84295543383 0.37784205103 -0.28225849081 -0.85828652763 0.42857249195 -0.23404148139 -0.86032827513 0.45283533873 
-0.21686212739 -0.86010266934 0.46172959175 -0.2091598817 -0.85973631446 0.46594593408 -0.19380535618 -0.85836352188 0.47502794467 
-0.1683122038 -0.85450563868 0.49141745545 -0.14617236426 -0.84964795737 0.5066872689 -0.14654783188 -0.84974567883 0.5064148638 
-0.17886185971 -0.85773918695 0.48196672325 -0.23890873603 -0.86852837586 0.43425922694 -0.3199990202 -0.87405298092 0.3655571277 
-0.41978147914 -0.86541340849 0.27357474696 -0.54119153298 -0.82781680809 0.14775336504 -0.68161859567 -0.73120706516 -0.027061372704 
-0.79991208691 -0.55428030997 -0.23003041361 -0.84891690453 -0.36005128197 -0.38691493064 -0.8529163245 -0.24188900789 -0.46262668671 
-0.85360806696 -0.26233696798 -0.45003620216 -0.83407249287 -0.47619431836 -0.27849963697 -0.60188771867 -0.76944304515 0.21374885822 
-0.60188771867 -0.76944304515 0.21374885822 
FrenetTangent 3 64 double
-0.93123744361 0.2348922382 0.27860807608 -0.93123744361 0.2348922382 0.27860807608 -0.94020742146 0.15257333616 0.30451827816 
-0.9561554605 0.063031199845 0.2859961594 -0.97107389269 -0.050937008165 0.23328291007 -0.96969717111 -0.19705201991 0.14442263597 
-0.92038588875 -0.38965770987 0.032506690514 -0.78794037847 -0.61361561586 -0.051242911211 -0.60062695491 -0.79806245664 -0.048410498241 
-0.45226303182 -0.89160037205 0.02251503086 -0.3977605355 -0.91456067139 0.073248445356 -0.4198004674 -0.90761629397 -0.00048009745025 
-0.42260686426 -0.85944642413 -0.28767217856 -0.26532959836 -0.70706980555 -0.65547882828 -0.01244533792 -0.54873353806 -0.83590467026 
0.18933246054 -0.50025277789 -0.84492625572 0.32612831754 -0.52944035358 -0.78315594392 0.41995849619 -0.59830574391 -0.68239658431 
0.48671600066 -0.68858095443 -0.53755353584 0.54427689436 -0.7872454943 -0.28983994543 0.58598968742 -0.73299183463 0.34545485465 
0.31440284178 -0.074078271852 0.94639487674 0.063793133902 0.41692711418 0.90669852626 0.011899169129 0.53581546454 0.84425126457 
-0.0014756589285 0.51155987905 0.85924636314 -0.0140756671 0.39407385485 0.91897098568 -0.028844235773 0.23666747009 0.9711624574 
-0.036395825022 0.025010839313 0.99902442505 -0.024743900774 -0.31968287909 0.94720145491 0.014961410951 -0.6922704101 0.72148308052 
0.064332595367 -0.89070037105 0.45001573993 0.10565820184 -0.9502530321 0.293011125 0.14052547877 -0.96075891932 0.23915452906 
0.17589184261 -0.95122526291 0.25344143093 0.21662462972 -0.92618440123 0.30863607164 0.26147284822 -0.89150283403 0.36993870648 
0.30655489092 -0.85992588428 0.40810730501 0.35466433135 -0.83661885439 0.41747108228 0.41677627734 -0.81030919715 0.41194239848 
0.50565746535 -0.75992840406 0.40843524387 0.62622832221 -0.65901038169 0.41658541177 0.7552315354 -0.49238497176 0.43264577604 
0.84638787154 -0.29536939207 0.44315290042 0.88493779231 -0.13471190775 0.4458001858 0.89265069339 -0.03777341035 0.44916356604 
0.88798185013 0.011681198077 0.45973012023 0.87641137537 0.041651382502 0.47975854705 0.85817980993 0.076717704209 0.5075842863 
0.83441929615 0.12628804263 0.53646599939 0.81008021545 0.17773152479 0.5587320911 0.79201534547 0.20615189337 0.57464170524 
0.78240987073 0.19357440333 0.59191531874 0.77534763092 0.13929619109 0.61598102436 0.76193744898 0.051880811101 0.64556928775 
0.73377604607 -0.063500631824 0.67641731495 0.6788780962 -0.21019478119 0.70352163041 0.57517988264 -0.39565134075 0.71598052988 
0.40223263784 -0.60157021096 0.69016098582 0.1925466721 -0.76337019674 0.61659688759 0.028452319458 -0.84166566795 0.53924889328 
-0.028790916112 -0.85116994826 0.52409999269 0.069618253172 -0.77916125115 0.62294545792 0.38060824434 -0.46770728114 0.79773884418 
0.38060824434 -0.46770728114 0.79773884418 
FrenetNormal 3 64 double
-0.045952080502 -0.83412798165 0.54965345131 -0.045952080502 -0.83412798165 0.54965345131 -0.17134343097 -0.98456327222 -0.035729422809 
-0.15710556464 -0.93454847463 -0.31927572742 -0.072250658923 -0.86850287114 -0.49039025797 0.089082076382 -0.83563041918 -0.54202046659 
0.33541153912 -0.82950808514 -0.44655955494 0.61236166921 -0.77216405084 -0.16963450319 0.77193350797 -0.59460272694 0.22486942077 
0.71636787761 -0.34810697272 0.6046805764 0.2854058342 -0.047462689922 0.95723079916 -0.26778555641 0.12436444393 -0.95541843234 
0.133376327 0.25497705767 -0.95770426305 0.5649109823 0.43692325339 -0.69998118026 0.90042034506 0.35739340817 -0.24801845496 
0.97207372171 -0.026018971124 0.23322884194 0.74414322979 -0.36714269858 0.55808340993 0.46593934162 -0.50311066146 0.7278600087 
0.2703186826 -0.46643678528 0.84223781391 0.14388725211 -0.25277329906 0.95676649082 -0.089507037151 0.36515998479 0.92663189877 
-0.41875383645 0.8838870184 0.20830017561 -0.35014125409 0.8601429467 -0.37088436664 -0.39750129052 0.7772656108 -0.48769959432 
-0.088631655724 -0.85593260541 0.50943478935 -0.098524276327 -0.91513619353 0.39092034262 -0.078329134717 -0.96911429052 0.23384190936 
-0.0061192961055 -0.99967360073 0.024804157277 0.058358221301 -0.94633766966 -0.31786684789 0.11876129644 -0.71522574262 -0.68872918594 
0.19170608732 -0.43152012487 -0.88149824612 0.35468269546 -0.23926686158 -0.90385372406 0.92407058738 0.040552641988 -0.38006451132 
0.63045353626 0.30657867647 0.71311840093 0.50338247898 0.37684409775 0.77755681841 0.57214715737 0.45183409828 0.68446590707 
0.79360185917 0.46763931633 0.38924228822 0.92903549192 0.36565230972 -0.056492859226 0.90490480685 0.41286110883 -0.10340694056 
0.83195553738 0.55483740767 0.0023312811914 0.69965900724 0.71077453733 0.072641796998 0.51652865897 0.85343511294 0.06961790328 
0.31510220996 0.94857015145 0.030418169783 0.14342097214 0.98955807564 0.014326189058 -0.0049836221746 0.99559449557 0.093630998579 
-0.22515391395 0.88271193645 0.41246254651 -0.37384594056 0.68682676137 0.62330426967 -0.38497309466 0.7502732281 0.53748097602 
-0.38247281915 0.83352809898 0.39867963431 -0.41116887512 0.85155635716 0.32525670895 -0.59532851891 0.46934235309 0.6521516006 
-0.15348074859 -0.86121207089 0.48451772803 -0.11009707964 -0.93062183424 0.34902956133 -0.17782142431 -0.94172047479 0.28555575362 
-0.27916333661 -0.93586973374 0.21497830811 -0.4072402129 -0.90505969588 0.12256572075 -0.55888375253 -0.82919457046 -0.0092366371393 
-0.70818532589 -0.68219487378 -0.18188924759 -0.80384703486 -0.48309040531 -0.34706426616 -0.85753950106 -0.29775160328 -0.41948776724 
0.16303064372 0.51329811045 0.84258296863 0.6720947193 0.49809728913 0.54789394854 0.59221819857 0.78583185629 0.17817378852 
0.59221819857 0.78583185629 0.17817378852 
FrenetBinormal 3 64 double
0.36150412158 0.49905525412 0.78756499631 0.36150412158 0.49905525412 0.78756499631 0.29436615516 -0.085770275061 0.95183613433 
0.24715294234 -0.35020881828 0.90347617937 0.22758588975 -0.49306002071 0.83970023149 0.22749017561 -0.51273024485 0.82786225667 
0.2009699361 -0.40010399376 0.89416322837 0.064522446252 -0.16504106929 0.98417391724 -0.20824485663 0.097692949718 0.97318557699 
-0.53129578766 0.28960371564 0.79614978107 -0.87196907411 0.40165416893 0.2798997363 0.86721304381 -0.4009565413 -0.29525478598 
0.89644530992 -0.44310105406 0.0068747525 0.78132949919 -0.55601291418 0.28350282707 0.43484286331 -0.75575224512 0.48964295995 
-0.13865748791 -0.86548840047 0.48135634377 -0.58300186454 -0.76478699707 0.27424382411 -0.77880382088 -0.6236264099 0.067488587599 
-0.83068366093 -0.55524138403 -0.040885950224 -0.8264739082 -0.56245016756 -0.024304075276 -0.80535990497 -0.57391737722 0.14837205797 
-0.85193666287 -0.46179665258 0.24687602986 -0.93452209083 -0.29381268301 0.2008545968 -0.91752445952 -0.32978774723 0.2222361536 
0.99606337752 -0.075404675845 0.046603463674 0.99503509615 -0.085038486725 0.05170699378 0.99651018897 -0.06932532379 0.046491319235 
0.99931871699 -0.0052105585054 0.036536994183 0.99798900664 0.047411726379 0.0420722096 0.99281010805 0.095988626384 0.071514145129 
0.97934166319 0.14297982672 0.14299187352 0.92899759414 0.19942553483 0.31175780044 0.35545202117 0.27440441356 0.89350773834 
-0.75603597687 0.034351336827 0.65362801909 -0.83646867823 -0.01307596703 0.54785871302 -0.77735421782 0.032690129087 0.62821316088 
-0.52556654 0.20455058879 0.82579590012 -0.10538627431 0.40788145444 0.90693244088 -0.086283400424 0.41586621627 0.90532340353 
-0.2283867587 0.33862113306 0.91278432102 -0.34397000167 0.24597738497 0.90618969539 -0.40351390608 0.17089630653 0.89887205987 
-0.42934621018 0.11389288829 0.89592981968 -0.44307508224 0.051259309908 0.89501785158 -0.45072153609 -0.085818237312 0.88852986841 
-0.40099120797 -0.46976929109 0.78646224593 -0.30354952456 -0.72562673752 0.61751398684 -0.33959259448 -0.65666161533 0.67340358829 
-0.39681101399 -0.53784964302 0.74381367336 -0.41798349329 -0.49321727026 0.7629066284 -0.1352614029 -0.85861467053 0.49445444727 
0.60355484755 -0.46993905917 -0.64411088073 0.62186387922 -0.3384369554 -0.70621933062 0.62276068028 -0.33237167269 -0.70830657649 
0.61938723405 -0.3465768475 -0.70444584112 0.61096639801 -0.36970948171 -0.70002497072 0.5973416558 -0.39483715742 -0.69805914174 
0.58024343965 -0.4156000908 -0.70042423949 0.56281055748 -0.42882351034 -0.70665031901 0.51363067436 -0.45049182693 -0.73023328069 
-0.98620083774 0.10970309475 0.12398846174 -0.7371851783 0.38053493306 0.55834682556 -0.71022177496 0.40462104839 0.57607884666 
-0.71022177496 0.40462104839 0.57607884666 
