# vtk DataFile Version 4.2
vtk output
ASCII
DATASET POLYDATA
POINTS 64 float
0 0 0 -0.897668 0.503574 -0.1831 -1.82002 0.796375 -0.294578 
-2.83842 0.897711 -0.34021 -3.84142 0.766712 -0.301888 -4.8035 0.462678 -0.196675 
-5.71734 0.0485423 -0.0464054 -6.59934 -0.423935 0.121515 -7.47114 -0.921468 0.26932 
-8.34773 -1.42722 0.338638 -9.21827 -1.93662 0.235124 -10.0063 -2.4488 -0.142907 
-10.6057 -2.9659 -0.775788 -11.0009 -3.50045 -1.54173 -11.2405 -4.06794 -2.34767 
-11.3691 -4.68 -3.14641 -11.4125 -5.34707 -3.90942 -11.3815 -6.08448 -4.60573 
-11.2701 -6.91619 -5.17232 -11.0418 -7.87141 -5.42232 -10.6889 -8.69078 -4.96477 
-10.3717 -8.99164 -4.0503 -10.139 -8.94059 -3.06614 -9.98691 -8.68622 -2.09589 
-9.91642 -8.31383 -1.15495 -9.92936 -7.88242 -0.236845 -10.0283 -7.44243 0.67193 
-10.2142 -7.04741 1.58763 -10.4837 -6.76804 2.52457 -10.8158 -6.70329 3.48008 
-11.1505 -6.95291 4.40281 -11.4066 -7.51727 5.20438 -11.5488 -8.28737 5.84845 
-11.5909 -9.16393 6.35705 -11.5563 -10.0943 6.75996 -11.4641 -11.0533 7.0776 
-11.3279 -12.0284 7.3224 -11.16 -13.0121 7.50553 -10.9731 -13.9996 7.64454 
-10.7784 -14.9877 7.76737 -10.5846 -15.9728 7.91378 -10.3947 -16.9441 8.13672 
-10.2014 -17.8711 8.49987 -9.97129 -18.6919 9.04852 -9.63609 -19.3278 9.76293 
-9.12508 -19.7289 10.5406 -8.42628 -19.9074 11.2526 -7.59472 -19.9176 11.8329 
-6.69551 -19.8132 12.2906 -5.77011 -19.6316 12.6646 -4.83922 -19.3987 12.9941 
-3.91268 -19.1355 13.3129 -2.99622 -18.8613 13.651 -2.09587 -18.5951 14.0355 
-1.22108 -18.3535 14.4889 -0.38558 -18.1484 15.0265 0.394113 -17.9864 15.6549 
1.09974 -17.8746 16.375 1.71289 -17.8283 17.1817 2.22461 -17.8815 18.0559 
2.65268 -18.0897 18.9496 3.05112 -18.5251 19.7861 3.43531 -19.1344 20.4427 
3.87822 -19.9517 20.9203 
LINES 1 65
64 0 1 2 3 4 5 6 7 8 9 10 11 12 13 14 15 16 17 18 19 20 21 22 23 24 25 26 27 28 29 30 31 32 33 34 35 36 37 38 39 40 41 42 43 44 45 46 47 48 49 50 51 52 53 54 55 56 57 58 59 60 61 62 63 

CELL_DATA 1
FIELD FieldData 2
Length 1 1 double
63.878829387 
Tortuosity 1 1 double
1.1900342142 
POINT_DATA 64
SCALARS MaximumInscribedSphereRadius float
LOOKUP_TABLE default
0.62 0.767646 1.00831 1.48786 1.7256 1.462 1.2555 1.16391 1.19358 
1.33671 1.83881 2.01122 1.6852 1.71387 1.84837 1.86 1.82452 1.66724 
1.47924 1.26729 1.52542 1.84104 2.1401 2.42477 1.96872 1.44114 1.54996 
1.72534 1.49627 1.3893 1.84623 2.21407 2.4372 2.48 2.41161 2.10913 
2.02128 2.39243 2.64895 2.24645 1.86309 1.86 2.07076 2.45773 2.59676 
2.38173 1.98559 1.64692 1.42733 1.2968 1.53532 1.86243 2.18106 2.4963 
2.73596 2.81128 2.43083 2.24739 2.33711 2.72715 2.94218 2.58518 2.20456 
1.86 
TEXTURE_COORDINATES TCoords 2 float
0 0 0.015873 0 0.031746 0 0.047619 0 0.0634921 
0 0.0793651 0 0.0952381 0 0.111111 0 0.126984 0 
0.142857 0 0.15873 0 0.174603 0 0.190476 0 0.206349 
0 0.222222 0 0.238095 0 0.253968 0 0.269841 0 
0.285714 0 0.301587 0 0.31746 0 0.333333 0 0.349206 
0 0.365079 0 0.380952 0 0.396825 0 0.412698 0 
0.428571 0 0.444444 0 0.460317 0 0.47619 0 0.492063 
0 0.507937 0 0.52381 0 0.539683 0 0.555556 0 
0.571429 0 0.587302 0 0.603175 0 0.619048 0 0.634921 
0 0.650794 0 0.666667 0 0.68254 0 0.698413 0 
0.714286 0 0.730159 0 0.746032 0 0.761905 0 0.777778 
0 0.793651 0 0.809524 0 0.825397 0 0.84127 0 
0.857143 0 0.873016 0 0.888889 0 0.904762 0 0.920635 
0 0.936508 0 0.952381 0 0.968254 0 0.984127 0 
1 0 
FIELD FieldData 7
Curvature 1 64 double
0 0.21068478155 0.2213987468 0.24195897606 0.18662973768 0.12523837348 0.066889135286 0.032757995376 0.076934098439 
0.16941093741 0.28478387249 0.31660197669 0.24121902948 0.16045994198 0.11685400224 0.10477903557 0.11914803392 0.17598421388 
0.36160191109 0.82842999561 0.77175088248 0.37138404716 0.21585473701 0.1430478682 0.10202631332 0.084615446496 0.09558519469 
0.14094538847 0.22092406088 0.31556456336 0.34761263519 0.28097432995 0.19563945261 0.1379327757 0.10407851208 0.084304755973 
0.067960435026 0.046837257317 0.017459722354 0.023111032409 0.07575658403 0.14370873088 0.21340148208 0.26718156519 0.29874559737 
0.29715575 0.24862151068 0.17731422237 0.11391332018 0.066267907655 0.031511147884 0.023701872688 0.048373156288 0.07540341432 
0.097232581412 0.11207427737 0.12500680264 0.13930677183 0.15381181635 0.17385236691 0.23065059187 0.25000696781 0.27142146877 
0 
Torsion 1 64 double
0 0 0.0091971691295 0.012542612587 0.018339312092 -0.010760252205 -0.26847509343 -1.6649293312 -0.18505580137 
0.091908243053 0.13384119967 0.16792611918 0.23888175025 0.31872493123 0.35089403809 0.3188717609 0.24657306441 0.15879464962 
0.0396587475 -0.0049671001496 -0.0098899112483 0.022689022719 0.1242505809 0.24585255086 0.41760563631 0.60331571445 0.56350822407 
0.3694570682 0.2281299187 0.14400886223 0.10554321469 0.089262176743 0.064543448311 0.026407278406 -0.010981640209 -0.036750031044 
-0.05011930281 -0.030487271551 0.33412618185 0.15536123545 -0.088720913497 -0.15954534635 -0.24243706271 -0.31512930379 -0.31695685993 
-0.23714123178 -0.12982503743 -0.019542361314 0.086586241597 0.23026938339 0.79239555596 1.2432484059 0.25990704432 0.066705864372 
0.0041670479807 -0.0069157555265 0.031408363564 0.13464289038 0.30764468785 0.47503628807 0.32304250347 0.24283704739 0 
0 
Abscissas 1 64 double
0 1.0454283448 2.0195368049 3.0439872165 4.0562340793 5.0706736179 6.0851687658 7.0997453314 8.1143433132 
9.1287436912 10.142665624 11.155656942 12.169206309 13.183388455 14.19778746 15.212248498 16.226668582 17.241352843 
18.253862151 19.267312953 20.269933048 21.283509213 22.296111884 23.310609912 24.325011176 25.339508258 26.354025947 
27.36847363 28.382663237 29.396293713 30.409109317 31.422324977 32.436279653 33.450582146 34.465013572 35.479502989 
36.494022925 37.508584489 38.523175471 39.53778397 40.552370954 41.566873746 42.581017751 43.594804148 44.608272286 
45.621551551 46.635070092 47.649103037 48.663479229 49.677987212 50.692561115 51.707163349 52.721753681 53.736304237 
54.750805487 55.765263854 56.779683459 57.794047117 58.808370516 59.822768708 60.835346325 61.859052264 62.833734077 
63.878852123 
ParallelTransportNormals 3 64 double
-0.19985801275 0 0.97982486942 -0.12947037054 -0.030496670872 0.99111420947 -0.049377460676 -0.046981895677 0.99767458014 
0.044079005638 -0.045546026898 0.99798927885 0.11779065969 -0.029234941464 0.99260801865 0.1668585502 -0.010450043209 0.98592546413 
0.18722852323 -0.00039339221546 0.98231630615 0.17202964638 -0.008799756923 0.98505246817 0.10561242377 -0.046912181472 0.99330018785 
-0.040605574641 -0.13187107892 0.99043485695 -0.26716551217 -0.27142647063 0.92463520382 -0.4642907369 -0.41765767645 0.78102252011 
-0.5582767403 -0.51702478304 0.64885472563 -0.58801144933 -0.56864575156 0.57522564676 -0.59443771879 -0.58923252495 0.54721917914 
-0.59432768119 -0.58841407165 0.54821846709 -0.59412367886 -0.56530771322 0.57222744044 -0.59970527136 -0.50382614668 0.62170153725 
-0.63197041498 -0.33408018715 0.69928808308 -0.75483881133 0.040478628239 0.65466010232 -0.88387768948 0.25670233367 0.39097844176 
-0.93713274719 0.2808796325 0.20709622446 -0.96173313349 0.26137167481 0.082184107718 -0.97334859331 0.22865622465 -0.017574038303 
-0.97601511338 0.19141698812 -0.103701664 -0.97130651472 0.15472953002 -0.18061679601 -0.96072313261 0.12370109848 -0.24841316532 
-0.94719767844 0.10367587824 -0.30342687791 -0.93792059543 0.098370475076 -0.33260818737 -0.94374727309 0.096753969571 -0.3161957525 
-0.9634268591 0.069644472253 -0.25876308596 -0.97988513144 0.014513720324 -0.19903386924 -0.9864665509 -0.044295846791 -0.15786583514 
-0.98667341154 -0.094108923431 -0.13273691833 -0.98402174419 -0.13362549499 -0.11766662246 -0.98041159417 -0.1641974114 -0.10877645011 
-0.97700702116 -0.18613018815 -0.10398477612 -0.97471052331 -0.19888632473 -0.10190007643 -0.97365220838 -0.20436539846 -0.10117391476 
-0.97323209942 -0.20649927739 -0.1008827492 -0.97198371984 -0.21286460826 -0.099681025887 -0.96697083874 -0.23769939813 -0.09201300538 
-0.95073619472 -0.30470536658 -0.057055478555 -0.90432517166 -0.42428916666 0.046633539004 -0.79659976602 -0.55629128921 0.23657729039 
-0.62270238421 -0.63961040551 0.4507108495 -0.43385766639 -0.66290438361 0.61018464706 -0.28117597386 -0.65458999091 0.70174925402 
-0.17745183389 -0.63833077987 0.74902914637 -0.11694463973 -0.62482039729 0.77196076479 -0.092837422219 -0.61838133775 0.78037538029 
-0.10110702016 -0.62079263771 0.77742772747 -0.13872695402 -0.63198188645 0.76246555819 -0.20068435539 -0.64970374521 0.73321949849 
-0.27835006351 -0.6699856904 0.68821538548 -0.36250784717 -0.68911375236 0.62746338304 -0.4487264981 -0.70500892354 0.54918753412 
-0.53580854188 -0.71545284913 0.44837085891 -0.62153589881 -0.71492881403 0.32026538582 -0.69951232652 -0.69322375622 0.17356073537 
-0.76716590371 -0.64065287677 0.031943194556 -0.81473118543 -0.57687271101 -0.058574489074 -0.84768680035 -0.5201773783 -0.10412772738 
-0.84768680035 -0.5201773783 -0.10412772738 
FrenetTangent 3 64 double
-0.90622735783 0.39653234944 -0.14667675945 -0.90622735783 0.39653234944 -0.14667675945 -0.97692554684 0.19839860433 -0.079085205475 
-0.99988581074 -0.014672791088 -0.0036158941374 -0.97388706459 -0.2156008655 0.071135449807 -0.92643787134 -0.35467375927 0.12617208502 
-0.88556736559 -0.43720800055 0.15690635825 -0.864411188 -0.47809773733 0.15561443257 -0.86235517702 -0.49484848571 0.10709119875 
-0.86451701548 -0.50231863684 -0.016920905077 -0.82656537417 -0.50911483399 -0.23998284947 -0.69316721516 -0.5142338762 -0.50505715755 
-0.49410478991 -0.52244626304 -0.69491751944 -0.31395493838 -0.54503858711 -0.77740930997 -0.1817984333 -0.58240279518 -0.79231074322 
-0.084894820877 -0.63134624448 -0.77084031353 -0.0061224916536 -0.69342597464 -0.72050186175 0.070521938866 -0.77708429443 -0.62543317427 
0.17037646121 -0.89623255182 -0.40955961045 0.3093396899 -0.94451361308 0.11046714874 0.35384296393 -0.59153262524 0.72448899933 
0.27600115331 -0.12538261796 0.95294415497 0.1909432668 0.15155750901 0.96983039256 0.10999127558 0.30972276798 0.94444360673 
0.028402772083 0.39670475827 0.91750673965 -0.055190871608 0.42986427583 0.90120512208 -0.14055088713 0.41202624608 0.90026652757 
-0.2250577474 0.33328243369 0.9155718594 -0.29850615996 0.17074800497 0.93900968646 -0.33312613112 -0.092358884079 0.93834791911 
-0.29596228055 -0.4077645415 0.86379071956 -0.19842465157 -0.66479940645 0.72018706377 -0.091308312605 -0.81580785469 0.57106946712 
-0.003705686457 -0.89282540093 0.45038769005 0.062584251293 -0.93252605507 0.35563797338 0.11267182357 -0.95410845512 0.27745651199 
0.14995589522 -0.96591127773 0.211018087 0.17489759686 -0.97169651384 0.15879771916 0.18806503528 -0.97364226397 0.12904373027 
0.19147097278 -0.97248703574 0.13269450591 0.18923914811 -0.96488641 0.18216135873 0.18939061424 -0.93820315556 0.28966538305 
0.20999380099 -0.86683587714 0.45221473401 0.28136090723 -0.72501660692 0.62863897395 0.42216948739 -0.51735417995 0.74439074175 
0.60349667096 -0.28912492237 0.74310063074 0.760662839 -0.093792862899 0.64233553866 0.85666121954 0.046625257389 0.51376808028 
0.90081145652 0.14119904902 0.41061118878 0.91535816478 0.20439442691 0.34690394695 0.91548428937 0.24451592734 0.31953165287 
0.90831529957 0.26485607626 0.32375079216 0.89562372627 0.26639807602 0.35621651566 0.87549925742 0.25044657652 0.41325241991 
0.84396118275 0.22042948452 0.48901979956 0.79737921818 0.18122771105 0.57562392165 0.73358351882 0.1352268111 0.6660097075 
0.65167219318 0.078125001677 0.75446659087 0.55615758199 -0.0034118831485 0.8310698545 0.46543606401 -0.12945988455 0.87556233851 
0.40863633038 -0.31820370823 0.8554313237 0.39462144188 -0.52676300531 0.75285765842 0.41325628247 -0.71279310789 0.56669677107 
0.41325628247 -0.71279310789 0.56669677107 
FrenetNormal 3 64 double
-0.42262450828 -0.85933636067 0.28797490209 -0.42262450828 -0.85933636067 0.28797490209 -0.21336785109 -0.92308782176 0.31997348866 
0.012574606714 -0.94054970425 0.33942323595 0.22676039467 -0.90838692682 0.35130174293 0.37609593703 -0.85755071096 0.35093963055 
0.46404065103 -0.84786830378 0.25648706328 0.30338518808 -0.74279084986 -0.59684100145 -0.062848285472 -0.10525622377 -0.99245716299 
0.032608905498 -0.022462473281 -0.99921574076 0.28522233327 -0.011307110122 -0.95839468376 0.59593031548 -0.014717669069 -0.80290126996 
0.83707548728 -0.06994457672 -0.54259781126 0.94915396016 -0.20019970326 -0.24295439641 0.92642295571 -0.37158070445 0.060566386862 
0.79232583285 -0.51186922272 0.33197842313 0.60887730662 -0.57413796822 0.54738836206 0.44905509007 -0.53513628111 0.71552685954 
0.32483890318 -0.34131778206 0.88203279907 0.17534438824 0.17082550121 0.96957361435 -0.057570696041 0.7593584418 0.64812064604 
-0.22849405314 0.95447244202 0.19176241838 -0.36951522982 0.9264292035 -0.072023786615 -0.55712628454 0.80611415587 -0.19947498785 
-0.79675348945 0.56327249351 -0.21887890512 -0.98929572937 0.098568808968 -0.10760181106 -0.88614568236 -0.45790094764 0.071221849064 
-0.57989421913 -0.80094805167 0.14901313079 -0.27974563112 -0.9563072453 0.084963724343 -0.0091315435528 -0.99482827105 -0.10115990328 
0.22733656319 -0.90838860028 -0.3509248323 0.40294738104 -0.72515948253 -0.55837006816 0.50251130636 -0.53284322151 -0.68085276549 
0.54305340077 -0.37998795999 -0.74880047688 0.53928747645 -0.2682393095 -0.79825853618 0.50789386002 -0.18469877466 -0.84138587437 
0.45359068831 -0.12243336649 -0.88276019294 0.39426138319 -0.078670421777 -0.91562488305 0.43436879751 -0.035387635097 -0.90003970081 
-0.038121241721 0.12772542425 0.99107668065 -0.049808174279 0.17584209993 0.9831575162 0.023506017616 0.29925197848 0.95388454255 
0.17014182059 0.48787017099 0.8561743147 0.3900292755 0.68495356496 0.61539887724 0.58612686595 0.78220265787 0.21122097207 
0.62867136338 0.74578717299 -0.22039466751 0.52586887378 0.66918413792 -0.52502811081 0.37241331482 0.63327210279 -0.67843552882 
0.22319136466 0.66058863866 -0.71680420284 0.079602678325 0.75270120425 -0.65353218033 -0.13437288843 0.93436280832 -0.33001525614 
-0.41342796546 0.45083734681 0.79108975729 -0.32315489133 -0.16061720815 0.93261622796 -0.32908524009 -0.31720973715 0.88942728057 
-0.39333129655 -0.36555820999 0.84359805966 -0.48512242679 -0.37484795923 0.79002863143 -0.57782571866 -0.39175268752 0.71599390408 
-0.64818237809 -0.45923541111 0.6074227868 -0.64489748918 -0.63252620491 0.4289729928 -0.46735403846 -0.87603708963 0.11890845357 
-0.14511207709 -0.94798548695 -0.28331255111 0.021440719601 -0.81385115923 -0.58067769559 0.10808140668 -0.57953015496 -0.80775194771 
0.10808140668 -0.57953015496 -0.80775194771 
FrenetBinormal 3 64 double
-0.011853308159 0.32295992798 0.94633840882 -0.011853308159 0.32295992798 0.94633840882 -0.009520296482 0.32946451573 0.94411995892 
-0.0083812143931 0.33933900901 0.94062680815 -0.011122447187 0.35825892588 0.93355601503 -0.016270116832 0.37257657283 0.92785881505 
0.020897731715 0.29994750157 0.95372678536 0.40093730895 -0.46870492522 0.78712449293 0.50238793942 -0.86258107071 0.059667870589 
0.50154460343 -0.86439078222 0.03579925132 0.48521943781 -0.86062432866 0.15455698656 0.40544576815 -0.85752370859 0.31664936176 
0.23487248707 -0.84979859874 0.4718869106 -0.023217592213 -0.81415785777 0.58017921889 -0.32968141711 -0.72300398633 0.60710410884 
-0.60416276282 -0.58257344465 0.54368698495 -0.79324078348 -0.43534585232 0.4257264947 -0.89071666776 -0.33131429185 0.31121480973 
-0.93029648416 -0.28331852163 0.23297868327 -0.93464608369 -0.28055780658 0.21845826924 -0.93353134486 -0.27104226634 0.23463869676 
-0.93360260874 -0.27066872102 0.23478631223 -0.90939494379 -0.34461464328 0.23289822634 -0.82311130618 -0.50423384922 0.26122021923 
-0.6036366122 -0.72480992875 0.33207440069 -0.13508489011 -0.8974970163 0.41982279381 0.44157816721 -0.78775700232 0.42947366339 
0.78298895583 -0.49739826892 0.37352812093 0.91248915299 -0.23732166228 0.33322961195 0.94283805379 -0.042267572095 0.33055991389 
0.92775234601 0.092510699833 0.36154855122 0.89345456838 0.17940310499 0.4117686974 0.85973552854 0.2248013468 0.45860568624 
0.83968998553 0.24180974696 0.4862599865 0.83979296808 0.24174951802 0.4861120666 0.85401925454 0.23571893965 0.46377547839 
0.87850368068 0.22809093433 0.41976875624 0.90220219039 0.22274840008 0.36934314387 0.8808832444 0.22531856803 0.41626464256 
-0.98075768542 -0.19482089548 -0.01261670213 -0.98066696212 -0.19512501552 -0.014783021278 -0.98162042683 -0.17384789983 0.07872893592 
-0.96278469267 -0.10285066051 0.24993474588 -0.87676291216 0.072038417155 0.47549685837 -0.69154046948 0.347136363 0.63345727918 
-0.49047332751 0.6001735348 0.63184463528 -0.38059686408 0.73715363963 0.55834625335 -0.3569872237 0.77252348133 0.52513578521 
-0.37245715799 0.73735030958 0.56355140531 -0.39469335409 0.62583050051 0.67272084913 -0.37925247892 0.25918739111 0.88825078301 
0.063565980919 -0.85240656121 0.51900136848 0.30566167104 -0.95038633068 -0.057764741164 0.35384170897 -0.91468819549 -0.19529861756 
0.36471908801 -0.904310808 -0.22181512432 0.35894653285 -0.90920048626 -0.21097834568 0.35773266524 -0.91007886548 -0.20924578571 
0.39393268126 -0.88487248872 -0.24863169817 0.52420985535 -0.77453144491 -0.35398455954 0.75163120814 -0.46454187743 -0.46824285479 
0.9010875843 -0.0083616149494 -0.43355651168 0.91859360609 0.24528967946 -0.30986894004 0.90417788877 0.39505795124 -0.16245479564 
0.90417788877 0.39505795124 -0.16245479564 
