# vtk DataFile Version 4.2
vtk output
ASCII
DATASET POLYDATA
POINTS 64 float
0 0 0 -0.868915 0.102108 0.568093 -1.7525 -0.0150052 0.966442 
-2.6864 -0.366408 1.194 -3.54957 -0.895034 1.22017 -4.36047 -1.49903 1.13376 
-5.1509 -2.12062 0.998704 -5.94784 -2.7307 0.850096 -6.7612 -3.31621 0.691863 
-7.58637 -3.87293 0.495714 -8.39406 -4.40414 0.188381 -9.09414 -4.91564 -0.336415 
-9.54951 -5.4048 -1.09775 -9.71679 -5.87418 -1.98066 -9.6604 -6.34327 -2.8781 
-9.44963 -6.83327 -3.74095 -9.1307 -7.36316 -4.545 -8.73418 -7.95509 -5.26714 
-8.28614 -8.64453 -5.86149 -7.84517 -9.50721 -6.16339 -7.66721 -10.3979 -5.78214 
-7.82501 -10.9562 -4.93883 -8.07127 -11.3326 -4.0311 -8.30599 -11.6661 -3.10194 
-8.46886 -12.019 -2.16484 -8.5072 -12.4309 -1.23879 -8.39165 -12.9194 -0.357542 
-8.13884 -13.4804 0.448803 -7.80163 -14.1018 1.17635 -7.44189 -14.7739 1.84587 
-7.10598 -15.49 2.48127 -6.8159 -16.2433 3.09581 -6.57031 -17.0267 3.69195 
-6.34962 -17.8333 4.26647 -6.12259 -18.6561 4.81489 -5.85482 -19.4858 5.33391 
-5.51819 -20.3086 5.8227 -5.0945 -21.1073 6.28275 -4.5738 -21.8614 6.71796 
-3.95234 -22.5467 7.13411 -3.2314 -23.135 7.5379 -2.41913 -23.5943 7.93537 
-1.53444 -23.8936 8.33083 -0.607772 -24.0135 8.72519 0.325725 -23.9581 9.118 
1.23916 -23.756 9.51026 2.12105 -23.4494 9.90711 2.97298 -23.0822 10.3179 
3.80322 -22.6976 10.7563 4.62094 -22.3397 11.2386 5.43027 -22.0594 11.7821 
6.22307 -21.9172 12.3985 6.97227 -21.9749 13.0792 7.63669 -22.2678 13.7867 
8.18533 -22.7773 14.4705 8.61829 -23.4447 15.0997 8.95454 -24.2134 15.6699 
9.21245 -25.0459 16.1891 9.40254 -25.9201 16.6676 9.52768 -26.8226 17.1149 
9.58658 -27.74 17.5372 9.56866 -28.6812 17.9485 9.48148 -29.5752 18.3286 
9.28407 -30.518 18.7301 
LINES 1 65
64 0 1 2 3 4 5 6 7 8 9 10 11 12 13 14 15 16 17 18 19 20 21 22 23 24 25 26 27 28 29 30 31 32 33 34 35 36 37 38 39 40 41 42 43 44 45 46 47 48 49 50 51 52 53 54 55 56 57 58 59 60 61 62 63 

CELL_DATA 1
FIELD FieldData 2
Length 1 1 double
63.883178064 
Tortuosity 1 1 double
0.72697677953 
POINT_DATA 64
SCALARS MaximumInscribedSphereRadius float
LOOKUP_TABLE default
0.93 1.23007 1.46039 1.36029 1.26793 1.24235 1.24005 1.30325 1.63358 
1.72864 1.56832 1.44298 1.44814 1.53504 1.55 1.43273 1.13953 1.075 
1.41753 1.38527 1.24 1.36342 1.50475 1.35425 1.31612 1.4622 1.39867 
1.32516 1.48796 1.67332 1.79269 1.69636 1.69348 1.99184 2.07159 1.90002 
1.72412 1.62368 1.72274 1.74403 1.44052 1.3934 1.70987 1.78262 1.67891 
1.60463 1.55 1.55054 1.66299 2.00382 1.86712 1.3434 1.6195 1.92695 
2.02189 1.97676 1.87585 1.86 1.86 1.86 1.86 1.86088 1.98544 
2.17 
TEXTURE_COORDINATES TCoords 2 float
0 0 0.015873 0 0.031746 0 0.047619 0 0.0634921 
0 0.0793651 0 0.0952381 0 0.111111 0 0.126984 0 
0.142857 0 0.15873 0 0.174603 0 0.190476 0 0.206349 
0 0.222222 0 0.238095 0 0.253968 0 0.269841 0 
0.285714 0 0.301587 0 0.31746 0 0.333333 0 0.349206 
0 0.365079 0 0.380952 0 0.396825 0 0.412698 0 
0.428571 0 0.444444 0 0.460317 0 0.47619 0 0.492063 
0 0.507937 0 0.52381 0 0.539683 0 0.555556 0 
0.571429 0 0.587302 0 0.603175 0 0.619048 0 0.634921 
0 0.650794 0 0.666667 0 0.68254 0 0.698413 0 
0.714286 0 0.730159 0 0.746032 0 0.761905 0 0.777778 
0 0.793651 0 0.809524 0 0.825397 0 0.84127 0 
0.857143 0 0.873016 0 0.888889 0 0.904762 0 0.920635 
0 0.936508 0 0.952381 0 0.968254 0 0.984127 0 
1 0 
FIELD FieldData 7
Curvature 1 64 double
0 0.26924527638 0.29688583033 0.27256627673 0.14203669464 0.054072612259 0.018395601844 0.030198581115 0.047679227332 
0.11249859801 0.24024280975 0.34188603122 0.31253198262 0.22068382593 0.15607817581 0.1262751324 0.12562894382 0.16515115033 
0.33975539873 0.84538120099 0.73323781126 0.20669484816 0.047982742512 0.072804711209 0.13497612635 0.17403209102 0.16876627745 
0.12716140221 0.078120777372 0.058888255131 0.060879580053 0.055204555061 0.039184076406 0.030478800869 0.049295071994 0.073466643621 
0.092311311539 0.10683027028 0.12044158213 0.13620812952 0.15469612874 0.17202849519 0.18061273493 0.17183144633 0.14467193753 
0.10646970781 0.06713677393 0.038081330021 0.051410292085 0.096602805022 0.15355104837 0.21091211341 0.24844406688 0.24363252101 
0.1995901237 0.14853153676 0.11031683886 0.087042830214 0.075283347215 0.070474597193 0.076753732543 0.072725823534 0.10007893053 
0 
Torsion 1 64 double
0 0 -0.022494152032 -0.032035022431 -0.097140001557 -0.40615645041 -1.7549585345 0.29188336279 0.80015668431 
0.39879838838 0.19262791066 0.14817430644 0.17151018365 0.23117636488 0.28643349713 0.32964093464 0.34881893153 0.35045476621 
0.18336112571 0.045810100784 0.013261679956 -0.1415033289 -2.0546281921 -0.53752757788 -0.11598708845 -0.077554702807 -0.11331771805 
-0.23562900845 -0.5619754067 -0.63822463094 -0.22535660784 0.060513278518 0.48588982967 1.0538393974 0.43229685024 0.20417937202 
0.14805464774 0.13742584787 0.13351603847 0.12274822078 0.10626223852 0.086964078592 0.071885218682 0.067325435257 0.079822581451 
0.13464629193 0.34229671464 1.1285933871 0.65721938931 0.19974918884 0.091624110577 0.059289720148 0.045236924867 0.035757439169 
0.024522801886 0.0029242295485 -0.036197852441 -0.089134056158 -0.12895959518 -0.1578422459 -0.12466685058 -0.15782261025 0 
0 
Abscissas 1 64 double
0 1.0431532501 2.0194353692 3.042878024 4.0553957308 5.0702039236 6.0847915943 7.0993858132 8.1139829029 
9.1285344744 10.142930472 11.156416807 12.169469968 13.183290383 14.197499964 15.211919278 16.226307916 17.240752619 
18.255301529 19.270099221 20.25513664 21.278744077 22.291800661 23.306520366 24.321036737 25.335290761 26.349466874 
27.363791238 28.378292055 29.392856398 30.407416498 31.421972281 32.436551383 33.45114629 34.465736216 35.480296777 
36.49482269 37.509305995 38.523760497 39.538168267 40.552522293 41.566811271 42.581028986 43.595230473 44.609521813 
45.623947508 46.638470086 47.65304706 48.667643945 49.682198088 50.696629232 51.710826363 52.724763746 53.738544072 
54.752548719 55.766830045 56.781270952 57.795770283 58.810259006 59.825286459 60.836928178 61.864206172 62.8396475 
63.883108634 
ParallelTransportNormals 3 64 double
0.54722024493 0 0.83698865198 0.41118320469 -0.0017277785642 0.91155108851 0.25156412734 -0.042416025559 0.9669107356 
0.10111380362 -0.11618705514 0.98806708625 0.0216149106 -0.16996780801 0.98521253538 -0.01301671887 -0.1964734944 0.98042273078 
-0.024937640383 -0.20572314635 0.97829244153 -0.035939791061 -0.21389180904 0.97619599745 -0.069981895465 -0.23762261125 0.96883333393 
-0.16151702851 -0.29860991852 0.94060850839 -0.33108364576 -0.41587862973 0.84701156122 -0.49943365889 -0.56168210009 0.65960536596 
-0.57245365953 -0.67407371576 0.46682055803 -0.57982608237 -0.73644231693 0.34850312485 -0.5717191964 -0.76554690945 0.29508488591 
-0.56811508486 -0.77248625646 0.28374325355 -0.57756901169 -0.75766251649 0.30391042734 -0.61184144296 -0.70566436774 0.35733436551 
-0.71447654062 -0.5264773408 0.46080894362 -0.9010631932 0.0055858741251 0.43365184177 -0.90838774055 0.4062481865 0.098965265495 
-0.87655101692 0.47973655058 -0.03887359995 -0.8743006473 0.48305817138 -0.047467685885 -0.88833250032 0.45883209004 0.01839788101 
-0.90187937267 0.40733419947 0.14384869518 -0.8952062717 0.32952238925 0.3000345415 -0.86468554004 0.24256271579 0.439866168 
-0.82948551024 0.17201700737 0.53137927837 -0.8097352432 0.13536191145 0.57096934143 -0.80766176585 0.13122441611 0.57485878666 
-0.81378977076 0.14560893242 0.56262265134 -0.81938247501 0.16165305165 0.54998240929 -0.82045984154 0.16532680876 0.54727752989 
-0.81563872731 0.14778026888 0.55936969765 -0.80344936415 0.10707200584 0.58566603522 -0.78219187071 0.04895533712 0.62111130433 
-0.7508141603 -0.017966011738 0.66026912628 -0.70937745451 -0.086098741041 0.69955030828 -0.65884024348 -0.14978506279 0.73722043416 
-0.60038663756 -0.20524272514 0.77292387026 -0.5357784097 -0.24939051088 0.80668821039 -0.46899849243 -0.27924498725 0.83789178967 
-0.40623733876 -0.29376862445 0.86525789212 -0.35557535098 -0.29552475315 0.88669684225 -0.32246389859 -0.29090907848 0.90077130403 
-0.30837051664 -0.28691560398 0.90696585418 -0.31220786561 -0.28840693156 0.90517826447 -0.33397542339 -0.29813544762 0.89418995266 
-0.3752136949 -0.31671530129 0.87115216873 -0.43945737771 -0.34191350043 0.83064575566 -0.52948555522 -0.36565507149 0.76546810222 
-0.6398390911 -0.37169621384 0.67264244745 -0.75131447982 -0.34405162483 0.56316519057 -0.84005379465 -0.28535627306 0.46139074495 
-0.89646746584 -0.2177160143 0.38593499427 -0.92879126776 -0.1573703389 0.33553145511 -0.94780976497 -0.1061180712 0.3006586177 
-0.9601200884 -0.05922250627 0.27324368356 -0.96862976067 -0.011264426444 0.24825289412 -0.97384945585 0.040386250201 0.22357591135 
-0.97526871229 0.10384105869 0.19511015701 -0.971631825 0.16624590301 0.16820789633 -0.95789998713 0.2559662362 0.13003422854 
-0.95789998713 0.2559662362 0.13003422854 
FrenetTangent 3 64 double
-0.8756491318 -0.0074974551055 0.48288962107 -0.8756491318 -0.0074974551055 0.48288962107 -0.91861102842 -0.23680194195 0.31635204876 
-0.89096180371 -0.43630579155 0.12579475581 -0.82787838696 -0.5601159711 -0.029790524075 -0.78936267595 -0.60414278195 -0.10916988983 
-0.78230513862 -0.60700501278 -0.13979837104 -0.79366032251 -0.58926431254 -0.15123115561 -0.8077304781 -0.56307430235 -0.17469632158 
-0.80608605057 -0.53707303098 -0.24855148052 -0.74893473495 -0.51793149909 -0.41333246308 -0.57841093549 -0.50092407289 -0.64382906342 
-0.31093534305 -0.47867001049 -0.82109331595 -0.055015899215 -0.46560180202 -0.88328263471 0.13210474344 -0.47424828575 -0.87042340284 
0.26162218506 -0.50373001764 -0.82329211196 0.35335234339 -0.55405421171 -0.75376790321 0.41769287447 -0.63372572236 -0.65109474843 
0.44435639618 -0.77580004431 -0.44797509353 0.33256243565 -0.94211696846 0.042636183421 0.010626057119 -0.76373500606 0.64544242767 
-0.19947629816 -0.46144273252 0.86445347537 -0.23726558135 -0.3501905989 0.90613000632 -0.19606528167 -0.33848788333 0.92031753116 
-0.099410172161 -0.37785844886 0.9205110593 0.038210303344 -0.44560028877 0.89441620925 0.18225151496 -0.51925502244 0.83496024274 
0.29142511098 -0.58401558137 0.75762603269 0.34375172733 -0.63798388295 0.68906553756 0.34297852931 -0.68442846115 0.64336879781 
0.30865236795 -0.72450627444 0.61629893238 0.26409367781 -0.75761703531 0.59688437502 0.22983230556 -0.78372096985 0.57702560839 
0.22067247545 -0.80309958588 0.55347512476 0.24391820306 -0.81462165282 0.52620858314 0.29806561391 -0.81494596918 0.49701102314 
0.37514550393 -0.80005612445 0.46816241691 0.46614209751 -0.7664483049 0.44189200133 0.56398914464 -0.71076354493 0.4203943719 
0.66325573803 -0.62926267314 0.4051176547 0.75810351055 -0.51799113204 0.3961871457 0.83972068621 -0.3753844052 0.39237191219 
0.89669396546 -0.20752103963 0.39099226389 0.92046654418 -0.031916028898 0.38951599214 0.91282536645 0.1272663323 0.38801176661 
0.8861441632 0.25108604095 0.38949239027 0.85497840019 0.33226380772 0.39826209622 0.82914595938 0.37056440255 0.41856779811 
0.81240798306 0.36603531501 0.45388480611 0.80287188582 0.31492078636 0.50618339885 0.7921348085 0.20889531648 0.57348512789 
0.76458777365 0.041899249598 0.64315627127 0.70257741806 -0.17424990029 0.68994343527 0.60269431078 -0.39866298356 0.69125060094 
0.48640549659 -0.5831817045 0.65062185056 0.38022769468 -0.70987778733 0.59287471463 0.293303829 -0.79042355296 0.53777641341 
0.22101076105 -0.84196197653 0.49219332946 0.15543238698 -0.8760468643 0.45648950112 0.090867496557 -0.898553255 0.42935433618 
0.020113655573 -0.91224532298 0.40915023103 -0.052515436185 -0.91699063174 0.39543686002 -0.14114006776 -0.91094639616 0.38762887483 
-0.14114006776 -0.91094639616 0.38762887483 
FrenetNormal 3 64 double
-0.27386557383 -0.8158611419 -0.50928208747 -0.27386557383 -0.8158611419 -0.50928208747 -0.022469632492 -0.76796453923 -0.6400981035 
0.21970445968 -0.65666293349 -0.72147331356 0.37309187805 -0.51023387729 -0.77489601947 0.36485344588 -0.31862424383 -0.87484887511 
-0.34378863037 0.60790952431 -0.71572018826 -0.52808244727 0.79072575419 -0.30964772007 -0.2415611022 0.58639781456 -0.77316611216 
0.15037600022 0.22032286498 -0.96376599531 0.43923850939 0.079017350958 -0.89488870264 0.71671466534 0.064847813706 -0.69434490676 
0.92025965686 0.064321821403 -0.38598557906 0.99799398269 0.0021111825052 -0.063273639208 0.96722635923 -0.1304254426 0.21785860994 
0.83582246523 -0.3083176952 0.45424773575 0.60247301077 -0.48162591416 0.6364454023 0.30494339959 -0.57725643634 0.75748566307 
-0.021117433757 -0.50898784088 0.86051463197 -0.34484919186 -0.079402597462 0.93529367708 -0.50970486083 0.55118932966 0.66059918083 
-0.42721179291 0.83488196992 0.3470766202 0.24207060923 0.88202874507 0.40426119405 0.95942364813 -0.26017124369 0.1087068874 
0.90062955155 -0.4274910021 -0.078216711744 0.86630100376 -0.43135153348 -0.25190955809 0.79624432303 -0.42027073828 -0.43516374456 
0.64730147209 -0.46274586387 -0.60569552558 0.28018578811 -0.63067779079 -0.72369983304 -0.39341413786 -0.72661313318 -0.56325719775 
-0.73180340458 -0.59478223172 -0.33271290008 -0.78389549429 -0.52915512352 -0.32481180595 -0.61746016737 -0.57571333322 -0.53600102581 
0.20237910762 -0.51741213992 -0.83146098781 0.80293736268 -0.13465655098 -0.58065411813 0.91230773715 0.090042739767 -0.39948328846 
0.91869660206 0.25358619917 -0.3028045458 0.88468879539 0.40726910471 -0.22684270248 0.81633984218 0.55664951906 -0.15404731415 
0.71346919322 0.69508502274 -0.088422403774 0.57778342674 0.81522242998 -0.039732876121 0.41250663101 0.9108837165 -0.011363731688 
0.22791827629 0.97366222373 -0.00592734503 0.038468627766 0.99921899176 -0.0090316770395 -0.13637735212 0.99064851415 -0.0040913619226 
-0.28932429061 0.95631988203 0.041758090123 -0.43493821914 0.8776185093 0.20153038895 -0.55394358367 0.44381739554 0.7043952197 
-0.23643782786 -0.50475025036 0.83025558614 -0.08301290654 -0.78175470896 0.61803594748 -0.10458453708 -0.87925319649 0.46473206373 
-0.20202228239 -0.93201748568 0.30088270772 -0.33691842231 -0.93545321198 0.10683288305 -0.46968964812 -0.8775329284 -0.096579469972 
-0.56995973954 -0.77617710087 -0.26962010941 -0.63676397607 -0.6658270852 -0.38885206878 -0.69226914342 -0.56355292519 -0.45074553085 
-0.75871167904 -0.46553325759 -0.45567024718 -0.83992395428 -0.36043775341 -0.40572450867 -0.91229318172 -0.24798967164 -0.32591758675 
-0.96848132152 -0.11939943229 -0.21860399228 -0.98922800681 -0.0064121578947 -0.14624238363 -0.98997330323 0.13211813927 -0.049976556225 
-0.98997330323 0.13211813927 -0.049976556225 
FrenetBinormal 3 64 double
0.39778919724 -0.5781992609 0.71235480573 0.39778919724 -0.5781992609 0.71235480573 0.3945236293 -0.59510949142 0.70013984256 
0.39738773852 -0.61516749592 0.68091991984 0.41883150185 -0.65263426924 0.63138631889 0.49374945959 -0.73040405959 0.47193366153 
0.51943050326 -0.51185049059 -0.68425216665 0.30204672047 -0.16589259062 -0.93874779735 0.53779151039 -0.58230999744 -0.60966823621 
0.57237429854 -0.81425450233 -0.096836293862 0.49615148358 -0.85176476829 0.16831662083 0.38956498585 -0.8630584188 0.32151094467 
0.2375739388 -0.87563561163 0.420500772 0.031325091281 -0.88499181062 0.46455164814 -0.21684442986 -0.8706766147 0.44147562317 
-0.48265374638 -0.80696732781 0.34036611604 -0.71565941112 -0.67901429241 0.16361906365 -0.8558867832 -0.51494341002 -0.047865424018 
-0.89560116523 -0.37291509636 -0.24255490871 -0.87777061996 -0.3257465967 -0.35129459642 -0.86028369842 -0.33600470739 -0.38342247567 
-0.88187260444 -0.30007115972 -0.36367294185 -0.940801182 0.31526470989 -0.12450421134 0.20264419245 0.90428804968 0.37576382805 
0.42306504056 0.82126392576 0.38280743946 0.49805877525 0.78445920048 0.36954190449 0.5768703176 0.74414160495 0.33685888508 
0.70432393749 0.66692733201 0.24317838081 0.89628716051 0.44183943838 -0.038042562923 0.85298947506 -0.05992525561 -0.51847653677 
0.6076162381 -0.3483170325 -0.71377710251 0.56192738265 -0.38211422776 -0.73363910308 0.75227658015 -0.23309997719 -0.61623400393 
0.95412072369 0.29549235627 0.048351959778 0.54387085033 0.56414464106 0.62124497755 0.28080506146 0.57249923348 0.77032015754 
0.12354110348 0.54369498556 0.83014056546 -0.0061057549681 0.49667783549 0.86791350231 -0.12452110984 0.43006568815 0.89416888622 
-0.22595029607 0.34768563293 0.90997866148 -0.30239937016 0.25903199954 0.91730967734 -0.35313941796 0.17139837617 0.9197364558 
-0.37946434832 0.094429297348 0.92037487806 -0.38892352168 0.023297502263 0.92097541806 -0.38490397269 -0.049181318375 0.92164533836 
-0.36199444319 -0.14969329734 0.92008257229 -0.28256093279 -0.34552353642 0.89485909787 0.075256123733 -0.81590939631 0.57326117334 
0.53300133453 -0.78182180382 -0.32351853805 0.59034362223 -0.53822344184 -0.60150638762 0.60131898337 -0.42810812093 -0.67463984245 
0.61203965052 -0.35998313748 -0.70414459234 0.62679418339 -0.30751302484 -0.71593630389 0.64509782375 -0.26646535443 -0.71613197994 
0.6622352967 -0.23968355727 -0.70992690058 0.67078948931 -0.22966893492 -0.70519050005 0.65934535485 -0.24008062696 -0.71247806675 
0.61278938599 -0.27272479929 -0.74169424446 0.51996973383 -0.32035373803 -0.79183644677 0.39932974928 -0.36208171824 -0.84227820858 
0.24827277485 -0.39185743104 -0.88589411501 0.13663849933 -0.39885719942 -0.90677607763 -0.0056868418848 -0.39079593217 -0.920459776 
-0.0056868418848 -0.39079593217 -0.920459776 
