# vtk DataFile Version 4.2
vtk output
ASCII
DATASET POLYDATA
POINTS 64 float
0 0 0 -0.777931 -0.224151 0.637565 -1.74876 -0.362801 0.795369 
-2.74439 -0.448918 0.632408 -3.71882 -0.542745 0.366119 -4.70298 -0.737482 0.236126 
-5.56102 -1.11965 0.591263 -6.17967 -1.5587 1.26466 -6.74724 -2.00237 1.97913 
-7.38953 -2.48137 2.59987 -8.1485 -3.06334 2.91977 -8.79424 -3.78504 2.664 
-8.98285 -4.51454 1.99513 -8.78333 -5.1405 1.22512 -8.37553 -5.658 0.454429 
-7.87161 -6.11054 -0.300894 -7.33381 -6.57343 -1.0231 -6.82403 -7.24412 -1.56598 
-6.82472 -8.04659 -1.06764 -7.2072 -8.36043 -0.185095 -7.71077 -8.34731 0.693487 
-8.2206 -8.01762 1.5034 -8.61161 -7.47813 2.2673 -8.8182 -6.93183 3.09487 
-8.82438 -6.64342 4.06174 -8.69238 -6.83664 5.04207 -8.53681 -7.42349 5.85101 
-8.40562 -8.22948 6.45018 -8.29457 -9.16389 6.82505 -8.17448 -10.1631 6.93644 
-8.00107 -11.1485 6.77822 -7.73436 -12.0688 6.44662 -7.34921 -12.9349 6.08621 
-6.82954 -13.7737 5.85779 -6.19602 -14.5539 5.95578 -5.53618 -15.1538 6.43191 
-4.86902 -15.5189 7.1012 -4.12658 -15.6676 7.77435 -3.2784 -15.6344 8.32753 
-2.36056 -15.4831 8.73091 -1.41618 -15.2729 9.03608 -0.472256 -15.0304 9.31821 
0.451564 -14.7601 9.63865 1.34679 -14.4725 10.0195 2.22179 -14.1961 10.4522 
3.08894 -13.9743 10.9296 3.94455 -13.8672 11.4629 4.74259 -13.9559 12.08 
5.39168 -14.297 12.7774 5.82811 -14.8644 13.4934 6.05354 -15.5932 14.1599 
6.09139 -16.4294 14.731 5.97366 -17.3237 15.1939 5.74625 -18.2337 15.5803 
5.45915 -19.1362 15.9441 5.1528 -20.0299 16.3141 4.85466 -20.9292 16.677 
4.57896 -21.856 16.9835 4.32406 -22.8213 17.1597 4.07412 -23.8035 17.1451 
3.80293 -24.7593 16.9426 3.47957 -25.658 16.6068 3.07857 -26.4746 16.2074 
2.52216 -27.2374 15.7796 
LINES 1 65
64 0 1 2 3 4 5 6 7 8 9 10 11 12 13 14 15 16 17 18 19 20 21 22 23 24 25 26 27 28 29 30 31 32 33 34 35 36 37 38 39 40 41 42 43 44 45 46 47 48 49 50 51 52 53 54 55 56 57 58 59 60 61 62 63 

CELL_DATA 1
FIELD FieldData 2
Length 1 1 double
63.719108485 
Tortuosity 1 1 double
1.0177686154 
POINT_DATA 64
SCALARS MaximumInscribedSphereRadius float
LOOKUP_TABLE default
0.93 1.11667 1.32645 1.52067 1.35003 1.24 1.24 1.24 1.24 
1.43057 1.44329 1.14833 1.01941 1.49754 1.37242 1.30306 1.54044 2.0905 
2.09427 1.67096 1.06108 1.14569 1.24 1.33379 1.53044 1.57037 1.78697 
1.71774 1.55308 1.55212 1.70828 1.85006 1.87577 2.04214 1.92748 1.6146 
1.83581 1.87693 1.84751 1.71652 1.46005 1.4808 1.62894 1.84094 1.66833 
1.5594 1.62857 2.01613 2.18306 2.01666 1.64768 1.95636 1.97617 1.86027 
1.86167 2.01705 2.23141 2.4213 2.30663 2.26093 2.45592 2.48 2.37761 
2.17 
TEXTURE_COORDINATES TCoords 2 float
0 0 0.015873 0 0.031746 0 0.047619 0 0.0634921 
0 0.0793651 0 0.0952381 0 0.111111 0 0.126984 0 
0.142857 0 0.15873 0 0.174603 0 0.190476 0 0.206349 
0 0.222222 0 0.238095 0 0.253968 0 0.269841 0 
0.285714 0 0.301587 0 0.31746 0 0.333333 0 0.349206 
0 0.365079 0 0.380952 0 0.396825 0 0.412698 0 
0.428571 0 0.444444 0 0.460317 0 0.47619 0 0.492063 
0 0.507937 0 0.52381 0 0.539683 0 0.555556 0 
0.571429 0 0.587302 0 0.603175 0 0.619048 0 0.634921 
0 0.650794 0 0.666667 0 0.68254 0 0.698413 0 
0.714286 0 0.730159 0 0.746032 0 0.761905 0 0.777778 
0 0.793651 0 0.809524 0 0.825397 0 0.84127 0 
0.857143 0 0.873016 0 0.888889 0 0.904762 0 0.920635 
0 0.936508 0 0.952381 0 0.968254 0 0.984127 0 
1 0 
FIELD FieldData 7
Curvature 1 64 double
0 0.5471643232 0.33228135649 0.10322064205 0.16665825276 0.56666577615 0.41111280733 0.063909820864 0.12197743085 
0.34088571015 0.65607185591 0.67393178477 0.42399148978 0.23191754491 0.11414452805 0.047197078689 0.27690406578 1.9180848598 
0.88094674504 0.35069238368 0.3243562259 0.24279450729 0.19191657339 0.35845355816 0.52534178207 0.44180935584 0.30395131919 
0.2569057342 0.26954337447 0.27333246212 0.20403900313 0.13030509147 0.18705079799 0.35343972752 0.42973293251 0.30380876199 
0.22615014297 0.23937037842 0.19968700533 0.11466860356 0.038563459415 0.049995876995 0.067157767902 0.055202871249 0.069072064355 
0.125064577 0.21744979909 0.30335626823 0.3109864663 0.26824575604 0.23333888629 0.19479441075 0.13148677851 0.062504063399 
0.02142829214 0.011865149167 0.064824211142 0.13427379789 0.18814475438 0.18743634723 0.15099511787 0.12805526695 0.15753421354 
0 
Torsion 1 64 double
0 0 0.077990660247 0.91997719113 0.49439449138 0.052596087186 0.034057252311 -0.5026218854 0.11919635478 
0.27507275814 0.23849086082 0.21035572767 0.12316258154 -0.0055879713054 0.17058408018 3.3636268993 0.067124394995 0.0068506610729 
0.020576414621 -0.061023114001 -0.26471523256 -0.63357681217 -1.2185721458 -0.42318477732 -0.1860599914 -0.1265550379 -0.038917576863 
0.096435014159 0.16469243721 0.21291119959 0.42646237099 1.1195925088 0.61329772589 0.11947336069 -0.076358782833 -0.40653563523 
-0.66602101541 -0.32282725759 -0.15112180817 0.013911434342 1.294217706 0.58513325616 0.29118313179 0.65704007613 0.43704562986 
0.014573864802 -0.054923456118 -0.02318566446 0.023144875166 0.06720821408 0.058183818043 -0.0079434769989 -0.1320738704 -0.43907685737 
-0.83644122167 -0.80499662676 -0.26819903652 -0.17193278489 -0.15359830995 -0.21024677245 -0.36386724505 -0.55321069006 0 
0 
Abscissas 1 64 double
0 1.03049004 2.0237893979 3.0363297908 4.0508423462 5.0624652175 6.0666651697 7.081045938 8.0956533369 
9.1092174626 10.117704764 11.119329244 12.126865674 13.139062887 14.153007626 15.167516961 16.179981847 17.182187299 
18.126801777 19.138567715 20.151313407 21.163531133 22.17717746 23.190093097 24.199083327 25.206953908 26.218370067 
27.231209853 28.244112486 29.256658593 30.269594045 31.283527172 32.297670132 33.310500229 34.320286842 35.331184193 
36.344278627 37.357421877 38.370590641 39.384518024 40.399004696 41.413584456 42.428064175 43.442566207 44.457095674 
45.471489573 46.485391121 47.498107293 48.510034649 49.522462509 50.535488582 51.548857175 52.562712819 53.577097417 
54.591664691 55.606270017 56.620844767 57.635207319 58.649048473 59.662638224 60.676630184 61.688983255 62.682592491 
63.71914396 
ParallelTransportNormals 3 64 double
0.6338784223 0 0.77343270279 0.17292032352 -0.095024121975 0.98034125587 -0.14899450439 -0.13190617696 0.98000071334 
-0.24832255436 -0.14097830485 0.95836372352 -0.10661028694 -0.12008918698 0.98702220537 0.37094637493 0.02968025316 0.92817986915 
0.65845728079 0.18938456714 0.72840064189 0.69461248305 0.21628909266 0.6860995021 0.62143511615 0.16048294633 0.76685306308 
0.39533974291 -0.010712444456 0.91847249889 0.025522087848 -0.35414860752 0.93484083502 -0.14387736842 -0.64830922157 0.74765931819 
-0.1428614274 -0.7857902979 0.60176757996 -0.10829588105 -0.85089449714 0.51405306816 -0.082609445103 -0.87822551554 0.4710579831 
-0.093731994761 -0.86845159297 0.48683276782 -0.23667888436 -0.71360397065 0.65935762585 -0.6146400219 0.4165241595 0.66986959032 
-0.46359935151 0.87898194685 0.11165293724 -0.3108149073 0.93086688415 -0.19204410271 -0.15361063459 0.87767511832 -0.45397154053 
-0.070450193054 0.79745937857 -0.59924561728 -0.083880451066 0.82186355689 -0.5634752557 -0.11688419154 0.95150200666 -0.28457339492 
-0.08531179486 0.97530561547 0.20371758416 -0.023252389 0.80708500725 0.58997721776 0.019688665423 0.59854674521 0.8008458967 
0.050520694197 0.37703361532 0.92482069201 0.081238508064 0.12006372793 0.98943671149 0.11924181957 -0.13691662798 0.98337949208 
0.15565671061 -0.2946100929 0.94285517531 0.16351320358 -0.31614195931 0.93451468358 0.10272501621 -0.20160964985 0.97406422793 
-0.08230899047 0.058114666067 0.99491100892 -0.33676125857 0.32964428433 0.88200141754 -0.49916424483 0.44777141527 0.7418462215 
-0.54243061622 0.46354222352 0.70064087349 -0.49752753663 0.46028120615 0.7352601999 -0.4190495374 0.46847682995 0.77777049636 
-0.36467247029 0.47903432864 0.79846108321 -0.36209030135 0.479653376 0.79926419446 -0.40861671869 0.46688159493 0.78425375582 
-0.46804562539 0.44865420543 0.76134269321 -0.50584222734 0.436611884 0.74397157458 -0.51713786632 0.43338163551 0.73807098928 
-0.51512145704 0.43376664762 0.73925393466 -0.52054080701 0.43370671745 0.73548334548 -0.54010009384 0.43951801313 0.71771568519 
-0.5557303267 0.45259765585 0.69736587665 -0.55889309389 0.45879082987 0.69076007704 -0.55755589528 0.45084304692 0.69704517119 
-0.55813901404 0.43820491083 0.70459725881 -0.55807082801 0.4385613871 0.70442945755 -0.55288381652 0.45683389543 0.6968660398 
-0.5474212118 0.4733674725 0.69011104386 -0.55098423986 0.46279895332 0.69443033936 -0.56887890246 0.40585267086 0.71530441345 
-0.60018512154 0.29421136026 0.74378592039 -0.63731325108 0.15098075503 0.75566965773 -0.66916182028 0.032540434336 0.74240391864 
-0.68727248479 -0.023943270702 0.72600499408 -0.68538182214 -0.019472602132 0.72792346827 -0.64667883678 0.044641255532 0.76145494966 
-0.64667883678 0.044641255532 0.76145494966 
FrenetTangent 3 64 double
-0.89446274882 -0.18556689861 0.40681853094 -0.89446274882 -0.18556689861 0.40681853094 -0.99352765645 -0.11356058833 -0.0026055035658 
-0.97320777012 -0.088892164481 -0.21204909639 -0.97007658208 -0.14292382331 -0.19627584068 -0.94787529636 -0.29683751384 0.11584434781 
-0.74651792909 -0.41515416442 0.51995961507 -0.58494223837 -0.43528199242 0.68437720947 -0.59766286708 -0.4557927806 0.65958474699 
-0.70291917733 -0.5322180321 0.47185654223 -0.73256645803 -0.67987341716 0.033444300101 -0.43629557331 -0.75885722146 -0.48350996902 
0.0055190174831 -0.68568147777 -0.72788079483 0.30177603391 -0.56818293155 -0.76557127797 0.45021532032 -0.47901427586 -0.75355921391 
0.51407512493 -0.45175253498 -0.72914087326 0.52491523923 -0.56800758742 -0.63390170552 0.32649026119 -0.94476885213 -0.028564407844 
-0.21093429091 -0.61452593983 0.7601740552 -0.44429953986 -0.15079264066 0.88309653968 -0.50698444565 0.17150104675 0.84472135218 
-0.44797003441 0.43222610357 0.7826259922 -0.29626142131 0.53828270462 0.78897458777 -0.10689335916 0.41935011504 0.9015094513 
0.064404882783 0.048725926766 0.99673356276 0.14575334779 -0.3953743056 0.9068820872 0.14329048134 -0.69598434619 0.70361468703 
0.12057222817 -0.86626456333 0.48481753693 0.11515631586 -0.9633529231 0.2422605384 0.14625692571 -0.98897135161 -0.023336181496 
0.21828500595 -0.94516374801 -0.24293444717 0.3221263376 -0.88277579394 -0.34196713329 0.4483869548 -0.84486909058 -0.29179677611 
0.57891385411 -0.81275549261 -0.065477162069 0.65432535309 -0.69820835156 0.29045383474 0.6631568252 -0.4822504668 0.57241375984 
0.70016723171 -0.25521122774 0.66680812598 0.79064931456 -0.057411795012 0.60957160956 0.87561236103 0.09147700831 0.47427307552 
0.91961874997 0.17851965462 0.34990296885 0.93080347548 0.22314967952 0.28949803206 0.92078390246 0.25280621934 0.29706231741 
0.89705217427 0.27512542476 0.34583724105 0.87279958415 0.27807695831 0.40111605698 0.85917499417 0.24569671563 0.44883343606 
0.85106043156 0.1624800141 0.49929589108 0.82086283442 0.0091337547597 0.57105234576 0.72294859686 -0.21471698461 0.65669014217 
0.54266350145 -0.45416898481 0.70657402827 0.32971669362 -0.64572328129 0.68871499617 0.13082169909 -0.77763586446 0.61495377497 
-0.039594343219 -0.85775933793 0.51252434691 -0.1705371035 -0.89152276164 0.41964778303 -0.25370652016 -0.89374925563 0.36992603273 
-0.29247911284 -0.88524873556 0.3616498925 -0.29790490158 -0.88362660116 0.36118790031 -0.28298445823 -0.90052655911 0.33010863778 
-0.26221796701 -0.9350600956 0.23854633806 -0.25012533035 -0.96489731453 0.080065545246 -0.25817015141 -0.9600940837 -0.10755242148 
-0.29425845581 -0.9178415471 -0.26641857217 -0.36184236423 -0.85685000539 -0.36725763671 -0.47309679047 -0.78044804166 -0.40875454875 
-0.47309679047 -0.78044804166 -0.40875454875 
FrenetNormal 3 64 double
-0.43493263857 0.1499088788 -0.88789691291 -0.43493263857 0.1499088788 -0.88789691291 -0.016646404137 0.16825077275 -0.98560366005 
0.21856024022 -0.071260731162 -0.97321802778 -0.073797688072 -0.596578645 0.79915444162 0.22203837577 -0.35455209242 0.90829057765 
0.61455913795 -0.13072044351 0.77796480101 0.77953844624 -0.068713009231 0.62257395801 -0.60302413193 -0.28659978416 -0.74446118773 
-0.35518343778 -0.31211340294 -0.88115262539 0.17900812712 -0.2398195508 -0.95417119715 0.74631216618 -0.0050068133122 -0.66557725505 
0.93696740837 0.25785563377 -0.23580192488 0.8847191572 0.46611601731 0.0028055822987 0.8191470984 0.55746037003 0.13504061253 
0.7210617546 -0.23277522364 0.6525991429 -0.081921663082 -0.77501272862 0.62661320733 -0.41806844424 -0.17144648951 0.89209017323 
-0.50495118456 0.73437738685 0.4535572234 -0.34600673282 0.93812918263 -0.01389163574 -0.020166745971 0.97737774571 -0.21053751338 
0.48670701753 0.8521914026 -0.19205752371 0.94356447362 0.036914251723 0.32912523777 0.56325568782 -0.72163932988 0.40246702685 
0.27582457959 -0.96076603409 0.029144965901 0.05358708178 -0.91217045952 -0.40629235465 -0.080781065587 -0.71680396059 -0.69257959942 
-0.077723436048 -0.49511906216 -0.86534165609 0.033452812339 -0.23998366029 -0.97020036701 0.19353860717 0.051740081196 -0.97972739654 
0.44891000182 0.31828672622 -0.83496908337 0.88747219352 0.40734235214 -0.21555814499 0.70940130933 0.13776524893 0.69120946066 
0.32981853108 0.15997073722 0.93039190656 0.060885191097 0.43148391256 0.90006367925 0.01929538412 0.77552854352 0.63101756421 
0.32834674978 0.94440986285 0.016686008052 0.43648415741 0.75103310398 -0.495409787 0.33977861547 0.58122380568 -0.73941150936 
0.22141149342 0.50020657271 -0.83712026328 -0.014138979023 0.81340524691 -0.5815255743 -0.38908522853 0.54108409113 0.74554724282 
-0.41419607371 0.2505901142 0.87501211831 -0.3567316047 -0.19744604545 0.91310329171 -0.10939510563 -0.76868922556 0.6301980525 
-0.086442601504 -0.89458515288 0.43845761584 -0.25651296312 -0.88745302659 0.3829206515 -0.48837167774 -0.83114106598 0.26589026464 
-0.68448207064 -0.72666988963 0.058610293339 -0.78151655485 -0.59594787545 -0.18460228664 -0.79410561198 -0.45354339327 -0.40459197651 
-0.78481116933 -0.29078212056 -0.54728163394 -0.81385598613 -0.11264422734 -0.57004360526 -0.92850294359 0.11782120928 -0.35213697107 
-0.87171219518 0.4023011938 0.27977061718 0.67067970817 -0.46298966215 -0.57950780995 0.33587686934 -0.41542734984 -0.84534421726 
0.15030248459 -0.28375291689 -0.94704458463 0.025609961052 -0.08925851058 -0.99567918939 -0.11082318945 0.14002267855 -0.98392676057 
-0.34148088186 0.36133030611 -0.86765846807 -0.65852665217 0.51377971582 -0.54988458061 -0.83735964864 0.54256060067 -0.066759369683 
-0.83735964864 0.54256060067 -0.066759369683 
FrenetBinormal 3 64 double
0.10377856657 -0.97112937047 -0.21479700865 0.10377856657 -0.97112937047 -0.21479700865 0.11236410949 -0.97918112229 -0.16905217139 
0.07140068335 -0.99348884809 0.088779790094 -0.23131218329 0.78972571255 0.56817952515 -0.22854186101 0.8866680913 0.40198048912 
-0.25500597542 0.90031060496 0.35272194019 -0.22396961536 0.89766815107 0.37951218947 0.52835688093 -0.84268232737 -0.10356399715 
0.61623806736 -0.78697470735 0.030355466135 0.65673622939 -0.69300701273 0.29738662598 0.50265726228 -0.65123778242 0.56852882725 
0.34937317598 -0.68069918699 0.64388430695 0.35525095108 -0.67816223332 0.64334496738 0.355393017 -0.67807319617 0.64336035322 
-0.46453924697 -0.86124058334 0.20607752335 -0.84720294661 -0.27698853968 -0.45334811805 -0.8477162764 -0.27931687611 -0.45095365332 
-0.83697731518 -0.28818001834 -0.46521097462 -0.82636387852 -0.31172939583 -0.4689856331 -0.86171925488 -0.12377452543 -0.49205669656 
-0.74995941714 0.294873547 -0.59212368972 0.14803801661 0.84195550234 -0.51884070553 0.81933927033 0.55080137853 -0.15906288541 
0.95904786761 0.2730465378 -0.075317832072 0.9878686078 0.10781563544 -0.11176494298 0.98637835408 0.042401319984 -0.15893354165 
0.98965721605 0.066654486778 -0.12702666692 0.9927839303 0.11982899624 0.0045912303663 0.9701297435 0.13877546499 0.19897148314 
0.86650531819 0.073205528208 0.49377067977 0.32958720902 -0.23404936611 0.91465467029 -0.54378205293 -0.51693032023 0.66112337951 
-0.74570670245 -0.56021234587 0.36067109873 -0.75375813482 -0.5712501475 0.32484141235 -0.74823172436 -0.40741866116 0.52360225477 
-0.63399862741 0.20726128483 0.7450426164 -0.42936609289 0.6577637589 0.61886314784 -0.34329795468 0.80858570644 0.47784481755 
-0.32446618511 0.84730402898 0.42047303979 -0.36524646378 0.53719281904 0.76027553944 0.027743285777 -0.80207045937 0.59658468662 
0.15407468699 -0.92817595062 0.3387482775 0.3331117652 -0.94004694797 -0.073131986795 0.49985101806 -0.59055058923 -0.63356054273 
0.51790329066 -0.4163143635 -0.74730083117 0.51027963591 -0.46080766065 -0.72613428033 0.48871098892 -0.51293386023 -0.70573396145 
0.48682709371 -0.51544292093 -0.70520775385 0.52964023303 -0.4773757155 -0.70113739724 0.59353345321 -0.435408834 -0.67685832136 
0.61846884843 -0.42390408886 -0.66166578193 0.55547774949 -0.43874644559 -0.70636111607 0.27113702325 -0.43281685585 -0.85974082369 
-0.39315876859 -0.23342755977 -0.88934681481 0.67929478039 0.069603178488 0.73055732074 0.89839107578 -0.12834341954 0.42002552495 
0.95323181908 -0.21247799835 0.21494696861 0.96787470729 -0.24699411067 0.04703679709 0.95972203976 -0.24210121838 -0.14255036465 
0.89263809492 -0.16433899202 -0.41974983883 0.65985813008 0.042877405288 -0.75016583252 0.27387633282 0.31069092178 -0.91019937675 
0.27387633282 0.31069092178 -0.91019937675 
