# vtk DataFile Version 4.2
vtk output
ASCII
DATASET POLYDATA
POINTS 64 float
0 0 0 -0.679435 0.567826 -0.552059 -1.4322 1.17885 -0.679716 
-2.23126 1.78681 -0.495079 -2.98508 2.29405 -0.0470417 -3.68698 2.67008 0.58078 
-4.32639 2.87087 1.34159 -4.89005 2.83822 2.18334 -5.36518 2.53151 3.02423 
-5.76437 1.98488 3.7791 -6.13332 1.29479 4.42461 -6.52643 0.557116 4.99964 
-6.98704 -0.155231 5.55602 -7.54275 -0.794658 6.11389 -8.20684 -1.34118 6.65158 
-8.98159 -1.80026 7.11817 -9.85528 -2.19529 7.44842 -10.7916 -2.56106 7.58071 
-11.7258 -2.94067 7.47579 -12.5668 -3.38178 7.12194 -13.1862 -3.92334 6.53159 
-13.4479 -4.55634 5.7864 -13.3264 -5.21924 5.03011 -12.9166 -5.86307 4.3626 
-12.3175 -6.47564 3.8202 -11.5851 -7.05632 3.42677 -10.7509 -7.59694 3.22746 
-9.85398 -8.06052 3.31598 -9.01951 -8.34377 3.80998 -8.42955 -8.36536 4.63184 
-8.08633 -8.19401 5.57025 -7.9012 -7.92156 6.52966 -7.81297 -7.60817 7.49053 
-7.78745 -7.30491 8.45837 -7.80779 -7.07576 9.44636 -7.87149 -7.01333 10.4564 
-7.9878 -7.21083 11.4434 -8.15969 -7.67454 12.3282 -8.37154 -8.33238 13.0703 
-8.59953 -9.12124 13.6655 -8.81644 -10.0053 14.1127 -8.99331 -10.9597 14.4069 
-9.10484 -11.9578 14.5484 -9.13358 -12.9717 14.5553 -9.06684 -13.9797 14.4633 
-8.88808 -14.9678 14.3195 -8.56864 -15.9205 14.181 -8.07004 -16.8011 14.1193 
-7.38125 -17.5397 14.2021 -6.55801 -18.0823 14.4377 -5.67264 -18.442 14.7773 
-4.76328 -18.6619 15.1694 -3.84228 -18.777 15.5789 -2.91255 -18.8095 15.9837 
-1.97533 -18.7748 16.3706 -1.0336 -18.6892 16.7383 -0.0915345 -18.5743 17.0971 
0.846154 -18.4573 17.4665 1.77282 -18.3667 17.8695 2.67722 -18.3274 18.3279 
3.53978 -18.3565 18.8572 4.34283 -18.4726 19.4845 5.02068 -18.6602 20.1584 
5.60568 -18.9556 20.9729 
LINES 1 65
64 0 1 2 3 4 5 6 7 8 9 10 11 12 13 14 15 16 17 18 19 20 21 22 23 24 25 26 27 28 29 30 31 32 33 34 35 36 37 38 39 40 41 42 43 44 45 46 47 48 49 50 51 52 53 54 55 56 57 58 59 60 61 62 63 

CELL_DATA 1
FIELD FieldData 2
Length 1 1 double
63.879683616 
Tortuosity 1 1 double
1.2164938576 
POINT_DATA 64
SCALARS MaximumInscribedSphereRadius float
LOOKUP_TABLE default
1.116 0.863978 0.75662 0.869263 0.752334 0.69216 0.906997 1.13186 0.96785 
0.729475 0.923326 1.1616 1.2772 1.33795 1.50893 1.66226 1.7546 1.78446 
1.90995 1.88696 1.68603 1.37816 1.2772 1.39739 1.66447 1.71863 1.61097 
1.34566 1.26044 1.22568 1.14481 1.22242 1.30947 1.37065 1.21673 1.16674 
1.23377 1.24 1.24 1.36544 1.49205 1.33011 1.56665 2.09802 1.6238 
1.38936 1.74459 1.86 1.75514 1.57975 1.55884 1.55 1.50542 1.28193 
1.21539 1.41598 1.25581 1.02787 1.16325 1.24 1.24569 1.26679 1.26256 
1.24 
TEXTURE_COORDINATES TCoords 2 float
0 0 0.015873 0 0.031746 0 0.047619 0 0.0634921 
0 0.0793651 0 0.0952381 0 0.111111 0 0.126984 0 
0.142857 0 0.15873 0 0.174603 0 0.190476 0 0.206349 
0 0.222222 0 0.238095 0 0.253968 0 0.269841 0 
0.285714 0 0.301587 0 0.31746 0 0.333333 0 0.349206 
0 0.365079 0 0.380952 0 0.396825 0 0.412698 0 
0.428571 0 0.444444 0 0.460317 0 0.47619 0 0.492063 
0 0.507937 0 0.52381 0 0.539683 0 0.555556 0 
0.571429 0 0.587302 0 0.603175 0 0.619048 0 0.634921 
0 0.650794 0 0.666667 0 0.68254 0 0.698413 0 
0.714286 0 0.730159 0 0.746032 0 0.761905 0 0.777778 
0 0.793651 0 0.809524 0 0.825397 0 0.84127 0 
0.857143 0 0.873016 0 0.888889 0 0.904762 0 0.920635 
0 0.936508 0 0.952381 0 0.968254 0 0.984127 0 
1 0 
FIELD FieldData 7
Curvature 1 64 double
0 0.4387223415 0.32109516303 0.28160187311 0.22534833597 0.22530470946 0.25562316354 0.2861786747 0.26337431622 
0.17929374624 0.086060527621 0.07244869071 0.11687484759 0.14083720413 0.1544682134 0.17660921182 0.20613271191 0.23438903329 
0.27043400996 0.34016323796 0.40649579296 0.38905082263 0.30097913125 0.22564939471 0.19882526011 0.21937494212 0.30316741484 
0.46023736104 0.50400077376 0.33488265973 0.18521850593 0.10250321839 0.062146070791 0.08708263433 0.17009103413 0.26364024387 
0.28879413583 0.24109628883 0.19387580649 0.17272987317 0.16950186552 0.16816068277 0.15532237388 0.13434504586 0.12195366795 
0.14180803672 0.20424608449 0.27566246984 0.28052039417 0.2159092154 0.14783266845 0.10413593168 0.080966451707 0.068034939638 
0.053069656783 0.029755013729 0.011327292951 0.042890506687 0.076582035046 0.10445419739 0.13870854325 0.14330686113 0.18497910182 
0 
Torsion 1 64 double
0 0 -0.0854942389 -0.1089830654 -0.1755425295 -0.18454296244 -0.1755675146 -0.15988291205 -0.17628045908 
-0.28849758408 -0.91581241501 -0.86013776979 -0.056723720227 0.19607397963 0.32879441102 0.33887390983 0.30277836147 0.29037432699 
0.26902050884 0.19002147378 0.12524465225 0.10317666018 0.11435193845 0.14169997875 0.14389393818 0.10808105098 0.044915687899 
-0.00052839924276 -0.015602562822 -0.016301439117 0.039294793307 0.27234944695 0.94824966614 0.53055964557 0.099936389388 -0.00157904745 
-0.018854373872 0.0051529624621 0.06973006195 0.12461132453 0.13108927568 0.12688685369 0.16467047009 0.27988348487 0.44152635909 
0.40754416967 0.21139098398 0.083604222672 0.019841289339 -0.035788427697 -0.10944674274 -0.18210957822 -0.20249720205 -0.14124295616 
-0.028492735522 0.26360607241 2.658116742 0.1507105317 0.0033500621927 -0.036268848435 -0.03363856781 -0.046529010643 0 
0 
Abscissas 1 64 double
0 1.0434692001 2.021375512 3.0422539755 4.055308878 5.0693238302 6.0832203098 7.0967932813 8.110155233 
9.1240565495 10.138469491 11.153042494 12.167512039 13.181866884 14.196168136 15.210414423 16.224536661 17.238477601 
18.252226068 19.265672469 20.278315815 21.290489364 22.303493755 23.317381153 24.331461761 25.345565684 26.359411915 
27.37295427 28.38321102 29.395123622 30.408912345 31.423297143 32.437827691 33.452386506 34.466807372 35.480783326 
36.494016617 37.507671838 38.521737914 39.535927679 40.55015131 41.564353817 42.578589113 43.592911408 44.607311562 
45.621726856 46.636011325 47.649869449 48.663188511 49.676918635 50.691095788 51.705510621 52.720015901 53.734551278 
54.74910315 55.763680631 56.778289167 57.792877355 58.807446152 59.822138248 60.83455084 61.860162509 62.834274381 
63.879672324 
ParallelTransportNormals 3 64 double
-0.63060463619 0 0.77610424095 -0.34490040281 -0.23505301334 0.90873196987 -0.11068915771 -0.41915797229 0.90114066861 
0.1003800261 -0.57070113008 0.81499942975 0.2629431321 -0.66934209688 0.6948683808 0.4123657435 -0.73359922647 0.54017281356 
0.55888530231 -0.75407265877 0.34499513642 0.69093471406 -0.71093055696 0.1310990621 0.78259154991 -0.62148297076 -0.036185398399 
0.8265484369 -0.55071460266 -0.1163232903 0.83190328278 -0.54068192962 -0.12489987623 0.80386273302 -0.58830826917 -0.08773874223 
0.74464620927 -0.66706927344 -0.022816823829 0.6599124286 -0.74945056349 0.053286391046 0.55976046588 -0.81944640067 0.1231901671 
0.4590608586 -0.87162200394 0.17186683901 0.38049704769 -0.90464374806 0.19194188128 0.35083131426 -0.9164655101 0.19237556428 
0.38702648219 -0.89973063558 0.2017307252 0.48108476786 -0.83643497697 0.26255280504 0.57409479853 -0.71243423595 0.40355002384 
0.59090758303 -0.55724614383 0.58335663492 0.53500480609 -0.41970246229 0.73322554552 0.44560519586 -0.30836454108 0.84044471515 
0.33132469536 -0.20595111493 0.92076494531 0.1738233795 -0.093220439208 0.98035472277 -0.072607730308 0.049726265621 0.99612018151 
-0.44429922519 0.2099970191 0.8709187393 -0.77611353915 0.28104784989 0.56449967265 -0.92165951335 0.25772319017 0.29003878826 
-0.96773864704 0.21902454548 0.1245397908 -0.98144434191 0.18965288087 0.028262846941 -0.98475293074 0.17171762848 -0.027833818788 
-0.98483335301 0.16345488444 -0.058187348672 -0.98424993314 0.16143124079 -0.07205569795 -0.98322645452 0.162199639 -0.083408729993 
-0.98036389338 0.168766996 -0.10200165494 -0.97639038819 0.18037995679 -0.11884814276 -0.9743245465 0.18717465646 -0.1251292375 
-0.97652571883 0.17889756997 -0.11997157968 -0.98294621374 0.1489219426 -0.10788417817 -0.99061071484 0.097034760164 -0.096305072392 
-0.9954518693 0.027592985985 -0.091182251772 -0.99385937455 -0.057146288796 -0.094751492294 -0.98097827699 -0.161884101 -0.10712216357 
-0.94586058504 -0.29868583261 -0.12702175823 -0.86514902414 -0.47955616615 -0.14677550725 -0.71558572634 -0.68349842309 -0.14410750812 
-0.52634615988 -0.84385408981 -0.10425926859 -0.35999963387 -0.9317031949 -0.048264067589 -0.23597416736 -0.97175660937 0.0022988001959 
-0.14275246824 -0.98881833936 0.043128002092 -0.067892888461 -0.99478875633 0.076065011523 -0.0055260376152 -0.99471632894 0.10251286678 
0.042592256215 -0.99163564363 0.12183862277 0.070083179394 -0.98871020666 0.13244045914 0.071062262903 -0.98858943531 0.13281973942 
0.044011685515 -0.99160140157 0.12161263069 -0.0063684491285 -0.99517471766 0.097911818424 -0.071328009938 -0.99554908153 0.061598224506 
-0.14903041385 -0.98880274714 0.0076852451172 -0.21743196292 -0.97465687219 -0.052605351417 -0.28882805277 -0.94763502975 -0.13625786701 
-0.28882805277 -0.94763502975 -0.13625786701 
FrenetTangent 3 64 double
-0.72495334077 0.59671226946 -0.34405976397 -0.72495334077 0.59671226946 -0.34405976397 -0.78606629543 0.61746798856 0.0288628187 
-0.77111990637 0.55377932204 0.31416962372 -0.72275021709 0.43853456656 0.5341531219 -0.66567008642 0.2862663892 0.68915520056 
-0.59826488645 0.08361294446 0.79692408745 -0.51774564227 -0.16914113754 0.83864815358 -0.43504032919 -0.42460113317 0.7940112025 
-0.38025886449 -0.61222416973 0.69324221018 -0.37594395541 -0.70435284425 0.60212391846 -0.42103295922 -0.71511328074 0.55798229628 
-0.50181733125 -0.66745097552 0.55017139269 -0.60281037378 -0.58608183537 0.54141272197 -0.71145430606 -0.49723363171 0.49657978803 
-0.81591822357 -0.42275354919 0.39440700943 -0.89731032464 -0.37716571458 0.22930373969 -0.92887438403 -0.37014544215 0.013591554518 
-0.88369976801 -0.40855682785 -0.22837696564 -0.73112171587 -0.49195504025 -0.47269575306 -0.44391434917 -0.59176523876 -0.6728699375 
-0.070511269735 -0.65175308654 -0.75514639311 0.26508614484 -0.65197859953 -0.7103894999 0.50068997202 -0.62351758393 -0.60044597963 
0.65979617214 -0.59128942481 -0.46373033903 0.77721387526 -0.55629399683 -0.29406730724 0.86367617913 -0.50100717938 -0.055274440912 
0.87730893315 -0.37842462934 0.29516747065 0.72563482401 -0.15529201159 0.67032715395 0.46706870453 0.074956959066 0.88103818279 
0.26164187233 0.21977231548 0.93981043833 0.13491403741 0.28913496034 0.94773370586 0.056087456636 0.30405551694 0.95100180853 
0.0025556691154 0.26265828171 0.96488553498 -0.041584660234 0.14427938788 0.98866282132 -0.089571568844 -0.067209818323 0.9937101058 
-0.14367146554 -0.32962196672 0.93311728579 -0.19063641001 -0.55716972513 0.80822005455 -0.21789313491 -0.71668263071 0.6624866705 
-0.22017196576 -0.8278945607 0.51586325888 -0.19483849183 -0.90965257442 0.36683805139 -0.14268753521 -0.96600843813 0.21556429379 
-0.06936050237 -0.99488917535 0.073380170874 0.018774320101 -0.99893932728 -0.042044563566 0.12123981426 -0.98576899516 -0.11644911172 
0.24620582312 -0.95912443066 -0.13950992498 0.40547452459 -0.90870421361 -0.099232364092 0.59132346875 -0.80636600855 0.010507881089 
0.75328095444 -0.63828369256 0.15862449836 0.8475151819 -0.4475642902 0.28531425233 0.88717923082 -0.28651021555 0.36169726124 
0.90339894515 -0.16534427832 0.39564076576 0.91288987916 -0.072805168318 0.40166089677 0.92064149989 0.0010854098827 0.3904075442 
0.92632791895 0.059308400993 0.37202029535 0.92845282679 0.098818303255 0.35806464691 0.92636648096 0.11428288426 0.35886566473 
0.91900157919 0.10233362265 0.38074128634 0.90301287788 0.064061778831 0.42481034695 0.87287293861 0.0050380746814 0.48792156218 
0.81928909114 -0.071422102558 0.56891499225 0.7424557803 -0.15226108236 0.65236184522 0.62802615324 -0.24019998703 0.7401939726 
0.62802615324 -0.24019998703 0.7401939726 
FrenetNormal 3 64 double
-0.28520825816 0.19462707601 0.93849696364 -0.28520825816 0.19462707601 0.93849696364 -0.038666137902 -0.095717932268 0.99465723102 
0.13709682512 -0.33744598073 0.93130804282 0.23023359416 -0.57596346809 0.78438420149 0.27292039667 -0.76612880908 0.581860039 
0.292347028 -0.9032108632 0.31423454906 0.30702641432 -0.95169797648 -0.002396344942 0.28641727782 -0.90128546188 -0.32503793496 
0.16640783292 -0.78260499787 -0.59986486015 -0.27260749266 -0.53696885838 -0.79834178149 -0.9069824855 0.33916064761 -0.24970547874 
-0.79403944822 0.60772670611 0.013023261694 -0.75193590563 0.64423908102 -0.13981559397 -0.70087308145 0.55344246697 -0.4499759543 
-0.54954905659 0.35510301673 -0.75623916978 -0.2996756955 0.13913168363 -0.94384153974 0.0086471621768 -0.058355469687 -0.99825841632 
0.34036193915 -0.22599205523 -0.91273289705 0.6513592809 -0.29721644824 -0.69813571036 0.89290925865 -0.22912036333 -0.38757826941 
0.99671247249 -0.076318406458 -0.027198309116 0.95300287547 0.065081769545 0.29588829416 0.82608865063 0.13693301277 0.54665061174 
0.65845688393 0.15757123993 0.73593874497 0.45773246288 0.17916277098 0.87085113189 0.20693989923 0.25245652809 0.94522038675 
-0.1328083416 0.39957994737 0.90702690702 -0.50615603592 0.53946311899 0.67289346152 -0.74096826705 0.57690109175 0.34373122867 
-0.8380576697 0.53473102186 0.10826853889 -0.92126164298 0.38874094606 0.012548387455 -0.98134020122 -0.15866943209 0.1086067253 
-0.51268590502 -0.82808538532 0.22677688909 -0.2497757384 -0.95960068063 0.12953229032 -0.19787375582 -0.97663110889 -0.08389072593 
-0.19112910744 -0.91590501305 -0.35296978817 -0.16327020287 -0.79385569441 -0.58577809561 -0.081615060517 -0.66303848626 -0.74412293852 
0.062880109806 -0.53978619147 -0.8394503912 0.23138409729 -0.40607751094 -0.88406020984 0.38042640359 -0.25458950179 -0.88907813888 
0.52135725853 -0.098863339854 -0.84759226578 0.69391211661 0.043293473498 -0.71875701706 0.89608641655 0.15915867595 -0.41436415138 
0.9692170579 0.24349421391 0.036453565874 0.86299958678 0.34475307096 0.369292612 0.68554752569 0.50950159754 0.52003145302 
0.47472535664 0.69458828652 0.54053949716 0.28139486925 0.83466617021 0.47344409583 0.15733038402 0.9247257807 0.34659685627 
0.1083119976 0.98073788153 0.1625475897 0.10419255086 0.99293224899 -0.056828349059 0.10734179503 0.96075192847 -0.25579966961 
0.081705355461 0.9323930198 -0.35209017527 0.010367237628 0.95669440315 -0.29090950373 -0.37457648605 0.18036343803 0.90948418696 
-0.24897806818 -0.59814611983 0.76172904691 -0.28447656268 -0.65181420527 0.70300165511 -0.3724663626 -0.63909157681 0.67292701327 
-0.49075631688 -0.60046158094 0.63135103331 -0.6096478704 -0.55719490185 0.56379368165 -0.73814367836 -0.48507844074 0.4688739878 
-0.73814367836 -0.48507844074 0.4688739878 
FrenetBinormal 3 64 double
0.62697599889 0.77849519508 0.029091718032 0.62697599889 0.77849519508 0.029091718032 0.61693168907 0.78075051108 0.099115742819 
0.62175441336 0.76122182875 0.1842899262 0.65163227039 0.68989384499 0.31531233218 0.69454862546 0.57541133315 0.43186109405 
0.74606456882 0.42097388532 0.5159153487 0.79854507125 0.25624643832 0.54466827706 0.85364222889 0.086013916954 0.51370862475 
0.90978658438 -0.11274299669 0.39947138518 0.88563609758 -0.46427525879 0.009858333731 -0.010677932842 -0.61121440659 -0.79139303189 
-0.343046237 -0.43032249065 -0.83495019811 -0.26685585453 -0.49138995587 -0.82904997689 -0.051085165 -0.66817673653 -0.74224669394 
0.1796476742 -0.83377531995 -0.52205883672 0.32408125342 -0.91563551611 -0.23787169404 0.37029394444 -0.92713914318 0.057405608627 
0.32129187726 -0.88431267626 0.33876632096 0.20295842867 -0.81831694426 0.53774088088 0.075187142582 -0.77286335228 0.63010247761 
-0.039904987449 -0.75458161588 0.65499173808 -0.14667942992 -0.75543912331 0.63858975549 -0.25862539168 -0.76972408858 0.58364178588 
-0.36208223269 -0.79091600089 0.49330349311 -0.43176334319 -0.81144173579 0.39388161279 -0.45960780642 -0.82780281929 0.32171906479 
-0.46118432348 -0.83494351041 0.30029710989 -0.46611175643 -0.82756506354 0.31285123641 -0.48250684189 -0.81336743519 0.32499317363 
-0.47875136856 -0.81594292914 0.32408990033 -0.36479471992 -0.87480366458 0.31881555915 0.18391739088 -0.93934778114 0.28948253728 
0.85857243803 -0.49526278043 0.13254488662 0.96741035582 -0.24155742994 0.075942158909 0.976126483 -0.20414337477 0.074179321426 
0.97099339559 -0.22905756073 0.06858906323 0.96798791316 -0.24362888548 0.060368585594 0.97255414433 -0.21620816954 0.085979438059 
0.97343227668 -0.15238590442 0.17090388775 0.95315232866 -0.087368466596 0.28959866958 0.91373739047 -0.044854019215 0.40382186446 
0.85051497911 -0.020532140642 0.52554990393 0.7198149063 -0.015681057783 0.69398890848 0.42700121957 -0.054111034486 0.90263057473 
-0.00099364609805 -0.14419047923 0.98954945221 -0.30136709032 -0.23537623549 0.9239999484 -0.42468946929 -0.30030315078 0.85408247395 
-0.45519626474 -0.33187503678 0.82622958101 -0.45003882499 -0.32096509226 0.83333454599 -0.43377432227 -0.25058756334 0.86547426908 
-0.41489620037 -0.1039926794 0.90390633671 -0.39468466005 0.093728098119 0.914023557 -0.37536244847 0.27740683809 0.88439158661 
-0.3677510319 0.35654700981 0.85885587169 -0.37130562722 0.27380789236 0.88722115015 0.039212230989 -0.97693830541 0.20989032459 
0.30568941593 -0.79482642697 -0.52421840103 0.32193295524 -0.75566813503 -0.57037254671 0.31521681708 -0.76911414904 -0.55596922934 
0.29651917741 -0.79645764048 -0.52700247091 0.27764885813 -0.8163028875 -0.50651822024 0.24642861229 -0.84083462855 -0.48194404912 
0.24642861229 -0.84083462855 -0.48194404912 
