# vtk DataFile Version 4.2
vtk output
ASCII
DATASET POLYDATA
POINTS 64 float
0 0 0 -0.256867 0.565406 0.802176 -0.594938 1.0415 1.63218 
-1.00267 1.43165 2.47523 -1.47208 1.73879 3.32071 -1.99752 1.96416 4.15887 
-2.57567 2.10704 4.98031 -3.20489 2.16478 5.77414 -3.88462 2.13144 6.52666 
-4.61371 1.9974 7.2194 -5.38739 1.75025 7.82748 -6.19289 1.37931 8.32043 
-7.00709 0.884366 8.66903 -7.80158 0.281667 8.856 -8.55382 -0.398577 8.88494 
-9.25478 -1.12379 8.77471 -9.90525 -1.86819 8.54629 -10.5096 -2.613 8.21538 
-11.0699 -3.34411 7.7901 -11.5838 -4.04963 7.27276 -12.0427 -4.71864 6.66348 
-12.433 -5.34276 5.96519 -12.7386 -5.91881 5.18791 -12.9466 -6.45244 4.35042 
-13.0517 -6.95931 3.47779 -13.0575 -7.46061 2.5957 -12.9738 -7.97641 1.726 
-12.8136 -8.52326 0.886524 -12.591 -9.11364 0.0919829 -12.3199 -9.75817 -0.643211 
-12.0145 -10.4689 -1.29977 -11.692 -11.2622 -1.84386 -11.3833 -12.1587 -2.20475 
-11.1639 -13.149 -2.23143 -11.1656 -14.0489 -1.76377 -11.3941 -14.6213 -0.957864 
-11.7367 -14.8959 -0.0432563 -12.1182 -14.963 0.894532 -12.495 -14.8856 1.83338 
-12.8378 -14.7071 2.7715 -13.1223 -14.463 3.7143 -13.3257 -14.1905 4.67024 
-13.4225 -13.9391 5.64842 -13.3831 -13.7818 6.64998 -13.1853 -13.8229 7.64423 
-12.8519 -14.1463 8.54621 -12.4584 -14.726 9.28011 -12.0671 -15.4697 9.84853 
-11.7025 -16.3074 10.2899 -11.3678 -17.1986 10.641 -11.0586 -18.1209 10.9293 
-10.7675 -19.0612 11.1751 -10.4856 -20.011 11.394 -10.2023 -20.9635 11.5986 
-9.90447 -21.9125 11.7991 -9.57715 -22.8508 12.0034 -9.20509 -23.7705 12.2163 
-8.77649 -24.6629 12.4384 -8.28685 -25.5218 12.6664 -7.74056 -26.3459 12.894 
-7.14767 -27.1391 13.1149 -6.52049 -27.9084 13.3241 -5.86926 -28.6625 13.5182 
-5.20413 -29.4076 13.695 
LINES 1 65
64 0 1 2 3 4 5 6 7 8 9 10 11 12 13 14 15 16 17 18 19 20 21 22 23 24 25 26 27 28 29 30 31 32 33 34 35 36 37 38 39 40 41 42 43 44 45 46 47 48 49 50 51 52 53 54 55 56 57 58 59 60 61 62 63 

CELL_DATA 1
FIELD FieldData 2
Length 1 1 double
63.919511447 
Tortuosity 1 1 double
0.94551059379 
POINT_DATA 64
SCALARS MaximumInscribedSphereRadius float
LOOKUP_TABLE default
1.116 0.855737 0.643104 0.953218 1.2392 1.24 1.23519 1.08232 0.936126 
1.09406 1.24144 1.26261 1.27711 1.2772 1.26778 1.24832 1.16422 1.0319 
0.980038 0.9796 1.20124 1.52791 1.45705 1.31311 1.20628 1.12862 1.20753 
1.27383 1.25731 1.23388 1.08396 0.95417 1.30999 1.54803 1.56721 1.77591 
1.77006 1.62526 1.67726 1.81076 1.86 1.85904 1.75518 1.5778 1.40747 
1.38388 1.78179 1.93145 1.8831 1.86 1.86055 1.89909 2.0379 2.17083 
2.18265 2.19783 2.34201 2.46712 2.3031 2.08518 1.61389 1.34817 1.92766 
2.48 
TEXTURE_COORDINATES TCoords 2 float
0 0 0.015873 0 0.031746 0 0.047619 0 0.0634921 
0 0.0793651 0 0.0952381 0 0.111111 0 0.126984 0 
0.142857 0 0.15873 0 0.174603 0 0.190476 0 0.206349 
0 0.222222 0 0.238095 0 0.253968 0 0.269841 0 
0.285714 0 0.301587 0 0.31746 0 0.333333 0 0.349206 
0 0.365079 0 0.380952 0 0.396825 0 0.412698 0 
0.428571 0 0.444444 0 0.460317 0 0.47619 0 0.492063 
0 0.507937 0 0.52381 0 0.539683 0 0.555556 0 
0.571429 0 0.587302 0 0.603175 0 0.619048 0 0.634921 
0 0.650794 0 0.666667 0 0.68254 0 0.698413 0 
0.714286 0 0.730159 0 0.746032 0 0.761905 0 0.777778 
0 0.793651 0 0.809524 0 0.825397 0 0.84127 0 
0.857143 0 0.873016 0 0.888889 0 0.904762 0 0.920635 
0 0.936508 0 0.952381 0 0.968254 0 0.984127 0 
1 0 
FIELD FieldData 7
Curvature 1 64 double
0 0.12077454586 0.10852803268 0.10075595464 0.096782946278 0.09670425849 0.10036291891 0.10917188392 0.12393782683 
0.14468998333 0.16831372802 0.18669915844 0.1914470274 0.17726552103 0.15143706011 0.12675180935 0.10951142405 0.10231491649 
0.10346993357 0.11029244449 0.11797158297 0.12227838965 0.11921266025 0.10911032607 0.097283926896 0.089075431977 0.085566609012 
0.085999639994 0.091357999478 0.1055628498 0.13720996044 0.20695150779 0.35940465387 0.57569269684 0.54399655386 0.33661268289 
0.20860476307 0.14116180841 0.1039045487 0.085535448444 0.084599010429 0.1080724389 0.16352111892 0.25065807935 0.3256158475 
0.31077360781 0.22935947194 0.15668328317 0.10628987943 0.072537903648 0.048193070223 0.029125462504 0.014201658602 0.015054382365 
0.030706565857 0.047830148073 0.061696666812 0.067963403587 0.064654913687 0.054747064835 0.042189500533 0.031280461619 0.02324928658 
0 
Torsion 1 64 double
0 0 -0.015810580951 -0.019357655773 -0.024210497598 -0.03049483121 -0.034261337064 -0.030643581077 -0.021800579615 
-0.011609700416 -0.0056753616453 -0.0070055622569 -0.014642341938 -0.029383739418 -0.050738707187 -0.073200937788 -0.085070212062 -0.069961076443 
-0.031204684168 0.017475038978 0.065007495943 0.11185973195 0.16749928446 0.2338649404 0.28543776836 0.2967281024 0.27440071577 
0.24171994889 0.21695346744 0.19344914612 0.16729060153 0.1350103491 0.083842079877 0.039942623041 0.01540636707 -0.029558239643 
-0.11174614479 -0.21219257143 -0.33110799771 -0.46671871256 -0.55258173991 -0.46904068954 -0.31855482829 -0.20076999546 -0.13445793132 
-0.10950780762 -0.10126474174 -0.086381943154 -0.061512845617 -0.031945872933 0.018899412086 0.16329505085 0.9220519112 0.83626326092 
0.14319182538 0.008729869663 -0.032860709547 -0.057705504329 -0.082747405507 -0.11442354816 -0.17162805773 -0.25542407672 0 
0 
Abscissas 1 64 double
0 1.0144707116 2.0292939923 3.0437804179 4.0584363869 5.0730248045 6.0876362056 7.102240792 8.11684725 
9.1314528325 10.146059326 11.160664527 12.175269321 13.189872936 14.204478179 15.219083999 16.233689957 17.248295952 
18.262901814 19.277507984 20.292114267 21.306720763 22.321326776 23.335932336 24.350538229 25.365144194 26.379750158 
27.394355751 28.408961427 29.423567983 30.438169273 31.452784865 32.467303012 33.48193087 34.496087276 35.510661748 
36.525213367 37.539828449 38.55443036 39.569036966 40.583642612 41.59824909 42.612856472 43.627461307 44.642025133 
45.65660371 46.671220468 47.685817771 48.700423209 49.715028693 50.729634341 51.744240651 52.758844659 53.773449955 
54.788055678 55.802661003 56.817266768 57.83187019 58.846485921 59.861058596 60.875759492 61.890118252 62.905228397 
63.919505268 
ParallelTransportNormals 3 64 double
0 -0.8173691176 0.57611433379 0.025816268043 -0.86256492994 0.50528730633 0.054495559892 -0.89587464898 0.4409522052 
0.085280129617 -0.92034751165 0.38169065654 0.11806927719 -0.93789832745 0.32619989753 0.15336415925 -0.94967543936 0.27312267305 
0.19186167322 -0.95607224188 0.22161896728 0.23537362172 -0.95688347323 0.17021538374 0.28659946454 -0.95079742719 0.11766477546 
0.34883032886 -0.93501198199 0.063796514122 0.42399763463 -0.90559169264 0.011388241595 0.50889841189 -0.86020438552 -0.032723409016 
0.59408235098 -0.80208171288 -0.061082617099 0.66750557794 -0.74118019595 -0.071331763978 0.72251440456 -0.68797835881 -0.068254765428 
0.76057384283 -0.6465907909 -0.058717788869 0.78588150938 -0.61655496438 -0.047436579928 0.80320953871 -0.59459650155 -0.03618614747 
0.81655171582 -0.57675306244 -0.024478569571 0.82888381636 -0.55932786141 -0.010196196531 0.84242971105 -0.53870077135 0.010661185671 
0.8575438711 -0.51263484053 0.042708657416 0.87242168413 -0.48049317353 0.089480250688 0.88367811953 -0.44308229505 0.15096708542 
0.88820328376 -0.40192603397 0.22259916876 0.88486829676 -0.35836093578 0.2976332258 0.8744423212 -0.31292470033 0.37071385032 
0.858621752 -0.26593307738 0.43823314041 0.83891842505 -0.21665474157 0.499276075 0.81579263741 -0.16228710922 0.555108338 
0.78826701563 -0.09635239004 0.60774281485 0.75406099292 -0.0047726141753 0.65678705919 0.71362815176 0.13967072685 0.68645972138 
0.69146879513 0.33207532948 0.64155816643 0.71170739831 0.46149425595 0.52961838235 0.74417771218 0.50965306175 0.43180237303 
0.77508070204 0.52423851243 0.35273770341 0.80457985504 0.52383444199 0.27972975216 0.83266042736 0.51384895776 0.20648453043 
0.85804775181 0.49674776576 0.13036760652 0.87834620132 0.4752562463 0.051375587392 0.89073247361 0.45363768809 -0.028434282102 
0.89292259536 0.43805561039 -0.10390630829 0.8864536993 0.43488618117 -0.15834724003 0.88325283877 0.43708295353 -0.16977312664 
0.89424703985 0.42342413375 -0.14503184019 0.91257237923 0.3925218034 -0.1146223648 0.92979270979 0.35649879771 -0.091619452428 
0.94299148272 0.32386723346 -0.076662106723 0.95214693653 0.29807799911 -0.067570094721 0.95789698412 0.28023720826 -0.062453782324 
0.96063154247 0.27121704358 -0.060235827162 0.96020935624 0.27263791323 -0.060552130092 0.95594899155 0.28657725782 -0.063521656546 
0.94653175649 0.31500903397 -0.069619986192 0.93033236567 0.35804443394 -0.079283495806 0.90634771616 0.41232479785 -0.092315104352 
0.87572159377 0.4707365715 -0.10732553498 0.84245349148 0.52478490259 -0.12195458459 0.81132151016 0.56898512864 -0.13421374945 
0.7857824665 0.60169326884 -0.14321705751 0.76705196629 0.62401352911 -0.14912543878 0.75495927633 0.63778539708 -0.15253287631 
0.75495927633 0.63778539708 -0.15253287631 
FrenetTangent 3 64 double
-0.29372276987 0.51419184333 0.80581243643 -0.29372276987 0.51419184333 0.80581243643 -0.3680696406 0.42750981097 0.82568765353 
-0.43283473136 0.34408494051 0.83322244871 -0.49084644293 0.26273370103 0.83068692768 -0.54450714776 0.18169310785 0.81884038775 
-0.59576289644 0.098993605863 0.79703628351 -0.64603918463 0.012042747262 0.76320924009 -0.69563371166 -0.082647235048 0.71362677482 
-0.74254967741 -0.18835379586 0.64276187205 -0.78103463386 -0.3056964054 0.54454991363 -0.80173440236 -0.42860345457 0.41655855147 
-0.79646517536 -0.54344501145 0.26516173171 -0.765282819 -0.63476786322 0.10682680735 -0.71823563776 -0.6946390131 -0.040177234027 
-0.66735783409 -0.72571855222 -0.16723069169 -0.6193210833 -0.73500516259 -0.27605942613 -0.57471911447 -0.72832133278 -0.37315677091 
-0.53009981943 -0.70895269859 -0.46516690833 -0.48014228722 -0.67842282859 -0.5560628109 -0.41923303371 -0.6383928754 -0.64552164959 
-0.34359708243 -0.59257787888 -0.7285550785 -0.2535670061 -0.5478542982 -0.79721981998 -0.15453136678 -0.51354194758 -0.84403478883 
-0.054717891994 -0.49742994914 -0.8657767599 0.038428338782 -0.5017393014 -0.86416487791 0.12030721231 -0.52416698199 -0.84307481854 
0.18882505186 -0.56096510232 -0.80601690663 0.24355888345 -0.60922278059 -0.75466991056 0.28450292905 -0.66882125008 -0.68683056048 
0.310175896 -0.74297585635 -0.59310858231 0.31276553647 -0.83731213928 -0.44842624881 0.26441005859 -0.94468630175 -0.19404925197 
0.11146219468 -0.96778042355 0.22578137868 -0.1174331653 -0.75107271625 0.64969163962 -0.28541700086 -0.42330263545 0.85985581026 
-0.35881506553 -0.16932369496 0.91792223803 -0.37463977777 0.0050885819388 0.92715648261 -0.35511147032 0.1262829296 0.92625507574 
-0.3094260569 0.20845422083 0.92779434851 -0.24065928218 0.2548156552 0.93656398167 -0.14816023562 0.25856522061 0.95456407395 
-0.028383385548 0.2020965147 0.97895422884 0.11782154196 0.057718922252 0.99135594529 0.26524446519 -0.18200624783 0.94684692503 
0.36254128754 -0.45042096079 0.81589507469 0.38933012246 -0.65652262846 0.64606508501 0.37368213772 -0.78177185863 0.499193771 
0.34510178821 -0.85320599974 0.39108090952 0.31752664978 -0.89429178233 0.31530784121 0.29592985747 -0.91820529075 0.26329558197 
0.28240806583 -0.93155264078 0.22903135551 0.27853687804 -0.93747489154 0.20870561879 0.28638832097 -0.93708390087 0.19963840397 
0.30811715214 -0.93019260447 0.19951325556 0.34475471666 -0.91588749191 0.20565574999 0.39474479382 -0.89340976223 0.21446571872 
0.45277988681 -0.86355775259 0.22194229439 0.51078742427 -0.82983832801 0.22464317608 0.56160585485 -0.79731475417 0.2211064146 
0.60145311015 -0.77025955313 0.21202447289 0.63000061315 -0.75073236264 0.19874643926 0.64868356285 -0.73878493141 0.1827743429 
0.64868356285 -0.73878493141 0.1827743429 
FrenetNormal 3 64 double
-0.65469715324 -0.72244697966 0.22235556912 -0.65469715324 -0.72244697966 0.22235556912 -0.62643503365 -0.77024995638 0.11955815874 
-0.59557942111 -0.8029892278 0.022213806124 -0.56401926709 -0.82251749856 -0.07312476267 -0.53064267545 -0.83066885093 -0.16854557571 
-0.49563594701 -0.82619392159 -0.26785931374 -0.45077675734 -0.81291284378 -0.36874520126 -0.38841123804 -0.79238458048 -0.47038642282 
-0.30097804494 -0.76346632842 -0.57142924482 -0.18497368193 -0.71961850754 -0.66927867185 -0.045696457803 -0.65096130568 -0.75773426229 
0.10095500664 -0.55186470887 -0.8278003562 0.23342206574 -0.42832795821 -0.87295435129 0.33085873832 -0.29016053378 -0.89796400814 
0.38851749067 -0.14768679723 -0.9095288722 0.41052799303 -0.0034369760804 -0.9118415181 0.41892512052 0.12986896761 -0.89868559277 
0.43724323682 0.24148203624 -0.86631678849 0.48570905145 0.32224893922 -0.81255297582 0.56703036297 0.3711709708 -0.73532895897 
0.6753479218 0.38316184693 -0.6301525082 0.79824567274 0.34698729298 -0.49234506646 0.91894475651 0.23904092233 -0.31368769809 
0.99393626567 0.055688104453 -0.094813157388 0.97803589804 -0.15841223851 0.13546713562 0.87011557443 -0.35317922025 0.34374892803 
0.70622730937 -0.49273967676 0.50838036788 0.51677915831 -0.57693342269 0.63252440848 0.31646511313 -0.61075545373 0.7258289109 
0.12176369851 -0.58769243987 0.79986948801 -0.065398222521 -0.48997520776 0.86927979861 -0.24925588922 -0.26131408247 0.93251619396 
-0.40260619022 0.16374110823 0.90060929657 -0.43389759272 0.62727466139 0.64672975671 -0.33866969257 0.88383938838 0.32269300406 
-0.18298982675 0.97708626247 0.10870675689 0.032400075623 0.99944603323 0.0076066923222 0.31881068907 0.94779262058 -0.0069923462766 
0.66327205639 0.74646415182 0.053492515876 0.93302966858 0.32663477445 0.15088194613 0.96102051377 -0.19017983935 0.20067685669 
0.81465166965 -0.5628451572 0.13981411284 0.62368411555 -0.78115149408 -0.028643800415 0.41534267621 -0.86466735099 -0.28256120301 
0.19231344817 -0.82045623975 -0.53839306859 -0.0092795820923 -0.70416738708 -0.70997336592 -0.16678860018 -0.58604197848 -0.79292897684 
-0.2741069647 -0.4901340973 -0.82742609251 -0.34158768648 -0.41806577016 -0.84174750624 -0.36496056161 -0.3634161045 -0.85716540029 
-0.30780641744 -0.31412077946 -0.89809985263 0.097049954279 -0.18871981017 -0.97722368966 0.93638081152 0.22962076323 -0.26545297305 
0.93427406794 0.3354125126 0.12095624156 0.90807374634 0.38090705634 0.17410308909 0.89161707359 0.42883708795 0.14531946214 
0.87340628224 0.47962790102 0.084371456701 0.85230269598 0.52301549678 -0.0059080067882 0.82698176247 0.54945045079 -0.11918626874 
0.7937216525 0.54592914225 -0.26826723615 0.73240985741 0.48927701914 -0.4734805163 0.60227081435 0.35149755786 -0.71674216634 
0.60227081435 0.35149755786 -0.71674216634 
FrenetBinormal 3 64 double
0.69649018084 -0.46225221452 0.548839064 0.69649018084 -0.46225221452 0.548839064 0.68709816496 -0.4732339445 0.55131274743 
0.67671208684 -0.48663523686 0.55249153638 0.6640421943 -0.50441646178 0.55191665791 0.64956163452 -0.52628592482 0.54871924361 
0.63199017339 -0.55462047377 0.54128047333 0.6159818885 -0.58226083558 0.53060214134 0.60434298984 -0.60439731233 0.51910831189 
0.59835791383 -0.61777181302 0.51022131865 0.59646428032 -0.62345722494 0.5055011879 0.59593102102 -0.62653687619 0.50231241369 
0.59619737593 -0.63254475148 0.49440451687 0.59988027654 -0.64312123277 0.47596085321 0.61210298474 -0.65824274103 0.4382310235 
0.63536421109 -0.67195326689 0.38051429196 0.66925941362 -0.67805279895 0.30386878601 0.70299337327 -0.67281653329 0.23047392405 
0.72650707725 -0.66262545781 0.18197518887 0.73044513919 -0.66022578472 0.17479076583 0.70902766583 -0.67430456552 0.20638101174 
0.65256894614 -0.70854672148 0.2685429463 0.5463585081 -0.76121973599 0.34933779379 0.36285064582 -0.82409593224 0.43497735953 
0.095376370696 -0.86571489575 0.4913665304 -0.20486347874 -0.8503900494 0.48463152905 -0.47793834519 -0.77492800529 0.41359584719 
-0.68234015512 -0.66522610061 0.30312727984 -0.82074257342 -0.54405461986 0.17431637552 -0.90493531014 -0.42385836217 0.03789687705 
-0.94284914767 -0.32031932973 -0.091820540935 -0.94757627223 -0.24255448295 -0.20800608431 -0.93164307683 -0.19819874263 -0.30456269603 
-0.90856173965 -0.19128486944 -0.37138344601 -0.8932761783 -0.20595211602 -0.39955149254 -0.8965712325 -0.1991050335 -0.39562256089 
-0.91529583854 -0.12896480921 -0.3815777849 -0.92660416145 0.032889709672 -0.37459711022 -0.87878073954 0.29281695658 -0.37683237886 
-0.68141448071 0.6319320437 -0.36923731883 -0.26746728295 0.91015312227 -0.31635825668 0.23342689795 0.94708798715 -0.22030939135 
0.57925559174 0.80147509491 -0.14866281203 0.77274588854 0.62166781266 -0.12803484851 0.8701355268 0.46821373098 -0.15375326702 
0.91190972825 0.35209731145 -0.21082725343 0.92105154313 0.2704188035 -0.28024583067 0.91243806519 0.21304356484 -0.34938405327 
0.89764699503 0.17834822308 -0.40301586029 0.8845872931 0.15957198961 -0.43822608436 0.88273966033 0.15756833128 -0.44265439459 
0.90857079732 0.18313332128 -0.37544812278 0.95550955722 0.29244770642 0.038416468613 0.20291058479 0.26296020197 0.94322808841 
-0.17943184371 0.1491313682 0.97240117672 -0.23779456795 0.1267277262 0.96301289029 -0.2218006804 0.13385719539 0.96586060558 
-0.17930934234 0.1556440956 0.97140263293 -0.11258917186 0.19448172018 0.97442318265 -0.026458048615 0.24978667879 0.96793935077 
0.090885062818 0.32963857853 0.93972246589 0.2582150813 0.44385686682 0.85808860473 0.46527357703 0.57501851444 0.67295929043 
0.46527357703 0.57501851444 0.67295929043 
