# vtk DataFile Version 4.2
vtk output
ASCII
DATASET POLYDATA
POINTS 64 float
0 0 0 -0.888425 0.526948 -0.144135 -1.81532 0.799454 -0.287506 
-2.83115 0.869706 -0.404085 -3.82846 0.702108 -0.437966 -4.76917 0.334111 -0.347512 
-5.60274 -0.19308 -0.112179 -6.3101 -0.826557 0.244244 -6.91149 -1.5276 0.663875 
-7.45144 -2.28302 1.07245 -7.98232 -3.09645 1.36464 -8.5434 -3.93885 1.33079 
-9.06507 -4.65385 0.83974 -9.48915 -5.22313 0.1155 -9.83751 -5.7653 -0.668147 
-10.1013 -6.34981 -1.45416 -10.2256 -6.98671 -2.23371 -10.138 -7.62554 -3.01616 
-9.8323 -8.20498 -3.79025 -9.37021 -8.72138 -4.53111 -8.80477 -9.20982 -5.21693 
-8.15661 -9.71045 -5.81741 -7.43159 -10.2603 -6.25632 -6.64675 -10.8963 -6.28137 
-6.25199 -11.3288 -5.46846 -6.39433 -11.379 -4.46276 -6.71647 -11.3151 -3.50486 
-7.12064 -11.2368 -2.57711 -7.55431 -11.2227 -1.66016 -7.97979 -11.3549 -0.749057 
-8.35401 -11.7112 0.123043 -8.64289 -12.3033 0.893528 -8.83676 -13.0694 1.52919 
-8.93757 -13.9363 2.04615 -8.93959 -14.8475 2.49218 -8.82988 -15.7577 2.92629 
-8.59812 -16.6215 3.40499 -8.24921 -17.388 3.96997 -7.81055 -18.023 4.62802 
-7.31271 -18.5361 5.34773 -6.76452 -18.9653 6.08566 -6.15924 -19.3386 6.80926 
-5.49063 -19.6521 7.50485 -4.76396 -19.8788 8.17545 -3.99918 -19.9882 8.83283 
-3.22643 -19.9673 9.48968 -2.47392 -19.8289 10.1558 -1.75817 -19.6031 10.8384 
-1.08457 -19.3263 11.5448 -0.450599 -19.0364 12.282 0.15721 -18.7719 13.0501 
0.776668 -18.5652 13.8265 1.47224 -18.4316 14.5525 2.27921 -18.367 15.1635 
3.16163 -18.3619 15.664 4.06759 -18.4186 16.1172 4.95299 -18.5519 16.5941 
5.76656 -18.7796 17.1553 6.44141 -19.1099 17.8361 6.92906 -19.5264 18.6222 
7.23863 -19.9964 19.4625 7.42241 -20.5135 20.3311 7.531 -21.0348 21.1483 
7.63662 -21.6479 21.986 
LINES 1 65
64 0 1 2 3 4 5 6 7 8 9 10 11 12 13 14 15 16 17 18 19 20 21 22 23 24 25 26 27 28 29 30 31 32 33 34 35 36 37 38 39 40 41 42 43 44 45 46 47 48 49 50 51 52 53 54 55 56 57 58 59 60 61 62 63 

CELL_DATA 1
FIELD FieldData 2
Length 1 1 double
63.880974786 
Tortuosity 1 1 double
1.0097364539 
POINT_DATA 64
SCALARS MaximumInscribedSphereRadius float
LOOKUP_TABLE default
0.93 1.28418 1.48658 1.30865 1.24 1.35998 1.73671 1.74419 1.54124 
1.34137 1.37198 1.46232 1.24108 1.28313 1.5581 1.74127 1.58683 1.39453 
1.2772 1.29674 1.43247 1.60872 1.59148 1.55 1.55602 1.65534 1.80506 
1.71194 1.64474 1.8048 1.86 1.78275 1.60199 1.55 1.55 1.56313 
1.69827 1.85033 1.86517 1.72933 1.57706 1.54704 1.4376 1.40293 1.68271 
1.96696 2.14764 1.99967 1.95561 2.33197 2.25012 1.88943 1.57486 1.18074 
1.18292 1.67511 1.58591 1.312 1.24765 1.10403 1.01279 1.15072 1.35801 
1.581 
TEXTURE_COORDINATES TCoords 2 float
0 0 0.015873 0 0.031746 0 0.047619 0 0.0634921 
0 0.0793651 0 0.0952381 0 0.111111 0 0.126984 0 
0.142857 0 0.15873 0 0.174603 0 0.190476 0 0.206349 
0 0.222222 0 0.238095 0 0.253968 0 0.269841 0 
0.285714 0 0.301587 0 0.31746 0 0.333333 0 0.349206 
0 0.365079 0 0.380952 0 0.396825 0 0.412698 0 
0.428571 0 0.444444 0 0.460317 0 0.47619 0 0.492063 
0 0.507937 0 0.52381 0 0.539683 0 0.555556 0 
0.571429 0 0.587302 0 0.603175 0 0.619048 0 0.634921 
0 0.650794 0 0.666667 0 0.68254 0 0.698413 0 
0.714286 0 0.730159 0 0.746032 0 0.761905 0 0.777778 
0 0.793651 0 0.809524 0 0.825397 0 0.84127 0 
0.857143 0 0.873016 0 0.888889 0 0.904762 0 0.920635 
0 0.936508 0 0.952381 0 0.968254 0 0.984127 0 
1 0 
FIELD FieldData 7
Curvature 1 64 double
0 0.24772945739 0.21957903699 0.24692671482 0.23976646919 0.23714593286 0.20105782013 0.13737906953 0.080575463994 
0.12720725029 0.32863772511 0.49182218782 0.29026821059 0.097412948443 0.092119951055 0.14573931984 0.20835174039 0.22275945502 
0.16826723307 0.11742009499 0.11639400403 0.18232505441 0.4377584561 1.2003129375 0.76217020699 0.21436376761 0.086311109411 
0.069500369449 0.14328348398 0.22984111728 0.26807775095 0.23649784499 0.1777666723 0.12628895031 0.10952929683 0.13471219787 
0.17141595631 0.18078855487 0.14547930894 0.096941422967 0.07899139807 0.089076655869 0.10462738921 0.12098943632 0.12738935593 
0.11661750706 0.093718026912 0.068395624705 0.050423743713 0.046457114505 0.057897935642 0.11403156256 0.17073697311 0.14306109342 
0.079119259916 0.080558658184 0.14216521826 0.20636231752 0.22796405338 0.19048329182 0.13177577335 0.074769897764 0.06387668234 
0 
Torsion 1 64 double
0 0 0.17210558166 0.16183516873 0.16766526437 0.08906500084 -0.0076501701887 -0.24357526574 -1.1638631821 
-0.68307111107 -0.10311758359 0.0026656927142 0.13526439599 1.0571311091 0.3968601697 -0.22280326127 -0.19937130195 -0.078849473674 
0.097188958897 0.39327015219 0.4453596154 0.22669968749 0.060568190482 0.021773221658 0.041115110331 0.24592709774 0.83076075776 
1.0571068463 0.18728386248 0.033288071364 0.007001667365 0.038214831214 0.16490824719 0.45638219706 0.63770949962 0.40291568732 
0.20747656575 0.087421366068 -0.059008190035 -0.33357329324 -0.31087034137 0.073875944711 0.24236730545 0.24139111451 0.20774317174 
0.20020898354 0.24753623809 0.4079295602 0.69600119919 0.92920908234 1.0542009562 0.39686612343 0.095710739977 -0.11780997152 
-0.82428872346 -0.81436272051 -0.23285971203 -0.081948387244 -0.026111965247 0.030915398609 0.13051758749 0.5573468287 0 
0 
Abscissas 1 64 double
0 1.0429515115 2.0196536638 3.0445677196 4.0564237692 5.0705914024 6.0845673248 7.0988117927 8.1133181851 
9.1277812617 10.142117866 11.154835326 12.167009125 13.181129346 14.195725781 15.210155045 16.224450635 17.238352367 
18.252469707 19.266901686 20.281127532 21.29666932 22.306938963 23.317421754 24.319273013 25.336235096 26.348872404 
27.363865751 28.378294144 29.392491103 30.406186726 31.41996072 32.434098527 33.448465832 34.46294187 35.47739255 
36.491726411 37.505859183 38.520089749 39.534557908 40.549097309 41.563625071 42.578124949 43.592577371 44.606978099 
45.621389648 46.635859742 47.650386416 48.664951262 49.679534613 50.694101517 51.708631117 52.722931714 53.737171366 
54.75167752 55.766252501 56.780717424 57.794948137 58.808858752 59.823371349 60.834722887 61.862167221 62.837483635 
63.880961554 
ParallelTransportNormals 3 64 double
-0.16014314249 0 0.98709380198 -0.15366933592 -0.0028192966025 0.98811830606 -0.11467728882 -0.0098041897131 0.99335441676 
-0.032980556271 -0.0057915951416 0.99943921293 0.085258943702 0.026870380297 0.99599643332 0.21578018308 0.0927246621 0.97202934607 
0.31800704935 0.16972281443 0.93277311433 0.36988456128 0.22262083283 0.90201184921 0.37024526368 0.22308112416 0.90175010771 
0.31039887767 0.13540145353 0.94091390846 0.13554146282 -0.12974741948 0.98223933896 -0.12184913843 -0.49996534899 0.85743071865 
-0.25566418052 -0.68168111253 0.68552657689 -0.28521780858 -0.72420495392 0.627835955 -0.28371078564 -0.72143124336 0.63170020675 
-0.28327192144 -0.72005016156 0.63347042816 -0.28436242927 -0.75798973563 0.58701752061 -0.26458510354 -0.81924896837 0.50874930055 
-0.23598208981 -0.86007394733 0.45231101955 -0.22418465969 -0.87161076189 0.4359310933 -0.24147710518 -0.85751717717 0.45426104668 
-0.30716340041 -0.80726803214 0.50395334083 -0.50817284986 -0.64939541004 0.56572604332 -0.91339569157 -0.28212400928 0.29345247318 
-0.97545105514 -0.1646139063 -0.14627884632 -0.938016289 -0.16573539741 -0.30439648425 -0.90841090661 -0.17153177703 -0.38126955585 
-0.89132817726 -0.17341527561 -0.41888091699 -0.88271691583 -0.17223212919 -0.43720354547 -0.8786096437 -0.16972290203 -0.44636221897 
-0.87519348023 -0.16483656889 -0.45482444714 -0.87356677715 -0.16026028387 -0.45956253902 -0.87509423662 -0.16872420383 -0.4535881613 
-0.87744266066 -0.20933223019 -0.4315951745 -0.87255817701 -0.29194650201 -0.39167520689 -0.84962693729 -0.41107905412 -0.33037566299 
-0.80184433995 -0.54522306904 -0.24449429336 -0.73760330945 -0.65954038102 -0.14473369923 -0.67679014817 -0.73409859145 -0.055266204593 
-0.62753784654 -0.77847131042 0.013366750149 -0.58285210657 -0.80955865013 0.069987240793 -0.52879738345 -0.83870094757 0.13020771026 
-0.45615835648 -0.86682467601 0.20133190227 -0.36765537053 -0.88676614888 0.28013447794 -0.27868478894 -0.89189003233 0.35618388318 
-0.20736833429 -0.88444299366 0.41804182195 -0.16249909172 -0.87331298684 0.45925861148 -0.14440473295 -0.866767353 0.47734854025 
-0.15016617788 -0.8692643601 0.47098788868 -0.17465202578 -0.88019605944 0.4413066585 -0.20599823224 -0.89223041761 0.40185769896 
-0.22474847436 -0.89708260873 0.38043516713 -0.21965777481 -0.89641083955 0.38496502269 -0.21493631671 -0.89621588254 0.3880714775 
-0.24279050838 -0.89541144591 0.37321724448 -0.31460020579 -0.88779278024 0.33593256745 -0.42642614719 -0.86403019664 0.26760523217 
-0.55793881796 -0.81472930212 0.15786209068 -0.66747820466 -0.74437008299 0.019647540765 -0.73019600778 -0.67459149681 -0.10835175426 
-0.75876650502 -0.61756054879 -0.20710470649 -0.76923903476 -0.58011246363 -0.2678448001 -0.77434060891 -0.55318324519 -0.30722128611 
-0.77434060891 -0.55318324519 -0.30722128611 
FrenetTangent 3 64 double
-0.90571783955 0.39887167 -0.14344541117 -0.90571783955 0.39887167 -0.14344541117 -0.97635005152 0.17225895591 -0.1306423706 
-0.99606132039 -0.048164824847 -0.074444581158 -0.96348768999 -0.26627136268 0.02812530286 -0.8810413463 -0.44451706127 0.16177369486 
-0.76364273502 -0.57519518672 0.29325802706 -0.64665874121 -0.65939175508 0.38345141251 -0.56299055024 -0.71843191909 0.40853055941 
-0.52890718782 -0.77489065962 0.34612375288 -0.5459193301 -0.8278229898 0.12915565256 -0.55015393111 -0.79132715054 -0.26670581716 
-0.47165339204 -0.64048110855 -0.60607510043 -0.38121567025 -0.54852425191 -0.74417454796 -0.30202609656 -0.5558876494 -0.77444764719 
-0.19181746354 -0.60369434953 -0.77379531727 -0.018194122284 -0.63245850741 -0.77438053328 0.19515109398 -0.60449187638 -0.77233776413 
0.37985943675 -0.5421605179 -0.74951236224 0.50740284563 -0.49619842136 -0.70450654992 0.59894164643 -0.48813043839 -0.63482090332 
0.68070506179 -0.52073783111 -0.51524045853 0.76443191349 -0.60038808715 -0.23489996689 0.66422119321 -0.60166204295 0.44363610377 
0.13296208431 -0.25426166955 0.95795202778 -0.23018735717 0.0067896981745 0.97312264417 -0.3585492244 0.070198044886 0.93086770713 
-0.41310360693 0.045558344329 0.90954375772 -0.42462194958 -0.058369200902 0.90348726406 -0.39698387125 -0.24249910129 0.88521070477 
-0.33001686811 -0.47200717494 0.81749501134 -0.23973231267 -0.67447847912 0.69828876511 -0.14585127892 -0.80825126437 0.57048864851 
-0.050787256231 -0.87818770971 0.47561223819 0.053159986105 -0.89911514795 0.43447205503 0.1687041442 -0.87644756638 0.45097513802 
0.28732195843 -0.80669161537 0.51642495088 0.38989201831 -0.69382311208 0.60546982022 0.4628779444 -0.56746375828 0.68097642516 
0.51616823668 -0.46498163086 0.71927910744 0.56892548831 -0.39581658697 0.72086962638 0.62847141323 -0.33883158065 0.70015487052 
0.68865165237 -0.26661971609 0.67429431904 0.7364921945 -0.1659691832 0.65576937841 0.75942164854 -0.043712681968 0.64912861681 
0.75308464434 0.078652999136 0.65320534611 0.72446188826 0.17970213796 0.66547886073 0.6851307594 0.24784720278 0.68495810572 
0.64459535624 0.27936699291 0.71165364468 0.61212991686 0.27328874536 0.74203114931 0.60509430136 0.23232095789 0.76150368284 
0.64926399516 0.16801463695 0.74177310976 0.74346067935 0.098069848859 0.66155009108 0.83490790709 0.034446329348 0.54931069267 
0.88208796364 -0.025450573382 0.47039673969 0.88359559962 -0.093718528221 0.45877625679 0.83962785669 -0.17840558449 0.51302681187 
0.73784429032 -0.27661286504 0.61568752312 0.57687431908 -0.37058879184 0.7279285455 0.39533130802 -0.43960491683 0.80651142211 
0.24252389293 -0.48524468723 0.84007127964 0.14608155421 -0.51883140036 0.84230288941 0.10616118436 -0.56220142173 0.82015813374 
0.10616118436 -0.56220142173 0.82015813374 
FrenetNormal 3 64 double
-0.3980777038 -0.91666622084 -0.035456752713 -0.3980777038 -0.91666622084 -0.035456752713 -0.19147065695 -0.96957739328 0.15250792103 
0.021511887467 -0.94578350994 0.32408454302 0.24261356921 -0.82375984093 0.51240450866 0.44489277002 -0.66244945985 0.60268659876 
0.61765575913 -0.51856398639 0.59126369349 0.75449658782 -0.4790586619 0.448595249 0.74185417853 -0.65716966536 -0.13334319901 
0.069052963944 -0.44577862452 -0.89247582941 -0.094600005706 -0.092264963068 -0.99123055618 0.082104750558 0.26657749032 -0.96030997683 
0.33765897079 0.50375446087 -0.79512128798 0.7590975539 0.27373420087 -0.59062720132 0.89335956277 -0.44856471792 -0.026426983148 
0.93510420066 -0.35179609295 0.042657272338 0.99983318849 -0.010267297689 -0.015105554726 0.96403123206 0.26310757082 0.037658860857 
0.90927123255 0.367823056 0.19476145701 0.85938588324 0.2313976198 0.4559726365 0.68579513246 -0.096646688894 0.72134905131 
0.4338006401 -0.28022321369 0.85632467859 0.13968905494 -0.2014522966 0.96948643112 -0.40530608197 0.20880505948 0.89001540833 
-0.78527146649 0.5626794682 0.25834190519 -0.82859407762 0.52304115069 -0.19964921545 -0.91690579968 0.16075964949 -0.36529452447 
-0.41599675933 -0.89789787818 -0.14396560906 0.055206981758 -0.99773195173 -0.038511578299 0.21893667832 -0.96164354668 -0.16525259457 
0.31548113679 -0.87136691054 -0.37575438726 0.39672760903 -0.72452717427 -0.56362006527 0.51311425202 -0.55483163956 -0.65488595657 
0.76330856521 -0.34123507617 -0.54856053183 0.99438384134 0.0077903011832 -0.10554661193 0.88453259876 0.33649493421 0.32306847722 
0.66976141096 0.55464085704 0.49375416158 0.48644954427 0.71346006565 0.50432288823 0.39686598248 0.81960121066 0.41322057963 
0.5054464903 0.84334445244 0.18246638041 0.70313211258 0.68874102778 -0.1767513194 0.69266398429 0.653329695 -0.30557636442 
0.54078020317 0.80834466716 -0.232670735 0.30764837527 0.94555401105 -0.10620776518 0.060979811247 0.99813047101 -0.0041261914413 
-0.1695856624 0.98248594478 0.077214450842 -0.38229119391 0.90808940337 0.17095928913 -0.60007469847 0.72509604117 0.33785512774 
-0.76439862042 0.25235713993 0.59330483146 -0.5470232709 -0.5312727086 0.64692723717 0.19624620544 -0.97048859549 0.14014033281 
0.65221616778 -0.6246978482 -0.42937939977 0.63906499817 -0.39575868496 -0.65952330617 0.5138476369 -0.40638012713 -0.75552352599 
0.28857132739 -0.76007165547 -0.58225223705 -0.24714759429 -0.92551862404 0.2869378734 -0.49232091064 -0.6489567249 0.58006490167 
-0.65958136674 -0.48915902899 0.57068017751 -0.81037494863 -0.37149145047 0.45308558227 -0.91310295634 -0.28346351582 0.29307239093 
-0.95145671994 -0.28811497925 0.10825834293 -0.90315859996 -0.41738721297 -0.10046122515 -0.15707016283 -0.82394511398 -0.54446617259 
-0.15707016283 -0.82394511398 -0.54446617259 
FrenetBinormal 3 64 double
-0.14563425712 0.024988606437 0.98902286763 -0.14563425712 0.024988606437 0.98902286763 -0.1003970339 0.17391529708 0.97962947333 
-0.086017932514 0.32120663439 0.94309448801 -0.11327015176 0.5005190165 0.85828351192 -0.16073757897 0.60296375959 0.78140779068 
-0.18801897902 0.63264673334 0.75127024054 -0.11210428798 0.57940082136 0.80729630051 0.36427190138 0.22799914158 0.90295203267 
0.84586575462 -0.44813601011 0.28928401547 0.83247998411 -0.55335004667 -0.027942832729 0.83101712498 -0.55021612343 -0.081686935941 
0.81457319942 -0.5796683472 -0.021333308299 0.52767936895 -0.79005742344 0.31203165102 -0.33269945686 -0.69984185005 0.63208579823 
-0.29797012364 -0.71539684185 0.6319977564 0.0016028411361 -0.77452619 0.63253981053 0.18044343751 -0.75190689421 0.63409477864 
0.17009595518 -0.75549200678 0.63269202122 -0.063231763627 -0.83680479694 0.54383772936 -0.41346576699 -0.86740307392 0.27687175168 
-0.59030299296 -0.80641618397 0.035147044473 -0.6293892417 -0.77391932202 -0.070128920069 -0.62812195186 -0.77097550753 -0.10516453954 
-0.60470638168 -0.78660207187 -0.12484939923 -0.51033874548 -0.85228038502 -0.11477155647 -0.17528892775 -0.98449406783 0.006724746841 
0.81011857538 -0.43783996805 0.38987697574 0.90368600139 0.033525943447 0.42688127391 0.89133076737 0.12820247659 0.43484892566 
0.88969686922 0.13389896944 0.43647513891 0.88607879023 0.14191249048 0.44127680944 0.84583755462 0.19720990186 0.49564814718 
0.64403469541 0.33517901084 0.68765859393 0.091513889438 0.43764284746 0.89447970693 -0.43490343004 0.34439921984 0.83201453348 
-0.68473771956 0.20401509107 0.6996514118 -0.78188941349 0.097899049345 0.61568232166 -0.79261680561 0.078985685536 0.60458238557 
-0.69144356016 0.26937375057 0.6703309523 -0.42653138338 0.60742491399 0.67015367854 -0.35389304544 0.67701807183 0.64529546938 
-0.48302761158 0.52487410497 0.70085055496 -0.60243815005 0.27996757387 0.74745329818 -0.64773468515 0.042717259635 0.76066747885 
-0.63569192347 -0.16892327855 0.75323349925 -0.57359255183 -0.37826019761 0.72657470874 -0.41292396247 -0.64250096899 0.6455124368 
-0.01384109175 -0.9264286034 0.37621598448 0.57101883154 -0.80191182231 -0.17571261556 0.77158817598 0.064644091409 -0.6328292251 
0.39124204155 0.76257699954 -0.51517568333 0.19713484313 0.913103153 -0.35690402856 0.19720393692 0.91305456719 -0.35699014636 
0.37235388195 0.64934070168 -0.66310575305 0.39771457474 -0.36692249048 -0.84094649236 0.2294453818 -0.73961247733 -0.63271494383 
0.14331163205 -0.82716912856 -0.54337188818 0.10251079268 -0.85126849442 -0.51461975068 0.09978049922 -0.8522886555 -0.51346655166 
0.18950533355 -0.82554669901 -0.53156408486 0.40368889362 -0.74605756644 -0.52955961395 0.9818649433 -0.071021197889 -0.17577605801 
0.9818649433 -0.071021197889 -0.17577605801 
