# vtk DataFile Version 4.2
vtk output
ASCII
DATASET POLYDATA
POINTS 64 float
0 0 0 -0.782413 0.369057 0.562604 -1.50927 0.764944 1.12205 
-2.2632 1.13915 1.68495 -3.06456 1.43703 2.23047 -3.93336 1.58735 2.73004 
-4.85973 1.49303 3.12565 -5.76461 1.10431 3.35716 -6.57617 0.504174 3.44852 
-7.30932 -0.196716 3.45761 -7.9979 -0.931199 3.34139 -8.53055 -1.65151 2.8819 
-8.69711 -2.3077 2.13154 -8.54496 -2.90979 1.33172 -8.16353 -3.46282 0.572919 
-7.62146 -3.97423 -0.114649 -6.97463 -4.46534 -0.722217 -6.26751 -4.97247 -1.24328 
-5.53148 -5.54744 -1.63654 -4.81862 -6.25461 -1.719 -4.4739 -6.92613 -1.08868 
-4.69823 -7.22806 -0.151975 -5.21737 -7.29668 0.714406 -5.89254 -7.18463 1.46125 
-6.62071 -6.87483 2.09395 -7.30023 -6.36566 2.64712 -7.86114 -5.70832 3.17724 
-8.27632 -4.98436 3.75286 -8.51688 -4.31192 4.46984 -8.4827 -3.9689 5.41102 
-8.15496 -4.16906 6.34267 -7.6875 -4.63021 7.11459 -7.13178 -5.16818 7.77037 
-6.47778 -5.74479 8.2857 -5.73465 -6.40371 8.35346 -5.29594 -7.00422 7.67486 
-5.13657 -7.53919 6.82841 -5.09052 -8.12589 6.00246 -5.10869 -8.82868 5.27248 
-5.17163 -9.69434 4.75298 -5.25437 -10.6919 4.64044 -5.29772 -11.6265 5.01838 
-5.23858 -12.3732 5.69941 -5.04003 -12.974 6.49129 -4.67515 -13.5025 7.27552 
-4.13276 -14.0051 7.96849 -3.43711 -14.469 8.54168 -2.62737 -14.8302 9.03317 
-1.74554 -15.0229 9.49423 -0.844276 -15.0306 9.95842 0.0372334 -14.8963 10.4418 
0.889083 -14.6821 10.9494 1.72172 -14.44 11.4762 2.55372 -14.2123 12.0103 
3.40332 -14.0492 12.5399 4.27492 -14.029 13.0569 5.1269 -14.2564 13.5537 
5.84719 -14.7906 14.021 6.33518 -15.5573 14.4667 6.59327 -16.4244 14.9234 
6.6715 -17.3055 15.4188 6.60305 -18.1584 15.9598 6.39018 -18.9473 16.5347 
5.96182 -19.6548 17.1486 
LINES 1 65
64 0 1 2 3 4 5 6 7 8 9 10 11 12 13 14 15 16 17 18 19 20 21 22 23 24 25 26 27 28 29 30 31 32 33 34 35 36 37 38 39 40 41 42 43 44 45 46 47 48 49 50 51 52 53 54 55 56 57 58 59 60 61 62 63 

CELL_DATA 1
FIELD FieldData 2
Length 1 1 double
63.747025254 
Tortuosity 1 1 double
1.3824564013 
POINT_DATA 64
SCALARS MaximumInscribedSphereRadius float
LOOKUP_TABLE default
1.24 1.26862 1.67664 1.42256 1.12123 1.45173 1.26708 1.31227 1.5188 
1.55716 1.53645 1.431 1.86 1.7876 1.58253 1.55 1.55 1.72372 
2.14021 2.29711 1.75883 1.75539 1.51483 1.61892 2.18972 2.25505 2.24183 
2.47539 2.39932 1.99924 1.69648 1.88443 2.38779 2.32497 2.72279 2.2919 
2.42865 2.27331 2.19201 2.3279 2.48 2.27995 1.8915 1.8219 1.60832 
1.76673 1.86 1.62233 1.38323 1.7488 2.47269 1.80857 1.72908 1.73988 
1.63716 1.79825 1.65545 2.13695 2.06574 2.57921 2.87533 2.6534 3.00624 
2.79 
TEXTURE_COORDINATES TCoords 2 float
0 0 0.015873 0 0.031746 0 0.047619 0 0.0634921 
0 0.0793651 0 0.0952381 0 0.111111 0 0.126984 0 
0.142857 0 0.15873 0 0.174603 0 0.190476 0 0.206349 
0 0.222222 0 0.238095 0 0.253968 0 0.269841 0 
0.285714 0 0.301587 0 0.31746 0 0.333333 0 0.349206 
0 0.365079 0 0.380952 0 0.396825 0 0.412698 0 
0.428571 0 0.444444 0 0.460317 0 0.47619 0 0.492063 
0 0.507937 0 0.52381 0 0.539683 0 0.555556 0 
0.571429 0 0.587302 0 0.603175 0 0.619048 0 0.634921 
0 0.650794 0 0.666667 0 0.68254 0 0.698413 0 
0.714286 0 0.730159 0 0.746032 0 0.761905 0 0.777778 
0 0.793651 0 0.809524 0 0.825397 0 0.84127 0 
0.857143 0 0.873016 0 0.888889 0 0.904762 0 0.920635 
0 0.936508 0 0.952381 0 0.968254 0 0.984127 0 
1 0 
FIELD FieldData 7
Curvature 1 64 double
0 0.050730071734 0.031752021784 0.089298977671 0.16521190264 0.27013913929 0.33942043774 0.26837189501 0.14857703951 
0.13405472611 0.3830510673 0.49065779891 0.32812988482 0.23518859627 0.17713832605 0.13024353322 0.10396252431 0.14431709751 
0.3410944565 0.96729530684 0.87089043573 0.38817922968 0.26493784542 0.23147876801 0.21691352418 0.18776784225 0.16316745506 
0.22760361501 0.50628998657 0.67505200082 0.3387167301 0.16149217715 0.17239029227 0.48544120559 0.96316147566 0.33461606282 
0.12324733736 0.16035377242 0.26800510112 0.44008990142 0.51950043429 0.37587515914 0.22730217433 0.17810162205 0.19788267632 
0.19491468336 0.17046071596 0.18233871274 0.18258935271 0.14138589769 0.08627237898 0.037844078527 0.015698088923 0.065277257223 
0.14188445181 0.24663556314 0.33672140641 0.33054022418 0.2486028276 0.18107551206 0.15306592748 0.16022659797 0.22797442597 
0 
Torsion 1 64 double
0 0 -0.2155749843 -0.010739694671 -0.0045750576248 0.0055902677025 0.022839340908 0.028158828912 -0.24486599408 
-0.47619618533 0.14083810692 0.21669741983 0.28367486165 0.15408354698 0.14055842703 0.28401646229 0.5592953354 0.2962574149 
0.017736669912 0.032143534282 0.07822613329 0.12332426332 -0.16903963821 -0.36076636399 -0.39800484157 -0.48188517779 -0.7554876641 
-0.60777080851 -0.13620599768 -0.0056158272181 0.15539980196 0.41082705128 -0.18369957924 -0.21068311418 -0.1297109201 -0.49860046739 
-1.44398775 -0.43907809329 -0.14560286099 -0.083313291752 -0.10777106335 -0.23706891005 -0.53117682537 -0.61255606528 -0.21523325026 
0.14943226589 0.46503848885 0.36285841018 0.22684076834 0.20376879681 0.25151171519 0.54454543008 2.2668890421 0.02348485876 
-0.11329072837 -0.13721644473 -0.15199153983 -0.19768132669 -0.27692641648 -0.28353058399 -0.14628369706 0.021490003562 0 
0 
Abscissas 1 64 double
0 1.0319385717 2.0309497573 3.0435230344 4.0576681932 5.07107391 6.0827835144 7.0944758145 8.1079526896 
9.1222650025 10.135735654 11.142560811 12.153181547 13.165794817 14.179253679 15.193222989 16.207481225 17.221735341 
18.235139396 19.242635822 20.226034415 21.235440127 22.247781259 23.260788012 24.27396068 25.287373806 26.301151395 
27.31496878 28.326948677 29.329273664 30.336972365 31.350400449 32.364438861 33.377243517 34.372733025 35.379494454 
36.393440659 37.407603472 38.421065672 39.432605629 40.439945679 41.448968374 42.461299776 43.474952861 44.488599655 
45.50201632 46.515730409 47.52949718 48.543078 49.556888224 50.571138693 51.585641333 52.60023916 53.614810742 
54.629147277 55.642784008 56.654871303 57.666078774 58.678295703 59.691743442 60.70559141 61.71788717 62.717018711 
63.747078914 
ParallelTransportNormals 3 64 double
0.58380299879 0 0.81189534954 0.60603164818 -0.011279312149 0.79536055882 0.59627400294 -0.0062031738254 0.80275702055 
0.56461531569 0.0074789278103 0.82532030808 0.50149487669 0.02441544373 0.86481603521 0.39019201352 0.027874798704 0.92031146259 
0.25137578837 -0.0087423413491 0.96785008369 0.15742256437 -0.062856463957 0.98552889413 0.1102931849 -0.10254893622 0.98859452206 
0.0300087325 -0.18360556826 0.982541842 -0.17842470785 -0.43199852164 0.88404858516 -0.30558639451 -0.68211023383 0.66433619831 
-0.30681942489 -0.78752830879 0.53447264043 -0.28388221396 -0.83719360068 0.46745883624 -0.26253560487 -0.86179939705 0.43402402631 
-0.25657367525 -0.86682681022 0.42752921568 -0.2799306831 -0.84960603009 0.44699933589 -0.35525054984 -0.79312895705 0.49471557923 
-0.550608558 -0.62019541532 0.55873774052 -0.92247050895 -0.13352993455 0.36224013679 -0.96578782062 0.19800840327 -0.16747106551 
-0.83675504082 0.26241621305 -0.48060246856 -0.69729811436 0.25735210442 -0.66898821668 -0.58352198205 0.22315133265 -0.78083646124 
-0.52927532306 0.19159264796 -0.82653486898 -0.53862324208 0.20038315167 -0.81837130669 -0.58756779256 0.26964624646 -0.76292528528 
-0.6602459396 0.42444675253 -0.61961298687 -0.70984520185 0.66967870319 -0.2182893124 -0.59761471705 0.71452596495 0.3637434472 
-0.46667867769 0.60570268762 0.64446510068 -0.38523666203 0.52617530816 0.75811098087 -0.28745988597 0.43609055679 0.85275543987 
0.039874423841 0.14661282842 0.98838995789 0.55980765565 -0.40679489118 0.72189563317 0.65122895016 -0.58011034434 0.48925744028 
0.65461438321 -0.59859432764 0.46169778016 0.65363539022 -0.55326736814 0.51638744757 0.66047382188 -0.42109223646 0.62165557909 
0.68264294136 -0.13757506966 0.71768496906 0.70707207939 0.23667780185 0.66635778127 0.70455309352 0.5078744572 0.49564954769 
0.67567677751 0.65893725847 0.33054890973 0.63213942497 0.74620324541 0.20875934455 0.58196950239 0.80322050388 0.12707604195 
0.51802189261 0.85314105342 0.061673833565 0.41353283573 0.91040711329 -0.012226276473 0.2611519081 0.96030680186 -0.098033296332 
0.10150861672 0.97825412025 -0.18087254335 -0.014712398605 0.97000411111 -0.24264288522 -0.075603078868 0.95775993567 -0.27745284299 
-0.094203842124 0.95272074238 -0.28887509961 -0.081488964265 0.95630898162 -0.28077158042 -0.03079573529 0.96808954439 -0.24870516024 
0.083603714227 0.98026515553 -0.17913861621 0.28903452764 0.95554137261 -0.058307178397 0.54934332408 0.82943245432 0.1013099996 
0.74492599897 0.6189039468 0.24908464564 0.83006380755 0.4325061614 0.35204047459 0.85345457943 0.31093368401 0.41825294379 
0.85391617675 0.2281588459 0.46772930646 0.84078227706 0.15178385092 0.51966029787 0.79485264426 0.043953394749 0.60520853679 
0.79485264426 0.043953394749 0.60520853679 
FrenetTangent 3 64 double
-0.7433806899 0.37676799303 0.55265814869 -0.7433806899 0.37676799303 0.55265814869 -0.73622412214 0.38287818946 0.55801284394 
-0.76817594409 0.33195112005 0.547461572 -0.82659607926 0.22182326249 0.51723627287 -0.89455771822 0.027905564284 0.44608045044 
-0.91791300829 -0.2421235473 0.31434359712 -0.85520566943 -0.49269133939 0.16086798021 -0.76391383527 -0.64340341094 0.049675980884 
-0.70273495291 -0.7094784199 -0.052952409324 -0.61530379105 -0.73298252103 -0.29006528331 -0.35647152331 -0.70176807703 -0.61680598175 
-0.0072171674772 -0.63020165507 -0.77639795624 0.26519329898 -0.5741036374 -0.77464671154 0.45732015072 -0.52711406013 -0.71624649902 
0.58744930182 -0.49535662415 -0.63994150726 0.66838536527 -0.49278690649 -0.55715533587 0.7136258926 -0.53508955696 -0.45212526079 
0.72722504028 -0.64353033757 -0.23877279037 0.58047387458 -0.75672137773 0.30070390322 0.065121911173 -0.52656106594 0.84763941657 
-0.37449905164 -0.18665265047 0.90824624876 -0.59487235869 0.021631916458 0.80352905178 -0.69728540838 0.20960709511 0.68546183333 
-0.69874614526 0.40651842374 0.5886396144 -0.61463722073 0.57800948564 0.53677380842 -0.48303535614 0.68356035755 0.54719473892 
-0.32581005707 0.69381305754 0.64223924506 -0.10554830485 0.5193340693 0.84802811263 0.18920756706 0.074685439412 0.97909273397 
0.3990078407 -0.33182563221 0.85480084983 0.50633444751 -0.49442813856 0.70651698003 0.59910561528 -0.55198819134 0.57998405009 
0.71497422275 -0.6322761817 0.29839351679 0.64512733112 -0.68748113938 -0.33343726492 0.30006231199 -0.56968071494 -0.76513168275 
0.1014836041 -0.55413825941 -0.82621538811 0.013795178383 -0.63804251328 -0.7698775515 -0.040414732553 -0.78151258472 -0.62257909482 
-0.073841206223 -0.94441257784 -0.32036285535 -0.064516832369 -0.98863365855 0.13579789217 0.0079463763644 -0.84612134358 0.53293107157 
0.12802150834 -0.66944388419 0.7317481666 0.27904584854 -0.55929941685 0.7805879686 0.44980397906 -0.51119625782 0.73236245563 
0.61367150791 -0.47907474703 0.62761028285 0.74523053477 -0.40845873985 0.52706063018 0.83790741881 -0.27437040332 0.47183899721 
0.88323168912 -0.09926514742 0.45831017209 0.88128804885 0.062582523953 0.46841733812 0.85520825889 0.17194330273 0.48893183019 
0.83032152095 0.22492094943 0.50987914092 0.82038295262 0.23153150773 0.52284316192 0.82927442052 0.19272123537 0.52455930161 
0.85092253732 0.090619403694 0.51741565415 0.85735910503 -0.10306735815 0.50429404588 0.78795376982 -0.38168079341 0.48316521872 
0.60521147926 -0.65160357574 0.45730935423 0.37117645499 -0.81281946149 0.4489460572 0.1665889312 -0.86593271983 0.47160221875 
0.0048414452839 -0.85835513223 0.51303316402 -0.14031178925 -0.81886750843 0.55656859904 -0.31809472909 -0.74231888507 0.58972740839 
-0.31809472909 -0.74231888507 0.58972740839 
FrenetNormal 3 64 double
0.59452311075 0.75078845272 0.2878523407 0.59452311075 0.75078845272 0.2878523407 -0.53225593774 -0.83684426863 -0.12804408152 
-0.50499109043 -0.8397791857 -0.1993863532 -0.40364517023 -0.87410872466 -0.27019347517 -0.21727456556 -0.89933555917 -0.37945660513 
0.063553006775 -0.87172110801 -0.48586348409 0.35101365341 -0.77895064743 -0.51963959048 0.52049320619 -0.65982580941 -0.54195638528 
0.32055037159 -0.24929876409 -0.91383673897 0.4023251202 0.024430479682 -0.91517083067 0.77867418214 0.14168496995 -0.61122163522 
0.97461918672 0.16929726851 -0.14647824327 0.96228094346 0.20819006338 0.1751350432 0.88826930605 0.2319462676 0.39645752469 
0.78422557663 0.15328874866 0.60124271679 0.56533138947 -0.15023047418 0.8110679532 0.20005114873 -0.46286666293 0.86355890954 
-0.055591730656 -0.40193990959 0.91397695188 -0.43963810868 0.019587211066 0.89796139926 -0.76733088012 0.51661840001 0.37987991416 
-0.76788233838 0.61146600566 -0.1909608293 -0.58293267115 0.67667626355 -0.44977631691 -0.22562019179 0.84350010661 -0.48744548332 
0.22180269338 0.90540957875 -0.36199041412 0.62156164781 0.77387048445 -0.12159601665 0.87501115271 0.39977183782 0.27301641033 
0.75498823389 -0.21794871965 0.6184586666 0.56558245486 -0.67007290081 0.48074816106 0.4736874942 -0.88035533271 -0.024385364773 
0.40852616634 -0.77025919987 -0.48970106843 0.53346589961 -0.464120183 -0.70711144078 0.56356879027 -0.22382350926 -0.79516869615 
0.21978634486 -0.20189512735 -0.95442774486 -0.38655710209 0.082763548327 -0.91854439299 -0.84710044775 0.20967389779 -0.48832129587 
-0.89780824551 -0.40876031495 0.16387604835 -0.39214672573 -0.71171987089 0.58281709899 -0.16618808243 -0.60915169425 0.77544550721 
-0.046985516963 -0.31758853125 0.94706382362 0.079642269301 0.13054623408 0.98823822518 0.27615861691 0.51407822145 0.81207142576 
0.60479513395 0.6374518489 0.47736567356 0.91628325666 0.3983053473 -0.042164485884 0.88247196399 0.12809520176 -0.45258684477 
0.77172688165 0.19594807683 -0.60501402573 0.65603547954 0.59062195856 -0.46987567681 0.38886499597 0.90670330986 -0.16331908274 
0.10334468709 0.99451300767 0.016240481297 -0.13941537717 0.98150862171 0.13116469845 -0.33682505899 0.9013738521 0.27216549814 
-0.49581038072 0.71587991031 0.4916177584 -0.037364324239 -0.89069819223 0.4530569916 0.26493026145 -0.96204894615 -0.065374167513 
0.15597742739 -0.98416972362 -0.084148661605 -0.07361282922 -0.99422806627 -0.078049366499 -0.39074476998 -0.91640770259 -0.086691679881 
-0.70717588849 -0.7038551908 -0.067008455613 -0.91734505284 -0.39590928914 0.041639990424 -0.97518048175 -0.073945127862 0.20869869686 
-0.93922154311 0.17221368344 0.29699383864 -0.90849818559 0.32996101807 0.25643083537 -0.88789863791 0.45131514429 0.089166413655 
-0.88789863791 0.45131514429 0.089166413655 
FrenetBinormal 3 64 double
-0.30647580765 0.54255191336 -0.78211891719 -0.30647580765 0.54255191336 -0.78211891719 0.41794456417 -0.39127479104 0.81989412681 
0.39356030987 -0.42962701632 0.81273052689 0.39218554066 -0.43212079063 0.8120727332 0.39058706064 -0.43636777092 0.81057073508 
0.39165893905 -0.42600293155 0.81555182409 0.38133014317 -0.38793186639 0.83910439693 0.38147408117 -0.38815197026 0.83893716891 
0.63514647541 -0.65915893222 0.40261452638 0.67789065665 -0.67980863154 0.27986511412 0.51632796857 -0.69817400077 0.49594202637 
0.22375288461 -0.75774950269 0.61298477779 0.060728082642 -0.79187240831 0.60765959956 -0.042847633384 -0.81752779559 0.57429294246 
-0.19973372962 -0.85505811174 0.47852070258 -0.48338537791 -0.85708335034 0.17817605619 -0.671355065 -0.70670617542 -0.22326835494 
-0.68414421015 -0.65139313299 -0.32807573214 -0.68539653802 -0.65344402794 -0.321313691 -0.6379360917 -0.67515840557 -0.37040338861 
-0.51971836096 -0.7689409028 -0.37232071294 -0.55345856013 -0.73596283502 -0.38992605412 -0.68035916127 -0.4945426532 -0.5408687233 
-0.68011571787 -0.12237755458 -0.72281833433 -0.4856770582 0.25890057515 -0.83491813211 -0.032129851361 0.61067807826 -0.79122686847 
0.5690699196 0.68638312683 -0.45281081018 0.81790955618 0.53037197519 -0.223001179 0.86012827788 0.46839787928 -0.2019474493 
0.82091358527 0.54460308007 -0.1717800067 0.67752458348 0.73493759704 0.028760515291 0.5687377958 0.80325094045 0.17698939601 
0.6637061273 0.74797405544 -0.0053841408311 0.65907839705 0.72147063562 -0.21235768994 0.4386153672 0.79467020808 -0.41966155416 
-0.42853405045 0.725152256 -0.53899236842 -0.91979923818 0.29386489518 -0.26002458503 -0.98526553307 0.13480464871 -0.10525937504 
-0.99616255574 0.084984749481 -0.020922592966 -0.9947334755 0.074573252213 0.070314598574 -0.96107922327 0.14072048245 0.23774875901 
-0.78602375241 0.38144465688 0.4864839508 -0.28732978957 0.72700551072 0.62362214474 0.13754858487 0.84986469822 0.50873409706 
0.1668679134 0.85562359595 0.48996261238 -0.11936875484 0.69593617517 0.70811294329 -0.38300805789 0.32032794081 0.86642647578 
-0.45740754146 0.033019813595 0.88864392921 -0.45154703804 -0.18089846104 0.87371678434 -0.39391333256 -0.39744267434 0.82877717575 
-0.2544371007 -0.66100417587 0.70592863752 0.5705924275 -0.39121591391 -0.72206259451 0.49205273298 0.1931847578 -0.84886026961 
0.50159931981 0.15230915527 -0.85158677983 0.50942763608 0.029793823533 -0.85999756492 0.47586487722 -0.12048524627 -0.87122667777 
0.36554251206 -0.28284386234 -0.88677957882 0.14389611978 -0.4272942286 -0.89258811829 -0.14584634383 -0.49466417173 -0.85675912671 
-0.34327751654 -0.4832896794 -0.8053518687 -0.39362882081 -0.46966129306 -0.79023706648 -0.33234282318 -0.49525479645 -0.8026648955 
-0.33234282318 -0.49525479645 -0.8026648955 
