# vtk DataFile Version 4.2
vtk output
ASCII
DATASET POLYDATA
POINTS 64 float
0 0 0 -0.831503 0.579507 0.258356 -1.67077 0.970056 0.582056 
-2.57244 1.20586 0.984923 -3.47562 1.23154 1.44521 -4.33699 1.02291 1.93631 
-5.11168 0.585059 2.42115 -5.77794 -0.0368354 2.86526 -6.35355 -0.779702 3.24664 
-6.87908 -1.59317 3.54834 -7.39915 -2.4424 3.74087 -7.94425 -3.29668 3.76495 
-8.48647 -4.11758 3.52601 -8.88208 -4.85668 2.96104 -8.96363 -5.4758 2.16566 
-8.73195 -5.98431 1.32072 -8.29606 -6.42515 0.518299 -7.738 -6.83662 -0.222064 
-7.10268 -7.24746 -0.897836 -6.41158 -7.68381 -1.49864 -5.67274 -8.18092 -1.98275 
-4.90493 -8.79982 -2.20486 -4.33543 -9.5067 -1.79768 -4.24563 -9.99099 -0.91414 
-4.45755 -10.2349 0.0456454 -4.8517 -10.279 0.978015 -5.37032 -10.1092 1.83157 
-5.94432 -9.70194 2.56007 -6.47786 -9.07393 3.14981 -6.88041 -8.29907 3.66452 
-7.05297 -7.49761 4.25804 -6.79625 -7.07144 5.11717 -6.27191 -7.39104 5.91964 
-5.77742 -8.06157 6.49565 -5.3434 -8.88519 6.89672 -4.96893 -9.7972 7.13323 
-4.64955 -10.757 7.20342 -4.37205 -11.7294 7.12477 -4.11038 -12.6949 6.95561 
-3.82867 -13.6556 6.79127 -3.49251 -14.6108 6.7399 -3.08004 -15.5266 6.87531 
-2.58247 -16.3494 7.19604 -1.99323 -17.0399 7.64739 -1.30188 -17.5736 8.16205 
-0.503927 -17.9255 8.67852 0.383603 -18.0727 9.14513 1.31529 -18.0212 9.54151 
2.24621 -17.8133 9.88622 3.15547 -17.5057 10.2146 4.04301 -17.1518 10.5558 
4.91953 -16.7959 10.9224 5.79804 -16.4721 11.3132 6.68726 -16.2061 11.7227 
7.58705 -16.0179 12.1517 8.48606 -15.926 12.6124 9.35848 -15.9515 13.1288 
10.1549 -16.1248 13.7314 10.7835 -16.4842 14.4389 11.1203 -17.0412 15.2128 
11.113 -17.7353 15.95 10.8272 -18.4831 16.5737 10.377 -19.2099 17.0537 
9.75964 -19.9687 17.4241 
LINES 1 65
64 0 1 2 3 4 5 6 7 8 9 10 11 12 13 14 15 16 17 18 19 20 21 22 23 24 25 26 27 28 29 30 31 32 33 34 35 36 37 38 39 40 41 42 43 44 45 46 47 48 49 50 51 52 53 54 55 56 57 58 59 60 61 62 63 

CELL_DATA 1
FIELD FieldData 2
Length 1 1 double
63.810942237 
Tortuosity 1 1 double
1.2594508395 
POINT_DATA 64
SCALARS MaximumInscribedSphereRadius float
LOOKUP_TABLE default
0.93 1.13396 1.2367 1.20383 0.997202 0.930018 0.944134 0.981666 1.16275 
1.11513 0.935686 0.93 0.93 0.93 0.93 0.93 0.947208 1.12565 
1.235 1.2291 1.06503 1.08328 1.58423 1.89035 1.74616 1.60066 1.55 
1.55 1.551 1.74545 1.3932 1.42493 1.85969 1.67527 1.08845 1.08399 
1.3418 1.74273 1.70627 1.48707 1.26122 1.03349 1.17078 1.50608 1.55 
1.55 1.62728 1.83404 2.05148 1.87769 1.38537 1.45842 1.80417 2.09652 
1.95224 1.8704 1.9139 2.08878 1.98854 1.74478 1.69119 2.04458 2.30326 
2.48 
TEXTURE_COORDINATES TCoords 2 float
0 0 0.015873 0 0.031746 0 0.047619 0 0.0634921 
0 0.0793651 0 0.0952381 0 0.111111 0 0.126984 0 
0.142857 0 0.15873 0 0.174603 0 0.190476 0 0.206349 
0 0.222222 0 0.238095 0 0.253968 0 0.269841 0 
0.285714 0 0.301587 0 0.31746 0 0.333333 0 0.349206 
0 0.365079 0 0.380952 0 0.396825 0 0.412698 0 
0.428571 0 0.444444 0 0.460317 0 0.47619 0 0.492063 
0 0.507937 0 0.52381 0 0.539683 0 0.555556 0 
0.571429 0 0.587302 0 0.603175 0 0.619048 0 0.634921 
0 0.650794 0 0.666667 0 0.68254 0 0.698413 0 
0.714286 0 0.730159 0 0.746032 0 0.761905 0 0.777778 
0 0.793651 0 0.809524 0 0.825397 0 0.84127 0 
0.857143 0 0.873016 0 0.888889 0 0.904762 0 0.920635 
0 0.936508 0 0.952381 0 0.968254 0 0.984127 0 
1 0 
FIELD FieldData 7
Curvature 1 64 double
0 0.18592438795 0.18366908854 0.21403629879 0.23690177022 0.24229017921 0.21412031504 0.16021146008 0.11474430578 
0.1121453113 0.16689122985 0.26286484911 0.37047478622 0.41557569683 0.33714406648 0.21601104172 0.13690336507 0.098110271948 
0.094344793187 0.13677175867 0.28933206315 0.74346372115 0.80871008676 0.39891036081 0.269756668 0.25725228301 0.27200946533 
0.26149373986 0.20727791722 0.2419215618 0.69392211991 0.93921780861 0.42741500339 0.2372759501 0.19256459131 0.17808286919 
0.15172817639 0.089729650911 0.020563460187 0.12249587469 0.20213329412 0.22087495757 0.20385522169 0.19405552721 0.20736041625 
0.22575427757 0.21195962543 0.16125647978 0.10067903427 0.051256838827 0.026972331887 0.039115899142 0.059990846436 0.078734854745 
0.098775316127 0.12949332097 0.18369608856 0.26958350656 0.3616533759 0.3762399883 0.30419283409 0.22030053949 0.18834071865 
0 
Torsion 1 64 double
0 0 -0.024922546603 -0.03181418958 -0.040461292164 -0.04900200455 -0.083595872266 -0.19956780166 -0.46632872865 
-0.48667860165 -0.065565208939 0.20129607094 0.27593666972 0.25407817672 0.22561976457 0.21928543659 0.25736551893 0.34909671651 
0.36388451992 0.22288218575 0.080737016437 0.019934193164 0.0093562402073 -0.016958871917 -0.097883007737 -0.1588533565 -0.2040188651 
-0.3067816225 -0.75025625761 -1.0849587406 -0.24497605777 -0.11723335134 -0.11086799702 0.0021947652366 0.066108998265 0.082376713196 
0.096110582972 0.2220402483 4.2647855115 0.072224286007 -0.058313139339 -0.15062098716 -0.25242024543 -0.28024557172 -0.18727864495 
-0.06655464515 0.032932182983 0.13307940966 0.28375750057 0.65622753948 1.465078744 0.55827021594 0.13545868199 -0.064006204403 
-0.17754467763 -0.19050641445 -0.12672208405 -0.050883656603 -0.00060737545792 0.028826876429 0.050916276567 0.07134718701 0 
0 
Abscissas 1 64 double
0 1.0459324293 2.0265815826 3.0419277675 4.0559550529 5.0692007659 6.0825715183 7.0964217343 8.1106338706 
9.1250031672 10.139262601 11.152929096 12.165336919 13.17626038 14.187493231 15.200497114 16.214508277 17.228847094 
18.243283951 19.257672361 20.27126442 21.282159706 22.27704442 23.288599223 24.301310323 25.314530741 26.327615455 
27.340559306 28.353895325 29.367497549 30.379618733 31.372402424 32.382863795 33.395745394 34.409439907 35.423303851 
36.43726206 37.451508549 38.466076017 39.480591195 40.494524228 41.508044252 42.521644124 43.53542128 44.549175053 
45.562736775 46.576197381 47.590005836 48.604232975 49.618731148 50.633310247 51.647894156 52.662445507 53.676943867 
54.691378856 55.705718719 56.71981667 57.733426902 58.745827917 59.757103276 60.76964147 61.784414073 62.764905129 
63.810921329 
ParallelTransportNormals 3 64 double
0.29671732377 0 0.95496535528 0.34774617314 -0.029437302885 0.93712648253 0.39713918229 -0.047295341542 0.91653893565 
0.45212014116 -0.05525678527 0.8902438237 0.50377685759 -0.049898313975 0.86239146332 0.5439547314 -0.034022508187 0.83842454587 
0.5660131643 -0.017800506284 0.82420400376 0.56707693973 -0.016631497203 0.823496896 0.54772593336 -0.043981604761 0.83550099962 
0.5035555732 -0.11422077925 0.85637923742 0.42199299638 -0.24466163474 0.87296196681 0.29441197273 -0.44121677989 0.84773188182 
0.16675350696 -0.65358310408 0.73825631997 0.11904130857 -0.78938278636 0.60224910416 0.12504399697 -0.83455591506 0.53654489417 
0.12771293745 -0.83835213294 0.52995764624 0.1161278767 -0.82841774015 0.54794010992 0.090642840409 -0.81085703195 0.57818228028 
0.046014057334 -0.78235247832 0.62113388749 -0.039414216827 -0.72658478981 0.68594537882 -0.24015861115 -0.57787028935 0.77999344239 
-0.68344505698 -0.13764985387 0.71690680832 -0.92221639176 0.29181870188 0.25369030727 -0.89948381164 0.42759749142 -0.089940302081 
-0.82377436154 0.46358227066 -0.32632388757 -0.7209728286 0.44942428358 -0.52746184104 -0.60566822255 0.3885267173 -0.6944155774 
-0.51917983946 0.30768638624 -0.79735900448 -0.50213706143 0.28214583305 -0.81746688033 -0.55119893424 0.41666228232 -0.72289160832 
-0.5224144884 0.81567644685 -0.24850560631 -0.187359656 0.86436283048 0.46666182251 0.022184804589 0.66081419509 0.75022158994 
0.12933876268 0.48839374215 0.86298495763 0.2059125432 0.32401137518 0.92337243478 0.26728474194 0.15844925238 0.9505012894 
0.31242244906 0.012334351516 0.94986318862 0.33626662658 -0.073365878033 0.93890478952 0.33338489854 -0.063150653116 0.94067343135 
0.29596760076 0.052868178774 0.95373378622 0.22131612998 0.23943920102 0.94535074952 0.12431800968 0.42475246627 0.89673316815 
0.025627090289 0.56217248116 0.8266228606 -0.064389412271 0.64822809007 0.75871888525 -0.14670902919 0.69717933908 0.70172461116 
-0.22532511651 0.72045924654 0.65587122665 -0.30337330975 0.72456463811 0.61884628151 -0.37767257615 0.7142185216 0.58928374203 
-0.44025278673 0.69669024645 0.56639225301 -0.48308834646 0.68092008015 0.55043028075 -0.50085796815 0.67376955666 0.54330091134 
-0.49270389583 0.67692738575 0.5468200668 -0.46338079256 0.68670993462 0.56009615851 -0.42208771549 0.69719339727 0.57945088422 
-0.37966468495 0.7038006435 0.60043266168 -0.34579615877 0.70507045904 0.61911280424 -0.32575635377 0.7026826396 0.63255031893 
-0.31881159408 0.70008596972 0.63893567946 -0.31743607325 0.69877978205 0.64104692153 -0.31575043552 0.69238283599 0.6487739752 
-0.3190811708 0.67598084914 0.66425680127 -0.33007585328 0.65404365634 0.68064442016 -0.35058156985 0.62538096966 0.69713069482 
-0.35058156985 0.62538096966 0.69713069482 
FrenetTangent 3 64 double
-0.82804074856 0.48076388169 0.28846942435 -0.82804074856 0.48076388169 0.28846942435 -0.87584080604 0.31510936878 0.36552560537 
-0.89453288661 0.12959858735 0.42780266588 -0.87656905389 -0.090883414166 0.47261707417 -0.8132570891 -0.32135449685 0.48512286525 
-0.71492502158 -0.52579100236 0.46089698996 -0.61434706939 -0.67514068888 0.4083659248 -0.54372906616 -0.768498436 0.33729639262 
-0.51625236155 -0.82093707476 0.24402011899 -0.52711481985 -0.84300636079 0.10719254808 -0.54132007505 -0.83398472154 -0.10696756792 
-0.47131322625 -0.7839892395 -0.40401078588 -0.2409099122 -0.68574278632 -0.68681820391 0.075208743606 -0.56489375563 -0.82172908536 
0.33128039473 -0.47111306573 -0.81749971215 0.49120340731 -0.42120577179 -0.76243354494 0.58895262048 -0.40582367293 -0.6988862263 
0.65453211758 -0.41805264126 -0.62993626359 0.70679086858 -0.46139049923 -0.53625131731 0.7519896463 -0.55701574016 -0.35248409477 
0.70675656176 -0.70066309849 0.097807897599 0.3514321998 -0.63493886518 0.68800294071 -0.06149940963 -0.36672094312 0.92829605864 
-0.30188545948 -0.14345901547 0.94248855709 -0.45420561183 0.062550357748 0.88869832616 -0.54429212351 0.28746452229 0.78810547055 
-0.55128213443 0.51530928287 0.65615878508 -0.46433833324 0.69587962983 0.54785167068 -0.28599665698 0.78388863935 0.55111206963 
0.044207131829 0.64484073093 0.76303745729 0.42469435776 0.057946631775 0.90348043164 0.51468009499 -0.50018184022 0.69636378893 
0.46142024599 -0.74251326835 0.48555679679 0.4006269437 -0.8600476429 0.315936867 0.34354209403 -0.92677880753 0.15185477119 
0.29514781203 -0.95544244649 -0.0041833599743 0.26603153659 -0.95617821454 -0.12227200648 0.26781029863 -0.94934737999 -0.16436908488 
0.30518270632 -0.94631480719 -0.10654483305 0.37116642161 -0.92763105804 0.041666624825 0.45170286279 -0.86296248041 0.2264073346 
0.53888783256 -0.75036016523 0.38283093703 0.63462807881 -0.6066832434 0.47873024112 0.73862468577 -0.43921673144 0.51139244851 
0.83686231575 -0.24780893958 0.48811084186 0.90247780746 -0.047474548293 0.42811210483 0.92147224045 0.12833147575 0.36663325328 
0.90824051939 0.2544310538 0.33221077314 0.88582106841 0.32611850354 0.33010264527 0.86943781951 0.34983272961 0.34884801749 
0.86508458391 0.33503634469 0.37333538598 0.87161633019 0.29081315538 0.39460446223 0.8824604687 0.22404151352 0.4136047889 
0.88774669997 0.13823581385 0.43908616064 0.87515670749 0.032804486357 0.48272621951 0.82653231737 -0.098460457728 0.55421103076 
0.70978135522 -0.26532991015 0.65254154393 0.48474442942 -0.46014078702 0.74383687343 0.16563769499 -0.62892043983 0.75962045415 
-0.14623915212 -0.7194200396 0.67900582988 -0.37106027151 -0.74343121056 0.55643895448 -0.52917823612 -0.73639588234 0.42153469476 
-0.52917823612 -0.73639588234 0.42153469476 
FrenetNormal 3 64 double
-0.32826232792 -0.83281768298 0.44571128658 -0.32826232792 -0.83281768298 0.44571128658 -0.17586603826 -0.91372533193 0.36630199887 
-0.012339095404 -0.96384279684 0.26618566771 0.17132001551 -0.97660768103 0.12994956575 0.35402495456 -0.93488012889 -0.025796824517 
0.50019396257 -0.8451893928 -0.1883106213 0.55524450527 -0.73763055394 -0.38419357784 0.42637149887 -0.59911052786 -0.67769751391 
0.047023804854 -0.31166573675 -0.94902751821 -0.14878722747 -0.032637607146 -0.98833048498 0.0082841386791 0.12192247487 -0.99250505448 
0.39785391662 0.21983388598 -0.89072179922 0.77074313163 0.29490346461 -0.56478931612 0.93222337424 0.33236269373 -0.14315942279 
0.92970767623 0.31076134184 0.19766391976 0.87063450919 0.21055031728 0.44459432667 0.7665769883 0.0066785713531 0.64211768212 
0.57620960553 -0.26358236379 0.77363223045 0.34515501625 -0.4367728632 0.83072106072 0.10683311489 -0.42467826958 0.89901893913 
-0.28000448518 -0.15007787528 0.94819519068 -0.68299491062 0.32874321197 0.65226210425 -0.76710386585 0.61239722339 0.1911054677 
-0.66985248723 0.7353676622 -0.10262576064 -0.47945863345 0.82359060723 -0.30301473644 -0.20239836747 0.86670351111 -0.45591657645 
0.15417866197 0.83583708529 -0.52688263119 0.62255663597 0.69642853854 -0.35694611037 0.93866263037 0.11354791136 0.32560610894 
0.68424134556 -0.57605716254 0.44718220727 0.3267047415 -0.94051494362 -0.093250483688 -0.074321381992 -0.83516766177 -0.54495073989 
-0.25333480368 -0.63478829177 -0.72997623377 -0.30408659806 -0.45008145729 -0.83961778369 -0.30355327597 -0.26259688178 -0.91591390771 
-0.27053328833 -0.079370195308 -0.95943322436 -0.17254927277 0.07755933405 -0.9819426145 0.94670703312 0.22760596954 0.22790637565 
0.43528752765 0.03911106132 0.89944154516 0.37199844073 0.18965918284 0.90865095304 0.37940240388 0.41548417077 0.82669626815 
0.44189122169 0.63872299969 0.62989290983 0.51697129174 0.79372143376 0.32054168076 0.5064555166 0.86221875478 0.009034854664 
0.39163916383 0.89402450557 -0.21757515668 0.20360276928 0.92287972488 -0.32686224277 -0.0070101334736 0.94919069557 -0.31462339627 
-0.21199680279 0.96426263279 -0.15891799964 -0.41349573902 0.87758950529 0.24260654159 -0.39633894749 0.07234639432 0.91524938565 
0.04940691638 -0.7975402968 0.60123908023 0.1749606856 -0.93654857495 0.30375240781 0.1310634463 -0.96157654144 0.241232104 
-0.0069453216328 -0.94971541898 0.31303735473 -0.19893006301 -0.88507475029 0.42079628851 -0.40377338429 -0.78970725562 0.46187607056 
-0.61439828441 -0.68630241502 0.38923481762 -0.81216492349 -0.55247485084 0.18750913639 -0.92506050483 -0.36604732819 -0.1013529276 
-0.91055712346 -0.17038554041 -0.37663575578 -0.8181623975 -0.021696510028 -0.57457771691 -0.6912569163 0.08604111512 -0.71746832835 
-0.6912569163 0.08604111512 -0.71746832835 
FrenetBinormal 3 64 double
0.45452432585 0.27437346261 0.84742364861 0.45452432585 0.27437346261 0.84742364861 0.44941519674 0.25653869784 0.85569496752 
0.44683180448 0.23283313581 0.86378820863 0.44975120461 0.19487853238 0.8716342189 0.46182165235 0.15076614991 0.87406540342 
0.48855727742 0.095909916744 0.86724452985 0.56060790013 -0.009285262742 0.8280293269 0.72288729935 -0.22467026789 0.65341963788 
0.85514458483 -0.478462943 0.19950175741 0.83666739367 -0.53691252758 -0.10822481275 0.8407758021 -0.53814904474 -0.059090238155 
0.78713156701 -0.58054623841 0.20830257148 0.5898452672 -0.6654237579 0.45748637485 0.35398195632 -0.75526822035 0.55160374358 
0.16092525228 -0.82551793907 0.54094657357 -0.02673507171 -0.88218720332 0.47013931365 -0.25591899468 -0.91392699007 0.31502845107 
-0.4894590867 -0.86934246798 0.068362824781 -0.61750682818 -0.77223589219 -0.1494558261 -0.65046003522 -0.71370990785 -0.25984593517 
-0.64968657882 -0.69752982285 -0.30225733331 -0.64032285685 -0.69912841314 -0.31812906332 -0.63856830614 -0.7003466218 -0.31897512086 
-0.67835301629 -0.66230952905 -0.31809318291 -0.75087727425 -0.56372507877 -0.3440891666 -0.8141136193 -0.40766306217 -0.4135575445 
-0.81994935724 -0.18929529799 -0.54023174815 -0.6299310655 0.17532493116 -0.7566029482 0.19266130527 0.61043056355 -0.76828129518 
0.72791449396 0.50233313371 -0.46669252433 0.84433329578 0.33477429515 -0.4183628293 0.85415498126 0.22872057941 -0.4670183771 
0.85024280875 0.21381737756 -0.48100862281 0.86430862131 0.24030133946 -0.44184372054 0.88872618859 0.26855896854 -0.37153982578 
0.91635119303 0.28430635509 -0.28190492634 0.94839547131 0.28232564838 -0.14435462674 -0.17895093568 -0.2166450432 0.95970906418 
-0.84698777089 -0.32087164189 0.42385505235 -0.85079530298 -0.32176080327 0.41547242738 -0.80747652578 -0.28752158398 0.5150854289 
-0.71716947238 -0.17027199446 0.67577762304 -0.5744457199 0.044065040103 0.81735572864 -0.4449004195 0.25232416001 0.85929979344 
-0.3824659852 0.37324377143 0.84522710395 -0.3795783442 0.3821507303 0.84254442016 -0.38838095745 0.28734657782 0.87555249763 
-0.36077210887 0.073908144776 0.92972096437 -0.21057613487 -0.35140202313 0.91223588483 0.29494629462 -0.93401448625 0.20155302718 
0.49918695826 -0.50167730935 -0.70649292847 0.45790144294 -0.19571529173 -0.86719190099 0.45175866812 -0.15866932652 -0.87791693833 
0.46027987051 -0.28094747324 -0.84214663692 0.4410527943 -0.46429145165 -0.76805330581 0.39218794281 -0.60553116243 -0.69247428027 
0.34456519832 -0.67719202145 -0.65014289983 0.3246705641 -0.69501222673 -0.64151931343 0.34179996549 -0.68590701548 -0.64242069526 
0.3866520856 -0.67335248885 -0.63015600486 0.439231791 -0.6684603927 -0.60019674871 0.49207140751 -0.67105739768 -0.55456983233 
0.49207140751 -0.67105739768 -0.55456983233 
