# vtk DataFile Version 4.2
vtk output
ASCII
DATASET POLYDATA
POINTS 64 float
0 0 0 -0.967206 0.172528 -0.365228 -1.91803 0.163664 -0.582439 
-2.9003 -0.0911369 -0.645494 -3.7649 -0.609637 -0.544317 -4.49758 -1.28633 -0.360661 
-5.15717 -2.02948 -0.155633 -5.79684 -2.79191 0.0417357 -6.44331 -3.55646 0.205577 
-7.09104 -4.33265 0.288504 -7.67416 -5.15542 0.18271 -7.96569 -6.00365 -0.274071 
-7.82844 -6.72367 -0.971477 -7.44853 -7.3282 -1.69134 -6.95633 -7.90171 -2.36811 
-6.40866 -8.50795 -2.96941 -5.84878 -9.21216 -3.4358 -5.3728 -10.0864 -3.60982 
-5.26489 -10.9968 -3.21397 -5.6234 -11.512 -2.4223 -6.18043 -11.6077 -1.58289 
-6.76984 -11.3781 -0.791784 -7.28241 -10.8858 -0.0695832 -7.61316 -10.2056 0.6046 
-7.64427 -9.46126 1.29026 -7.27731 -8.91529 2.05485 -6.65105 -8.91333 2.84274 
-6.08297 -9.42465 3.50422 -5.69406 -10.2344 3.97059 -5.49144 -11.2015 4.1916 
-5.44179 -12.2112 4.13182 -5.48263 -13.1783 3.83015 -5.54533 -14.0963 3.40268 
-5.58283 -15.0158 2.97555 -5.56986 -15.9851 2.67912 -5.50103 -16.9948 2.64065 
-5.38032 -17.9643 2.90766 -5.20211 -18.8159 3.4271 -4.94367 -19.5072 4.12178 
-4.57093 -19.9959 4.92729 -4.05579 -20.227 5.76799 -3.40976 -20.1853 6.54703 
-2.67918 -19.9378 7.20494 -1.90119 -19.5838 7.75123 -1.09007 -19.2005 8.22491 
-0.249714 -18.8329 8.65851 0.614221 -18.4943 9.06883 1.48979 -18.1655 9.46217 
2.36083 -17.8147 9.84631 3.21369 -17.4323 10.241 4.0471 -17.0509 10.676 
4.86903 -16.7382 11.1814 5.67787 -16.5838 11.7725 6.44082 -16.6725 12.4331 
7.09885 -17.0309 13.1148 7.6038 -17.6115 13.7744 7.93571 -18.3368 14.4001 
8.09285 -19.136 15.0042 8.08737 -19.9503 15.6087 7.95473 -20.7301 16.2435 
7.76205 -21.4346 16.9476 7.6155 -22.0208 17.7665 7.63321 -22.4251 18.6564 
7.94617 -22.6247 19.6346 
LINES 1 65
64 0 1 2 3 4 5 6 7 8 9 10 11 12 13 14 15 16 17 18 19 20 21 22 23 24 25 26 27 28 29 30 31 32 33 34 35 36 37 38 39 40 41 42 43 44 45 46 47 48 49 50 51 52 53 54 55 56 57 58 59 60 61 62 63 

CELL_DATA 1
FIELD FieldData 2
Length 1 1 double
63.818525016 
Tortuosity 1 1 double
1.0591590607 
POINT_DATA 64
SCALARS MaximumInscribedSphereRadius float
LOOKUP_TABLE default
0.62 0.959212 1.13204 0.955603 1.14131 1.10588 1.10402 1.44485 1.55 
1.39087 1.00939 0.913053 0.716874 0.781084 0.965518 0.984137 1.0814 1.23319 
1.24 1.29523 1.49324 1.55 1.55 1.54311 1.34318 1.07275 1.20007 
1.46141 1.26373 1.25427 1.41242 1.35003 1.01441 1.14676 1.10502 0.879394 
0.711367 0.995993 1.24 1.29344 1.51456 1.581 1.581 1.5879 1.78521 
1.76053 1.57279 1.79743 1.87296 1.86 1.84301 1.70571 1.68738 1.83207 
1.45746 1.24 1.34517 1.70752 1.72693 1.63446 1.8077 1.68126 1.56369 
1.581 
TEXTURE_COORDINATES TCoords 2 float
0 0 0.015873 0 0.031746 0 0.047619 0 0.0634921 
0 0.0793651 0 0.0952381 0 0.111111 0 0.126984 0 
0.142857 0 0.15873 0 0.174603 0 0.190476 0 0.206349 
0 0.222222 0 0.238095 0 0.253968 0 0.269841 0 
0.285714 0 0.301587 0 0.31746 0 0.333333 0 0.349206 
0 0.365079 0 0.380952 0 0.396825 0 0.412698 0 
0.428571 0 0.444444 0 0.460317 0 0.47619 0 0.492063 
0 0.507937 0 0.52381 0 0.539683 0 0.555556 0 
0.571429 0 0.587302 0 0.603175 0 0.619048 0 0.634921 
0 0.650794 0 0.666667 0 0.68254 0 0.698413 0 
0.714286 0 0.730159 0 0.746032 0 0.761905 0 0.777778 
0 0.793651 0 0.809524 0 0.825397 0 0.84127 0 
0.857143 0 0.873016 0 0.888889 0 0.904762 0 0.920635 
0 0.936508 0 0.952381 0 0.968254 0 0.984127 0 
1 0 
FIELD FieldData 7
Curvature 1 64 double
0 0.22078126857 0.29763211375 0.33132059917 0.21854937988 0.098474833577 0.027944656841 0.03330708025 0.079573894566 
0.20120929581 0.47185305374 0.53268865711 0.26762629489 0.1212114231 0.096640413758 0.1637384387 0.3506798788 0.7600053504 
0.83096657651 0.48199104294 0.33121475492 0.28045242503 0.26347963269 0.30592065504 0.46555187116 0.65253862559 0.56176702236 
0.40582109474 0.34769983587 0.32279109947 0.25925653797 0.13359298421 0.024531008745 0.1453581972 0.26467622188 0.31203063965 
0.28276173478 0.24787701967 0.25503478817 0.29521992451 0.30819619813 0.25060196669 0.15793293832 0.082759201152 0.050587289967 
0.042799758657 0.022147020415 0.023583857838 0.036880630172 0.043513150449 0.096471420146 0.17694866653 0.25432619882 0.28865070383 
0.26849430327 0.22485637924 0.18743129958 0.15983918963 0.13202444422 0.11570784714 0.16695487723 0.25734013499 0.36705482768 
0 
Torsion 1 64 double
0 0 -0.084502547961 -0.078176205776 -0.11384340327 -0.21744204787 -1.3770736012 -0.183528126 0.42766976252 
0.28281402361 0.12273413782 0.11465254258 0.27171602621 0.72595593496 0.87300771266 0.36418814918 0.14108424418 0.048920169471 
0.0088938958537 -0.078222195338 -0.20183539112 -0.31654276532 -0.50267011048 -0.61624821843 -0.45254918063 -0.27380562272 -0.18454053031 
-0.031655981504 0.11546779775 0.14893873762 0.14546710545 0.2643597255 5.3048734723 0.19358273021 0.050062160331 -0.022762606148 
-0.11516769146 -0.20499413268 -0.20116336747 -0.14252566962 -0.11291843976 -0.12815313077 -0.21938323311 -0.50963458923 -0.68374354118 
-0.16499285061 0.80921216783 0.97226323089 0.73424947365 1.1444476749 0.39630940496 0.14867495246 0.055010594905 -0.0057937654601 
-0.074546322644 -0.16079239381 -0.23935341826 -0.31386719703 -0.5008397577 -0.85911268674 -0.53278887972 -0.281472456 0 
0 
Abscissas 1 64 double
0 1.0481628677 2.0235198411 3.0402540235 4.0534765751 5.0676139 6.0821913397 7.0967946076 8.1113373954 
9.1256867031 10.139676781 11.146222747 12.157977578 13.171872805 14.186366054 15.200771952 16.214138417 17.224627036 
18.223260813 19.233547093 20.245491322 21.258393783 22.27163415 23.284850137 24.297320008 25.305958374 26.312429256 
27.323224852 28.335391524 29.347890067 30.360597426 31.374479452 32.389038647 33.403561057 34.417282931 35.430039824 
36.442871583 37.456229483 38.469744546 39.482948426 40.495649746 41.508567343 42.522406464 43.536791524 44.551326533 
45.565888041 46.5804679 47.595071035 48.609649458 49.624225814 50.63876875 51.653019082 52.666694918 53.679754653 
54.692788992 55.706221047 56.720022671 57.734061152 58.748251028 59.762455399 60.776959539 61.794664889 62.772262279 
63.818492579 
ParallelTransportNormals 3 64 double
-0.35326388631 0 0.93552371783 -0.22260115577 -0.010708078171 0.97485078987 -0.066681246854 0.010153709758 0.99772266362 
0.074777332884 0.069425190411 0.99478062578 0.13841403335 0.1170377776 0.98343465161 0.15425431566 0.13319141049 0.97901259148 
0.14984000937 0.12807609201 0.98037976634 0.12849245356 0.10273111441 0.98637518598 0.077364212926 0.04186352827 0.99612359854 
-0.034453266969 -0.1033978895 0.99404318258 -0.19575454955 -0.41195648178 0.88992809454 -0.22426178043 -0.69973472958 0.67829047027 
-0.18570717253 -0.79853770756 0.57258219993 -0.17680191772 -0.81056742267 0.55832028012 -0.20660540879 -0.77675496789 0.59495035501 
-0.29009572793 -0.6779661969 0.67543045867 -0.46602257307 -0.4098160476 0.78413887068 -0.67331813414 0.2262357399 0.70388925282 
-0.57740070481 0.77874322703 0.24529046547 -0.3633563398 0.92165587776 -0.13609780792 -0.18068829097 0.90034020107 -0.39590309907 
-0.043875740994 0.8107234227 -0.58378288022 0.028171958867 0.71055150318 -0.70308100676 0.036462680901 0.67790334399 -0.73424623193 
0.067382454655 0.79639060778 -0.60101714172 0.29862799721 0.9237890738 -0.23965614204 0.58899522315 0.80023324179 0.11274478185 
0.76717634175 0.55433084076 0.32273484417 0.85911932648 0.27817166137 0.42957480104 0.89242686688 0.017181498737 0.45086481718 
0.89325572493 -0.16781129481 0.41705344886 0.88920088202 -0.24164359344 0.38849731681 0.89031560027 -0.22120240291 0.39800455884 
0.89160980448 -0.12146557841 0.43620874568 0.88482459781 0.042636967707 0.46396930942 0.86690344035 0.2297704905 0.44236178271 
0.83889921201 0.40039915733 0.36868499686 0.7965582254 0.55001563753 0.2509537647 0.72461366175 0.6845009581 0.079959236844 
0.59977993498 0.78569454867 -0.15148632209 0.42467541437 0.81426972874 -0.39574689044 0.25354804261 0.7783261293 -0.57438821936 
0.13624743601 0.73155894451 -0.66802555856 0.078588784606 0.70480580072 -0.70503374828 0.062995263967 0.69771487662 -0.71360041176 
0.064785255776 0.69845654826 -0.71271405264 0.059703136348 0.69650688683 -0.71506201976 0.041314087722 0.68935184568 -0.72324766091 
0.030048178093 0.68455983303 -0.72833710738 0.05528808117 0.69599202819 -0.71591781984 0.13489774954 0.72936868066 -0.67068914174 
0.27459797997 0.76938271198 -0.57675488025 0.46113539422 0.77717165666 -0.42820364814 0.64985777068 0.71778830594 -0.24992964158 
0.79598719401 0.59981573297 -0.081397011284 0.88745691526 0.45708792877 0.059083406641 0.93308924279 0.31484679067 0.17382739538 
0.9446965754 0.19137282695 0.26631714466 0.93758057805 0.10924666043 0.33016333359 0.93359663013 0.091069405333 0.34655980094 
0.94905794911 0.14989429569 0.27716549091 0.96233069881 0.25424011056 0.096341020908 0.90833375038 0.35710411558 -0.21773021964 
0.90833375038 0.35710411558 -0.21773021964 
FrenetTangent 3 64 double
-0.95368211755 0.081376947439 -0.2896000882 -0.95368211755 0.081376947439 -0.2896000882 -0.98075808864 -0.13377077436 -0.14219335952 
-0.92223956241 -0.38614998109 0.019036324201 -0.79262698488 -0.5930971864 0.14134422635 -0.68713697635 -0.70074533146 0.19183001893 
-0.64035051063 -0.74203684041 0.19832435808 -0.63392067446 -0.7526273727 0.17803543569 -0.63840283148 -0.76001621238 0.12172584636 
-0.60994587386 -0.79236205328 -0.011331702673 -0.44439465534 -0.84900642482 -0.28583470911 -0.078984608975 -0.80287450151 -0.59089251677 
0.25759853537 -0.65976118933 -0.70594487577 0.43076037913 -0.5818678326 -0.68983717003 0.51314227887 -0.58216837996 -0.63068611766 
0.54805638495 -0.64845898387 -0.52833241917 0.51957997823 -0.79173930191 -0.32122503642 0.30880782757 -0.94386088884 0.1173215588 
-0.13384945965 -0.76143471376 0.63427241689 -0.465284804 -0.31046435134 0.82892818611 -0.5738775611 0.067026671089 0.81619358624 
-0.54923552212 0.35980057765 0.75424391649 -0.4197839969 0.58364176919 0.69508537692 -0.18071696798 0.7114320093 0.6791213983 
0.17048190758 0.65497792985 0.73616562715 0.51656635828 0.28497425014 0.80743351073 0.61376904117 -0.26175934494 0.74482857722 
0.48254736128 -0.66612874219 0.56870074992 0.29652247642 -0.8906997099 0.3445699461 0.12617630818 -0.9887246753 0.080641525963 
0.0043839950548 -0.98368202527 -0.17986231887 -0.051159886206 -0.93144265587 -0.36027384705 -0.049384328678 -0.90562447702 -0.42119531658 
-0.012126744666 -0.93375674627 -0.35770278285 0.04072075426 -0.98516371875 -0.16671612832 0.094706168347 -0.98893411639 0.11419306074 
0.14900883935 -0.90780105727 0.39203776121 0.21709950796 -0.76711928895 0.60365205223 0.31397107273 -0.58697277252 0.74624736503 
0.44302991803 -0.35916178412 0.82141786233 0.58002363359 -0.094609246805 0.80908693902 0.68459123637 0.14381971852 0.7145982981 
0.74615108044 0.29750756082 0.59560709904 0.78392462007 0.36371733147 0.50316189525 0.81417912795 0.37019448714 0.44729005053 
0.84010014304 0.34810864369 0.41599533875 0.85728728033 0.32891687288 0.39607096551 0.86080838981 0.33493860844 0.38317756276 
0.84971814199 0.36139763045 0.38388908799 0.83124169285 0.37651273464 0.40899316464 0.81688881304 0.34253001167 0.46407527217 
0.80736066305 0.23125170566 0.54285486863 0.78184080086 0.032679847435 0.62262106428 0.70864525003 -0.22296941107 0.66940761225 
0.57908243999 -0.46755586486 0.66787352166 0.41544414077 -0.64829078359 0.63806365342 0.24224411453 -0.75513995205 0.6091645441 
0.075017636132 -0.79810779417 0.59782631521 -0.068244932032 -0.78764515884 0.61233792387 -0.16063198653 -0.73289784492 0.66110370881 
-0.16752332292 -0.63739099613 0.75210946965 -0.065093187266 -0.50042521271 0.86332930187 0.16608749436 -0.30332484142 0.93830111627 
0.16608749436 -0.30332484142 0.93830111627 
FrenetNormal 3 64 double
-0.23983356595 -0.78679836946 0.56870747002 -0.23983356595 -0.78679836946 0.56870747002 0.03311855336 -0.83179478476 0.55409439401 
0.34433596502 -0.79799214168 0.49461225725 0.59784173548 -0.71051771014 0.37114665955 0.72619342918 -0.65443639083 0.21060891193 
0.69330997316 -0.66953770477 -0.26653431864 -0.199540997 -0.06324266694 -0.97784648877 -0.016964314525 -0.14421482501 -0.98940097851 
0.31433862617 -0.22879609495 -0.92132707278 0.63068677333 -0.069913952481 -0.77288177181 0.84473175055 0.26083563648 -0.46732541162 
0.89777400267 0.43356585165 -0.077604719059 0.90198096692 0.2525180899 0.35023556299 0.559492105 -0.33035185707 0.76015540186 
0.076498410173 -0.59013710783 0.80367044689 -0.23646605101 -0.49451871474 0.83638211811 -0.53611924241 -0.070848536969 0.84116386199 
-0.63821766679 0.55586589078 0.53262681239 -0.42381132977 0.90029042941 0.099303068777 -0.096318023002 0.98420363535 -0.14854643252 
0.27291368454 0.93030468075 -0.24505371201 0.68389119532 0.70689476567 -0.18053427164 0.97673892783 0.21084941835 0.039033186486 
0.88278249391 -0.43343194549 0.18119552167 0.4318944622 -0.90096087659 0.041673401296 -0.11458950939 -0.96298152147 -0.24399965912 
-0.45067222293 -0.74558423706 -0.49091617709 -0.5388425835 -0.45391740505 -0.70965319671 -0.4742785956 -0.13152372983 -0.87049487204 
-0.34573031761 0.16728134077 -0.92330249676 -0.15953744544 0.36373587531 -0.91773853385 0.99808603392 -0.060463132635 0.012979926196 
0.33935819827 -0.34034049327 0.87692893777 0.20934651328 -0.15473884851 0.96552054672 0.16602926707 0.12879280272 0.97767412589 
0.20186406373 0.41604111787 0.88665702953 0.31984314049 0.64016512239 0.69849050212 0.44398627368 0.78552834619 0.43107007101 
0.48116432038 0.86835482322 0.12016987049 0.42345984224 0.88350267685 -0.20026178369 0.33126697993 0.81187313398 -0.48075378556 
0.29108059732 0.65879949896 -0.69372567059 0.38881790765 0.34421489698 -0.85459741363 0.56084740408 -0.30214057326 -0.77081856706 
0.53492204161 -0.65884360497 -0.52894566223 0.50938261073 -0.4301943107 -0.74529337239 -0.18463711457 0.90714318015 -0.37815391923 
-0.47953215252 0.83239385302 0.2777937871 -0.43340811771 -0.021802570846 0.90093398837 -0.11395195052 -0.69287936938 0.71199236826 
-0.069604705275 -0.87625360827 0.47679639156 -0.17690319498 -0.94595665466 0.27179269142 -0.36137683405 -0.92956286962 0.072935966722 
-0.56646790793 -0.81991020487 -0.082833358182 -0.75913938119 -0.63354557557 -0.1494235711 -0.91552959187 -0.38573172538 -0.1140903258 
-0.9957555457 -0.092013214078 0.0021122587774 -0.9405295419 0.2555239104 0.22385645408 -0.50566826867 0.63632896233 0.58256763878 
0.27267153361 0.70317487879 0.65665464637 0.64153060487 0.6416905858 0.42032329831 0.78074155827 0.6216926176 0.06277665503 
0.78074155827 0.6216926176 0.06277665503 
FrenetBinormal 3 64 double
-0.18157719929 0.61182196613 0.76987245857 -0.18157719929 0.61182196613 0.76987245857 -0.19239733104 0.53872332043 0.82021975777 
-0.17580367666 0.46270588275 0.86890524992 -0.11969846347 0.37868233529 0.91775376152 -0.022042666557 0.2840228702 0.95856409804 
0.33056391918 -0.033175131666 0.94320035304 0.74721346951 -0.65540247401 -0.11008918224 0.76951545585 -0.63370138169 0.079173998559 
0.7274319618 -0.56552163837 0.38862323333 0.63619775562 -0.52373669899 0.56652650942 0.5293294826 -0.53605718498 0.65761158238 
0.35727417302 -0.61378809481 0.70400237213 -0.02959444342 -0.77308760154 0.63360849841 -0.65088676901 -0.74293177877 0.1562011076 
-0.83293588718 -0.48087330992 -0.27382232861 -0.82104838648 -0.35860858687 -0.44416148919 -0.78562960964 -0.32265633007 -0.52790056745 
-0.75813094644 -0.33351205098 -0.56036343555 -0.77710617545 -0.30510494795 -0.55046976557 -0.8132572676 -0.16386161702 -0.55835650543 
-0.78984711307 0.071251282828 -0.60915087841 -0.59671955634 0.39957737114 -0.69589057729 -0.11542289353 0.67037826555 -0.73298740557 
0.43775676766 0.61898357009 -0.65209535525 0.7393418499 0.32719898473 -0.58848487948 0.78112534746 0.064409895582 -0.62104312001 
0.7510276903 -0.019407325287 -0.6599854272 0.78849419223 0.024759163338 -0.61454364584 0.87128603398 0.071589279565 -0.4855261291 
0.9383236798 0.066231610209 -0.33935533845 0.98586534047 0.010525770261 -0.16720866789 -0.037221727164 -0.41974815809 0.9068770737 
-0.94057905321 -0.11075507859 0.3210052293 -0.97699327406 -0.074218165087 0.1999395069 -0.98156254215 -0.073632380177 0.17638947938 
-0.96801201727 -0.05298139926 0.24524621457 -0.92226252723 0.04143202382 0.38433737559 -0.83922485323 0.19598005423 0.50724103153 
-0.75644258772 0.34199811961 0.55752300192 -0.69588385991 0.458772395 0.55251564964 -0.64930503393 0.56584264852 0.50815850876 
-0.59877429056 0.69099382879 0.40496527943 -0.48402771071 0.86557830812 0.12841872054 -0.15020831183 0.87844585245 -0.45361916557 
0.089945311563 0.6668924024 -0.73970559316 -0.074752089429 0.84068219071 -0.53634464605 -0.47425526033 0.25476926676 0.84271855846 
-0.21915290068 -0.42013358132 0.88060194184 0.34813022214 -0.92615485129 0.14506046972 0.56542693614 -0.63450088305 -0.52697344269 
0.5859385162 -0.42273190397 -0.69135648735 0.59785468277 -0.32264227106 -0.73380633904 0.60599397144 -0.29359412998 -0.73930629202 
0.58632553839 -0.33036157341 -0.73965099462 0.50111232855 -0.42230209991 -0.75534586156 0.32112825379 -0.53007045649 -0.78479421237 
0.053322110529 -0.5954473254 -0.80162287593 -0.33278643312 -0.56064483853 -0.75824175232 -0.84764200401 -0.24072017074 -0.47281796967 
-0.94741024432 0.3150838109 0.056000188138 -0.76433066142 0.5812123524 0.27926840393 -0.602376596 0.7221442583 0.34007367847 
-0.602376596 0.7221442583 0.34007367847 
