# vtk DataFile Version 4.2
vtk output
ASCII
DATASET POLYDATA
POINTS 64 float
0 0 0 -0.904103 0.037236 0.495416 -1.82339 0.149137 0.845562 
-2.80516 0.288867 1.10292 -3.7978 0.407288 1.25639 -4.80917 0.451396 1.33584 
-5.81953 0.368173 1.36539 -6.80314 0.120816 1.38412 -7.73001 -0.288898 1.42957 
-8.58531 -0.826711 1.52148 -9.36996 -1.45429 1.66214 -10.0906 -2.14351 1.84908 
-10.7521 -2.8756 2.08554 -11.3514 -3.63372 2.39439 -11.8662 -4.37444 2.85866 
-12.2252 -4.891 3.64702 -12.4822 -5.00442 4.62653 -12.8271 -5.01851 5.57605 
-13.1285 -5.10765 6.55391 -12.8988 -5.32941 7.48462 -12.1424 -5.63758 8.10489 
-11.3099 -6.01954 8.53647 -10.528 -6.52762 8.93722 -9.87882 -7.19245 9.34359 
-9.43793 -8.00945 9.75174 -9.22741 -8.93075 10.12 -9.19785 -9.906 10.3975 
-9.26665 -10.9083 10.5383 -9.34351 -11.9191 10.502 -9.34082 -12.9068 10.2717 
-9.20188 -13.8319 9.87972 -8.92386 -14.6792 9.39603 -8.53785 -15.4683 8.88837 
-8.08277 -16.2401 8.4125 -7.60893 -17.053 8.0326 -7.2168 -17.973 7.8622 
-7.01698 -18.9575 7.99047 -6.94335 -19.9128 8.32476 -6.85806 -20.8296 8.7508 
-6.65702 -21.7022 9.22763 -6.26135 -22.4755 9.75078 -5.64739 -23.0636 10.3033 
-4.87709 -23.4408 10.845 -4.02542 -23.6591 11.3512 -3.13322 -23.7829 11.8182 
-2.21732 -23.8579 12.2482 -1.28355 -23.904 12.6423 -0.33406 -23.9208 12.9995 
0.628715 -23.8933 13.3184 1.59805 -23.7995 13.6029 2.56126 -23.623 13.8683 
3.50408 -23.3645 14.1395 4.41677 -23.0415 14.4429 5.29564 -22.6814 14.7997 
6.13991 -22.3157 15.2273 6.94658 -21.9785 15.742 7.70616 -21.7114 16.3591 
8.39822 -21.5667 17.0865 8.99291 -21.5993 17.9072 9.47044 -21.8449 18.7683 
9.84046 -22.2947 19.5955 10.1459 -22.9392 20.3299 10.4145 -23.6981 20.9065 
10.7038 -24.601 21.313 
LINES 1 65
64 0 1 2 3 4 5 6 7 8 9 10 11 12 13 14 15 16 17 18 19 20 21 22 23 24 25 26 27 28 29 30 31 32 33 34 35 36 37 38 39 40 41 42 43 44 45 46 47 48 49 50 51 52 53 54 55 56 57 58 59 60 61 62 63 

CELL_DATA 1
FIELD FieldData 2
Length 1 1 double
63.895783826 
Tortuosity 1 1 double
0.86480585537 
POINT_DATA 64
SCALARS MaximumInscribedSphereRadius float
LOOKUP_TABLE default
0.93 1.18684 1.42418 1.46645 1.32976 1.18968 1.04711 1.1077 1.48374 
1.86359 1.82784 1.65227 1.56088 1.56811 1.4266 0.959825 0.729041 0.77514 
0.914915 0.937057 0.958255 1.00852 1.10778 1.22172 1.25362 1.27068 1.41361 
1.66337 1.85759 1.86 1.86 1.86 1.86131 1.94366 2.0932 2.06204 
1.89977 1.60932 1.31121 1.24 1.24728 1.296 1.3392 1.24882 1.05134 
1.05923 1.28842 1.51314 1.60202 1.65418 1.739 1.83603 1.9959 2.24348 
2.41394 2.34486 2.23724 2.2688 2.41303 2.5205 2.59982 2.61029 2.54807 
2.48 
TEXTURE_COORDINATES TCoords 2 float
0 0 0.015873 0 0.031746 0 0.047619 0 0.0634921 
0 0.0793651 0 0.0952381 0 0.111111 0 0.126984 0 
0.142857 0 0.15873 0 0.174603 0 0.190476 0 0.206349 
0 0.222222 0 0.238095 0 0.253968 0 0.269841 0 
0.285714 0 0.301587 0 0.31746 0 0.333333 0 0.349206 
0 0.365079 0 0.380952 0 0.396825 0 0.412698 0 
0.428571 0 0.444444 0 0.460317 0 0.47619 0 0.492063 
0 0.507937 0 0.52381 0 0.539683 0 0.555556 0 
0.571429 0 0.587302 0 0.603175 0 0.619048 0 0.634921 
0 0.650794 0 0.666667 0 0.68254 0 0.698413 0 
0.714286 0 0.730159 0 0.746032 0 0.761905 0 0.777778 
0 0.793651 0 0.809524 0 0.825397 0 0.84127 0 
0.857143 0 0.873016 0 0.888889 0 0.904762 0 0.920635 
0 0.936508 0 0.952381 0 0.968254 0 0.984127 0 
1 0 
FIELD FieldData 7
Curvature 1 64 double
0 0.15629987955 0.10875838193 0.10237559393 0.10395595666 0.13339612686 0.16308232721 0.17039467016 0.15042595251 
0.12112279137 0.097578623793 0.085891946343 0.096333531101 0.17404109154 0.43308168943 0.4690876072 0.13241018862 0.086598989037 
0.58524290334 0.67363775249 0.2103921679 0.13621761516 0.20167753977 0.25493122008 0.25292073641 0.20582805298 0.1669281673 
0.17380545752 0.20728715471 0.21692319198 0.18017006331 0.12190005511 0.075870322438 0.10331969472 0.24565367486 0.36291047686 
0.240248148 0.097543657095 0.13066968034 0.21978156701 0.28564077425 0.25980914462 0.17829548257 0.10722236384 0.06385653346 
0.048049838562 0.048280395779 0.058385532661 0.072940819395 0.082816772201 0.082425530688 0.076021125165 0.071292869675 0.076862434883 
0.096462913868 0.12951482752 0.17438036183 0.21920027213 0.2430559827 0.23021957804 0.21975352683 0.19466985396 0.217876095 
0 
Torsion 1 64 double
0 0 0.37703913008 0.47318639072 0.52194860339 0.34048227058 0.23854148521 0.17415837964 0.13283944072 
0.10488432284 0.11776734049 0.22389540257 0.45925637728 0.49608601993 0.24342846266 0.28336601698 1.4958514382 1.9810600117 
0.051380207638 -0.068499607043 -0.82724960867 -0.95233885747 -0.16488627928 0.0028185292756 0.12221340763 0.30470803747 0.53230141137 
0.49054468987 0.31316579205 0.22709935915 0.23378690404 0.3953002174 1.0794244023 0.8619561162 0.17812983113 0.0073537633247 
-0.19599800992 -1.2892724481 -0.38694564838 -0.012722830395 0.013142616333 -0.012356934097 -0.062714815484 -0.15302689966 -0.26225209533 
-0.14132419379 0.11892828948 0.23807373306 0.2598197231 0.28163587669 0.33471630755 0.40786002922 0.46874166432 0.42002263293 
0.29317367751 0.19321711273 0.13671755786 0.1266992106 0.14709660112 0.22284407513 0.2481188512 0.27331155503 0 
0 
Abscissas 1 64 double
0 1.0316128126 2.0216667663 3.0461900929 4.0575730557 5.0730166622 6.0872363319 7.1016460805 8.1160431235 
9.1305550057 10.145106904 11.159652424 12.174246329 13.18878482 14.203321051 15.211885471 16.230890031 17.241201818 
18.268332839 19.252298659 20.277889528 21.290411538 22.30530523 23.319502399 24.33363217 25.347890641 26.36230325 
27.376762131 28.391131475 29.405318867 30.419625264 31.434138373 32.448727669 33.463239586 34.477925651 35.492422861 
36.505133518 37.519932431 38.534488161 39.548963526 40.562956135 41.576931862 42.591395567 43.605898125 44.620496783 
45.635090034 46.649685275 47.664276895 48.678858678 49.693423423 50.707982545 51.722548731 52.737122317 53.751699951 
54.766270131 55.780820462 56.795317743 57.809720296 58.823774384 59.838560881 60.850221199 61.873891467 62.864189975 
63.89577411 
ParallelTransportNormals 3 64 double
0.48054759529 0 0.87696864748 0.35701092124 0.010206441071 0.93404444791 0.25662468373 0.023476245081 0.96622597648 
0.15694501209 0.036501799055 0.98693256195 0.080094585402 0.042740343077 0.99587053399 0.025778317431 0.041687416059 0.99879809656 
0.0092338500924 0.03894465527 0.99919870388 0.028774825674 0.04566542533 0.99854227669 0.065876714095 0.065391271823 0.99568280095 
0.10371906232 0.092282909063 0.99031622263 0.13800990836 0.12227983938 0.98285345097 0.17271829521 0.15797262357 0.9722206749 
0.21998145708 0.21383782019 0.95177809662 0.31282820236 0.33874352525 0.88735074233 0.49739120281 0.60430091484 0.6224326435 
0.62733825179 0.73752087247 0.25001936026 0.63048238941 0.73818425118 0.23994992802 0.62391736151 0.73714246124 0.2595151592 
0.63120442936 0.77507911576 0.028867501842 0.49718048431 0.84765918737 -0.18516335515 0.48922955784 0.85111396205 -0.19041917798 
0.58874660699 0.7962576351 -0.13910863131 0.73185271453 0.67895650729 -0.058392340659 0.86968097197 0.49159574356 0.044594079199 
0.9512172496 0.27401950152 0.14177114253 0.97477507136 0.087936962247 0.20513568904 0.97234989909 -0.034310250576 0.23099454637 
0.96889577431 -0.082048076329 0.23347182205 0.96998458972 -0.0527100249 0.23738481204 0.96368263176 0.032408612417 0.265076342 
0.94075567015 0.12987103458 0.31322880368 0.90784520725 0.2109762672 0.36236182796 0.87598290347 0.27010701449 0.39962001146 
0.8562105089 0.30383694775 0.41783570172 0.8626126322 0.29102572524 0.41376741537 0.88079144851 0.23251994225 0.41248139436 
0.88340799242 0.2139672634 0.41690326112 0.87901309592 0.26574104112 0.3958758344 0.86034589673 0.38239527473 0.33701452765 
0.79543258294 0.56142086904 0.22824025455 0.65300217172 0.75348261802 0.076499072279 0.47495402084 0.87766200783 -0.064250121412 
0.33161354907 0.93028282296 -0.15686402831 0.24039807212 0.94817803086 -0.20776715024 0.18785259492 0.95395667397 -0.23383341672 
0.15251903583 0.9562683891 -0.24957706568 0.11628463232 0.95747813542 -0.26403315036 0.066039510956 0.95719868359 -0.28179684728 
-0.0031943231735 0.95285258156 -0.30341679931 -0.082691052851 0.94173411835 -0.32603533569 -0.15419948784 0.92541364354 -0.34616774301 
-0.20219710679 0.91036950683 -0.36103142668 -0.2206837188 0.9033214379 -0.36784382024 -0.2095813822 0.90799736703 -0.36278978169 
-0.16969927185 0.92497769996 -0.34002707496 -0.099643755531 0.95200726429 -0.28940160801 0.001059373925 0.98057815061 -0.19612589906 
0.12285494511 0.99118502059 -0.049587472412 0.24309012959 0.95999388818 0.13899253056 0.33814205911 0.8819529529 0.32835793995 
0.41168253098 0.76301096327 0.49832897127 0.46427638238 0.63412851358 0.61832715372 0.51484390594 0.48365245826 0.70782487392 
0.51484390594 0.48365245826 0.70782487392 
FrenetTangent 3 64 double
-0.904714019 0.073997520467 0.41954369355 -0.904714019 0.073997520467 0.41954369355 -0.94506328497 0.12509209722 0.30200555394 
-0.97110681527 0.12697068877 0.20206434007 -0.99010569687 0.080299450989 0.11507696209 -0.99836349615 -0.019315636047 0.053825976569 
-0.98625251085 -0.16351062424 0.023880129836 -0.94515753155 -0.32506783207 0.031751300864 -0.88092429515 -0.46836140122 0.067896863383 
-0.80974929373 -0.57542943272 0.11483487826 -0.74275969988 -0.64975206573 0.16164863535 -0.68178423669 -0.70110602931 0.2088554291 
-0.62208058661 -0.7352715195 0.26905675306 -0.55119350325 -0.74154078062 0.38249574202 -0.44170957369 -0.63556075336 0.63321021889 
-0.31185559567 -0.31893330335 0.89500147233 -0.29726821496 -0.062975053655 0.9527149369 -0.31751840111 -0.050715470188 0.94689492872 
-0.037053247472 -0.16066732252 0.98631286534 0.51553025445 -0.27704589024 0.81084778562 0.78400679093 -0.34052901254 0.51901189138 
0.79814928145 -0.44003020495 0.41149865522 0.70891161444 -0.58102255063 0.39982135832 0.54182615578 -0.73655314456 0.40486279422 
0.32373488261 -0.8638924916 0.38585682415 0.11898057748 -0.93990648312 0.32003035038 -0.019409470161 -0.97816823604 0.20690619727 
-0.072070609046 -0.99605842661 0.051705300402 -0.03676214817 -0.99054923558 -0.13213915524 0.070236703722 -0.94859490295 -0.3086009001 
0.20637435579 -0.87724784084 -0.43341187226 0.32788043495 -0.80801101778 -0.48950241627 0.41481951804 -0.76982564242 -0.48507035337 
0.45839743069 -0.78200709295 -0.42229930394 0.43000296519 -0.86048185118 -0.2732552538 0.29674365543 -0.95472359923 -0.021119944298 
0.13585237961 -0.96370861441 0.22980391088 0.078407607738 -0.92365046494 0.37512939856 0.141423528 -0.88381762136 0.44594371607 
0.29595945652 -0.8163431253 0.49597570693 0.50294315911 -0.67817614659 0.53584073465 0.68824410674 -0.47993995351 0.54403831719 
0.80265049151 -0.29468959633 0.51856555062 0.86068691604 -0.16884349984 0.48032270936 0.89150596636 -0.098021288616 0.44227699343 
0.91181112107 -0.059697053716 0.4062471431 0.92837054625 -0.031006468794 0.37036026752 0.94279391463 0.0052754758275 0.33333437251 
0.95282477084 0.059819264822 0.29756782695 0.95323301089 0.13332615677 0.27123967791 0.94016216329 0.21456641622 0.2646816196 
0.91511945495 0.28678969137 0.28338676061 0.88347745252 0.33685907592 0.3255665122 0.84983001067 0.35795475845 0.38685571454 
0.8145864882 0.34681624298 0.46493800323 0.77358250307 0.29846900296 0.55900479892 0.71827116896 0.20375872618 0.6652585282 
0.63821808192 0.055600074427 0.76784523938 0.53242902919 -0.1381450229 0.83512590759 0.42103209674 -0.34544984281 0.83868729549 
0.33389803848 -0.54094168424 0.7719418334 0.28638485249 -0.70014596068 0.65404843094 0.27758930244 -0.82684648682 0.48915137371 
0.27758930244 -0.82684648682 0.48915137371 
FrenetNormal 3 64 double
-0.33341015593 0.49005681512 -0.80540796239 -0.33341015593 0.49005681512 -0.80540796239 -0.27157314003 0.21377086106 -0.93837628304 
-0.22337913079 -0.1856479413 -0.95688902482 -0.13816911852 -0.70103799277 -0.69961062555 -0.0016289304632 -0.93124369453 -0.36439336984 
0.16168102703 -0.98470312938 -0.064953771976 0.3259842392 -0.93282686625 0.15351974921 0.46558542216 -0.83195097604 0.30180753492 
0.56911846525 -0.72254594141 0.39246851474 0.63877819342 -0.6152949887 0.46192477363 0.67076550859 -0.48517150839 0.56096545343 
0.62825421862 -0.26369383698 0.7319577837 0.4752673046 0.097752998419 0.87439427061 0.36138993138 0.51995432402 0.7739798566 
0.23021639267 0.88854436483 0.39684924629 -0.66676789744 0.72790278693 -0.15993155949 0.54456987915 -0.82723408059 0.13830192559 
0.96683386098 -0.255351649 -0.0052745245585 0.81854516779 -0.12061770392 -0.56163616139 0.39996528954 -0.36229639468 -0.84188424951 
-0.3770613382 -0.89757160002 -0.22845124224 -0.64331109589 -0.76506130567 0.028844973202 -0.80733409138 -0.59005324651 0.0069879302988 
-0.90002271552 -0.40696052003 -0.15602002014 -0.86380468769 -0.25691612962 -0.43340000446 -0.57665209115 -0.15810394899 -0.80154569869 
-0.045454057172 -0.048506222247 -0.99778809127 0.37707800146 0.1087041168 -0.91978018885 0.61786899327 0.28424549863 -0.73310463351 
0.75619942979 0.42409032288 -0.49830695401 0.86364952472 0.46636995556 -0.19133364317 0.88622049751 0.22098625721 0.40715881904 
0.17595509127 -0.38590270013 0.90560416954 -0.32767203594 -0.43077328031 0.8408718201 -0.53119166941 -0.18340114831 0.82716348393 
-0.51971298416 0.12815614113 0.84467414876 0.11656538238 0.38220080202 0.9166979102 0.86444955868 0.32977644964 0.3794396576 
0.87204366925 0.44281000816 0.20846854819 0.7586834103 0.64339398873 0.10219421804 0.59371677631 0.80356678164 -0.042199727145 
0.44670829574 0.87311317779 -0.19525643982 0.36753325979 0.85890306543 -0.35665785727 0.36117102703 0.74311677159 -0.56332313375 
0.36179980222 0.58466036951 -0.72613576929 0.31612381924 0.58988861483 -0.74303240374 0.22136295533 0.73772934518 -0.63777257332 
0.08774486832 0.88423855123 -0.45871889279 -0.072058831516 0.97181764808 -0.22445040359 -0.24029212279 0.96827432067 0.068589617634 
-0.38621137711 0.82531891123 0.41193381382 -0.46148217303 0.5061743892 0.72857511054 -0.43785930407 0.070930741992 0.8962410723 
-0.37944286788 -0.28764778705 0.87936446404 -0.35415137355 -0.52789062432 0.77195096565 -0.37894259887 -0.68733197075 0.61965899392 
-0.43607696658 -0.79584205706 0.42008606194 -0.47712899258 -0.8639069559 0.16128451877 -0.45527107923 -0.88021129233 -0.13400121369 
-0.30525361303 -0.83686344973 -0.45440048222 -0.13913987105 -0.70579612794 -0.69461638482 0.041602501627 -0.49833789216 -0.86598416677 
0.041602501627 -0.49833789216 -0.86598416677 
FrenetBinormal 3 64 double
-0.26519843844 -0.86854400287 -0.4186897459 -0.26519843844 -0.86854400287 -0.4186897459 -0.18194344454 -0.96884156918 -0.16805533855 
-0.083984029817 -0.97437841011 0.20864658313 0.024494973383 -0.70858854836 0.70519661472 0.057163590991 -0.36388471746 0.92968824681 
0.034135470382 -0.060199856783 0.99760249945 -0.020285865571 0.15545077086 0.98763532819 -0.084868138191 0.29748137977 0.95094806788 
-0.14286445958 0.38315575229 0.91256858135 -0.20067498062 0.44635672948 0.87206377186 -0.29196555806 0.5225504216 0.80106002884 
-0.46723910425 0.62437276762 0.62597625076 -0.68578911566 0.66374816157 0.2985492704 -0.82115161207 0.57071011006 1.645424093e-05 
-0.9218169558 0.32980366848 -0.20367385757 -0.68341215918 -0.68278230454 -0.25837210625 0.7762897086 0.55956386319 0.29028016009 
0.25270406033 0.95340523747 0.16480021561 0.25340158845 0.95325596993 0.16459249912 0.47472214921 0.8676297102 -0.14784304866 
0.46987495332 0.02717796124 -0.88231450553 0.28912827053 -0.2776580527 -0.91613909913 0.23374362409 -0.33064577952 -0.91435074599 
0.29181301775 -0.29677078377 -0.90927018238 0.48957643295 -0.22487753405 -0.84246365558 0.81675922905 -0.13487046865 -0.56099404492 
0.99636326508 -0.074261411118 -0.04177902369 0.92545163314 -0.08363986416 0.36951812925 0.7831377354 -0.13918407452 0.60607184458 
0.62094448033 -0.22490803405 0.75089568421 0.38288891187 -0.36002397101 0.85075191534 -0.20624741756 -0.59877671497 0.77390467653 
-0.87115532564 -0.48943233711 -0.039298676822 -0.8412660024 -0.27203927064 -0.46718962792 -0.79358592056 -0.23423677739 -0.56156434966 
-0.84347053597 -0.2341830694 -0.48344156313 -0.99008320796 -0.028148988373 0.13763312019 -0.48241719105 0.33183415351 0.8106539017 
-0.38980487299 0.37081423711 0.84294066372 -0.41406238858 0.35513559308 0.83811159692 -0.41691778455 0.35204838938 0.83799850385 
-0.39522637436 0.38837021074 0.83244500864 -0.35233128659 0.48350532238 0.80130223245 -0.27344579203 0.66194357068 0.69789548506 
-0.19416843877 0.80907880587 0.55469820919 -0.19543249415 0.8068891008 0.55743709891 -0.24927510215 0.67507598285 0.69435894235 
-0.29056117112 0.4631887737 0.83727556142 -0.29352061555 0.19440831976 0.93597598978 -0.24156738696 -0.12808627153 0.96189349961 
-0.1157460814 -0.48641583825 0.86602683385 0.080633708022 -0.79392282414 0.60264811826 0.29337379367 -0.93104093398 0.21701289465 
0.43871626738 -0.89273581994 -0.10271705083 0.52549682735 -0.79514007761 -0.30266374315 0.58351438251 -0.69717798552 -0.41647787686 
0.63444035112 -0.60294614348 -0.48367487937 0.69919042708 -0.48433534271 -0.52588213744 0.78451272643 -0.32541125818 -0.52787052874 
0.89181406786 -0.083914603996 -0.44455146789 0.9479577061 0.10792339657 -0.29954753867 0.95979863046 0.26073786159 -0.10393438555 
0.95979863046 0.26073786159 -0.10393438555 
