# vtk DataFile Version 4.2
vtk output
ASCII
DATASET POLYDATA
POINTS 64 float
0 0 0 -0.723504 0.104329 0.742544 -1.39605 0.277598 1.44476 
-2.09334 0.497132 2.14684 -2.82148 0.723242 2.81684 -3.59356 0.915379 3.44627 
-4.40061 1.06101 4.04355 -5.22072 1.18391 4.62812 -6.04084 1.30821 5.2124 
-6.86587 1.42918 5.79041 -7.71848 1.50482 6.33471 -8.62162 1.45167 6.79147 
-9.54668 1.17434 7.09477 -10.4164 0.679083 7.25564 -11.2232 0.0753492 7.37322 
-12.0202 -0.53921 7.50159 -12.8651 -1.09355 7.58731 -13.7716 -1.53192 7.48316 
-14.6546 -1.84357 7.09819 -15.4256 -2.09419 6.48996 -16.0358 -2.37742 5.73228 
-16.3659 -2.80243 4.87739 -16.2295 -3.40497 4.08139 -15.7526 -4.05698 3.46911 
-15.1784 -4.7183 2.95723 -14.6313 -5.43734 2.49659 -14.2315 -6.31776 2.18983 
-14.2125 -7.23657 2.54405 -14.4524 -7.72167 3.39764 -14.8128 -7.89421 4.32765 
-15.3613 -7.75938 5.16439 -16.029 -7.30993 5.77833 -16.572 -6.67061 6.34623 
-16.8256 -5.99645 7.05541 -16.7356 -5.46975 7.91347 -16.3722 -5.21005 8.82071 
-15.8085 -5.30117 9.65317 -15.1353 -5.84425 10.1589 -14.5829 -6.68674 10.1126 
-14.2091 -7.57167 9.78796 -13.9179 -8.4914 9.4752 -13.6382 -9.46074 9.39597 
-13.3507 -10.3974 9.65035 -13.0654 -11.2393 10.1377 -12.777 -12.0045 10.738 
-12.4581 -12.7187 11.384 -12.0614 -13.3866 12.0362 -11.5273 -13.977 12.6637 
-10.8255 -14.4129 13.2499 -10.0071 -14.6262 13.8078 -9.15456 -14.6346 14.3566 
-8.30612 -14.5058 14.8974 -7.46139 -14.2979 15.4193 -6.60892 -14.0491 15.91 
-5.74159 -13.7907 16.3686 -4.85913 -13.5585 16.8121 -3.96491 -13.3934 17.2617 
-3.06728 -13.3339 17.7301 -2.18433 -13.4143 18.2222 -1.35442 -13.6742 18.7425 
-0.66813 -14.1738 19.2935 -0.328144 -14.9534 19.8321 -0.476524 -15.8398 20.2362 
-1.00207 -16.6996 20.4935 
LINES 1 65
64 0 1 2 3 4 5 6 7 8 9 10 11 12 13 14 15 16 17 18 19 20 21 22 23 24 25 26 27 28 29 30 31 32 33 34 35 36 37 38 39 40 41 42 43 44 45 46 47 48 49 50 51 52 53 54 55 56 57 58 59 60 61 62 63 

CELL_DATA 1
FIELD FieldData 2
Length 1 1 double
63.785335692 
Tortuosity 1 1 double
1.411092753 
POINT_DATA 64
SCALARS MaximumInscribedSphereRadius float
LOOKUP_TABLE default
0.93 1.13982 1.12117 0.951148 0.93 0.93 0.810674 0.69478 0.848575 
0.779015 0.683128 0.871989 0.743445 1.15491 1.38828 1.00519 1.21994 1.44153 
1.36656 1.01215 1.78051 2.12931 1.92758 1.55 1.55076 1.70884 1.99276 
2.17916 2.04022 1.84376 1.91815 2.12753 1.87439 1.65658 1.56467 1.72348 
2.14115 2.19084 2.1948 2.23276 1.99665 1.67175 1.91484 1.50684 1.33792 
1.55083 1.76613 1.86 1.63621 1.13647 1.61325 2.00583 2.0573 1.6218 
1.93284 2.06646 1.97675 2.34175 2.56451 2.60147 2.37817 1.78799 1.68467 
1.86 
TEXTURE_COORDINATES TCoords 2 float
0 0 0.015873 0 0.031746 0 0.047619 0 0.0634921 
0 0.0793651 0 0.0952381 0 0.111111 0 0.126984 0 
0.142857 0 0.15873 0 0.174603 0 0.190476 0 0.206349 
0 0.222222 0 0.238095 0 0.253968 0 0.269841 0 
0.285714 0 0.301587 0 0.31746 0 0.333333 0 0.349206 
0 0.365079 0 0.380952 0 0.396825 0 0.412698 0 
0.428571 0 0.444444 0 0.460317 0 0.47619 0 0.492063 
0 0.507937 0 0.52381 0 0.539683 0 0.555556 0 
0.571429 0 0.587302 0 0.603175 0 0.619048 0 0.634921 
0 0.650794 0 0.666667 0 0.68254 0 0.698413 0 
0.714286 0 0.730159 0 0.746032 0 0.761905 0 0.777778 
0 0.793651 0 0.809524 0 0.825397 0 0.84127 0 
0.857143 0 0.873016 0 0.888889 0 0.904762 0 0.920635 
0 0.936508 0 0.952381 0 0.968254 0 0.984127 0 
1 0 
FIELD FieldData 7
Curvature 1 64 double
0 0.075503916181 0.045587078607 0.043731712483 0.066871221448 0.064658638827 0.028309484644 0.0013888283691 0.0083850631326 
0.061140483756 0.16029723439 0.27057720819 0.26394019556 0.1295525871 0.017640610106 0.085662243451 0.22781713163 0.30866777814 
0.25468411621 0.21874036074 0.32977385366 0.52643931896 0.39662230889 0.13692266588 0.079640976341 0.26435067586 0.89407560027 
0.81627572309 0.34582790159 0.37703719267 0.41122902037 0.22902817461 0.32466990867 0.41013813073 0.39113802117 0.41980773523 
0.6105951573 0.70408617805 0.33510466726 0.088096417172 0.23616559311 0.33653882145 0.24892590657 0.13339870204 0.072946698348 
0.088369677898 0.15625843147 0.22865443974 0.25028479458 0.20454873322 0.13430137277 0.079241972467 0.050574363377 0.035617068843 
0.032860127819 0.06653087208 0.10459810751 0.1393924828 0.18581677616 0.27947725413 0.4596344597 0.55907158195 0.40808146068 
0 
Torsion 1 64 double
0 0 0.81289315525 0.89901744135 0.3161030713 0.15112946199 0.10871877343 -4.5342974704 1.503346672 
0.14408830982 0.091873072735 0.09275884454 0.13668227603 0.32695186935 3.3245226524 0.57598200091 0.25244213288 0.21548352184 
0.36389394809 0.5461612809 0.23008470821 0.054491024412 0.046099889511 0.48038645214 1.1027924679 -0.38693820862 -0.14098045447 
-0.068264823922 0.29569456907 0.15375936015 -0.22778618197 -1.2505454735 -0.50460772718 -0.2208034016 -0.15665153621 -0.061032054488 
0.0010540812091 -0.020849935747 -0.21009636487 -2.8704920695 -0.28710472385 -0.073685496594 -0.057824319018 -0.19851640797 -0.78974303621 
-0.43427253717 0.036190168646 0.17754969505 0.20789775795 0.16908940482 0.029240012474 -0.25369838954 -0.55047898494 -0.84900587458 
-1.0961821181 -0.25496772099 -0.080262247556 -0.068969351236 -0.09807172567 -0.092144662424 -0.050763355495 -0.030235160389 0 
0 
Abscissas 1 64 double
0 1.041976539 2.0296239526 3.0431950092 4.0581907164 5.0726818554 6.0872207575 7.1018239146 8.1164282033 
9.1310176803 10.145386024 11.158849408 12.171099867 13.184758524 14.19928476 15.213861672 16.228001132 17.240345251 
18.25280844 19.266251775 20.279529662 21.289688242 22.297300647 23.310919954 24.325369529 25.339526716 26.353981105 
27.338888409 28.349591537 29.361795801 30.371331994 31.383620516 32.396568186 33.407386466 34.418211771 35.429445509 
36.43889745 37.440818367 38.449339195 39.463351051 40.477499941 41.489514466 42.501745109 43.515528635 44.529943556 
45.544438517 46.558712052 47.572391605 48.585389782 49.598613331 50.612539853 51.626888749 52.641406679 53.655963872 
54.670547735 55.685098969 56.699522089 57.71375985 58.727769451 59.741201923 60.753183719 61.759971255 62.745359818 
63.7853727 
ParallelTransportNormals 3 64 double
0 -0.99027339001 0.13913523289 -0.051515587684 -0.97995158207 0.19246049211 -0.081303659137 -0.97142085477 0.2230050177 
-0.088945784092 -0.96903162636 0.2303613566 -0.068898811378 -0.97462040071 0.21299771902 -0.037497331174 -0.98133707864 0.18860405148 
-0.021370570031 -0.98399846177 0.17689071761 -0.022512470324 -0.983826366 0.17770444633 -0.020692455874 -0.98409770617 0.17641861291 
0.011310268413 -0.98784824242 0.15500944416 0.10857012802 -0.98909083189 0.099558292288 0.29386368412 -0.95558168346 0.022534005149 
0.49068453202 -0.87087504266 -0.028378691176 0.59423796724 -0.80299675899 -0.045578979182 0.60517021128 -0.79469235383 -0.047255456247 
0.54534524335 -0.83728241874 -0.039455251012 0.43874992859 -0.89769215349 -0.040586915758 0.35649035335 -0.93216788045 -0.06306877701 
0.3541599087 -0.93296014538 -0.064468024712 0.42016071727 -0.90744935123 0.00080413045619 0.5364869747 -0.81977060286 0.20039432294 
0.57776302486 -0.60009387802 0.55324246462 0.47593053929 -0.3914615955 0.78755821437 0.40969096554 -0.30869482459 0.85840597506 
0.38202118016 -0.2746325718 0.88240397121 0.32402363068 -0.17667276981 0.92940594961 0.201738082 0.3559523641 0.91246899167 
0.27064458951 0.80230256191 0.53203581207 0.34877560846 0.88793270123 0.29988513306 0.431465442 0.89132498501 0.13920252674 
0.55397738236 0.83250243094 -0.0069830013201 0.69000241581 0.71018427308 -0.13976753719 0.7717625203 0.5753183764 -0.27090843109 
0.78343675787 0.48963582901 -0.38273176165 0.76856564454 0.46383861979 -0.44063656773 0.75712783525 0.46176294335 -0.46209568841 
0.74028636062 0.470418676 -0.48029404904 0.71683366393 0.49690458547 -0.48911688908 0.72286750273 0.48565823379 -0.49152685933 
0.74958366341 0.41315425986 -0.51713430471 0.79188245629 0.27319058643 -0.54615847417 0.83946791357 0.11329528015 -0.53146759222 
0.87201128623 0.01223130637 -0.48933292535 0.88645486231 -0.028227031686 -0.4619534736 0.88516418842 -0.025083063006 -0.46460219488 
0.86255692415 0.018584815467 -0.50561858869 0.80220757127 0.10016738579 -0.58858262583 0.6959072363 0.18842788695 -0.69297045383 
0.58852431876 0.23428429323 -0.77378937456 0.52680165367 0.24247880758 -0.81466805852 0.49556139862 0.24026883625 -0.83467945136 
0.46842179536 0.23487090553 -0.8517139657 0.4355480432 0.22602421053 -0.87132712475 0.40501459524 0.21701987491 -0.88818103534 
0.39314223742 0.21369084953 -0.89430162808 0.40633469706 0.21664114364 -0.88767039426 0.43966983782 0.22081906945 -0.87059139226 
0.49009380012 0.22022595443 -0.84339112876 0.56523331976 0.20529336362 -0.79897805294 0.68201345275 0.1467790681 -0.7164590396 
0.82440961159 -0.030965716034 -0.56514592518 0.85731808573 -0.3253680604 -0.39892521247 0.76754661707 -0.56163073179 -0.30893868604 
0.76754661707 -0.56163073179 -0.30893868604 
FrenetTangent 3 64 double
-0.68834040528 0.1368732629 0.71235749196 -0.68834040528 0.1368732629 0.71235749196 -0.68467903098 0.19633299057 0.70190311394 
-0.7028518097 0.21973837555 0.67654591855 -0.73963436483 0.20620297707 0.64064134944 -0.77868524038 0.16655688982 0.60490337978 
-0.80198216883 0.13235152989 0.58250122182 -0.80831170307 0.12182111111 0.57601372169 -0.81074400937 0.12087114978 0.57278644923 
-0.82724593905 0.096948574336 0.55341226067 -0.86866336902 0.011127016098 0.49527784207 -0.91077909767 -0.16463964638 0.37864920715 
-0.893646759 -0.38468224998 0.23111693292 -0.82837481203 -0.54301567364 0.13758324381 -0.79043259894 -0.60043560246 0.12121631009 
-0.81008713941 -0.57671608723 0.10562850607 -0.86993247627 -0.49308588257 -0.0091541872063 -0.89429419826 -0.3748189272 -0.24443538771 
-0.82306803615 -0.2797982617 -0.4942387486 -0.68561172178 -0.26499679778 -0.67802158087 -0.47096600556 -0.35473464136 -0.80768456456 
-0.0991203376 -0.52582182982 -0.84479971707 0.30923984115 -0.63257248602 -0.71008645289 0.51952066887 -0.64913156782 -0.55563160662 
0.5531972484 -0.68100538176 -0.47979628424 0.47087938429 -0.79538758723 -0.38161655039 0.22663116192 -0.97364198464 0.025682721587 
-0.11843952854 -0.75272998786 0.6475875566 -0.30112760834 -0.32989054502 0.89470352174 -0.45737944343 -0.018976391885 0.88906914314 
-0.61388224479 0.29491814238 0.7322375836 -0.60175324491 0.54115041624 0.58740893698 -0.39876225365 0.65750185847 0.63928082341 
-0.08257659762 0.60613406134 0.79106422319 0.22841130241 0.39616838857 0.88931371564 0.46858539721 0.08520571452 0.87929955745 
0.6410544246 -0.32869000677 0.69355036166 0.64300969531 -0.72693766226 0.24103976212 0.46429576576 -0.86594018446 -0.18594902213 
0.32820793979 -0.89068229054 -0.31458640399 0.28374664533 -0.93889879022 -0.19482531401 0.2841249212 -0.95476448966 0.087737098449 
0.28492429836 -0.88469823859 0.36895415817 0.28350705041 -0.7941857373 0.53748745757 0.29953331036 -0.7296721752 0.61470180797 
0.35308239804 -0.68193805675 0.64054141704 0.46040089392 -0.62239159097 0.63297687507 0.61383527359 -0.50973295365 0.60280890244 
0.75619359644 -0.32293156584 0.56911022525 0.82866387087 -0.10994685907 0.5488423064 0.84056109033 0.059496938806 0.53843956736 
0.83522764313 0.16609124082 0.52422178882 0.83671703257 0.22515259304 0.49921029362 0.84768223718 0.24999688115 0.467906384 
0.86245366013 0.2418115329 0.4446356561 0.87615159662 0.19592432302 0.44042256912 0.88451129225 0.11086927456 0.45315315053 
0.8800675923 -0.010329899324 0.47473605947 0.84854898291 -0.16858404465 0.50154166676 0.75589334624 -0.37864488512 0.53409109718 
0.52122622371 -0.64968139239 0.5533871268 0.099598434896 -0.86600078742 0.49002325246 -0.33948269528 -0.87962911243 0.33317281428 
-0.33948269528 -0.87962911243 0.33317281428 
FrenetNormal 3 64 double
0.17443544568 0.98445311114 -0.020599690857 0.17443544568 0.98445311114 -0.020599690857 -0.15326185286 0.90271950982 -0.40200533708 
-0.66378992815 0.13927774051 -0.73483647316 -0.64419690388 -0.49245618012 -0.58523265433 -0.52560419359 -0.69966180375 -0.48395618815 
-0.44656873185 -0.78049751693 -0.43749285 -0.00053485249919 0.97820697097 -0.20763149059 -0.57005108158 -0.38560340378 -0.72550105402 
-0.44182056377 -0.72072759097 -0.53417818099 -0.31340122884 -0.78661061372 -0.5319994475 -0.08454918053 -0.82326183756 -0.56133001246 
0.212826993 -0.8166852695 -0.53640455034 0.47944949301 -0.81430007137 -0.32717514794 0.54244402478 -0.59419989658 0.59386948304 
-0.54844476669 0.68167802629 -0.48427616745 -0.27384099989 0.49839812185 -0.82256332213 0.076430509858 0.41027768105 -0.90875222233 
0.43905832809 0.23853639689 -0.86621485319 0.72368744396 -0.14726188501 -0.67423320941 0.84787186482 -0.43478197952 -0.30344345625 
0.92766458053 -0.35599093301 0.11273367577 0.86820566843 -0.11689879552 0.48223810396 0.69141437389 -0.062702177372 0.71973231172 
-0.32947149633 -0.70784851492 0.62481918428 -0.55166528434 -0.60304444337 0.57619685298 -0.48951491553 -0.091066938767 0.867226591 
-0.36017486719 0.64032903002 0.67841933814 -0.34935386905 0.91118554547 0.21838675764 -0.50868887102 0.82562993004 -0.24407140578 
-0.29111175997 0.77763429852 -0.55726011967 0.53974502402 0.81764493399 -0.20032990533 0.8907625353 0.11197908523 0.44045747828 
0.85376199072 -0.36643089947 0.36989033392 0.70933670085 -0.69338874166 0.12670239845 0.48958726097 -0.85355211019 -0.1781940209 
0.20154363958 -0.79984637875 -0.56535469552 -0.19585902713 -0.46035080365 -0.86586163968 -0.54350414574 -0.11279708245 -0.83179328066 
-0.91410281417 -0.38342738673 0.13190710454 -0.045523186126 -0.21613664023 0.97530128282 0.02302016763 0.098275154482 0.99489299218 
-0.01043762587 0.38202229429 0.92409416329 0.021296534861 0.56555996903 0.82443215551 0.40680278736 0.68045767291 0.60949884953 
0.85784610466 0.50921795913 0.069261322612 0.86228299813 0.48299123832 -0.15227440639 0.72556713135 0.66516373176 -0.17637898927 
0.46054690995 0.880500574 -0.11231777649 0.1611377792 0.98586873286 -0.045798009622 -0.032322487942 0.99768786133 -0.059784514135 
-0.046920701499 0.97134473574 -0.23299753673 0.14702613326 0.78575088035 -0.60081517139 0.40597183247 0.26207469592 -0.87550198458 
0.44747717455 -0.77480061773 -0.44659621698 0.17393544213 -0.98061599069 0.090214969842 0.03319380744 -0.98384498836 0.17591819131 
-0.10153012831 -0.98073632697 0.16687687077 -0.27751208243 -0.94884816153 0.15057958185 -0.50712808558 -0.85457852398 0.11187784042 
-0.77099457049 -0.63649334295 -0.021061734644 -0.93997515733 -0.24342579224 -0.23914553576 -0.89170425324 0.18823575493 -0.41161975819 
-0.89170425324 0.18823575493 -0.41161975819 
FrenetBinormal 3 64 double
-0.70410209611 0.11008079704 -0.70151440212 -0.70410209611 0.11008079704 -0.70151440212 -0.71254854501 -0.38281959641 -0.58798276132 
-0.25569955979 -0.96556551166 0.047968508551 0.19481107617 -0.84555735637 0.49707283339 0.34262155229 -0.69478929383 0.6323593196 
0.39673790923 -0.61098829662 0.68504914625 -0.58875453681 -0.16813904615 -0.79063098633 0.1331762579 -0.91471316824 0.38152837927 
0.34707167236 -0.68640564795 0.63905284657 0.38367124089 -0.6173491167 0.68678704634 0.40414461683 -0.54326212242 0.73588952638 
0.39509510397 -0.43016826606 0.81169891074 0.28969527861 -0.20505943518 0.93489425798 -0.28455366191 0.53516686203 0.79537767336 
0.20728522489 -0.45023729654 -0.86851552222 0.41015679137 -0.71306775593 -0.56859984342 0.4409039171 -0.8313741614 -0.33826134813 
0.36025934048 -0.92995339674 -0.073483926754 0.078822905375 -0.9529378964 0.29273932978 -0.24352478818 -0.82772457044 0.50553705407 
-0.36001886716 -0.77251657516 0.52307222866 -0.38805880733 -0.76562831814 0.5130532531 -0.50204027547 -0.7580874914 0.41624381941 
-0.76512831438 -0.18756905379 -0.61595171287 -0.68843156487 -0.060794616584 -0.72274891566 -0.84202937236 -0.20911264526 -0.49725088002 
-0.92533569213 -0.15289309563 -0.34695469183 -0.88728464299 -0.24680585495 -0.38963166232 -0.7294104998 -0.56389282242 -0.38727923725 
-0.73375917898 -0.55525506487 -0.39152174933 -0.58870055316 0.19650188022 -0.78410373662 0.21801552874 0.74508522371 -0.6303310548 
0.51407350519 0.70592485124 -0.48723560591 0.66683560325 0.60188259722 -0.43939460329 0.73534484388 0.51399297797 -0.44167768699 
0.74056018395 0.50220379315 -0.44649967983 0.74039028439 0.50954761581 -0.4383873333 0.69930871971 0.48726216262 -0.52301328799 
-0.2381083648 0.24427135816 -0.94001910097 -0.95781808335 -0.26786939816 -0.10406971098 -0.95851087685 -0.28065417029 0.049901259121 
-0.95849319255 -0.26714788657 0.099613284937 -0.95873364913 -0.22228570829 0.17725364289 -0.8630129131 0.067497200815 0.50065241406 
-0.37340712488 0.52503100561 0.76479380374 -0.21094797466 0.6159124704 0.75904728495 -0.31106043592 0.54564597123 0.7781464382 
-0.46483092457 0.34703593901 0.8145540305 -0.53605112184 0.12639038632 0.83467039304 -0.54075161599 0.032848829963 0.84054068562 
-0.54789892491 0.17000912938 0.81908709183 -0.52753002147 0.57610924648 0.62434782979 -0.3414991889 0.93210429308 0.12066437259 
0.2365118652 0.58413284903 -0.77643477015 0.44956072083 -0.0024368955837 -0.89324644966 0.46533637836 -0.14055974831 -0.87390217538 
0.46386707797 -0.1950629389 -0.86416305397 0.45050157349 -0.2669580234 -0.85192825169 0.41406080946 -0.3554203108 -0.83799167581 
0.36591063937 -0.41568054172 -0.83265784764 0.32638452072 -0.43679116276 -0.83826405432 0.29935768634 -0.43682940049 -0.84827180225 
0.29935768634 -0.43682940049 -0.84827180225 
