# vtk DataFile Version 4.2
vtk output
ASCII
DATASET POLYDATA
POINTS 64 float
0 0 0 -0.982182 0.359632 0.00483245 -1.95843 0.437442 -0.014829 
-2.96679 0.313134 -0.0422093 -3.93763 0.0192569 -0.0656175 -4.86279 -0.396232 -0.0805705 
-5.74407 -0.898445 -0.0972039 -6.57805 -1.47005 -0.174741 -7.29246 -2.1091 -0.494656 
-7.69533 -2.75319 -1.16191 -7.82966 -3.3704 -1.95537 -7.83523 -4.00362 -2.74786 
-7.77611 -4.68286 -3.49903 -7.68671 -5.43004 -4.17925 -7.60057 -6.27224 -4.73558 
-7.58781 -7.24666 -5.00369 -7.78835 -8.12662 -4.58361 -8.09747 -8.54496 -3.71263 
-8.38391 -8.71412 -2.75491 -8.614 -8.78034 -1.76919 -8.76002 -8.82082 -0.766156 
-8.78458 -8.90388 0.244257 -8.64692 -9.11018 1.22679 -8.35191 -9.50852 2.11023 
-7.99135 -10.0997 2.85044 -7.66822 -10.8382 3.46555 -7.43658 -11.6721 3.99433 
-7.29726 -12.5567 4.47087 -7.21926 -13.4631 4.92004 -7.15834 -14.3761 5.35833 
-7.06389 -15.2868 5.79538 -6.87971 -16.1821 6.23501 -6.55247 -17.0355 6.67418 
-6.0551 -17.8083 7.10219 -5.40252 -18.4706 7.50659 -4.63282 -19.015 7.88029 
-3.78196 -19.4486 8.22205 -2.87541 -19.7793 8.53461 -1.9312 -20.0103 8.82458 
-0.964956 -20.1404 9.10464 0.00609741 -20.1702 9.3965 0.962632 -20.1117 9.72915 
1.88684 -19.9954 10.1309 2.76592 -19.8674 10.6205 3.59305 -19.7796 11.201 
4.36709 -19.7821 11.8564 5.08838 -19.9189 12.5559 5.74836 -20.2296 13.26 
6.31903 -20.7394 13.9244 6.75655 -21.4374 14.5146 7.02835 -22.2719 15.0219 
7.13683 -23.1802 15.4594 7.1125 -24.1195 15.8414 6.99418 -25.0707 16.1734 
6.82051 -26.0314 16.4495 6.63016 -27.0072 16.6509 6.46465 -28.0035 16.7446 
6.3677 -29.011 16.6858 6.36906 -29.9936 16.4375 6.45393 -30.9075 16.007 
6.56306 -31.7469 15.4471 6.62925 -32.5423 14.8162 6.60274 -33.2966 14.1929 
6.4004 -34.1191 13.5778 
LINES 1 65
64 0 1 2 3 4 5 6 7 8 9 10 11 12 13 14 15 16 17 18 19 20 21 22 23 24 25 26 27 28 29 30 31 32 33 34 35 36 37 38 39 40 41 42 43 44 45 46 47 48 49 50 51 52 53 54 55 56 57 58 59 60 61 62 63 

CELL_DATA 1
FIELD FieldData 2
Length 1 1 double
63.862210345 
Tortuosity 1 1 double
0.71326633495 
POINT_DATA 64
SCALARS MaximumInscribedSphereRadius float
LOOKUP_TABLE default
1.24 1.24 1.26805 1.35368 1.51077 1.73228 1.47119 1.38621 1.55 
1.55 1.55 1.55 1.59292 2.03752 2.42882 2.48 2.30785 2.67078 
2.99759 2.63654 2.37712 2.27085 2.57243 2.55917 2.38727 2.90261 2.84579 
2.49336 2.2867 2.17254 2.17 2.2977 2.41121 2.10261 2.00875 2.38918 
2.23676 1.93429 1.98179 2.0131 1.83908 2.00891 2.41509 2.48797 2.417 
2.22457 2.17 2.28446 2.6514 2.73307 2.59371 2.34365 2.04648 1.71325 
2.03157 2.71357 2.96681 3.16505 3.35216 2.80928 2.12888 1.71325 1.55 
1.55 
TEXTURE_COORDINATES TCoords 2 float
0 0 0.015873 0 0.031746 0 0.047619 0 0.0634921 
0 0.0793651 0 0.0952381 0 0.111111 0 0.126984 0 
0.142857 0 0.15873 0 0.174603 0 0.190476 0 0.206349 
0 0.222222 0 0.238095 0 0.253968 0 0.269841 0 
0.285714 0 0.301587 0 0.31746 0 0.333333 0 0.349206 
0 0.365079 0 0.380952 0 0.396825 0 0.412698 0 
0.428571 0 0.444444 0 0.460317 0 0.47619 0 0.492063 
0 0.507937 0 0.52381 0 0.539683 0 0.555556 0 
0.571429 0 0.587302 0 0.603175 0 0.619048 0 0.634921 
0 0.650794 0 0.666667 0 0.68254 0 0.698413 0 
0.714286 0 0.730159 0 0.746032 0 0.761905 0 0.777778 
0 0.793651 0 0.809524 0 0.825397 0 0.84127 0 
0.857143 0 0.873016 0 0.888889 0 0.904762 0 0.920635 
0 0.936508 0 0.952381 0 0.968254 0 0.984127 0 
1 0 
FIELD FieldData 7
Curvature 1 64 double
0 0.27333829822 0.20440583916 0.16969015335 0.1270230685 0.094688942126 0.10110753043 0.27706704464 0.48237742733 
0.29694226561 0.12663998872 0.087138521353 0.10015056061 0.15287423538 0.32632167783 0.83099152332 0.72434628728 0.26193697273 
0.11772782322 0.087255505363 0.12582550289 0.20216632237 0.26502067509 0.24621458394 0.19336186128 0.15445042804 0.11465807412 
0.068681219084 0.020692782313 0.032681526502 0.088686968739 0.14572656919 0.18504734048 0.18845930166 0.16550372138 0.1377509114 
0.1176293315 0.10618708136 0.10109322234 0.098501098145 0.095795773197 0.093216096536 0.096884225841 0.10934057984 0.12567861452 
0.14751363883 0.18091121649 0.21848850268 0.23923998381 0.22695790768 0.18881130077 0.14391909514 0.10440687514 0.077111522782 
0.075913881483 0.10959368201 0.16407720008 0.21154860755 0.20849024415 0.14784444164 0.091121884018 0.094689962398 0.17309142816 
0 
Torsion 1 64 double
0 0 0.056618860163 0.04502587696 -0.0054214392969 -0.358132167 -0.87553309582 -0.089833987356 0.055658941028 
0.22965951457 0.69276392049 0.71146433835 0.43516678719 0.29161403724 0.13532241381 0.018975125424 -0.024566871713 -0.21466115757 
-0.63015351861 -0.87106325442 -0.45540878023 -0.25122286653 -0.22608657168 -0.31097954289 -0.39716896961 -0.32653873586 -0.20506242542 
-0.086539192005 0.67917554535 0.32315868621 0.036022221631 0.017429515399 0.01503246638 0.013822919144 0.012995647981 0.020780679438 
0.051534403503 0.11154104444 0.19673283115 0.29329189344 0.39047167465 0.48071233685 0.49127608916 0.42115768479 0.35199730001 
0.26500182393 0.14103199371 0.021078313093 -0.06531234104 -0.11157386938 -0.10452058721 -0.028083872802 0.13703347569 0.44235089883 
0.55786647111 0.2723919596 0.080990884024 -0.02050418256 -0.11600576308 -0.33797428489 -0.85947865269 -0.79848365133 0 
0 
Abscissas 1 64 double
0 1.0459635302 2.0255028759 3.0418689361 4.0564852821 5.0707640106 6.0852349624 7.0992672493 8.1097725965 
9.1209008832 10.135087879 11.149508213 12.163958464 13.178337705 14.191364243 15.202075769 16.197573425 17.212056868 
18.225909068 19.240289995 20.254702919 21.268822886 22.2821699 23.295174733 24.30877293 25.322764078 26.336967246 
27.351397724 28.365967602 29.380574185 30.395102627 31.409429737 32.423417054 33.437218701 34.451139306 35.465278801 
36.479548228 37.493903047 38.508284525 39.522677352 40.537080332 41.551493087 42.565910855 43.580288744 44.594603128 
45.608818506 46.622881498 47.636654893 48.650101357 49.663491702 50.677183501 51.691211053 52.705499388 53.719950535 
54.734450255 55.748892383 56.763128373 57.776971106 58.790502414 59.804246228 60.819178456 61.83656336 62.815393816 
63.86217135 
ParallelTransportNormals 3 64 double
0.0049200572635 0 0.99998789645 -0.019706447155 0.0053849936504 0.99979130712 -0.027784740963 0.0052108532097 0.99960034773 
-0.025806707653 0.0056289435583 0.99965110355 -0.01971133272 0.0079095370625 0.99977442585 -0.022553403729 0.0064657293599 0.99972473128 
-0.074725656099 -0.02619658237 0.99685997783 -0.26662871548 -0.17627689999 0.94754186325 -0.50410375598 -0.44898048755 0.73776413914 
-0.56845785823 -0.59996782555 0.56293362994 -0.57276156908 -0.63843099153 0.51414983617 -0.57311530176 -0.62976085359 0.5243473259 
-0.57764710411 -0.58623688021 0.56802301309 -0.58864972751 -0.48661487496 0.64552107771 -0.603210036 -0.21892661911 0.76694770872 
-0.53381075771 0.46028539127 0.70935423699 -0.36911033785 0.8820985519 0.2926767897 -0.29933958015 0.9509172511 0.078435944075 
-0.27837171903 0.96047331094 -0.00045279240959 -0.27812933406 0.96054206844 -0.0017344430198 -0.28434905878 0.95603697466 0.071686232015 
-0.27511453407 0.93241918209 0.23432127947 -0.22243103781 0.85879746792 0.46150985094 -0.14263198955 0.73835570408 0.65915625598 
-0.080218673116 0.6169748086 0.78288380366 -0.047906176244 0.52539236125 0.84951036781 -0.035854947461 0.46956694872 0.88216852325 
-0.032456275108 0.44155804748 0.89664545999 -0.031636638839 0.43082299572 0.90188173806 -0.031548687757 0.42979069806 0.9023772139 
-0.032375350974 0.43514874332 0.89977630989 -0.035680816771 0.44645060857 0.89409660184 -0.043736933514 0.46233732277 0.88562479675 
-0.056945589828 0.47882160205 0.87606339565 -0.072877182013 0.49233871108 0.86734739863 -0.089463941168 0.50234854778 0.86002449952 
-0.10794373097 0.51038549119 0.85314406833 -0.1328162031 0.51793461266 0.84504650358 -0.17091003619 0.52513521285 0.8336802551 
-0.22915755452 0.52994292168 0.81648473039 -0.30745576278 0.52877614893 0.79111739853 -0.39458045872 0.52068032314 0.75709858189 
-0.47409519156 0.5099082827 0.71779334949 -0.53174216089 0.50261649769 0.68163548219 -0.55819932646 0.50120728494 0.66121461679 
-0.55188112781 0.50061867942 0.66693939649 -0.51786617034 0.48959925512 0.70150352744 -0.46996077991 0.45765933051 0.75477467005 
-0.43029848395 0.41014142338 0.80413134968 -0.41237501587 0.37141924405 0.83186212285 -0.40899562254 0.3559334807 0.84025825676 
-0.40885643299 0.35287802777 0.84161363744 -0.40940671446 0.34558487176 0.84436795212 -0.41334936077 0.31976941815 0.85257833961 
-0.42427569437 0.26164384722 0.8669098179 -0.4432210393 0.15665192455 0.8826184254 -0.46464737848 -0.0069299662235 0.88546868338 
-0.47470202743 -0.21630101851 0.85315406261 -0.4658010792 -0.41208382603 0.78308126969 -0.45221399973 -0.53489024757 0.71371907744 
-0.44756277841 -0.57825034629 0.68213935262 -0.44800756594 -0.56006380034 0.69686279885 -0.43500146507 -0.46821942737 0.76911916712 
-0.43500146507 -0.46821942737 0.76911916712 
FrenetTangent 3 64 double
-0.97592394374 0.21798589435 -0.0073895805446 -0.97592394374 0.21798589435 -0.0073895805446 -0.99944507311 -0.023416296502 -0.023690143236 
-0.97809067822 -0.20666076041 -0.02509890992 -0.93642616799 -0.35035277198 -0.018946426422 -0.89144165331 -0.45286732757 -0.015587249997 
-0.8466863987 -0.53005786482 -0.046484429753 -0.77215479585 -0.60373238633 -0.19820236359 -0.56799922854 -0.65231863263 -0.50185384118 
-0.26815968264 -0.62961612703 -0.72915973366 -0.069105168471 -0.61766511481 -0.78339918409 0.026419599042 -0.64752225384 -0.76158842925 
0.073298682208 -0.70397718756 -0.70643005498 0.086841410544 -0.78628259837 -0.61173380234 0.049514380873 -0.90949419853 -0.41275734872 
-0.10041445025 -0.99162135031 0.081265218782 -0.2681616064 -0.6831102901 0.67930087915 -0.29615594584 -0.29214769902 0.90936317151 
-0.25512193766 -0.11625780005 0.95989422378 -0.18556689027 -0.052644100574 0.98122042779 -0.084260592937 -0.061024462277 0.99457335953 
0.056072950675 -0.14345945328 0.98806639932 0.21540437866 -0.30101908253 0.92897172487 0.32595012599 -0.49199044737 0.80728056775 
0.33879367117 -0.65890573644 0.67161155355 0.27435984978 -0.77762578889 0.56570734951 0.18317019205 -0.84854917046 0.49640002625 
0.10717192061 -0.883236608 0.45651645504 0.068464993894 -0.89666967066 0.43737403481 0.076580359331 -0.89888257666 0.43144589688 
0.13747403748 -0.89106846148 0.43254813139 0.25282553546 -0.86448712365 0.4344436231 0.40841768925 -0.80543353213 0.42950182355 
0.56967290142 -0.7109334125 0.41236690991 0.70375037025 -0.59708020083 0.38500733778 0.8008668296 -0.48331946414 0.35357406132 
0.86784031643 -0.3774255657 0.32311472812 0.91359511925 -0.27727279097 0.29742857542 0.94291264312 -0.17822204825 0.28134080573 
0.95608915258 -0.078913691115 0.28225194715 0.95122205781 0.014162753783 0.30818178586 0.92803021676 0.086253426678 0.36238137807 
0.88992573756 0.12056289206 0.43988267832 0.84234582685 0.10653885784 0.52830197781 0.79090915667 0.042133803543 0.61048132526 
0.73928746485 -0.068869282862 0.66985898978 0.68397654709 -0.22159293729 0.69503428202 0.61072251237 -0.40718210155 0.67913235018 
0.50102004878 -0.60021639148 0.62347349112 0.35219471403 -0.76092328625 0.54493544191 0.18839110552 -0.86338476352 0.46805506244 
0.041598040972 -0.91332398152 0.4051035766 -0.070414160865 -0.93318075623 0.35244222527 -0.14402100129 -0.94302442025 0.29993815028 
-0.17954597194 -0.95514131447 0.23551711901 -0.17568455982 -0.9736065736 0.14568862443 -0.12985238331 -0.99138297531 0.017267159938 
-0.047417519457 -0.98719042948 -0.15233724035 0.042769242772 -0.94064757365 -0.33667927476 0.09589636938 -0.8666766938 -0.48956653762 
0.086360222733 -0.80528025094 -0.58657107786 0.019899387075 -0.77716916926 -0.62897702403 -0.11340466332 -0.7813689123 -0.61367907348 
-0.11340466332 -0.7813689123 -0.61367907348 
FrenetNormal 3 64 double
-0.21643355125 -0.97205578257 -0.090906949475 -0.21643355125 -0.97205578257 -0.090906949475 0.024214059943 -0.99912954476 -0.03396810388 
0.20611750817 -0.97826592335 0.022613182834 0.34852474285 -0.93504992257 0.064901047167 0.45309473828 -0.89129531778 -0.01725730682 
0.45240163785 -0.67113929211 -0.58728596838 0.41939550493 -0.24987880556 -0.87273592396 0.6684510358 -0.0098967545077 -0.74369030315 
0.90417163999 0.09675341839 -0.41606780873 0.99245500285 -0.12228809248 0.0088707247205 0.72279455177 -0.51391447351 0.46201726143 
0.2946258674 -0.66143554668 0.68970908059 -0.020124793301 -0.61531290062 0.78802603195 -0.22509879206 -0.41279360386 0.88257122909 
-0.29586845405 0.10774370299 0.94913284232 -0.15777881592 0.72674779036 0.66853832684 0.084933580526 0.94024690519 0.32973025974 
0.46819309639 0.85374745327 0.22783878187 0.93823568781 0.28726755382 0.1928500626 0.94195096332 -0.3304312341 0.059527995336 
0.78913740811 -0.59989081988 -0.13188311241 0.58891473347 -0.71879868816 -0.36946973163 0.26245050376 -0.77326014046 -0.57722481603 
-0.19076877705 -0.74710728406 -0.63674011952 -0.57993997932 -0.60306132036 -0.54771038357 -0.78552064893 -0.42994266826 -0.44509168955 
-0.86883174465 -0.30642748562 -0.38888763872 -0.80186475286 -0.3102935011 -0.51061811688 0.99705677346 0.067459932571 -0.036427297344 
0.98560750606 0.16643552349 0.029615207408 0.96011053538 0.27961087713 -0.0023488831352 0.9026219579 0.42641810262 -0.05866176667 
0.80808287295 0.57603153305 -0.12324667692 0.6921647864 0.69838124022 -0.18213058989 0.57469363271 0.78628413153 -0.22690194582 
0.46138650467 0.85347490029 -0.24228720123 0.34532245962 0.91526466608 -0.20746804553 0.2123237886 0.97251795014 -0.095537665084 
0.047438263654 0.99203725053 0.1166692106 -0.14773704175 0.89786793176 0.41473719824 -0.33800253514 0.60387593986 0.72186434702 
-0.45280775365 0.11777051395 0.88379592909 -0.46306560591 -0.35843556687 0.81061346462 -0.41184846579 -0.70121065206 0.58196603222 
-0.34861240128 -0.89021991488 0.29321987795 -0.33164327723 -0.94305475906 0.025699379164 -0.40147181981 -0.89847488248 -0.17766052871 
-0.54975883947 -0.77712024449 -0.30634840301 -0.72056109562 -0.59202295455 -0.36097164539 -0.84942628665 -0.38245662082 -0.36359581507 
-0.90208349646 -0.2086465121 -0.37777241614 -0.8773222269 -0.11020542247 -0.46707651947 -0.69821754199 -0.11794920823 -0.70610215149 
-0.21421652345 -0.19570254977 -0.95698056046 0.22082475227 -0.18319365741 -0.95795433747 0.4087887237 -0.069393043102 -0.9099870246 
0.45732087336 0.11413042934 -0.88194776709 0.39409081722 0.32554717905 -0.85948325289 0.15967478452 0.49885782973 -0.85184789071 
-0.45966653259 0.4901484533 -0.74058164476 -0.97706923088 0.11827307133 -0.17705140119 -0.95497091614 -0.084721988198 0.28434615181 
-0.95497091614 -0.084721988198 0.28434615181 
FrenetBinormal 3 64 double
-0.026999517183 -0.087118915486 0.9958319741 -0.026999517183 -0.087118915486 0.9958319741 -0.022874114835 -0.034522888614 0.99914210452 
-0.029226665848 0.016944418564 0.99942918142 -0.040454116338 0.054171740501 0.99771182563 -0.0060775725187 -0.022446383081 0.99972957493 
0.28009801916 -0.51827667373 0.80804355646 0.47737237214 -0.75701240956 0.4461477671 0.48015631739 -0.75788023841 0.44166441458 
0.3325116991 -0.77085816375 0.54333568017 -0.10127952907 -0.77687542656 0.62145557251 -0.69055777508 -0.56267827815 0.45444814289 
-0.95279740839 -0.25868733442 0.15892753558 -0.9960188563 -0.056122275833 -0.069258414984 -0.97307700615 0.049211212628 -0.2251652652 
-0.94993620632 0.071262837925 -0.30420850062 -0.9503658233 0.072097023299 -0.30266618763 -0.95135584438 0.1748870471 -0.25364656141 
-0.84599528451 0.50754252034 -0.16337860517 -0.29202521014 0.95640260936 -0.0039147727284 0.32500543868 0.94185519829 0.085324382738 
0.61165184159 0.78711523266 0.079571572776 0.77896109682 0.62667053373 0.022442187957 0.90822698068 0.40001769319 -0.12292109945 
0.92131760109 0.087601007947 -0.37881386106 0.76706994024 -0.17780657002 -0.61643209719 0.59110573576 -0.3084049405 -0.74530557614 
0.48336898838 -0.35495815295 -0.80022442523 0.59357009925 -0.31575535608 -0.74025204652 0.0036385517861 0.43296566939 0.90140306749 
-0.098380551983 0.4222513629 0.90112432745 -0.11944458329 0.41770775721 0.90069596485 -0.13589919874 0.41163628008 0.90115868786 
-0.1499161627 0.4034369293 0.90264266919 -0.16013533287 0.39466299179 0.90476394605 -0.16834354687 0.38491500371 0.90746949819 
-0.18432492638 0.3593473764 0.91481899007 -0.21470062174 0.29225056102 0.93192985391 -0.25658206532 0.14981901806 0.95484025134 
-0.28921124366 -0.098156624413 0.95221958267 -0.27083272185 -0.44003703653 0.85616414504 -0.15657012174 -0.79239775091 0.58956899624 
0.054747784099 -0.98569503149 0.15939882382 0.27572405156 -0.92745534457 -0.25259222319 0.45259645063 -0.71170806096 -0.53724118312 
0.57612797015 -0.45029493116 -0.68213711011 0.64976058645 -0.2480812197 -0.71851714575 0.68252354595 -0.16415121608 -0.71219097683 
0.66838920484 -0.1892733711 -0.71932708961 0.59728602101 -0.26552697365 -0.756799072 0.49293384435 -0.32908005607 -0.80543313924 
0.42955205551 -0.34972265836 -0.83257377681 0.47470786399 -0.3420941991 -0.81094019681 0.70124903939 -0.31111561691 -0.64144902968 
0.96014297114 -0.22227366331 -0.16946944728 0.95935987212 -0.13612613171 0.24718072748 0.90334386472 -0.11110536365 0.4142770332 
0.88803670962 -0.11148677521 0.44605100753 0.91807582457 -0.095922762628 0.38462397735 0.98250081401 0.003517688579 0.18622506904 
0.88388267929 0.33358388927 -0.32783105111 0.2119899348 0.61807731147 -0.75699452084 -0.27417135458 0.61829184662 -0.73657671748 
-0.27417135458 0.61829184662 -0.73657671748 
