# vtk DataFile Version 4.2
vtk output
ASCII
DATASET POLYDATA
POINTS 64 float
0 0 0 -0.00992067 1.03659 0.135459 -0.267267 1.94777 0.36857 
-0.696189 2.81833 0.694272 -1.2512 3.56497 1.09476 -1.89304 4.19618 1.56223 
-2.5983 4.70143 2.08775 -3.35202 5.06309 2.662 -4.14356 5.24567 3.26892 
-4.95697 5.18893 3.87095 -5.74858 4.83274 4.3928 -6.4601 4.2148 4.76621 
-7.10064 3.46877 5.01616 -7.73873 2.70443 5.21112 -8.43753 1.99099 5.38929 
-9.22272 1.36821 5.54591 -10.0794 0.835417 5.652 -10.9777 0.364393 5.67139 
-11.8782 -0.0877162 5.5564 -12.6929 -0.588823 5.22001 -13.1528 -1.19848 4.56683 
-13.0688 -1.81868 3.76971 -12.6737 -2.38271 3.02497 -12.1483 -2.92212 2.34513 
-11.5638 -3.46789 1.72085 -10.955 -4.0504 1.15539 -10.342 -4.70875 0.688836 
-9.74473 -5.49812 0.475578 -9.27998 -6.28168 0.8942 -9.0572 -6.69152 1.79642 
-8.96444 -6.80016 2.79891 -8.95618 -6.69861 3.80802 -9.03343 -6.42948 4.78276 
-9.2115 -6.03548 5.70022 -9.50572 -5.57607 6.55538 -9.92188 -5.13053 7.36607 
-10.4477 -4.79958 8.16754 -11.0365 -4.70885 8.98723 -11.5841 -4.96113 9.80054 
-11.978 -5.53837 10.5337 -12.1818 -6.32832 11.1353 -12.2247 -7.22827 11.6007 
-12.1496 -8.17836 11.9478 -11.9979 -9.14811 12.2042 -11.8055 -10.1238 12.4051 
-11.6004 -11.1 12.591 -11.3982 -12.07 12.8087 -11.1893 -13.0157 13.1107 
-10.9189 -13.8919 13.5435 -10.4809 -14.6082 14.1107 -9.7957 -15.0424 14.7161 
-8.93561 -15.2016 15.2286 -8.00456 -15.2161 15.6309 -7.04422 -15.1776 15.9558 
-6.06939 -15.1322 16.2334 -5.08746 -15.1021 16.487 -4.10416 -15.0926 16.7369 
-3.12472 -15.0976 17.0016 -2.15453 -15.1056 17.2984 -1.20039 -15.1124 17.6435 
-0.273607 -15.132 18.0515 0.619931 -15.2046 18.5488 1.41029 -15.3502 19.0987 
2.14474 -15.6491 19.781 
LINES 1 65
64 0 1 2 3 4 5 6 7 8 9 10 11 12 13 14 15 16 17 18 19 20 21 22 23 24 25 26 27 28 29 30 31 32 33 34 35 36 37 38 39 40 41 42 43 44 45 46 47 48 49 50 51 52 53 54 55 56 57 58 59 60 61 62 63 

CELL_DATA 1
FIELD FieldData 2
Length 1 1 double
63.868563718 
Tortuosity 1 1 double
1.5230852489 
POINT_DATA 64
SCALARS MaximumInscribedSphereRadius float
LOOKUP_TABLE default
0.62 0.808708 0.878423 0.740485 0.920737 1.20391 0.962553 0.842602 1.12949 
1.08333 0.93 0.93716 0.964271 0.96134 0.936143 0.957738 1.13271 1.55683 
1.57432 1.27209 1.16567 1.1979 1.23799 1.24 1.24 1.24 1.24 
1.24 1.24 1.24 1.24 1.3009 1.37176 1.30183 1.25487 1.26893 
1.38891 1.50002 1.32187 1.25667 1.27172 1.2558 1.31471 1.48608 1.54897 
1.54781 1.39919 1.26251 1.24 1.24 1.15255 1.03713 1.27164 1.51841 
1.55 1.55 1.54455 1.3539 1.01635 1.12035 1.18589 0.998947 0.806691 
0.62 
TEXTURE_COORDINATES TCoords 2 float
0 0 0.015873 0 0.031746 0 0.047619 0 0.0634921 
0 0.0793651 0 0.0952381 0 0.111111 0 0.126984 0 
0.142857 0 0.15873 0 0.174603 0 0.190476 0 0.206349 
0 0.222222 0 0.238095 0 0.253968 0 0.269841 0 
0.285714 0 0.301587 0 0.31746 0 0.333333 0 0.349206 
0 0.365079 0 0.380952 0 0.396825 0 0.412698 0 
0.428571 0 0.444444 0 0.460317 0 0.47619 0 0.492063 
0 0.507937 0 0.52381 0 0.539683 0 0.555556 0 
0.571429 0 0.587302 0 0.603175 0 0.619048 0 0.634921 
0 0.650794 0 0.666667 0 0.68254 0 0.698413 0 
0.714286 0 0.730159 0 0.746032 0 0.761905 0 0.777778 
0 0.793651 0 0.809524 0 0.825397 0 0.84127 0 
0.857143 0 0.873016 0 0.888889 0 0.904762 0 0.920635 
0 0.936508 0 0.952381 0 0.968254 0 0.984127 0 
1 0 
FIELD FieldData 7
Curvature 1 64 double
0 0.28563328066 0.1952485134 0.18648849902 0.15592481997 0.14906722281 0.155699155 0.18231350961 0.23720787218 
0.31001154646 0.31062289585 0.1879182375 0.056401573458 0.078809667129 0.12397780459 0.12248030873 0.11142137161 0.13250927535 
0.23920042024 0.50843257451 0.59901986839 0.31969827039 0.14423447652 0.079182660168 0.071475314926 0.12172929922 0.28399004663 
0.70861945581 0.72190941751 0.34335005373 0.22345736406 0.18759961692 0.16684583345 0.14377884284 0.12739323154 0.15540457019 
0.24603077194 0.34690453292 0.37145046983 0.31352116419 0.23454738918 0.17086964206 0.11735848086 0.067193835046 0.01909980298 
0.031607678099 0.085653589828 0.15688773117 0.26529361492 0.38081029991 0.33975157866 0.19163192731 0.095719647842 0.048552780201 
0.028502843417 0.020376468486 0.020475843041 0.032591886482 0.049482665972 0.067957344261 0.10462732608 0.12757531551 0.19543115768 
0 
Torsion 1 64 double
0 0 0.09751176452 0.074591144764 0.073941445226 0.026202145931 -0.021283297496 -0.073805293697 -0.095359733545 
-0.078067079859 -0.071214542762 -0.15992879098 -1.5548709291 -0.39716677518 0.091702500124 0.30175399963 0.54618976061 0.63155680536 
0.38327236477 0.1351457229 0.085591590979 0.13396463199 0.28128405643 0.56728087394 0.5506502638 0.044392164636 -0.18091517163 
-0.11336329789 -0.11295469283 -0.14255420391 0.0058041315717 0.12764451292 0.23945417011 0.41854598093 0.69495891941 0.62586376735 
0.31661742246 0.16277438621 0.095820011737 0.048808394763 0.0059354236453 -0.024297591265 -0.04158672449 -0.026094778261 0.62417708408 
-0.062894781308 -0.34371755602 -0.39646545804 -0.30848542239 -0.1967905527 -0.17574504624 -0.24209619923 -0.36749963868 -0.58648200159 
-0.79231094576 -0.92680573002 -0.89915080814 -0.27630256466 0.10374524597 0.31504080092 0.2051510273 0.17844590462 0 
0 
Abscissas 1 64 double
0 1.0454464882 2.0205512991 3.0442315397 4.0570935262 5.0714515811 6.085769095 7.1000002257 8.1140159543 
9.1275688518 10.140408703 11.154084148 12.168639276 13.183231179 14.197650549 15.212003493 16.226435203 17.240857956 
18.255084334 19.268942729 20.273864011 21.287333231 22.30166242 23.316137109 24.330638377 25.345393494 26.358729313 
27.371315026 28.373915821 29.389596387 30.40220661 31.416453653 32.430603812 33.444844417 34.459198834 35.47355518 
36.487644187 37.500957044 38.513394285 39.526250721 40.539888941 41.553942102 42.568245777 43.582735746 44.597325297 
45.61193475 46.626506541 47.640954566 48.654965535 49.668149488 50.680327305 51.694153497 52.708471432 53.723041705 
54.737630681 55.752226834 56.766830025 57.781413383 58.796026635 59.810694359 60.82348231 61.848682271 62.822432813 
63.868539666 
ParallelTransportNormals 3 64 double
-0.99995420569 -0.0095700845745 0 -0.96438909054 -0.26010429715 -0.04795244154 -0.90661224764 -0.41110949547 -0.095095820975 
-0.8304502358 -0.53615378572 -0.15129945114 -0.75791507123 -0.61966828321 -0.20390184794 -0.68267348115 -0.68314471131 -0.25936503533 
-0.5980884442 -0.73340347313 -0.32312467952 -0.48943738612 -0.77166863805 -0.40617552624 -0.3330988398 -0.78392176093 -0.52393877091 
-0.11727884929 -0.72838190766 -0.67505960337 0.093665734352 -0.5916922106 -0.80070410148 0.21385295538 -0.47045490187 -0.85611862424 
0.24880188433 -0.42917200212 -0.86827934155 0.23424376024 -0.44526425155 -0.86421618076 0.20385337115 -0.47262843489 -0.85735999767 
0.19280958972 -0.48040116194 -0.8555928855 0.22403383298 -0.46254103087 -0.85782552798 0.31713116139 -0.41476408773 -0.85287664876 
0.51717368127 -0.30359025362 -0.80022768092 0.83032724146 -0.030230515193 -0.55645555801 0.93699846454 0.31662880543 -0.14758074745 
0.86497969211 0.49468474183 0.084244515793 0.80638769 0.56492446443 0.1749263928 0.7773328595 0.59333342873 0.20906713729 
0.77186778291 0.59850066165 0.21451592882 0.78437560904 0.58579737264 0.20395181332 0.80689795407 0.55885508082 0.19130261459 
0.79683333029 0.57377041337 0.18932553045 0.75427331049 0.64762676841 0.10794138185 0.73723068867 0.67562265242 0.0049943190774 
0.73326062734 0.67590774261 -0.074010647042 0.73505854195 0.66624819804 -0.12570711402 0.73709240259 0.66096568557 -0.14078051199 
0.72934013374 0.67497384879 -0.1116838071 0.69698672472 0.7161890908 -0.035814686818 0.62410348142 0.77626557821 0.088919045024 
0.500627594 0.82296752584 0.26850784634 0.3503015456 0.80157781012 0.4845222817 0.2338014385 0.69894396294 0.67588033262 
0.17620934147 0.56721897119 0.80449543609 0.15873114488 0.44751122764 0.88007847649 0.16042957158 0.34988711071 0.92295252441 
0.16908757762 0.27660583281 0.94599080564 0.1770119394 0.2318003508 0.9565225406 0.17935345724 0.2203011489 0.95880120003 
0.17315619085 0.24991553049 0.95265899523 0.15564444819 0.33152379107 0.93051962994 0.11945883434 0.46904971799 0.87505539765 
0.044772240156 0.6369192285 0.76962935422 -0.080105824568 0.76479888981 0.63926967316 -0.18614085472 0.80553711094 0.56254914905 
-0.22239266647 0.80905446846 0.54403342634 -0.21724654042 0.80911974049 0.54601207516 -0.19510197609 0.8100796441 0.5529070348 
-0.16952677921 0.81106697133 0.55984912177 -0.15125286303 0.81143546628 0.56453082776 -0.14864690307 0.81144142487 0.56521404107 
-0.16476843107 0.81154894175 0.56057085125 -0.19348842641 0.81177108039 0.55098996532 -0.22060174744 0.81215209263 0.54013317568 
-0.23157342682 0.81270572175 0.53468042588 -0.22524597793 0.81187774814 0.53862674599 -0.19555880565 0.80334228941 0.56249259514 
-0.19555880565 0.80334228941 0.56249259514 
FrenetTangent 3 64 double
-0.13361539975 0.97375313097 0.18426004688 -0.13361539975 0.97375313097 0.18426004688 -0.34495716613 0.89560306117 0.28089092254 
-0.48529041759 0.79762716967 0.35816771045 -0.59221944921 0.68178034712 0.42947838393 -0.66591506387 0.56178881125 0.49086704847 
-0.72145011368 0.42867775323 0.54382452809 -0.76509380759 0.26946576304 0.58482447634 -0.79718527783 0.062505332031 0.60049039649 
-0.80153808676 -0.20621495187 0.56125937774 -0.75064414097 -0.48646831098 0.44708159886 -0.66961088497 -0.67550932212 0.30872061553 
-0.63039058645 -0.74464313669 0.21934973783 -0.65941230639 -0.72890551551 0.18404390683 -0.73290880908 -0.65992856308 0.16534500052 
-0.81085171446 -0.57068959202 0.12974161523 -0.86636913449 -0.49554752163 0.061944948216 -0.88868960727 -0.45607020095 -0.047230855726 
-0.85184009687 -0.47340710956 -0.22417439191 -0.65064075752 -0.5670078383 -0.50514227299 -0.19392750096 -0.63448504786 -0.74821176709 
0.23927256068 -0.59143011253 -0.7700383521 0.45491721215 -0.54532751528 -0.70403709502 0.54745861611 -0.53526525921 -0.64325746473 
0.58843541045 -0.55637273325 -0.58667976736 0.60358204123 -0.61299783156 -0.50982583105 0.60341834091 -0.72180660774 -0.33894177505 
0.55633120927 -0.82396752155 0.10757838549 0.36028794975 -0.62538078331 0.69216433679 0.15784257818 -0.25935969495 0.9527949775 
0.050155615558 -0.0035199082968 0.99873521239 -0.03416412537 0.18356280994 0.98241412212 -0.12631970606 0.32808311967 0.9361649419 
-0.23343117873 0.42180131428 0.87612415562 -0.3508901454 0.44699775534 0.82284209456 -0.46581753629 0.38398136092 0.79722790804 
-0.55397184598 0.2095770663 0.80572492026 -0.56932606333 -0.080935087229 0.81811817317 -0.47275778449 -0.41652922439 0.77653298863 
-0.29855027518 -0.68290921008 0.66671038988 -0.1225090565 -0.83918850516 0.52986241977 0.015933807628 -0.91547544486 0.40205823412 
0.11198889964 -0.94797548488 0.29799491007 0.16968523749 -0.95935047802 0.22550738458 0.19589377656 -0.96191966095 0.19062055028 
0.20074812375 -0.95923369955 0.19892435865 0.20280558985 -0.94506031098 0.25638038407 0.23702835943 -0.90098394672 0.3633806332 
0.3525343224 -0.79250563871 0.49764883617 0.56441341453 -0.57813222211 0.58923733016 0.77363734916 -0.29708106968 0.559667839 
0.88726692448 -0.086044501239 0.45315973843 0.93332265397 0.01184309009 0.35884337084 0.95397721469 0.041359768133 0.29701320414 
0.96440307601 0.037210483672 0.26180543707 0.96852739294 0.019516313912 0.24814069118 0.96730339856 0.0022179411402 0.25361233384 
0.9609209451 -0.0064075967606 0.2767487669 0.9485906326 -0.0072956346108 0.31642153127 0.92827356417 -0.01302874254 0.37166980228 
0.89446205349 -0.0453050054 0.4448427715 0.84408817817 -0.10937712565 0.52493027333 0.75853251558 -0.2211212375 0.61297130532 
0.75853251558 -0.2211212375 0.61297130532 
FrenetNormal 3 64 double
-0.90032656648 -0.19697662386 0.38808798401 -0.90032656648 -0.19697662386 0.38808798401 -0.80142809441 -0.43681578838 0.40854005498 
-0.68543038 -0.60137322904 0.41053067312 -0.53982782716 -0.73140458691 0.41669322921 -0.41601132126 -0.8258076736 0.38075749082 
-0.3048344501 -0.90176366789 0.3064282058 -0.2042975297 -0.96288558228 0.17639125489 -0.092514609971 -0.99552631912 -0.019193615749 
0.068282308494 -0.96407573181 -0.25670120703 0.25925197661 -0.83927008997 -0.47792690728 0.37366432793 -0.66563293369 -0.64599362815 
0.04253355312 -0.31527400275 -0.94804704527 -0.75094524866 0.62709217912 -0.20697012442 -0.68029997985 0.71306743987 -0.16948971536 
-0.56906334689 0.71702651653 -0.40254177649 -0.36353685165 0.5407502796 -0.75857108606 -0.018332739455 0.13827098754 -0.99022474452 
0.35297918635 -0.20260322982 -0.91343178468 0.71499599496 -0.23331726232 -0.65904763279 0.96974229246 -0.0086903046495 -0.24397615624 
0.97019661632 0.17691957459 0.16558378487 0.88209339304 0.1673445648 0.4403487738 0.72622982219 -0.078035327973 0.68300858922 
0.32882311715 -0.49821335909 0.80228349506 0.04045676739 -0.61506860307 0.78743499001 -0.053441589057 -0.46069475093 0.88594827333 
-0.19619750524 -0.0044471964393 0.98055431333 -0.37577647757 0.5818311454 0.72129366915 -0.37760033739 0.87570513177 0.300929406 
-0.37321356564 0.92748430664 0.022011255389 -0.44713318278 0.87631492421 -0.17928767515 -0.59158454429 0.73262788692 -0.33657704357 
-0.78918520124 0.44419428899 -0.42412044488 -0.93416852799 -0.10624299247 -0.34064877492 -0.6910199954 -0.72060982093 -0.056682024794 
-0.25465130966 -0.96406709016 0.075679298043 0.11772931438 -0.99291194455 -0.016299659615 0.41790261098 -0.88180612058 -0.21857578422 
0.60587711499 -0.67536701402 -0.42046678574 0.67690200967 -0.46108894485 -0.57376010164 0.67638754925 -0.28627125558 -0.67863734899 
0.63638399225 -0.16189985552 -0.7541908586 0.58895610572 -0.084750206444 -0.80370896974 0.64476989424 -0.020115030043 -0.76411201342 
-0.087896369973 0.18460259927 0.97887491974 0.076134342441 0.27624682016 0.95806641537 0.38422353664 0.43048246658 0.8167356487 
0.62681562179 0.59484376495 0.50325249287 0.65724829196 0.74660607752 0.10297595701 0.51240546448 0.81290996575 -0.27679961624 
0.36085817846 0.74140934782 -0.56576810974 0.29624250032 0.5392791502 -0.78830094454 0.28895678054 0.13809142585 -0.947330321 
0.24221737725 -0.52154667726 -0.81811967682 0.064991565901 -0.98216640775 -0.17642347875 -0.18256728801 -0.68802424269 0.70234736906 
-0.27619581771 -0.089447160995 0.95693002653 -0.31617860075 0.023591750568 0.94840630625 -0.36758816213 -0.18385176985 0.91163450449 
-0.40918298541 -0.48407734018 0.77345873399 -0.47074486027 -0.61989983343 0.62779253981 -0.56301336762 -0.6960059276 0.4456362829 
-0.56301336762 -0.6960059276 0.4456362829 
FrenetBinormal 3 64 double
0.41419681147 -0.11403968422 0.90301492335 0.41419681147 -0.11403968422 0.90301492335 0.48858731362 -0.084185057175 0.86844419113 
0.54284289143 -0.046272428085 0.83855855945 0.59821571444 0.014929451883 0.80119602499 0.61926707348 0.049345899416 0.78362827534 
0.62176015593 0.055296212936 0.78125324789 0.61065046052 0.015477661003 0.79174898615 0.59660429076 -0.070855002726 0.79940158171 
0.59403217238 -0.16743170837 0.78682425052 0.60771850905 -0.24284624456 0.75611104691 0.64186932686 -0.31720648371 0.69812879466 
0.77511199537 -0.58831020913 0.2304180819 0.035449170648 -0.27468554448 -0.96088043375 -0.0060510318994 -0.23670470596 -0.97156279632 
0.13669822378 -0.4002328874 -0.90616070951 0.34241127361 -0.67972184673 -0.64863913757 0.45814265528 -0.87913656835 -0.13124100578 
0.38700664512 -0.8572267144 0.33968841127 0.25582676139 -0.78997795312 0.5572140538 0.14829703497 -0.77288628054 0.61697227391 
0.03830362115 -0.78670825985 0.61613549361 -0.1223175214 -0.82134870652 0.55715772117 -0.41578757679 -0.84107169128 0.34600448136 
-0.7386603586 -0.66500588758 -0.110218166 -0.79627380308 -0.49590752366 -0.34644445225 -0.79563201445 -0.51648385017 -0.31656615438 
-0.80746648508 -0.56661957774 -0.1641344863 -0.85380596869 -0.5199724936 -0.025376637413 -0.91241641026 -0.40727517826 0.040289247407 
-0.92638871358 -0.37384551782 0.045204868794 -0.89381470641 -0.44539515984 0.052138490512 -0.79628578966 -0.59633702375 0.10154356352 
-0.56806390744 -0.79042715344 0.22919055863 -0.064848031293 -0.88820348641 0.4548508542 0.55272541903 -0.57730390649 0.60101148967 
0.79263352462 -0.16325470573 0.5874351 0.81363852057 0.087036670568 0.57481908095 0.77579474408 0.22118175997 0.59094935833 
0.73741484574 0.27841409297 0.61539006989 0.72580658607 0.28837412808 0.62453595723 0.73637354447 0.2827604606 0.61465480143 
0.76319977776 0.27410019491 0.58514543695 0.79015038171 0.26919149843 0.55063446264 0.73884870697 0.27259118007 0.61627642885 
-0.97569176432 -0.21399203255 -0.047254534702 -0.9762548103 -0.17478187253 0.12797594465 -0.89229469948 -0.053970118868 0.44821579128 
-0.69485374562 0.13452028811 0.70645775831 -0.49946189065 0.3291542173 0.80137090103 -0.37272763776 0.50091938036 0.78112347451 
-0.28729563131 0.66551372846 0.6888778538 -0.20285266719 0.84204378709 0.49981302108 -0.08019633928 0.98955552026 0.11978488837 
0.10610112692 0.85241095919 -0.5119942456 0.24027231528 0.18699802401 -0.95252346613 0.17604919905 -0.72568431306 -0.66512326474 
0.018622769769 -0.99597095745 -0.087721401906 -0.014384163713 -0.99969505501 0.020072190053 0.0564546997 -0.98286763025 -0.17545394921 
0.18029675351 -0.87385158077 -0.4515268491 0.25673804549 -0.77702048937 -0.57473884078 0.3280920156 -0.68314064956 -0.65243733969 
0.3280920156 -0.68314064956 -0.65243733969 
