# vtk DataFile Version 4.2
vtk output
ASCII
DATASET POLYDATA
POINTS 64 float
0 0 0 -0.805043 0.431547 0.508578 -1.67817 0.675705 0.865381 
-2.67825 0.672995 1.0761 -3.63653 0.350238 1.11603 -4.4949 -0.189872 1.09659 
-5.26931 -0.845096 1.10464 -5.99438 -1.55086 1.17799 -6.69888 -2.26867 1.31141 
-7.40428 -2.98256 1.46042 -8.11979 -3.69616 1.54987 -8.8281 -4.41776 1.47363 
-9.4484 -5.1395 1.12685 -9.85746 -5.83492 0.514267 -9.99946 -6.49007 -0.246089 
-9.90078 -7.10839 -1.04368 -9.61215 -7.69782 -1.81693 -9.17843 -8.2661 -2.53652 
-8.63349 -8.82159 -3.18739 -8.0015 -9.37562 -3.75522 -7.29725 -9.94545 -4.21028 
-6.52743 -10.5668 -4.46305 -5.86596 -11.2205 -4.13413 -5.73292 -11.6025 -3.21124 
-5.92263 -11.7528 -2.22437 -6.21717 -11.8295 -1.25651 -6.56062 -11.8888 -0.303771 
-6.92552 -11.9714 0.639346 -7.29073 -12.1223 1.57371 -7.63073 -12.3943 2.48978 
-7.91071 -12.8324 3.36034 -8.09826 -13.4327 4.15598 -8.18633 -14.1378 4.87991 
-8.18517 -14.892 5.55839 -8.10413 -15.6623 6.21363 -7.94558 -16.4308 6.85671 
-7.70423 -17.1879 7.48738 -7.36795 -17.9262 8.09654 -6.92235 -18.6342 8.67022 
-6.35886 -19.2933 9.1965 -5.68277 -19.8791 9.67461 -4.91252 -20.3682 10.1178 
-4.07445 -20.7433 10.549 -3.19711 -20.9947 10.9918 -2.30857 -21.1204 11.4647 
-1.43223 -21.1288 11.9756 -0.582212 -21.0384 12.5219 0.239706 -20.8754 13.0939 
1.04267 -20.6693 13.6789 1.8412 -20.4497 14.2651 2.64895 -20.2451 14.8439 
3.47423 -20.0844 15.4117 4.31671 -19.9996 15.9705 5.16447 -20.0273 16.5268 
5.9886 -20.2092 17.0892 6.73479 -20.5868 17.6624 7.32067 -21.1802 18.2383 
7.67038 -21.9514 18.7951 7.77441 -22.8138 19.318 7.68729 -23.6941 19.8148 
7.47381 -24.5547 20.303 7.17713 -25.3934 20.8152 6.85589 -26.1545 21.3304 
6.51205 -26.9039 21.9734 
LINES 1 65
64 0 1 2 3 4 5 6 7 8 9 10 11 12 13 14 15 16 17 18 19 20 21 22 23 24 25 26 27 28 29 30 31 32 33 34 35 36 37 38 39 40 41 42 43 44 45 46 47 48 49 50 51 52 53 54 55 56 57 58 59 60 61 62 63 

CELL_DATA 1
FIELD FieldData 2
Length 1 1 double
63.870837768 
Tortuosity 1 1 double
0.80722194701 
POINT_DATA 64
SCALARS MaximumInscribedSphereRadius float
LOOKUP_TABLE default
1.64 1.64 1.51633 1.04143 1.01046 1.33399 1.86464 2.20572 2.2989 
2.05732 1.74595 1.55932 1.65408 1.86157 2.12468 2.58571 2.68517 2.26573 
2.18742 2.35084 2.55715 2.73951 2.60103 2.59852 3.18001 2.85923 2.57047 
2.74252 2.99251 3.24549 2.7894 2.57634 2.74682 2.42127 2.11046 2.34202 
2.46 2.48616 2.6778 2.75533 2.28173 2.05 2.10581 2.44294 2.83729 
3.09333 2.81427 2.18312 2.05 2.11308 2.3512 2.58924 2.83895 3.28156 
3.63684 3.42062 3.56163 3.60697 3.04554 3.05485 3.19274 3.02735 3.17185 
3.69 
TEXTURE_COORDINATES TCoords 2 float
0 0 0.015873 0 0.031746 0 0.047619 0 0.0634921 
0 0.0793651 0 0.0952381 0 0.111111 0 0.126984 0 
0.142857 0 0.15873 0 0.174603 0 0.190476 0 0.206349 
0 0.222222 0 0.238095 0 0.253968 0 0.269841 0 
0.285714 0 0.301587 0 0.31746 0 0.333333 0 0.349206 
0 0.365079 0 0.380952 0 0.396825 0 0.412698 0 
0.428571 0 0.444444 0 0.460317 0 0.47619 0 0.492063 
0 0.507937 0 0.52381 0 0.539683 0 0.555556 0 
0.571429 0 0.587302 0 0.603175 0 0.619048 0 0.634921 
0 0.650794 0 0.666667 0 0.68254 0 0.698413 0 
0.714286 0 0.730159 0 0.746032 0 0.761905 0 0.777778 
0 0.793651 0 0.809524 0 0.825397 0 0.84127 0 
0.857143 0 0.873016 0 0.888889 0 0.904762 0 0.920635 
0 0.936508 0 0.952381 0 0.968254 0 0.984127 0 
1 0 
FIELD FieldData 7
Curvature 1 64 double
0 0.23910583232 0.31895149476 0.36467308809 0.24370932799 0.14174413227 0.093677295842 0.062851451809 0.015641643803 
0.058744587099 0.16249468585 0.28255931755 0.34153648119 0.30689055823 0.24322374471 0.19004802926 0.15267494173 0.12819472142 
0.11733841349 0.13173764028 0.2137240765 0.64306752358 1.0271321376 0.40911612074 0.12610790669 0.052569299714 0.032165918224 
0.06697450875 0.1219840231 0.17877510638 0.19755002016 0.15779637041 0.10870491591 0.082475080815 0.076360292692 0.082239688588 
0.096550935107 0.115899062 0.13291821968 0.13941523249 0.13614391843 0.1300013519 0.12715310104 0.12660290942 0.1208629631 
0.10543950308 0.079784329183 0.047479169225 0.013852604422 0.018555457836 0.047177598075 0.076228532134 0.10980805957 0.15265972418 
0.20737259695 0.26633354564 0.29472419034 0.26160977969 0.19008779808 0.12529336018 0.085003408007 0.061970257091 0.10693384555 
0 
Torsion 1 64 double
0 0 0.12318666014 0.14813075437 0.3068629879 0.5231357962 0.54040163379 0.39401413933 1.6886499109 
0.29436952426 0.16765495048 0.16357562459 0.18601751918 0.21078786192 0.19821648802 0.16466983788 0.14691549458 0.16729817127 
0.2305034825 0.29516535125 0.30065704396 0.073181628751 0.032386817881 0.053133487468 0.18113390543 0.60239791208 1.4121359258 
0.32463894919 0.11161709995 0.078283396362 0.10022931299 0.17604911674 0.28642091065 0.30038372655 0.16556617018 0.024896553236 
-0.020590309322 0.0064711756072 0.065807920137 0.13745872004 0.20870588836 0.25146661687 0.23951704368 0.18485897986 0.12289440659 
0.072117980753 0.025885241178 -0.041682260087 -0.59394733229 -0.42760068808 -0.18811627596 -0.17803695803 -0.16870399708 -0.14744035878 
-0.12080640818 -0.099129213023 -0.092455158108 -0.10605500562 -0.14661172489 -0.24846878337 -0.39211413047 -0.86876324394 0 
0 
Abscissas 1 64 double
0 1.0454562121 2.0197650112 3.0418066665 4.0537649407 5.0681084362 6.0825501369 7.0970500719 8.1116336792 
9.1262406428 10.140722471 11.15474146 12.167626451 13.180639778 14.194306929 15.208314954 16.222534917 17.236865621 
18.251348604 19.265636048 20.279421255 21.3004674 22.286949127 23.294569412 24.310699023 25.32528844 26.339769555 
27.354386499 28.368873616 29.383161677 30.397172873 31.411316238 32.425726563 33.440233038 34.454761635 35.469288524 
36.483795514 37.498249466 38.512638767 39.526980552 40.541318826 41.555687944 42.570072035 43.584460093 44.598850163 
45.61326893 46.627751597 47.64230486 48.656903227 49.671510599 50.686104398 51.700662858 52.715153234 53.729528882 
54.743729455 55.757615786 56.771023739 57.784416955 58.798368134 59.812890688 60.825081545 61.851669227 62.825263864 
63.870885743 
ParallelTransportNormals 3 64 double
0.53408984859 0 0.8454277223 0.39125614084 0.056867903616 0.91852309377 0.20527925208 0.081465333281 0.97530704301 
0.024343690371 0.05124513439 0.9983893634 -0.036648600493 0.022285568711 0.99907969327 -0.019251659991 0.035021542352 0.99920111347 
0.02640329121 0.076459626142 0.99672302661 0.067767003482 0.11764954467 0.99074023734 0.078610528718 0.12866074335 0.98856805426 
0.037413759117 0.087273074576 0.99548160258 -0.077829220589 -0.028891232758 0.99654799638 -0.2603281194 -0.22715649749 0.93841845458 
-0.42054339254 -0.44772958 0.78910169065 -0.48835989186 -0.61391359341 0.62017313377 -0.49185441899 -0.71653522594 0.49462763823 
-0.47245706996 -0.77702461238 0.41595320505 -0.45032792267 -0.81249134838 0.37021962518 -0.4336002639 -0.83169959256 0.34679475036 
-0.42776248204 -0.83720293968 0.34074990353 -0.44131105678 -0.82580788381 0.35112090538 -0.50202038437 -0.77675085436 0.38030730197 
-0.73989163667 -0.56447175803 0.36596721217 -0.96013591727 -0.27857607897 0.023116846522 -0.95322324103 -0.21192630575 -0.21552886976 
-0.93235413567 -0.20214552369 -0.2997548214 -0.9179005319 -0.19906613706 -0.34326562106 -0.9083849086 -0.19716037251 -0.36873384079 
-0.90235740865 -0.19523238146 -0.38423355434 -0.89962904768 -0.19359609425 -0.39139255085 -0.90085748986 -0.19500323873 -0.38785244597 
-0.90604225282 -0.20651805629 -0.36937478059 -0.91170244789 -0.23332365768 -0.33816965753 -0.91401113351 -0.27208755966 -0.30091860644 
-0.91154469151 -0.31783411377 -0.26089797143 -0.90361294107 -0.3687768094 -0.21791584975 -0.88876152462 -0.42543476445 -0.17061129373 
-0.8637983567 -0.49005742574 -0.11703041675 -0.82374403826 -0.56414600936 -0.056436154708 -0.76362252775 -0.64559882768 0.0090988361361 
-0.68266961851 -0.72689977417 0.074692103143 -0.58579247082 -0.79889999619 0.13640372876 -0.48184711858 -0.85475595687 0.19291347416 
-0.37931931655 -0.89219904651 0.24514835815 -0.28549620264 -0.91223461064 0.29380254156 -0.20590345275 -0.91828336498 0.33817071094 
-0.14425395034 -0.91535319021 0.37592464003 -0.10136127731 -0.90885222715 0.40461527488 -0.07611256113 -0.90311773757 0.42259345726 
-0.067223444017 -0.90075499702 0.42909374723 -0.074814025124 -0.90275996165 0.42358861326 -0.10160307833 -0.90875271329 0.40477811276 
-0.15312537518 -0.91633621819 0.36997372165 -0.2366286755 -0.91915946902 0.31488528141 -0.35867144613 -0.90386011879 0.23322023795 
-0.51877179838 -0.84680824981 0.11743768244 -0.6944521066 -0.71873007169 -0.034108000346 -0.83054663619 -0.5202357385 -0.19886442994 
-0.88855438626 -0.31142431923 -0.33687682625 -0.89008591285 -0.15401965574 -0.42898136718 -0.87343501505 -0.057639238832 -0.48351731369 
-0.85883898832 -0.0089577814184 -0.51216730694 -0.85284989959 0.0065121236845 -0.52211554374 -0.86781257405 -0.027520118281 -0.49612899473 
-0.86781257405 -0.027520118281 -0.49612899473 
FrenetTangent 3 64 double
-0.83681652106 0.33693912536 0.43152072473 -0.83681652106 0.33693912536 0.43152072473 -0.94984121969 0.12243026928 0.28777158745 
-0.97869962687 -0.16265367876 0.12526300787 -0.90323869322 -0.42901756927 0.010187655696 -0.80687224588 -0.59069916014 -0.0056285910415 
-0.73987702813 -0.67154210012 0.040164549268 -0.70489879371 -0.70194220624 0.10195503779 -0.69483147948 -0.70557486863 0.13918807375 
-0.70057846471 -0.70382278476 0.11757254112 -0.70427162078 -0.70990054915 0.0065341019436 -0.6620427909 -0.71921276165 -0.21078981591 
-0.5154341919 -0.70961846828 -0.48038445363 -0.27509507082 -0.67421808514 -0.6853850565 -0.021523604617 -0.63272972333 -0.77407353117 
0.19183612147 -0.59820330067 -0.7780435165 0.35715060498 -0.57240504576 -0.73810291217 0.48339694736 -0.55507201501 -0.67692130225 
0.58114290952 -0.54785751497 -0.60176827932 0.66033259232 -0.55538009454 -0.50548374664 0.7286299357 -0.58879804304 -0.34987895238 
0.74609693824 -0.66465303352 0.039695135461 0.43930129837 -0.57266031977 0.69215209846 -0.028572503258 -0.26838222392 0.96288867162 
-0.23895004057 -0.11201189766 0.9645497462 -0.31453552747 -0.067049218782 0.94687475635 -0.34914159102 -0.069941696772 0.93445615653 
-0.36002651592 -0.11514202671 0.92580949526 -0.34826695379 -0.20884859935 0.91383389708 -0.30691077154 -0.35152334274 0.88444169837 
-0.23165823872 -0.51452091026 0.82559232878 -0.13629984355 -0.64554753634 0.75145906806 -0.042901701196 -0.72035756319 0.69227481912 
0.040547940511 -0.7520108651 0.65790236608 0.11816758725 -0.75894683154 0.64034063452 0.19726053593 -0.75254010884 0.6283085751 
0.28502580086 -0.7378909421 0.61178202852 0.38603812698 -0.71408204887 0.58400461642 0.49852822027 -0.67539847509 0.54342111979 
0.6125483152 -0.61517797774 0.49632712726 0.71463620338 -0.53110760748 0.4552140223 0.79447768023 -0.42689680474 0.43193093628 
0.84728294956 -0.30944326521 0.43169024658 0.87220778263 -0.18625814141 0.45228474292 0.87154338471 -0.066222030482 0.48582586516 
0.85209829581 0.040473100978 0.52181454787 0.82468767898 0.12498980104 0.55160473328 0.80099595176 0.18195048381 0.57035033682 
0.78921849597 0.20978612137 0.57716890846 0.79161622372 0.20905672082 0.57414200492 0.80503224083 0.18008098033 0.5652379426 
0.82255305714 0.12108292116 0.55564862494 0.83438184112 0.028187385248 0.55046563429 0.82663208277 -0.1036327019 0.55311812737 
0.77851923802 -0.27738385049 0.56299733172 0.66291953085 -0.48322921475 0.57186293955 0.4666024693 -0.68056101229 0.564906049 
0.22573601764 -0.81271807978 0.53715228114 0.0083747379499 -0.86307385965 0.50500829356 -0.14861302587 -0.86068126539 0.48697220449 
-0.25046728875 -0.83428587347 0.49115498429 -0.30908646139 -0.80022599412 0.51391041799 -0.3298557369 -0.7491535194 0.57442510147 
-0.3298557369 -0.7491535194 0.57442510147 
FrenetNormal 3 64 double
-0.53330433969 -0.67988526055 -0.50333141543 -0.53330433969 -0.67988526055 -0.50333141543 -0.2615119931 -0.81557534536 -0.51618633603 
0.087040970901 -0.88135352739 -0.46437035773 0.41417605049 -0.87771450243 -0.24098848816 0.57915042834 -0.79290231972 0.1894483907 
0.51337265401 -0.52501207708 0.67883049212 0.31916275425 -0.18551967643 0.92936407611 -0.054627299809 0.24476052094 0.96804346261 
-0.16878247879 0.0033535070074 -0.985647619 0.041350358458 -0.050207243336 -0.99788244827 0.30670954117 -0.0033726975564 -0.95179718547 
0.62050735899 0.077562697485 -0.78035546093 0.86805939933 0.1322584236 -0.47851916222 0.97716417507 0.15039560052 -0.15010442468 
0.98057532265 0.14984658181 0.12656238987 0.92902390034 0.13585178204 0.34417856689 0.84613163104 0.097977431428 0.52389091029 
0.72440577878 0.011309160357 0.68928105339 0.5383150638 -0.11926721795 0.83426148347 0.27540504008 -0.21584992739 0.93678219067 
-0.13746341325 -0.095426665688 0.98589936682 -0.64144425388 0.33946446591 0.68797757634 -0.80158368431 0.58165829072 0.13833737702 
-0.8124436603 0.56709683561 -0.13541225156 -0.90514601716 0.32169123093 -0.2778946555 -0.64669197984 -0.70369084338 -0.29429352721 
-0.0051700719118 -0.99209327346 -0.12539620058 0.20103849745 -0.96882238032 -0.14479888793 0.32861736304 -0.91127887448 -0.24815608321 
0.45970319525 -0.80584084869 -0.37322044272 0.61686765889 -0.64884341232 -0.44550703441 0.80009756448 -0.4397474673 -0.40800251508 
0.94267097727 -0.18949805774 -0.27470332128 0.98764683757 0.02299975599 -0.15499914665 0.98001245659 0.1345252494 -0.14655559422 
0.95750576814 0.18983585853 -0.21712911087 0.92024108805 0.25399244922 -0.29773171748 0.86595120004 0.35909118569 -0.34811210768 
0.78901763273 0.51344204927 -0.33738470221 0.67521196298 0.69375145681 -0.25059473501 0.50898304983 0.8560440883 -0.090137527607 
0.30136292381 0.94934501436 0.089019278033 0.086533928788 0.96883386945 0.23210517567 -0.098894140561 0.9467331039 0.30645779308 
-0.24360074484 0.91310004614 0.32696633289 -0.34353074341 0.88546068522 0.31296326183 -0.38926609531 0.88209904504 0.26527944093 
-0.31232978739 0.94633112666 0.083111386906 0.48629125015 -0.7844853411 -0.38484226591 0.36137335325 -0.90448843054 -0.22651706022 
0.22000522693 -0.96874591207 -0.11458210144 0.04791855263 -0.99861987268 -0.021497958024 -0.1504079549 -0.98782642776 0.039703850262 
-0.36835935789 -0.92822568188 0.052042933785 -0.59519436596 -0.80350653846 0.01099587993 -0.79726877111 -0.60016729712 -0.064511410413 
-0.93013364037 -0.34374192586 -0.12920100409 -0.98660280354 -0.08941626482 -0.13645380033 -0.98874777334 0.1378349075 -0.058132426347 
-0.90296752093 0.38428693574 0.19228418336 -0.66150480872 0.56913464899 0.48836168907 0.010910211918 0.60541511312 0.79583510106 
0.010910211918 0.60541511312 0.79583510106 
FrenetBinormal 3 64 double
0.12379253349 -0.65132791916 0.74863031622 0.12379253349 -0.65132791916 0.74863031622 0.1715025797 -0.56555078039 0.80668406452 
0.18593254083 -0.44357608202 0.87673790252 0.11233014856 -0.21345064413 0.97047450262 -0.11636992817 0.14960084757 0.98187454709 
-0.43477638087 0.52287046837 0.73319572554 -0.63344520436 0.68764786683 0.35480640399 -0.7170948844 0.66502360269 -0.20861096477 
0.69332697166 -0.7103676806 -0.12114234903 0.70872535726 -0.70251010173 0.064714178816 0.683833752 -0.69478171276 0.22282228623 
0.59101456095 -0.70030397502 0.40034501535 0.41327422039 -0.72659320328 0.5488777056 0.21139278467 -0.75962771181 0.6150437627 
0.040877122084 -0.78720951023 0.61532938163 -0.096736952389 -0.8086388297 0.58029751433 -0.22447417274 -0.82601179234 0.51702598067 
-0.37082231106 -0.83649521587 0.40344338815 -0.52361986174 -0.82299956337 0.22021343982 -0.62709686708 -0.77892597425 0.0048832299275 
-0.65149303049 -0.7410331278 -0.16256301771 -0.6289385013 -0.74620642891 -0.21820249092 -0.59719947179 -0.76788320383 -0.23175024526 
-0.5318253256 -0.81599908935 -0.22651116801 -0.28596868636 -0.94446765651 -0.16187265434 0.67815162953 -0.70705541226 0.20045700628 
0.93292774543 -0.04993245887 0.35658459215 0.91558377631 0.13328712597 0.37939542777 0.89320569133 0.21448112372 0.3951979764 
0.85732574481 0.2930678411 0.42320657817 0.77517523442 0.40282825698 0.48665465304 0.59833379592 0.53638339474 0.59522224631 
0.33125110283 0.63132412032 0.70121506115 0.10290843289 0.65074627784 0.75228926373 0.025765595056 0.64465986524 0.76403520354 
0.04407943756 0.64767221987 0.76064295093 0.064272111951 0.6523608382 0.75517841098 0.039976652455 0.6441198803 0.76387920973 
-0.047283578502 0.59827528592 0.79989433393 -0.18271262098 0.48645002359 0.85439011739 -0.33127250204 0.2914577791 0.89739115908 
-0.4373693994 0.054670918428 0.89761857108 -0.48142025621 -0.16330596487 0.86114208976 -0.48024168659 -0.31513659365 0.818570003 
-0.46323554633 -0.40572186758 0.78791027077 -0.44930708927 -0.4475901301 0.77316635659 -0.45483776482 -0.43450580684 0.7773849185 
-0.52875728792 -0.24586008624 0.81238448315 0.36995212443 0.58384761461 -0.7226737774 0.47045976532 0.38661546728 -0.79321881576 
0.5244083984 0.21649545966 -0.82348378711 0.5490999504 0.044315022264 -0.83458098665 0.54227008661 -0.11601384279 -0.83215620015 
0.50815271276 -0.24790176076 -0.82481848762 0.45418208061 -0.34765898328 -0.8202754836 0.38294208733 -0.42028076808 -0.82262958477 
0.28964575155 -0.47045808655 -0.83353135958 0.16292566343 -0.49709983341 -0.85225992738 -0.017088278492 -0.49013191864 -0.87148074739 
-0.34916442175 -0.39533610048 -0.84958435381 -0.68328394348 -0.1890082264 -0.70526515789 -0.94396830461 0.2687778733 -0.19152622462 
-0.94396830461 0.2687778733 -0.19152622462 
