# vtk DataFile Version 4.2
vtk output
ASCII
DATASET POLYDATA
POINTS 64 float
0 0 0 -0.891701 0.545197 -0.00547144 -1.85712 0.648823 0.11586 
-2.79135 0.303128 0.296253 -3.56946 -0.332319 0.429124 -4.22132 -1.10859 0.445009 
-4.76331 -1.94991 0.284963 -5.16669 -2.79276 -0.105671 -5.3749 -3.55976 -0.73284 
-5.36767 -4.19764 -1.51995 -5.18895 -4.72474 -2.36772 -4.90196 -5.20309 -3.21505 
-4.55455 -5.69563 -4.03109 -4.18438 -6.2621 -4.78666 -3.83439 -6.97038 -5.42099 
-3.58549 -7.885 -5.76843 -3.59622 -8.84331 -5.4918 -3.85593 -9.38408 -4.67984 
-4.18216 -9.53728 -3.73296 -4.49701 -9.47882 -2.77071 -4.76484 -9.31302 -1.80641 
-4.9459 -9.12812 -0.825689 -4.96518 -9.06869 0.185526 -4.74255 -9.37264 1.12058 
-4.39217 -10.0224 1.81413 -4.05 -10.8208 2.33753 -3.74988 -11.6853 2.77534 
-3.49452 -12.5867 3.16456 -3.27611 -13.5112 3.5209 -3.07795 -14.4489 3.85378 
-2.87467 -15.3901 4.17364 -2.63355 -16.3215 4.49554 -2.32061 -17.2235 4.83815 
-1.90924 -18.0693 5.21768 -1.38834 -18.8303 5.63973 -0.762513 -19.4844 6.09686 
-0.0460376 -20.0209 6.57367 0.744397 -20.4374 7.05366 1.59311 -20.7332 7.52366 
2.4838 -20.9062 7.97697 3.39696 -20.9567 8.41564 4.3112 -20.8988 8.85137 
5.21001 -20.769 9.30366 6.08641 -20.6219 9.79316 6.93884 -20.5147 10.3326 
7.76279 -20.4965 10.9238 8.54499 -20.609 11.5593 9.26038 -20.8865 12.2219 
9.87053 -21.3526 12.8835 10.3285 -22.0082 13.5058 10.6006 -22.817 14.0523 
10.6939 -23.7169 14.5099 10.6494 -24.6572 14.8874 10.5154 -25.6137 15.1978 
10.3335 -26.5806 15.4451 10.1339 -27.5597 15.6204 9.93463 -28.5508 15.7033 
9.74031 -29.5458 15.6716 9.54389 -30.5285 15.5148 9.33302 -31.4816 15.2398 
9.09687 -32.3947 14.8646 8.82889 -33.2639 14.4084 8.54092 -34.0564 13.913 
8.19173 -34.8527 13.3287 
LINES 1 65
64 0 1 2 3 4 5 6 7 8 9 10 11 12 13 14 15 16 17 18 19 20 21 22 23 24 25 26 27 28 29 30 31 32 33 34 35 36 37 38 39 40 41 42 43 44 45 46 47 48 49 50 51 52 53 54 55 56 57 58 59 60 61 62 63 

CELL_DATA 1
FIELD FieldData 2
Length 1 1 double
63.849025828 
Tortuosity 1 1 double
0.67130914537 
POINT_DATA 64
SCALARS MaximumInscribedSphereRadius float
LOOKUP_TABLE default
0.62 0.950351 1.21442 1.24 1.24 1.24 1.24065 1.25577 1.3361 
1.71156 1.85925 1.83978 1.70985 1.55487 1.57223 1.72966 1.87515 1.86119 
1.87409 2.01435 2.20621 2.40412 2.36568 2.22281 2.23636 2.40837 2.37617 
2.20792 2.43501 2.6885 2.4924 2.21331 2.17811 2.17 2.17081 2.18118 
2.16925 2.04927 1.92886 1.83946 1.70559 1.59598 1.70934 1.94904 2.33643 
2.36103 2.22594 2.35095 2.41713 2.22977 2.12801 2.06067 1.94011 1.92108 
2.0961 2.3289 2.57214 2.57141 2.4292 2.05041 2.05579 2.37339 2.35633 
2.17 
TEXTURE_COORDINATES TCoords 2 float
0 0 0.015873 0 0.031746 0 0.047619 0 0.0634921 
0 0.0793651 0 0.0952381 0 0.111111 0 0.126984 0 
0.142857 0 0.15873 0 0.174603 0 0.190476 0 0.206349 
0 0.222222 0 0.238095 0 0.253968 0 0.269841 0 
0.285714 0 0.301587 0 0.31746 0 0.333333 0 0.349206 
0 0.365079 0 0.380952 0 0.396825 0 0.412698 0 
0.428571 0 0.444444 0 0.460317 0 0.47619 0 0.492063 
0 0.507937 0 0.52381 0 0.539683 0 0.555556 0 
0.571429 0 0.587302 0 0.603175 0 0.619048 0 0.634921 
0 0.650794 0 0.666667 0 0.68254 0 0.698413 0 
0.714286 0 0.730159 0 0.746032 0 0.761905 0 0.777778 
0 0.793651 0 0.809524 0 0.825397 0 0.84127 0 
0.857143 0 0.873016 0 0.888889 0 0.904762 0 0.920635 
0 0.936508 0 0.952381 0 0.968254 0 0.984127 0 
1 0 
FIELD FieldData 7
Curvature 1 64 double
0 0.4745768668 0.48219545602 0.33313896548 0.21910633021 0.21402822233 0.26681730677 0.31577560831 0.29671175331 
0.20959384174 0.11581009622 0.067613729714 0.09564103644 0.18418340998 0.37159951203 0.75889217897 0.82505140261 0.42437666255 
0.20913561108 0.11430662972 0.08798502204 0.20354549148 0.45573916555 0.45312188009 0.22285864989 0.11315292736 0.073628911497 
0.053073426005 0.032733142 0.014010063368 0.038038223907 0.078172936217 0.11627156514 0.14159129012 0.15044139335 0.14642864271 
0.13774475942 0.13123440201 0.12772149457 0.12236034158 0.10569499666 0.073345272167 0.045447523791 0.066403315798 0.10410911909 
0.14088977677 0.17653620983 0.21260271561 0.24330875383 0.24979354433 0.21616367527 0.16096391972 0.11019086991 0.077756908127 
0.073110576815 0.090739563664 0.1119158607 0.1226691902 0.11972017624 0.10796668795 0.09455814319 0.079555037836 0.080683507744 
0 
Torsion 1 64 double
0 0 -0.12818840363 -0.25868263796 -0.45235322883 -0.29750253124 -0.077510434265 0.023159277691 0.07648802895 
0.16272058521 0.44878845481 1.1261629094 0.55687005766 0.1568313101 0.015196323955 -0.019008057683 -0.032027701737 -0.077572348039 
-0.20219488459 -0.59163496083 -1.3651545001 -0.48645270912 -0.16673952659 -0.15408889566 -0.29240347818 -0.35475399812 -0.21609300645 
-0.029426308289 0.27415800291 2.2893424307 0.41744979305 0.12667525106 0.053746949841 0.012641407909 -0.018314168328 -0.039090561645 
-0.042225847891 -0.01507895106 0.040151092273 0.10505991941 0.19586567829 0.46068307207 1.2261313472 0.55099237264 0.20753181521 
0.10093695979 0.051535601756 0.020003465501 -0.0028295156697 -0.017846522856 -0.01754482801 0.020597296503 0.14121715314 0.35748705625 
0.34189969734 0.1025253388 -0.037290941053 -0.09934785285 -0.12560685354 -0.12929265858 -0.11464402648 -0.12741302872 0 
0 
Abscissas 1 64 double
0 1.0451793056 2.023700262 3.0360370679 4.0494010505 5.0631889581 6.0766934999 7.0894646237 8.1018767107 
9.1150353545 10.129181007 11.143644535 12.158148904 13.172444693 14.185620529 15.195170044 16.192670647 17.202207532 
18.215357582 19.229493035 20.243940154 21.258230855 22.27137422 23.279478075 24.292391663 25.306499605 26.320944166 
27.335471275 28.350037356 29.364631554 30.379228387 31.39377074 32.408169946 33.422402594 34.436537458 35.450671306 
36.464851439 37.479081316 38.493337301 39.507604571 40.521922629 41.536342166 42.550882479 43.565435824 44.579896668 
45.594174747 46.608260003 47.622080969 48.635576399 49.648829903 50.662243189 51.676093551 52.690329884 53.704775789 
54.719278321 55.733750333 56.74813437 57.762437802 58.776716525 59.790911065 60.805908224 61.823441737 62.801414333 
63.84898971 
ParallelTransportNormals 3 64 double
-0.0061358492283 0 0.9999811755 0.12003169858 -0.043034719329 0.9918368839 0.20125166062 -0.033014103689 0.97898306321 
0.19650248924 -0.035734767222 0.97985192664 0.13678681319 -0.094685731079 0.98606489648 0.047272118526 -0.21597592785 0.97525368259 
-0.054950811356 -0.39809732834 0.91569586954 -0.13367649846 -0.60533014813 0.78466936064 -0.1569546919 -0.76798378998 0.62093970965 
-0.14327316299 -0.85373987361 0.50060066818 -0.13035242829 -0.88163619568 0.45357013008 -0.13616129529 -0.87274615074 0.46880087248 
-0.16753661586 -0.82644195174 0.53751761157 -0.2332223579 -0.71016306814 0.66428589359 -0.34258114042 -0.41366311752 0.84351703446 
-0.4270658389 0.25518292114 0.86746553015 -0.32375402016 0.83198057963 0.4505459461 -0.20293918222 0.97524102959 0.087867073045 
-0.13816281 0.98482437926 -0.10503323262 -0.11003521028 0.97399958658 -0.19803297162 -0.10876714244 0.97300884596 -0.20352762564 
-0.12313930449 0.99053966627 -0.060563035307 -0.082645722239 0.94181079299 0.32582528264 0.039240299445 0.73900793099 0.67255295467 
0.11584824853 0.5788288297 0.80717802821 0.15099087743 0.48784789362 0.85977100883 0.16897784333 0.43066600626 0.8865513406 
0.17941613461 0.39043699775 0.90297774138 0.18548579439 0.36330395563 0.91301985515 0.18786101371 0.35218712242 0.91688192824 
0.18518037326 0.36348259088 0.91301075322 0.17361876792 0.40174120223 0.89914433205 0.14787801995 0.46385667436 0.87348101116 
0.10563871285 0.53665399418 0.83716363566 0.05080896827 0.60431156002 0.79512639698 -0.0090889204268 0.65744183821 0.75345047674 
-0.06843017046 0.69497298502 0.71577221367 -0.12664494633 0.7202720375 0.68203317336 -0.18761287558 0.73670230915 0.64967000593 
-0.25487621073 0.74503565081 0.6164089521 -0.32496506063 0.74475347963 0.58287216776 -0.38516988867 0.73851869577 0.55338439881 
-0.42135794371 0.73287311127 0.53418581603 -0.4276649336 0.73194572294 0.53043205338 -0.40689034102 0.73349899873 0.54444418377 
-0.3638996425 0.73097563257 0.57727954647 -0.30463832452 0.71554073469 0.62864691857 -0.23711317596 0.67765775883 0.69610150386 
-0.17394405354 0.61132143408 0.77202951399 -0.13068702522 0.52455577748 0.84128600235 -0.11282211786 0.4410377202 0.89036896795 
-0.1110652266 0.3747954786 0.92043080384 -0.11610746727 0.32122001264 0.93985996804 -0.1248685522 0.26786536273 0.95533030524 
-0.13784116904 0.20169385928 0.96970067508 -0.15571984679 0.11338759333 0.98127192103 -0.1775270436 0.0033467974465 0.9841102315 
-0.20093248871 -0.11511343968 0.9728180873 -0.22386910354 -0.2241254896 0.94849901918 -0.24528627576 -0.31354055253 0.91734778838 
-0.26488448241 -0.38283407305 0.88502784334 -0.28168134812 -0.43295668541 0.85627339482 -0.29882635298 -0.47584768266 0.82720722535 
-0.29882635298 -0.47584768266 0.82720722535 
FrenetTangent 3 64 double
-0.94241042374 0.32925043491 0.058794084255 -0.94241042374 0.32925043491 0.058794084255 -0.9798905329 -0.12486577212 0.1556376641 
-0.85693275136 -0.49100808579 0.15677155141 -0.70969184895 -0.70063328607 0.073827352552 -0.59230374594 -0.8025339932 -0.071522460193 
-0.47072364049 -0.83859104428 -0.27419758338 -0.30573448712 -0.80476586052 -0.50880087767 -0.10031137028 -0.70119072461 -0.70588185747 
0.092233240085 -0.57784344283 -0.81091922224 0.22996476571 -0.49648504412 -0.83702975305 0.31285445959 -0.47879466053 -0.82029126544 
0.35411193986 -0.52260121298 -0.77555960844 0.35673184147 -0.6314481123 -0.68848796267 0.30109252095 -0.81591444346 -0.49358577247 
0.12605980912 -0.99131441983 -0.037478601369 -0.14444479879 -0.80067366104 0.58142702777 -0.29600334528 -0.35057753556 0.8885254139 
-0.31797728132 -0.04699122362 0.94693308817 -0.28771599496 0.11073532484 0.95129238096 -0.22148568875 0.17303782652 0.95968849127 
-0.099333531258 0.12114471521 0.98765216931 0.10311445509 -0.12399045595 0.98691123004 0.29051812958 -0.4835342235 0.82570810284 
0.34380149707 -0.71890816068 0.60412878356 0.3171387151 -0.82107780161 0.47460960703 0.27396679615 -0.87095471011 0.40789715314 
0.2335734438 -0.90018709869 0.36756854286 0.20532043438 -0.91784745891 0.33970510946 0.1978355949 -0.92594983772 0.32167992698 
0.21904708432 -0.92301445819 0.31632686389 0.27330059162 -0.90435920035 0.32778228042 0.35767140114 -0.86308038888 0.35659979126 
0.46078276402 -0.79417523039 0.39618802079 0.56698893122 -0.6996835987 0.43470267263 0.66359999811 -0.58860287718 0.46171603338 
0.74471356464 -0.47097225729 0.47284970076 0.80984754773 -0.35192309207 0.46935816463 0.85926070797 -0.23158582579 0.45611296958 
0.89091728805 -0.11038577626 0.44054666751 0.90204640455 0.0036530617875 0.43162360824 0.89420695747 0.09257487982 0.43797695012 
0.87511294738 0.13650115127 0.46426798837 0.85253693138 0.12540240871 0.50740025278 0.82746906542 0.061898293077 0.55808919278 
0.79385961985 -0.046608619802 0.60631224672 0.74142309917 -0.19307997226 0.64266002858 0.65757096792 -0.36888372094 0.65690579429 
0.5309175259 -0.55755003143 0.63817281605 0.36306343664 -0.72824492592 0.58124372585 0.18131409165 -0.84786851269 0.4982410916 
0.024141291086 -0.91035360301 0.41312651277 -0.08812355483 -0.93642959189 0.33960838993 -0.15581634797 -0.94870985741 0.27508339129 
-0.18815623991 -0.9597684083 0.20842704192 -0.19680886462 -0.97212930375 0.12740050074 -0.19432988657 -0.98061044912 0.025279285453 
-0.19298457856 -0.97677503355 -0.093099335512 -0.20115429823 -0.95606343113 -0.21325961632 -0.22062503113 -0.9210565767 -0.32090400147 
-0.24830780046 -0.87786664026 -0.40950384387 -0.27881719098 -0.83336761249 -0.47724144462 -0.31482446039 -0.7850342162 -0.53348555607 
-0.31482446039 -0.7850342162 -0.53348555607 
FrenetNormal 3 64 double
-0.300360799 -0.91048119669 0.28426639073 -0.300360799 -0.91048119669 0.28426639073 0.14400897093 -0.98246007657 0.11846355661 
0.47213865443 -0.86978377608 -0.14339202859 0.56907796998 -0.63188150997 -0.5261901001 0.50463879783 -0.3003088053 -0.80941602726 
0.51390162467 -0.0079844348456 -0.85781196597 0.61747032379 0.23918346883 -0.74934749448 0.72376367803 0.43539161305 -0.53535061562 
0.80477063999 0.52284303584 -0.28103269719 0.91119676523 0.41192764228 0.0060060433516 0.86915088282 -0.20395168982 0.45053351829 
0.23254008178 -0.75404604755 0.61427979663 -0.10539557677 -0.75947377197 0.64194342593 -0.27202393442 -0.56958789115 0.77561112251 
-0.3809962688 -0.083262540406 0.92081984803 -0.34178819599 0.59179522447 0.73004057515 -0.15737773299 0.93539807408 0.31664284638 
0.05502614216 0.9961726951 0.06791233485 0.40193916393 0.91554364358 0.01499150416 0.95997923097 0.21168332861 0.18338496259 
0.78103951883 -0.60549357139 0.15282278966 0.54714889292 -0.82152691 -0.16037962815 0.28664892313 -0.77931721351 -0.55722264455 
-0.0382062925 -0.65352183002 -0.75594278679 -0.36326778484 -0.56744595905 -0.73894627684 -0.59171067142 -0.48699774177 -0.6424264011 
-0.67720767002 -0.42187055 -0.60283912506 -0.60108993553 -0.39218360065 -0.69633534507 0.35414194496 -0.2384842255 -0.90427250152 
0.96737350247 0.2477446609 0.053019710623 0.89475214298 0.36410606543 0.2585447268 0.82611920765 0.47048468354 0.31011484536 
0.75600100097 0.58506640789 0.29352987053 0.68223714086 0.69461360868 0.22817628771 0.60511481755 0.78523203841 0.13132670494 
0.52419946296 0.85130255431 0.022335712558 0.43341763987 0.89811418089 -0.074431629935 0.32069805022 0.93854440935 -0.12762112784 
0.17885082384 0.97690539928 -0.11691117857 0.0091160971853 0.9995799152 -0.027511632021 -0.20602306783 0.95371551466 0.21904614267 
-0.47978307342 0.36989791246 0.79560275063 -0.34988205879 -0.5842603553 0.7322720684 -0.2651506435 -0.83304137518 0.48552775769 
-0.28850981771 -0.90656442791 0.30806334273 -0.36996075304 -0.91662372518 0.15142650908 -0.48639566731 -0.87373060509 -0.0037529383678 
-0.61764889101 -0.77020186778 -0.15905637461 -0.73611347031 -0.60662288011 -0.30024263547 -0.81508739374 -0.41303144443 -0.40624815875 
-0.83810554488 -0.24370423924 -0.48804440312 -0.79163663222 -0.14109718356 -0.59447710411 -0.59955070708 -0.13048638997 -0.78962791976 
-0.23548111264 -0.16194189666 -0.95829195327 0.0031915563461 -0.13057645746 -0.99143310552 0.043056119818 -0.034272599209 -0.99848463157 
-0.016636361044 0.098126634244 -0.99503487132 -0.11806918329 0.23978659524 -0.96361924882 -0.22637104503 0.36838147827 -0.90169353798 
-0.32019985061 0.47336405248 -0.82060863357 -0.39271081117 0.55243941179 -0.73524751961 -0.47602799777 0.61685924317 -0.62680301487 
-0.47602799777 0.61685924317 -0.62680301487 
FrenetBinormal 3 64 double
0.14712574097 0.25023617162 0.95694089408 0.14712574097 0.25023617162 0.95694089408 0.13811574792 0.13849453746 0.98068511933 
0.20676399744 -0.048859416251 0.97717010126 0.41531643794 -0.33141930512 0.84715612526 0.62810505194 -0.5155131533 0.58286381986 
0.7171641196 -0.54470295506 0.43471176233 0.72474604009 -0.54327081458 0.4237924013 0.68271792664 -0.56459340325 0.46382164853 
0.58637636927 -0.62668342523 0.51325494455 0.34181378199 -0.76407998173 0.54712440994 -0.38301283268 -0.85390829792 0.35233760619 
-0.90583102421 -0.39787250517 -0.14549097983 -0.92824251447 -0.15643807453 -0.33748031522 -0.9139727966 -0.099263564357 -0.39344691111 
-0.91594255698 -0.10179916699 -0.38818315511 -0.92860999843 -0.093274330936 -0.35914254831 -0.94213282967 -0.046106773557 -0.33205405687 
-0.94650017023 0.073700654329 -0.31417453956 -0.86928960349 0.38667495979 -0.30792541423 -0.17141751891 0.96189816456 -0.21299754746 
0.61653071261 0.78657580244 -0.034472995477 0.83065967648 0.55652484489 -0.016870058959 0.91292475662 0.39857161895 -0.087801214756 
0.93826478663 0.23681274079 -0.252148599 0.87604768813 0.061938092159 -0.47823019651 0.7581692924 -0.065353595488 -0.64877440734 
0.69773434631 -0.10811302598 -0.70815136489 0.77235640001 -0.061221446824 -0.63223217715 0.91402656428 0.29281764329 0.28073700784 
-0.1273062511 0.29439241322 0.94716747488 -0.35316481883 0.22262347104 0.90868773563 -0.43542878127 0.18367472575 0.88128620298 
-0.46491045472 0.16426503523 0.86998578568 -0.46160159826 0.167196879 0.87118836547 -0.43985349844 0.19224281215 0.87725230184 
-0.41305765902 0.23123385108 0.88085996415 -0.39534301422 0.26370638094 0.87986524295 -0.39852703335 0.25593436068 0.88072345643 
-0.41746708692 0.18295032458 0.89008449603 -0.43154279141 0.028751491508 0.9016341669 -0.39742724206 -0.28610593969 0.8718916094 
-0.063131068307 -0.9189901904 0.38919339429 0.38828253318 -0.8018192272 -0.4542274775 0.49496472807 -0.54973690848 -0.67290359593 
0.53530270787 -0.41948608393 -0.73313193651 0.55984000325 -0.35003009977 -0.75103801503 0.575343095 -0.31704830886 -0.7539633233 
0.58020378155 -0.30972091522 -0.75328382868 0.57124591885 -0.31885421308 -0.75631348726 0.55023425988 -0.33245151692 -0.76597535741 
0.54497366331 -0.33446159909 -0.76885573746 0.60460373933 -0.32123387776 -0.72887798305 0.78502242983 -0.28796338047 -0.54846775308 
0.95349141316 -0.2293892424 -0.19553695431 0.98043668066 -0.19471621797 0.028801209787 0.97999084982 -0.19294697725 0.048881471308 
0.98106074426 -0.19047755114 -0.035186909272 0.97241792263 -0.16865676503 -0.16111573278 0.94872585377 -0.12629279072 -0.28977471491 
0.91422934316 -0.072640455212 -0.39863275375 0.87637845296 -0.017581773254 -0.48130207608 0.82114730985 0.056621140173 -0.56790064449 
0.82114730985 0.056621140173 -0.56790064449 
