# vtk DataFile Version 4.2
vtk output
ASCII
DATASET POLYDATA
POINTS 64 float
0 0 0 -0.96359 0.0079379 0.411225 -1.89415 0.0516038 0.690588 
-2.89241 0.0812727 0.919818 -3.89008 0.0480033 1.09364 -4.88169 -0.106071 1.24073 
-5.83014 -0.435968 1.38135 -6.68856 -0.9571 1.52104 -7.44004 -1.62835 1.63672 
-8.10925 -2.38958 1.67656 -8.73133 -3.18298 1.56723 -9.31692 -3.94327 1.24111 
-9.8395 -4.62802 0.706204 -10.271 -5.25115 0.0321979 -10.5963 -5.85074 -0.718545 
-10.8019 -6.45721 -1.50523 -10.8716 -7.08552 -2.29841 -10.7889 -7.73868 -3.06987 
-10.5383 -8.4125 -3.78501 -10.1055 -9.09814 -4.3938 -9.47492 -9.779 -4.80012 
-8.66899 -10.377 -4.7521 -8.01791 -10.652 -4.04165 -7.74829 -10.6156 -3.06343 
-7.70908 -10.4524 -2.0634 -7.79913 -10.2463 -1.07423 -7.96246 -10.0508 -0.0921542 
-8.15253 -9.92635 0.896482 -8.3084 -9.97047 1.89724 -8.34858 -10.3068 2.85072 
-8.25474 -10.9305 3.64388 -8.10345 -11.7108 4.27407 -7.95948 -12.5649 4.80219 
-7.8536 -13.4588 5.27031 -7.79549 -14.3764 5.69904 -7.77855 -15.3108 6.09409 
-7.78161 -16.2599 6.45246 -7.77281 -17.2237 6.76937 -7.71376 -18.1978 7.04666 
-7.56573 -19.17 7.29568 -7.29295 -20.1172 7.5348 -6.86591 -21.0023 7.78503 
-6.26979 -21.7729 8.06562 -5.51962 -22.3731 8.38904 -4.66544 -22.7749 8.75906 
-3.76707 -22.9939 9.17557 -2.86789 -23.0679 9.63913 -1.9916 -23.0314 10.1489 
-1.14648 -22.9051 10.6957 -0.327397 -22.6966 11.2568 0.480894 -22.415 11.8014 
1.29629 -22.0857 12.3075 2.13286 -21.7516 12.7742 2.99657 -21.4674 13.2242 
3.88087 -21.2984 13.6913 4.75604 -21.3204 14.2024 5.55279 -21.6076 14.7582 
6.17553 -22.1768 15.3185 6.57485 -22.9536 15.8326 6.77727 -23.8385 16.2847 
6.83725 -24.7647 16.6917 6.80498 -25.7007 17.1017 6.71965 -26.5849 17.5155 
6.71059 -27.3109 18.2641 
LINES 1 65
64 0 1 2 3 4 5 6 7 8 9 10 11 12 13 14 15 16 17 18 19 20 21 22 23 24 25 26 27 28 29 30 31 32 33 34 35 36 37 38 39 40 41 42 43 44 45 46 47 48 49 50 51 52 53 54 55 56 57 58 59 60 61 62 63 

CELL_DATA 1
FIELD FieldData 2
Length 1 1 double
63.872185017 
Tortuosity 1 1 double
0.90472854562 
POINT_DATA 64
SCALARS MaximumInscribedSphereRadius float
LOOKUP_TABLE default
0.93 0.93 0.981444 1.14768 1.22029 1.05509 0.9796 0.974246 0.947477 
0.93 0.947725 1.04042 1.2824 1.67064 1.83131 1.8562 1.86 1.79401 
1.48673 1.26362 1.26402 1.73973 1.78971 1.66404 1.82356 1.73376 1.62147 
1.74303 1.76971 1.5895 1.55 1.65791 1.8215 1.86 1.82389 1.6823 
1.66375 2.17549 2.3069 1.999 1.96401 2.09538 2.01648 1.90792 2.08827 
2.27621 2.44865 2.21847 1.91231 2.05978 2.24736 2.43101 2.48 2.4164 
2.13808 1.81982 1.65374 1.78325 2.12614 2.32829 2.4663 2.48 2.48 
2.48 
TEXTURE_COORDINATES TCoords 2 float
0 0 0.015873 0 0.031746 0 0.047619 0 0.0634921 
0 0.0793651 0 0.0952381 0 0.111111 0 0.126984 0 
0.142857 0 0.15873 0 0.174603 0 0.190476 0 0.206349 
0 0.222222 0 0.238095 0 0.253968 0 0.269841 0 
0.285714 0 0.301587 0 0.31746 0 0.333333 0 0.349206 
0 0.365079 0 0.380952 0 0.396825 0 0.412698 0 
0.428571 0 0.444444 0 0.460317 0 0.47619 0 0.492063 
0 0.507937 0 0.52381 0 0.539683 0 0.555556 0 
0.571429 0 0.587302 0 0.603175 0 0.619048 0 0.634921 
0 0.650794 0 0.666667 0 0.68254 0 0.698413 0 
0.714286 0 0.730159 0 0.746032 0 0.761905 0 0.777778 
0 0.793651 0 0.809524 0 0.825397 0 0.84127 0 
0.857143 0 0.873016 0 0.888889 0 0.904762 0 0.920635 
0 0.936508 0 0.952381 0 0.968254 0 0.984127 0 
1 0 
FIELD FieldData 7
Curvature 1 64 double
0 0.11690069738 0.067949506849 0.080144805603 0.12098853565 0.17756934535 0.20785664298 0.18228127544 0.14026881443 
0.15623042919 0.21892283412 0.22752526577 0.17374300985 0.12994619934 0.12211284702 0.13455214046 0.15248545047 0.17471678427 
0.20776711384 0.28107228114 0.51620703837 0.8705298321 0.59674353987 0.26072162872 0.13342636792 0.072368530713 0.074139969643 
0.1688921058 0.3176310912 0.35751679838 0.22991061077 0.12308664342 0.079266395465 0.064478407434 0.054233844402 0.043046827912 
0.044283783399 0.063031717014 0.090927512748 0.12451867433 0.1631326472 0.20289707781 0.23041975759 0.22549138492 0.19013983716 
0.14903376798 0.11893429942 0.099379162758 0.085081368248 0.073664846665 0.060008520596 0.043723009688 0.057571040334 0.1153290214 
0.1926380584 0.27810965427 0.33189171548 0.30764067822 0.2297537272 0.15171191295 0.089351307412 0.060875282705 0.37742432166 
0 
Torsion 1 64 double
0 0 0.79721761598 0.59969554246 0.3070996052 0.10358982498 -0.018315141505 -0.20803617025 -0.58406444667 
-0.48733930647 -0.12606038482 0.057540122178 0.24676984091 0.40699248334 0.32053192566 0.16774247346 0.098846628452 0.089658934265 
0.12259364669 0.18228383914 0.13410505301 0.074432182208 0.079929767383 0.13766629402 0.26192144958 0.83893134016 1.001140805 
0.23865565532 0.038415739784 -0.036530616534 -0.16056796164 -0.38418306317 -0.43251422961 -0.19374729969 0.12686178761 0.55934345626 
0.73034802575 0.47513717346 0.30830200413 0.21278588529 0.14925509259 0.10938675564 0.093166260339 0.10236542461 0.13382310045 
0.16278866769 0.11968051191 -0.048647633132 -0.2761439784 -0.42524545281 -0.56228611255 -1.0943984035 -0.84312580904 -0.26763752793 
-0.098362424689 -0.036305273255 -0.015258053816 -0.015588650807 -0.041179070057 -0.16238974965 -0.44096959104 -3.1804354149 0 
0 
Abscissas 1 64 double
0 1.0476993743 2.0202668466 3.044940465 4.0581893014 5.0724141591 6.0863984157 7.1002892789 8.1145286211 
9.1288795731 10.142983513 11.156551611 12.170505204 13.184777989 14.199157105 15.213511477 16.2277944 17.241998081 
18.256022819 19.269962035 20.283016926 21.287752251 22.28986049 23.305208654 24.319228056 25.333641332 26.348216529 
27.362622773 28.376403957 29.388253618 30.401650779 31.415989861 32.430466361 33.444991829 34.459540441 35.474109869 
36.488690829 37.503255653 38.517770451 39.532189692 40.546482963 41.560578541 42.57441851 43.588134603 44.602031858 
45.616189881 46.630532616 47.644964436 48.659436558 49.673940892 50.688466995 51.703029851 52.71761079 53.732134784 
54.746380366 55.760110576 56.773132541 57.785922296 58.79945704 59.813515216 60.826994239 61.849337958 62.829321299 
63.872159747 
ParallelTransportNormals 3 64 double
0.39251403136 0 0.91974601667 0.28765745058 0.0029321473554 0.95772887272 0.22395270603 0.0053685263396 0.97458522685 
0.17146711595 0.0052645680279 0.98517577745 0.14629293313 0.0028944900754 0.98923707959 0.14572413748 0.0027525903244 0.98932143361 
0.15609192689 0.007635846371 0.98771301713 0.14964335301 0.0028598500245 0.98873590415 0.105976103 -0.041169369781 0.99351605351 
0.016355796626 -0.14906762423 0.98869172714 -0.11370385599 -0.3163923678 0.94178941528 -0.23805464417 -0.47854408878 0.84517781649 
-0.316918462 -0.58665361874 0.745251783 -0.35556796028 -0.64909550561 0.67249271387 -0.37170099619 -0.68574780554 0.62577017877 
-0.37701909947 -0.70960465308 0.59524602894 -0.37684876644 -0.72645725735 0.57466934882 -0.37425265387 -0.73679412387 0.56308913157 
-0.37438159235 -0.73653764261 0.56333890717 -0.39366513785 -0.71175981991 0.58174368755 -0.49647795757 -0.62029661584 0.60724109382 
-0.73146918289 -0.47954684172 0.48475525895 -0.85821284341 -0.44651868688 0.25316353937 -0.88058752072 -0.46099472301 0.10977014034 
-0.87828338005 -0.47774004174 0.019564172233 -0.86974609747 -0.4912699531 -0.046856793687 -0.85979953387 -0.50027483649 -0.10232228265 
-0.85070078607 -0.50238668209 -0.15464732213 -0.84524295541 -0.49178265238 -0.20907933697 -0.84690141209 -0.46206126423 -0.26316798113 
-0.8549401466 -0.41601611219 -0.30985148076 -0.86482045507 -0.36132464343 -0.34861165004 -0.87311159354 -0.30331965883 -0.38167175662 
-0.87821374864 -0.24695734415 -0.40957622228 -0.88018607862 -0.19828453489 -0.43122582277 -0.88043135883 -0.16500194428 -0.44453906551 
-0.88046036384 -0.1553352436 -0.4479514592 -0.87963866949 -0.17880093753 -0.44075620911 -0.87297017292 -0.24147434257 -0.42380799788 
-0.85023271676 -0.34518335535 -0.39743273461 -0.7964492488 -0.48599807033 -0.35982561015 -0.69525058952 -0.64975262808 -0.30732416121 
-0.54193768707 -0.80585473026 -0.23854076601 -0.36219746765 -0.91811734235 -0.16085254151 -0.19768861565 -0.97639453932 -0.087022496075 
-0.069521375917 -0.99728512573 -0.024272542005 0.025404425339 -0.99929156925 0.027766432925 0.10052537736 -0.9921881846 0.073873234955 
0.1678158347 -0.97864973382 0.11866989561 0.2274145229 -0.96070226073 0.15916595428 0.26717532088 -0.94574381714 0.18489451118 
0.27214095818 -0.94374969248 0.18781857423 0.22969901429 -0.95918451198 0.164934638 0.12910678893 -0.9852670665 0.1121616901 
-0.03680317493 -0.99912391533 0.019923055398 -0.25987095692 -0.95785073092 -0.12242982896 -0.48362635142 -0.82285063427 -0.2983661943 
-0.63276640767 -0.62646391197 -0.45513694678 -0.69815912205 -0.445900835 -0.56013059696 -0.71654244794 -0.31899660462 -0.62032901476 
-0.71745407678 -0.25860615612 -0.64682494056 -0.71610612713 -0.23795145456 -0.65617918281 -0.73093381883 -0.4854573916 -0.47965286763 
-0.73093381883 -0.4854573916 -0.47965286763 
FrenetTangent 3 64 double
-0.93919776434 0.025587294865 0.34242203462 -0.93919776434 0.025587294865 0.34242203462 -0.96629715935 0.036739150146 0.25479410254 
-0.98021232704 -0.0017682258768 0.19794107028 -0.98299689731 -0.092575343276 0.15857775912 -0.96037419075 -0.23957688138 0.14242307273 
-0.89589604352 -0.42196366937 0.13898539827 -0.79713975784 -0.59040630246 0.1264460537 -0.70209596191 -0.70792249358 0.076857031897 
-0.63856941846 -0.76879659112 -0.034364215152 -0.59920639341 -0.77089005452 -0.21605606202 -0.55014197442 -0.71737788906 -0.42744914583 
-0.4722074819 -0.64731577991 -0.59833299685 -0.37386160396 -0.6040278773 -0.70383082095 -0.26218899275 -0.595621846 -0.75927040549 
-0.13601998239 -0.6100788796 -0.7805781992 0.0064275164468 -0.63361255657 -0.77362382021 0.16496902683 -0.65679660621 -0.73580122198 
0.33883393168 -0.67402843315 -0.65641239937 0.52980257963 -0.68082497081 -0.50575348318 0.73426939299 -0.65368689904 -0.18314446906 
0.78326131464 -0.46930845698 0.40773923675 0.47505336936 -0.12311026293 0.87130256479 0.15348361037 0.099198211771 0.98315944593 
-0.025120649329 0.18247582749 0.98288937595 -0.12496337975 0.19806343878 0.97219083926 -0.17429878152 0.15780122274 0.97196641344 
-0.17118582185 0.039750634803 0.98443654007 -0.097998080262 -0.1901722599 0.976847423 0.026913464138 -0.48150453131 0.87603028017 
0.12169775716 -0.69703141086 0.7066377206 0.14581627571 -0.8071605126 0.57203978938 0.12323546175 -0.86218043082 0.49138368479 
0.080863129615 -0.8932465886 0.44223487676 0.037000710305 -0.91306330584 0.40613587255 0.0068418927546 -0.92845152228 0.37139057511 
0.0028296177542 -0.94296506285 0.33287968324 0.033455231733 -0.95553137589 0.29298555793 0.10217021153 -0.96027642746 0.25967370053 
0.20783674534 -0.94798681808 0.24109102025 0.346185399 -0.90639812133 0.24207047561 0.507163751 -0.82070293763 0.26311901841 
0.66844750618 -0.68061693825 0.29989750725 0.79634296653 -0.49735796535 0.34419897437 0.86812541746 -0.30751322923 0.38960733233 
0.88866212418 -0.14485122658 0.43508361404 0.87672749948 -0.018517696911 0.48063082148 0.84951243891 0.080341401373 0.52141526192 
0.82098022209 0.165163001 0.54654611703 0.80261536077 0.24171515397 0.54532776107 0.80056199499 0.30120584673 0.51804973706 
0.81431673943 0.32701536953 0.47953018255 0.83832065573 0.30485167599 0.45197780235 0.86307004508 0.22376461207 0.45281287048 
0.87168525372 0.072827143789 0.48462462337 0.83292595534 -0.15403807971 0.53151352092 0.71027344554 -0.42851862926 0.55846523341 
0.51035039919 -0.67210539052 0.53648561405 0.29875332312 -0.82500462425 0.47970180518 0.1297962864 -0.89586097728 0.42495415449 
0.013625202577 -0.91565900549 0.40172495507 -0.058759083013 -0.90946326424 0.41161139582 -0.047475762787 -0.8098897449 0.58465772299 
-0.047475762787 -0.8098897449 0.58465772299 
FrenetNormal 3 64 double
-0.31720517984 0.31720275083 -0.893735581 -0.31720517984 0.31720275083 -0.893735581 -0.25616352426 -0.23525480326 -0.93756889154 
-0.12782108854 -0.75788351341 -0.6397455349 0.056758087967 -0.97450506133 -0.21706774265 0.23692940473 -0.97087732605 -0.035520063912 
0.42554416745 -0.90492725273 -0.0043392191829 0.5768407379 -0.80654020348 -0.12941276315 0.57350499959 -0.62613517769 -0.52824876214 
0.29414523788 -0.20256899222 -0.93404731273 0.16264884812 0.1470234464 -0.9756687237 0.27393919601 0.32851091617 -0.90390148515 
0.51454348695 0.34872189014 -0.78335052396 0.79801385488 0.17723032056 -0.57598897636 0.95631561885 -0.054950599082 -0.28712517967 
0.98614467119 -0.15889605847 -0.04765217825 0.97734706368 -0.15968276237 0.13890332074 0.94185675325 -0.11651098108 0.31516828463 
0.86246057284 -0.056280845896 0.50298531458 0.70030433654 0.014792752982 0.71369111714 0.36782765169 0.15635037913 0.91665553923 
-0.20273859757 0.42718058937 0.88114346455 -0.69241488296 0.55874749862 0.45646781117 -0.87233156973 0.48099369961 0.087650974865 
-0.94601835062 0.31347035825 -0.082374843231 -0.98491819769 -0.14294926015 -0.097476422222 -0.35132741815 -0.93207729918 0.088323007276 
0.19771812896 -0.97747304696 0.073851093049 0.36342461115 -0.92061946322 -0.14276678868 0.37708032071 -0.80671735359 -0.45499180559 
0.24583775701 -0.66858000034 -0.70182945249 -0.058148215714 -0.5842128992 -0.80951471476 -0.46783311033 -0.48715689708 -0.73743497239 
-0.72041072863 -0.35900236123 -0.59340179197 -0.73816007149 -0.29892448915 -0.60478414219 -0.45155341638 -0.33424538125 -0.8272723477 
0.26031123973 -0.32071019281 -0.91070468907 0.77533432612 -0.16016927654 -0.61090300834 0.95293968279 0.019581623182 -0.302526893 
0.97780953949 0.19472169706 -0.077278491011 0.92599614977 0.37154986865 0.066946439082 0.81956971462 0.55370671191 0.14735793183 
0.65971552222 0.72877059415 0.18349073776 0.45391008855 0.86752653108 0.20337981558 0.2269326683 0.94401562807 0.23944948949 
0.0042222509824 0.95134325224 0.30810418533 -0.18840409783 0.90618837093 0.37858490768 -0.30590148461 0.88024526191 0.36275688913 
-0.2980515297 0.94044040337 0.16351493311 -0.14264442044 0.96546873266 -0.21799700818 0.11369206234 0.77245190785 -0.62481370425 
0.47217690027 0.10723295075 -0.87495718131 0.45851342473 -0.84275127701 -0.28202078727 0.17602127281 -0.97355907036 0.14559961552 
-0.044109991456 -0.9732229421 0.22559125345 -0.27782471384 -0.94705989099 0.16090677817 -0.52456794381 -0.85125376345 0.013982222226 
-0.72549856521 -0.67144765247 -0.1510294073 -0.84578081582 -0.46172065203 -0.26733658763 -0.91834970439 -0.2702197284 -0.28916278949 
-0.99982425507 -0.017650068694 -0.0063193393865 -0.91169886629 0.21684503392 0.34897479632 0.21284463153 0.5636727494 0.79810412504 
0.21284463153 0.5636727494 0.79810412504 
FrenetBinormal 3 64 double
-0.13148548717 -0.94801250266 -0.28979969195 -0.13148548717 -0.94801250266 -0.28979969195 0.025496052185 -0.97123911185 0.23673727829 
0.1511474884 -0.65238750255 0.74266074574 0.17462994967 -0.20437634713 0.96318985118 0.14678511816 -0.00036833879305 0.98916833422 
0.12760266747 0.055256936295 0.99028492377 0.17838993686 -0.030220823755 0.98349566966 0.42208207225 -0.32680343073 0.84560406926 
0.71113126554 -0.60656211955 0.35549221974 0.78389862246 -0.61976820671 0.037286990334 0.78886064984 -0.61436922306 0.015790278123 
0.71572696895 -0.67777232492 0.16840303292 0.47265356076 -0.77700690918 0.4157630029 0.1292956659 -0.80138320935 0.58400991648 
-0.094959211661 -0.77624468003 0.62323907519 -0.21154527681 -0.75699177246 0.61823300809 -0.29273038198 -0.74501235518 0.5993876159 
-0.37596984858 -0.7365583057 0.56225308827 -0.47841724765 -0.73229675241 0.48462191817 -0.57057100975 -0.74043770634 0.35524741499 
-0.58770636719 -0.77283006947 0.23944709163 -0.54303400088 -0.82014943513 0.18019150354 -0.46419867924 -0.87109401084 0.16035838137 
-0.32313810248 -0.93190069583 0.1647509024 0.11966744581 -0.96970943238 0.21293970783 0.91988530808 -0.32608385801 0.21789983369 
0.96519581219 0.20728321084 0.15947010575 0.92645503305 0.34101952365 0.15933221965 0.92578944538 0.34257918464 0.15985432452 
0.96164102093 0.25912930253 0.08999195209 0.98760133594 0.084777327772 -0.13212269279 0.87518295336 -0.13900741828 -0.46339155777 
0.68881749132 -0.27060642378 -0.6725344802 0.67361016641 -0.27741584187 -0.68504729354 0.89221785493 -0.16204257432 -0.42153232788 
0.96552061176 0.089229269183 0.24455691728 0.63066427694 0.24759966183 0.73549777515 0.28542461147 0.27836261046 0.91708617276 
0.026313338191 0.25180240954 0.96742087779 -0.15062138003 0.20098044867 0.96794631005 -0.26662785405 0.14090977738 0.95344324534 
-0.34344338867 0.075193114545 0.93615844508 -0.39975431351 -0.0057246987375 0.9166044494 -0.44142929628 -0.11945755651 0.88930875885 
-0.45854312954 -0.27196348759 0.84603431359 -0.44255258171 -0.42246861576 0.79099145452 -0.42982891696 -0.46766819233 0.77235585323 
-0.4869874337 -0.29714143234 0.82131005632 -0.57919008276 0.097179784943 0.80937935323 -0.58836604859 0.55910024857 0.58415092648 
-0.33754588242 0.93891535421 -0.067087516708 0.29493036045 0.44366174137 -0.84627438915 0.47342011872 -0.045957968923 -0.87963700257 
0.48807696842 -0.21802135699 -0.84513168252 0.47858936606 -0.28169102378 -0.83162634988 0.469403989 -0.30288416034 -0.82941007983 
0.46172968491 -0.31214162495 -0.83028507396 0.4420421513 -0.32585489019 -0.83571366329 0.37388065539 -0.35272426592 -0.85778718092 
0.012876833071 -0.40156825167 -0.91573856882 -0.40663564449 -0.35476020389 -0.84189824229 -0.97593197241 0.16233185974 0.1456198906 
-0.97593197241 0.16233185974 0.1456198906 
