# vtk DataFile Version 4.2
vtk output
ASCII
DATASET POLYDATA
POINTS 64 float
0 0 0 -0.821351 0.121294 -0.636961 -1.72308 -0.175825 -0.848142 
-2.48266 -0.789293 -0.582975 -3.0143 -1.46091 -0.0403713 -3.45358 -2.1039 0.610012 
-3.88476 -2.71375 1.29669 -4.3571 -3.30841 1.96943 -4.90278 -3.92379 2.56228 
-5.52661 -4.6317 2.93397 -6.03981 -5.4787 2.77019 -6.1294 -6.24999 2.12269 
-5.90129 -6.88108 1.36392 -5.48555 -7.42029 0.612195 -4.94021 -7.89384 -0.0999786 
-4.29854 -8.32426 -0.757117 -3.5788 -8.75111 -1.33105 -2.78967 -9.25917 -1.71758 
-2.16004 -9.94812 -1.44971 -2.19537 -10.4413 -0.561041 -2.64172 -10.6447 0.324063 
-3.3363 -10.6235 1.06046 -4.17552 -10.4212 1.59121 -5.06852 -10.11 1.95816 
-5.96606 -9.75747 2.27393 -6.82771 -9.41347 2.68293 -7.52983 -9.12555 3.35206 
-7.77693 -8.96787 4.31499 -7.4823 -8.98669 5.28229 -6.89773 -9.15557 6.09277 
-6.20562 -9.44708 6.77442 -5.49963 -9.85251 7.37953 -4.84725 -10.3903 7.93915 
-4.34011 -11.1224 8.42118 -4.14069 -12.0863 8.6357 -4.22117 -13.0817 8.45902 
-4.3389 -14.0223 8.09789 -4.37432 -14.969 7.73545 -4.27876 -15.9563 7.52736 
-4.03618 -16.9315 7.64088 -3.68258 -17.7516 8.11692 -3.26636 -18.3536 8.818 
-2.79865 -18.7743 9.61338 -2.27336 -19.0495 10.4362 -1.68635 -19.187 11.2517 
-1.04589 -19.1708 12.0378 -0.37824 -18.9838 12.7778 0.290422 -18.645 13.4611 
0.963311 -18.2151 14.0869 1.66779 -17.7625 14.6597 2.42262 -17.3363 15.1868 
3.21948 -16.9589 15.6887 4.03538 -16.639 16.1998 4.85232 -16.3966 16.7502 
5.65905 -16.2685 17.3514 6.4432 -16.2971 17.9937 7.1802 -16.5198 18.6533 
7.81767 -16.9691 19.3003 8.25321 -17.6607 19.8977 8.36794 -18.5289 20.4044 
8.15401 -19.4249 20.826 7.70036 -20.236 21.2426 7.12926 -20.8767 21.72 
6.52378 -21.1745 22.5143 
LINES 1 65
64 0 1 2 3 4 5 6 7 8 9 10 11 12 13 14 15 16 17 18 19 20 21 22 23 24 25 26 27 28 29 30 31 32 33 34 35 36 37 38 39 40 41 42 43 44 45 46 47 48 49 50 51 52 53 54 55 56 57 58 59 60 61 62 63 

CELL_DATA 1
FIELD FieldData 2
Length 1 1 double
63.791915842 
Tortuosity 1 1 double
1.0194872132 
POINT_DATA 64
SCALARS MaximumInscribedSphereRadius float
LOOKUP_TABLE default
0.9796 1.34516 1.36402 1.26023 1.31819 1.48504 1.3455 1.0714 1.46797 
1.62674 1.42996 1.5138 1.43024 1.3372 1.26094 1.24 1.34842 1.7602 
1.86984 2.15928 1.81887 1.83074 2.34814 2.3154 2.08219 1.68224 1.55 
1.69625 1.76815 1.60005 1.74306 1.866 1.88047 1.86918 2.15932 2.27611 
1.88295 1.48331 1.4242 1.83757 2.07639 2.17 2.13908 1.97838 1.93793 
2.14095 2.35003 2.39912 2.28041 2.54532 2.62339 2.27298 2.17 2.24075 
2.41675 2.37733 2.38022 2.7275 2.82048 2.60529 2.23545 2.35936 2.47245 
2.48 
TEXTURE_COORDINATES TCoords 2 float
0 0 0.015873 0 0.031746 0 0.047619 0 0.0634921 
0 0.0793651 0 0.0952381 0 0.111111 0 0.126984 0 
0.142857 0 0.15873 0 0.174603 0 0.190476 0 0.206349 
0 0.222222 0 0.238095 0 0.253968 0 0.269841 0 
0.285714 0 0.301587 0 0.31746 0 0.333333 0 0.349206 
0 0.365079 0 0.380952 0 0.396825 0 0.412698 0 
0.428571 0 0.444444 0 0.460317 0 0.47619 0 0.492063 
0 0.507937 0 0.52381 0 0.539683 0 0.555556 0 
0.571429 0 0.587302 0 0.603175 0 0.619048 0 0.634921 
0 0.650794 0 0.666667 0 0.68254 0 0.698413 0 
0.714286 0 0.730159 0 0.746032 0 0.761905 0 0.777778 
0 0.793651 0 0.809524 0 0.825397 0 0.84127 0 
0.857143 0 0.873016 0 0.888889 0 0.904762 0 0.920635 
0 0.936508 0 0.952381 0 0.968254 0 0.984127 0 
1 0 
FIELD FieldData 7
Curvature 1 64 double
0 0.64331504967 0.654818482 0.3663756153 0.14146846992 0.048418857722 0.044745491177 0.10765567583 0.24908940201 
0.60110087983 0.71134232893 0.36800789865 0.20565367059 0.14717319345 0.11609510941 0.11126243679 0.21182918457 0.80488191353 
1.2040316265 0.52065691994 0.36961075193 0.30922091575 0.20040036031 0.064132992952 0.097691098808 0.30970755276 0.59209727922 
0.60817252235 0.36502997169 0.20435444784 0.13470710877 0.14652395324 0.25204087464 0.48590262974 0.50021115788 0.19230644833 
0.080358428394 0.20293924943 0.35607469386 0.41734463541 0.31952976117 0.20729052206 0.15541275989 0.14769295306 0.16186385088 
0.17541599198 0.15856104253 0.10506943096 0.063942441598 0.070961973127 0.067270637733 0.059575363884 0.084593931848 0.12244096371 
0.16008260608 0.19694719955 0.24487970226 0.31916342316 0.38158196502 0.34200188448 0.25039526561 0.21496324771 0.47857286182 
0 
Torsion 1 64 double
0 0 0.0475723119 0.13196293991 0.41696379712 1.3420210097 1.3035345118 0.56459295698 0.42301358271 
0.20603402829 0.17463799911 0.26398272821 0.21986772904 0.16521099556 0.30627689155 0.69793494729 0.50749359034 0.083751297548 
0.0534167179 0.10035908828 0.062267184081 0.020412315264 -0.023271687055 -0.71087857897 -0.24130353708 0.055482020513 0.024237343393 
-0.032100277838 -0.16017452306 -0.36336741941 -0.58945045007 -0.3382189297 0.079712297081 0.1500123753 0.19144069943 0.68978985743 
2.0846121512 0.33881856381 0.099270272858 0.0052016500582 -0.090978374713 -0.22042882886 -0.23497944057 -0.089300849181 0.043291457381 
0.061307115641 -0.026179521099 -0.31929188037 -0.9227334281 -0.50945313984 -0.48355691593 -0.62286869079 -0.15335486543 0.055526194404 
0.076690010141 0.0214254866 -0.066052697175 -0.12474258903 -0.15377057322 -0.25221916553 -0.47568868246 -0.9168549607 0 
0 
Abscissas 1 64 double
0 1.0464459262 2.0190629971 3.030809179 4.0447726116 5.0593717126 6.0739385003 7.0884889806 8.1023516696 
9.1164866787 10.120284392 11.131307325 12.144239053 13.158479638 14.172798344 15.187111356 16.201819278 17.216830489 
18.187829846 19.204780873 20.216727213 21.229233087 22.24259099 23.256968582 24.271638295 25.285574792 26.29730765 
27.303863279 28.315215104 29.328689834 30.342904654 31.35727874 32.371190937 33.383874215 34.391262952 35.40537572 
36.419768545 37.434124145 38.447603907 39.458980663 40.470957116 41.484450905 42.498565489 43.512809162 44.527016297 
45.541106852 46.555157946 47.569431728 48.583940206 49.59847109 50.612969879 51.627516582 52.642044887 53.656458884 
54.670722607 55.684775935 56.698551041 57.711890678 58.724264011 59.736061195 60.749110575 61.767594084 62.749711505 
63.791907431 
ParallelTransportNormals 3 64 double
-0.6128203688 0 0.79022224443 -0.24068539582 0.041207212109 0.96972805771 0.13627221686 0.2460615623 0.9596267975 
0.32013500019 0.42900504669 0.84467049881 0.38314288776 0.51431456259 0.76725618816 0.40345131017 0.54354422333 0.73606162623 
0.39527777908 0.53264784197 0.74835937477 0.34572193956 0.47374556414 0.80996387633 0.20134022314 0.31037871457 0.92904637564 
-0.11416550226 -0.12149129806 0.986005123 -0.29099066787 -0.59509334982 0.74912504711 -0.27292680625 -0.77838529027 0.56535590412 
-0.23534817647 -0.84670658411 0.47717836943 -0.20377578884 -0.87997667013 0.42908797222 -0.18411610559 -0.89494861782 0.40640894567 
-0.19488703664 -0.88816613723 0.41614895846 -0.29607367205 -0.82547046739 0.480561014 -0.72384830951 -0.46244327284 0.5120447678 
-0.99753043911 0.070232176862 -0.00068145292948 -0.88972990024 0.22564696616 -0.39681752895 -0.69951309202 0.25603497682 -0.6671787802 
-0.48169774768 0.22430260315 -0.84714557315 -0.32082299084 0.17662021449 -0.93052560867 -0.27173498325 0.15842377176 -0.94924286008 
-0.35712507058 0.19223270737 -0.91406141489 -0.59583375801 0.2886963841 -0.74942413266 -0.86300087207 0.41417711641 -0.28928672809 
-0.84965792442 0.45436471023 0.26764551477 -0.69192826014 0.42070826882 0.58671955428 -0.56545304509 0.37510221412 0.73454828484 
-0.49255211329 0.33876167372 0.80164390106 -0.45608557486 0.31343848134 0.8329119202 -0.42206208125 0.27616932427 0.86347791165 
-0.36153122855 0.13065737295 0.92315969457 -0.34516044292 -0.13690702066 0.92850456991 -0.36129113908 -0.29446122783 0.88473798275 
-0.36345947281 -0.3211842258 0.87449294149 -0.36643072783 -0.22572489615 0.90264987285 -0.40625501758 0.0053112336747 0.91374430312 
-0.49337679323 0.26768547164 0.8276012495 -0.57556139246 0.41952657228 0.70194482593 -0.62449191274 0.47614735658 0.61910705515 
-0.64893598277 0.49328006079 0.57927270943 -0.6618103313 0.49805676267 0.56030933112 -0.67662741185 0.49952045033 0.54097566048 
-0.70352541378 0.49534237573 0.50959584278 -0.73334234663 0.48360974256 0.47783953325 -0.74214914789 0.47856339757 0.46924590227 
-0.71707681297 0.4946277254 0.49106441284 -0.66622142498 0.52525327565 0.52939400197 -0.61568870277 0.55142167823 0.56290456924 
-0.58571269869 0.56438223032 0.58173304246 -0.5686012433 0.57027472362 0.59285695215 -0.54546437593 0.57555362206 0.60926729989 
-0.50433829349 0.57812531005 0.64141563093 -0.44651895552 0.56857457279 0.6909007002 -0.38329275118 0.53766232597 0.75100325574 
-0.33491148869 0.48620866648 0.80711549817 -0.32056629876 0.44553607856 0.83590361334 -0.31948140048 0.4648685445 0.82572929649 
-0.28286991411 0.55859411914 0.77971611613 -0.18984804361 0.68983143006 0.69863461011 0.083579523878 0.91047433683 0.40503202979 
0.083579523878 0.91047433683 0.40503202979 
FrenetTangent 3 64 double
-0.89346375523 -0.091170033333 -0.43978465539 -0.89346375523 -0.091170033333 -0.43978465539 -0.87655747726 -0.48045354878 0.028484671725 
-0.64794798457 -0.64486932299 0.40534795616 -0.47984882521 -0.64970616184 0.58959902325 -0.42910308098 -0.61760172495 0.65911960617 
-0.44539138869 -0.59376472696 0.67012682374 -0.50262458375 -0.59743011568 0.6248566113 -0.58119243605 -0.6576141087 0.47933186449 
-0.58686179909 -0.80254460071 0.10730979746 -0.31593067941 -0.84816859165 -0.42520329956 0.069578712468 -0.70441542345 -0.70636938918 
0.31931168554 -0.58040002333 -0.74911672014 0.47508668947 -0.50063325532 -0.7236428547 0.58613881017 -0.44637521715 -0.67615860619 
0.6720340184 -0.42317509494 -0.60769492111 0.7476221311 -0.46323355531 -0.47589475972 0.76275291384 -0.64353580359 -0.063793901974 
0.33818354335 -0.6726857916 0.65812287363 -0.24505734774 -0.35438875613 0.90241648137 -0.57303628095 -0.091510361794 0.81440485902 
-0.76611928379 0.11163637075 0.63292856131 -0.85861546263 0.25452839678 0.44496604653 -0.88292075235 0.32728708997 0.33665131191 
-0.86825222174 0.34377364618 0.35771183882 -0.78119550866 0.31568134366 0.53858970145 -0.48931464869 0.22970325625 0.84131301467 
0.024553222591 0.071732910542 0.99712162187 0.44132864437 -0.094219185783 0.89238543953 0.632957256 -0.22825394799 0.73977378116 
0.69079587834 -0.34435562956 0.63578318228 0.67155334851 -0.4663108895 0.57582137373 0.57673000068 -0.63162642227 0.51810285563 
0.35959116845 -0.86314897662 0.35449687691 0.060582488545 -0.99797709345 0.019273894846 -0.098169329458 -0.95885969193 -0.26636605253 
-0.075553403307 -0.93105992245 -0.35695812647 0.029812271531 -0.95870978016 -0.28281935205 0.16960751984 -0.98436943965 -0.047435171481 
0.30088172717 -0.90605713813 0.29754100338 0.38488101383 -0.71099651017 0.58851556285 0.4383288641 -0.50714271872 0.74207416728 
0.49107307329 -0.34414675047 0.8002563657 0.54988770903 -0.20402679926 0.80993615343 0.60720340425 -0.0600044114 0.79227741132 
0.64749823991 0.10058117842 0.75540019583 0.66092726912 0.26005511602 0.70395062438 0.66218923726 0.37943089236 0.64617150354 
0.67919140274 0.43516778257 0.59103979515 0.7196794544 0.43339271013 0.54243178531 0.7651730468 0.39627329271 0.50742259108 
0.79518773882 0.34381088026 0.49947025802 0.80550577625 0.27739131561 0.52365494598 0.80189721631 0.18298259675 0.56875146044 
0.78691939468 0.049217414367 0.61508984092 0.75382179085 -0.12453473622 0.64516959562 0.68315181125 -0.33400416371 0.64941883358 
0.53640214925 -0.57034048807 0.62208075195 0.27670264685 -0.78434314508 0.55519498916 -0.049699713307 -0.88387121821 0.46508236702 
-0.33121527028 -0.84696583395 0.4158669509 -0.51514687625 -0.72982688487 0.44941786125 -0.59713776038 -0.47630716385 0.64541303116 
-0.59713776038 -0.47630716385 0.64541303116 
FrenetNormal 3 64 double
-0.25015487779 -0.71222710527 0.65586209498 -0.25015487779 -0.71222710527 0.65586209498 0.30290888236 -0.50471057382 0.8084017848 
0.63069552286 -0.15585271034 0.76021910665 0.63994671858 0.20052604196 0.74179343747 0.16243301285 0.66505719497 0.72891319356 
-0.89438088397 0.32961956902 -0.3023801814 -0.66734961528 -0.19133881395 -0.71974575321 -0.30933124909 -0.36628227399 -0.87758274487 
0.18492665549 -0.26188207649 -0.94721692874 0.65806794186 0.126948133 -0.74217973256 0.87088545468 0.3882378231 -0.3013800218 
0.89561074975 0.44317904843 0.038389008384 0.86047412399 0.43633398418 0.26305310527 0.80928996226 0.36233272452 0.46234700574 
0.68160815481 0.032723621755 0.73098528567 0.32060340646 -0.3758082353 0.86947203868 -0.17770431775 -0.30342429816 0.93613827544 
-0.73464519671 0.24835829356 0.6313593216 -0.81984811226 0.5725767517 0.0022217666929 -0.67675260335 0.61330206874 -0.40726709458 
-0.46465608336 0.58416029044 -0.66547087034 -0.25948983214 0.53278924389 -0.80548162525 -0.064763967233 0.62526172587 -0.77772321729 
0.35152214523 -0.082522494851 0.93253537158 0.50859170215 -0.17849155997 0.84230353408 0.81211983666 -0.23158459005 0.53556507406 
0.9506010286 -0.310413475 -0.00107655535 0.7979262846 -0.41377096316 -0.43830039287 0.51511093872 -0.58917571961 -0.62252123838 
0.099841895885 -0.82545519466 -0.55556756334 -0.35556920792 -0.88461832427 -0.30169679935 -0.56745843373 -0.76596815524 -0.30213194328 
-0.65198318549 -0.50420059496 -0.56630352804 -0.58157480943 -0.050984739412 -0.81189364906 -0.18993983668 0.28079166043 -0.94078632105 
0.99707426372 -0.074706651196 -0.016181127915 0.6345150959 -0.20047426938 0.74645874661 0.41659000235 0.027991717577 0.90866343257 
0.27047785865 0.38026328447 0.88444421105 0.19417453597 0.68573999236 0.70146768454 0.24307006986 0.86173447795 0.44534327283 
0.3619447642 0.9162116855 0.1719073443 0.40884002511 0.91134282122 -0.048001000776 0.3234499258 0.92944824904 -0.1774995714 
0.1520525856 0.95426856963 -0.25739368336 0.0052990717118 0.93639742845 -0.35090137623 0.037913251696 0.8442553272 -0.53459847348 
0.48042958414 0.34519548038 -0.80624282633 0.69021867174 -0.36193368351 -0.62657975863 0.60733744667 -0.70582661107 -0.36462312184 
0.31120917856 -0.93835622539 0.15045411743 0.012723315273 -0.8915667133 0.45271062831 -0.080023229745 -0.91047387956 0.40575065908 
-0.13707782 -0.95796313105 0.25202442505 -0.23438482745 -0.96824670704 0.086960145829 -0.40027907176 -0.91505260144 -0.049552006124 
-0.63079550684 -0.760625708 -0.15344562845 -0.84989930485 -0.46936711766 -0.23951133682 -0.9646585707 -0.078168460616 -0.25164167729 
-0.93561090645 0.35187934422 -0.028515940035 -0.64101257532 0.67613583877 0.36323987367 0.0053534494408 0.80223088525 0.59698990555 
0.0053534494408 0.80223088525 0.59698990555 
FrenetBinormal 3 64 double
-0.37302152111 0.69600328702 0.6135424755 -0.37302152111 0.69600328702 0.6135424755 -0.37402299133 0.71723888917 0.58794147482 
-0.42706740303 0.74823357914 0.50770064439 -0.60017772561 0.73326066972 0.31955514066 -0.88853028211 0.41984168058 -0.18505918246 
-0.041344228983 -0.7340261499 -0.67786153896 0.5495571115 -0.77875972877 -0.30252316614 0.75268155991 -0.6583167777 0.0094598934412 
0.78828634445 -0.53604098899 0.30210047546 0.68347230354 -0.51429000736 0.51804574955 0.48653604964 -0.59419719279 0.6404782342 
0.30971185383 -0.68317504635 0.661324749 0.1840568375 -0.74764898042 0.63807842985 0.038614144901 -0.81820789672 0.57362425468 
-0.28944878892 -0.90545679279 0.31043098265 -0.58161379356 -0.80261001957 -0.13244829793 -0.62179511728 -0.70270574552 -0.34579685848 
-0.58815671888 -0.69700214046 -0.41019469796 -0.51749006671 -0.73929998847 -0.43085909287 -0.46220702566 -0.78452942976 -0.41337421215 
-0.44402248501 -0.80392417292 -0.39566394454 -0.4420910702 -0.80706314303 -0.39141355217 -0.46503394889 -0.70847084266 -0.53086014305 
0.35010035826 0.93541954119 -0.049193710083 0.36203322741 0.93192599078 -0.021116106931 0.31785617105 0.94530682411 -0.073228838625 
0.30944276319 0.94789127229 -0.075811029693 0.41053948897 0.90549231641 -0.1074290134 0.57794968023 0.77509490171 -0.25534694137 
0.71612334852 0.44726158118 -0.53583992731 0.65006664158 -0.0021388539202 -0.75987419144 0.58768480694 -0.11975327911 -0.80017855497 
0.66754184693 -0.027488255709 -0.74406470041 0.81123393859 0.037977325971 -0.58348712034 0.97687544815 -0.041762837788 -0.2096907823 
-0.011601546544 -0.35713630041 0.9339802284 -0.77233530383 -0.20170677913 0.60233923474 -0.89313272203 -0.17387716937 0.41482607297 
-0.91450090992 -0.18563484835 0.35948266835 -0.90230973328 -0.15570685727 0.40198572093 -0.86532349329 -0.014830791231 0.50099431094 
-0.79236558757 0.2052295337 0.57448900263 -0.72833600853 0.35752947766 0.58455053784 -0.7257300954 0.36404041391 0.58377256331 
-0.74674362436 0.28152250987 0.602593591 -0.75043125253 0.23565057316 0.61751254448 -0.74837690999 0.37850381824 0.54467133224 
-0.55487516896 0.83154619916 0.025386325727 -0.075230765596 0.8253331252 -0.5596119766 0.21366196275 0.58717652592 -0.78075110828 
0.52040878856 0.035800459277 -0.8531664667 0.59245131587 -0.3579983991 -0.72169147464 0.59207865792 -0.37088365282 -0.71546361116 
0.60163738044 -0.2826380825 -0.74709315134 0.61385377762 -0.21677041721 -0.75907451935 0.61080296946 -0.22609722515 -0.75881471867 
0.56068686701 -0.31009717833 -0.76776948178 0.44844934701 -0.4055864145 -0.79648781757 0.25877360855 -0.46115221064 -0.84874899596 
-0.12218296303 -0.39853456968 -0.90897828374 -0.56896974803 -0.10096061439 -0.81613747627 -0.8021208361 0.3599404012 -0.4764924678 
-0.8021208361 0.3599404012 -0.4764924678 
