# vtk DataFile Version 4.2
vtk output
ASCII
DATASET POLYDATA
POINTS 64 float
0 0 0 -0.958135 -0.31531 0.106103 -1.92737 -0.594481 0.220959 
-2.89883 -0.854848 0.352641 -3.86494 -1.1218 0.510757 -4.81439 -1.42289 0.703738 
-5.73669 -1.77713 0.934683 -6.62687 -2.18597 1.19896 -7.49094 -2.63358 1.48611 
-8.34212 -3.09836 1.78427 -9.19413 -3.56178 2.08216 -10.0573 -4.01445 2.36411 
-10.9374 -4.46157 2.59821 -11.8303 -4.93373 2.69511 -12.6489 -5.47363 2.43531 
-13.2366 -6.01468 1.80993 -13.6966 -6.5267 1.06445 -14.1141 -7.02853 0.287733 
-14.4975 -7.53492 -0.503447 -14.8264 -8.05886 -1.30766 -15.0618 -8.61298 -2.12434 
-15.1462 -9.20595 -2.9433 -15.0193 -9.83027 -3.73294 -14.6681 -10.4595 -4.44723 
-14.1425 -11.0734 -5.06056 -13.5042 -11.6725 -5.57362 -12.7966 -12.2671 -5.99206 
-12.0458 -12.8684 -6.31475 -11.2679 -13.4845 -6.52643 -10.4756 -14.1154 -6.58649 
-9.69514 -14.7343 -6.39393 -9.06935 -15.1844 -5.73571 -8.88463 -15.2228 -4.73833 
-9.00267 -15.0435 -3.7471 -9.2696 -14.8246 -2.79293 -9.63335 -14.6594 -1.86033 
-10.0715 -14.6219 -0.94597 -10.5616 -14.7675 -0.0696325 -11.0737 -15.1037 0.739221 
-11.5833 -15.5871 1.47137 -12.0788 -16.1647 2.14238 -12.5524 -16.8004 2.77563 
-12.9916 -17.4763 3.39181 -13.374 -18.1876 4.00604 -13.6655 -18.9354 4.62667 
-13.8205 -19.7182 5.25329 -13.7926 -20.5197 5.87475 -13.557 -21.3045 6.4731 
-13.1285 -22.0321 7.0356 -12.5477 -22.6772 7.56096 -11.8581 -23.2331 8.05575 
-11.0947 -23.7047 8.52928 -10.2825 -24.1009 8.99052 -9.43795 -24.4298 9.44656 
-8.57068 -24.6944 9.90184 -7.68645 -24.8924 10.3583 -6.79032 -25.0209 10.8164 
-5.88856 -25.0823 11.2773 -4.98816 -25.0908 11.745 -4.09522 -25.0709 12.2262 
-3.21437 -25.0529 12.7296 -2.35117 -25.0673 13.2622 -1.51257 -25.1432 13.829 
-0.710413 -25.3035 14.4288 
LINES 1 65
64 0 1 2 3 4 5 6 7 8 9 10 11 12 13 14 15 16 17 18 19 20 21 22 23 24 25 26 27 28 29 30 31 32 33 34 35 36 37 38 39 40 41 42 43 44 45 46 47 48 49 50 51 52 53 54 55 56 57 58 59 60 61 62 63 

CELL_DATA 1
FIELD FieldData 2
Length 1 1 double
63.919017902 
Tortuosity 1 1 double
1.1937440868 
POINT_DATA 64
SCALARS MaximumInscribedSphereRadius float
LOOKUP_TABLE default
1.116 1.18039 1.2488 1.35987 1.50195 1.5377 1.44567 1.33987 1.21426 
1.11714 1.116 1.12129 1.34137 1.49986 1.26699 1.2401 1.24 1.24 
1.28006 1.41854 1.53738 1.39338 1.24582 1.38114 1.51766 1.63065 1.73426 
1.78232 1.67783 1.56156 1.70163 1.80926 1.6041 1.32762 1.03667 1.2698 
1.76838 1.93421 1.85149 1.76053 1.66102 1.60574 1.73496 1.86828 2.11467 
2.38474 2.27655 1.98115 1.86 1.86 1.86 1.8597 1.83781 1.70072 
1.56238 1.48267 1.40756 1.23266 1.0226 0.93 0.929854 0.885213 0.750732 
0.62 
TEXTURE_COORDINATES TCoords 2 float
0 0 0.015873 0 0.031746 0 0.047619 0 0.0634921 
0 0.0793651 0 0.0952381 0 0.111111 0 0.126984 0 
0.142857 0 0.15873 0 0.174603 0 0.190476 0 0.206349 
0 0.222222 0 0.238095 0 0.253968 0 0.269841 0 
0.285714 0 0.301587 0 0.31746 0 0.333333 0 0.349206 
0 0.365079 0 0.380952 0 0.396825 0 0.412698 0 
0.428571 0 0.444444 0 0.460317 0 0.47619 0 0.492063 
0 0.507937 0 0.52381 0 0.539683 0 0.555556 0 
0.571429 0 0.587302 0 0.603175 0 0.619048 0 0.634921 
0 0.650794 0 0.666667 0 0.68254 0 0.698413 0 
0.714286 0 0.730159 0 0.746032 0 0.761905 0 0.777778 
0 0.793651 0 0.809524 0 0.825397 0 0.84127 0 
0.857143 0 0.873016 0 0.888889 0 0.904762 0 0.920635 
0 0.936508 0 0.952381 0 0.968254 0 0.984127 0 
1 0 
FIELD FieldData 7
Curvature 1 64 double
0 0.037692306093 0.024590845121 0.026975848287 0.050115886391 0.06879733714 0.069620911903 0.050584695402 0.023442094675 
0.0015698038198 0.021597031009 0.049633382035 0.13669774265 0.3724588147 0.44013209893 0.17395549518 0.052218598793 0.036266456185 
0.057090667116 0.096434970952 0.1523761174 0.21184516329 0.23307001648 0.19829377538 0.14806447186 0.11439309752 0.10253131453 
0.11228993451 0.14949231773 0.24986320196 0.53993800331 0.76131777703 0.37493447402 0.15492153345 0.10990671835 0.1454446884 
0.19028630911 0.19957481178 0.16234054831 0.11029262477 0.070686338779 0.054045687153 0.065113968556 0.095582448585 0.13767835216 
0.1801500703 0.20585283024 0.20056325055 0.17340004437 0.14056409461 0.11113354808 0.088237495109 0.072814454398 0.066324067826 
0.066847434254 0.068597740583 0.065542440001 0.05186224296 0.031401193226 0.024627384227 0.045736583054 0.072494423477 0.095085779828 
0 
Torsion 1 64 double
0 0 -0.85791536818 -0.86334020183 -0.24590192322 -0.092599196788 -0.036422854204 -0.00098081675673 0.044526653587 
6.5099518737 0.53442023657 0.58278872304 0.25287342172 0.048960241121 0.014905429176 0.00042562422508 0.19241902785 0.45103367266 
0.12244808178 0.030311111979 0.0087346308744 0.010424656144 0.027710235416 0.067046713555 0.13494206574 0.19958224866 0.19870681579 
0.11361868695 0.002972129896 -0.070539785752 -0.031644989756 0.011787734842 0.13673651207 0.61191182955 0.78728656131 0.31003146625 
0.1130428119 0.050538394551 0.037636025747 0.083293453814 0.26186136876 0.47856846853 0.29273890855 0.10466575891 0.044842177947 
0.03987790643 0.053660885279 0.072545879113 0.08815813297 0.098976697514 0.10864790584 0.11735119288 0.11469914589 0.087177276203 
0.053072199926 0.045802220742 0.077640872999 0.18709791099 0.6483761653 1.1509436031 0.33209376971 0.12317426936 0 
0 
Abscissas 1 64 double
0 1.0142492026 2.0294040291 3.0437364809 4.0584496356 5.0730177913 6.0876363178 7.1022375046 8.1168438762 
9.1314498735 10.146052627 11.160668462 12.175226272 13.189887805 14.204396708 15.218891027 16.233529352 17.248124656 
18.262733435 19.277337678 20.29194294 21.306552409 22.321157509 23.335752796 24.350358154 25.364964796 26.379571468 
27.394175082 28.408790601 29.423362209 30.437912292 31.451524596 32.466596943 33.480800328 34.495487164 35.510071566 
36.524675718 37.539271846 38.553887849 39.56849568 40.583101441 41.59770661 42.612311548 43.626918173 44.641524012 
45.656128136 46.670729463 47.685334701 48.6999415 49.714548598 50.729154888 51.743761412 52.75836741 53.772973145 
54.787578004 55.802183408 56.816790338 57.831392586 58.846008962 59.860583029 60.875273795 61.889672392 62.904675588 
63.919028395 
ParallelTransportNormals 3 64 double
0.11006631203 0 0.99392424608 0.11706517981 0.0021588098126 0.99312188739 0.13261294842 0.0064812205435 0.99114670947 
0.15790136845 0.013363579103 0.98736445784 0.19197574722 0.023468086444 0.98111903529 0.22948869501 0.036601829903 0.9726228688 
0.2628013018 0.050626924222 0.96352083024 0.28576695706 0.061839219014 0.95630181284 0.29672147506 0.067666224702 0.952563724 
0.29637964855 0.067479939134 0.9526833481 0.28158933453 0.059580208771 0.95768347871 0.23898885675 0.037591875543 0.97029437659 
0.12035538476 -0.023918587945 0.99244268475 -0.17505322689 -0.19859970322 0.96432075869 -0.45615260845 -0.41465585299 0.78739146641 
-0.54068282125 -0.4996203952 0.67678766797 -0.56167989851 -0.52388147007 0.64036231692 -0.57178870801 -0.53660691841 0.62057287123 
-0.58213935003 -0.55157879916 0.59738982705 -0.5945530202 -0.57529499318 0.56173158803 -0.6052926471 -0.61381752331 0.50680258429 
-0.60333358746 -0.66990059436 0.43269131713 -0.57992418743 -0.73128111093 0.35904856722 -0.54720357351 -0.77767270127 0.30950511924 
-0.52322245617 -0.80266588786 0.28629658367 -0.51481732693 -0.81011999803 0.28047942648 -0.521986686 -0.8042414335 0.28412253746 
-0.5438373085 -0.78683963411 0.29176081314 -0.58068238473 -0.75757632759 0.29813767951 -0.637388159 -0.71251388049 0.29336036691 
-0.72148390713 -0.64859082244 0.24246838308 -0.78096570383 -0.6127345015 0.12103305381 -0.78438980335 -0.61998543963 0.018726746708 
-0.76716627567 -0.63779964081 -0.068319277354 -0.73339141548 -0.65837216741 -0.16936091897 -0.6778509141 -0.67241296453 -0.29728596231 
-0.60067409919 -0.66342310399 -0.4461618671 -0.51721966542 -0.62330476032 -0.58649381366 -0.44953498454 -0.56900983112 -0.68858268186 
-0.40576642658 -0.52281229558 -0.74968053907 -0.38229845516 -0.4934293167 -0.78126525624 -0.37341865298 -0.48066921779 -0.79342019931 
-0.37447850181 -0.48245864473 -0.791833005 -0.38152710848 -0.49772106044 -0.77891643421 -0.39009676341 -0.52709792096 -0.754978342 
-0.3936829839 -0.57177884745 -0.71977958973 -0.38401452171 -0.62997956644 -0.67502488323 -0.35603081411 -0.69370532595 -0.62611099667 
-0.31246032728 -0.75296537613 -0.57914737868 -0.26073305333 -0.80186981216 -0.53760866738 -0.20725944421 -0.83968225087 -0.50197334627 
-0.15576383425 -0.8680425893 -0.47142304898 -0.10660939984 -0.88955812488 -0.44420803496 -0.057203584846 -0.90668763405 -0.41790583166 
-0.0045998059031 -0.92058135498 -0.3905237645 0.051507692922 -0.93087012483 -0.36170121408 0.10666180541 -0.93669445059 -0.33350676979 
0.15217017934 -0.93846031969 -0.31005880876 0.18003566405 -0.93828367429 -0.29531492719 0.18607767897 -0.93815449538 -0.29196102513 
0.17023194034 -0.93818708421 -0.30137365762 0.13460102358 -0.93629737693 -0.32439140928 0.083832288897 -0.92898897209 -0.36048805399 
0.083832288897 -0.92898897209 -0.36048805399 
FrenetTangent 3 64 double
-0.94989459723 -0.29298696973 0.10889852945 -0.94989459723 -0.29298696973 0.10889852945 -0.95632312519 -0.26587006724 0.12148739679 
-0.95500976402 -0.25991048403 0.14283868848 -0.94426619927 -0.28001352957 0.17307156951 -0.92297219404 -0.32314752903 0.20904067432 
-0.89374564682 -0.37627976348 0.24419717113 -0.86478487295 -0.42220034222 0.27183449846 -0.8453379204 -0.44965914764 0.2884622181 
-0.839337097 -0.45741976383 0.29373525029 -0.84528776614 -0.45147444046 0.28576112755 -0.85937748007 -0.44356819942 0.2543965393 
-0.87581828957 -0.45410149875 0.16350581788 -0.85789373448 -0.50729768605 -0.081654136902 -0.70941365548 -0.54528959693 -0.44653277696 
-0.51831486026 -0.52097155931 -0.67818754045 -0.43257693836 -0.49979253992 -0.75038963841 -0.39475500068 -0.4969406116 -0.77279914466 
-0.35117076004 -0.50796293288 -0.78654482143 -0.27841820631 -0.53190087206 -0.79972793167 -0.15806530848 -0.56696345972 -0.80843539853 
0.021063150003 -0.60329968113 -0.79723637552 0.23722515479 -0.6219908565 -0.74622489932 0.43425520287 -0.61568798187 -0.65753382253 
0.57517527624 -0.59943896184 -0.55663842181 0.66436361185 -0.58923516973 -0.45980746623 0.71969249966 -0.59015384542 -0.36573370733 
0.75455374382 -0.60089847515 -0.26376063059 0.77599839449 -0.61627216748 -0.13429485223 0.78120905498 -0.62079052332 0.065814425333 
0.71723879981 -0.54522863509 0.43392884155 0.42502278135 -0.25616459162 0.86817932326 0.033428392034 0.070636656025 0.9969418265 
-0.1903239539 0.19686485169 0.96178013222 -0.31127367815 0.18957346271 0.93121995228 -0.39625288263 0.10016300286 0.91266150673 
-0.45955585605 -0.053517903137 0.88653496784 -0.49638173035 -0.23863173702 0.83466165113 -0.50517933484 -0.40525112495 0.76194840073 
-0.49609317139 -0.52368387171 0.69256535274 -0.47788544895 -0.59830595116 0.64316054487 -0.45000070028 -0.64660484683 0.61595579533 
-0.4051048574 -0.68398398613 0.60667615844 -0.33249130444 -0.7198969496 0.60926013691 -0.2205719067 -0.75611893205 0.61614299847 
-0.062894109559 -0.78397393833 0.61759954258 0.1305526187 -0.78594093966 0.60436152518 0.32894124725 -0.74912135535 0.57499117456 
0.49928478943 -0.67905275133 0.53814687582 0.62763374938 -0.59334716547 0.50399902566 0.71718257445 -0.50716116301 0.47795053053 
0.77724415606 -0.42808608298 0.46112235624 0.81701640575 -0.35757859513 0.4523513469 0.84406287406 -0.29264248307 0.44935313701 
0.86363380046 -0.22810024434 0.44956305146 0.87789818701 -0.1609976328 0.45097065921 0.88650696824 -0.093635964069 0.45314203236 
0.88840350106 -0.034457635879 0.45776838099 0.88387888914 0.005618799428 0.46768209119 0.87418023894 0.018677842229 0.48524225709 
0.85975154408 0.0017742548826 0.51070944232 0.83913404381 -0.044525487313 0.54209919526 0.80944126444 -0.11652471527 0.57552309263 
0.80944126444 -0.11652471527 0.57552309263 
FrenetNormal 3 64 double
-0.26387056828 0.93840869484 0.223072734 -0.26387056828 0.93840869484 0.223072734 -0.11913976228 0.73404035684 0.66857346012 
0.20572928191 -0.23367136201 0.95030161377 0.32058279722 -0.66284533308 0.67665555088 0.38451860124 -0.75116526364 0.53655958849 
0.4484379441 -0.76288944088 0.46572858113 0.50185644425 -0.74496619081 0.43950595436 0.53423196474 -0.71160611206 0.45630357124 
-0.51609033782 0.84024930746 -0.16622835056 -0.50106231954 0.48407594082 -0.7173611611 -0.33301801344 0.10796562347 -0.93671896899 
-0.090466312524 -0.1783125316 -0.97980635198 0.19990446193 -0.18312839059 -0.96254984217 0.53411319872 -0.0025754148694 -0.84540904785 
0.71906592759 0.16377717788 -0.67536747611 0.79083597423 0.18934236168 -0.58200337794 0.91352814805 -0.12242925538 -0.38791416596 
0.92828609083 -0.29863308509 -0.22159245036 0.94405642708 -0.30478440366 -0.12595209319 0.9683582553 -0.24913606926 -0.014611926449 
0.97998477061 -0.1454284189 0.13594272452 0.94770120688 -0.020653926052 0.31848993363 0.86314400428 0.07558863348 0.49926825091 
0.74301546455 0.098175699739 0.6620344035 0.59110896184 0.037745022204 0.80570807898 0.41025218146 -0.063498759187 0.90975878956 
0.23478398326 -0.12813076434 0.96356576757 0.094444183808 -0.096986495495 0.99079458811 -0.046537483895 0.047220626995 0.99779981709 
-0.29682217979 0.32435112353 0.89816086658 -0.6381855523 0.59537990407 0.48810036946 -0.81171169606 0.58388681997 -0.014152877621 
-0.93901856257 0.24929405778 -0.23684723326 -0.85871908078 -0.47585514611 -0.19016682207 -0.49949818955 -0.85757429916 -0.12275129352 
-0.26774625182 -0.94339633779 -0.19574292958 -0.10798107313 -0.93703653095 -0.33211839383 0.014895991456 -0.88685487775 -0.46180789865 
0.12454088896 -0.83230861234 -0.54014066761 0.30143682198 -0.79941360712 -0.51968618137 0.61874986371 -0.72310115084 -0.30703962582 
0.84843188161 -0.52849289263 -0.029301957373 0.92584460752 -0.37218695184 0.065487675185 0.96786350041 -0.2478986201 0.042267229991 
0.99441275682 -0.10179442887 -0.027949299238 0.99069345583 0.079741034711 -0.11030795055 0.94388870107 0.27984738666 -0.17538403625 
0.8596484579 0.46584024514 -0.20975555971 0.75589652753 0.61935983797 -0.2121646313 0.64706323414 0.73927939051 -0.18648097433 
0.53845897999 0.83168654623 -0.13549692134 0.43203822539 0.89916994042 -0.069544158967 0.33290826707 0.94289183798 -0.011272425954 
0.24691419613 0.96888363387 0.017259309928 0.16876047232 0.9853825944 0.023260387767 0.083837427248 0.99560598828 0.041713329908 
-0.026851728006 0.99157112621 0.12675048866 -0.22754662577 0.87877997412 0.41948574491 -0.48273101873 -0.075066296475 0.87254559462 
-0.36928890827 -0.68859444823 0.62407001858 -0.33716712555 -0.82464458475 0.45418018263 -0.36754376323 -0.86491354758 0.34181301515 
-0.36754376323 -0.86491354758 0.34181301515 
FrenetBinormal 3 64 double
-0.16754873126 0.18316046796 -0.96869998742 -0.16754873126 0.18316046796 -0.96869998742 -0.26693032288 0.62489828122 -0.73365546468 
-0.21361604153 0.93693342072 0.27662962953 -0.074753026969 0.69442673312 0.71566996394 -0.016363811962 0.57560960831 0.81756088732 
0.011051202994 0.52575016936 0.85056724033 0.016947946505 0.51649999572 0.85611945517 9.0402594795e-05 0.53983644951 0.84176992082 
-0.17077470777 -0.29111554575 -0.94132233491 0.18554014215 -0.74956074679 -0.63540030101 0.38803266546 -0.88971381726 -0.24049942603 
0.47408666923 -0.87292409172 0.11508848833 0.47334611696 -0.84208850502 0.25851576986 0.45984275179 -0.83824377285 0.29307340532 
0.46291888858 -0.83771455186 0.28972475248 0.43296149282 -0.84519636009 0.31334878111 0.098157079045 -0.85910482828 0.50229879739 
-0.1223275556 -0.80795540676 0.57640613272 -0.17675057254 -0.79005564967 0.58700196382 -0.19312598906 -0.7851647307 0.58840351631 
-0.19795502793 -0.78414288859 0.58816131902 -0.21351030049 -0.78275206149 0.58456185457 -0.2576913787 -0.78435621211 0.56425214742 
-0.34220084897 -0.79437677648 0.50186065392 -0.45739609365 -0.80707944346 0.37337860874 -0.56012128467 -0.80478962861 0.19641232176 
-0.61280105164 -0.78898892882 0.044399789593 -0.62362391542 -0.78153837736 -0.01705804293 -0.62253246904 -0.78255308992 0.0079991524093 
-0.63044833066 -0.7729955266 0.070801258609 -0.64193055401 -0.76151327752 0.089569481401 -0.58310090472 -0.80875623292 0.076854997388 
-0.2863929673 -0.94820709917 0.1374131193 0.4070752235 -0.8588502676 0.31091153123 0.77037991384 -0.50451332419 0.38984752669 
0.84682959313 -0.32732122431 0.41921409364 0.8613624473 -0.2549851638 0.43936010358 0.86288582622 -0.2219458302 0.45405737454 
0.85929106377 -0.1817073921 0.47812267398 0.82508262618 -0.054478193429 0.56237957503 0.64393165469 0.24295451778 0.7254826851 
0.34066610747 0.50285302937 0.79440885825 0.17961429563 0.58585429489 0.79026163387 0.1207819463 0.60566528276 0.78649938761 
0.084779714902 0.61239101746 0.78599595525 0.038503120953 0.61313799976 0.78903694649 -0.02952585061 0.60041871652 0.79914053145 
-0.10825538263 0.56734489239 0.81633359922 -0.18626947227 0.5141327964 0.83724019932 -0.25876306908 0.4430051213 0.8583636389 
-0.32550491354 0.35360966387 0.87693030332 -0.38187323098 0.25225179197 0.88912421456 -0.42039261454 0.15910801039 0.8932830966 
-0.43951113576 0.096097776033 0.89308184338 -0.44812350554 0.055685769203 0.89223562969 -0.45505678882 0.0010111045384 0.89046184456 
-0.45827743127 -0.12489744994 0.87999001301 -0.40863264973 -0.477194076 0.77801360618 0.052722608086 -0.99700360548 -0.056605099182 
0.35277894592 -0.72514449448 -0.59136492746 0.42681657181 -0.56389608069 -0.70699987568 0.4579480555 -0.48820748248 -0.74292464794 
0.4579480555 -0.48820748248 -0.74292464794 
