# vtk DataFile Version 4.2
vtk output
ASCII
DATASET POLYDATA
POINTS 64 float
0 0 0 -0.684475 0.129591 0.779596 -1.44817 0.249956 1.38383 
-2.29729 0.365365 1.9298 -3.18997 0.456967 2.40426 -4.11552 0.496763 2.81736 
-5.06243 0.433567 3.175 -5.99902 0.187222 3.47343 -6.86181 -0.296441 3.69205 
-7.62162 -0.957776 3.80811 -8.32721 -1.68646 3.81294 -9.02754 -2.41147 3.70034 
-9.72979 -3.10293 3.46089 -10.403 -3.75859 3.07988 -10.9801 -4.39052 2.53678 
-11.3537 -5.01017 1.82832 -11.4328 -5.6179 1.02231 -11.2385 -6.22005 0.230657 
-10.8594 -6.84494 -0.472014 -10.3766 -7.53428 -1.03737 -9.8727 -8.33982 -1.38558 
-9.53773 -9.27598 -1.25828 -9.69941 -9.85456 -0.46176 -10.0852 -9.90232 0.473411 
-10.4716 -9.6904 1.3864 -10.8059 -9.33153 2.27415 -11.0714 -8.88392 3.14489 
-11.2665 -8.39084 4.00979 -11.3987 -7.89782 4.88653 -11.4772 -7.47686 5.80517 
-11.4871 -7.3178 6.80467 -11.3522 -7.82089 7.65623 -11.1173 -8.70241 8.09963 
-10.8548 -9.64342 8.37213 -10.5865 -10.5965 8.59331 -10.326 -11.5511 8.81783 
-10.0815 -12.5007 9.07803 -9.84578 -13.4369 9.38991 -9.58601 -14.3484 9.75184 
-9.2504 -15.219 10.1494 -8.78662 -16.021 10.5617 -8.1627 -16.7107 10.9648 
-7.38729 -17.243 11.3426 -6.5058 -17.5933 11.7002 -5.5733 -17.7599 12.0618 
-4.63958 -17.7556 12.4572 -3.74372 -17.6096 12.9095 -2.90553 -17.3658 13.4262 
-2.12149 -17.0732 13.9996 -1.36848 -16.7748 14.6106 -0.616388 -16.5037 15.2353 
0.15906 -16.2857 15.852 0.968596 -16.1441 16.4467 1.80616 -16.1039 17.0174 
2.64558 -16.1979 17.5786 3.42909 -16.4711 18.1606 4.04766 -16.9619 18.794 
4.38436 -17.6323 19.4736 4.44672 -18.3693 20.1666 4.33358 -19.0976 20.8633 
4.14299 -19.7967 21.574 3.97405 -20.4732 22.3125 3.95251 -21.1172 23.059 
4.35422 -21.7334 23.7941 
LINES 1 65
64 0 1 2 3 4 5 6 7 8 9 10 11 12 13 14 15 16 17 18 19 20 21 22 23 24 25 26 27 28 29 30 31 32 33 34 35 36 37 38 39 40 41 42 43 44 45 46 47 48 49 50 51 52 53 54 55 56 57 58 59 60 61 62 63 

CELL_DATA 1
FIELD FieldData 2
Length 1 1 double
63.834089897 
Tortuosity 1 1 double
0.96300262317 
POINT_DATA 64
SCALARS MaximumInscribedSphereRadius float
LOOKUP_TABLE default
1.2772 1.29473 1.43818 1.458 1.30099 1.43828 1.27702 1.02195 1.35581 
1.76276 1.97957 1.92507 1.57437 1.1165 1.1258 1.56772 1.82069 2.22312 
2.46857 2.48 2.4605 1.98025 1.8949 2.09158 2.02279 2.00393 2.3503 
2.48 2.33693 1.99295 2.14707 2.17 2.22815 2.40589 2.31784 1.99498 
1.45454 1.58227 1.86637 1.91218 2.13893 2.24852 2.18785 2.02619 2.0923 
2.05954 1.88426 1.88291 2.19322 2.35213 1.98989 2.05163 2.31671 2.53205 
2.18171 1.93543 2.06518 2.44089 2.47744 2.26787 2.03223 2.15692 2.69936 
1.86 
TEXTURE_COORDINATES TCoords 2 float
0 0 0.015873 0 0.031746 0 0.047619 0 0.0634921 
0 0.0793651 0 0.0952381 0 0.111111 0 0.126984 0 
0.142857 0 0.15873 0 0.174603 0 0.190476 0 0.206349 
0 0.222222 0 0.238095 0 0.253968 0 0.269841 0 
0.285714 0 0.301587 0 0.31746 0 0.333333 0 0.349206 
0 0.365079 0 0.380952 0 0.396825 0 0.412698 0 
0.428571 0 0.444444 0 0.460317 0 0.47619 0 0.492063 
0 0.507937 0 0.52381 0 0.539683 0 0.555556 0 
0.571429 0 0.587302 0 0.603175 0 0.619048 0 0.634921 
0 0.650794 0 0.666667 0 0.68254 0 0.698413 0 
0.714286 0 0.730159 0 0.746032 0 0.761905 0 0.777778 
0 0.793651 0 0.809524 0 0.825397 0 0.84127 0 
0.857143 0 0.873016 0 0.888889 0 0.904762 0 0.920635 
0 0.936508 0 0.952381 0 0.968254 0 0.984127 0 
1 0 
FIELD FieldData 7
Curvature 1 64 double
0 0.17837194901 0.097993182104 0.08455140406 0.084426033542 0.11598927057 0.18926432646 0.25857042666 0.22638115089 
0.13764154923 0.11469588035 0.12810159694 0.14554368331 0.18642732819 0.26011418968 0.31007505396 0.27182140278 0.20294187331 
0.18023355607 0.24455776186 0.55063030554 1.141431176 0.64209801442 0.25811272333 0.15454697879 0.11073045769 0.081771675118 
0.062250286748 0.096658635186 0.28089861133 0.77927089042 0.60608567537 0.17939467125 0.051579807655 0.0083729914583 0.038310395941 
0.052605765553 0.059097036741 0.090808018824 0.14281580525 0.19229299113 0.21660177686 0.20823602219 0.18718362757 0.17070648972 
0.15391447411 0.12741244687 0.089930590755 0.047726406283 0.029694200127 0.056939206612 0.084210814023 0.10516666685 0.13138247357 
0.18536150931 0.27599803926 0.33868159983 0.28093428227 0.17226739844 0.081687343536 0.040618926152 0.14880499562 0.42877587418 
0 
Torsion 1 64 double
0 0 0.13736839741 0.27000436302 0.43823693635 0.33984537294 0.12400579723 -0.016917601534 -0.18071042317 
-0.57722845614 -0.46486673153 0.00089860215917 0.25725898591 0.30537973441 0.23243487995 0.19895497549 0.25786716505 0.42454935262 
0.55748790174 0.42809680839 0.087075836972 -0.027632138109 -0.13134028443 -0.34759318645 -0.32394353962 -0.31116506602 -0.4354682718 
-0.97947203315 -0.71862164702 -0.089771371484 0.013214454239 0.037762334495 0.093058734472 -0.095811398935 -4.3492275353 -0.26053082956 
-0.41042920415 -0.68340822053 -0.38877627774 -0.140310203 -0.024226528754 0.057150335221 0.1436968314 0.22380285489 0.25408960275 
0.24341137015 0.2386842954 0.29650638254 0.68981009991 1.4023196131 0.24461322817 -0.037428029909 -0.20915675898 -0.32752283568 
-0.30102624191 -0.19853870913 -0.13975629437 -0.14514463264 -0.21402817678 -0.56547488773 -2.2666411962 -0.32645590877 0 
0 
Abscissas 1 64 double
0 1.0455000364 2.026732392 3.0428051723 4.0578824822 5.0722230812 6.0863868964 7.0997756058 8.1127551228 
9.1267296044 10.141061108 11.155346337 12.169548271 13.183609216 14.197153974 15.209808498 16.222350862 17.235778456 
18.249660579 19.263485667 20.27546874 21.277866143 22.275538227 23.288279926 24.302092295 25.316307446 26.330717593 
27.345228521 28.359732149 29.373280861 30.385403653 31.383625326 32.397946883 33.412181527 34.426744147 35.441342625 
36.455893407 37.470429972 38.484934894 39.499246169 40.513213099 41.526844288 42.540414145 43.554158962 44.568074229 
45.582082103 46.596234101 47.610571829 48.625070682 49.639658007 50.654227933 51.668716224 52.683121894 53.697432494 
54.711542293 55.725097826 56.737386928 57.749549286 58.763138113 59.777350032 60.792377732 61.807999531 62.794163085 
63.834123665 
ParallelTransportNormals 3 64 double
0 -0.98646387481 0.1639787294 -0.014467087197 -0.98397407758 0.17772371267 -0.017845657109 -0.98347953369 0.18013755669 
-0.0082728950305 -0.98461716713 0.17452963472 0.027627811423 -0.98721120479 0.15700554502 0.11199950162 -0.98615642573 0.12227679926 
0.27344330412 -0.95961814402 0.06604375142 0.48973682168 -0.87186161827 0.0038941077866 0.65363728996 -0.75621643285 -0.029916548308 
0.71783587813 -0.69532125179 -0.035213759813 0.7215127083 -0.69151946744 -0.034931903951 0.70770833192 -0.70546055264 -0.038396947755 
0.7081863889 -0.70499235934 -0.03818130241 0.74353448965 -0.66858894637 -0.012053360336 0.81187544446 -0.57860570792 0.077933929938 
0.86265251783 -0.44092876936 0.24781536238 0.84912556042 -0.29871953623 0.43560580956 0.79205193323 -0.17657646299 0.58435818449 
0.71862678731 -0.064609929014 0.69238796757 0.63405951361 0.063522583011 0.77067075632 0.5223861273 0.29567770226 0.79980462014 
0.48096112151 0.66004177648 0.57707993631 0.57566854674 0.76941983377 0.27676496111 0.64953419314 0.75372982338 0.099983425013 
0.69963538831 0.71405596351 -0.025187385818 0.73237091213 0.67003834458 -0.12116709065 0.75090798916 0.63217574882 -0.19102621396 
0.75805396474 0.61064816764 -0.22904803406 0.7567317075 0.61638299786 -0.21778228305 0.75114749788 0.65304179456 -0.096508294879 
0.77320187498 0.59202379242 0.22730307902 0.82019458769 0.41605975414 0.39265139668 0.83706265909 0.35425508145 0.41692858144 
0.84243200827 0.33509737309 0.42192186716 0.84389061223 0.32983596696 0.42315111898 0.84311487824 0.33276130386 0.42240645916 
0.83868413039 0.35016167515 0.41712795482 0.82671424771 0.39479326325 0.40085138384 0.79972363275 0.47558271562 0.36641942063 
0.74480487974 0.59049023209 0.31078445412 0.64717938717 0.72436411073 0.2376036109 0.50521252524 0.8483376433 0.15837786239 
0.3383138712 0.93724992834 0.084298851642 0.16932962712 0.98540760609 0.017301076485 0.014666488924 0.9988597886 -0.045431451949 
-0.10927713665 0.98867499167 -0.10286043094 -0.19071540264 0.97036831653 -0.14836766989 -0.22967673074 0.95748694761 -0.17454897451 
-0.23427746971 0.9557177955 -0.17809425189 -0.21354610364 0.96356271938 -0.16107435374 -0.17273443639 0.97662817616 -0.12790707572 
-0.11286060687 0.99020937419 -0.08214547272 -0.031320138285 0.99921021106 -0.024454100846 0.07832942901 0.99569508226 0.049556066458 
0.22315980702 0.96292417516 0.15158078186 0.38940670069 0.87230638184 0.29570931276 0.51055633221 0.72503930914 0.46222314074 
0.54668877111 0.59768027224 0.58643812949 0.54448832086 0.5341061968 0.64673258693 0.54190164522 0.52194853806 0.65872022174 
0.54919316568 0.54984603573 0.62932996414 0.5591572606 0.61969502073 0.55074607506 0.51381833151 0.77466343175 0.36862893229 
0.51381833151 0.77466343175 0.36862893229 
FrenetTangent 3 64 double
-0.71742064093 0.12382772608 0.68554672942 -0.71742064093 0.12382772608 0.68554672942 -0.80845844756 0.11818681541 0.57656466699 
-0.85833183205 0.10201178274 0.50285192877 -0.89675889554 0.064806060899 0.43774839548 -0.92466379387 -0.011555462915 0.38060916907 
-0.93317895962 -0.15336189064 0.32504947288 -0.89544441021 -0.36328149247 0.25730500473 -0.80569356656 -0.56854276403 0.1661836402 
-0.7242251087 -0.68697047374 0.059745795972 -0.69421153635 -0.71780120732 -0.05321437367 -0.69289116064 -0.699753356 -0.17391687751 
-0.67998867651 -0.6659783612 -0.30673803518 -0.61936448808 -0.63783187646 -0.45777519404 -0.47318500747 -0.62293995196 -0.62292998399 
-0.22620844284 -0.61330527047 -0.75676045457 0.057388023306 -0.60271344378 -0.79589139929 0.2843141922 -0.60841413749 -0.7409437748 
0.4268103172 -0.65080324224 -0.6279236363 0.49072886312 -0.7434687176 -0.45435608157 0.4311248177 -0.89512096737 -0.11353345471 
0.097207767677 -0.84970332214 0.51822284227 -0.28497146682 -0.32602512161 0.90138719936 -0.3842298228 0.081683460544 0.91961690695 
-0.35645571938 0.28231116754 0.89064006467 -0.29613139914 0.39817293727 0.86819612212 -0.22721154212 0.46403655878 0.85618046418 
-0.16138971696 0.48623990171 0.85879224335 -0.10401700508 0.45120943486 0.88633543794 -0.044070683777 0.28916186074 0.95626523158 
0.066246105179 -0.18232512933 0.98100407785 0.19145397803 -0.71684508294 0.67043157843 0.24620301985 -0.90211712995 0.3543568214 
0.26172723907 -0.93393979355 0.24342414497 0.26059954393 -0.94012937347 0.21964662266 0.24891795238 -0.93859278813 0.23892139095 
0.23675607673 -0.92972979662 0.28204443873 0.2443024555 -0.9110125503 0.33222348417 0.29378038631 -0.87934639508 0.37475725753 
0.39515267707 -0.82679595521 0.40032837804 0.53894529376 -0.73912324616 0.40402326334 0.69437208578 -0.60637783025 0.38749623672 
0.82178812766 -0.4377517515 0.36474330329 0.89861041441 -0.2560603381 0.35627577293 0.92367127099 -0.08032919429 0.37467132756 
0.90482966717 0.074331306725 0.41923517296 0.85661258124 0.19255896182 0.47868145136 0.80041362022 0.26466143818 0.5378590519 
0.75774599335 0.29135618502 0.58389432522 0.74181525073 0.28068779964 0.60903570742 0.75314371252 0.24114734983 0.61206413386 
0.78191253412 0.17739977121 0.5976136797 0.8130335722 0.089738716549 0.57525939647 0.82857032892 -0.026581985726 0.55925361695 
0.80389944738 -0.18188770875 0.56627073022 0.6987098789 -0.38073032432 0.6056805472 0.47853941532 -0.58169928044 0.65774309204 
0.19893294748 -0.70159394942 0.68424528683 -0.025136821125 -0.72534763642 0.68792364878 -0.1498099621 -0.7040415325 0.69417756789 
-0.1770908742 -0.67756802492 0.71382098168 -0.095416283947 -0.6614727725 0.74387465611 0.19182470296 -0.63586729704 0.74758013878 
0.19182470296 -0.63586729704 0.74758013878 
FrenetNormal 3 64 double
-0.69146174538 -0.0068078213427 -0.72238099937 -0.69146174538 -0.0068078213427 -0.72238099937 -0.58710011485 -0.093147778863 -0.80413739276 
-0.51027453703 -0.27232970386 -0.81575512824 -0.38648282199 -0.59650594157 -0.70342852514 -0.18093646677 -0.86615674636 -0.46586960164 
0.049721262221 -0.95078198614 -0.30584540361 0.28133517126 -0.90973121851 -0.30535165217 0.45214153398 -0.77154963751 -0.44752563067 
0.38667918832 -0.47632720756 -0.78967816018 0.044492743655 0.030995637664 -0.99852875082 -0.015078258014 0.25521110211 -0.96676777951 
0.19429536897 0.23972348295 -0.95120027403 0.50452436012 0.1233877005 -0.85453533889 0.77355262847 0.044562866276 -0.63216333486 
0.94850005266 0.03818284812 -0.31446735952 0.99823344345 0.022358632953 0.055046197875 0.89489342455 -0.10888152037 0.43279391542 
0.56440808249 -0.35082019789 0.74724072773 0.089170511481 -0.47587114464 0.87498301331 -0.31595603056 -0.26762840784 0.91024547352 
-0.54710381688 0.38934059069 0.74100696218 -0.37069892475 0.9046941713 0.21002562607 -0.00079505776884 0.99604875099 -0.088804580624 
0.33084670978 0.92963057657 -0.16225734417 0.60631145402 0.78071204183 -0.15124525935 0.83826696887 0.54067286397 -0.070578630372 
0.9827085815 -0.00084805623637 0.18515702701 0.54058371246 -0.72238841783 0.43118931295 0.24256572352 -0.92545491409 0.29102417729 
0.21018167596 -0.95855445899 -0.19234607417 0.17122527835 -0.6481992367 -0.74197011638 0.15090913691 -0.32547168413 -0.93343163393 
0.1078910156 -0.2223230415 -0.96898503289 -0.90889432554 -0.16217915763 0.38419920072 -0.40492221969 0.12324002858 0.90600766628 
-0.16245108518 0.24832908191 0.95495670687 0.39573337896 0.40644250495 0.82352873839 0.81442117072 0.43551380203 0.38346562417 
0.87762325989 0.46851527808 0.10134519183 0.81898312002 0.57196030737 -0.046130856391 0.68902740369 0.71556207616 -0.11494412613 
0.50073378085 0.86029638535 -0.09568599726 0.26643882988 0.96363261979 0.020555388974 0.0066707654122 0.98100243302 0.19388070378 
-0.24140412592 0.90064566231 0.36133286448 -0.44351243352 0.74887360898 0.49242769934 -0.58695843679 0.52823031968 0.61355726941 
-0.63407951734 0.11736680481 0.76430896817 -0.030022209025 -0.89337833906 0.4483010264 0.4002770809 -0.90632774801 -0.13545579239 
0.39449084145 -0.88309622578 -0.25400400003 0.26062520581 -0.93962314309 -0.22177207007 0.015082555478 -0.99745007411 -0.069755760899 
-0.29359176898 -0.94936409165 0.1118556868 -0.59046348865 -0.78492101322 0.1877548177 -0.83537407535 -0.53234093317 0.13697914112 
-0.97161991431 -0.23237922832 0.044211269556 -0.9984658126 0.052178170813 0.01853266182 -0.92128069544 0.35425048611 0.16046330825 
0.5202188486 0.55124243747 0.65230677192 0.97538417114 0.087113770993 0.20257568855 0.98090183802 0.14918421742 -0.12480245767 
0.98090183802 0.14918421742 -0.12480245767 
FrenetBinormal 3 64 double
-0.084783716862 -0.99228037763 0.090506207155 -0.084783716862 -0.99228037763 0.090506207155 -0.0413327195 -0.98861285039 0.14469360159 
0.053724881932 -0.95678112888 0.28580326885 0.21553308698 -0.7999880225 0.55996843864 0.33505053842 -0.49963883157 0.79881297854 
0.35595621276 -0.26924662547 0.89487509143 0.34500699941 -0.20103648251 0.9168175953 0.38265638639 -0.2854299955 0.87869437669 
0.57094412796 -0.5488022955 0.61060530885 0.71839455632 -0.69555783168 0.01041941587 0.72088451617 -0.66724248526 -0.18738457839 
0.70701110982 -0.70640319516 -0.033612742485 0.60153370724 -0.76022757957 0.24537975938 0.42155934302 -0.78099933879 0.46079035701 
0.22175975848 -0.78892250274 0.57308279872 -0.015382039822 -0.79764440462 0.60293183415 -0.34399302147 -0.78611516448 0.51350924953 
-0.70659498268 -0.67333522754 0.21758493009 -0.86673744744 -0.46989458356 -0.16722821998 -0.84516458652 -0.35655783415 -0.39820011626 
-0.83140126501 -0.35555332763 -0.42702900108 -0.88395337563 -0.27429195485 -0.37866918704 -0.92323713701 -0.034852516844 -0.38264669203 
-0.87377329711 0.23682777666 -0.42477385684 -0.73803293637 0.48160878291 -0.47261016182 -0.4956646084 0.70167152307 -0.51183363478 
0.090759038733 0.87382494745 -0.47769525652 0.8348351409 0.52398952248 -0.16877579167 0.96913345036 0.24478280227 -0.029355325098 
0.97541535596 0.21893125947 -0.025179098257 0.96645086701 0.25684796399 -0.0013583235618 0.95739777805 0.28328936917 0.056005605969 
0.95909247786 0.27987305558 0.042575717001 -0.32557484962 -0.29975770544 -0.89674206733 -0.87981694061 -0.32226615309 -0.34938041959 
-0.95789154139 -0.2719102285 -0.092242195214 -0.88527476131 -0.069718171004 0.45981297678 -0.50041107231 0.19255556521 0.84410373356 
-0.27135175604 0.3112906723 0.91075042785 -0.19698888156 0.35575024072 0.9135847781 -0.20757804185 0.34680951853 0.91467727336 
-0.27190063251 0.26127290983 0.92617844535 -0.34858237628 0.076454413449 0.93415472466 -0.38312776464 -0.17658269155 0.90665962136 
-0.35072399604 -0.42814979599 0.83287479899 -0.26365053948 -0.63412093798 0.72689684897 -0.1217285096 -0.80680050354 0.57814800652 
0.15415633384 -0.94938749022 0.27367721526 0.6699319374 -0.35084113561 -0.6542948088 0.52206590272 0.34701292319 -0.77912080216 
0.48269013353 0.4343620347 -0.76048659278 0.52062550127 0.33023523694 -0.78733333202 0.55968180831 0.066232527456 -0.82605661171 
0.51725192285 -0.25617315021 -0.81659400281 0.40392743616 -0.48881839485 -0.77323942163 0.27046290358 -0.61501144543 -0.74068261744 
0.12798603252 -0.67362142512 -0.72791053784 -0.049337220101 -0.68640239279 -0.72554641057 -0.35888557433 -0.61549339038 -0.70169012458 
-0.83547062895 0.48686070568 0.25486365262 -0.19880002878 0.7448925843 0.63687799963 -0.032169356538 0.75724292656 0.65234061859 
-0.032169356538 0.75724292656 0.65234061859 
