# vtk DataFile Version 4.2
vtk output
ASCII
DATASET POLYDATA
POINTS 64 float
0 0 0 -0.731612 0.526584 0.533464 -1.54079 0.837182 0.978774 
-2.44219 1.04572 1.41307 -3.36779 1.14199 1.81574 -4.30572 1.14329 2.20195 
-5.24248 1.04803 2.57952 -6.16272 0.841155 2.95271 -7.04467 0.496609 3.31609 
-7.86061 -0.00706924 3.64583 -8.59329 -0.66058 3.89961 -9.25315 -1.4191 4.03274 
-9.87303 -2.2215 4.01231 -10.4817 -3.00952 3.82026 -11.0778 -3.74361 3.45411 
-11.6289 -4.41429 2.9297 -12.0889 -5.03679 2.27438 -12.4082 -5.63838 1.52311 
-12.5402 -6.24329 0.720217 -12.4524 -6.86317 -0.0770622 -12.1418 -7.49634 -0.805225 
-11.639 -8.13614 -1.40988 -10.9905 -8.78094 -1.8476 -10.2507 -9.43869 -2.06393 
-9.51518 -10.1242 -1.947 -9.04325 -10.7948 -1.36223 -9.02254 -11.3515 -0.516437 
-9.27196 -11.8478 0.331817 -9.62426 -12.3688 1.12791 -9.98694 -12.9655 1.86371 
-10.2956 -13.6667 2.52822 -10.5025 -14.4726 3.10801 -10.5914 -15.3513 3.60673 
-10.5727 -16.264 4.04901 -10.4635 -17.1825 4.46585 -10.2768 -18.0873 4.88497 
-10.0189 -18.9625 5.32837 -9.68843 -19.7911 5.81146 -9.27729 -20.5518 6.34174 
-8.77421 -21.2196 6.91589 -8.17317 -21.7705 7.51903 -7.48165 -22.1902 8.13079 
-6.72236 -22.4842 8.7357 -5.92252 -22.6743 9.33005 -5.10405 -22.7844 9.91933 
-4.28133 -22.8316 10.5111 -3.46366 -22.8257 11.1117 -2.65741 -22.774 11.7254 
-1.86637 -22.6858 12.3546 -1.09149 -22.5777 13.0006 -0.331999 -22.4728 13.6651 
0.412112 -22.4014 14.351 1.13605 -22.4072 15.0616 1.82128 -22.5538 15.7946 
2.41789 -22.924 16.5251 2.84284 -23.5627 17.1857 3.05621 -24.4001 17.7149 
3.10527 -25.327 18.1236 3.05491 -26.2846 18.4549 2.95248 -27.2511 18.7453 
2.83371 -28.2191 19.0233 2.73648 -29.1924 19.3214 2.69479 -30.1115 19.6432 
2.8366 -31.0372 20.1118 
LINES 1 65
64 0 1 2 3 4 5 6 7 8 9 10 11 12 13 14 15 16 17 18 19 20 21 22 23 24 25 26 27 28 29 30 31 32 33 34 35 36 37 38 39 40 41 42 43 44 45 46 47 48 49 50 51 52 53 54 55 56 57 58 59 60 61 62 63 

CELL_DATA 1
FIELD FieldData 2
Length 1 1 double
63.88563407 
Tortuosity 1 1 double
0.72234228145 
POINT_DATA 64
SCALARS MaximumInscribedSphereRadius float
LOOKUP_TABLE default
1.581 1.35001 1.24 1.24 1.24 1.18607 1.01085 1.14909 1.51846 
1.76206 1.66754 1.31753 0.901166 1.05612 1.48843 1.74936 1.69602 1.52902 
1.4269 1.3888 1.37173 1.29498 1.16249 1.03729 1.36285 1.39795 1.3252 
1.41849 1.52339 1.55 1.51688 1.42334 1.45585 1.49366 1.35379 1.38388 
1.74267 1.99995 2.11578 1.96672 2.10607 2.47282 2.70212 2.48968 2.06095 
1.90351 2.03295 2.37216 2.48 2.44183 2.27143 2.3775 2.7305 2.40375 
2.06381 1.83943 1.62764 1.7893 2.06058 1.86637 1.57665 1.75231 1.85305 
1.86 
TEXTURE_COORDINATES TCoords 2 float
0 0 0.015873 0 0.031746 0 0.047619 0 0.0634921 
0 0.0793651 0 0.0952381 0 0.111111 0 0.126984 0 
0.142857 0 0.15873 0 0.174603 0 0.190476 0 0.206349 
0 0.222222 0 0.238095 0 0.253968 0 0.269841 0 
0.285714 0 0.301587 0 0.31746 0 0.333333 0 0.349206 
0 0.365079 0 0.380952 0 0.396825 0 0.412698 0 
0.428571 0 0.444444 0 0.460317 0 0.47619 0 0.492063 
0 0.507937 0 0.52381 0 0.539683 0 0.555556 0 
0.571429 0 0.587302 0 0.603175 0 0.619048 0 0.634921 
0 0.650794 0 0.666667 0 0.68254 0 0.698413 0 
0.714286 0 0.730159 0 0.746032 0 0.761905 0 0.777778 
0 0.793651 0 0.809524 0 0.825397 0 0.84127 0 
0.857143 0 0.873016 0 0.888889 0 0.904762 0 0.920635 
0 0.936508 0 0.952381 0 0.968254 0 0.984127 0 
1 0 
FIELD FieldData 7
Curvature 1 64 double
0 0.23298775298 0.13055521003 0.11506879334 0.09469432994 0.094434991239 0.11007109982 0.13992744257 0.17197666601 
0.18391078497 0.17218495726 0.16113377107 0.1690392745 0.17911784915 0.17276407833 0.16308437358 0.1680432948 0.19074885909 
0.21698400705 0.23043649001 0.22526510309 0.21823639354 0.23676064967 0.33521103555 0.56703228136 0.56230230872 0.27468588572 
0.1150595146 0.09479244866 0.13432573819 0.16527292032 0.15713268721 0.12310925338 0.091714884345 0.076613022214 0.078675920108 
0.092453599096 0.11262589584 0.13463219601 0.1518212201 0.15614152163 0.1396707916 0.10920567241 0.080091976034 0.06135971276 
0.052561846075 0.047618832834 0.041276895863 0.029780944997 0.023585664108 0.041427611797 0.081298412051 0.1443765199 0.23744273096 
0.32653607277 0.31845538645 0.21918871369 0.12655208768 0.06498860718 0.01999401676 0.02769728098 0.065793046674 0.22166329713 
0 
Torsion 1 64 double
0 0 0.095387545854 0.088918302299 0.13640658786 0.11905051452 0.052302086855 -0.03682459942 -0.12079070405 
-0.21702350636 -0.34318427763 -0.39761713435 -0.23366455668 -0.0093161037103 0.17926122977 0.31866002624 0.33715915367 0.25285930699 
0.17733103644 0.14528314765 0.15683163426 0.21106990095 0.29929707417 0.30319142918 0.18799292866 0.18392663259 0.39150729357 
1.0049421173 0.84005051835 0.29096759212 0.1468937353 0.14020436832 0.21013857028 0.32935126841 0.38454208564 0.26944187406 
0.11054675226 0.002280405471 -0.048594413302 -0.053900741479 -0.0315942975 0.0053057745489 0.06251336931 0.14026468431 0.19469529388 
0.18879021591 0.16619876598 0.21002498769 0.50925577599 1.0682401832 0.45315692135 0.14822116036 0.052419020313 0.013462047438 
-0.0025546751797 -0.011467623615 -0.0211001489 -0.027977527467 -0.030178913532 -0.070418862934 -0.03109422702 -0.021694783643 0 
0 
Abscissas 1 64 double
0 1.0474404116 2.0218827424 3.0439552096 4.0579243135 5.0722621666 6.0867361303 7.1010808633 8.1152780733 
9.1292740359 10.143324782 11.157467694 12.171629441 13.185701195 14.199753069 15.213876456 16.228051515 17.242109045 
18.256000182 19.269719587 20.283416986 21.297212494 22.311049739 23.324332568 24.336582194 25.343693673 26.356473696 
27.370431593 28.384950753 29.399356361 30.413540189 31.427632463 32.441892391 33.45630644 34.470802905 35.485312988 
36.499803058 37.514232943 38.528575054 39.542820603 40.55699533 41.571200596 42.585543317 43.599998338 44.614525811 
45.629079305 46.643641782 47.658211155 48.672792721 49.687389024 50.701982807 51.716539575 52.730939786 53.745003322 
54.758238164 55.770611499 56.783984441 57.798109346 58.812630196 59.827062557 60.841157992 61.863673026 62.83842398 
63.885619483 
ParallelTransportNormals 3 64 double
0.58916984827 0 0.80800921398 0.49618658005 0.049960716153 0.86677725202 0.44537374777 0.06547393568 0.89294758443 
0.40419036791 0.072334261833 0.91181023303 0.37980818626 0.073611120928 0.92213184769 0.36645120211 0.072941744993 0.92757372661 
0.36087943104 0.072035184181 0.92982631093 0.35629364768 0.070632025659 0.93170057077 0.34042012734 0.062701859346 0.93818048036 
0.30069787836 0.033020129766 0.95314765749 0.23482411301 -0.033775478217 0.97145090098 0.14820565094 -0.13942524315 0.97907899916 
0.046898865509 -0.27057210468 0.96155667154 -0.060239453738 -0.40592936769 0.91191696807 -0.15733445129 -0.52482887694 0.83654080616 
-0.231125832 -0.61921253839 0.75043766035 -0.275952059 -0.68961936426 0.6695338629 -0.29455843262 -0.73935509102 0.6054662494 
-0.29565125667 -0.76968352607 0.56584238453 -0.29240829868 -0.77988226562 0.55342663346 -0.29934580822 -0.76902485953 0.5647945224 
-0.33025758078 -0.73453304906 0.59278253195 -0.4060501795 -0.66342133761 0.62848657943 -0.57592423175 -0.5087476164 0.63991182369 
-0.85915200439 -0.19048735012 0.4749446313 -0.98631842937 0.12557177829 0.10680676188 -0.95523571407 0.26879587528 -0.12358603476 
-0.92644989414 0.31746401258 -0.20225527033 -0.92723502158 0.31623669853 -0.20057309206 -0.94981601547 0.27257431566 -0.15346914736 
-0.97809517933 0.18991314166 -0.085222173136 -0.99581780992 0.089004819101 -0.020616295111 -0.99954729009 -0.0062647343761 0.029427333692 
-0.9938772031 -0.087458948186 0.067520645361 -0.98263329637 -0.15675659093 0.099293383813 -0.96701112051 -0.21930221727 0.12959949963 
-0.94544911902 -0.28173905612 0.16355142187 -0.91375180566 -0.34966423201 0.20686363262 -0.8658017051 -0.42458677088 0.26478950403 
-0.79736357841 -0.50012762134 0.33776276615 -0.71211434612 -0.56414598466 0.41789049529 -0.62562859079 -0.60669416547 0.4904192655 
-0.55449961513 -0.62877858532 0.54513087187 -0.50459586118 -0.63803550184 0.58163022211 -0.4719968348 -0.64115919588 0.60508997139 
-0.45104450383 -0.64168647008 0.6203203444 -0.43829451804 -0.64123433744 0.62985430057 -0.43291032557 -0.64076289484 0.63404381758 
-0.43660559819 -0.64122596345 0.63103471808 -0.45182173554 -0.64333895126 0.61803892522 -0.48238538337 -0.64692336587 0.59058826656 
-0.53539439216 -0.6492899907 0.54016233932 -0.62096017281 -0.64003555046 0.45250741201 -0.74565664052 -0.58975795801 0.31013178717 
-0.88102108637 -0.45604607027 0.12579279456 -0.96409275009 -0.26397435614 -0.029029442421 -0.98806193795 -0.10287325959 -0.11467649821 
-0.98799352393 -0.0014917420678 -0.15448809459 -0.98369937738 0.052584815717 -0.17196037945 -0.98175097542 0.069624523604 -0.17696736413 
-0.98435047498 0.046272095642 -0.1700383356 -0.98833026108 -0.0084262231634 -0.15209304321 -0.97921070229 -0.18825045284 -0.075552415703 
-0.97921070229 -0.18825045284 -0.075552415703 
FrenetTangent 3 64 double
-0.7672455769 0.41687977678 0.48738637286 -0.7672455769 0.41687977678 0.48738637286 -0.8585917034 0.26057031368 0.44150130066 
-0.89886114872 0.14996170261 0.41177678792 -0.91981648187 0.048159436499 0.38938195689 -0.92509335459 -0.04636591279 0.37689851078 
-0.9167297315 -0.14915246698 0.37062129051 -0.89063695477 -0.27251058551 0.36401070805 -0.84029968053 -0.41979317474 0.34303081108 
-0.76688743502 -0.5730479793 0.28896310391 -0.68918217952 -0.6988283884 0.19148578799 -0.63302993957 -0.77211741009 0.055747651541 
-0.60793099155 -0.78699739196 -0.10514282939 -0.59645905134 -0.75356807642 -0.27635439977 -0.56777154508 -0.69524811009 -0.44075564434 
-0.50017685415 -0.63971794758 -0.58359580372 -0.38561284938 -0.60570313532 -0.69600750158 -0.22357133975 -0.59769213862 -0.76992205026 
-0.021929001128 -0.60765741424 -0.79389645788 0.19782436953 -0.62219780579 -0.75745323901 0.40375959565 -0.63188292456 -0.66159062763 
0.5712232096 -0.63736108394 -0.51717974969 0.68969892563 -0.64709903547 -0.32492803862 0.73851029468 -0.67240371611 -0.049757283033 
0.62027842024 -0.69664631482 0.36046996191 0.25286955974 -0.62996715879 0.73430127645 -0.11391574495 -0.52447745685 0.84376928144 
-0.29713765896 -0.50235723039 0.81200149304 -0.35279622919 -0.55151213073 0.75588966809 -0.33170857741 -0.64129150083 0.69189206574 
-0.25507001691 -0.74562931275 0.61561044049 -0.14628957305 -0.83312786519 0.53338290285 -0.034671311887 -0.88476091568 0.46475372211 
0.063105822888 -0.90351297142 0.42388909586 0.14594207961 -0.89927899577 0.41230837629 0.21930489803 -0.87800800346 0.42544953585 
0.29031004961 -0.84067856843 0.4571428876 0.3661308197 -0.78463357221 0.50029829126 0.4517115138 -0.70581534966 0.54569350415 
0.54593071362 -0.60258471051 0.58210937339 0.63922696865 -0.4800038137 0.60082045686 0.71698493639 -0.35270758551 0.60127361502 
0.76967430267 -0.2389782719 0.59202267978 0.79825072161 -0.14807793359 0.58383962784 0.80923167274 -0.077561346417 0.58234726528 
0.80871863124 -0.020360969432 0.58784318182 0.80053791269 0.028394868669 0.59860903918 0.78733856158 0.068959816601 0.61265204901 
0.7717755911 0.096748206483 0.62849202185 0.75619884942 0.10497546253 0.64586643542 0.74117815432 0.086904474969 0.66565948937 
0.72416314917 0.032359068731 0.68886909065 0.69653667914 -0.075330170346 0.71355589833 0.63679178814 -0.25673557339 0.72703718194 
0.51099576894 -0.50466296213 0.69584381781 0.31908235971 -0.73787095499 0.59475448843 0.13022128471 -0.87546917274 0.4653989091 
-0.00064215498514 -0.93080794926 0.36550806999 -0.075347150623 -0.94885580673 0.30658679835 -0.10905282343 -0.95372005797 0.28022407593 
-0.10606618365 -0.95326919625 0.28289185948 -0.069592841295 -0.9480085414 0.31054249609 0.049823645639 -0.91804481328 0.39333360541 
0.049823645639 -0.91804481328 0.39333360541 
FrenetNormal 3 64 double
-0.5709899363 -0.79006664861 -0.22308111393 -0.5709899363 -0.79006664861 -0.22308111393 -0.39578708679 -0.8842789523 -0.24779692583 
-0.26493601811 -0.93442702544 -0.23802319304 -0.1234971302 -0.97753067905 -0.17082807249 0.013386944145 -0.99588290751 -0.089655029154 
0.14532852612 -0.98863808978 -0.038397225641 0.26635418516 -0.96146728167 -0.068089017637 0.37507097182 -0.90705400385 -0.19124539261 
0.44432843168 -0.79897092574 -0.40523783711 0.4147233047 -0.59713642003 -0.68660955165 0.24288364945 -0.26647568674 -0.93273696249 
0.064644492963 0.082923571381 -0.99445702312 0.068725369104 0.29509235918 -0.95299387364 0.25558687264 0.36007808369 -0.89722857967 
0.54682668281 0.28922570472 -0.78570291503 0.81970724483 0.12137604638 -0.55977485486 0.96374595165 -0.017530871368 -0.26624501729 
0.99734730859 -0.068425610621 0.024825024936 0.95355978306 -0.056899365758 0.29578066589 0.84078007278 -0.028787132875 0.54061092311 
0.65719234911 -0.022335083611 0.75339190353 0.38238043648 -0.0555775139 0.92233201275 -0.010418716765 -0.085169233386 0.99631202543 
-0.48464918272 0.020955052849 0.87445757784 -0.84845589167 0.22034515235 0.48121784436 -0.97539144073 0.22041599459 0.0053222815819 
-0.87058610319 -0.20673514696 -0.4464755491 -0.10724494174 -0.77867639964 -0.6181921927 0.39217525436 -0.76077812103 -0.51712205564 
0.60276684424 -0.62043710788 -0.50172694431 0.73482164673 -0.45249989165 -0.50525339736 0.85284439196 -0.26862725976 -0.44776761653 
0.96074778977 -0.059973835452 -0.27086310844 0.98444726093 0.17321380283 0.02933545577 0.88087783339 0.36566651879 0.30056985823 
0.76428035812 0.49116649008 0.41788875698 0.69873410466 0.58688130563 0.40907332362 0.66719517467 0.67331198437 0.31859311135 
0.63129301145 0.75264643442 0.1870627661 0.56673537965 0.82213789595 0.053854335879 0.47333271969 0.8795487244 -0.048478633133 
0.36106679359 0.92769483964 -0.094937111137 0.2257555306 0.97220363546 -0.062084874188 0.06721708765 0.99696101584 0.039377608181 
-0.093788900929 0.98215027042 0.16304750345 -0.23312057793 0.93495821564 0.26740966915 -0.35882764969 0.85932777889 0.3644152662 
-0.52754280908 0.64926176054 0.54786654479 -0.63315759589 -0.13173427673 0.76273031872 -0.35968700954 -0.78583026292 0.5030865264 
-0.24071976249 -0.92420850062 0.29646693462 -0.26026390072 -0.95327078859 0.15341937818 -0.36620139899 -0.93050260027 -0.0078387668212 
-0.52480399259 -0.82429078487 -0.21242756726 -0.66502556461 -0.62143799981 -0.41419296324 -0.73883115733 -0.3987080187 -0.54328669851 
-0.76663962967 -0.23422629508 -0.5978308464 -0.77958089341 -0.1356562909 -0.61143356251 -0.79594648775 -0.085092038885 -0.5993567665 
0.78133064111 0.096070137347 0.6166789748 0.7970027059 0.13437976382 0.58883679052 0.80482712884 0.27010670428 0.52848430534 
0.80482712884 0.27010670428 0.52848430534 
FrenetBinormal 3 64 double
0.2920697132 -0.44945071195 0.84420929879 0.2920697132 -0.44945071195 0.84420929879 0.32584178489 -0.38749689825 0.86236493729 
0.34908099579 -0.32304430326 0.87965040585 0.37240582502 -0.20521803088 0.90509638232 0.37950372201 -0.077893752364 0.92190535757 
0.37213736561 0.018661967546 0.92799003878 0.36853936403 0.036313180209 0.92890262681 0.39143098115 -0.032042542636 0.91964942367 
0.46309384233 -0.1823772827 0.86734227382 0.59416538436 -0.39378544849 0.70135619808 0.7350378415 -0.57691022994 0.35622178224 
0.79135390253 -0.61135814901 0.0004632383934 0.799695832 -0.58741437993 -0.12422126442 0.78250292212 -0.6220722137 -0.026745799761 
0.67141916381 -0.71211616979 0.20515084008 0.42353602345 -0.7863787683 0.44969508515 0.14563514936 -0.80153401424 0.57994277932 
-0.069407960361 -0.79124610756 0.60754599193 -0.2271326902 -0.78078957002 0.58204672355 -0.36064810845 -0.77452906378 0.51965149017 
-0.49173393322 -0.77024151584 0.40611050984 -0.61489884842 -0.7603775235 0.20910626 -0.67416169795 -0.73526828046 -0.069903939516 
-0.61674131617 -0.71710863739 -0.32463110004 -0.4649511648 -0.74470758871 -0.47878076577 -0.18877166209 -0.8223990434 -0.53667967449 
0.39215946828 -0.83958191506 -0.37591642602 0.92953393867 -0.29916121792 0.21556721122 0.8580023249 0.099809125449 0.50385528571 
0.75604987796 0.24309406232 0.60769553142 0.66229639007 0.31802799923 0.6783964058 0.52101280525 0.38083791485 0.76387704467 
0.27015058684 0.42434355131 0.86426339208 -0.097798261 0.40161457428 0.9105719268 -0.41947539182 0.30885262324 0.85361024641 
-0.57584338954 0.22806802408 0.78510468545 -0.61458837758 0.19980112731 0.76312557005 -0.59228988443 0.2201718962 0.77505937122 
-0.55084370708 0.26535826993 0.79130032159 -0.51980755286 0.30608106585 0.79756785863 -0.51175065946 0.31936092517 0.79757122692 
-0.52652847822 0.28683038553 0.80030999716 -0.55841760883 0.18136432059 0.80949166603 -0.58363170147 0.0072780794357 0.81198587832 
-0.58067014522 -0.18699271976 0.79237358942 -0.5520813767 -0.35361966354 0.75508892659 -0.50133891458 -0.50675468633 0.70132658627 
-0.35505073099 -0.75438647313 0.55212319964 0.16515071573 -0.98571102895 -0.033151297009 0.56681584199 -0.6123058142 -0.55118181316 
0.64625206331 -0.38051483289 -0.66148827096 0.66865488601 -0.29257506568 -0.68359379339 0.67852247858 -0.2612503708 -0.68655334084 
0.68078197206 -0.25663202574 -0.68605824088 0.67522399701 -0.26336527139 -0.68899295184 0.66118903346 -0.27310372278 -0.69874417252 
0.6420773052 -0.28059687147 -0.71344385193 0.62175271412 -0.2850789869 -0.72948854255 0.59546340806 -0.28840491665 -0.74983060335 
-0.61503853045 0.28644086332 0.73462863943 -0.59995293418 0.28848203499 0.74621350313 -0.59141431926 0.29023454156 0.75232507193 
-0.59141431926 0.29023454156 0.75232507193 
