# vtk DataFile Version 4.2
vtk output
ASCII
DATASET POLYDATA
POINTS 64 float
0 0 0 -0.70083 0.295228 0.721525 -1.42099 0.611307 1.29851 
-2.22735 0.939416 1.82938 -3.08498 1.23843 2.28188 -3.99348 1.48186 2.66132 
-4.94661 1.63877 2.97073 -5.93023 1.66938 3.21578 -6.91516 1.52364 3.40666 
-7.84892 1.15984 3.55788 -8.67893 0.590585 3.67907 -9.40623 -0.111413 3.76334 
-10.0824 -0.867271 3.79042 -10.7707 -1.60967 3.72735 -11.5137 -2.2705 3.52967 
-12.299 -2.79581 3.16273 -13.0682 -3.17872 2.6248 -13.7554 -3.46092 1.93473 
-14.2886 -3.71228 1.11012 -14.5655 -4.00938 0.18254 -14.4822 -4.40593 -0.744097 
-14.0607 -4.89218 -1.52557 -13.4295 -5.42877 -2.10949 -12.689 -5.99819 -2.5036 
-11.8993 -6.60476 -2.69264 -11.1393 -7.26436 -2.58166 -10.6236 -7.93417 -2.03353 
-10.491 -8.50792 -1.20993 -10.5883 -9.01743 -0.338484 -10.7822 -9.53553 0.511972 
-10.9972 -10.1143 1.31686 -11.1761 -10.7899 2.05179 -11.2744 -11.5701 2.69212 
-11.275 -12.4282 3.23274 -11.1828 -13.3273 3.69316 -11.0034 -14.2372 4.10425 
-10.7299 -15.1328 4.49432 -10.3448 -15.9861 4.88451 -9.82986 -16.7612 5.28743 
-9.18172 -17.4187 5.70667 -8.42298 -17.933 6.14039 -7.595 -18.3102 6.58862 
-6.73736 -18.5826 7.05701 -5.87683 -18.7866 7.55416 -5.02779 -18.9463 8.08608 
-4.19634 -19.0675 8.65468 -3.38272 -19.1406 9.25629 -2.58378 -19.1516 9.88144 
-1.79582 -19.1039 10.5188 -1.01566 -19.0337 11.1636 -0.244826 -19.0044 11.8225 
0.501785 -19.0885 12.5037 1.18887 -19.3465 13.2031 1.77053 -19.7991 13.8989 
2.21296 -20.4246 14.5628 2.50594 -21.1788 15.1738 2.66197 -22.0154 15.7254 
2.71051 -22.898 16.2232 2.69248 -23.8051 16.6773 2.65577 -24.7296 17.0932 
2.64961 -25.6733 17.4663 2.72143 -26.6396 17.7828 2.88788 -27.5714 18.0191 
3.20564 -28.558 18.175 
LINES 1 65
64 0 1 2 3 4 5 6 7 8 9 10 11 12 13 14 15 16 17 18 19 20 21 22 23 24 25 26 27 28 29 30 31 32 33 34 35 36 37 38 39 40 41 42 43 44 45 46 47 48 49 50 51 52 53 54 55 56 57 58 59 60 61 62 63 

CELL_DATA 1
FIELD FieldData 2
Length 1 1 double
63.878132639 
Tortuosity 1 1 double
0.87863362829 
POINT_DATA 64
SCALARS MaximumInscribedSphereRadius float
LOOKUP_TABLE default
0.93 0.968479 1.07944 1.23962 1.24 1.14294 0.968437 1.124 1.12409 
0.958389 1.18047 1.32712 1.24096 1.03944 1.21421 1.4331 1.55876 1.59258 
1.73295 1.68203 1.62914 1.75703 1.484 1.31473 1.49479 1.55 1.73402 
1.8848 1.78168 1.45224 1.69699 2.06846 1.90215 1.68643 1.63851 1.81026 
1.86 1.93863 2.12037 2.17 2.08389 1.97544 2.22766 2.16726 1.67828 
1.56958 1.8935 2.39067 2.27577 2.30094 2.45968 2.48 2.56817 2.4723 
2.01216 2.2799 2.56957 2.7745 2.83241 2.74226 2.4903 2.48284 2.16155 
1.55 
TEXTURE_COORDINATES TCoords 2 float
0 0 0.015873 0 0.031746 0 0.047619 0 0.0634921 
0 0.0793651 0 0.0952381 0 0.111111 0 0.126984 0 
0.142857 0 0.15873 0 0.174603 0 0.190476 0 0.206349 
0 0.222222 0 0.238095 0 0.253968 0 0.269841 0 
0.285714 0 0.301587 0 0.31746 0 0.333333 0 0.349206 
0 0.365079 0 0.380952 0 0.396825 0 0.412698 0 
0.428571 0 0.444444 0 0.460317 0 0.47619 0 0.492063 
0 0.507937 0 0.52381 0 0.539683 0 0.555556 0 
0.571429 0 0.587302 0 0.603175 0 0.619048 0 0.634921 
0 0.650794 0 0.666667 0 0.68254 0 0.698413 0 
0.714286 0 0.730159 0 0.746032 0 0.761905 0 0.777778 
0 0.793651 0 0.809524 0 0.825397 0 0.84127 0 
0.857143 0 0.873016 0 0.888889 0 0.904762 0 0.920635 
0 0.936508 0 0.952381 0 0.968254 0 0.984127 0 
1 0 
FIELD FieldData 7
Curvature 1 64 double
0 0.12562354476 0.088636122781 0.094879688904 0.10225225351 0.11698604913 0.14167996855 0.180936467 0.22421450461 
0.22892808595 0.16833691835 0.091279907177 0.089538467795 0.16313498609 0.21757506829 0.21979817065 0.19652211318 0.20333113687 
0.27807689253 0.37776129821 0.38342916476 0.29110379334 0.2181300014 0.21073678955 0.30528495506 0.52320823635 0.50048282947 
0.24056858387 0.09667117426 0.076638947344 0.12176042281 0.15896097597 0.15640341953 0.12622442759 0.098171582685 0.094937788948 
0.11640305723 0.14872874953 0.17488971972 0.17795702937 0.15087279433 0.10797179692 0.072245274549 0.055884324217 0.05445826492 
0.059317618578 0.066157731452 0.059269960223 0.024241838491 0.043017269732 0.115159593 0.18114829698 0.21801235675 0.22096330405 
0.20069897634 0.16700645764 0.12560271862 0.081083994207 0.044664199125 0.054421905153 0.095800210448 0.12218725539 0.16193849737 
0 
Torsion 1 64 double
0 0 0.37298534633 0.24287571491 0.24091312861 0.23045428594 0.22315016094 0.18154093551 0.10659986902 
0.015941366649 -0.15403104518 -0.80840677078 -0.80988673546 -0.11282941845 0.074207479595 0.20547598496 0.39054438097 0.46629440423 
0.28075961078 0.14631719421 0.10594252868 0.11962852859 0.17374557493 0.2340250918 0.19368847879 0.10795148398 0.11376856138 
0.28517525308 0.9459218276 0.96552006693 0.29390767864 0.13526237853 0.11714769477 0.18735342566 0.34144615492 0.35572319471 
0.20371593855 0.10215573548 0.06746595664 0.072444011405 0.11255883802 0.20861364358 0.3458646956 0.28627323503 -0.0061082765057 
-0.19278615989 -0.16745546508 -0.04558964303 0.85088521124 0.347074474 0.0094210691207 -0.023103630087 -0.029459649308 -0.029655697607 
-0.028925724492 -0.023144234498 0.014180912253 0.18835738606 0.93677787178 0.619460518 0.13963498488 0.049126957549 0 
0 
Abscissas 1 64 double
0 1.0482942313 2.0237156092 3.0433719562 4.058113742 5.0723081401 6.086618025 7.1007590624 8.1145505367 
9.1280161397 10.141753474 11.156087236 12.170609062 13.184953692 14.198749242 15.212326814 16.226088187 17.240000846 
18.25366608 19.266245985 20.277598164 21.289961685 22.303468234 23.317321483 24.330896506 25.343309988 26.350799093 
27.363266238 28.377416641 29.391945929 30.406387465 31.420559678 32.434612656 33.448813371 34.463194495 35.477641957 
36.492045958 37.506308091 38.520391114 39.534339097 40.548386972 41.56265676 42.577116585 43.591654847 44.60620401 
45.620749892 46.635274685 47.649786162 48.664346937 49.678958744 50.69346507 51.707618419 52.721379107 53.73500974 
54.748729685 55.762663285 56.776842633 57.791252003 58.80581114 59.820211404 60.835015825 61.854439324 62.830006094 
63.878169557 
ParallelTransportNormals 3 64 double
0 -0.92552066942 0.37869709594 -0.05360471351 -0.90244298002 0.42746134622 -0.073099714905 -0.89420923924 0.44164042857 
-0.077014913639 -0.89273396408 0.44395357015 -0.0588505263 -0.89831269316 0.43539742864 -0.01358643311 -0.90804675428 0.41864842157 
0.069839904026 -0.91612381112 0.39476518402 0.20508448127 -0.90821219 0.36481635582 0.38863292771 -0.85946517664 0.33209043595 
0.56859955281 -0.76426390112 0.30429465652 0.68191737475 -0.67176555163 0.28934363248 0.71916067549 -0.63307931541 0.28638872748 
0.69055392348 -0.66449112926 0.28563406291 0.59914845225 -0.7541027837 0.26897978321 0.46886640164 -0.85521419064 0.22084606754 
0.35248948164 -0.92320592365 0.15310776553 0.29000790058 -0.95174057908 0.10042553328 0.29107248875 -0.95127513494 0.10174686208 
0.33440277248 -0.92193249079 0.19548725837 0.35516520626 -0.84745320907 0.39456398048 0.29045833911 -0.7342694396 0.61358157022 
0.17578772278 -0.62284266242 0.7623422423 0.051263425573 -0.52243062188 0.85113941662 -0.096697922947 -0.40872156261 0.90752200852 
-0.32619757044 -0.22120576054 0.91905557859 -0.64912923399 0.1154890397 0.75186003969 -0.80627959895 0.41653347024 0.42001556696 
-0.81034691241 0.54076431361 0.22563651892 -0.80059344021 0.57518817301 0.16795448526 -0.80568339091 0.56153215994 0.18856274015 
-0.82425592285 0.50239340384 0.26115712018 -0.84374694505 0.40004634225 0.35784635918 -0.85097195661 0.28038872344 0.44410459673 
-0.84533447611 0.17225537924 0.50570515897 -0.83204391415 0.083724148707 0.54835498708 -0.81249163373 0.0057734273192 0.58294426205 
-0.78346822648 -0.071296458666 0.61732839971 -0.73969713315 -0.15048783825 0.65589752382 -0.67954966285 -0.22456964906 0.69841300706 
-0.61251997612 -0.28039680841 0.73905135727 -0.55811858533 -0.31096225451 0.76928936102 -0.53049768229 -0.32160676388 0.78430944054 
-0.52966407675 -0.32183789016 0.78477789103 -0.54556443264 -0.31845544414 0.77520679817 -0.56663069933 -0.31493377729 0.76141077383 
-0.58268632 -0.31303695878 0.74998967655 -0.5879935153 -0.31276015234 0.74595221903 -0.58581022977 -0.31270967605 0.74768912872 
-0.58823068329 -0.31289167659 0.74571003879 -0.60992141096 -0.31428338479 0.72747634085 -0.65921747299 -0.31250075467 0.68394122674 
-0.73374619618 -0.29471378387 0.61217669442 -0.8166018234 -0.24830802332 0.52106102096 -0.88719141115 -0.17400082878 0.42733489391 
-0.93504299914 -0.084229178533 0.34438355832 -0.96022541589 0.0049900319719 0.27918139313 -0.96900614512 0.078776162325 0.23413971678 
-0.96978294958 0.12433735648 0.20990772375 -0.96957128631 0.13141955277 0.20654399509 -0.97042526581 0.094215739263 0.22225705379 
-0.96756472852 0.0107711399 0.25239349966 -0.95374342264 -0.098336029591 0.28408363039 -0.9169371971 -0.24565769458 0.31444947714 
-0.9169371971 -0.24565769458 0.31444947714 
FrenetTangent 3 64 double
-0.70357791672 0.30267779932 0.64293410619 -0.70357791672 0.30267779932 0.64293410619 -0.76588919667 0.32320350555 0.55583561638 
-0.81887899344 0.30861834696 0.48393378681 -0.8716359889 0.26771175627 0.41058631054 -0.91934274729 0.19770289852 0.34018006545 
-0.95724120432 0.092681949882 0.27404257502 -0.974759189 -0.057008439061 0.215857734 -0.95246040758 -0.25294169906 0.16982246282 
-0.87581006116 -0.46331378044 0.13526669074 -0.77065170332 -0.62909325456 0.10167413264 -0.69249379706 -0.71932866988 0.054941839405 
-0.6732198335 -0.73922915085 -0.0177572047 -0.70810775079 -0.69422052418 -0.12900107395 -0.75834937664 -0.58856826434 -0.28016713076 
-0.77147376112 -0.45073507793 -0.44907251689 -0.72178154404 -0.32962388781 -0.60858811627 -0.60505483612 -0.26453057937 -0.75095420491 
-0.40367803536 -0.27330083933 -0.87312696384 -0.097327431825 -0.34871527935 -0.93216148009 0.25393455266 -0.44408383288 -0.85924780613 
0.52512548277 -0.51023020718 -0.68110818747 0.68064925591 -0.54881147408 -0.48530666217 0.75900230061 -0.58330884347 -0.28925127624 
0.7738011985 -0.63222818593 -0.0389772512 0.65192308111 -0.67937059126 0.33682621045 0.33047394824 -0.63391050219 0.69924562548 
0.017545429376 -0.53841739469 0.84249561839 -0.14371296255 -0.50714633414 0.84979361034 -0.20168370907 -0.54101384605 0.81647271839 
-0.19454184399 -0.61951625408 0.76049528721 -0.13710779412 -0.72006391743 0.68022746755 -0.048912089611 -0.81024066888 0.58405279383 
0.045247550967 -0.86800734015 0.49448550695 0.13403916285 -0.8927726559 0.43010520538 0.22348592227 -0.89093375866 0.39533666693 
0.32521121065 -0.8635926925 0.38528603651 0.44499888063 -0.80511488998 0.39213009342 0.57573696882 -0.70915164217 0.40697775264 
0.6965118905 -0.58013007085 0.42227986845 0.78455473667 -0.44080299194 0.43608094141 0.83211470903 -0.32067776059 0.45249407165 
0.84737333131 -0.23495291277 0.47618858257 0.84286971844 -0.17931553518 0.50736237205 0.82851189984 -0.13848829892 0.542576283 
0.81111766589 -0.095801339849 0.57698373925 0.79518867761 -0.041471908964 0.60494218547 0.78242427316 0.018094662125 0.62248280296 
0.77285425557 0.058106967675 0.63191762117 0.76457305811 0.049049526458 0.6426680191 0.74927462505 -0.027057880005 0.66170643595 
0.70990943151 -0.16939443621 0.68361840527 0.62957056905 -0.35261142465 0.69231934957 0.50825705299 -0.53506235303 0.67482075135 
0.3645394808 -0.68391105903 0.63196252284 0.22218712352 -0.78718783544 0.57529835205 0.1010455129 -0.84918322646 0.51834125075 
0.015049440831 -0.88278637618 0.46953352208 -0.026985942127 -0.90295030998 0.42889683682 -0.02113458833 -0.92100777061 0.38897045602 
0.032317160888 -0.94008182316 0.33941385782 0.11965749658 -0.95321207019 0.27761273884 0.24005714593 -0.95108644945 0.19444056255 
0.24005714593 -0.95108644945 0.19444056255 
FrenetNormal 3 64 double
-0.55263688 0.33572131964 -0.76281300094 -0.55263688 0.33572131964 -0.76281300094 -0.59430217073 -0.025913932949 -0.80382423324 
-0.56461452459 -0.2815533326 -0.77584673714 -0.48916667562 -0.52824536263 -0.6940265127 -0.37136917133 -0.72162646061 -0.58424326263 
-0.21131886022 -0.87096445414 -0.44358230233 -0.0090167352188 -0.95600832357 -0.29320092726 0.223631806 -0.95899493574 -0.17411929406 
0.4479675577 -0.88461717493 -0.12952807055 0.60036084505 -0.77023327584 -0.21519190628 0.54691664852 -0.57312450523 -0.61025443963 
-0.13324907908 0.14490184212 -0.98043262852 -0.33051858722 0.48732133855 -0.80825452457 -0.19238193874 0.61274560023 -0.76650637248 
0.072791746518 0.63863986505 -0.76605514449 0.41068529391 0.5038090264 -0.75994345467 0.74377777564 0.1487402758 -0.65166782246 
0.91393061974 -0.1644047295 -0.37108207613 0.96360963769 -0.2673127246 -0.00061107425789 0.89213676074 -0.23564228358 0.38544093493 
0.71477550253 -0.16994489162 0.6783912697 0.4925929733 -0.14749950912 0.8576689673 0.23083829015 -0.1743143248 0.95725033297 
-0.094119938702 -0.17561046642 0.97995020344 -0.48114161378 -0.027281190647 0.87621828566 -0.7991412674 0.20624150879 0.56465713029 
-0.94446853691 0.26761092121 0.19069236385 -0.97295530225 -0.084513199993 -0.21497790317 -0.268240642 -0.77122192333 -0.57728996436 
0.28891048274 -0.77710501358 -0.55914088638 0.49611416368 -0.64429354538 -0.58202797525 0.61118469018 -0.4867733939 -0.62410330673 
0.71752579823 -0.31616376783 -0.62064257087 0.86521832015 -0.10617384744 -0.49002486936 0.96543380506 0.14651905443 -0.2155683992 
0.93560249687 0.35305147318 0.001620229034 0.8541802295 0.51311778267 0.084180025217 0.74671144674 0.65880840973 0.091616017003 
0.60902628287 0.78914571784 0.079599138083 0.44770768987 0.88928428604 0.093441334775 0.2662999996 0.94670405909 0.18120633189 
0.038081885345 0.92136172058 0.38683633473 -0.20009369847 0.77080371914 0.60483397589 -0.3139944388 0.68738027592 0.65491667308 
-0.29197765988 0.78845687077 0.54137307753 -0.21572937769 0.91303313931 0.34616661035 -0.18105918689 0.96300694746 0.19958754969 
-0.31204033117 0.90189106197 0.29870276875 -0.20943821759 -0.92408428826 0.31969338624 -0.20307221199 -0.96041931306 0.19067359499 
-0.32089672203 -0.94183507955 0.099859785338 -0.47557756603 -0.87953736831 -0.015491818348 -0.62131694222 -0.77041828388 -0.14290180255 
-0.73207488685 -0.62990476079 -0.25939613024 -0.80352516261 -0.48204470393 -0.34925666274 -0.83542435197 -0.355339733 -0.41928489872 
-0.79903367737 -0.2929174752 -0.52511383066 -0.40667701482 -0.3820258831 -0.82986145245 0.5458751076 -0.33657750299 -0.76729130804 
0.78726806844 -0.18527432375 -0.58811768667 0.82497118035 -0.060108203878 -0.56196935451 0.81355599727 0.087828496061 -0.57481544393 
0.81355599727 0.087828496061 -0.57481544393 
FrenetBinormal 3 64 double
-0.44673324699 -0.89200748054 -0.068935192013 -0.44673324699 -0.89200748054 -0.068935192013 -0.24539492313 -0.94597460964 0.21192774622 
-0.10318736707 -0.90856064014 0.40480851085 0.031091257891 -0.8057836263 0.59139333888 0.12997635013 -0.66345219516 0.7368428144 
0.19756926905 -0.4825256219 0.85330850701 0.22307671761 -0.2877466301 0.93136386817 0.2069009119 -0.12786402973 0.96997051633 
0.17967137787 -0.052846898303 0.98230616475 0.21368857693 -0.10479684092 0.97126454389 0.47046202887 -0.3925488074 0.79029799013 
0.72733743112 -0.65768055976 -0.1960523976 0.62397185575 -0.52969404075 -0.57452880383 0.62281250196 -0.52738053397 -0.57790514775 
0.63208353684 -0.62368021636 -0.45988410516 0.55710770238 -0.79845134949 -0.22826837373 0.28408320218 -0.95283781565 0.10675594271 
-0.042129159445 -0.94777515062 0.31614458368 -0.24896553408 -0.89829926039 0.36204226497 -0.37364320294 -0.86444332582 0.3363457943 
-0.46188657518 -0.84307998998 0.27545765948 -0.54228106466 -0.82283039609 0.16994524466 -0.60879322555 -0.79332547501 0.0023450425001 
-0.62639695269 -0.7546181054 -0.19539286749 -0.58608791474 -0.73328803097 -0.3446587005 -0.50215555785 -0.74540050662 -0.43842659643 
-0.32813311428 -0.79905638346 -0.5038229405 0.18084403286 -0.85770631034 -0.48128507247 0.94200352413 -0.33544114738 0.010420996621 
0.93738156793 0.11093876146 0.33016418235 0.85736351064 0.25766990937 0.44557157497 0.78997524137 0.32643792898 0.51901579605 
0.69506070814 0.38288866444 0.60851202342 0.48314672854 0.43781742655 0.75821180399 0.13413280953 0.42984788514 0.89288251469 
-0.13742502074 0.35994766112 0.92279577639 -0.26898351579 0.2974897562 0.91605006042 -0.33309001492 0.25114821854 0.90883200554 
-0.37941820353 0.20173779246 0.90296383644 -0.42898914858 0.12192694908 0.89504308806 -0.48648681506 -0.030285283039 0.87316286019 
-0.52963025536 -0.30966063462 0.78968480039 -0.49953293141 -0.61131625645 0.6138072051 -0.46365453111 -0.71297219254 0.52601818262 
-0.50679105972 -0.607583629 0.61155944565 -0.56668845285 -0.40577157033 0.71708690555 -0.59584379465 -0.26886837366 0.75675621572 
-0.55256414231 -0.42803748976 0.71516206275 0.60956022822 -0.37902819439 -0.69625710483 0.63035641741 -0.27724107603 -0.72511252423 
0.62694010307 -0.29026230881 -0.72297572521 0.61438333089 -0.31949835829 -0.72142492456 0.59635561991 -0.34664671674 -0.72401383162 
0.57548008392 -0.36808376176 -0.7302992656 0.55225012014 -0.38466636862 -0.73962935965 0.54023694474 -0.39066804586 -0.74533383224 
0.60109790946 -0.36727042727 -0.70978428871 0.91317334857 -0.19681707839 -0.35689980822 0.83759996185 0.19611290361 0.50986864284 
0.6157634201 0.28621598615 0.73410886096 0.5523627749 0.29626635496 0.77918008947 0.52962175747 0.29617684068 0.79484594297 
0.52962175747 0.29617684068 0.79484594297 
