# vtk DataFile Version 2.0
Vessel Segment
ASCII
DATASET POLYDATA
POINTS 640 float
6.947338601133551 0.12206072744070129 -18.56372521261553
6.955531813879994 0.11984112167361724 -18.508784157556395
7.010214772684703 0.10330673092825994 -18.287545739332526
7.033858657815601 0.09585608663589433 -18.172480818906898
7.0424810697647455 0.09374724906955981 -18.11529908277204
7.051202733325581 0.09163989165610519 -18.058054659894808
7.059990509776697 0.0895243396803382 -18.00077823699225
7.068751256518122 0.0873911609205278 -17.943467428641302
7.077531997489117 0.08521224816741513 -17.886074901083166
7.086394074266342 0.08295976895590391 -17.82851983730616
7.095361629719324 0.08056223343304783 -17.77063699778706
7.104617235100729 0.07790891569810808 -17.71219066967523
7.114391462447426 0.07500157246028312 -17.653020626687866
7.124350609752527 0.07177996694211157 -17.59336527764048
7.134083700908719 0.06835420667714073 -17.53368257854021
7.14351763103774 0.06485929175885775 -17.474026398025273
7.152660613069888 0.061423004313486344 -17.41440455707539
7.161621022550504 0.05805769652932883 -17.35482990308655
7.170473034105626 0.054752458582851306 -17.295231411387245
7.179228699421892 0.051466333779645726 -17.235563649957832
7.187886891297354 0.04814102706244919 -17.175799886794863
7.196482336867859 0.044726570132983395 -17.11595084590888
7.205064432780951 0.04115581190341151 -17.05606027291544
7.213598124858858 0.0373648917283107 -16.996248456596547
7.221813061138929 0.033425738016732306 -16.93672154960623
7.229422021204852 0.029368890341165316 -16.877703299684402
7.236438499498198 0.025321869866298655 -16.819246152275955
7.242979503183643 0.021353331115115528 -16.76117489452541
7.2491663209864345 0.017460377567158295 -16.703283486708557
7.25508240539306 0.013621080644058123 -16.645443353390384
7.2607843027558765 0.00982160957925433 -16.587575649459513
7.266289748424543 0.0060669498482096 -16.529672025811237
7.271638144657545 0.0023223714776338298 -16.471735445809706
7.2767993611667 -0.001433041123377637 -16.413787483917027
7.281676253485108 -0.0051982284338767575 -16.355883504088098
7.286108148628631 -0.008962835758388495 -16.29808032019454
7.289914216956434 -0.012692660305224524 -16.240489758361786
7.293005622466735 -0.016329273888399196 -16.183280814505768
7.295438917031697 -0.019836135912231528 -16.12652869677479
7.29734388081678 -0.023209247152134037 -16.070187607972283
7.298844916356622 -0.02646259614870941 -16.014130004923086
7.300017049222674 -0.029603549341600748 -15.95821112855318
7.3008987300907835 -0.032650238899815304 -15.902307153514458
7.30149351474543 -0.03561363445224667 -15.846362639797658
7.301854227203342 -0.038561146896421095 -15.789996300101972
7.301804109531721 -0.04147780576505822 -15.733386695926123
7.3011286415734835 -0.04432214772703073 -15.676714792739654
7.29986965023968 -0.04711507565257781 -15.619529074141763
7.2977852096643785 -0.04971994647886495 -15.562844731184446
7.295026921800714 -0.0521877402858007 -15.506354190337099
7.291699236925838 -0.05449687151954427 -15.45013567247685
7.287895738678165 -0.056645434249508644 -15.3942324493491
7.283690478295328 -0.0586687480625583 -15.338615275654886
7.279128640821876 -0.06057794237759849 -15.283158306205802
7.274195611483216 -0.06236881869827503 -15.227677438590781
7.268801182044734 -0.06402658424988952 -15.172006372538199
7.262827143470648 -0.06554678511983049 -15.116012262258005
7.256180996518545 -0.06693093382362986 -15.059674170678598
7.248735859424939 -0.06815915159399337 -15.003041247688172
7.240375989350723 -0.06921710047699625 -14.946243958401837
7.231106700255307 -0.07009194878663698 -14.889405478039507
7.221016415359669 -0.07077158225541574 -14.832661454643565
7.210258668633655 -0.07125739667034585 -14.776032016793442
7.198931934784871 -0.07156747950679274 -14.719501285524483
7.187098817285319 -0.07173562583218117 -14.66307518014169
7.174775018516452 -0.07178554547046181 -14.606709990091616
7.161885950747093 -0.07170190293589172 -14.550346529243036
7.148286342647384 -0.07145162464074697 -14.49393468662632
7.133864225747527 -0.07102995685336064 -14.437469104808468
7.118548667368317 -0.07044872885768752 -14.380979542290502
7.102319272476654 -0.06970550998496507 -14.324522737551849
7.0852054730858445 -0.06877649348974282 -14.268191433887035
7.067245253853747 -0.06764455717020298 -14.212090235150491
7.04847193639993 -0.06635138308400232 -14.156296906627091
7.028974411397715 -0.06493795676613559 -14.100825066707865
7.008861372996017 -0.06338231109564516 -14.045647019418396
6.988168304737605 -0.06165726838259804 -13.990717190653712
6.96691427789757 -0.05977511015832886 -13.93600446765735
6.945071095891865 -0.05776378050189603 -13.8814822019688
6.922528368358942 -0.05562501471402324 -13.827118639758961
6.899163182305593 -0.053351503391921476 -13.77292659833764
6.8748807120463455 -0.0509204984432527 -13.718946615709907
6.849666500064947 -0.048313112390982724 -13.66521819880747
6.823579732027625 -0.04551542101046676 -13.611758628515851
6.796684131114978 -0.042531086972213646 -13.558580211859331
6.769093637197926 -0.0393971720707458 -13.505717053132898
6.740931360461938 -0.036122117590757 -13.45318657949481
6.712235486543225 -0.03269627901346118 -13.400969418386937
6.682963234752594 -0.02911627863880487 -13.349032863484348
6.653042565495797 -0.025374832186038643 -13.29733765552621
6.622368716680096 -0.021467835686204542 -13.2458863367367
6.59085079023539 -0.01740024851613324 -13.194732239930678
6.558465946405008 -0.013152368568561185 -13.143919633173786
6.525254139110591 -0.008713482435618041 -13.093474706181432
6.491302894324872 -0.0040819754009488755 -13.043411762293784
6.456682681950694 0.0007318139509852424 -12.993699348524402
6.421406197780647 0.005718667291648286 -12.944302442341398
6.38551132820103 0.010866555656547726 -12.89517102198453
6.349059958623237 0.016176408019985735 -12.846274199637689
6.312030449494654 0.02165988890639441 -12.797610540226493
6.274360755775481 0.027333089480973533 -12.749208782086466
6.2360229818829485 0.033171765582799564 -12.701116972831315
6.196988685011969 0.039132712884338526 -12.653425560398546
6.157264086836951 0.045191174481623644 -12.606174106690823
6.116854667875244 0.051384989336641235 -12.55933642012399
6.075756323626013 0.05777183761593988 -12.51288880816039
6.033947028777331 0.0643965542833136 -12.466822833107477
5.991452360304185 0.07125980063726273 -12.421114152753901
5.948336860073397 0.07831626030702128 -12.375707636515141
5.904671968532043 0.08552853936532082 -12.33057783570046
5.86049476049766 0.09289003530723007 -12.285697775093984
5.815785085544409 0.1004088899171878 -12.24104534235136
5.7704789964463385 0.10810373531652334 -12.196632891403182
5.7245413405993455 0.11596982424475615 -12.152526443618587
5.677993140017859 0.12399939183768115 -12.10879033337521
5.630825463122761 0.13220807174632884 -12.06544839703723
5.582995063453304 0.1406220596354842 -12.022492565997732
5.534465377995917 0.14928555957760492 -11.97990100629709
5.485243534246393 0.1581896811337563 -11.93764252896415
5.43534415031445 0.16732813082748166 -11.89570902588609
5.384816274084285 0.17666570884619112 -11.854080365270054
5.333718211550618 0.18617799683982786 -11.812710674990777
5.282081555876865 0.1958603754814266 -11.77153160746307
5.229848646085847 0.20572781919825306 -11.730507806771278
5.1769399599363775 0.21581022349751225 -11.689698257831523
5.1233857718727025 0.2261202734490679 -11.649215090246777
5.069282241229988 0.23664732232839938 -11.609141532757494
5.014690659367639 0.24738538885614375 -11.569494158292677
4.959610411154219 0.25834087758601043 -11.53026132368315
4.903990500796227 0.26951483547110117 -11.491418140816391
4.847808281434499 0.28090244634782957 -11.452936701624754
4.791087546910569 0.2924604811771336 -11.414740648676393
4.733786334958152 0.30416629214102137 -11.376786217201236
4.675858206873603 0.3160294310459319 -11.339080860144112
4.617284921365749 0.3280558495711137 -11.301610443556612
4.55809491570238 0.34025003863744974 -11.264363198129985
4.498389183475169 0.35260593285114544 -11.227344058500568
4.438288643298001 0.36512880477701976 -11.190581029562589
4.37784761665753 0.3778303901048802 -11.154092502786273
4.317033961533323 0.39071101606089187 -11.117885330640837
4.255763825152151 0.40378434007442343 -11.082014514163038
4.193971846739446 0.41704583177963395 -11.046522178093424
4.131646398124273 0.4304554500983535 -11.011389984332991
4.068781146153372 0.4439722422761687 -10.97656095552279
4.005337892148787 0.4575723618601106 -10.941970161595068
3.941318155593498 0.4712392443923773 -10.907584872483053
3.8767614556404815 0.48496567744946456 -10.873392514506385
3.811745806268134 0.49876466553314025 -10.839390426920414
3.7463729803197534 0.5126413210304492 -10.805572110726217
3.6807333893831964 0.5266150405387247 -10.771921091207599
3.614878383416543 0.5406909579921646 -10.738408745754835
3.5487974954246204 0.5548594584049151 -10.705039115503313
3.482445688296249 0.5690769871043307 -10.671865151519496
3.4157778448195626 0.5833067009530459 -10.638910234235155
3.3487493671463975 0.5975379574814675 -10.606211200678782
3.281331918031741 0.6117770262606458 -10.573809611851235
3.213473941302085 0.6260196997358034 -10.541699684476153
3.145192222386695 0.6402313750160502 -10.50982117772108
3.0766072604029553 0.6543827842997945 -10.47811135873342
3.0078568309059914 0.6684435231030075 -10.446482808607879
2.939008143251592 0.6824051616575904 -10.414881111986038
2.870095184391858 0.6962718325420272 -10.383286837201624
2.8011728237111586 0.7100585512974033 -10.351688191874091
2.732300299064881 0.7237597645498557 -10.3201122518401
2.6634945257359957 0.7373600376279363 -10.288606981481959
2.594685434550203 0.7508350864480198 -10.257215416250663
2.5257826748132763 0.7641916213142871 -10.225969174553875
2.4567398004986662 0.7774473815238772 -10.194887203922624
2.3875256639150133 0.790597294393257 -10.163976382832878
2.3181539714833836 0.8036132580506211 -10.133168599295443
[...]
POINT_DATA 640
SCALARS Curvature float
LOOKUP_TABLE default
0.61392472789056
0.618027149422816
0.6042853177232624
0.48937590667228353
0.017002729084239776
0.01679362078423106
0.022577032652030638
0.041359456817410746
0.06918492064164651
0.08345149712171397
0.09389835834714641
0.09295505620935123
0.0816224122940442
0.07368521671490293
0.06155981797863936
0.04845903351766014
0.03668649482788012
0.031605885164688104
0.03348686235783717
0.04165227747400314
0.05608604829080271
0.08748758224584499
0.11417101583934575
0.12986067068786664
0.13231322692452116
0.11313091432253915
0.09201971481358528
0.07567802246417009
0.06263220936382322
0.056695619793135844
0.0611578485201324
0.078348966694308
0.11192893286531827
0.15025351999849887
0.17865442047591804
0.1872359736199525
0.17445050943875906
0.1495657331842299
0.12451014052222929
0.10743068265160521
0.09395780891244358
0.09878232848880555
0.12302250008911256
0.1428012407184312
0.18930589891911231
0.21049281868588637
0.20917201237779542
0.20649246914784924
0.1761380181878614
0.15357949927347547
0.13759646651518045
0.13340831773430362
0.14236247886577244
0.1609194504160195
0.18802071777274773
0.21792139783396816
0.24096420665124324
0.253916347704972
0.24820723071146203
0.22675288393161688
0.19977982877363806
0.17491737777446995
0.16465728088539908
0.17100810403405603
0.1890857789828271
0.2135317670131541
0.23525178541690955
0.24758102861827452
0.2529756389485563
0.25318125100768074
0.2461066327578686
0.2322035666155912
0.21564007426705611
0.19777403987044695
0.18612248722767552
0.18753265961518364
0.19945177719124937
0.22008785115648313
0.2415915387482351
0.25395073593065576
0.2550886931429891
0.243607409768606
0.22382351986214546
0.204553706147214
0.19029139420192148
0.18488730539957082
0.19178894125578674
0.20757058838376932
0.22436575058190553
0.23693856633938887
0.2396878267425818
0.23113005711775575
0.21771060094554867
0.20145110046944784
0.18493181290826494
0.17444310051133483
0.17032100170746695
0.17302835258675142
0.1844692900560948
0.19583484514810925
0.2018815395637417
0.20494464046352176
0.20465834270518693
0.2009701667794653
0.1924771352751024
0.17956457898791003
0.16271692348130734
0.14803984527659478
0.14247571871383685
0.1455762659529789
0.15321709335172448
0.16234936957057883
0.16966140739396274
0.17370262251344482
0.17395291843969085
0.17151381302259358
0.16447214291682344
0.15237247725626732
0.13817175359890296
0.12550920891706666
0.12115638908860567
0.12497315649960695
0.1334271847205994
0.14044963121939025
0.14205472102395408
0.1401804914969191
0.13705452562460557
0.13053821463484866
0.12327863104296892
0.11715777825960105
0.11149763528424907
0.10900328462956724
0.10527681236925329
0.09864545750769894
0.09218922827702956
0.08814331384663245
0.09066674460482924
0.0976754903250634
0.103878901228493
0.10654178637878546
0.10306172850287774
0.09516489444397037
0.08681792614191505
0.07926555980749554
0.07150242761499283
0.06313211211892654
0.05440914041233458
0.04780067769080952
0.046146407982213276
0.04849812377533377
0.05505141970568146
0.06341771484125551
0.06984724297708621
0.07204396694189975
0.06770162713970743
0.05648585293590027
0.042507895522349445
0.030186792676063563
0.021033469100478798
0.016549793299111697
0.014949553540988347
0.01698307148929971
0.022468117170498382
0.029249247993147504
0.0361860464512396
0.03874039870398089
0.03853304269473344
0.038876861956346695
0.0391236902060892
0.042166344002834075
0.04601790826756583
0.0473990653123008
0.047957076694947254
0.04569947686336133
0.041437806192591124
0.03744690309145419
0.03469116072816708
0.03582220635866101
0.04191295427332213
0.04999822644101001
0.05836243524083921
0.06581483981264638
0.06993168799738579
0.0727598243316893
0.07401960474900561
0.07274902826732818
0.0700616844519623
0.06683325990146723
0.06486643710675676
0.06882980768457313
0.07688960384868447
0.08472532873026008
0.0904517245295371
0.09103142382942735
0.08960839496704966
0.09114987916233695
0.09462219676614023
0.09763087597124993
0.09877039573365808
0.0982988306981465
0.10053503195411623
0.10570920192350239
0.11280534428247696
0.12016058108113553
0.12366541940995508
0.12486190709142891
0.12345117404386742
0.11901824504652904
0.11565375330738702
0.11499677810990144
0.12110128503536667
0.12668110678755348
0.13359911214576917
0.14102592433425848
0.14521642850621325
0.15131143944502864
0.15517845344442685
0.15399268765460147
0.14764798757565378
0.14280291159568748
0.13997374576080168
0.1407535677633182
0.1441864646504697
0.1490038628484843
0.1554842173383103
0.1638058606474467
0.17436113867513062
0.17955594750883858
0.1773723002495024
0.17091379085017575
0.1636936008425138
0.15886606895002586
0.15812782434208836
0.1593954398574024
0.16152350872278717
0.1681912352636885
0.17970715910231086
0.1915973005436482
0.1978262674726633
0.19534573371291486
0.1851225105469196
0.17405119552201584
0.16725019634654117
0.16768933761478566
0.17398366959140202
0.17942561619917152
0.1836056133969649
0.1878881468615652
0.19662063613646003
0.20659667825698966
0.21025061193700872
0.20557831575430718
0.1909643093788038
0.17620473446870782
0.17216800200999197
0.17746860780320176
0.18780823308390546
0.19574243341830552
0.20022550128056113
0.20606674862062083
0.21116158993720174
0.21369639173163738
0.20992224010588065
0.19751161625325708
0.1838861216500135
0.17747288430659208
0.18961025633533551
0.20271958359585637
0.21468588504659608
0.21992035429461687
0.21102894329491909
0.20357620021415757
0.1964380225900626
0.18817546640915986
0.1751330263895966
0.16566576009818218
0.16319964682290553
0.16217466760988117
0.16671540029142015
0.17407853308799986
0.1700946959777655
0.1844315649808605
0.19240164537625365
0.17933455694492964
0.1716717786419793
0.15125335024193923
0.12736890693831138
0.12311925099277969
0.12065525151650239
0.11611227490756493
0.12447172242212752
0.1273092919115462
0.12500978646511013
0.12077011217927269
0.11105974657329531
0.10085287797677663
0.0913805329911529
0.08171983308344748
0.08269570385637068
0.08774922189749927
0.08962979413138568
0.09332939194083385
0.09377847222357394
0.09627396752472028
0.10604723455028128
0.09623645856579291
0.08929990496405955
0.07795736040661497
0.06493728003459746
0.060695615123546896
0.06152888317171907
0.07530634730315985
0.08162729226223013
0.09812253563391253
0.09251810897611504
0.09348609342837003
0.09244816288893
0.08402590846478065
0.09105934266365301
0.07255144841902202
0.13141159592779064
0.23481361794685046
0.30796511280871275
0.331304259294445
0.29247373525177983
0.198260768866085
0.12168175973221505
0.10606979602742705
0.09346856516377006
0.10109431833157506
0.12687201918771884
0.13369970511197046
0.1304427260521248
0.1270998916814206
0.11821591626841293
0.11904779211239126
0.14273074272080377
0.1490724334369865
0.13223293549678478
0.11660375225885172
0.10584105733263281
0.12642669425062059
0.12410971788953719
0.16121423300054555
0.14671061477884453
0.14502216174515103
0.1746595793546581
0.14021407783557482
0.17998320743497362
0.18078005427508714
0.15354774818708297
0.1719801000162698
0.15046054009247456
0.13380823083217408
0.1913608063206409
0.2012651949696759
0.21968077519551701
0.2663559157451317
0.2599957132941845
0.24551558826242015
0.2415561538501355
0.20936247205345393
0.22230353338628034
0.24059712701499114
0.3908094626876968
0.40885233273835875
0.4049294409966522
0.43433324379535226
0.3208435527774505
0.3347586009392727
0.33519638728451745
0.3287157045064368
0.3170014723041931
0.30392939716616674
0.2954822740836757
0.29469218023871924
0.30065405525191324
0.31174714543490145
0.3279389703380023
0.33447183184793833
0.3336948343746997
0.3303436712168387
0.32428424336603073
0.3240311429929774
0.3241624396275773
0.32020301271095025
0.3144815445974531
0.306990796008681
0.2964724272474354
0.28804890512737824
0.2774716671973816
0.26605313686964904
0.3080782752943577
0.28820746738020137
0.27137676758629975
0.2693763961970949
0.24015180362750183
0.24517968442436133
0.25274195627663243
0.2915857952650206
0.28197979699577297
0.26912996613098056
0.4782037207158379
0.5062296217220245
0.4936731692765293
0.5317510445305762
0.38849906483913677
0.37474831184706703
0.34740781137644444
0.30128086927773995
0.340596299925228
0.344173183345872
0.3740188168722505
0.4534262321168416
0.38004270042827715
0.5184910783397905
0.5261473741160347
0.5372899895567411
0.7876152628515513
0.9364243237291424
0.9364242036116781
0.966318847866113
0.9302171746054846
0.7627113885710833
0.9457559215507181
0.9279773828058177
0.9819483156969295
0.9741936718631736
0.9757230622826172
0.9640882739146227
0.9961549591146487
0.9998549104904849
0.9999623663051456
0.9999940585086812
0.9999999021420685
0.999999474867793
0.9999936040562474
0.999999445003434
0.9999999957307512
0.999999994257361
0.99999999945159
0.9999999999994206
0.9999999995888537
0.9999999994512689
0.9999999970389766
0.9999913876576493
0.999282943557589
0.9994089553395691
0.9983051193795802
0.9906503953036089
0.949715035490243
0.9032242150755664
0.9634953325582591
0.8478286132259268
0.8950097861597048
0.8290856971878285
0.6014406282800658
0.7149911183064979
0.5678989165986239
0.5472089699498432
0.49642296459781793
0.3012495876521429
0.30459767098926405
0.27668083752365186
0.24990677201458228
0.22916021094617745
0.19232577094251457
0.19849749870143052
0.2506172431588893
0.29771395763888053
0.29178511916283456
0.29605576122071164
0.24887588047205117
0.1922642105789012
0.1906776486684554
0.15996650396964252
0.15604430832880256
0.14510458007256655
0.1446209957468858
0.15420268920649513
0.16039518742020986
0.16004021973579557
0.16096373763021263
0.1596045102515291
0.15902132952095566
0.16128295751253452
0.16276752026427782
0.16371177716083216
0.16463589992246946
0.160343881356423
0.15392794907025667
0.14592707102808614
0.13790404347760996
0.13703486551973762
0.1448722308036647
0.16001576521621846
0.17678914193397524
0.1883801238534804
0.19161330980959845
0.18603390137607378
0.17507596286234398
0.16271008482777152
0.15377597668309848
0.15320675934597236
0.1579854002111602
0.16683840416646137
0.1804905518559222
0.19528647887973577
0.2127703277000443
0.23064771591102784
0.24459109275565905
0.24866207235571133
0.2386589993763905
0.22125257515285665
0.20403558240966566
0.20015660664372112
0.21734313517442813
0.24763518280729055
0.27838394343451645
0.30039926970656256
0.30919832982938233
0.3039822629437633
0.28846927698616787
0.2687960432624091
0.2469869041730652
0.2318851212987425
0.22813278559590688
0.23483002626836405
0.2496036100600426
0.27065927487654223
0.29276088246397036
0.3105629597306598
0.3246856678786721
0.3272382147827022
0.32777280005194837
0.32515070250905737
0.3128097889286262
0.29925308831679426
0.28166528570497196
0.26487339932412135
0.2597079103661512
0.2621331062505468
0.26793784443398383
0.2771695822171702
0.2819682715244615
0.277846657916808
0.27651445911778494
0.2651988568332789
0.25586171472067837
0.25489171124862314
0.2414494863231657
0.2299757071065547
0.2135823093379518
0.19487630465587
0.18493238528194827
0.18269293556456379
0.1888829996366248
0.2000087929411886
0.21721862111241438
0.2671314175854417
0.3184941639005737
0.42075839402814025
0.4311391441624676
0.39774013080192916
0.33806089961401076
0.19787345884985533
0.16174782228313575
0.14383838745279798
0.12749944296596483
0.14040316797319582
0.1415162120794335
0.12469215167388395
0.12908302687555337
0.12662269598994813
0.12423996242857548
0.12025593696120612
0.1295834925906679
0.13190156948331053
0.11741963266129599
0.13135408262847056
0.13354859514297546
0.12618480261681891
0.12995886311597196
0.12804806362073354
0.11497965884160416
0.12458366408092691
0.12196577423196392
0.11619518094970903
0.11150608272446301
0.11244486949242782
0.12933254736673214
0.14566066284514867
0.15570848074554883
0.13995600210646164
0.11976765309225186
0.10701940435828855
0.10638444334619056
0.10614920001456941
0.11055507577959806
0.11615970595409457
0.1280940566312099
0.14377477346415854
0.14352865860326092
0.14471799447478187
0.14762899643690863
0.13069774432813933
0.15082340498539618
0.14114538772769916
0.11465497954279105
0.13365778357907745
0.1368299728433719
0.14239575253213035
0.17352686356918123
0.17987702692219293
0.17388885059932185
0.1810001652878344
0.18879431319858406
0.17012222050607012
0.15569337054052204
0.12069231593211291
0.10058459792402927
0.10516538260084969
0.09587362536123066
0.12570698179696113
0.15733697495106838
0.1785838260965376
0.2001853082109474
0.19134606710212623
0.16299919862967943
0.16002304694920985
0.15479116541323826
0.1495006768556258
0.12264742113593881
0.0775603572105673
0.06362264763464115
0.09574158868502991
0.08158216003614446
0.06742273138725902
0.05326330273837357
0.03910387408948812
SCALARS Torsion float
LOOKUP_TABLE default
-0.9060099902753153
-0.9060099902753153
-0.9060099902753153
-0.8791360311418396
0.0
0.0
0.0
0.0
0.0
0.0
0.0
0.0
0.0
0.0
0.0
0.0
0.0
0.0
0.0
0.0
0.0
0.0
0.0
0.0
0.0
0.0
0.0
0.0
0.0
0.0
0.0
0.0
0.0
0.0
0.0
0.0
0.0
0.0
0.0
0.0
0.0
0.0
0.0
0.0
0.0
0.0
0.0
0.0
0.0
0.0
0.0
0.0
0.0
0.0
0.0
0.0
0.0
0.0
0.0
0.0
0.0
0.0
0.0
0.0
0.0
0.0
0.0
0.0
0.0
0.0
0.0
0.0
0.0
0.0
0.0
0.0
0.0
0.0
0.0
0.0
0.0
0.0
0.0
0.0
0.0
0.0
0.0
0.0
0.0
0.0
0.0
0.0
0.0
0.0
0.0
0.0
0.0
0.0
0.0
0.0
0.0
0.0
0.0
0.0
0.0
0.0
0.0
0.0
0.0
0.0
0.0
0.0
0.0
0.0
0.0
0.0
0.0
0.0
0.0
0.0
0.0
0.0
0.0
0.0
0.0
0.0
0.0
0.0
0.0
0.0
0.0
0.0
0.0
0.0
0.0
0.0
0.0
0.0
0.0
0.0
0.0
0.0
0.0
0.0
0.0
0.0
0.0
0.0
0.0
0.0
0.0
0.0
0.0
0.0
0.0
0.0
0.0
0.0
0.0
0.0
0.0
0.0
0.0
0.0
0.0
0.0
0.0
0.0
0.0
0.0
0.0
0.0
0.0
0.0
0.0
0.0
0.0
0.0
0.0
0.0
0.0
0.0
0.0
0.0
0.0
0.0
0.0
0.0
0.0
0.0
0.0
0.0
0.0
0.0
0.0
0.0
0.0
0.0
0.0
0.0
0.0
0.0
0.0
0.0
0.0
0.0
0.0
0.0
0.0
0.0
0.0
0.0
0.0
0.0
0.0
0.0
0.0
0.0
0.0
0.0
0.0
0.0
0.0
0.0
0.0
0.0
0.0
0.0
0.0
0.0
0.0
0.0
0.0
0.0
0.0
0.0
0.0
0.0
0.0
0.0
0.0
0.0
0.0
0.0
0.0
0.0
0.0
0.0
0.0
0.0
0.0
0.0
0.0
0.0
0.0
0.0
0.0
0.0
0.0
0.0
0.0
0.0
0.0
0.0
0.0
0.0
0.0
0.0
0.0
0.0
0.0
0.0
0.0
0.0
0.0
0.0
0.0
0.0
0.0
0.0
0.0
0.0
0.0
0.0
0.0
0.0
0.0
0.0
0.0
0.0
0.0
0.0
0.0
0.0
0.0
0.0
0.0
0.0
0.0
0.0
0.0
0.0
0.0
0.0
0.0
0.0
0.0
0.0
0.0
0.0
0.0
0.0
0.0
0.0
0.0
0.0
0.0
0.0
0.0
0.0
0.0
0.0
0.0
0.0
0.0
0.0
0.0
0.0
0.0
0.0
0.0
0.0
0.0
0.0
0.0
0.0
0.0
0.0
0.0
0.0
0.0
0.0
0.0
0.0
0.0
0.0
0.0
0.0
0.0
0.0
0.0
0.0
0.0
0.0
0.0
0.0
0.0
0.0
0.0
0.0
0.0
0.0
0.0
0.0
0.0
0.0
0.0
0.0
0.0
0.0
0.0
0.0
0.0
0.0
0.0
0.0
0.0
0.0
0.0
0.0
0.0
0.0
0.0
0.0
0.0
0.0
0.0
0.0
0.0
0.0
0.0
0.0
0.0
0.0
0.0
0.0
0.0
0.0
0.0
0.0
0.0
0.0
0.0
0.0
0.0
0.0
0.0
0.0
0.0
0.0
0.0
0.0
0.0
0.0
0.0
0.0
0.0
0.0
-0.961755565377262
-0.961755565377262
-0.961755565377262
-0.961755565377262
0.0
0.0
0.0
0.0
0.0
0.0
0.0
0.0
0.0
0.0
0.0
0.0
0.0
0.0
0.0
0.0
0.0
0.0
0.0
0.0
0.0
0.0
0.0
0.0
0.0
0.0
0.0
0.0
0.0
0.0
0.0
0.0
0.0
0.0
0.0
0.0
0.0
0.0
0.0
0.0
0.0
0.0
0.0
0.0
0.0
0.0
0.0
0.0
0.0
0.0
0.0
0.0
0.0
0.0
0.0
0.0
0.0
0.0
0.0
0.0
0.0
0.0
0.0
0.0
0.0
0.0
0.0
0.0
0.0
0.0
0.0
0.0
0.0
0.0
0.0
0.0
0.0
0.0
0.0
0.0
0.0
0.0
0.0
0.0
0.0
0.0
0.0
0.0
0.0
0.0
0.0
0.0
0.0
0.0
0.0
0.0
0.0
0.0
0.0
0.0
0.0
0.0
0.0
0.0
0.0
0.0
0.0
0.0
0.0
0.0
0.0
0.0
0.0
0.0
0.0
0.0
0.0
0.0
0.0
0.0
0.0
0.0
0.0
0.0
0.0
0.0
0.0
0.0
0.0
0.0
0.0
0.0
0.0
0.0
0.0
0.0
0.0
0.0
0.0
0.0
0.0
0.0
0.0
0.0
0.0
0.0
0.0
0.0
0.0
0.0
0.0
0.0
0.0
0.0
0.0
0.0
0.0
0.0
0.0
0.0
0.0
0.0
0.0
0.0
0.0
0.0
0.0
0.0
0.0
0.0
0.0
0.0
0.0
0.0
0.0
0.0
0.0
-0.36947068591180704
-0.1108592913034287
-0.3459622081877689
-0.3459622081877689
-0.26759709991357095
-0.7112567744509796
-0.5650288630152452
-0.525614034596764
-0.19470720711772738
0.14078914275763543
0.05748686852002877
0.05055000957549761
0.3568537193983296
-0.45012331972868386
-0.3805260768272368
-0.4217690446010914
-0.6952933355002302
0.0
0.0
0.0
0.0
0.0
0.0
0.0
-0.17837519097384533
-0.43265115505804674
-0.43265115505804674
-0.43265115505804674
-0.2755405982516616
0.0
0.0
0.0
0.0
0.0
0.0
0.0
0.0
0.0
0.0
0.0
0.0
