# vtk DataFile Version 3.0
vtk output
ASCII
DATASET POLYDATA
POINTS 5568 float
7.212167599530285 0.26484053657341866 -21.13904333467138
7.316158336986875 0.3390256191229227 -20.40718759864397
7.446439975290348 0.4032862927087233 -19.644841761253424
7.5965844026445986 0.45795854000643194 -18.854497555406127
7.739600693962359 0.5066008636784468 -18.013798969757627
7.81136089025338 0.5498358800418719 -17.173171847605435
7.798945102744365 0.5959341343012853 -16.345247148287612
7.6941654612827355 0.6349804255902545 -15.566623681718426
7.469518973350562 0.6678647307433008 -14.839486631028958
7.126481864113579 0.7058747024900647 -14.185305683176056
6.679675466969578 0.7580321015034602 -13.583890534183562
6.136825304450548 0.8295802547637567 -13.03033162957076
5.518272156623783 0.9218221107946418 -12.530224177220644
4.841341415928033 1.0308523317710188 -12.080063995140767
4.120465302441792 1.1504141773134096 -11.674902228778171
3.3697153913661073 1.273370274926433 -11.30853922035791
2.6019690702872147 1.3928540596401204 -10.971493221273388
1.8267113988680928 1.5027500765945048 -10.6524236048577
1.0533433613960534 1.5974625982337256 -10.339096565291566
0.2897987927858823 1.6711614294211237 -10.017045952703374
-0.45886866057219955 1.719339519286353 -9.67238486422373
-1.1836984067989733 1.738187657476542 -9.293752514117346
-1.8766641435965803 1.7251484629087184 -8.872381948681934
-2.52908651923104 1.6803588461787615 -8.399674573184228
-3.132308017260469 1.60440981207221 -7.870612271187766
-3.6804407168441466 1.5041098013548213 -7.283602621517648
-4.15652961664891 1.3815630651667576 -6.638018449195358
-4.551833317448614 1.2388155714405422 -5.940882070957719
-4.874013837501527 1.073823898253639 -5.19127429160154
-5.108423376548119 0.8970945411832933 -4.412342059205875
-5.250395100927416 0.6894189702074542 -3.594632117355581
-5.306644135156272 0.4825483511265438 -2.7702448022560215
-5.280118751276202 0.2746954777429049 -1.949926604066321
-5.183317463723494 0.07164371746454667 -1.1550625296908343
-5.029481748428708 -0.11402667835029592 -0.36781437329281164
-4.874636276374857 -0.2397975468011247 0.32190153781834874
-4.706897206651544 -0.30000050488564817 1.0341040914007724
-4.54108123062243 -0.31004840834749864 1.833622594831334
-4.404753980608164 -0.19930056279187364 2.7655100744342183
-4.40187183743787 -0.12806436280772696 3.7673958545890445
-4.506866930584134 0.08480630402116471 4.934828829101657
-4.651473437808721 0.25290662933477426 5.883650589486974
-4.68592838666267 0.18272999728498673 6.3644509728518415
-4.702907152854331 0.007737199556532848 6.804931665583212
-4.6533983358346696 -0.4187968740707414 7.043748007879511
-4.445370507193203 -1.1131949837044828 7.168043823499168
-4.207902668676366 -1.7317823401424033 7.292957760724959
-3.8688816332856253 -2.39904120372844 7.368071823360666
-3.455523734898861 -3.0161297846955577 7.448024838216531
-2.96099213262322 -3.5512419109218607 7.559612425226197
-2.4035446120551773 -3.9735810842215957 7.719666315098256
-1.7939233312599767 -4.287297644838211 7.940218557752811
-1.2094383548069811 -4.474664805127808 8.23216010746219
-0.5474739192416906 -4.554421173511915 8.565486022784656
0.15349365229628098 -4.5651319676430955 8.935155145820392
0.874082879727967 -4.501601761615467 9.316573595423952
1.6102750736709535 -4.365055238622581 9.691513198687703
2.3740081815469596 -4.152882577935578 10.045207718217492
3.1610717457706934 -3.854077791455689 10.356176903087942
3.9828135090504118 -3.4541529868299077 10.591152504116055
4.749315072379629 -3.012773018600405 10.717165829445904
5.465071676472228 -2.531562787725454 10.741913360080536
6.119497979821762 -2.029883625173172 10.684731726598136
6.702469588700889 -1.5225427226643964 10.555647376557879
6.525744648823069 0.4688385079752475 -19.456992608208626
6.605141690548408 0.4104425640367043 -18.876726644457243
6.680365177678122 0.34127319294710584 -18.29899723066571
6.74807387334156 0.266241856855748 -17.725235871737098
6.800367735287933 0.19152552638067355 -17.141201598355902
6.812240136959736 0.1275383527373865 -16.570939638986662
6.77993790991095 0.08333699164062455 -16.02347834983913
6.702240272161062 0.05974865269792815 -15.482785658677935
6.5716956678472815 0.05597628632368245 -14.949537216427922
6.394839273294104 0.06369634749532976 -14.45738138183184
6.169371420083205 0.08128033079171085 -13.98672018106362
5.894188934551899 0.11243655058055634 -13.53348801862093
5.56932095502551 0.15841286362273196 -13.095100530407208
5.187414038263524 0.22018229639910886 -12.662834009789051
4.743375616074225 0.3002724332775191 -12.235832781240205
4.234752489288044 0.40042867811405836 -11.817021914902373
3.6595116080396015 0.5192341793139602 -11.408045260325768
3.02936317193381 0.6524832568229464 -11.013638171199988
2.3646923172212393 0.7906482464890587 -10.635112494169931
1.687985825094516 0.9225659131601274 -10.269942074635596
1.0251644634572286 1.0372837476759844 -9.912150460024172
0.3904968609177326 1.129431526261929 -9.554325604073874
-0.20584598197278936 1.1963986013393995 -9.189989904094713
-0.7543199576113625 1.2397021706480265 -8.811576214752389
-1.2521277968571531 1.2596306746718586 -8.41413079991066
-1.6996673970849385 1.259423862219476 -7.997021666997332
-2.095505836876515 1.2403638468897786 -7.557068615896289
-2.438225729658822 1.2023346342041767 -7.098143136455649
-2.737038519761224 1.1460458724588707 -6.61371842032043
-2.985988273869203 1.0508160424561868 -6.098173718211738
-3.1891346517022696 0.9455740755466853 -5.528827912851853
-3.350823176635072 0.8428924994865686 -4.916558982132476
-3.4605245470361323 0.7353560682941563 -4.257216887114013
-3.5125791926162075 0.6733002126781228 -3.5790432486782864
-3.5516680318301033 0.5858841174000269 -2.853767885741575
-3.5407107900486774 0.5966640663305126 -2.1758128779679415
-3.479488946257105 0.6055594113688283 -1.4532784901987434
-3.432319743616512 0.46739315622759936 -0.6972323335213243
-3.430433138677735 0.36376243937953295 0.003678624218372284
-3.411293691778217 0.3228444387178045 0.6950708400844019
-3.4680515589320793 0.2055818375929403 1.2537553850992023
-3.49895231337667 0.25835781596380947 1.7810780846737004
-3.52367593594995 0.40905550485210773 2.3197001789306584
-3.518390985876566 0.3078283788452556 2.5310459325285577
-3.5032695268989262 0.01786904162012487 2.7329044123268815
-3.397222442923453 -0.5376032877056012 2.8780539774198823
-3.2558530729024002 -1.0629185170814361 3.060683701523855
-3.0015488633228316 -1.655901073620871 3.1942054194448146
-2.6685719185001466 -2.2188006304863714 3.34551079007387
-2.2554401010640897 -2.7214690363929352 3.529378225637548
-1.7725378372398697 -3.1343854569603087 3.760609350723009
-1.2355821488418464 -3.450738144870278 4.044781962642805
-0.7054817149507973 -3.654460526998626 4.381912512107365
-0.11093531112568422 -3.755233425297445 4.747013677073562
0.5197236084538338 -3.7896870753568686 5.131199570854428
1.1834293204801258 -3.7531968759035 5.516683846208572
1.8807845265161207 -3.6398410522882325 5.885602020390571
2.6176814269690034 -3.443659914149323 6.226962175250022
3.3837574902079606 -3.167984549088228 6.514244644807125
4.1647617671280734 -2.8218876712376217 6.729078802483992
4.919434425481892 -2.427189342245411 6.860803812703417
5.638193621377934 -1.9925266547022034 6.915689026184812
6.305159689363865 -1.5393549531999466 6.907284081831703
6.912329840245998 -1.0800263631656544 6.848689473427701
7.3836324363759385 0.2138829180275632 -21.55921074469446
7.494849994195074 0.3265666048525851 -20.782724612523513
7.641443112607681 0.43056722695675936 -19.965956395944012
7.816412381413277 0.5248342876431813 -19.111557945896116
7.987105529710731 0.6119702054404211 -18.195131214745704
8.077296123701577 0.688896061535881 -17.275501887332847
8.071411453828137 0.763538601418011 -16.36635119116242
7.959148625305569 0.8217871385305677 -15.520660459738798
7.707466656190904 0.8656209565332667 -14.739841680484203
7.315362642329139 0.9127448962984563 -14.040044379081557
6.801789457557603 0.9754342723773535 -13.40115654755179
6.176764939619574 1.0594368907143807 -12.818623115473017
5.467325705866994 1.1660163262838688 -12.30083032190211
4.699455283711093 1.2896136644306146 -11.84570491411639
3.894257879495578 1.4212145681599944 -11.446741633924248
3.0710719221760514 1.5511285413696232 -11.094683144227552
2.24701093939311 1.6712135493976623 -10.77652734635896
1.4301559490474955 1.77518756513878 -10.476678947333868
0.6261212677033836 1.8587303908317199 -10.179649695605965
-0.16157322307525235 1.9174048486202515 -9.86819413010452
-0.9338302130032968 1.948143311990777 -9.526523978816059
-1.6833292508420281 1.9473960079804695 -9.142038573405221
-2.4028144058262457 1.9124614217161622 -8.705012649542262
-3.0839829397951712 1.8429203508290366 -8.206137642277042
-3.7165197664708405 1.739378164594327 -7.640032134337196
-4.292609445862451 1.609665003915703 -7.004589426868995
-4.790774137730896 1.4562593002818611 -6.2996441832781045
-5.199931493225092 1.2818983751400908 -5.53291983074948
-5.527109328831674 1.083837250859709 -4.705194800781206
-5.755321343906365 0.8828887163874221 -3.8494580533243683
-5.877826495224541 0.6446771143986983 -2.9591622116514262
-5.902500215431218 0.40688003507021114 -2.0722333019082777
-5.836629874982128 0.16967633961413356 -1.2038406340225838
-5.697116264066873 -0.07445349493055611 -0.3714838284150058
-5.489536957562937 -0.2884489876459202 0.4395875027803581
-5.2952637376161436 -0.45139729844017806 1.1401901996893924
-5.099803437834101 -0.5293562663458009 1.8531042407394445
-4.901885181075153 -0.506040551191026 2.6694692188284996
-4.724331158522712 -0.3300297063818093 3.675307694923595
-4.726581266559549 -0.22418295946370803 4.765987892082086
-4.847469686410038 0.11216601949632615 6.138575411760848
-5.029134462563486 0.3172595937140792 7.21335906255241
-5.066841991999337 0.1931013353435917 7.693942256055267
-5.091672452246008 -0.0033432039171130135 8.205019270373478
-5.0319796927172264 -0.4687393734924957 8.453501191284104
[...]
CELL_DATA 87
SCALARS quad_param_group int 1
LOOKUP_TABLE default
3
3
3
2
2
2
3
3
2
3
1
1
3
0
2
0
1
3
3
3
1
0
2
0
1
2
2
0
3
2
3
1
0
1
2
2
2
1
1
0
0
1
3
0
3
0
0
2
3
3
1
3
2
2
3
0
0
0
2
1
1
0
0
0
3
0
1
1
2
2
2
3
0
0
1
3
3
3
1
0
0
0
0
1
2
1
3
SCALARS single_component_feature float 1
LOOKUP_TABLE default
-0.24542458843567141
0.08198388316597646
-0.3272094997752788
-0.18896046900549152
0.09651555601430684
-0.19807718724580295
-0.06546424784626623
-0.29660815172859767
-0.30762113480999215
-0.37961780250414373
0.08257467978079233
0.4656717808753408
0.15544249550253691
0.1804937218388556
0.16860866127963503
0.271512199609676
0.44907958814686066
-0.27967237789620336
-0.06099923501214055
-0.10121647297914682
0.12054587945429918
-0.17900062126228447
-0.1499703007686397
0.22027420995617988
-0.16656854824058698
0.7160504823499024
0.7875624750766516
0.7432260274012137
0.11544747121707225
-0.33638978702548117
-0.4053247517612175
-0.29123370938707793
-0.24805160379359367
0.05841414037091514
-0.061929289811202146
0.6622737702436597
0.2725826393604791
-0.19389092577217826
-0.17998339869429478
0.4783920774104923
0.7088057167982539
-0.26225945442116194
-0.07162695995836788
0.3218578149421579
-0.08677568268350894
-0.007162341615668467
0.05045339414495176
-0.30180057762642376
-0.29479210469956474
-0.362972346356582
-0.4001886739352405
-0.2842977627726554
-0.28604591578995947
-0.16818970616717951
-0.08262566548141409
0.00016993713764691665
0.2754479048133875
0.04099747939852118
0.05911826427237105
0.34545349850662005
0.2550608606247603
0.29427882716116693
0.41391166288788017
0.506565764706548
-0.3198305272959912
-0.22365401704080368
-0.10520350811754078
0.1264027251906712
-0.26832731464747417
-0.1409200492665708
-0.28870442321556744
-0.09246521029618705
0.5876782239603687
0.5860690515439781
-0.3313500237772227
-0.3425276324304945
-0.20108209252324674
-0.3897395628210396
-0.12503689405935994
-0.164406837448976
-0.0785752878667057
-0.02774838486188004
-0.07477750241324257
0.4399150065292723
-0.10029702780416239
-0.3305725329693068
-0.2616677475546107
POINT_DATA 5568
SCALARS single_curvature float 1
LOOKUP_TABLE default
0.023306625481686327
0.04820567326515547
0.06870699888550635
0.10107018033170298
0.1501178236532523
0.1875315460465238
0.2072208008351362
0.21002308601689124
0.19034194849287908
0.15590692022404815
0.12726634633489953
0.1018127916777225
0.07838741294588238
0.05812006494550445
0.04165429323656419
0.03336341733318652
0.035035178347052595
0.04628533316459375
0.06432787903657834
0.08360640183362647
0.10113104321924075
0.11388948873454485
0.12629920887007123
0.13504242810089656
0.13622149926222452
0.13803009298536878
0.13634298310806037
0.12928406987974833
0.1258739914681274
0.1190597444608069
0.106969016692506
0.1006313050630313
0.10314471637073495
0.09707672415167817
0.10698470869543904
0.11851070442407599
0.11223670435464225
0.11079579134297828
0.3880620767101317
0.4628572458304169
0.6585997626161685
0.6934409459728984
0.5041482566924936
0.436845391518605
0.19168070380570845
0.1643046551870286
0.1992763265190307
0.22294320145449262
0.2589582337442924
0.2564692499077552
0.22005873867800796
0.18404207667039443
0.13236929107155662
0.10558574960492977
0.10619875918139177
0.11265364486168584
0.12518413628610284
0.13931534928487924
0.14676096164285585
0.1515062001735117
0.11401085643758173
0.07651551270165174
0.03902016896572176
0.0015248252297917764
0.0271760691216052
0.058329327912835176
0.0900523397572114
0.12470815704938545
0.159327414884552
0.18109559597822852
0.1899175751883474
0.19475040224329151
0.1900454123451192
0.1729201836672108
0.1553544790309898
0.13635677855288666
0.11782676162552587
0.10057815124440998
0.0820395891400574
0.062181794073401596
0.04523389595758657
0.03780066944604297
0.042195566664007866
0.0593180145705249
0.08466727994200561
0.1085977708371695
0.1317932500115363
0.15017570955173712
0.15939813883956994
0.1752471561697525
0.17525238663783
0.1633080374586221
0.15449474131865182
0.14351976716569398
0.11496022966899419
0.14359139781861563
0.13364528814221288
0.15193549624868805
0.1658515388099835
0.13960851130594623
0.2167221900832053
0.30565812890506777
0.34771595703294533
0.9649764767574861
0.9728596573124667
0.9695119033765377
0.967780712681896
0.40662890213015557
0.24214388337150955
0.20581476072296248
0.2268481576987214
0.2312553479702523
0.25413841600430664
0.2534620353676151
0.21960099991648524
0.18664284090870714
0.14782357366491466
0.12247519355390242
0.12306788225453875
0.12494471152083514
0.12709956069914757
0.12906041990518502
0.12712813785247307
0.1240019822757632
0.09109973334671541
0.058197484417667616
0.025295235488619824
-0.007607013440427968
0.024916166086852543
0.04844318787691626
0.0661233718459466
0.09703361031325111
0.14727137476057017
0.18540071973114394
0.20511425765552466
0.20607982609912842
0.1833799564118652
0.14775376029240514
0.1192673807899896
0.09471977871866123
0.07211006523136333
0.05275159787393185
0.03886217172617097
0.034269686256850465
0.039242209825273267
0.05287067240279618
0.07079620551938277
0.08785618123660584
0.10271437017743819
0.1126475143073636
0.12250231905861145
0.12920588839915065
0.12898464171242416
0.12973720724467794
0.12820840406079678
0.12252683140690855
0.12057774977057373
0.11527653577709597
0.10812921596698706
0.09315576201757554
0.10373969137370061
0.11352132842577876
0.11820405954949258
0.14469217844038226
0.12864277672639535
0.12023209307436562
0.5182961954342946
0.5241000319639726
0.7081609649792497
0.7338009056851352
0.44842557764238483
0.43805380041365494
0.18240595933880643
0.15665119560635693
0.19240697169904236
0.21948051885212103
0.25850053223851743
0.2558994336458035
0.21960577459498404
0.18354744721955737
0.12928330266282337
0.10232764929235309
0.10284779504770014
0.11003781971850264
0.12478917355948234
0.14172984101448552
0.15118128615494208
0.15765723261971526
0.11907061323233777
0.08048399384496027
0.04189737445758278
0.0033107550702052846
0.02204047914742964
0.04792676385080397
0.07063429916621046
0.10408763778696083
0.15182153569303275
0.18821647808201925
0.20748877876116323
0.21148226733583783
0.1941359115139973
0.16104966997187728
0.13276436203069095
0.1070788155198327
0.0834703575677158
0.06306313508364958
0.04536229857523186
0.034385105976066206
0.03339585018194886
0.042360070315752875
0.059654210178004194
0.08022224056686388
0.09954342564143796
0.1143050017389996
0.12855914163796062
0.13882598181189248
0.14111464523545
0.1440198161030533
0.14228709308933846
0.134240860468896
0.12978291661452032
0.12210959550200255
0.10636849379621668
0.10635040105229551
0.10361072111734383
0.08608575654540157
0.09924283527518707
0.0991122301798077
0.09926252662843184
0.1080604620690557
0.29312671647660404
0.4477039859547812
0.6414258745828024
0.6787766110879109
0.5599575053342288
0.4348035642712271
0.19889839058408468
0.17027701375559656
0.20404262897864764
0.22504514460129046
0.2589021022770228
0.25656312901598327
0.22023610511042327
0.18440684244948194
0.13467881008946803
0.10805243302332143
0.10870964164960137
0.11456735419932802
0.12547534639132063
0.13760949793119034
0.14358764574018376
0.14706786637745228
0.1103399586939284
0.07361205101040452
0.03688414332688064
0.00015623564335676132
0.028812960314281977
0.06027821067290093
0.09205488004692518
0.126352400893772
0.16002349580568348
0.1803802658603606
0.1880476194794925
0.19241157398144973
0.18828852961313777
0.17262702056114598
0.15622238079358106
0.13808215742295696
0.1201579767518266
0.10319543961676451
0.08465907742477602
0.06456731455502586
0.04675511959293176
0.038270863293274664
0.04170029502904408
0.0580899185451828
0.08347162225423488
0.10780375393803768
0.13143208469020454
0.1502528751377702
0.15991206533835212
0.1769967611984363
0.1772614510689267
0.1652226992599093
0.15627237708565128
0.14495290717557432
0.1163701238420114
0.14624791246787527
0.13706908868481002
0.15794776051245277
0.1712375258678657
0.1477823731154079
0.2352549201222981
0.33372598130528963
0.3787393680101034
0.9777577182233521
0.9821757372532065
0.9793721881529831
0.9780533362745899
0.40411222153892823
0.24478076897893505
0.20794564981833435
0.2280544380753662
0.2313867268194231
0.25366737701588465
0.25312763382382736
0.21950060769170257
0.1867933293750479
0.14862413778248804
0.12337269413938087
0.12394774748179027
0.12555606245712547
0.12719832575706766
0.1285886465162518
0.12619496202369773
0.12270168559353227
0.09001044874306526
0.05731921189259824
0.024627975042131225
-0.00806326180833579
0.02224800286997156
0.04797261174906069
0.07031072292917546
0.10358416799633176
0.15156077444897356
0.18815407616377539
0.2075205574188843
0.21132970125676614
0.19359318903975703
0.16025559697327765
0.1318823730352077
0.10620787983594715
0.0826053558107173
0.06219575958136004
0.04465544995166439
0.03411438702013329
0.033575732362605935
0.04294254194120576
0.06041371656473521
0.0807941072571599
0.09982954910765926
0.11426586454682189
0.1282186040652788
0.1382334888411837
0.14033491109773755
0.1430384870236639
0.14130830766749758
0.13342222551204005
0.12913444128407275
0.12158777185567408
0.1064436621728947
0.10539453761741326
0.10347093453565592
0.08767416399558663
0.1003416220357568
0.10215565728819824
0.10128611723315391
0.10792668410264608
0.30786968738761344
0.4474520554288052
0.6423379551958258
0.6797914233449539
0.5498028046865249
0.43520661954755374
0.1976870649571286
0.16927417326358776
0.20327224156974363
0.22472269642778786
0.2589322657756723
0.2565648515191171
0.22021490339185076
0.18434630616655917
0.1342959230222684
0.10764192761549024
0.10829319445825815
0.11425245280090163
0.12542728693302516
0.13788697070712838
0.1441065370178061
0.1477945419401928
0.11094196803899821
0.07408939413780363
0.037236820236609056
0.0003842463354144787
0.01996459320221925
0.048133429848820554
0.07606839935707445
0.11178353882121152
0.15493311254864867
0.18704944746320296
0.20371540097400048
0.20960728989553148
0.19795965132065307
0.16983521396776263
0.14420877279622396
0.11965093930038265
0.09699367404466623
0.07740051808723081
0.05877295797680267
0.042397430025048866
0.03457984610493744
0.03699601459698029
0.04990361343814661
0.07151890918413462
0.0944010093563309
0.11355966831782739
0.13196948140048131
0.14583632333573407
0.15096907505828275
0.15781556356542426
0.15632668800412206
0.14618093334534968
0.13946888832955448
0.13046279543571804
0.10688490094221807
0.12077673954103894
0.10954526770095545
0.10030495744637191
0.11769769407944342
0.09127182961235537
0.10779091274180504
0.13777661001509134
0.15337612341065457
0.5986113781887646
0.7322595522367434
0.7487548360894883
0.7441525671709512
0.42615483821070155
0.21699777577276075
0.18524626509070824
0.21448220366981988
0.2287216562944476
0.2576706156882227
0.25588683448697597
0.22024532904814834
0.18530730212094956
0.14024706803169334
0.11408703372940467
0.11477519510409388
0.1190548642783209
0.12616709946763402
0.13377947930781517
0.13632297669066626
0.13687548338785868
0.10186370676822831
0.06685193014859794
0.031840153528967574
-0.003171623090662795
0.024356115871020025
0.048388628259934535
0.06707150033984477
0.09850707448622378
0.1483878225498391
0.1863410495997425
0.20611269906322238
0.20777124296000785
0.18614927033235482
0.15087571572333583
0.12225321050048707
0.09730097645316292
0.07431779380027534
0.05451871551929187
0.03959089985085094
0.033651349404646376
0.037464990677158826
0.0503356668111384
0.06843226286550955
0.08635416840613479
0.10221398051824286
0.11319086443212786
0.12398325138483494
0.1314258110737325
0.13170058507846016
0.13278619342032294
0.13118883001533163
0.1250024917161702
0.1225177656844617
0.11662098676426827
0.10768493297022523
0.09584121648692104
0.1033766393809792
0.10749963726903307
0.11416886906116755
0.13534920560436728
0.12300182841648048
0.11679033156992359
0.47266184836105224
0.4989104877665231
0.6885752056698071
0.7177171280276179
0.46634612318169166
0.4378255855507612
0.18571781668124154
0.15938037737375343
0.1949710480505925
0.2208311055271785
0.2587447728175231
0.25617169375586557
0.21980253311825224
0.18372892919214998
0.13040241514057957
0.1035038237008242
0.10406241618562824
0.11099482984207845
0.12493327897171029
0.14083452211232494
0.14955227725683895
0.15539570112202813
0.11721453470159346
0.07903336828115878
0.04085220186072411
0.002671035440289432
0.02456398463497162
0.0484135006937861
0.0667283062369295
0.09797234759329354
0.14799291200173262
0.1860211542515514
0.20578021251619677
0.20718952045679107
0.18517247270977422
0.1497601046416192
0.12117682384081112
0.0963621516051028
0.07350461753937719
0.05385047240544813
0.039289007892714736
0.03383975541907948
0.03808081358627281
0.05124219590222594
0.06929152974652125
0.08690664824616753
0.10240619078655572
0.11300540887973493
0.12345769424150219
0.1306309160810541
0.13072340195407817
0.1316814265464742
0.13010768492698696
0.12410467417074278
0.12181444433059849
0.11612872630920863
0.10784558626158312
0.09485873369352153
0.10348946027835478
0.1096896864093328
0.115645558953436
0.1387779087464617
0.1251016421869949
0.11807284454054234
0.489614664054125
0.5078529831340083
0.6956168966374245
0.7234763338089845
0.45953194193939106
0.4379372596545689
0.18450469192977098
0.15838014655647686
0.19404730379684548
0.22035237999274818
0.2586667830367156
0.25608175371096725
0.2197354847594536
0.18366320766060612
0.12999479594649765
0.10307468506873063
0.10361992607606993
0.11064741056922237
0.12488091355471834
0.14115787418065961
0.1501420094552238
0.1562152145144104
0.11788773247839779
0.07956025044238518
0.04123276840637258
0.002905286370359972
0.025742184607623498
0.04842512710666805
0.06452974030625101
0.09458778414937642
0.14522692705280574
0.1834440691032918
0.2029094259339906
0.20269690949337493
0.17829521133560378
0.1422858534558895
0.11420773802820595
0.09049473511089619
0.06868586082549726
0.05033871003695714
0.03832152692322375
0.03592014294195072
0.04267407514565737
0.05725588908607271
0.07466163738170414
0.0901935026518246
0.1033390123999558
0.11152949941785248
0.11983533546047864
0.12534228835073724
0.12434584142107445
0.12466701027497168
0.12327235190459923
0.1184178110693464
0.117347407578887
0.11311252636261972
0.10883084729340545
0.0889464041170314
0.10474855393460929
0.12337889533054533
0.12468184791915712
0.15933573716521893
0.1369411028761771
0.12502215889566126
0.5846020166413706
0.567000842592828
0.7400473120677874
0.760402441212774
0.42478073522811544
0.4378751625881659
0.1771442328836778
0.15232520099541236
0.18803782715970777
0.2170252527583374
0.2578859737155072
0.2552732820266472
0.21919288675003634
0.18324287687241086
0.12746396861469703
0.10042983961271051
0.10087496111861707
0.10845962969267978
0.1245524983007152
0.14323968695623066
0.15390019602668592
0.16141462061082265
0.12214174302923118
0.08286886544763972
0.04359598786604825
0.004323110284456783
0.027239588514730628
0.05840546377132864
0.09013173855726006
0.12477331176296895
0.15935408420121025
0.18106637755875749
0.18984294797921503
0.19465841192137776
0.18997780392559283
0.17291062602766175
0.1553907137115623
0.13642670312732225
0.11792059644640472
0.10068346363234103
0.08214508567780196
0.06227766009763118
0.04529423961912229
0.03781847665151955
0.04217449643074334
0.0592679186804035
0.0846195191738319
0.1085666852779313
0.13177996341879614
0.15018031046770997
0.15942039819337733
0.17531823957795242
0.1753335341697164
0.16338496972215494
0.15456578217268385
0.14357762263361737
0.11501555573865016
0.14369827315143627
0.13378184763925935
0.15217798016127398
0.1660677101747976
0.13993035500894585
0.2174489873389051
0.30675878344899155
0.34895947576975256
0.9655826803892735
0.9732947429015462
0.9699658777006811
0.9682507327942839
0.40652863374616965
0.24225063906599104
0.20590114526759867
0.22689725581162884
0.23126111724633547
0.25411969496660425
0.2534487718181271
0.21959704379514622
0.18664888740299526
0.14785593536926347
0.12251143330984597
0.12310343408709416
0.12496945905481946
0.1271035506639363
0.12904125900556182
0.12709028562367897
0.12394920812960092
0.09105552817225092
0.05816184821490092
0.02526816825755092
-0.007625511699799081
0.10820752953764766
0.14782330853346734
0.17400827000857338
0.22386727931238387
0.27023462261556014
0.2686368068992775
0.2211972686736218
0.15996246635051337
0.11879499398420579
0.12669888896870382
0.16074281543166252
0.1819122493121524
0.1894702259356653
0.181272040067568
0.1613469089144677
0.13498686369255616
0.1036983355310563
0.07476622286162793
0.051465324401992474
0.03939346037077244
0.04584097309214375
0.06325013820828887
0.08873662392774367
0.1163416262518502
0.13808453777513732
0.21961593149537068
0.23903857840519693
0.2340570622523419
0.23020830267372827
0.18350965994029914
0.16040496493685236
0.20474714614809375
0.22170213585938373
0.2926830493743505
0.34065984744758643
0.518472901173029
0.7136448313951274
0.9936302007000384
0.9931520620142178
1.0
1.0
1.0
1.0
0.34491441599259764
0.3144763352417199
0.2611870464470054
0.25716552347916233
0.22702228621118245
0.2346665063520099
0.23922811389170953
0.2149951604093457
0.19203260593664315
0.17195259474592292
0.15041924014242286
0.15008179550241213
0.1429397218153002
0.13024567855842467
0.11650877095776042
0.10143220425452931
0.08919024345738535
0.0619693605191948
0.034748477581004245
0.00752759464281369
-0.019693288295376865
0.036921608589544526
0.0696882460213042
0.10119769190235954
0.13404520737182635
0.1639847990793364
0.17782334306529052
0.17995478284662123
0.18138650502192702
0.17908775475469685
0.170142407722421
0.15921246913839807
0.1451780314254369
0.13008909700401453
0.114357801611322
0.09577180623763581
0.0747538644936064
0.053704762421135636
0.04088875655024881
0.040219773297404816
0.053273336996662084
0.07818180732590078
0.10392109048093602
0.12917867212153056
0.14972960080425493
0.16120547872963856
0.18409711368816029
0.1856952503587364
0.17349588965096416
0.1641794917899009
0.1509501990207429
0.12295835955415216
0.1574077394245433
0.15194902001678254
0.18292321606491807
0.19488544179474238
0.18661481327500767
0.32341463342967713
0.46705438934975385
0.5126459887848844
0.9981451251440038
0.9982449625841417
0.9976353248394645
0.9974550346297697
0.39288155311043016
0.2556804066722034
0.21668621095015755
0.23291341344180935
0.23169154475344364
0.2515325205497196
0.251598275027774
0.21902865904793004
0.18744258989174062
0.15196725809462297
0.12714298176789285
0.12763129320773195
0.1280914896132724
0.12761261364021956
0.12666652069928394
0.12236744867817619
0.11738694350993785
0.08555628230012753
0.05372562109031721
0.021894959880506895
-0.009935701329303423
0.041015413292887694
0.07435273049335908
0.10556791306121041
0.13791194908610516
0.1664419256297617
0.17713179459643183
0.17646660103575795
0.1760530037253762
0.17414257819948897
0.16842795246843928
0.16020978574611947
0.14823057606983278
0.13452842021179276
0.11934944373511834
0.10071039793960526
0.07929171702936824
0.057026932217710276
0.042361763023615585
0.03987003639600145
0.051347202036428764
0.07572771934817789
0.10192588192244303
0.1278003132911321
0.14905578052485183
0.16132195542422614
0.18710468033194258
0.1894245358333308
0.1772804815953986
0.1679146249364337
0.15357043787179503
0.1260580165434759
0.16220077684538994
0.15851767131236308
0.19356771409208048
0.20597573413197354
0.20602492346439674
0.3659651228643649
0.5310177402147537
0.5721418558822943
0.9995732903631921
0.9995617719840969
0.9993578786662073
0.99931003621665
0.38766305964306913
0.2603953139459134
0.2204300841152384
0.2349611088434485
0.231708570819578
0.2505165461508606
0.2508647055978746
0.21879722687571745
0.18773838526062786
0.15343487262119876
0.1288094133282774
0.12925350820494522
0.12919670577052683
0.1277957514741023
0.12584577962793375
0.12072067875483895
0.1151109286157859
0.08364830063751777
0.05218567265924964
0.020723044680981517
-0.010739583297286609
0.039028203184530666
0.07209352182730885
0.10345892961958227
0.13602735339458877
0.16520503760369468
0.1774153829101257
0.17811128731376252
0.1786233159911576
0.17656562878886048
0.16929141478055618