# vtk DataFile Version 3.0
vtk output
ASCII
DATASET POLYDATA
POINTS 5568 float
6.5587876472796784 0.550640639879447 -19.729970017715456
6.657614654571713 0.5329531921813493 -19.113290416649647
6.760875166563594 0.5018324397312529 -18.50522461267202
6.863564025800547 0.45967560592354295 -17.90356469659272
6.951590015827696 0.40972824093526933 -17.297093199607353
6.989102463545413 0.3648820748488288 -16.710381415908024
6.973635761673032 0.3337508850891277 -16.124147652869144
6.894423663196139 0.31566955657622414 -15.55025664822628
6.745491640451814 0.3104317981088754 -14.969477127726584
6.536990407373731 0.31125086223580717 -14.434157072795838
6.266359222330882 0.31888736506766946 -13.929227947925877
5.9341441847574545 0.33756361839858573 -13.450740677430678
5.546006802389724 0.36954610480183026 -12.99846016158058
5.098364662073835 0.41488051443453555 -12.563557187319434
4.587474801093686 0.4756575230222006 -12.143682716569824
4.015985543608151 0.5524527702556837 -11.740463247438806
3.386843015297351 0.6430714071529817 -11.355303937222715
2.716513469517296 0.7425244536941957 -10.990301718417461
2.024988854343706 0.8421164622794491 -10.640480074362825
1.3298407171573343 0.9340128693219167 -10.300031901713638
0.6482474618964368 1.0124074008878485 -9.961801539382922
-0.00944204343580446 1.0742691316561754 -9.61700499679384
-0.6335567029762139 1.1176501296368162 -9.257854047454707
-1.2147630444606423 1.1447619493383967 -8.874518088307878
-1.7460406326544986 1.1553662804432305 -8.460236943806466
-2.2270153794239147 1.1530082922646339 -8.011629541533694
-2.6507511499256537 1.1398480060475837 -7.5241498116610535
-3.0129141270388424 1.1170423075774487 -7.002025252198658
-3.325710490433073 1.0844845619638381 -6.432597937082303
-3.5746916857460476 1.0315776947361772 -5.828673694602194
-3.7660788029338104 0.9799576664437677 -5.163457321946697
-3.890239918645337 0.920831567426728 -4.46172900629573
-3.9383791712095837 0.8628728185203391 -3.7344927234515124
-3.9085386217286007 0.8257874124393554 -2.997727335409494
-3.8602665081163043 0.7382308394994682 -2.2467717821154674
-3.7796932216213364 0.7503387900149574 -1.5381110283902824
-3.6875054644824745 0.6541803689805059 -0.8582044057677217
-3.590665552498254 0.546860100116983 -0.10306876899078343
-3.5328320451868 0.5060820697665467 0.6917109043351456
-3.4886902055826234 0.45897832770788616 1.4433082914318462
-3.580292087734496 0.4261169564867232 2.237994591176233
-3.6139220483094636 0.4186222694086049 2.67001318584338
-3.6343175736001454 0.4446643645745606 3.079925955817563
-3.6399710113374475 0.3170477239514591 3.386755394820938
-3.639830781256566 -0.036911829573713195 3.6230679395249736
-3.53263145827527 -0.6894991853192751 3.764883045449527
-3.400510080678531 -1.261613262664454 3.9698689399332627
-3.140919572150279 -1.9061891319047959 4.077938423071254
-2.803302092655222 -2.4964608233668963 4.201216936725502
-2.3847416742960528 -3.01621530509242 4.356565475684684
-1.8959260948202008 -3.4430311043599833 4.563869778562811
-1.3547371964080919 -3.774545752271263 4.833533550030089
-0.8426692751028041 -3.98723960267015 5.200465090918524
-0.24597642115275165 -4.073496045036488 5.582416867439714
0.399702510704796 -4.104663837065018 5.99329199817554
1.0831312814299157 -4.06277017626 6.410925791288588
1.7950041619912578 -3.9418064566342537 6.811256495721932
2.54308619872972 -3.7331459862995926 7.182177997626642
3.319434922604598 -3.431239786829878 7.492792068289224
4.108225018765359 -3.0424642795611847 7.719042468231093
4.864010270771521 -2.592743034851651 7.842101148181419
5.564326083745361 -2.102065716403985 7.872077440913752
6.2002510476306565 -1.5935625063885057 7.829937860343248
6.770618462128742 -1.0802238888299347 7.730127594293969
6.83944598658224 0.28202067012654164 -20.029576010384183
6.910297873100762 0.24358788656806807 -19.417543284172364
6.9816637793828 0.1961481085012829 -18.786810491823037
7.0501197643908915 0.14531418178270888 -18.143074061138226
7.105236667183086 0.09942700054035926 -17.464507836267025
7.116253584739081 0.06273201270246295 -16.786018192397894
7.074475406099329 0.04420773554652159 -16.14890809000058
6.985351484009475 0.04278921210767228 -15.53041514155373
6.83016768939384 0.05690639117004104 -14.953790679647101
6.6102949578526875 0.08515211606495886 -14.429671011312442
6.331924227650155 0.1282287974029359 -13.933560797652873
5.996613759051692 0.18996329314959623 -13.460303988383203
5.60710240614813 0.27069726601691224 -13.008208260719806
5.161849555344283 0.3702934128660094 -12.57098739859781
4.662305578954121 0.48774209905578175 -12.147702434394352
4.107948844674369 0.6218839747226865 -11.738728839431118
3.498671460759666 0.769339033677718 -11.34106465301009
2.8412562330993847 0.9255551090440624 -10.954255703431516
2.152145567162197 1.081808324984821 -10.57913035034856
1.4524096903559645 1.2260700450680269 -10.21033605545014
0.7672640482018687 1.3454259432262539 -9.839116905315118
0.11261697993657271 1.4330017084843119 -9.457826920420615
-0.5017521711322727 1.4857655176458602 -9.060622690334691
-1.0664119597025339 1.504113363977217 -8.642254896151675
-1.5801544088310522 1.4891323618562335 -8.19992327107984
-2.041536415734361 1.445504296523072 -7.735554162588405
-2.44777215379407 1.3738682444724823 -7.248547758455197
-2.797472206111507 1.2737346916541963 -6.743565808028415
-3.0964038640409224 1.1458800456138956 -6.221975098118139
-3.343163400257031 0.9707968017755852 -5.670191403451538
-3.534597215392994 0.764822019475445 -5.07543813499569
-3.6877609937406346 0.5710343952345078 -4.449855435525844
-3.797304356012617 0.3660373591020004 -3.7781042059348042
-3.861542215253433 0.21356747392888284 -3.102199656496833
-3.8959328873987746 0.07999282463749174 -2.379139638340681
-3.8836746229278893 0.023647103942588774 -1.732667707387992
-3.7999088130632748 0.11038527287665632 -0.9629348953134955
-3.745527628414767 0.005024292550267831 -0.19062217720508745
-3.7386914235693096 -0.0642695577434698 0.513878792155656
-3.752449698325956 -0.0493905990560492 1.2897855482658338
-3.7963088432275325 -0.12419570323503237 1.8616189570621575
-3.8773864687132336 0.07097328883865572 2.7199068542990985
-3.912122390081495 0.2446164365986126 3.361711551124686
-3.905178231494527 0.1364319365249237 3.5795228015904095
-3.8614520148952716 -0.15442262372628507 3.766562722706155
-3.711097319619651 -0.6814815834040304 3.905735235306553
-3.515357695070532 -1.2057186487853335 4.039858386033585
-3.2260525606512065 -1.783089923404434 4.170923291148143
-2.8592081524102713 -2.343762257971732 4.315966840141291
-2.4125346154357357 -2.843772913494858 4.493278159228217
-1.9000003079554975 -3.246033417736721 4.713197945787147
-1.332333853806147 -3.544895030405106 4.980046834683371
-0.7539097862813073 -3.7321182278988143 5.265402123063245
-0.12779148095514647 -3.8373713467949053 5.5976764256989
0.5225919757627191 -3.8635381768238712 5.94824040034668
1.194869851961188 -3.819202488540057 6.3000193508883395
1.89733408254529 -3.7019629291241114 6.640795986262953
2.63676706949737 -3.5102506593470024 6.9588648291887445
3.4032857329520145 -3.2492967154142685 7.234611708304581
4.197293607932844 -2.9194700416613157 7.448047907217739
4.95803993499401 -2.5560938055228575 7.5858610352934575
5.696112534158958 -2.1536603732326256 7.6510851691695105
6.390871914151064 -1.730935704897814 7.6525747301955285
7.025398417125335 -1.300978666981257 7.600402060115967
6.712810362561151 0.40322447108509274 -19.894391030895083
6.796212331504153 0.37413200194691426 -19.28049552736481
6.882054985309915 0.3341325238718728 -18.660320641071017
6.966186348287476 0.2872909804999263 -18.03605517754343
7.0365886983089325 0.23951169972949612 -17.3908474251948
7.060049188822816 0.19895818928920428 -16.754808277085314
7.030411997104127 0.1746098114851743 -16.141075275994357
6.945832318794018 0.16551526246443413 -15.542978110889752
6.79348871793199 0.1709076788690828 -14.964565454464427
6.57881193454178 0.18680461808258764 -14.435598303185202
6.3040735372193835 0.21389481032855343 -13.935776001556919
5.970390062517314 0.2561675767823584 -13.460486236616928
5.581813092428747 0.31480349030628996 -13.008670773746132
5.135884305349857 0.3897822727038494 -12.572894389653053
4.6316925876316555 0.4815618818821943 -12.151545137080152
4.070120001666382 0.5897484599314581 -11.74553410776768
3.4524068325607953 0.7114631849307789 -11.353843147845437
2.789659371020188 0.8418855681149031 -10.977196248268669
2.0999078996676763 0.9723209403342437 -10.613802092958611
1.4026261825980357 1.0926905101380544 -10.25809369312323
0.7193709062438616 1.1933708769412215 -9.902025500146927
0.06356280662679192 1.2692448892843602 -9.537429055631561
-0.5550195088635662 1.3177397372389779 -9.157598641947489
-1.1269438118127697 1.3400430690848684 -8.755230740504865
-1.6483688088981543 1.3366281617854436 -8.325778231672452
-2.1182704320529053 1.3116253998023313 -7.868822055296088
-2.5319235551547745 1.2663356834669055 -7.382135132014056
-2.8865282274379913 1.2010142909827715 -6.870453201508486
-3.1907043019897157 1.1157464215895239 -6.329240331010486
-3.437212482113352 0.995781364801654 -5.757076464914448
-3.627224533719788 0.8594347028141764 -5.135579257378696
-3.766719832729401 0.7261538919660113 -4.479984183936035
-3.848224035274454 0.587917324849718 -3.7880348974524103
-3.8705751591780464 0.487234184999654 -3.089062916252725
-3.8679670938557575 0.37448675440242746 -2.354994883463388
-3.8257613522551637 0.3482791297374054 -1.6824629844063919
-3.738683469148977 0.349817110264264 -0.9596386329212697
-3.6650879158749023 0.24360901377022046 -0.1954046703294534
-3.6359908237604297 0.18675369278086024 0.5485886310755637
-3.62343839510039 0.1734665329149296 1.3122979269363
-3.6872789153389975 0.11560493332437063 1.9793787566989947
-3.7441113011293132 0.20345568250084994 2.6230784087108505
-3.7717778579688246 0.3025747190532843 3.151335020450328
-3.770026897121782 0.18575973272588464 3.407234195279531
-3.7448838820399453 -0.13216544114259465 3.6153922541847754
[...]
CELL_DATA 87
SCALARS quad_param_group int 1
LOOKUP_TABLE default
3
3
3
2
2
2
3
3
2
3
1
1
3
0
2
0
1
3
3
3
1
0
2
0
1
2
2
0
3
2
3
1
0
1
2
2
2
1
1
0
0
1
3
0
3
0
0
2
3
3
1
3
2
2
3
0
0
0
2
1
1
0
0
0
3
0
1
1
2
2
2
3
0
0
1
3
3
3
1
0
0
0
0
1
2
1
3
SCALARS single_component_feature float 1
LOOKUP_TABLE default
-0.023504078150285605
0.0240086238744006
0.0025704557274073836
0.0038396752409413787
0.001270649794627314
-0.017516149679428557
-0.03830428633155624
0.0044709760997128836
0.018117100739106114
-0.003937249802775277
-0.04108880111213315
0.043755176304183574
0.01387610371968772
0.02394774856670884
0.012187217688514728
-0.08328422966457541
-0.003703695051096509
0.0176697128457768
0.03895985089516608
-0.032428578747325354
0.028265061006141096
-0.0378640029606314
-0.026732188657347222
0.09398483429201397
0.01711569748948457
-0.01077359075036679
-0.050661658294566626
-0.03389248075107939
-0.01734904379059423
-0.0026536149300801465
-0.014105146131942624
-0.01898756117043131
0.00990547685389432
-0.060689441841955204
-0.031691882064395764
0.006210381399898438
0.03095999508813877
0.02486401522073051
0.009596062575814667
0.08734948880357876
7.682777483025705e-05
-0.03223583225755648
0.02372999328292033
-0.029315119782192662
-0.05122395418295675
-0.03554511007825338
-0.06636526976904523
0.034684442090750583
0.017777549682449937
0.0592265238110167
0.025363332517701516
0.0344251899676981
0.0029747536590394794
-0.03688752626655573
0.019184234277404393
-0.08011445924737765
0.05216953175324507
0.014697716970045828
-0.02581251673757635
0.0027127641007579917
0.09891212785063688
0.04388383217141469
-0.026773491770061737
0.04677134159708712
-0.009572062994376363
0.06864064610769956
-0.022165839907423573
-0.03785706203211409
-0.027392439839694305
-0.003291670909072811
-0.055387122767932395
0.03895959241300676
-0.07298969998737502
-0.038087137664883926
0.017948529726366833
0.007626824053597832
0.06644347632689178
0.0210175960112104
-0.019214721963928184
0.02461943823201035
-0.038845404026943024
-0.010959439854331638
-0.00010569846004696839
0.09947353949251156
-0.022393467008135583
-0.04844654422555116
0.005905163519729306
POINT_DATA 5568
SCALARS single_curvature float 1
LOOKUP_TABLE default
0.028692391991290245
0.0640385135553365
0.09370193233837806
0.13469538353016494
0.1693126153526569
0.1880074402849669
0.20072917796694684
0.2004995086713743
0.19665059141373656
0.17775183697272254
0.15559078753511035
0.13232581120836284
0.11097334818640833
0.09196050450687993
0.07148360847910006
0.051517566918863764
0.03600894702509332
0.030244492093127653
0.03701247562622916
0.055726450811902875
0.08178318002841418
0.10653916961214767
0.13159287544771642
0.15120164489244514
0.15875695472743842
0.16691191148705806
0.16293446246427332
0.1548000566840821
0.15179264204992862
0.14531144419420397
0.1304151420229857
0.14701668579358984
0.168518686895154
0.13453119160297883
0.14340599607806961
0.0978885056501483
0.09069634832706723
0.13490639437041343
0.15758536055888928
0.5113358684504148
0.6457567838670539
0.6711499362676686
0.6744231986290161
0.446595712025236
0.26940077233369136
0.2393766956218749
0.24688313788258634
0.238912703249317
0.2743952946179376
0.282344631603541
0.2412481349975846
0.20616717345875013
0.14951308890521509
0.11258463990350727
0.12247791305457185
0.13018836801930792
0.13947654056232942
0.14724782173904
0.1472567220721058
0.14427770805494342
0.1056581042880577
0.067038500521172
0.028418896754286285
-0.010200707012599425
0.017164006582177815
0.04151810901692764
0.07214392009733651
0.10254123308216405
0.14590027864975186
0.18332270781886037
0.1981882838487991
0.20975253963011378
0.19626201615904498
0.16673077108374046
0.14306119022056185
0.12073895783538834
0.0996118982930554
0.08139318418644927
0.06486320763150023
0.04849481051262162
0.040338215732720215
0.04263389268600254
0.054938035919943035
0.07746348523092386
0.10083055833952843
0.11957290418121098
0.1362970658187376
0.14864818651047518
0.1547555901859601
0.16605348011421894
0.16669259464896496
0.15184837591183378
0.1374365408676194
0.12619847592073932
0.10571371986841777
0.12949713185831457
0.16153970440953264
0.20355979928783138
0.21146117153258306
0.19679342791431934
0.22991884117162215
0.21575240260423964
0.21641711426768198
0.967944581631732
0.9769507935937651
0.9781323882687974
0.9783537449788647
0.3969701834987164
0.19738338573535172
0.16213305939986575
0.1938915339641479
0.22085583779156703
0.24255945345893784
0.23398654427911084
0.20591602448653512
0.17271312206751088
0.14010489614978963
0.12294838066744146
0.11352848962417604
0.11207244210520731
0.11202973610328958
0.11439546533963826
0.11563223995854471
0.11620673082358315
0.08745829622789235
0.05870986163220154
0.029961427036510738
0.0012129924408199322
0.020451846482405174
0.049318797426644
0.07966583977062475
0.11511826123034918
0.15528326963465927
0.18464698258835133
0.1987292937110175
0.2054517017209883
0.19647012095690441
0.17184590156317947
0.14893778877511632
0.12623580957835603
0.10498268272595249
0.0863312137326932
0.06793545858317995
0.04983963184244164
0.03838515215239413
0.037082467484913735
0.04683519186620897
0.06744061106935957
0.0916496910357917
0.11272027417026761
0.13286326059002154
0.14833141640513786
0.15510372870604933
0.1654063131434892
0.1646089013662762
0.15312702389092184
0.1447266370524404
0.1347968419603882
0.10764909127658508
0.1288961680081985
0.12074172261903182
0.12811586803849456
0.14509008579828284
0.11371342617829328
0.14598999240649813
0.18880651238030324
0.1941334270402104
0.8207411120195484
0.8772566143539863
0.8784749720731609
0.8794155101895826
0.41584267143428594
0.2235125183232383
0.1895593839654905
0.21703870533385555
0.2291299196800554
0.25460137221963725
0.25233607962712123
0.21806222649837065
0.1839784956086697
0.1429662679384805
0.1182134046380457
0.11782824128903203
0.12061486491807115
0.12507224777690054
0.1299112614633025
0.13057880585172557
0.1297030267497801
0.0961594089000258
0.06261579105027151
0.02907217320051722
-0.004471444649237072
0.02015918416185991
0.048739418819112784
0.07911358308971184
0.11429153582521195
0.15467499435051155
0.18453344473275096
0.19866998434156585
0.20570059327505905
0.19645913446113075
0.17154865354026788
0.1485990262778683
0.12592176609658925
0.1046749688687727
0.08604570093194885
0.06775681488674473
0.049759046752119264
0.03850110977418359
0.03741413238783687
0.047316690266419964
0.06802796665444776
0.09217082255912373
0.11308502973936306
0.13300683695615728
0.14827841764939229
0.1550054495588481
0.16539001868562928
0.1647089958906929
0.153034333204881
0.1443169811504496
0.13425991989524608
0.10704188198035
0.12848426569556903
0.12269597833963647
0.13215771377088534
0.14900265867513257
0.11866938130782606
0.14981932494945008
0.18971853937884495
0.1946489814873909
0.8331267178564077
0.8857962496574777
0.8871137976438374
0.8879355989507228
0.4144000481981866
0.22147229851199565
0.18738517985893982
0.21558357969453992
0.22864484511976932
0.2537433506751885
0.25103814121220375
0.21711757198599085
0.1830841998872602
0.14272113473476628
0.11849191521248252
0.11758576135842112
0.1201256506430974
0.1243289501039607
0.12902145137102142
0.1297204824173865
0.12893691078463512
0.0956624392016993
0.062387967618763474
0.02911349603582765
-0.0041609755471081755
0.02076287820129615
0.04992610283032451
0.08024445365612742
0.1159764804456062
0.15591321846308864
0.1847679417559292
0.19879363202926692
0.20519756432111472
0.19648118125788103
0.17214948323973583
0.1492834032366657
0.12655583229856943
0.10529636879700709
0.08662260884254377
0.06811791198744897
0.04992227168149845
0.03826638618019316
0.03674253261619872
0.046342085682738676
0.06684025812589148
0.09111937967949547
0.11235246506709497
0.13272410866100684
0.14839468295788552
0.15521345472991946
0.16542953464553725
0.1645090778442008
0.153222656591003
0.14514162100108446
0.13534751442068294
0.10834873349214577
0.1293912612991617
0.1189768554282891
0.1242093722058729
0.14124171942063599
0.1087936471975231
0.1421828491419168
0.18785132236818478
0.19361071244468456
0.8076942256904411
0.868208970305959
0.8693333031257404
0.8704090393708012
0.4173418295361146
0.22564129016621134
0.19183189246705631
0.21853254086687843
0.2296259481767256
0.25549502002868335
0.25368719127670075
0.21905348657581478
0.1849183937493116
0.1432256349651767
0.1179285102515754
0.11807499814238667
0.12111367198993325
0.12582953632749894
0.13081842247390021
0.13145384407155025
0.13048272594358215
0.09666550994801144
0.06284829395244074
0.02903107795687003
-0.004786138038700677
0.026446748577907873
0.06020215203952088
0.0900354410853623
0.1297496707994285
0.1658268434510717
0.18705810569139592
0.20013605559314848
0.20160957812969296
0.19661745091839872
0.17643282021127613
0.15411841365753348
0.1309914289880658
0.10965664297891996
0.09071086109494228
0.07069164180906885
0.051128613500712884
0.03655215794781945
0.03181316460697535
0.03924510858765692
0.05834046165343301
0.0838893437360829
0.10772476498972554
0.13160334300404056
0.15026445975682853
0.15768828501525803
0.1664049619431829
0.1632867868108912
0.15451014012650413
0.15045064202672143
0.1430813897807885
0.12435817223698335
0.1420875291726381
0.14799916474531338
0.12235921350625321
0.13410983747351696
0.08796126493185827
0.09726907005262607
0.15359313487037315
0.17016538909412265
0.5883110748909023
0.7067706773007024
0.7188103530419131
0.722234791150436
0.4397408885509136
0.25870454396653114
0.2276096797367144
0.24012926498038387
0.23670056111810778
0.26963018459480087
0.2750745665929366
0.23546901849166724
0.20061195183811031
0.14778872802244852
0.11385812116510492
0.12146568337302358
0.12807132164788015
0.13631843300615962
0.14343530680321195
0.14360287434474894
0.14114397624295189
0.10361119115582418
0.06607840606869647
0.028545620981568764
-0.008987164105558942
0.035055646087432925
0.07461342755533372
0.10385322320197875
0.1480833138537546
0.1786317488528412
0.19083056471139798
0.20254898415697853
0.19782520456941025
0.19670776095019704
0.18090023185256826
0.15907058221638423
0.13544553106556917
0.11406240615596161
0.09492422449692627
0.0733719415346342
0.05248819774190512
0.03468235778739423
0.02641125467134243
0.031629258107814515
0.04956139385654272
0.0770867658500247
0.10426599975832015
0.13226262750207554
0.1541000829168419
0.16175694316518502
0.16837393179511922
0.16196225654450125
0.1550278603579326
0.15417186523995074
0.14993992505751047
0.14512912281298215
0.15896572292643524
0.2223382249020813
0.2082887007976538
0.2094482859431213
0.17734167302542042
0.12673334223071858
0.337259385694226
0.378235522903553
0.5450997617783564
0.6686344052857873
0.572965478108557
0.5694043938346899
0.46201422548445664
0.294818451475827
0.26774312776678916
0.2630700527367798
0.2442747437494527
0.2860970943451962
0.3005007112044166
0.25592192701629596
0.22029442867401738
0.1542188433898954
0.10950541891866561
0.12484002460460909
0.13520847273772704
0.14688536995139942
0.1561985140291064
0.1557714258059428
0.1514061076516929
0.11030998381241201
0.06921385997313112
0.028117736133850227
-0.012978387705430666
0.020017740103565634
0.04845631043535417
0.07884361644597611
0.11388444760537128
0.15437495587647912
0.18447864967311403
0.19864177524336815
0.20582466026104507
0.19645360215376267
0.1714005115009549
0.1484300627555045
0.12576499730344742
0.10452140077336192
0.08590333547273168
0.06766778437649365
0.04971900535716381
0.03855877963361889
0.0375789941936551
0.04755616985710608
0.06832050874325636
0.09243121971083293
0.11326849817645153
0.1330810814122209
0.14825531076346044
0.15495988847053305
0.16538430063936813
0.1647597755023898
0.15298856540563308
0.14411167418105697
0.1339933006361043
0.1067681994019806
0.1283060245918354
0.12373457533304667
0.1342332190602054
0.15098720873755284
0.12117148793785171
0.1517671734495921
0.19017181159440397
0.19491393095893916
0.8391493380934552
0.8899321064881937
0.8912991418479491
0.8920668489529431
0.413691358018505
0.22047292374194036
0.1863215556195435
0.2148613848658129
0.22840331370729938
0.2533221690898918
0.25040072224273574
0.21665656782136844
0.18264832086744767
0.14260226862609782
0.11863055752515629
0.1174645901699593
0.1198815315609659
0.12395783720240065
0.12857741203607942
0.129292156800202
0.12855412552520815
0.0954142513300016
0.062274377134795056
0.02913450293958851
-0.004005371255618034
0.01768847513962853
0.043214550779002124
0.07381116947876473
0.10571967218149912
0.14829218370850575
0.18356255529368584
0.19823996081077008
0.2085501772360351
0.19632370452892117
0.1681547441294839
0.14470687296111526
0.1222885209852077
0.10112271173695937
0.08277282050043766
0.06571786238407332
0.048860662106642964
0.03980311286429273
0.041120821187190064
0.052721210536148866
0.07469340781383346
0.09823491263469135
0.11755012368285138
0.13514209627035365
0.14829966942670827
0.15455756201562457
0.16567290425468562
0.16603415790514442
0.15211487081207634
0.1394899878750516
0.128416028357425
0.10487104065489564
0.1281412803056537
0.1501694606366078
0.18280424103467277
0.19414931977643157
0.1751247128769482
0.20229382744860958
0.204442116305856
0.20612119458750064
0.9417780205308884
0.9592544027177483
0.960836045457167
0.9610927290193889
0.40066911590867993
0.20240889539043008
0.1672954307615145
0.19978430288313992
0.2231448396920602
0.24528890338937523
0.2381793321689217
0.20835642073468008
0.17490474274138804
0.14059101614899094
0.12164217115318789
0.1147535007234727
0.11447842610032004
0.11571439704339871
0.11875638238787067
0.11982595189490712
0.12002309496998799
0.08990620588602818
0.05978931680206838
0.029672427718108574
-0.0004444613658512314
0.022120447096390872
0.05249796865481276
0.08269329070044933
0.11953492849977153
0.15850891818323895
0.18530052885845757
0.1990881237518875
0.204186960745673
0.19652349442980316
0.17335706467998518
0.15065445390505267
0.12782158958348364
0.10653820738171273
0.087779648254723
0.06884367108717417
0.05025449342729186
0.03779050644769578
0.03537816645975457
0.04436724544465243
0.06444801920287568
0.0890305643653678
0.1109383291757579
0.13224668494166109
0.14873763707025445
0.15574093570751357
0.16558599401121316
0.1641340476350652
0.15360734547060637
0.14675235553677335
0.13755170140901252
0.11187110492380939
0.13205320386197342
0.11623726624278069
0.1128624439251625
0.12941611710189163
0.09268308848847888
0.12795199456176046
0.1832572778646069
0.19106371312787798
0.7522154814383333
0.8290876990909598
0.830157190809814
0.8318950331345195
0.4235034065140596
0.23448928249638878
0.2013186332132422
0.2245388368942829
0.23160552375174293
0.2592119159030233
0.2593023560126181
0.22324693506911938
0.18890808366850045
0.14434481484628806
0.11679068660083523
0.1190478107341642
0.12308980944814663
0.1288234720726094
0.13441049079300654
0.134917876418273
0.13355528596992675
0.09866281947810301
0.06377035298627928
0.02887788649445555
-0.00601457999736818
0.03637469601175545
0.07677095859165824
0.10593239770560563
0.15078585956085477
0.18049973256128116
0.19143975939971353
0.20294883274657027
0.19733308006508435
0.1967142446985154
0.18147330573312223
0.15969838395737887
0.136002885531556
0.11461606519840926
0.09546069760763196
0.07371528539494868
0.052672340092695544
0.03443665477300188
0.025702620718272524
0.030647779015414513
0.04846057927041488
0.07629528857843638
0.10394819396938149
0.13249593222867662
0.1547250658303784
0.1623583747922745
0.16866278930580786
0.16174624723274253
0.1549742189382072
0.15445524571333252
0.15064167715560595
0.14777013375825745
0.1611023127249593
0.23247247783975353
0.22254208753017493
0.22224396949513064
0.1930924802543963
0.13426881975070695
0.41601413215819794
0.45901192173201905
0.5919102513384312
0.7045100039409972
0.5586737249921003
0.5523445345050427
0.4646353255887142
0.2993716397671362
0.27288902536977877
0.2660224651198135
0.24526516931405531
0.2882379503929002
0.3038882079465883
0.2586872462313897
0.22295743594332673
0.1551671167138289
0.10893910937899343
0.12526242022548398
0.136118841585261
0.1482152194915966
0.15780414030006248
0.15728599161018889
0.15264362197326495
0.11111535321118735
0.06958708444910974
0.02805881568703214
-0.013469453075045462
0.01758250645645214
0.03836021546123105
0.06863220023261747
0.09317235465760378
0.13888782855497417
0.18318406935010528
0.19854629019328504
0.21389329061765117
0.19603407636510412
0.16188421648602608
0.13740880359312013
0.11536002935325143
0.09438649391841689
0.07667527109448236
0.06196188240300999
0.047294682914336264
0.04211710209128888
0.04761161889103156
0.0622660305671327
0.08675286260154798
0.10982012404497211
0.1270098648234084
0.14127012641652292
0.15126959679484833
0.15718154235432782
0.16844923047904592
0.16927716883489893
0.1516928409707694
0.1306780716713606
0.12011674483779196
0.11230440575216444
0.13648479385104806
0.19314462366434856
0.26607179617672255
0.2626753453366704
0.2610422176452968
0.35262050614360035
0.2889544587226163
0.2856946868006867
0.9983272638587477
0.9985625940870856
0.9986841494864832
0.9987329846328463
0.39468049469058386
0.19488735216630546
0.16057201693682688
0.1809694571143982
0.2131320299040569
0.23706978572551182
0.22565626621770915
0.2036744220833005
0.17134289331152505
0.1406664778274096
0.12733005832548522
0.10918109480922701
0.10369903657713701
0.09918029696414343
0.09934769214658928
0.10124843025094353
0.10299692924113926
0.07907375336568419
0.055150577490229113
0.03122740161477404
0.007304225739318965
0.0182545597337395
0.04465566431716852
0.07520521036499991
0.10813197481022524
0.1501008167744908
0.18379284441047186
0.19832246777920118
0.2076942079336189
0.1963660988918842
0.16917186089161515
0.14587787088342788
0.12338637660867938
0.10219461782733648
0.08375605086239364
0.06632869459410974
0.04912587391022113
0.03941699971935573
0.040025116507049215
0.051119500859110135
0.07270459090710188
0.09639775228373516
0.11615691563507863
0.13440879031581832
0.1481728419622312
0.15455810980752163
0.1654961311193157
0.16560058757869442
0.15235500463250315
0.1409551169508167
0.13009673572250746
0.10476174345480133
0.12756817852627392
0.14168712310959067
0.1675023035966683
0.18107124552394663
0.15878898996934956
0.18470260952890136
0.19858977557027088
0.2010673801599739
0.9160583048902953
0.9419937840389967
0.9437212174949862
0.9440347016949321
0.4041354273096892
0.20716553701815174
0.17225886805700794
0.20431684439664
0.2247861858058068
0.24754613072123324
0.24162914106680078
0.21056617242024986
0.17693865520023286
0.1410932181594886
0.12070366608158932
0.11561491925615992
0.11618325264307028
0.11832081965768436
0.1218523838100064
0.12280770000951573
0.12272383624432937
0.09164481828413729
0.06056580032394521
0.029486782363753128
-0.0015922355964389512
0.017167813848623082
0.041533771105260464
0.07215952858627117
0.10257309331274787
0.14592428128371482
0.18332471380926318
0.19818844464642038
0.20974003745413838
0.196262669522032
0.16674554535992417
0.14307830156385162
0.12075510920446393
0.0996276330569527
0.08140751600317474
0.06487207127119807
0.048498574521733256
0.04033269529151215
0.04261831674743578
0.054915187484852704
0.07743483414881797
0.1008034991535947
0.11955150348348316
0.1362843318990406
0.14864355671251914
0.15475233305232455
0.16604874050782395
0.16668546931833586
0.15185067786069129
0.13745779348000012
0.12622058839732186
0.10570166187586946
0.12948060859059515
0.1614259118792235
0.2033495266386049
0.21128753586124074
0.19657582204667
0.22961360359154517
0.2156142567212821
0.21628924828717214
0.9677279200690737
0.9768028496693603
0.9779891233817871
0.9782108272819625
0.3970013490660246
0.19742538169681376
0.16217554327564504
0.19394932593580957
0.22087953665394963
0.24258513454470831
0.23402609700136784
0.20593730146582032
0.172731801465262
0.14010856985548725
0.122934873501908
0.1135413161402892
0.11209752411415035
0.11206817919499026
0.1144408645162917
0.11567585334792464
0.11624651812745565
0.08748376091067095
0.05872100369388625
0.029958246477101547
0.0011954892603168454
0.018521413181144152
0.04527844389203333
0.07580417348734653
0.10912309932195628
0.1508414775397172