# vtk DataFile Version 3.0
vtk output
ASCII
DATASET POLYDATA
POINTS 5568 float
6.777556905400221 0.3312110457746895 -19.99880286782459
6.840642404679654 0.3053376326062919 -19.39171730873802
6.910292186298101 0.27253517805477173 -18.771792016039708
6.982314684070427 0.23721267772523358 -18.14092136875789
7.045694533529321 0.20257109107530558 -17.467706524501562
7.0615314493405945 0.17575930661657682 -16.791613579342336
7.025889604176313 0.16817857099038808 -16.11587021887629
6.9323510710163125 0.16927823983785442 -15.481206631204161
6.770988622789952 0.18195404538735252 -14.880888175158274
6.543860523347312 0.2052187632813652 -14.346242690789001
6.259793170632177 0.23829126598997658 -13.850736768890023
5.922206595721586 0.28413707386392295 -13.388531059515907
5.535039059439764 0.3441160840393528 -12.955426552879954
5.097194199445253 0.41719756611707626 -12.541165155649884
4.610270710579945 0.5015661418142074 -12.140457033647372
4.071335009352712 0.596365588343515 -11.74707860133786
3.476147476071782 0.7002833580238566 -11.357450176202855
2.831094845682623 0.8091367102812902 -10.973622535840963
2.1517141874957035 0.9162618597545629 -10.598091082232939
1.4570623666592382 1.0131168752643762 -10.22906596409666
0.7694431434768344 1.0920793288721617 -9.860567657480132
0.10590631089061653 1.1492117603479548 -9.485313574832016
-0.5217119382970588 1.1825739982453964 -9.097605226258981
-1.1029758106287266 1.1943267631306225 -8.691503344534574
-1.6336792292149722 1.18608645761314 -8.2609292792506
-2.1176186460767306 1.1630933812364825 -7.7992028887145795
-2.543302573991398 1.1263286198757676 -7.304129558419012
-2.905730234263969 1.0757699172479094 -6.779865848560752
-3.2161472938846254 1.010180045641069 -6.221205890232437
-3.464516676633581 0.9275356026177465 -5.641683593705759
-3.6552116141224094 0.8283817422262498 -5.016478867129005
-3.790471411855263 0.7299506802291814 -4.364826849543318
-3.865521694609628 0.6260535055919348 -3.681277210426564
-3.8734372903479306 0.5610028737583397 -2.9830997658501834
-3.8582301248721063 0.4576270248182522 -2.253077658614313
-3.8124566530998356 0.41988737657671293 -1.5909617313868414
-3.7115697162301236 0.40312922970394904 -0.870678735865516
-3.6404320530071006 0.2873176941688927 -0.07374353725749816
-3.6054262167571416 0.19345195791957387 0.6797374158356249
-3.5946556786792705 0.09607673623379272 1.2957428524368648
-3.6425441362384388 0.02167128997983274 1.8827407145715345
-3.6751148436033656 0.18409224239450628 2.5497029480576607
-3.6951560092239553 0.2866472149771364 3.0481521394260835
-3.6936683876117224 0.15258324389921046 3.277783114350784
-3.6702001230663024 -0.16215729558126668 3.486939149571205
-3.5423522126550893 -0.7325424640037664 3.638513975446528
-3.384951776727636 -1.2613447288135944 3.8243723926034496
-3.1184095886683343 -1.855355043607267 3.96447920992301
-2.7778428630387038 -2.418060959533365 4.120521385193069
-2.357662350945252 -2.9169167929685225 4.309107103105054
-1.8700987238474784 -3.321669136200275 4.545999600433356
-1.3310300298976978 -3.634399167881746 4.836236210677863
-0.8204736437051066 -3.8377898257808454 5.214920184944337
-0.22395183512805017 -3.9172279951760047 5.58964665511873
0.42255186286581325 -3.9492165964357846 5.982035430838764
1.1070798390946952 -3.9156393784553165 6.376182223330732
1.823676466696948 -3.8079065791468563 6.755501538663859
2.580004222975136 -3.6233774303077677 7.107565674060461
3.3685269062569554 -3.3577340150490333 7.408413368854759
4.178391610359872 -3.012507962059571 7.6301064032708785
4.950859602222795 -2.6230148156072857 7.754762380398557
5.6822935180747125 -2.1949956160147495 7.794472111292051
6.35752000331039 -1.7518676269621787 7.769213539304372
6.97468603500336 -1.300796904246038 7.693178231471563
6.898392009864395 0.20037476189911674 -20.181151903645034
6.929183490078884 0.17756428179139 -19.58332677287435
6.971908694625933 0.1542347045278078 -18.960841449757197
7.022634606528909 0.1357993393615416 -18.315363314341468
7.071887600672356 0.12255911672747986 -17.59135440554758
7.07278603688247 0.11913760494030537 -16.843137644978004
7.024731288390926 0.14145085207089436 -16.062160888143364
6.915959634984007 0.16070764624521985 -15.365784942794484
6.739924589041658 0.18658277486752708 -14.73170503065271
6.492436683937838 0.22354890538272848 -14.188847982577858
6.1932900543536835 0.2686348064740601 -13.700094801936588
5.849383787407529 0.3232909657751164 -13.25739796826314
5.4640420077199146 0.3891269179686666 -12.851605287328708
5.038309893947469 0.46367721157624575 -12.468553369074755
4.577771842160832 0.5416829933507129 -12.097788300774543
4.073375842451315 0.6215803385336438 -11.722612896279651
3.512460162541128 0.7040859908504844 -11.334960604995556
2.893642125317231 0.7857439955177046 -10.938195126154195
2.228636803402417 0.8627025787331566 -10.541627509135512
1.5362399013563024 0.9283273190255179 -10.149316396986443
0.8405801826030079 0.9774815349280899 -9.758440522677464
0.16468232537291683 1.0079225963536145 -9.363314548619742
-0.4764583015689767 1.0187347761914787 -8.960029433758047
-1.0708897836545481 1.0135219486114686 -8.545145049332108
-1.6144129348055491 0.9957503966142357 -8.110493734940166
-2.1183401895678204 0.9724202719485494 -7.6401763544263765
-2.561142873287121 0.943984264336833 -7.132222198881225
-2.934760016864757 0.9098349079797553 -6.589735621952935
-3.2539673917151983 0.8668165896493271 -6.007505892066338
-3.5061236544763705 0.8304977023098655 -5.418402603304604
-3.6985306966559874 0.7744571328399286 -4.7910703532437875
-3.830174191343168 0.7166530999547601 -4.149634147242781
-3.9007227654072545 0.651492465019275 -3.481510844043219
-3.8946226164260382 0.6302728277465938 -2.7869685472064716
-3.8672343261952293 0.5371695627421269 -2.065017197414016
-3.8215912800804626 0.47692857198795907 -1.4227321891419251
-3.7002500004627423 0.44727065911639435 -0.6982387910899861
-3.636802550794715 0.31648897418266164 0.15111987001840121
-3.5967710893173788 0.1628154883939199 0.9151468341799448
-3.5918060152914326 -0.033364617756806714 1.3617360976368333
-3.6157488327341682 -0.13038365238346017 1.8248815482719807
-3.6113758508968843 0.18248249107248565 2.5824925667803487
-3.6214476727878906 0.3018887022334639 3.0564061729233956
-3.6193514662039377 0.14256451249574634 3.246521138889643
-3.5948988951864473 -0.1623702366571705 3.453187461091906
-3.4694598735618607 -0.7075082214153302 3.6211633416687232
-3.3210529520147465 -1.21156280331863 3.8326725645375928
-3.065436402497658 -1.7827460774368862 4.0034468830486905
-2.7408659787647016 -2.3281728981462955 4.192584933324903
-2.3375503842949095 -2.812030492047143 4.415126810937283
-1.867632532023944 -3.2033480444132243 4.687792193051785
-1.3495432918210764 -3.5131605318964185 5.012073773086051
-0.8809153638692668 -3.725918935501716 5.479002271896162
-0.30401116012875073 -3.781352347384297 5.8812964862412915
0.340977579789738 -3.8184379631820775 6.291885616690811
1.0363256722936447 -3.7994974617524093 6.7009935538203615
1.7680194783613903 -3.7091566896748946 7.094133189855191
2.544525462153444 -3.548494331694468 7.45820096729903
3.3602933536284216 -3.306905696681962 7.771188291255807
4.1997704245001835 -2.98300252986759 7.996011814111037
4.995981068434979 -2.618467520096611 8.112220751929101
5.749221855670775 -2.217221135686027 8.140322358341859
6.443451154587006 -1.8061720927416691 8.107827105920832
7.087264694721929 -1.3839461016313979 8.031559149304593
6.748077272605608 0.36313062429425136 -19.954315939623754
6.819165000436286 0.33649071042165957 -19.344712799248967
6.895409766341751 0.30136529258987266 -18.72521453161578
6.972590449920977 0.2619586666249053 -18.097692726271948
7.039265859148211 0.22231924062505315 -17.43640448754946
7.058518798250664 0.1901597094983405 -16.777167143217255
7.025688959171398 0.1759309759830743 -16.125759744733895
6.935706147664395 0.1728540600629373 -15.505643913466287
6.777826945801039 0.1824207166959052 -14.913382446921364
6.55555423017874 0.20240239689819384 -14.380642116811236
6.275102217202231 0.23255825615261908 -13.88340000125604
5.939026736282525 0.2762351066101435 -13.416308831822375
5.551378629631335 0.3347567390059923 -12.976362212790205
5.110523963065087 0.40746207052341465 -12.554282568505972
4.617046372947762 0.49342109490028935 -12.146090963305939
4.069487958219424 0.5919745138838013 -11.748194979712663
3.465684611987493 0.7012694961420123 -11.358062187638136
2.8139473774020853 0.8168949091460059 -10.977333834136584
2.1307883577710935 0.9314550687753159 -10.606818429578581
1.4353427832952246 1.0359306205350285 -10.243319092161649
0.749476071801026 1.1221015653210211 -9.880116522700959
0.08878679617108887 1.1856586224766321 -9.509568263217686
-0.5356521408623073 1.224440240050993 -9.1255587276961
-1.113776308291642 1.2402767549839595 -8.721550028648043
-1.641392937850288 1.2343352040021471 -8.291955138417704
-2.120522335415873 1.2114239764391035 -7.832308788577974
-2.542094660326958 1.1726672005994405 -7.340335206750131
-2.9018602688438517 1.118179530851424 -6.820409679239941
-3.21021950816532 1.0471921369966055 -6.267303431791382
-3.4578740142487754 0.9532336299811129 -5.689630028110384
-3.6482729655419788 0.8434654966061839 -5.0645427150863345
-3.784492531178408 0.7349270304068503 -4.410051383928023
-3.860688809299418 0.621361490216759 -3.7224230171349033
-3.8720504560662077 0.5455083391147408 -3.0229062220405836
-3.859837240155936 0.43960123558877595 -2.2908596887096624
-3.8140249458585305 0.40744158747229925 -1.6237280296909367
-3.7180816120764932 0.39380807302191123 -0.904359772801055
-3.645159821894122 0.28153687920213233 -0.11992591578695178
-3.6113328708650516 0.20196163066983702 0.6316313712473572
-3.5988621615766254 0.1324872827473087 1.2983638486693603
-3.653326286308819 0.06464092274748427 1.9183821169716855
-3.694070198885517 0.19440901164188074 2.5668863593523294
-3.7166111960373542 0.2927668263172071 3.0715811283271295
-3.7152736568435443 0.1646621116263572 3.3121756725795395
[...]
CELL_DATA 87
SCALARS quad_param_group int 1
LOOKUP_TABLE default
3
3
3
2
2
2
3
3
2
3
1
1
3
0
2
0
1
3
3
3
1
0
2
0
1
2
2
0
3
2
3
1
0
1
2
2
2
1
1
0
0
1
3
0
3
0
0
2
3
3
1
3
2
2
3
0
0
0
2
1
1
0
0
0
3
0
1
1
2
2
2
3
0
0
1
3
3
3
1
0
0
0
0
1
2
1
3
SCALARS single_component_feature float 1
LOOKUP_TABLE default
0.014322029395684064
0.035973450683129404
0.009039823104178763
0.006449645880596163
0.02440662722286309
0.02131834223617618
-0.04798705521027806
-0.028241678912059143
-0.013844070547031635
-0.002016441861822857
-0.06156762917043267
0.0521717305323269
0.0454584592995757
-0.04537444969657846
-0.03230297739793224
0.004345904294776779
0.0028313534137958613
-0.02390176403853561
0.012293963894561034
-0.018901693494378514
0.014662125433845256
-0.028023798409602903
0.04429550447191574
-0.029644928248446754
-0.048978637648841535
0.04543046539258928
0.026390100591082807
0.01908807478003735
0.023108326766381047
0.05359141737869348
-0.03158308275535414
-0.011934610511845252
0.040897746523967535
0.07833640881185969
-0.02061090082799712
0.04217772920164538
-0.01081024595572536
0.008358444571549788
-0.04884262976877113
-0.05509739500342455
-0.05831619527789815
0.033222434578411494
0.034168973718065355
0.037048061255631815
-0.02240168252013467
0.003241770752226459
0.042100210186348755
0.014408619028872229
-0.03281803848154535
0.0016128459865152635
0.006297871418683731
0.03910952447862691
0.005188606900626856
0.002232461580699431
-0.0054829306929357335
0.10241337388665803
-0.03631120027747274
0.017712804759957804
0.011201496727153894
0.012448866388074985
0.010575781043613255
0.005970673604394962
-0.01988997125494846
0.02005751151238733
-0.010389069488581981
0.0013926956161110504
-0.06040341661112089
0.006888824612141131
0.011292241799887177
0.02636951990803503
-0.019583178892503314
-0.0002552445727194985
-0.10102646796419151
-0.09921044048978972
-0.022060311120511836
-0.01455921463310117
-0.013336706052587851
-0.014851300174494122
0.00442724489128722
0.031281359187213344
-0.05239755407718557
0.053600968834204496
0.024723623423924344
0.029469269216739064
-0.003783689337260393
-0.027377194831503863
-0.03928751296817798
POINT_DATA 5568
SCALARS single_curvature float 1
LOOKUP_TABLE default
0.01352831367683119
0.039839848562903214
0.0646035071400807
0.10177673652640784
0.14285621881209262
0.17990879914678098
0.2022463535682865
0.2116070695032669
0.205526852764679
0.17587914609303884
0.149552092159368
0.12182413077528788
0.09622147365221263
0.07601503046002019
0.05992397930344216
0.046508685024145936
0.03713049773957019
0.03546102434799224
0.0425423467865978
0.058836896915781985
0.08096137848274969
0.10095992050489583
0.12308279372033167
0.14245172172508272
0.15160532536029653
0.16139371230344804
0.16173874795208915
0.15204177555085546
0.14625900621204507
0.14431093490001307
0.12339752632427109
0.13052543158563581
0.12231427075451888
0.11882215809167772
0.11667356308628231
0.09798342159886261
0.11870559048023648
0.19294459792567412
0.20068489465127495
0.8823781074876725
0.9132025395155219
0.90953312633107
0.9127213294481038
0.37563769509048694
0.22944819982042855
0.19800965245411917
0.2220706818594424
0.22762088144697112
0.2618473376325792
0.27286696958084966
0.2296168038784368
0.1962523212616609
0.14572624636769482
0.10452804706905154
0.11252517697665874
0.1193160567274401
0.12667741143802483
0.1334990687230206
0.13355950873599093
0.12907304115218982
0.0936197403626365
0.05816643957308318
0.02271313878352986
-0.012740162006023459
0.01601259250530136
0.03805179478881197
0.05307254692265075
0.08470332190220216
0.12691973932056624
0.1763532440664237
0.208685504413578
0.2220827549230585
0.2195136589681461
0.1817435794971805
0.14954459240660614
0.11360390061476433
0.0811815538084415
0.059198411761835754
0.047610748488713814
0.04188934449557553
0.036705517032769426
0.03473280539174536
0.038164274411639276
0.04856694931760613
0.06723180889268773
0.08594737108225046
0.11084287213781183
0.13570676365759268
0.14816368903704777
0.15903325980317898
0.16069177289516753
0.1528336323305476
0.1498850936077264
0.15637952782352524
0.14910216170402943
0.13416394154091635
0.1316179700718615
0.1215197382989889
0.10640114180387854
0.2582541261424627
0.3348536309434814
0.3904399507685599
0.4777412097743795
0.9604092376641237
0.9612362501108135
0.9603106060341826
0.9538551874771266
0.3106384120378154
0.23177001967345148
0.20407765521768456
0.2235148481072262
0.22183031065682304
0.2681844452603406
0.3056380707561777
0.25635918063712115
0.2257704636176793
0.1637958491015491
0.09143693349798435
0.10486628841255836
0.11596648669540889
0.12678038435567765
0.13585457184512725
0.13487254060781187
0.12532464586184686
0.0878711802727432
0.050417714683639536
0.012964249094535876
-0.024489216494567784
0.015841124826948442
0.043282479792742114
0.07007985360956799
0.10693885498639331
0.14756029573003307
0.1814486089763984
0.20089036663594118
0.20912029809271937
0.20217206256272793
0.1745730078438583
0.1495771545208905
0.12374117186881162
0.0997665300131575
0.08009397487645925
0.06302478322713394
0.04777529876637864
0.037447067122245804
0.03576933234414393
0.043731713505868665
0.06152024971453222
0.08446908184681551
0.10493162062631677
0.12645931138702873
0.14451895758680677
0.1528343168123801
0.16270239835697403
0.1625841223594239
0.15238957378153237
0.14588382817518267
0.14123007832155615
0.1176313700577004
0.12993253443995995
0.12022000340540061
0.11892672662239087
0.12401334556089391
0.09067545526895526
0.11327033140330377
0.18244645842396182
0.17355149152171265
0.8504219547306218
0.8932167103368461
0.8898688270440931
0.8960498097675659
0.39149851516845435
0.22882908608233715
0.1965461028962587
0.22140554082119426
0.22866349950561057
0.2597482437156022
0.26557241997668796
0.22510476068023494
0.19133981980629491
0.14398272395803238
0.109102324950791
0.11459788458503238
0.12015268821530238
0.12664024249531677
0.13285734343789002
0.13313274498501396
0.12990392070827603
0.09495254376897615
0.06000116682967627
0.025049789890376387
-0.009901587048923494
0.017227939893073613
0.045235961974952194
0.07301682055877023
0.10963080284156271
0.15000685530621666
0.1823245008236211
0.20026817690985096
0.2079136474892552
0.20053636950358616
0.17394965231371207
0.14958980961103882
0.12465782081835798
0.10147009234528213
0.08207010407553296
0.06454173238063546
0.04840720895131084
0.03762865603854842
0.03593855387060494
0.04433011608320371
0.06285905393520048
0.08621026038225542
0.10692200914642108
0.12817133854331328
0.14559628056736226
0.15349763617822704
0.16343004300830774
0.16306366554701243
0.15261727299257397
0.14575221067833982
0.13970661004658666
0.1149716320534942
0.12976180223634037
0.11929656312261404
0.1191828069030657
0.1278421947214519
0.09315484526467482
0.11838322108759729
0.18320236818202632
0.17563600085405995
0.8351077948267885
0.8837929834956075
0.8811279325867736
0.8868688205757411
0.39930143391220463
0.22852270812495037
0.19583590944603213
0.22103617328005457
0.22912150961235656
0.2587334008959221
0.26225815164374794
0.2232773790983875
0.1893573841260661
0.14350752727010743
0.11146842406868859
0.11564144956401047
0.12056533744564558
0.1266203304671992
0.1325334470076172
0.13290816987913187
0.13029809092151437
0.09559445426829785
0.06089081761508133
0.026187180961864814
-0.008516455691351704
0.013102192375944685
0.037351107117001285
0.05785975327238174
0.09305038012411819
0.13482710412916343
0.17776834591666768
0.20510215748264682
0.21643802838493392
0.21199759111297503
0.17850626887611415
0.1495183355802197
0.11802284266503477
0.08924849248353446
0.06812113152380064
0.054040772652013194
0.0442091826363879
0.0367461348935217
0.03501346035180134
0.04039794166060615
0.053900958439196414
0.07443215977595782
0.09370965320618649
0.11706291426750813
0.13897382385084328
0.14969768128030347
0.15964303471995622
0.16071560202473886
0.15191315382004297
0.14747563477990935
0.15006427978935563
0.13513578068591153
0.13208295137436055
0.1266085987131388
0.11960824030208085
0.10686304824767569
0.14786384638641165
0.18314049011621317
0.2551187422504918
0.30603841521664776
0.9291195764144211
0.9420606622442707
0.939547583284529
0.9369332326919902
0.3454451551619748
0.2305884060690617
0.20083873767110694
0.22300409712871808
0.22522589215147332
0.26550835043963467
0.2879735705180318
0.24061039295022763
0.20831611366319183
0.15187223632686364
0.09703469278134123
0.10878456344098723
0.11773886490320191
0.126735379936032
0.13465226830847982
0.13425800680226474
0.12739172109455987
0.0909942403124594
0.05459675953035892
0.01819927874825844
-0.018198202033842037
0.012733963500000143
0.03760122291275306
0.05947833309799699
0.09557287309790964
0.13716314745627378
0.1783229839505994
0.2041955565411492
0.21494824969242407
0.21000730853940214
0.17768280815084656
0.14952538713920288
0.11920195622949657
0.09140497872259752
0.07054430069783192
0.05582964302223456
0.04489274198753198
0.03683131509942316
0.03513056288878268
0.04103606612075204
0.05538535872801612
0.07640761711656857
0.09588296519612419
0.1188471363623429
0.13997493526139418
0.15022285996682058
0.16006634119711258
0.16093780745011688
0.1518687917102066
0.14702406883143881
0.14832332114311012
0.13147487790251738
0.13157496673903624
0.1252807457466084
0.11926624169147275
0.10896799842975782
0.1279364060686975
0.15617255994089208
0.23028915072595646
0.2685581247154387
0.9170228471656388
0.934643806216256
0.9316782960210473
0.9305428676533091
0.3546906017679654
0.23024721592279385
0.19996978814261807
0.22276586274614663
0.2260156116101643
0.2644772003359689
0.2832530833400478
0.23695102410497357
0.20428708140691634
0.1495921990186879
0.09912102847549506
0.10989897703740811
0.11821889144657968
0.12671945738583468
0.13430931838142865
0.13406028190735209
0.12791928753765644
0.09180881976073749
0.055698351983818534
0.01958788420689958
-0.016522583570019372
0.057797003577688466
0.09963026459372937
0.16287867439053014
0.20100256900242486
0.23320534704444798
0.23045877842845686
0.19871232404888195
0.18561842190298397
0.1679850466395507
0.1632276562398069
0.1495772037416644
0.1397581132930416
0.1307859589727208
0.11786014580554549
0.09404451789773308
0.06194242430986911
0.044195092214579505
0.0417982515817884
0.05843566104345666
0.09360349632592065
0.12558509966082176
0.15482594005755837
0.17277115906389856
0.17886382438151846
0.17804493832840002
0.1862109834833867
0.17735207037703798
0.160016043572919
0.1447502223397294
0.10781149369088551
0.10312591031653064
0.1610751648011727
0.14018250619887943
0.18395821138892116
0.22013116125114032
0.15230125711149636
0.24050002197643675
0.4168441740154612
0.501560694339965
0.6362607885254757
0.8075552250525497
0.7401999789417816
0.6698238151200312
0.567811840850474
0.22216386190748083
0.18259192634706348
0.20744753532452453
0.23091640369645097
0.2529492179613905
0.26604688519094766
0.26865617883784443
0.23804046070153234
0.20293477509083133
0.17178490320454173
0.14102095495935055
0.1294625619189899
0.12595777708275743
0.12448561285586274
0.12593217107232066
0.1362464923353559
0.10686800284835286
0.07748951336134982
0.04811102387434678
0.018732534387343736
0.04139915724938355
0.07779897127817859
0.12318859169691508
0.1585237175796551
0.19440005129251944
0.2046849716617496
0.19600834586473215
0.19286707753152044
0.17933312820421152
0.166621583080651
0.14966769654119996
0.13520742312476636
0.12162584163881171
0.10628502354203655
0.08401085750468476
0.057110151305303634
0.041359638408673384
0.03923165727232697
0.05307759164257619
0.08198969418807389
0.11074540427218904
0.13616600337738569
0.15469254390076811
0.16434309768664007
0.16664321685356764
0.17687708578881695
0.17183118452797977
0.15740319527938343
0.14538651415750833
0.1191003725493306
0.10127070890411712
0.14569521556649184
0.12459846725634362
0.14794383780497739
0.18261986893408422
0.1320603660952283
0.20757516709727966
0.24213522857983405
0.3046496836600485
0.6165559339360529
0.765837234739352
0.7689372774966216
0.7315693879741734
0.5060770276926766
0.22446247496771743
0.18703301950977824
0.2135501848968857
0.23193627533455152
0.25223457665662546
0.24913388641937478
0.23512440409327587
0.20189555326339698
0.16681600503572203
0.14814475144086764
0.13114361118714654
0.12620497048566176
0.1262501069236928
0.12765446854873602
0.12894431550886853
0.13463946170866428
0.10332030005109573
0.07200113839352718
0.04068197673595862
0.009362815078390069
0.030506378600552147
0.06324357280627704
0.0998145086545963
0.13495873568758837
0.17297714214860274
0.19260107345174773
0.19667754193682124
0.19882048283710324
0.18795984836274304
0.16944010941943397
0.14966542257369664
0.1312313587290158
0.11388941516062459
0.09680132625255673
0.07617360818966669
0.05348677506545861
0.03956088151902959
0.03764914183654777
0.04930911704832013
0.07381031324666991
0.10030330604102412
0.12346033994516277
0.14287303908242907
0.15555478339160617
0.16017761815590698
0.17064831711626455
0.16785410886645427
0.15523067202114219
0.14543296261465127
0.12762677416272492
0.10218034931926796
0.135197967056346
0.11852799392168455
0.13028895721104308
0.1595607597118499
0.12119050922426564
0.17751782582683046
0.16204300716636982
0.19880985383062225
0.6771302195326504
0.7886813988644129
0.812469182108524
0.7976726839303041
0.46126260698018706
0.22612466936374806
0.19051194400011687
0.21720363395415793
0.23150718402714568
0.25297475407535336
0.2463759750679863
0.22110006184933798
0.18694897287369658
0.14988639014616537
0.13201396342716756
0.12438936083788003
0.12384384433147312
0.12642672276624767
0.129795768767874
0.13080248662313215
0.13306024481964315
0.10032589935833083
0.06759155389701851
0.034857208435706194
0.0021228629743938743
0.022367656116611456
0.05228630544557146
0.08339754007509177
0.11922953921417197
0.15871413027611428
0.1858155755264592
0.19846567677234786
0.20403622650673908
0.1952359769474748
0.17198895750413834
0.14962856004527814
0.12753542261456094
0.10685916848296975
0.08839110302688942
0.06946033620598599
0.05050708423214207
0.038332384271084166
0.03657162830575474
0.04634929375515875
0.067333363451705
0.09199481872200202
0.11362054482147647
0.13402642243455196
0.1494177698351176
0.15595627126812653
0.16614971419481525
0.16487545966049896
0.15356708505411618
0.1455046322351803
0.1346859032980147
0.10757153089551132
0.13025439579092957
0.11725880658369636
0.12150659613887799
0.1408606629683176
0.10740914958764915
0.14496807416625476
0.186377506683834
0.19722209926509035
0.7803086059646395
0.8503807661462857
0.8533309096060083
0.8526805378664604
0.42496038010406817
0.22751745312870153
0.19355842971473328
0.21963559456320478
0.23037488197693362
0.2557265902457973
0.253129398791094
0.2194720597204352
0.18524014672846634
0.14384497284369802
0.11965748456159513
0.11917164961827309
0.1219240531351313
0.1265476018159963
0.1314335813399936
0.13210405445478043
0.13152265795510987
0.09763519857040308
0.06374773918569629
0.0298602798009895
-0.004027179583717289
0.07007584834729319
0.11593757676373838
0.1968421349401761
0.23897345009155258
0.2680505966035115
0.2563825022735463
0.2036951344613827
0.1814127416019221
0.16056066099639027
0.16118498347790375
0.1494468778089854
0.1423242470179944
0.1361618834342494
0.12485679164864456
0.10041209932067108
0.06513742616055387
0.046320377266245924
0.04379684214978911
0.06222437386800085
0.1017766301880344
0.1360933844481984
0.16844813517284696
0.18644525515853444
0.19055249140301628
0.1876543986065653
0.19294624723528647
0.18097655016544129
0.16130945630153812
0.14366678660605517
0.1004800122709184
0.10521574175804849
0.1710711836142465
0.15709335066357955
0.21791664722306991
0.2521083477845872
0.1746589583912697
0.26086193872903146
0.5021698937812987
0.597652968672149
0.665995832457215
0.8433919706312761
0.7456934747349797
0.6559888559657117
0.6095917635134662
0.22045921242703304
0.17964343044429468
0.20262634247523456
0.22921430411723198
0.2520551959294342
0.2801581475963755
0.294660666495932
0.2666018966119195
0.232281576990221
0.18889163521286279
0.14815878196177779
0.13169967918597225
0.12572552797830375
0.12217497886262123
0.12357391010202767
0.13695977180985766
0.10890164531939332
0.08084351882892898
0.052785392338464646
0.024727265848000307
0.022262833572965844
0.04148334398391967
0.048739527871590894
0.07573493533455652
0.1176979413113906
0.17572374816561664
0.21400158397673194
0.23010366384896652
0.23017923723093897
0.18670117932322833
0.14989991343532824
0.1084069704452805
0.07134646193901896
0.04861975992747922
0.04064836283378066
0.03977105563735222
0.03744651080633826
0.03474634172011113
0.03547175189784878
0.04172415409355084
0.05771706849327244
0.07611082212934132
0.10334788371109922
0.13234092725166766
0.14705080409955573
0.1608565714263894
0.1629047325362004
0.15623298293971843
0.15527551698690062
0.1645303185641658
0.1688435496621324
0.14079832263555667
0.1419864009658897
0.12882092946928334
0.116435543896634
0.45761304143102144
0.6075292568137749
0.6322706192079774
0.7325517175291733
0.9810494957949717
0.9730294670641947
0.9734541967526434
0.9630111547843951
0.261154755505145
0.23303084391593915
0.2084232004898154
0.22319750985055284
0.21594023044860786
0.26764712845555216
0.3285807414166777
0.28256412991813545
0.2551628188128689
0.1893808658047607
0.0902299131098111
0.1000920008831782
0.11355960414237441
0.12680332620221907
0.13731343884939967
0.1354050247395756
0.1222223665601113
0.08334874218817216
0.04447511781623302
0.0056014934442938785
-0.03327213092764526
0.019455110673733875
0.039805582491465326
0.05023030572144052
0.07908744216520658
0.12129036403551637
0.17582766297322802
0.21177320551049678
0.2267681468422653
0.22574135535979717
0.18458474991045373
0.14968357388856188
0.11027005393220102
0.07500500468816022
0.05251612912049929
0.04305278291996257
0.040424931127887226
0.03702327620858473
0.03468549836344214
0.03652529777950764
0.04446984068272799
0.0615754684234632
0.08003822151552957
0.10628326145207272
0.1335713550946727
0.14737640330350393
0.15973195764613055
0.1616782925780561
0.1545337749063864
0.15276443923910749
0.16126416342732286
0.1606675180078516
0.13670732193487045
0.13639879470670402
0.12434788231982682
0.11067731357672342
0.3755533392245731
0.4951992944426826
0.5323017231179086
0.6332350065776052
0.974629244353217
0.9696934555346625
0.969664727412713
0.9609475874853786
0.2817074632796368
0.232577782394117
0.20666398353236654
0.22347655849988896
0.21853868262538909
0.2685437035816221
0.3194353068377301
0.2713292398547971
0.24250164525964316
0.17767168715831017
0.08987923347606791
0.10196714142546025
0.11454581207336006
0.1267996306456278
0.1367412390173857
0.13523002816549462
0.12353399830409809
0.08523986977638232
0.046945741248666545
0.008651612720950774
-0.029642515806764996
0.055531210053620515
0.09661781297332776
0.1570278496070441
0.19458721356486988
0.22733134683482448
0.2263125227978883
0.19806958352363063
0.1865062931558977
0.1694509707199211
0.16364704530793248
0.1495958075518818
0.13921333289056753
0.12966738447646445
0.11642451506780692
0.09276815221828177
0.06131658981355432
0.0438022163296692
0.04143621396686052
0.05771772859826259
0.0920459461428395
0.12359017075933099
0.1522776968749929
0.17025578471522818
0.1767749954554878
0.1763627345074065
0.1849399665048242
0.17663387756773768
0.15971424262773368
0.14489241666755645
0.10926705636068443
0.10278602172000224
0.15908525959630235
0.13718971268934468
0.1779661330708721
0.2142532605505129
0.1485158001639719
0.23643949331317582
0.39626939039595355
0.4787041435138574
0.631037099934323
0.8005581460924843
0.7414851762717791
0.675278336636499
0.5596789802224805
0.22247596130875913
0.18316457938515943
0.20832047423021413
0.2311532550806782
0.2529225856621917
0.2633903279267165
0.2637474917620194
0.2327058635551318
0.1975944750400212
0.1685686077132388
0.1396777819863942
0.12903132610966514
0.12599963998554534
0.12491875073038945
0.12636002330757723
0.13607221724771726
0.10643789751735257
0.07680357778698788
0.047169258056623184
0.017534938326258492
0.044636633954635754
0.08211508643645815
0.13055921323057512
0.1662050102601931
0.2014002362869841