# vtk DataFile Version 3.0
vtk output
ASCII
DATASET POLYDATA
POINTS 5568 float
6.691187697899567 0.40895245110126754 -19.868583801724178
6.7717438679074755 0.3734550664105019 -19.245145535201576
6.855290587159787 0.32899736539261276 -18.61741164380124
6.937838751598372 0.27959090386518126 -17.98646177980953
7.00657797455255 0.23218364581720694 -17.340010935092064
7.028535883849281 0.19543042247649325 -16.708597975883865
6.9970331251105735 0.1775227929784743 -16.109015510026
6.91309576366749 0.17566331640935062 -15.52459962495362
6.765301657323654 0.18881000762803501 -14.94895619307934
6.556900726881889 0.21174939619176814 -14.426441884374626
6.288921268456634 0.24479470591576402 -13.931167686391598
5.962164775331822 0.2918469335185072 -13.45929925982431
5.579579431177336 0.3541296530183263 -13.009790008202055
5.13899541178308 0.43115282548086376 -12.576064682473449
4.6395351165936445 0.5230929765309025 -12.156281216505011
4.081588747672935 0.6296104551059398 -11.751248284408431
3.4657596514087547 0.7484340680940067 -11.360559362407487
2.8035581530233107 0.8750759576966491 -10.985570544696877
2.1139336113060425 1.001056835866115 -10.624347185958614
1.4169331636351934 1.1166470688989123 -10.270719648438607
0.7340607370318554 1.2125396434610551 -9.916315867455474
0.0788005651436553 1.2836519492564238 -9.55254873973056
-0.5389565544569657 1.3273779451569363 -9.172632778053783
-1.1098291169639947 1.3448860083813265 -8.76951236759091
-1.6297699507779595 1.3367529167123022 -8.339619845166615
-2.0974634415590288 1.3063844267441185 -7.882801237818036
-2.5098595071918584 1.2555319527360487 -7.396450382399006
-2.864696083554621 1.1850617301954358 -6.885301173065904
-3.1705990005596476 1.0949349009219869 -6.343094197378218
-3.4193531857488204 0.9695512700374751 -5.7684926359357185
-3.6112885169350872 0.8303771812148806 -5.145164435692344
-3.752455832708604 0.6962481961595183 -4.4879442637917775
-3.836286889270453 0.5581024468752306 -3.794815963312222
-3.864190353517827 0.4491886654901237 -3.095918956506011
-3.859521657323389 0.3429023661594056 -2.359069727651671
-3.8074402986568927 0.3363011139027317 -1.6773853460532968
-3.7174984819880876 0.33709054034360725 -0.9546353390573616
-3.6355000154450536 0.25655672155648623 -0.18327082852546517
-3.600725720049181 0.24832251041063413 0.6196504207102979
-3.598516611500104 0.2614838568614116 1.4559667594824055
-3.6672777372073426 0.19282895787324456 2.1111749541970477
-3.7212176073370773 0.24142114141409593 2.6782039798734836
-3.7492071148167394 0.32035854046634216 3.1595905929137236
-3.741430583291806 0.19098899593058694 3.3928015485324434
-3.712248441773699 -0.14569875394735793 3.5897655760946283
-3.581271294152915 -0.7317427003332602 3.7280933972971892
-3.4142458129836455 -1.2791203968846754 3.8841477058038882
-3.142034194579682 -1.8863595110751104 4.00433297696037
-2.793694381073374 -2.45929807050958 4.140345419818775
-2.366239501778191 -2.966827782519086 4.310973566140243
-1.8726110722415206 -3.3794766324896734 4.530767668142484
-1.3273412893261605 -3.6934085193159 4.806447523184114
-0.800072024051266 -3.892385667478174 5.148329041818916
-0.200947926011125 -3.9811138599912286 5.512707825315958
0.4393983375034428 -4.007580902252288 5.899278251282127
1.111920378714576 -3.9641147184200043 6.288350746505036
1.8156527075938755 -3.846149927434325 6.662435091881161
2.5595958418024316 -3.6459251879654198 7.0113502048337
3.3337574020235876 -3.364538938052061 7.309088227911901
4.124783527055868 -3.006444343842353 7.530857966153901
4.884146354667181 -2.5999261791343327 7.6638576161257825
5.605519842981596 -2.1515643227492736 7.716647400941104
6.273094129962378 -1.6834862486597155 7.702832415063569
6.877188014711113 -1.209624025480447 7.634921009334379
6.691908968590987 0.4099387009735658 -19.869658988935548
6.772956029696282 0.37529000912329336 -19.247271596206858
6.856955775488386 0.3314343030841129 -18.62052910409767
6.93989130672099 0.28236980164762676 -17.990588766427237
7.009017793070445 0.2348960490193489 -17.34471722942434
7.031304962973866 0.197667699001826 -16.71334544696639
7.0001677744339625 0.17896873495825266 -16.112496894840163
6.916218747984953 0.17620528349274076 -15.526829909117787
6.767955972859878 0.18836876083379758 -14.950858782780594
6.558926747184165 0.210359226909265 -14.427563203555557
6.290243315616252 0.24252737812453382 -13.931733593466456
5.96273596772888 0.28878695508720337 -13.459456092182398
5.5794928891819 0.35036807866926556 -13.009691468901709
5.138299644628873 0.4268351355768007 -12.57575303879113
4.638243569497237 0.5184150612838302 -12.155816225021296
4.079789122136033 0.6247725836252752 -11.750709190424654
3.4636296956422052 0.7435758527215979 -11.35998409971782
2.8012894749544257 0.8702972429297829 -10.98494198143641
2.1116367465790042 0.9964335965336427 -10.623629152543574
1.414633266184342 1.1122416457140987 -10.269940678973775
0.7317402012757643 1.2084220805562393 -9.91555077741101
0.07640124382377844 1.2799117274844665 -9.551912470247425
-0.5415056819012621 1.3241148460499967 -9.172237680369864
-1.1125937991360093 1.3422129985621203 -8.769415529282934
-1.6328041020280661 1.3347631995068163 -8.339744546020816
-2.1008593328038097 1.305245042299427 -7.883009676983535
-2.5134975126886028 1.2553693901935428 -7.396623554968092
-2.868378800476801 1.1859439663198015 -6.885317775209312
-3.174167298057757 1.0969380776068574 -6.342941642751235
-3.4226776385611704 0.972902523470586 -5.7683109705777955
-3.614393304373947 0.834975982019709 -5.144776814891554
-3.7551971235454262 0.7017536982929273 -4.487288864656708
-3.8383967335087963 0.5644846124134825 -3.7939694777479143
-3.8651118717369495 0.4571900816460571 -3.094723743796994
-3.8601743111706757 0.35045838633367216 -2.35802031962294
-3.808791252518102 0.34206725499893254 -1.6770088184385288
-3.719122092267247 0.34183495779310213 -0.9548081269949399
-3.637814600330752 0.2584092461660044 -0.18439529640646257
-3.603380965446973 0.24474286367274284 0.6122219759896176
-3.5995992953438676 0.25442836531187757 1.4400175925929068
-3.6681004841903495 0.18721296039463087 2.0978610243655496
-3.7220803623990086 0.2388427128897244 2.670708068756611
-3.7499531829644885 0.3191080847620734 3.1558665030157558
-3.74290619776092 0.1910202519197716 3.392002026720944
-3.7144478143975235 -0.14388931326848528 3.590501502925768
-3.583630657742508 -0.7301333311577756 3.729070631703435
-3.41697625184581 -1.2773895834188647 3.886542893969846
-3.144529966622758 -1.8849701302530595 4.006655604278026
-2.795791886020499 -2.458169145775211 4.142442037386503
-2.3678026718907472 -2.9659519184149445 4.312564938361078
-1.8734264274350292 -3.378811157134229 4.531649677661018
-1.3271862620169896 -3.6928868329128433 4.806485872333721
-0.798185754854227 -3.8919084148179555 5.146532137934829
-0.1977818879478861 -3.9813969187919427 5.510091192785211
0.4433767484653319 -4.008108406334824 5.895986157574084
1.1164629243768234 -3.9646831135190665 6.284542379003922
1.8205526983939597 -3.8465957129832624 6.658215525183595
2.564452746510613 -3.6463806300270765 7.006626779046976
3.3382900265393 -3.3649940011131076 7.3038480535590935
4.12931598773354 -3.0067680338217553 7.52539389673738
4.888471437270618 -2.6002870425526137 7.658090811682816
5.609441584023567 -2.152182991769507 7.710274615687955
6.27655120573547 -1.684460400373556 7.695709491942566
6.880235995658779 -1.2109563953976954 7.626891618616104
6.6502817903600295 0.35301860190009227 -19.807605989677644
6.701709620307159 0.26687403583601044 -19.120501072318554
6.758412766035058 0.1866770867603087 -18.43366468146411
6.817939710703186 0.11702940445774075 -17.74328240476216
6.864200197514379 0.07347344572144635 -17.063029155011176
6.867487497961201 0.06365516755555264 -16.42841173772548
6.816432537879655 0.08805459539628141 -15.896406698456872
6.733053375312415 0.13456325335133737 -15.37847499456149
6.6107082274336015 0.2027147457417065 -14.818264356214208
6.435674385516144 0.2773309359760721 -14.336241342849599
6.205211438462713 0.3585494433433316 -13.869462482149316
5.918629245775479 0.4493467773302159 -13.418481114864035
5.571450091770242 0.5506668246237014 -12.98190603159802
5.164008453986153 0.6586624130924136 -12.559354094780083
4.697358210373863 0.7706566256640548 -12.147855788386037
4.167689771659553 0.8860976730188482 -11.746923126966884
3.5704124694977017 1.0060564345156382 -11.35828073295799
2.9160484124740367 1.1282130194808857 -10.986306244303787
2.2279794125614676 1.2454118418184437 -10.630120779849806
1.5310672025204148 1.348689117834499 -10.279899463578513
0.849214017512895 1.4283023007207012 -9.924632197645971
0.19810853095450764 1.4780720854359317 -9.553396286408844
-0.4117434760452666 1.4947870300772186 -9.159443804251218
-0.9713052115892677 1.4788296168867339 -8.73874140013684
-1.477064411021142 1.4319430255894627 -8.295384486696813
-1.925809448117474 1.3534406189318666 -7.832382764457321
-2.326141637991955 1.2470268842336174 -7.346076508776721
-2.6800892987992686 1.1167972990819506 -6.841450249881737
-2.994155509951703 0.9620802144874261 -6.306048771823
-3.25869569125679 0.7577284462632925 -5.729316996212828
-3.4643626988293894 0.54616381428239 -5.114136181966414
-3.626718024831656 0.3599616502650683 -4.469808250570344
-3.746905296089853 0.17125733092248555 -3.7849170522822866
-3.843349416233978 -0.03201081205689857 -3.0965718412864276
-3.8539845584548615 -0.11302674919654611 -2.350810367199649
-3.7600543102115647 -0.013918037044001241 -1.6217825807440047
-3.6540027802584705 0.046339095271298016 -0.8651269615769939
-3.528987587512701 0.13623070621107194 -0.019582504566210468
-3.4693919901681345 0.5246329844118938 1.2424240231669708
-3.5853091720280927 0.7976455988584408 2.660301746628406
-3.66768100175575 0.654682498163645 3.1821430705919274
-3.7182452439954576 0.5737840405488889 3.4863007517937126
-3.7500791724528986 0.5907403862294747 3.779848637774327
-3.7006589764837963 0.3678543405400903 3.8926292562781577
-3.6244398034714638 -0.09676563234289026 4.001887023111745
[...]
CELL_DATA 87
SCALARS quad_param_group int 1
LOOKUP_TABLE default
3
3
3
2
2
2
3
3
2
3
1
1
3
0
2
0
1
3
3
3
1
0
2
0
1
2
2
0
3
2
3
1
0
1
2
2
2
1
1
0
0
1
3
0
3
0
0
2
3
3
1
3
2
2
3
0
0
0
2
1
1
0
0
0
3
0
1
1
2
2
2
3
0
0
1
3
3
3
1
0
0
0
0
1
2
1
3
SCALARS single_component_feature float 1
LOOKUP_TABLE default
-0.006080413100218764
-0.00539930340187764
-0.044708643355593845
-0.08038710879553393
0.008095793743228257
0.007671870438153303
0.0020885075014179886
-0.03068096009903673
0.016552134008618366
-0.036034247071447194
-0.01960105057693104
0.003624003912803188
-0.04939738832397804
-0.04178922550894812
0.02436901271439519
0.0019298586076829383
0.010310828944088274
0.026900186757181047
-0.0066195986854942985
-0.011492205070560004
0.015451173653145717
-0.008580689413057428
-0.034294647015268256
-0.0715421532147542
0.03093860252553593
-0.008917857980604127
-0.02550468850068377
0.10461336556721725
0.02163135491289523
0.006750144425842514
0.02857164604702616
0.03171553176823354
0.06981081274657362
-0.0010376751728396211
-0.024084845378598
0.029851033873882514
0.018742482800092986
0.0021018747539363995
0.01194624834967667
0.00408213608198707
-0.010165167037879161
0.02310164933352729
-0.06795912853951497
0.005193396401991762
-0.029976058235562895
0.04235813304378913
0.0379285195354943
0.03851100660450511
0.017826646374491308
-0.010615262832383288
0.053104692907326834
0.008380878444663977
-0.04336100501921352
0.012387539470673205
-0.026209069791092852
-0.09140585999987572
-0.013607022805328217
0.02386000168153494
-0.029417008901033836
-0.011749508801726094
0.016310433308796304
-0.03618044927756055
-0.017833465517757805
0.005282538017905042
-0.0008027760505906756
0.016793433673707364
-0.041441860237249474
-0.004357677120296097
0.06250812581344475
0.005536671487295627
-0.013047224211744299
0.011234695715091591
-0.04214906492127106
0.07650835282661111
0.020259770053345633
-0.017732594911429526
0.000465303569520294
0.04142166632818589
0.05511884459822106
-0.03449400296218411
-0.04292876948263301
0.06890658714899732
-0.03406890400115101
-0.008816331209171996
0.003369326971010351
0.008980228711856303
0.001373866376474242
POINT_DATA 5568
SCALARS single_curvature float 1
LOOKUP_TABLE default
0.01776915307485991
0.0472170874691814
0.08165346903330313
0.1187006360116087
0.1552807937067176
0.18542987369262934
0.19680045008799374
0.20354428460523893
0.19875813039893614
0.17331483050141644
0.1505155233164354
0.12768314310938914
0.10637245599319771
0.0877420825624198
0.06945493234532664
0.05125123298427768
0.03944860468970244
0.037938459687394836
0.04782907860191636
0.06877587172226247
0.09297926444365268
0.114118143533082
0.1334608095280392
0.14761187143374105
0.15352653626787388
0.16297669271474474
0.1621310899784035
0.15163719998552327
0.1435558236668114
0.13049892441970856
0.10706319797403405
0.135791558123946
0.12150275774071895
0.12157891552174423
0.14002913248234067
0.09475389691757348
0.15425350912383448
0.21566239905840942
0.23202448089632435
0.8601370601085554
0.8937795879524988
0.8911479018342168
0.8881684686905216
0.3716506986827519
0.20934135669586823
0.18541956404341312
0.21532129520330376
0.23125959169220114
0.26105326761241415
0.26341969966023937
0.2264213781191359
0.19144205389769217
0.14550394612829337
0.11534235220316676
0.11747455986111752
0.12165507089303913
0.12664491262788827
0.13071724088564976
0.1308505870870566
0.1284699965863713
0.09456426387172055
0.06065853115706982
0.026752798442419082
-0.007152934272231654
0.01810896169068068
0.04754921481490294
0.08151284142821254
0.11844794190283328
0.15540150864920443
0.18535759372040195
0.19703484911288704
0.20370523362502063
0.19850650377755644
0.17321865752794519
0.15041255711682835
0.127585817246173
0.10627896084848909
0.08764197874987036
0.06932016759699687
0.05110836072116842
0.03930144517917982
0.03776634998690815
0.04760811689122465
0.06849352039086135
0.09271334948792653
0.11387988194424262
0.1333628953010242
0.1477069683513161
0.15372922385219767
0.1632581406107783
0.16239144181052723
0.15182513418781846
0.1437774763500366
0.13110109435723197
0.1070361151065999
0.13491142673666603
0.12080752484178162
0.12122609528343449
0.13989199259504628
0.09560161454241144
0.15164718976131067
0.21167221905190936
0.22661912015231642
0.8537777989996689
0.8903650411031755
0.888043739827305
0.8854721789743456
0.37685622976864175
0.21132831038120328
0.18630995527241156
0.21582564912000649
0.23113114901020818
0.26051921224330293
0.26244589614578345
0.22566768450040592
0.19077277199913065
0.14524416241235893
0.11559370778322368
0.1175647115762549
0.12164692662396855
0.1266352486697316
0.13082518395011924
0.1310110141507929
0.12877754274636974
0.09485211488492691
0.06092668702348408
0.027001259162041255
-0.006924168699401573
0.02501219668065997
0.05846784812476963
0.11904797787376345
0.14973694075847185
0.15909793881596673
0.19655295910099568
0.18288690862358084
0.19334922022507903
0.21190612358183458
0.17831934612664951
0.15762451336226005
0.13589709520435894
0.11481012450768013
0.09619864203057323
0.0790845220077831
0.0604809339553677
0.04838061494350171
0.04798037263841944
0.06044431262238976
0.08464967790162162
0.10790441900164652
0.12783406261917424
0.1394113082904151
0.14263212102136952
0.14205614547432888
0.14596975170294735
0.1457440750930215
0.14126374132429473
0.13160146084580515
0.10296582531570264
0.1344759528961606
0.1971600380827304
0.19161260571132666
0.18564357421813293
0.14472569805558538
0.07706336440696114
0.5342399475485871
0.5397962743672884
0.6978583584016745
0.9560000560978413
0.8905291205695658
0.8927036492478726
0.8333591540004278
0.17411143998904288
0.15397590494696428
0.18879600885977385
0.20915900966100917
0.23836694586143573
0.29024419289649483
0.32427214629140544
0.27861142204709277
0.24089428595996545
0.1734539352395055
0.10595578666003203
0.11420879211900532
0.1229261465571702
0.12751556123176405
0.1255372054089778
0.12282729888921273
0.11229728412251237
0.07945785080908806
0.04661841749566374
0.013778984182239426
-0.01906044913118489
0.04555916207080459
0.08787156760298855
0.1807675767437802
0.20454350656616158
0.190765437879611
0.22882215812405143
0.17561389858569781
0.18606429307302294
0.2216544670539298
0.18237051322613199
0.16674880664725392
0.14857359773475112
0.1282780313793527
0.10892047930434653
0.09123805816152905
0.07062365612379305
0.05737610998566732
0.057550951640315526
0.0720415637892092
0.09879284146467776
0.12111334007188496
0.14036741507858722
0.14540261524182752
0.13925149322559288
0.13237376421457633
0.12963818780693748
0.12880984555151107
0.13233808847264347
0.12194445661564383
0.10509569404291703
0.19258806427627964
0.26143270556473547
0.2767433996681952
0.2809956214262127
0.17698718368600422
0.09948633794057289
0.9321610098318677
0.9799180387021591
0.9983656628420852
0.9989511586068709
0.9749246919384292
0.9245125337340458
0.40290626049630074
0.2515807667849591
0.27584361614345454
0.25965561520382585
0.253158571938295
0.2444135695360436
0.30261871960687936
0.37226103236299024
0.32894420883619013
0.2924249020344013
0.22129807257419717
0.11097309165698709
0.11481091212649704
0.1255594585976163
0.12883105496912395
0.12238127934821626
0.1173480784490422
0.09989399104081391
0.06795339096511077
0.036012790889407634
0.004072190813704496
-0.027868409261998642
0.02637908555779159
0.05609976314612365
0.0811248526110597
0.1155843176503581
0.15877116307366812
0.18450368622778252
0.20147442208042035
0.20670651499079823
0.1934092563665767
0.17124909507596855
0.14850565079210765
0.1259581173907538
0.10479248687510848
0.08599371763306794
0.06690661365972118
0.048440611391846355
0.036478902025577346
0.034405191605928885
0.04325306701457364
0.06289789007103036
0.08744114460435945
0.10920523315431754
0.13147570823121885
0.14961172734687136
0.15769914445476535
0.16864765110617044
0.1673038193753593
0.1555514704884434
0.14820825571474724
0.1430212394248513
0.12119094469800235
0.13067329482036155
0.12151083988946562
0.12864502729216562
0.13193670343441316
0.1240081173312627
0.14539763792669724
0.17502720362689636
0.17573718274896177
0.6847819648672651
0.8020178653326003
0.8116283440952343
0.8201257829228153
0.481950834684246
0.2540411214529229
0.2075341437101519
0.22666151693327308
0.22857035241836068
0.2506019284651858
0.24508774520821114
0.21293434100716027
0.17994325310883072
0.14189729339006224
0.1209159244223913
0.11955135081744267
0.12158233658262278
0.12648691115418362
0.13308208880255404
0.1343200181769992
0.1350107299369918
0.10068854658874533
0.06636636324049885
0.032044179892252375
-0.0022780034559941043
0.026078498498965305
0.05577842216386746
0.08107212176085973
0.1156170729845194
0.1586397615650101
0.18451571021776403
0.2013414807273544
0.2066179327792675
0.19357236966545097
0.17131285938173038
0.14856192104065702
0.12600089615302068
0.10482887098717505
0.08603594430245187
0.06697496777215692
0.04851951987557715
0.036564692325944545
0.03450923438594813
0.04338910074319658
0.06307356698334478
0.08760673906751236
0.10935061328695765
0.1315334712863177
0.14955155479412874
0.15757614841957873
0.16848413923421968
0.167156893951032
0.1554346821351269
0.1480683214413295
0.14265074869754124
0.1203767251669194
0.13047380604822767
0.12112813193754308
0.12805760082261264
0.1322008805736186
0.12268230135193793
0.14426178512047738
0.17487096694681764
0.17573052025228825
0.6908534761619305
0.8051536876804211
0.814209944490188
0.8223051267906062
0.478697123909943
0.25262991574767274
0.20679346204528845
0.22630355948838451
0.22865122588544798
0.2508897772293204
0.24556874526546463
0.2132636751911885
0.18020636933476222
0.14194832026286783
0.12074030276842736
0.1194834073955029
0.12158161019343601
0.12649030321987886
0.13300777719207654
0.13421234213801245
0.13481104870475896
0.10050151896144727
0.06619198921813557
0.03188245947482388
-0.0024270702684878187
0.022352563586777723
0.05184933297356421
0.08075297766839255
0.11637611273549339
0.15705462331787978
0.1847573982311656
0.1995492731837903
0.20541593780957965
0.19570336992817594
0.17214109388858376
0.14932426760448417
0.12661368208648766
0.10536950025484675
0.086649373361116
0.06792050932819695
0.049588993155795916
0.03771260555599458
0.035889307470176136
0.04518579415005381
0.06538841466468219
0.0897882766133935
0.11127465144405263
0.13230339740935956
0.14876023095024005
0.15594459600760036
0.16629431833259495
0.16517623724969258
0.15389370291656387
0.14622853337727565
0.13773582391409256
0.11130259367834681
0.1292956819800275
0.11768022834849469
0.12186147600590985
0.13636651514126782
0.10845892238619245
0.13730094805494442
0.1808400312832607
0.18486330432911494
0.7680631123971796
0.8452220675173813
0.8480628984818668
0.8510177562428948
0.43521703250927307
0.23438165765415261
0.19739505353453485
0.22167604983930977
0.22971386783201736
0.25483732915788404
0.2523182262871387
0.21805031731224087
0.18415870085175182
0.1429545480737692
0.11847370349572173
0.11862117078945068
0.12158856098999063
0.1265427120289121
0.13204968536795472
0.13281659164854853
0.13220401881078808
0.09805999003981133
0.06391596126883459
0.02977193249785784
-0.004372096273118908
0.017221026529484533
0.048429215226269834
0.10010458792618633
0.1349313595461639
0.154969359929739
0.19061555369866423
0.18793126309705918
0.1972303808796507
0.20741026871647003
0.17659643878820588
0.1547341583983085
0.13227485010642015
0.11101514845053032
0.09248727996074303
0.07514314243756592
0.05689009908966909
0.04501824963831641
0.044279886624440636
0.05585385946377414
0.07892989473510227
0.10253353078564138
0.12282670631252819
0.13716524714811582
0.1443212933082528
0.14617476852092193
0.15233246762215946
0.15202286338679485
0.14494705287251827
0.13577835466186544
0.11035522344741502
0.12052814553076821
0.17429264818188964
0.16145233080861027
0.14958129812445287
0.13476564446021977
0.07362316658707305
0.34636322741884484
0.41820120088641016
0.5189675470701566
0.9565297126780731
0.9365517644176826
0.9305695268844938
0.9120226275741712
0.21810967937822157
0.1579840608959443
0.1743221531129415
0.204139795828717
0.23583333034671353
0.28061529177014927
0.3019192358235141
0.25831659688032305
0.2211118330336265
0.16032493091901204
0.10797646691915923
0.11495034282413549
0.12227708723620347
0.1271282915434719
0.12720428413712956
0.12549302297760923
0.11786572793880624
0.08465047747612153
0.05143522701343682
0.01821997655075211
-0.014995273911932602
0.03283050681854099
0.06311144595558524
0.08292849060020137
0.1155723197722009
0.16167886400842177
0.18442506834919353
0.2040274109200241
0.2083913852257726
0.19012022838476375
0.1699507796497185
0.14742739394334467
0.12520988300726899
0.10419965267260886
0.0852771311692155
0.06564480550842744
0.046936686910348364
0.034810647640763866
0.03235363704445837
0.04055244374419323
0.05939800580645211
0.08414091358576764
0.10632761675992243
0.1303435583788433
0.1508109316353581
0.1601212738654808
0.17182323307138692
0.17012942890754548
0.1578694905816023
0.15100100569153713
0.15028995689685498
0.13894547798789142
0.13582231980455178
0.1305660755738392
0.14160798883713915
0.13732661606445623
0.1666603909255126
0.18902048632478183
0.19970713922925262
0.19220371603375297
0.5654003308681812
0.7417245429480194
0.7643189295813756
0.7798153829164142
0.5441642682850032
0.2826904764523993
0.22280772285501954
0.233940821350376
0.22695176220950378
0.24524410141502118
0.23650300795735804
0.2074373684482589
0.17584710942367907
0.14165390790767612
0.12450596503288894
0.12097585141748338
0.12163308292560912
0.12643681445186236
0.13461051477898575
0.13651737065914651
0.13904273428274538
0.10446553319356287
0.06988833210438036
0.03531113101519785
0.000733929926015342
0.019992475973886103
0.0519584956468684
0.1069523937230556
0.1401387421728457
0.15612277288704923
0.19257183514311035
0.18597440762249012
0.19575945864275426
0.20916691829652576
0.17726524270294428
0.1557928558583508
0.13356776431675396
0.11236304742307268
0.09381664404606974
0.07658880181663924
0.05823081830680528
0.04628747865967196
0.04568626666993228
0.057605881299579935
0.08112068838541936
0.10459195082298757
0.12473742730753878
0.1380121163851833
0.14365690407077686
0.14459037777523848
0.14992103997091427
0.14966385326770823
0.14352843906039478
0.13415961619216038
0.1069413965823054
0.1251935664251403
0.18283029032474732
0.1724848350816205
0.15826270246996313
0.13355108371719204
0.06977845033403057
0.4097677648195599
0.4657130058923187
0.588904688294794
0.9581434319376488
0.9262181500651987
0.9210910560658372
0.8930776647161545
0.19682795610805515
0.15358217250477352
0.17820109133795833
0.20484444179285427
0.2368079391562941
0.2845261272129324
0.31056058160833894
0.26598957495102915
0.2285227468646687
0.16493003443317428
0.10697032356271349
0.11460420505750595
0.1224991203371575
0.1272668746714195
0.12653934846243128
0.12444190242248727
0.1156973125952346
0.08262700005037103
0.04955668750550747
0.01648637496064391
-0.016583937584219652
0.01339530338185393
0.043454858889190054
0.08758687045344872
0.1259726160260407
0.15405823790101766
0.18759281438119646
0.19199415493772834
0.20018290090574972
0.20362464097678565
0.17516299657393858
0.15270829605483593
0.12993976470033447
0.10861361419836714
0.0900751285550717
0.0723849707870433
0.05423946600466828
0.042452276513497984
0.041396295572779976
0.052231466828409456
0.07437052554414654
0.09824580990203916
0.11888414957871035
0.13545715399341537
0.14576211569219585
0.1494831269678223
0.1572299136828467
0.15673607832799719
0.14793042761478079
0.1392188493352727
0.11885078613106244
0.11271625086007567
0.156643748960214
0.14089808563374706
0.13431600470380503
0.1382944717942625
0.08267397311960094
0.23909398070686877
0.31904182561505373
0.3756732014386548
0.9381435062911277
0.935545333751544
0.9299758471130302
0.9204883191028927
0.27714171594198156
0.1754777300128349
0.17363319851101017
0.2069419497818915
0.23379058580574952
0.27192190130830085
0.284045244123547
0.24304348460237077
0.2066376940055385
0.15235917215497463
0.11081918006233094
0.11590428135817424
0.12191693363977245
0.12687875514150146
0.12869350641870833
0.12779981967344115
0.12251630130521067
0.08899506152323407
0.055473821741257465
0.021952581959280862
-0.011568657822695741
0.023332376253789328
0.052871754178399996
0.08076900385709182
0.11610436694245252
0.1574625808630467
0.18467481617204412
0.20004961711210698
0.20575295874177454
0.19512061515072626
0.17191545346724998
0.149110594435566
0.12643587595297195
0.10520932488017504
0.08646999774439887
0.06765209398780131
0.04928934286432972
0.03739364793149031
0.03550801036761244
0.04469078851187269
0.06475165724098131
0.08918827065604759
0.11074384024171732
0.1320899555008064
0.1489775390019082
0.1563953070829584
0.16690313478120525
0.16572929540184808
0.1543178760736802
0.14673375079235054
0.13909285155471957
0.11340464032090804
0.12926603832841146
0.11824583209314123
0.12319095866560513
0.13523807354522774
0.11190325716560486
0.13773138302482427
0.17772614323853725
0.18053998832215598
0.7475587975844636
0.8345537207159217
0.8388972465974165
0.8432086163990947
0.44725451618317463
0.23932944028087696
0.19990454062369745
0.22293075332681514
0.22942210313659264
0.25372394591770736
0.25038780753848927
0.21665285587943225
0.18298356114580325
0.14261663740009334
0.1190879594785341
0.11885215225112987
0.12158357037099166
0.12652687249593778
0.13230934404615688
0.13319626857959282
0.13291667731055573
0.09872734736617522
0.06453801742179471
0.030348687477414205
-0.003840642466966304
0.0278062821803574
0.06219259276004929
0.1260781429494783
0.15551736715963177
0.1613278384885935
0.19917877204078846
0.18129921965283471
0.19205264214091372
0.2133291724803744
0.17887524877764877
0.1586761003817916
0.13727844298827035
0.11626878115008739
0.09760346261436201
0.08051101433574673
0.06173520309883394
0.04952933676934735
0.04922720415491621
0.06197717793529932
0.0865448544641768
0.1096812919516023
0.12950510189213715
0.1401800604222002
0.14210759784152666
0.1407083436660305
0.14381871154372397
0.14358171550021354
0.1400570561235732
0.1302529654247219
0.10180363373498878
0.14054712049122897
0.20533382779077625
0.20256483639393308
0.2002276436434121
0.15060881695993106
0.08102471976509863
0.6033485799429457
0.6242845387628247
0.7826157600360227
0.9603886909841858
0.8779576789585678
0.8733066346648434
0.7842050605194973
0.16953803301882775
0.1598559058458763
0.1962886468399423
0.21295419229026763
0.23919783433659877
0.2929495084710763
0.3314415591174423
0.28546346950186735
0.24770114966164614
0.17861014075634216
0.10575996752820697
0.11408219538728803
0.12319177706066686
0.12766209663540432
0.1250341680337281
0.12200044379017076
0.11051974732718935
0.07780307686525156
0.04508640640331378
0.012369735941375998
-0.020346934520561785
0.02328748887033094
0.056207074924489966
0.1148431696801251
0.146347767371542
0.1579359582148874
0.1950925569055989
0.18390891518127325
0.19416129196703324
0.21099942653974352
0.177968456250442
0.156991727729822
0.1350804981333969
0.1139501199753294
0.09536548785828339
0.0782236358291666
0.05971324196776709
0.04767135891944438
0.04720634456923418
0.05948927436867841
0.08346511807349817
0.10679304448370092
0.1267922795366804
0.13893689722329144
0.14296942004115018
0.14290368237727408
0.14730447377690967
0.14707571325843544
0.14202121600649859
0.13245330042483747
0.10405222488241112
0.13108074387875615
0.19223503786386528
0.18500554865453478
0.17628280426675458
0.14081618783502578
0.07441941051984281
0.49130569047669903
0.5143571272632558
0.6613112004258312
0.9569719781788286
0.9052019043773545
0.9038159241122243
0.8579525885658549
0.17991586007067584
0.15256470587015084
0.18470148771534517
0.2072863401500634
0.2378452599229623
0.2884166130551773
0.31971322967395316
0.2743486819051711
0.23669162867780302
0.17043782708638736
0.10620611195575737
0.11431868774196152
0.12277310841711096
0.12742858204733454
0.1258641023343886
0.12335842308468505
0.11342560530888456
0.08050901506924796
0.04759242482961136
0.014675834589974762
-0.018240755649661836
0.039450803216575146
0.07047378398495886
0.08570490392630756