# vtk DataFile Version 3.0
vtk output
ASCII
DATASET POLYDATA
POINTS 5568 float
6.702652899905182 0.5255788611370689 -19.87380182608593
6.788418583677424 0.47947920337716815 -19.257559098028313
6.880155375754181 0.4237584024843969 -18.63723892530786
6.971046795209012 0.3630481734922385 -18.010623218073263
7.045277927505879 0.3021139418254594 -17.358542865451856
7.068484606431434 0.24828822209229623 -16.711157143341403
7.031012220354724 0.21007182576228223 -16.102951355050646
6.938254164690928 0.18831910343348102 -15.525855071420924
6.782104325833229 0.18220997019248436 -14.978112177261957
6.569927975362663 0.18640203483464518 -14.457493312617089
6.29828977308143 0.20049326359441919 -13.963658203489073
5.968506722731089 0.22946960260645766 -13.492803998288572
5.584256299731655 0.27615958755751213 -13.041582301649
5.142074616921721 0.3417589742948843 -12.602231189339674
4.641717945591855 0.4266910788172438 -12.175315619662335
4.083696755397302 0.5306255862306161 -11.76323650282797
3.46928949179173 0.6512213022552719 -11.366008112470013
2.8095493169135457 0.7836476099586095 -10.985881930600804
2.122268322206042 0.9191493771803936 -10.621447458065948
1.4264653843174298 1.0472966298760373 -10.265852882346227
0.7424120811189585 1.1590526101974625 -9.90905680211299
0.08451916420805483 1.2490296505238236 -9.542640905816773
-0.5371544028177285 1.313613871813689 -9.159905826638756
-1.1131485895299207 1.3532696004199851 -8.751888258685302
-1.6382290172515637 1.3669185439562206 -8.315460270289455
-2.1106103692544425 1.3582093929075394 -7.853307543709505
-2.5276778694725524 1.3280136527659467 -7.361326803107419
-2.8873203516787065 1.2760000266938774 -6.8438699753379115
-3.199844969385422 1.2001944215686933 -6.295749088940639
-3.4557288625263887 1.0927461215881213 -5.719235994407045
-3.653207132110293 0.9537302932512599 -5.095745055718266
-3.8018789562740976 0.8060310000217407 -4.433733797109532
-3.890236971662406 0.6501325967070449 -3.7413140712469786
-3.9169646208770685 0.5219292673306611 -3.0389731802354882
-3.9115417754222386 0.38503124899302976 -2.3061572850713308
-3.8658710418955127 0.3076890541649918 -1.6582278603450717
-3.765784421156445 0.3059594863018474 -0.9484647718844037
-3.672322366827704 0.2041855165424131 -0.19411625880663552
-3.6489650576283834 0.20889900427468627 0.6559158891300969
-3.6040432385892998 0.21225546107463353 1.4719046674960783
-3.659023350277795 0.11739166830183051 2.092860514579297
-3.690806708293904 0.117398672455384 2.5679609308077183
-3.7040770455401226 0.24434522712383722 3.097655518769211
-3.704051623550629 0.1758361417405204 3.3950416036068765
-3.67146254707668 -0.09989457345513056 3.6137272397339535
-3.531940588737334 -0.6515585672522898 3.767127974680351
-3.362628011688456 -1.1656505780216722 3.952588589624681
-3.084154377116016 -1.7559167265691489 4.09127832761896
-2.7346487682143064 -2.323873899038024 4.240139717315969
-2.3134057364322977 -2.838637261938614 4.411458936212268
-1.8265196934857337 -3.2738489230654877 4.621665738553841
-1.285771938544202 -3.6193559203871617 4.881484874530837
-0.7493813700738374 -3.85264618553934 5.196049170731128
-0.14472972555926322 -3.9842735042772746 5.54123841306948
0.5000053120848016 -4.045306173902121 5.912677116632879
1.1756833473256778 -4.027185749353107 6.291725300717794
1.880238530137811 -3.9233788997196792 6.660604074582462
2.6189309376758096 -3.7283620128439146 7.006686619297743
3.3817447498946995 -3.4417594198560066 7.3042646718934705
4.1697332630561075 -3.066219555928115 7.534437697680827
4.924886845531453 -2.636852219805398 7.675924556198515
5.633775030781632 -2.1678988353267457 7.732590847579079
6.286144076151349 -1.6792444739206025 7.7211307863172935
6.875261025582295 -1.185776434135177 7.652053650178736
6.696534241056133 0.39432315713362875 -19.879134256004214
6.781273190116818 0.37027728161057766 -19.26537716422817
6.867946274441363 0.3347552821060345 -18.646671203989996
6.952876225044338 0.291478052347546 -18.025647887334287
7.0246240325738984 0.24625782330053497 -17.386650550778086
7.049883651963628 0.20800537419148674 -16.759077508301583
7.023685609620887 0.18584190869708758 -16.147440867575693
6.941565780505387 0.17844337405976055 -15.54761987677007
6.790498249837837 0.1851298586986323 -14.962101407914913
6.576017928120598 0.20178783620625443 -14.430552168016385
6.301101996651663 0.2293905055279674 -13.928821496941934
5.966759734066942 0.27173713552079604 -13.452203298706142
5.577321230737281 0.3297701142140309 -13.000236980766408
5.130414680627638 0.4032183842849278 -12.565385480959817
4.624638091759362 0.4927582438072356 -12.145466768857021
4.061162808703386 0.5980965054113216 -11.741150630564531
3.4414208397293002 0.716315134079123 -11.35148405665299
2.777167037088729 0.8425661171579548 -10.977027272905724
2.086714275226488 0.968170685999538 -10.615522424891038
1.3894018514421482 1.0834049282940599 -10.261650049019725
0.7065328665844746 1.178991439599435 -9.907900821040709
0.05094542235008703 1.2501239281686007 -9.546083370051543
-0.5676460136154551 1.294524735846051 -9.169362869227637
-1.1398178631820397 1.313659364867683 -8.770492198177044
-1.661639893406067 1.3082431441957592 -8.34436293392554
-2.1323187245220723 1.2824275844954083 -7.88954303349885
-2.546396966999066 1.2377138187135135 -7.403954081799165
-2.9007330905631714 1.1745908109504701 -6.89239180228048
-3.204010229906538 1.0935222107539533 -6.349545614981045
-3.4486308324682398 0.9788411904948098 -5.7749193710777
-3.637019460931922 0.853147554608123 -5.149261337471722
-3.772654374811578 0.7317574470201378 -4.49001861527488
-3.8486715569726595 0.6069381384599071 -3.7944569580828276
-3.8639336412655134 0.5197226269775987 -3.0920498858232963
-3.8565072818147463 0.4152228064103266 -2.355766755008959
-3.8105357526443697 0.40486920316357594 -1.6730992673433724
-3.7257565966272828 0.39512849725626054 -0.9533766954165068
-3.653700539439933 0.2878146119881826 -0.18806261184286166
-3.6201435568669997 0.22039288419777353 0.5403464819111117
-3.6105568830828356 0.19958979446253697 1.2915132692955658
-3.6795869572098754 0.15293685699076487 1.9840019086462886
-3.7394156868081114 0.24919555651978187 2.639665192072904
-3.7692065566474415 0.3327088376884544 3.152552918093519
-3.767905961008375 0.2038694180938638 3.406879371243064
-3.747333708463434 -0.1281139405560551 3.616024662554645
-3.6200036169331415 -0.72410963395203 3.753635981473461
-3.457463499361582 -1.2778308410605632 3.9187173736484153
-3.1840249915037346 -1.8926218031336466 4.0340610888108746
-2.8315718784635244 -2.46953006020687 4.164817289418341
-2.3969079077098896 -2.9782832859782333 4.329803395442773
-1.8935470623704975 -3.38843116307693 4.544004092734289
-1.3364765313087026 -3.697208365626748 4.8140531781696705
-0.7917867709426313 -3.8894086859043133 5.142195561095417
-0.17955678790275598 -3.9771250825311038 5.502006205777838
0.46889947532586496 -3.9987194196825806 5.884646670258921
1.146990335758617 -3.950158896310544 6.270351143443917
1.8544756231032289 -3.827764021476795 6.641118723177783
2.599105774975933 -3.626505702035592 6.9851834522892915
3.372236959310701 -3.346247131895104 7.277354871506287
4.163962711211816 -2.9904808183536207 7.494887308656405
4.922052777302428 -2.589258903466492 7.6227855788128185
5.6418535731904 -2.148090325552818 7.668176931704936
6.307804420444569 -1.6882379138949148 7.645723774093373
6.910833082153977 -1.2224050466798855 7.568227827531929
6.691017142172744 0.27597194392479807 -19.88394242457084
6.774924023035035 0.2716908135426842 -19.271769201133687
6.857132035756107 0.25426202049867735 -18.65394867647447
6.936797707089507 0.22650448846493546 -18.037532508262576
7.006369160995932 0.19515068467629024 -17.40994037942439
7.033423985889555 0.17051606446006617 -16.79969148598097
7.017409955202274 0.16286653967429435 -16.184404265404538
6.94517339355536 0.16884915098461936 -15.563129198401292
6.79905732797025 0.18774601871726176 -14.941936865643898
6.582409818935824 0.2158650092860001 -14.400218685944566
6.304397103790944 0.25584986216691574 -13.89108397430943
5.965776121123328 0.3104330504588475 -13.409038509722004
5.57151056228314 0.3787938992322208 -12.95626667073025
5.120236259609006 0.4593489387499386 -12.525383192789446
4.6094719461319045 0.5530631783024982 -12.111695584339438
4.040987367998395 0.6596843543068789 -11.71431602957357
3.416346021308315 0.7757759979518485 -11.331413729625515
2.7479350925141786 0.8964740396610176 -10.962021319772308
2.0545119906089457 1.0131754873213838 -10.603099848506446
1.355678754978264 1.1168102829512583 -10.250695962233408
0.6736369766996255 1.1979264910021952 -9.899557835684673
0.019790718504681615 1.2522263647204313 -9.541678469438741
-0.5964244694531059 1.2786153346409745 -9.170103064509753
-1.1655872198831003 1.279476284197974 -8.779106639868655
-1.6848579530365355 1.2570733265819358 -8.361864551750939
-2.1542945470220087 1.215938928918867 -7.913333235759499
-2.5658806404246914 1.1582237432840026 -7.433247720089862
-2.9155710250934272 1.0851672586626155 -6.926815786053917
-3.2106375084048304 0.9994060129536877 -6.388624127905674
-3.445249201219465 0.8782123750635751 -5.815506907507041
-3.625566681786924 0.7644208502046409 -5.187600638921574
-3.7497760402357563 0.6662863787527853 -4.529963764754661
-3.814853154091282 0.5691428350520579 -3.830282418971577
-3.8198809494252535 0.5184156077409929 -3.1257104112930407
-3.8106370531869014 0.44293725680059337 -2.385092171256614
-3.7640263951657484 0.4960656621980863 -1.664211026002378
-3.693161401035341 0.47901647793139845 -0.9350556667310245
-3.640593092111201 0.3665735270043574 -0.15921351879016532
-3.598987762750923 0.24237133202091582 0.47415469926362275
-3.6188574676567424 0.20143698597693846 1.1710473605054852
-3.7019438902584816 0.20274163976123538 1.9354323026209326
-3.7940334451722433 0.4137195600941813 2.788879460348138
-3.838315136070773 0.4599520263663823 3.2897649359516095
-3.835812536953476 0.27075929719202074 3.518944055712054
-3.8272115310904877 -0.11937956702320768 3.7195379004492506
[...]
CELL_DATA 87
SCALARS quad_param_group int 1
LOOKUP_TABLE default
3
3
3
2
2
2
3
3
2
3
1
1
3
0
2
0
1
3
3
3
1
0
2
0
1
2
2
0
3
2
3
1
0
1
2
2
2
1
1
0
0
1
3
0
3
0
0
2
3
3
1
3
2
2
3
0
0
0
2
1
1
0
0
0
3
0
1
1
2
2
2
3
0
0
1
3
3
3
1
0
0
0
0
1
2
1
3
SCALARS single_component_feature float 1
LOOKUP_TABLE default
-0.009757590229831501
0.0021206909222040403
0.012831151056890063
0.02499678932244824
-0.058002243281491825
-0.018823144135526826
-0.05585602734538267
-0.009384515570519702
0.016509856730267163
-0.00029114799772204415
0.002686283547363784
0.02215173912487628
-0.0011179538247289358
-0.044524126309264674
-0.0020938033327286
0.0087882490038566
0.021670648606201298
-0.011862528312601947
0.003133406426274344
0.015336148719654028
-6.742259514985055e-05
0.017802440481037
0.027536433714839083
-0.02545589813368213
0.026403609423726715
0.007441343990291269
0.0007740491482709153
0.03497562577984992
0.022833283002248596
0.005808500360800127
0.015381386348516244
-0.02731445838061897
-0.016805372175533843
0.02788703215788475
0.0010398985030305539
-0.028676118588479904
-0.023233561717933063
-0.019278817745130267
0.008199183970652424
-0.01783747024486022
0.040520215648443034
-0.028412408950861643
-0.0007996717981062842
0.026950519734193996
-0.006657931303179022
-0.008413374183316924
-0.013467528124799743
0.0541059367283525
0.018668708578667443
0.026210172169956032
-0.018247871888441312
-0.005575828072177238
0.04776540775087059
-0.010800287510330988
-0.005875510446610492
0.004901873121561606
0.013715897919319117
-0.015644304932582138
-0.05279147506072559
-0.02377358425600344
-0.03195014500905087
-0.026680691799680994
-0.013857127204592014
0.018773423924370217
0.023486914599566748
0.06303358874273414
0.0017928156995018762
0.009163663510272575
-0.05274502995709819
-0.02878096020395702
-0.015191086058466217
-0.03521518362253753
0.016881862490026007
0.035477135988975575
0.0479931110881127
0.031728640838748046
-0.0012319357646725943
-0.010774346741442231
-0.02076597588817134
0.0636245675478708
-0.026892075039235366
0.021768873053036368
-0.019994401891279115
-0.016433914210694907
-0.006857732942911306
-0.009720866846969097
-0.014937629846682524
POINT_DATA 5568
SCALARS single_curvature float 1
LOOKUP_TABLE default
0.020823306432136368
0.05109998499472386
0.08742090950797694
0.12897899467999743
0.17126321602266537
0.19011588260354748
0.1983248939762028
0.20037873501976666
0.18640099320386633
0.1699675819885321
0.14694131279617373
0.12466474992681441
0.10505937369862649
0.08828442357994754
0.07104299684290766
0.052331990793433654
0.038896667796569
0.03548911738808509
0.043511382277644596
0.06414539513752598
0.08956215201758704
0.11101800067249927
0.13112344402784198
0.1456243577209945
0.1508830756684225
0.1594610817120797
0.16176685378232378
0.15005102090436162
0.14374769865854495
0.13440425882555215
0.10768407229939261
0.11796121194083829
0.12957027505716887
0.13605725830279952
0.16538319377612815
0.1353414718831117
0.19810741815033367
0.26025512899176007
0.30659346575329804
0.7443940971638288
0.8444204579530242
0.84385798873868
0.8281509231408747
0.5255507132818803
0.23465771877858738
0.18189856820636177
0.19710005335228917
0.20268503836002674
0.23256299385448767
0.2403201936336937
0.21657046259234894
0.19069764329221867
0.15479278904310245
0.13083303776157984
0.13089770825006813
0.13073609555598112
0.1323000020327165
0.13510540457771522
0.1335895771808213
0.13274786163506674
0.09848718355089493
0.06422650546672312
0.02996582738255131
-0.004294850701620501
0.021249028452493362
0.05050599117313961
0.07943240497045907
0.11426992967666384
0.15347989431433476
0.18390391788187488
0.19906602194685544
0.2059760845212265
0.19864732215372785
0.1729915715828081
0.15023211174392498
0.1273913912308606
0.10577047189119286
0.08664931611432346
0.06774704528377207
0.04956443995190268
0.038051549190825505
0.036673994895973706
0.04641759467671293
0.06672885182710421
0.09083239081483807
0.11219984627091042
0.13290462325007263
0.14908717068998126
0.15635252928719034
0.16681562739757516
0.1653034217613869
0.15442027879476464
0.14627432752261976
0.13657749790377888
0.10972568889038568
0.1325168012362083
0.11774620656798242
0.12013224505400458
0.13243943013683387
0.10169716549290783
0.13072884257739337
0.17443676490126062
0.1727292871095423
0.7997877747847523
0.8592026435396478
0.8610199430041701
0.8655013321674357
0.3986534904791367
0.22656701904176443
0.1968050216092559
0.22497315887809022
0.23597129093755817
0.2614021455343127
0.2580295133911164
0.22062457085274723
0.18471280596101086
0.14103198818279594
0.11488254593665574
0.115714574068935
0.11974193125666699
0.12540844857454173
0.1309984425830203
0.13201396945674926
0.13087306401510332
0.09683155009310142
0.06279003617109952
0.028748522249097616
-0.005292991672904285
0.02268438406639276
0.05082400094051866
0.07271610050669092
0.10189406186979688
0.13881481204051488
0.17968371980743839
0.20052827375634363
0.21128071699207687
0.20929874278519586
0.17577619954112378
0.15346709638954104
0.13026899460319474
0.10689433022371202
0.08559278441104565
0.06528037877551054
0.04774347793489504
0.037917926217185524
0.038360083438480484
0.04946705160616923
0.06920299328914949
0.09198823635490386
0.11315177875661836
0.13440236504081077
0.15224689246958373
0.16181767303096503
0.1739458640674702
0.17162192242211272
0.1622226266433479
0.15191245900859862
0.14211462072197284
0.11483688745733199
0.14412940112231726
0.1470556816259776
0.14563504106426475
0.15735454064133858
0.14724311963439954
0.14250917839066754
0.16366573676294163
0.26529789776393076
0.8426192504866448
0.8747673220468417
0.8797552086577545
0.8571226002630186
0.31367993844576547
0.22196312033955296
0.21068794361089552
0.24985831576440712
0.26474715764032125
0.2856223150963098
0.2719324278388458
0.22252605176399134
0.17843811965191977
0.1287834011838659
0.10158675964852405
0.10346948082525047
0.11119813429162939
0.120144800276136
0.12771264340792457
0.13050682371806419
0.12881970750152139
0.09499070205707104
0.06116169661262069
0.027332691168170345
-0.006496314276280002
0.025471294938599585
0.05209786023949027
0.06602850295210892
0.08925671859208387
0.12366956036285916
0.1763473613726722
0.20291552007845248
0.2174465388297336
0.22087288664764412
0.1789603799507409
0.15738717254146992
0.13395890351254044
0.10869937639655407
0.08490780689249106
0.06319144999018096
0.04652649253555871
0.0385408254334466
0.04098904210160281
0.05333852694213542
0.07215553483133649
0.09329918024264655
0.11410306585000134
0.13597650621160526
0.15585988519398644
0.16859572778576343
0.18256045333429888
0.18231365968048122
0.1752777158945038
0.16193805884172324
0.1521077184118888
0.12413136973627639
0.15362238261502253
0.19251398503467548
0.1869610622244075
0.27724464916011066
0.30175612658449924
0.27042885487866664
0.2732096256601809
0.4951934059103577
0.8567742570938385
0.8701881577044966
0.8779166578763709
0.7739475333922
0.24613279422562973
0.21900088273797683
0.22658158154212524
0.2771338893267093
0.29527103700454216
0.3103792786880309
0.28487035608766187
0.2225210444478995
0.1704675339790058
0.11553119415440223
0.08825354705165717
0.0917500298683527
0.10353144783589212
0.11558472570718924
0.1246515377589539
0.1287927573748712
0.12612055763340527
0.09252158263308269
0.05892260763276011
0.02532363263243753
-0.008275342367885047
0.03760670581425113
0.07003283254770871
0.13257961433876553
0.19646557426925987
0.2609828966965952
0.24173900752698063
0.21648998935102193
0.19181545850659998
0.14122559076076863
0.15939688161861937
0.1380307666382649
0.11973816864667916
0.10822806310108804
0.09917138563765897
0.0883036749182223
0.06930992626756993
0.048354758688864304
0.0372927705923121
0.03736235023373182
0.056058960432221236
0.08472031956811764
0.10487797569161915
0.12269769004309984
0.13233869784849764
0.13537209289688074
0.1361901358482447
0.17064190860668182
0.162858535773231
0.1584385843726851
0.15441216428585738
0.11834982060095195
0.17485813957296006
0.3368314835322967
0.3546373687516254
0.35499119682627406
0.3498871861519913
0.7359011166420921
0.9410802484570252
0.9516825009608415
0.9477825057954826
0.9838746554941246
0.9423272758270027
0.932531319013868
0.9348682572757093
0.3227572231678558
0.1472167716269019
0.11395003358974436
0.0889655096992209
0.12504309640940522
0.16100412310749987
0.18590638364515333
0.20365163579429316
0.20540363616815013
0.20042073743370234
0.20203351039199516
0.18502209282361626
0.16650759028796677
0.15334844509486042
0.13722958683862435
0.13535944100061642
0.10086625853171623
0.06637307606281603
0.03187989359391584
-0.002613288874984354
0.021416624709295812
0.05232761277951786
0.09385811193476075
0.14078440784672241
0.18594878108245075
0.1960456190418639
0.19852896135703116
0.19643567895516306
0.17682069099362574
0.16773511184336712
0.14467867159983064
0.12294895484010658
0.10490816269618727
0.08983812259236319
0.07388063336597407
0.054915023116481464
0.03999415111795352
0.03505488191035288
0.041663026680930124
0.06230276734219077
0.08860855563130149
0.1100268245483367
0.12968141765144975
0.14302168211163274
0.1471465200121849
0.15426793092581478
0.1611640885100239
0.14941692703819157
0.1441298399380215
0.1353037344288674
0.10800616936609653
0.11117740533167715
0.14945184381487914
0.15883882221760037
0.18927008445994672
0.18421258324435796
0.29162274500099855
0.33268326928400593
0.3955951895174739
0.6648621266010551
0.820148717844899
0.8295983077907091
0.8041123171187483
0.6382747370991596
0.24352884539255537
0.17117174738925664
0.1762108389616885
0.1769480317815777
0.2097611437755269
0.2255916948404372
0.21226164498184105
0.19451987067166257
0.16516923608351977
0.1435846528172234
0.1433494847764721
0.1399636770073763
0.13812730027154593
0.13845402421988287
0.134666941346615
0.1338683809804892
0.09946840848497784
0.06506843598946649
0.030668463493955134
-0.0037315090015562213
0.03658325443298391
0.0689700216130881
0.1303495448177818
0.19324994881211474
0.2563810365619913
0.23736396508072113
0.21369878555494698
0.19045112310407497
0.14185436918954528
0.15978239885533402
0.13824633808703388
0.11972383523598604
0.1078820033216463
0.09856393258590178
0.08744866817150627
0.06843219162940788
0.04776033362022037
0.03700730777840996
0.037441436979507046
0.05630460783041986
0.0849235828889754
0.10519506148254722
0.12310895381637457
0.13289603696164243
0.13584263877523853
0.13700118778763726
0.16982563201743225
0.1617486551818384
0.15741199542344955
0.153043895194039
0.11763441336882811
0.17156454646254166
0.3263813527222743
0.3438959756777472
0.3459588753369345
0.34149883499948763
0.7173588680325851
0.9396971812261636
0.950313083455298
0.946868304378259
0.9837998393321378
0.9381623168771361
0.9277950869487033
0.9297750253178666
0.3161530446122266
0.14647917940548152
0.11467773187613177
0.09119701036221971
0.12791499757183136
0.16409889310003795
0.1875234006902569
0.20344212673894724
0.2034663125596337
0.19733951287061038
0.19870804288318478
0.1824104531483068
0.16487604277220327
0.1525570141673719
0.1371967651179336
0.13542105677427443
0.10090654003792277
0.0663920233015711
0.03187750656521943
-0.0026370101711322425
0.02081638193813405
0.051064366307965244
0.08716290753849515
0.12850336689634695
0.1706797506117058
0.18989472938213278
0.19833190980250193
0.2005481072295261
0.18679154502773002
0.1700610598737216
0.14703930187792794
0.12474236996785065
0.10507292780378799
0.0882260050692568
0.0709317340968081
0.05223397598844532
0.03885958103474344
0.035515549724407805
0.04359443058491886
0.06422372740647289
0.08960173549165373
0.11105713905854506
0.13118127442402333
0.1457322796472905
0.1510450610029407
0.15968274121225687
0.16182719005124147
0.15012373526991532
0.14377142037318566
0.13441166686175274
0.1077007630425957
0.11838865579643754
0.1289397435903196
0.13530230712469293
0.16440486379500327
0.13331275880221588
0.19465621290585114
0.2567352983526364
0.3019986112721921
0.7471319535427331
0.8453375857824253
0.8447091376975421
0.8295658546485214
0.5211019583558784
0.23434683551485802
0.18235445660581737
0.19797134258775365
0.2037430900219844
0.23349142768472006
0.24090693849098277
0.21672655655698125
0.1905262940421973
0.15436189918921783
0.13031729456518337
0.13039966818389553
0.1303704421401576
0.1320696209618277
0.13497084480064414
0.13354255233808296
0.1326958440705443
0.09844151993196767
0.06418719579339105
0.029932871654814425
-0.0043214524837622
0.023388931980716444
0.051099062867779675
0.07056091940118533
0.0978857175742856
0.13406829731455164
0.17851675057420338
0.20117641115785573
0.21313574496063237
0.21286015054896215
0.1767386728224711
0.15462777443471465
0.1313403406840504
0.10738225458777964
0.08532632854112031
0.06456263065036967
0.04727686247705018
0.03801725301457716
0.03907524474387777
0.050596443131133005
0.0700809595819876
0.09238554350489332
0.11345395421097408
0.13489269937576298
0.15333763613181658
0.16380553396173106
0.17649589632446816
0.1744854591502545
0.16573477245455107
0.15457192829298746
0.14476349475235015
0.11732752185193344
0.1474588078226698
0.16081274652244715
0.1581086468817237
0.1894592768167804
0.18881788982606607
0.17528000768129895
0.1898888434990799
0.3284609250419939
0.849784000186748
0.8751563408781835
0.8810431991525274
0.8409321978995756
0.2904010491357233
0.22084849649606933
0.21549602958122904
0.25824502683834755
0.27424715659156235
0.2934428849637673
0.2761818794244965
0.22277076883008454
0.1761125538722201
0.12467788518585163
0.09733025740212221
0.09965317153985095
0.10862781592169585
0.11859100723099364
0.12670295889632469
0.12998422377016514
0.12804210348591052
0.09428528159234978
0.06052845969878903
0.026771637805228288
-0.006985184088332458
0.021057426488494277
0.050539566613284605
0.08101494405084991
0.11718040623874239
0.1569594737059086
0.18503031254812388
0.19883412487938926
0.20480975570435686
0.19619475375130688
0.17237062649419027
0.1495367140472156
0.1267963586999525
0.1055798123471615
0.08694298359502277
0.0683725434305313
0.050065339892642856
0.03816564295699893
0.03637551961513475
0.045784808236519425
0.06618988278374717
0.09057307389364666
0.11197061913215806
0.1325530831836367
0.14837997147547533
0.15519049314218283
0.16527363675622692
0.16430105056359495
0.1531763632347716
0.14545197028634269
0.13580175539726497
0.10903079018513336
0.12958666123252727
0.11768082756576961
0.12091899001097363
0.13852375306650216
0.10468635626380912
0.13972439180458038
0.18864686919041304
0.19625622125835987
0.7938152038321767
0.8590160000661636
0.859964721951917
0.86065663942804
0.42168386486758763
0.2279281965570627
0.19372337152999133
0.21931169702760353
0.2293019998156675
0.25568834937733087
0.25461052824720753
0.21996022043372102
0.18601463800543433
0.14382450922791
0.11803335288600263
0.11867571690906485
0.12185796496872449
0.1267275701948981
0.13179882036511484
0.1323450111678904
0.13128939076420032
0.09720111909167942
0.06311284741915851
0.02902457574663761
-0.005063695925883294
0.021301301129724053
0.05050408194345347
0.07906453001026939
0.11359345442176856
0.1526734533471246
0.18364938354122645
0.19912593116535893
0.20625138741105908
0.19921973591004458
0.17313759495186204
0.15039705818539714
0.12753385534127157
0.10581854845748774
0.0865833536218964
0.06760385573620133
0.04945166970646576
0.03802916747767219
0.03674829777635178
0.046568999702604794
0.06685625329428586
0.09089327787742285
0.1122528095279724
0.1329863075163946
0.1492532766844099
0.15662875837024037
0.16718071884483407
0.1655605882188324
0.15473926693858012
0.14649095070827284
0.13678474598924037
0.10991201627903811
0.13319073607218762
0.11817671844018768
0.12036195737294691
0.13129094677103884
0.10136056512369115
0.1288236746826114
0.17128755576042182
0.16922588608021938
0.8013645284390271
0.8594034756739385
0.8614284150435364
0.8663268295234026
0.3934666234502062
0.22626659718204908
0.1975307684554311
0.2262990741377669
0.23752663141565825
0.26272961821315316
0.25881689223029286
0.2207681248800714
0.18440135154536355
0.1403781431723658
0.11415112754900082
0.1150301224365222
0.11925514765251714
0.12510566271236445
0.1308136258950517
0.13193572203072934
0.13077289642452503
0.09674245565511636
0.06271201488570768
0.028681574116299013
-0.005348866653109657
0.024695533717772236
0.05169995001139244
0.06746760674171155
0.09204124094287375
0.1270706006483303
0.17699493203977343
0.20229701367875885
0.21599853072280778
0.2182192214055089
0.1782160474553089
0.15645038359380148
0.13305919333508479
0.10822857537181031
0.08501711512447276
0.06360493971887192
0.0467264308821498
0.0383189337003587
0.04030667953288132
0.05239958461204801
0.07145282718969267
0.0929935959943623
0.11389290633564637
0.13562057458935375
0.1550137619459028
0.16695899526913952
0.18050025654288768
0.17951179296408867
0.17187076071385143
0.15929311420827752
0.14947256134768597
0.12171747833437593
0.1518008176859265
0.1819800265002254
0.17736102467556888
0.24602833469035
0.2617172027704855
0.23623354850096098
0.24247428120909256
0.4376158493794342
0.8550962146898954
0.872080502166463
0.8792483190844539
0.8010449167695918
0.2596304625937328
0.21951874018376588
0.22287146532408308
0.27088146379464617
0.28836972369611613
0.30488044834216865
0.2821354747356854
0.22273156613442777
0.17239949682668151
0.1185384141554823
0.09117154236954703
0.09424982120164674
0.10510222296303474
0.1164973813434256
0.1252932310263097
0.12918848163861368
0.12678364504595602
0.0931335542572548
0.05948346346855357
0.02583337267985235
-0.007816718108848875
0.021003651973111555
0.05056081574629186
0.08156240243669666
0.11818753119844673
0.1581675566834882
0.18543189492983875
0.198763638266891
0.2044129596338785
0.1953497422139206
0.17215845753913936
0.14930136517441142
0.12659708877482476
0.10551982815816555
0.08704823729350787
0.0685923928257878
0.05024442956280366
0.038211649743615815
0.03628003596977116
0.0455727467918535
0.0660067489700531
0.09048431105706636
0.1118907776801215
0.13243137536174218
0.14813797278991428
0.15479809369849126
0.16475061951980807
0.16399214905211776
0.15279300105166102
0.14520754845101475
0.1355759447782519
0.1088285475173891
0.1285647277040394
0.11816673011798413
0.12169518529305595
0.1408874826910296
0.10613698294364886
0.1431219124328108
0.19376861795398853
0.20543140863023865
0.7913425478203616
0.8587063709549672
0.8593759570413563
0.858541770196624
0.42991799052899565
0.22842563404129643
0.1926722919942149
0.21736898633101706
0.2270028700061192
0.25371070316950667
0.25341619157324446
0.21971324321366845
0.1864509920654267
0.14478298380415022
0.11912486406574878
0.11970616748661772
0.12259793960963529
0.12718988410258958
0.1320775744117171
0.1324574158322588
0.1314280318866802
0.09732393204889628
0.06321983221111235
0.02911573237332843
-0.004988367464455495
0.031103308659480168
0.06320664167043351
0.11849335536063421
0.1765552801250484
0.2330247410706003
0.22005814792467057
0.20472536934169996
0.18867548821537053
0.1500385373284218
0.1619702068185995
0.13968481876812205
0.12002416439739416
0.10636350031082603
0.09552635841355793
0.08303537870152765
0.06392400809046206
0.04488398215416155
0.0358158996192826
0.038171650843255744
0.05782287069664156
0.08601366929419772
0.10680378736278136
0.12522873162684145
0.1358958677717604
0.1386460461381371
0.14161688425575336
0.16591366656216686
0.15632800752427486
0.15220129785733674
0.14613474721273526
0.11392816192681134
0.15050888554436595
0.26849135688996234
0.28418296777817054
0.295975084514521
0.29688765417920215
0.600000432895443
0.8822026055521761
0.9006082677250726
0.9027297516334513
0.9687664752556818
0.9054543778425557
0.8901254338926422
0.8857086398620287
0.28622447709705356
0.14812189464855707
0.1258197960058917
0.1102272521489608
0.14809456682555233
0.18191874129761657
0.1958883113479092
0.20180606501732384
0.19266858341522233
0.18091122122335854
0.1812750533971768
0.16883080385645544
0.15635983292138525
0.14829405669495122
0.1368011367006132
0.13547232903839174
0.10089982259929973
0.06632731616020773
0.03175480972111573
-0.00281769671797627
0.020948171992690154
0.050592471863388715
0.08221166487365178
0.1193822053271814