# vtk DataFile Version 3.0
vtk output
ASCII
DATASET POLYDATA
POINTS 5568 float
6.6976175881478675 0.41741322549121673 -19.87815011860837
6.782515347697653 0.3894866572408526 -19.263997956865296
6.870079240844969 0.35041281165133736 -18.64503888544726
6.956066490286102 0.3040887967792504 -18.023062376248166
7.028251355965236 0.25614717577066776 -17.381791293611375
7.053154308220173 0.21520915703068125 -16.750761820993883
7.024963316299213 0.19023839134446457 -16.13978814533456
6.940941110296512 0.1802992053597926 -15.544146266650056
6.788979497904903 0.18470163844333595 -14.965492934438979
6.5749565362802 0.19915980165234692 -14.435952641254193
6.30067190582997 0.2243659385182467 -13.93566975034337
5.967191001828906 0.26432779571545834 -13.460108401926053
5.57872120036208 0.32032951661163983 -13.008286975685255
5.132696246792607 0.3923655135329583 -12.572630365615092
4.627924690276453 0.48106287861345126 -12.151449885233387
4.065453737974997 0.5861253760631251 -11.74572336685462
3.4466810681225413 0.7047407320345551 -11.35467782863765
2.783235056568664 0.832062842405811 -10.979188026367682
2.0933383002316863 0.9593990468500204 -10.617152711529902
1.3962714391511462 1.076896382666609 -10.262979226144015
0.7131542435029449 1.1753214838913533 -9.908706449523098
0.05712143138845349 1.2497682350867405 -9.546100488672367
-0.5620440967659323 1.2977223381993082 -9.16834790251994
-1.1349080960959137 1.3204722700373608 -8.767895582791427
-1.6573219368263792 1.3184251825289524 -8.33997130630508
-2.128311089064107 1.295658696785995 -7.883870987348232
-2.5429250332459334 1.2535540409516568 -7.397152620773341
-2.8982090186039997 1.1924535834216075 -6.884522811484013
-3.2031354095911535 1.1123815140934772 -6.340707321430018
-3.449772204196044 0.9991121262929169 -5.7657327940816
-3.6397852480697988 0.87114618436886 -5.140485931508849
-3.7777125923160213 0.7451805811657529 -4.480851996112115
-3.855904162873563 0.6148789594531415 -3.785975326598564
-3.8731566766379717 0.5204264710112865 -3.0837907775445514
-3.866034283403778 0.4101486016297302 -2.348265553995649
-3.8201354388499578 0.38740012226982296 -1.6724701782524303
-3.732511583963609 0.3789780533410725 -0.9545979388144679
-3.6564873153978867 0.27272920996394356 -0.19115490539479219
-3.624572469997684 0.21745502598672037 0.5580287513308235
-3.608898708446922 0.20067961615173133 1.3206420666720722
-3.6752909030806737 0.14466592359526415 1.999304018158571
-3.7295390150030174 0.22111075084602388 2.6195101153736324
-3.7564544386211636 0.31260394172702444 3.135699907498016
-3.7554055554231485 0.19495585919912772 3.396448184616469
-3.7327146656548815 -0.12619849279236017 3.60734876061218
-3.6032014199444036 -0.7140850007077724 3.74773120295665
-3.4394788426400513 -1.2605812986808953 3.916311113359195
-3.1652118176567203 -1.8709174475604602 4.035698769417606
-2.813330806223651 -2.4461917719125412 4.169546595239237
-2.381081467477576 -2.955958366527338 4.33554411183711
-1.8807354782607457 -3.3704297327036157 4.548909703406406
-1.3267318054613932 -3.685588290582872 4.816990730028479
-0.7836139733111515 -3.884988066226922 5.1424696248488875
-0.1729119370002472 -3.9805449702362767 5.4995393182998855
0.47472092513928854 -4.009159209837737 5.8801218121684125
1.1522545767832886 -3.966027891380405 6.26463616685782
1.8591472711949995 -3.8469639777713223 6.635109851002361
2.6027092904945035 -3.6468200329446514 6.979614849935825
3.374012218673837 -3.3654324107786557 7.272826804537718
4.1650708704941355 -3.0061861953138456 7.492648837899041
4.922585548379339 -2.600065173464311 7.6229898535656115
5.640383655460075 -2.154070146097492 7.670405822459456
6.303846122816129 -1.6892336703928312 7.6499235101970315
6.904320091597239 -1.2186446467944794 7.573940465113598
6.696850602506411 0.38828129636866204 -19.875428314787857
6.780357382962163 0.3641012922150301 -19.260633421295278
6.867563904546042 0.32862402519199413 -18.640516983453967
6.953787713505005 0.2863242265752669 -18.019216024801423
7.0258985579024245 0.24325630316134733 -17.38034893605141
7.051221146480662 0.20721524005793626 -16.752232655183878
7.024767891697818 0.18738917436684158 -16.14147948917326
6.942482278315011 0.18236974299908187 -15.54917916657738
6.794212749301127 0.19159679361918835 -14.969076086776735
6.58341956438659 0.209790864896078 -14.44212106848779
6.312005253458535 0.2377219872705801 -13.9429972340551
5.981316533033427 0.2791442795987607 -13.468115537291839
5.595364101231718 0.3353245416940923 -13.016325760538688
5.151786527287419 0.4066324737483887 -12.579861113364077
4.649454551734754 0.49378508478915006 -12.157035383564665
4.0889112275310975 0.5968410578855035 -11.748766387737035
3.4709203791426666 0.7132335831313383 -11.354863568428025
2.807005812391587 0.8380116348037792 -10.977252400636786
2.1154361674824274 0.9625134658378469 -10.614158453875689
1.415175766666526 1.0767610893675301 -10.259906872695634
0.7271844392652824 1.1719291787946662 -9.906371807273777
0.06583055715916597 1.2433467036617825 -9.544999085394258
-0.5582824025287392 1.288501733907301 -9.168751615732502
-1.1351374833692933 1.3089296190882416 -8.769920876268447
-1.6611983916731388 1.305531717964916 -8.342776321329575
-2.134843508343611 1.2831915854573555 -7.886751244669316
-2.5511029141491655 1.2432434539310104 -7.399132830278949
-2.907448147080483 1.1861013029788612 -6.883864354910622
-3.213170671619033 1.1112506834226406 -6.336950759663151
-3.461383309820358 1.008260855853009 -5.759537980442939
-3.6524814676333537 0.8884293693807976 -5.134188058097619
-3.789947116736279 0.7691007682662026 -4.47688051434367
-3.8672259236173194 0.6414562191880221 -3.7832859195857433
-3.8807127532828996 0.5494899547057803 -3.083811052863311
-3.868990703482927 0.4379324020694711 -2.3513349913019086
-3.821884662655505 0.3959546644706512 -1.6822027329307447
-3.7255190262002924 0.37749675930960824 -0.9670502526944528
-3.6382025420692905 0.2767797779107656 -0.19147927675869048
-3.600440125239059 0.22531343031433293 0.584946390171682
-3.5854478648654506 0.1966575758275057 1.3673208692729943
-3.650680607791987 0.10757655452432768 2.011441207785505
-3.705499799461471 0.1552453226221826 2.6142080388166677
-3.735053447931981 0.28294834052669005 3.1802945122541457
-3.7361787862930855 0.18341990579416012 3.4461066158952454
-3.7226649669408647 -0.12361154137456598 3.6645865189393403
-3.5960528003260173 -0.7158986718887561 3.796223750242891
-3.434099157700533 -1.2700496999430047 3.949402778239287
-3.1634422436342007 -1.8842697720754362 4.056277203051243
-2.8135143389051516 -2.4598588492243474 4.178030854701018
-2.3811125469067043 -2.966153639195519 4.33437254768918
-1.8812980168889313 -3.3733768544035803 4.539928918215298
-1.3279111663947938 -3.6808530224591682 4.801984145773427
-0.7774408536801631 -3.8741301471087732 5.116199468660284
-0.16522471853725573 -3.96957687550467 5.472380561887975
0.48077078001775986 -3.994724544288509 5.855498441230086
1.1540504837038839 -3.949109181255817 6.243808156614213
1.8572616093122702 -3.829874446995891 6.619122595836441
2.600591168716033 -3.629412499121166 6.970421937152804
3.3743157459659687 -3.348249310197463 7.270156907624736
4.168069560329691 -2.9908856743379233 7.494257878708901
4.9255566821168 -2.590387869736651 7.628044664974861
5.644193396691343 -2.150747475430748 7.67736539343181
6.308526290557748 -1.6932796997662256 7.657831608102325
6.908573147845756 -1.2315798222291416 7.58227868145794
6.695142891270679 0.3234183836983849 -19.869368155751598
6.775562455732707 0.30758409232257716 -19.253047863318532
6.861981893743623 0.2801295589046535 -18.63027359094443
6.948743374413912 0.2467640147479493 -18.010386026663095
7.020702040386862 0.21446861297656322 -17.3767337534034
7.046955591541204 0.18923849955912198 -16.754952019631475
7.024360158759404 0.18085021123404607 -16.144517996914324
6.945888788785743 0.18668032380532817 -15.559473682352621
6.805797544794843 0.20667263677316547 -14.975912998514563
6.6020954746757194 0.23310696042577259 -14.454582241884314
6.337003572234439 0.26707021834841044 -13.957970728984629
6.0124821904439845 0.311727770243203 -13.484572817737929
5.632100974457736 0.3683051570502495 -13.032842421789768
5.193935624579938 0.43800034272037386 -12.594565120105871
4.696983288950978 0.5217285051287782 -12.168051888478926
4.140671283120708 0.6203307602117563 -11.75408436344598
3.524369584398274 0.7317783074219242 -11.35377794609493
2.8593712351709697 0.8508867383312257 -10.97141141125957
2.1640312835896833 0.969064250406246 -10.605935214934341
1.4565765154406831 1.0760485842637337 -10.251484205679535
0.7575872108801 1.1639191969533953 -9.899571122408265
0.08421589343259361 1.2285446847291546 -9.540926914860664
-0.5510714396187532 1.2674270102723744 -9.168008796112879
-1.1369281922735133 1.2826593342757555 -8.772761299066723
-1.6711860499196276 1.2762365850688788 -8.347337729197248
-2.1507800527333263 1.2548496726054792 -7.8914729018859235
-2.5707335364881545 1.2197213117030106 -7.401824260353521
-2.9295053012121413 1.1714401870927198 -6.880573208828608
-3.23709039900094 1.1082716861968465 -6.326576423849959
-3.4890708930987113 1.0281526128797212 -5.743142014883911
-3.68268192993242 0.9263298313997457 -5.117229228744352
-3.819161183967405 0.8216312947095527 -4.464900512156446
-3.894418567411616 0.6998742848308618 -3.7741263668478413
-3.8995803631658954 0.6133963859830323 -3.080574820031153
-3.877675318390892 0.49899106374108126 -2.3547484889947876
-3.8277695865935293 0.4145191197187317 -1.6983124482967986
-3.711855411944493 0.37373459204212395 -0.9883065724604229
-3.59869264673727 0.2856217317056063 -0.184703118917663
-3.5472287074587054 0.24322664444715508 0.6543767010437267
-3.5338263569286394 0.1869968568656981 1.4822546710030786
-3.597185421802829 0.028095128809109027 2.0596366493152685
-3.6535238745637546 0.014846565160388257 2.6286789739999796
-3.689604359561605 0.2356641166727939 3.3181165864331787
-3.695603307089367 0.17503631527470162 3.5994248213879523
[...]
CELL_DATA 87
SCALARS quad_param_group int 1
LOOKUP_TABLE default
3
3
3
2
2
2
3
3
2
3
1
1
3
0
2
0
1
3
3
3
1
0
2
0
1
2
2
0
3
2
3
1
0
1
2
2
2
1
1
0
0
1
3
0
3
0
0
2
3
3
1
3
2
2
3
0
0
0
2
1
1
0
0
0
3
0
1
1
2
2
2
3
0
0
1
3
3
3
1
0
0
0
0
1
2
1
3
SCALARS single_component_feature float 1
LOOKUP_TABLE default
3.9232139227483864e-05
0.0033646276133047475
0.010768697399476656
0.05186905660731588
0.023634853600383234
-0.029165428615094108
-0.003878302647164461
0.010758074361488672
-0.02715113717514713
-0.019869288942094304
-0.012719868340616003
-0.003533356415248483
0.011822070377684943
-0.04737448640038443
0.02520485943562327
-0.010269175996632539
0.023925457174582526
-0.02049814011561303
0.003667945186926147
4.8624991612830626e-05
-0.010524481236144474
-0.058926408483426534
0.0019438515694830973
0.01148792046410637
0.057818538419529095
-0.010792499030300783
0.0065673248088781305
0.022489939302690498
0.016485515266450163
-0.017875071744092197
0.01677704531369509
0.02245421582919048
-0.011911827387487181
0.0050572740584376025
0.011549359380105192
0.016921015796684865
0.00073451844282231
0.00637796993426977
0.009524684419977655
-0.0429444266133473
-0.0537488840965971
-0.041308977672765916
0.006871405390980089
-0.024760158677968266
-0.01981829794586887
-0.04063560779565437
-0.02407508030720542
-1.010385079495274e-06
0.010283787866930382
-0.007705755513178933
-0.013878629035828639
0.013962809080103843
-0.014807939673524909
-0.02472061894145661
-0.020666922273427597
-0.042911747965378735
-0.014818368192349204
0.06009021872586492
0.009855133623607973
0.012826931090191458
-0.024568826197585467
-0.006753371861393256
0.0015041259120843753
0.023237180858002745
-0.02230306635643753
-0.014997313246998373
0.023377176117227845
0.04786854291244314
0.018120959316308118
0.017250132803278893
-0.0038134621033803964
-0.0034710168923040696
0.004874923597304626
0.0027465704817883387
-0.011233492111237465
0.003722726110768035
-0.021759721315467318
0.017224419597807135
-0.00865989639903517
0.030307471425562123
0.048852100618645825
0.0070469257310731125
0.03310821509711288
-0.006055298619604875
0.03621073299968228
-0.015043028463634565
0.009315229935440742
POINT_DATA 5568
SCALARS single_curvature float 1
LOOKUP_TABLE default
0.021078114385836157
0.05053336414973368
0.08081130359940832
0.11682765478754209
0.15650945124454288
0.18488803694558792
0.19886657362385904
0.2049480454980825
0.19651395067087926
0.17244128314311447
0.14961238372225552
0.12685767303564255
0.10559546861705899
0.08690938312841301
0.06830877284212
0.050024545748028906
0.038167043537892555
0.036416227693453276
0.04585624529646652
0.0662426747149979
0.09059436845214042
0.11199391242563139
0.13259756257251995
0.1484707781249472
0.15533252603661818
0.16543871143741443
0.16439392850596635
0.15330261685536747
0.14553617678712044
0.13591863027178644
0.10914802628204058
0.12986803386352286
0.11753428769013484
0.12055847847679348
0.1375588595626965
0.10410109507650625
0.1385611388232139
0.18703134279559197
0.1936555262046726
0.7952541511227419
0.8595528814101591
0.8606122295132941
0.8617084075658937
0.41906313409982765
0.22783835162874677
0.1940950679741767
0.22007426860018847
0.230225722825042
0.2564513191508028
0.2550235536442889
0.22002037971938845
0.18581106907444192
0.14344945152092553
0.11764729024099087
0.11829088310777156
0.12158096782097602
0.1265557183210991
0.13170066530007885
0.13231254882585994
0.13125280175690432
0.09717244334146764
0.06309208492603097
0.02901172651059429
-0.005068631904842386
0.021153609886487023
0.05058783037072599
0.07986513620405872
0.11690015950508402
0.15427374823877307
0.184687012644028
0.19945484718386305
0.20483513128485645
0.1984326606252144
0.17211515923240756
0.14899188568203023
0.1260726287555069
0.1050826644935259
0.0871589162831676
0.069409885324001
0.0518377842019375
0.03961552474976421
0.036977297814605
0.045564226163111905
0.0652642940896168
0.08975755979314955
0.11162344384751509
0.13279052637430874
0.149003176250181
0.1556595578829991
0.1638442668874031
0.16278356017164944
0.15221932711379574
0.14514692474365962
0.1388042394093875
0.11287057028032395
0.12339311761357595
0.11546101624277468
0.10927589720993848
0.1247790423233368
0.09588952405923626
0.14271658656114494
0.20500862353527124
0.24070086279077316
0.8405689379026374
0.89202477008882
0.8935965586363829
0.8874963807445365
0.4395786017378156
0.23477284012348335
0.19445553162985196
0.22683210953537677
0.24008108884517707
0.26242615215367243
0.2550516213198218
0.2184068365208006
0.18214685280669962
0.1406505169680588
0.11745369059780762
0.11628801136635451
0.12005565523921172
0.12569917593107985
0.13167281355280944
0.13293806085059348
0.13233714604543576
0.09845740883936903
0.0645776716333023
0.030697934427235576
-0.00318180277883115
0.02171025997298234
0.05107408919661839
0.07797774220114773
0.1171156342453164
0.1493600441182263
0.18446961445850582
0.2010206703355417
0.20488248958557953
0.20299911854182748
0.17157547031120268
0.1477731515888867
0.12443299298739276
0.10398632108699457
0.08773533965391214
0.07185626704489499
0.05586838508379269
0.043021347716320726
0.03843542661668311
0.04513828077389275
0.06330109509724349
0.08795866918314194
0.11097211585035419
0.13351384880852
0.15061208507611087
0.15680355826691011
0.16095913918226573
0.15993118293032862
0.15059419695012133
0.14543531114493852
0.14612158292417998
0.12232112296253787
0.1111159657843447
0.11338512564476175
0.08859437647292266
0.10057090569762342
0.09304608251260833
0.18846264045413158
0.27921791871746865
0.33507348111394475
0.8907860523633604
0.9247966756894572
0.9266148343418716
0.9178859648420132
0.4874226127041647
0.25111012348179007
0.19785168236618922
0.24250783314727803
0.2623560647760262
0.276761831765905
0.2586156375515968
0.21842773923198333
0.1776381717379037
0.1375047057811614
0.1174383370180435
0.11194629505468269
0.11676394406025951
0.12388690800719696
0.1317213998221003
0.13440332977589523
0.1347894463970601
0.10138600196184018
0.06798255752662027
0.03457911309140037
0.001175668656180462
0.03420033198376433
0.06257044046403384
0.07474832428143638
0.11975943037863634
0.12440248337347962
0.18897257252931932
0.21609773527104278
0.21313246467871205
0.23555985732959683
0.1741279961850052
0.1458645276838189
0.11863144514699016
0.09933642963983694
0.09147026756082734
0.08514005535346005
0.07730792386450337
0.06439343287787998
0.04992175503431648
0.04664141944698245
0.05661689716540993
0.07957150354328762
0.11089201131271577
0.14319589748193204
0.16708056376659156
0.17059187853275404
0.16652179549648619
0.1665120529214029
0.16546233944064823
0.17793664640124104
0.2029802919847979
0.19254800337393035
0.24254363940144008
0.28944059563187846
0.26930052735127724
0.25939445046777554
0.22216984493873823
0.46284909064390234
0.5700337450389836
0.5767016109340942
0.7054969435935212
0.765771846235098
0.7806568429848277
0.7829939204971155
0.6699224387852554
0.3626939948447241
0.26272960595946654
0.33914400098843606
0.3860172444303493
0.37283533539402397
0.3529608580259478
0.2940158921272182
0.23178487666786807
0.1890262216789799
0.12459575755988603
0.09213181217221796
0.1011602536325479
0.1163869983555178
0.13466437726563305
0.14429074591691
0.14948945025256952
0.11902017124052586
0.0885508922284822
0.05808161321643854
0.02761233420439488
0.024099789581783142
0.05326240041766485
0.07571045545367423
0.11767755628214278
0.14108012171523013
0.18485174604122329
0.20458775802294485
0.2059845600365057
0.2118964354008922
0.17130557217815273
0.14623896178524817
0.12197584097775771
0.10224788519581177
0.08880487841549067
0.07607873534454489
0.06278609989889876
0.049426221618430244
0.04156234764861335
0.04504760389389956
0.06056047575286694
0.08504323056299165
0.11036377742651127
0.13563496227752583
0.15461168894986227
0.1599779761670458
0.15866810616827548
0.15788595264166053
0.1508733813043857
0.15012655885228643
0.16142562405569447
0.1417050851799696
0.1381874630819887
0.15734115290374756
0.1220023775863301
0.12733377120392053
0.12613989600411502
0.3418910682264842
0.45337984320070185
0.4905814336840503
0.8973391782671709
0.9198172041185254
0.9220117980174339
0.9150787776084202
0.5703588555574135
0.28514894391457907
0.21385313327987868
0.271562578603325
0.30166391882041854
0.304821274583929
0.2773283091101912
0.2311843801507731
0.18283607061481924
0.14313551355441387
0.11851866991915434
0.10486996555411615
0.11138960346888242
0.12105772790836848
0.13216145443739788
0.13718175896373405
0.13918135648441968
0.10668003507652958
0.07417871366863948
0.04167739226074939
0.009176070852859292
0.024083809820636022
0.053455378197198936
0.09017372502582496
0.1167326834610295
0.17655354441651086
0.18931049455760376
0.19666576488088147
0.20920536429327596
0.18318311232324716
0.17717160215235386
0.15669170141804234
0.13481518542424786
0.1105400810300607
0.08500162724068111
0.058690839007406403
0.03589307957734396
0.029149411406866697
0.035412188672462645
0.05247053619331171
0.0770399547459016
0.09870457836649284
0.11752298443396053
0.13490899541031026
0.14983161545054016
0.15832730722369548
0.18416782049226701
0.18396050589414856
0.1686869127018505
0.15933222224047686
0.12223666219790455
0.09566723942688182
0.17557305376034993
0.17787042248385812
0.27916642064146363
0.3064239336518507
0.2990768351013373
0.287756784678818
0.21262414953820724
0.9946444978015838
0.995280342613366
0.9963151577775102
0.9961484127100559
0.39166332840270734
0.30976157343237803
0.1977099487512071
0.19948463626739396
0.16883758247099512
0.15042371700838345
0.21381318735760318
0.28074886757130413
0.2633165464102841
0.24652629495337305
0.19415669067971442
0.1265966037910741
0.13681797732617973
0.13618633851740294
0.1351674555212072
0.1333090985675509
0.12772902231441274
0.12216534767888546
0.0867729935823981
0.051380639485910734
0.015988285389423373
-0.019404068707063987
0.02111568797903033
0.05058742437613024
0.08198210882311385
0.11676057786880345
0.1591625429348743
0.18520632524024372
0.19826418751422664
0.20518466401785534
0.1943587899656661
0.17288813731772879
0.15039808812768812
0.12781865023672326
0.10621465229434154
0.08662302729178094
0.06701064586649937
0.04789380308000055
0.03653158886065221
0.03583517760397486
0.04628520491330486
0.06747035688808861
0.09160312921196154
0.11249505726082751
0.13248138862904663
0.14800686606778443
0.15510711427443122
0.16751581273377633
0.1665147096775811
0.15482004039285036
0.14637277960834752
0.13285588267905743
0.1052550068205433
0.13744884360713763
0.1205494968088624
0.13502955868468117
0.1537034094459347
0.11762898077457623
0.14442174440359062
0.17632514509114475
0.19504067491078983
0.7452907913753105
0.8207993758394029
0.8202956105617999
0.8188708317254807
0.39583440347394694
0.2196419896883709
0.19431670918589894
0.21234787255955265
0.21876569126495238
0.2497691501203527
0.25605827436226014
0.22304648916113537
0.1912531412695231
0.14770427517588466
0.118047358656919
0.12068704116082943
0.12341489506612742
0.12759815021677015
0.13177349423966556
0.1316020371339713
0.1299886620451195
0.09568380273622311
0.06137894342732672
0.027074084118430333
-0.0072307751904660544
0.021709050294214067
0.05107300405915498
0.07798018574420869
0.11711527000028385
0.14936702372869273
0.1844696977503197
0.20101816943785092
0.20488212042665147
0.20299227604339945
0.17157605249270166
0.14777473234784005
0.12443523333177965
0.1039878467799099
0.08773449221231754
0.0718527639837783
0.05586261972981383
0.043016295348565124
0.038433138850654865
0.04513868015102592
0.0633036999847551
0.08796118662927124
0.1109728847929157
0.133512533979397
0.15060938317502814
0.1568015297341465
0.16096254217402614
0.15993447471997574
0.15059567220998585
0.14543369144313614
0.14611024477369636
0.12230654868187146
0.11112732933784447
0.11338186462360857
0.08861551514994
0.10059727108844153
0.093036921908935
0.188365122005519
0.27908344376155725
0.3349386013381537
0.890747568114558
0.9247750253423336
0.9265930756794184
0.9178633885675014
0.4873524891883365
0.25108516864570857
0.19784376817220967
0.24248474735738473
0.2623238434128441
0.27674024769754685
0.2586067713344898
0.2184238736709137
0.17764074206341662
0.13750591706029736
0.11743798897592012
0.11195239683394137
0.11676856314835442
0.12388941330796799
0.1317212218206013
0.1344011566402637
0.13478588971352362
0.10138173549710584
0.06797758128068807
0.03457342706427029
0.0011692728478525094
0.023707576938114032
0.05309967797431227
0.08951012453010851
0.11671343632301842
0.17516481770949074
0.18885792665090198
0.19665189838816713
0.20873797447198905
0.1838996120585279
0.17675383966333472
0.15612348467971318
0.1342152131985187
0.11017786678233177
0.08511371825451335
0.059343127896818115
0.036579042838555585
0.02939494119134207
0.03509904789615359
0.05162891445544994
0.07619216989027405
0.09810213147013225
0.11700516964401302
0.13450282667792401
0.14935738595012688
0.15775449298882424
0.18272201348599798
0.18243245540983072
0.16743342642391212
0.15794852095089054
0.12250852757551378
0.0955189710273223
0.17348887401237462
0.17316273007054997
0.26688851359544385
0.2933912486442836
0.28141689354763283
0.2740143348738221
0.20733647008915135
0.9890470194529182
0.9909854867511975
0.9930034283404384
0.9925486966347479
0.4105642616545966
0.30407850960590094
0.18848613434491057
0.19932552806572376
0.1718908210704929
0.15542151739977664
0.2163498893279638
0.27803405060256914
0.2591449006561675
0.24122320416292511
0.18944789909379015
0.12548295952231656
0.1355051524313224
0.135111905495789
0.13451271857987535
0.13311828463695088
0.1279910415016559
0.12276748193504435
0.08743670990464476
0.05210593787424518
0.0167751658438456
-0.018555606186553983
0.02251774551501041
0.051966466828951015
0.08710838578624334
0.11667111292463292
0.17013751741918087
0.18739924108473832
0.19680199086638
0.20725124867770303
0.18674099851726175
0.1753438220367265
0.1541569232602222
0.13210136981580264
0.10889131824881255
0.0855466120268974
0.06172375784340102
0.039609399327270284
0.030922933244042137
0.03460825721164148
0.049226417142131926
0.07323491228593305
0.09597655610458966
0.11530423440157624
0.13334872398938694
0.14813274424533188
0.15615212283441654
0.17760267197077956
0.17702881474917975
0.16302841523217082
0.1533420041691712
0.12430023588349401
0.09611634218361406
0.16440484894826118
0.15443516120421574
0.22161262571319845
0.24575812953326465
0.2198766828497202
0.22667713059323397
0.190706683481838
0.8819545551781891
0.9274548057901881
0.9449724966349669
0.9408633162409806
0.5252188510598743
0.3124546285949518
0.1826092036522436
0.19807858384242297
0.18353264379059797
0.17420836971002251
0.2258882551515969
0.2690347376594338
0.2452010974926356
0.22307764481183898
0.17375527719873446
0.1221002182590085
0.13078796127749573
0.13130798761787807
0.1322191502232842
0.13252782238133853
0.12900627570902365
0.12497444515046201
0.08990385014880134
0.05483325514714067
0.019762660145480004
-0.015307934856180663
0.02166102798928238
0.05113765699597314
0.08477211180115518
0.11667703833825971
0.1652099494357747
0.18624390608452732
0.19726029373618165
0.20611570488141503
0.18991280450284304
0.17412829655806775
0.15237365441748535
0.13012005064161
0.10766708754989593
0.08600844974842906
0.06408219632394603
0.04317098415950345
0.03316921414432638
0.03488284545613254
0.04762987848875138
0.07051972033752889
0.09397072836929164
0.11389329133855511
0.13268544439076066
0.1476570283239141
0.15527819387305564
0.17283616498198137
0.17202751310095338
0.15903183840740914
0.1495986411919514
0.12733291818358577
0.0987827074290389
0.15335967285156887
0.13517823745995294
0.1777374145267582
0.1996873147467071
0.16543254875270547
0.18410580337554178
0.17841267664153362
0.5428768962385153
0.7901062079216387
0.8445437875119545
0.8389081881750615
0.6714928954408537
0.3471785561307815
0.19977707536795253
0.1962387840032802
0.19586873365580038
0.19363157281436552
0.23597095148297811
0.26180989034530416
0.2336195076228442
0.2072298116756279
0.16055654141702488
0.11975466519332838
0.12621797705250123
0.12769927290882083
0.13008141921856872
0.13209904377747855
0.13010546692591385
0.1271875634391781
0.09242773362819122
0.05766790381720435
0.022908074006217485
-0.011851755804769382
0.021107099430033683
0.050577741234966604
0.08187697548718971
0.11676570997495077
0.15892817346889782
0.18517478062501497
0.19831331230969332
0.2051593975859464
0.194543987188073
0.1728461510677049
0.1503266000906539
0.12773251679047878
0.10615950096056742
0.08664790560259138
0.06712496771326172
0.04808096209115272
0.03667235582322486
0.03588273613804971
0.046243622940693466
0.06735907199511543
0.09151331038875886
0.11244806964001543
0.13248667025111663
0.14804038770866568
0.15511980087317379
0.16732505551484844
0.1663190341503212
0.15467676712992517
0.14628344819837982
0.13311064733443173
0.10557465315057184
0.1367899562764391
0.12024432702533497
0.13368995981603185
0.15222101892826745
0.11628296493599784
0.1435100614504185
0.1768784758506082
0.18855305794982227
0.7474322804227123
0.8226999586550892
0.8223794816279407
0.823223293498975
0.397838012253821
0.22037173519853442
0.19427488105336552
0.21301785247474297
0.21976761011425813
0.25034255170605435
0.25592481763000186
0.22273476041303597
0.19072892191096366
0.14729095435873402
0.11800411962611497
0.12047457168975163
0.12325181435667568
0.12750492277538827
0.13176533327827217
0.13166344326846124
0.13009939935631315
0.09581377006936094
0.06152814078240873
0.02724251149545652
-0.00704311779149569
0.02183635719376641
0.051187498478942474
0.07773972632217693
0.11715255457522306
0.14866902941350574
0.18446462491063914
0.2012722961724419
0.20492345431123948
0.20368175865632038
0.17152056995206375
0.14761887551253908
0.1242124987184049
0.1038357364016004
0.08781966191332269
0.07220351221073079
0.05643972671088564
0.04352454369762345
0.038664934633875034
0.045101571750332435
0.0630457654944271
0.08770994667272702
0.11089815918081196
0.13364802515426213
0.15088533023523273
0.15700995443203422
0.16063307777666633
0.15961701078792176
0.15046097027041766
0.14561377536361564
0.147257316084717
0.12377947503646343
0.1101802357789414
0.11389668449602801
0.08673136846030467
0.09818732981552776
0.0940701766892314
0.19846497417554163
0.2928057397956125
0.34844955453187326
0.8942489456035156
0.9266771623546851
0.928505992238661
0.9198778190257467
0.49438605059038615
0.2536113432560952
0.1986832182087521
0.2448051183457543
0.26555410044991506
0.27891624094850975
0.25955034719928105
0.21886751754682987
0.17744097660727093
0.13743360720772305
0.11747773038743756
0.11134319329956922
0.11630740290356195
0.12363985096234262
0.13174058396146626
0.13461981772155251
0.1351426789534475
0.10180995817517116
0.06847723739689482
0.03514451661861848
0.0018117958403421341
0.028111036804260584
0.05720678939627687
0.09604660288515325
0.11702010791758194
0.1889533377858589
0.19432926210218096
0.19784898881966045
0.21445190473960477
0.17808529637350345
0.1814011675051625
0.1622242406803702
0.14048093014029087
0.1139166497283701
0.08419390256588476
0.05316579381829675
0.03199549094226848
0.02961078607278253
0.040852374874573404
0.06249113246906823
0.085169201690587
0.10442384577891105
0.12312256233443508
0.14030032532117998
0.15681079148745838
0.16604773227860203
0.19736421921528263
0.19780449170491435
0.17998269507612125
0.1729897539620369
0.1237924619341211
0.10150501677458808
0.18640895839604302
0.20994361012554388
0.382622433279013
0.41982235605074747
0.46159405310772406
0.4216617705282345
0.27289023962592135
0.9988355339500421
0.9984807282578647
0.9987736009113815
0.9989634472044577
0.34517487049580553
0.3860615396474886
0.29569892045938273
0.19640854085800055
0.1448105286930757
0.1099947648167962
0.19240941149894408
0.3083831761844109
0.30522194577633366
0.297915027127766
0.24275883046834001
0.13954855956776482
0.14874816367474863
0.14630738408125685
0.14146875444694731
0.13557103461788728
0.12573344648126955
0.11688484849801174
0.08114619462921482
0.045407540760417905
0.009668886891620987
-0.02606976697717593
0.024513496298633586
0.05364463003634136
0.07553072311648536