# vtk DataFile Version 3.0
vtk output
ASCII
DATASET POLYDATA
POINTS 5568 float
6.841267584916426 0.5256463330332714 -19.798061242656942
6.96560617152758 0.4691227542507846 -19.20140586069307
7.067776762297632 0.4129155144716694 -18.607724384672043
7.145303582680773 0.36167982370076446 -18.012708122334598
7.192470592230622 0.32022591220119284 -17.40383958741606
7.183414710149566 0.28522229483031336 -16.80236268587757
7.107224464128747 0.25680584209193746 -16.200053673632226
6.973450902713941 0.24195542889045996 -15.638039519992603
6.780708616292062 0.23616492100055625 -15.104068707309956
6.535760162904661 0.23383680728307993 -14.591759829676139
6.238781337979005 0.23512471134747842 -14.096132588475387
5.8944757207631335 0.24786673919783936 -13.620071086121746
5.500066118277624 0.27752605033495453 -13.155086196211665
5.050709343776829 0.3292274909136155 -12.69609706216012
4.553834408476566 0.4007370010295798 -12.244134082527228
4.006765857244861 0.49297560398291945 -11.800616923106068
3.4067564145036484 0.6048392066403822 -11.369261008420732
2.7614158660536643 0.7307135828400378 -10.955728561984223
2.086027052932433 0.860485733727027 -10.562897529674354
1.400377922068054 0.9823744135680822 -10.186369761004071
0.7260069279608691 1.0867906540076928 -9.816785054242784
0.07704875717603332 1.1683338487946666 -9.442029170432543
-0.5350146595115792 1.2247457419510839 -9.051982004426238
-1.0976020776945967 1.257856233042554 -8.639985439797355
-1.6060670246944002 1.2714865426136797 -8.205044637150097
-2.0635250580616575 1.2688184449628626 -7.74810642063944
-2.4685180762336842 1.2517721470046543 -7.268162997744203
-2.824101500173698 1.2197640680282422 -6.763681551309773
-3.139587318719695 1.1698741502860837 -6.219737086153274
-3.397275908089384 1.098563345292131 -5.650693935782507
-3.601933856945979 1.0162520234304484 -5.040352354559425
-3.7432219109312044 0.9095906650989392 -4.392935711979193
-3.819141046247777 0.7723648303274471 -3.7041389188777525
-3.8196134773606656 0.6860594847831276 -3.0076153846357037
-3.84023173196159 0.5300801730252869 -2.296376978768067
-3.8305386768858067 0.4725441735331378 -1.590109763953563
-3.797073186853023 0.2452239847557537 -0.9259838086319159
-3.76748885521006 -0.01826551054806591 -0.2628944957318319
-3.7683968228407525 -0.1400423507881976 0.3460678536825784
-3.7609177919395615 0.060122233535809366 1.4445804431098805
-3.866508981627955 0.3619528218623424 2.7595295471234325
-3.9275021202747853 0.38855061636736227 3.3027840893811424
-3.895519147847909 0.445687075151762 3.6561736300419203
-3.87190701819961 0.32984157690047056 3.8182947896854844
-3.8143563500286546 -0.011351872411764552 3.9683884583055624
-3.680122172446834 -0.6083136485610141 4.0800824736895
-3.4793041843336336 -1.2352879431702417 4.102178187793711
-3.2086189350466037 -1.8404751536238728 4.1835171688996855
-2.8692442959577757 -2.3921651324446858 4.2879624339047355
-2.4621268177902116 -2.8821013267342153 4.431526221257785
-1.985396970548949 -3.30154255161854 4.628408463800153
-1.441274417354443 -3.636854969458282 4.895990165790296
-0.9101352004717365 -3.852272243323421 5.289772872539206
-0.28402697505018126 -3.9131574072373128 5.6931024025599015
0.3810184313180892 -3.9067644564918766 6.126071673055539
1.0644064107332272 -3.831277025045144 6.5663525101470555
1.7687125280144926 -3.691918196787876 6.991927938689524
2.525595822120997 -3.4749903462164227 7.386171194811534
3.3188838464825334 -3.1915234455885595 7.709918951570945
4.124119466994843 -2.851970805242053 7.946393726763334
4.912502357648476 -2.4576991438454576 8.088611826013887
5.673901704508432 -2.0161010629598484 8.142057518725842
6.366355146915414 -1.559505829356706 8.125847969091309
6.983814144932389 -1.0932343233111934 8.058138746297564
6.511995580303483 0.27832852431163013 -19.98172473401931
6.5454641513606795 0.2879423807584248 -19.338429038415917
6.613500178875625 0.27179096602991837 -18.684424640395207
6.710877652852511 0.2320868996235586 -18.026529875187382
6.817499655980319 0.17509676868536087 -17.340934757431874
6.889022417671365 0.12578888584181297 -16.667853907486453
6.923643807461947 0.10497759588171694 -16.039838449600953
6.906766591427724 0.10151504435499634 -15.391589458131431
6.809851996945871 0.11995210337063297 -14.74576106513412
6.634807348331804 0.15640293919831774 -14.189963211967434
6.3882210615410715 0.21230325908603698 -13.681305575178488
6.0673647793405046 0.2872985132163811 -13.204669467119354
5.685229747891082 0.3768394446444612 -12.768220074392756
5.242378828137063 0.4746056159089663 -12.36098438029941
4.725632147750383 0.5855143913953363 -11.977398081251124
4.140455333879515 0.7076008359458251 -11.618023339681741
3.4941992775183803 0.8356028825651148 -11.276870031338332
2.804503828243388 0.9654178951707618 -10.948896831128934
2.094026142528234 1.0900357879962888 -10.625653423045696
1.3812212253678604 1.20212582626136 -10.299829026785487
0.6863481234783868 1.292976992930797 -9.965030994987758
0.020897217571503868 1.3583848016143987 -9.61785636993477
-0.6077722105502706 1.395531524608934 -9.255649943243649
-1.1944415636556007 1.4049383753959723 -8.869703150068881
-1.7357240131581864 1.3824263214859192 -8.450334898473589
-2.225173273431231 1.333162233406331 -7.994633472195538
-2.6532639246643464 1.2577278040741529 -7.498052344507008
-3.009186305905316 1.158020125461769 -6.973230719895533
-3.3016143256000237 1.0385045111911106 -6.427585755607786
-3.5352981335825513 0.8688987856562969 -5.841003890955327
-3.7069476338250635 0.6786359440683136 -5.191511251498602
-3.8405278473472113 0.5268167173051119 -4.515170177346476
-3.921717083903387 0.4054434348716819 -3.8122287634573047
-3.961038826209907 0.3001796693205595 -3.101927191638192
-3.9169637958931616 0.2500366944029377 -2.3279478119968404
-3.825982340205042 0.2706870430210978 -1.685030014635616
-3.6442703334464635 0.5941093677545306 -0.7866573839813651
-3.492707424481946 0.7193813898918568 0.18197036936915278
-3.408152602094661 0.7721014096490226 1.1503634040836346
-3.3851399173178116 0.5647447595672153 1.6230837354006447
-3.428398278428854 0.24725178127069802 1.89596912736305
-3.472057086820835 0.39944041848370615 2.628873652059178
-3.610620106047327 0.5480200588000148 3.4118912086876065
-3.653469669527242 0.4327197559317431 3.850070854278171
-3.6778089641695804 0.12298105672013715 4.155741527400279
-3.553836789917403 -0.45518743200190026 4.333800638554632
-3.4206345786241585 -0.9545080032585506 4.706009162239658
-3.1404098911972014 -1.574038789920262 4.876601290505169
-2.771341377927472 -2.1815977660716706 5.0509451098944975
-2.3051552000813986 -2.7180191874360187 5.247803008803773
-1.7727657786029463 -3.126430489105698 5.483614918896116
-1.2051292945752512 -3.4162577171981137 5.7529185228876525
-0.6405862713013655 -3.598411928238234 5.997939932127792
-0.0453718284978234 -3.737329598581722 6.300016678060052
0.5840867317483043 -3.808931166647753 6.618335544041068
1.258390933245282 -3.8055731790318124 6.936092112336325
1.9724588001497922 -3.7112473524210645 7.23954064936069
2.7010935988285416 -3.531412556324626 7.523205009454527
3.4450727365014875 -3.2525808124190925 7.778321663450604
4.219018506873356 -2.867596269691105 7.977031442889918
4.938438805403729 -2.446115102463647 8.09248722658486
5.60259585065991 -1.9944069302884002 8.132423991088709
6.230106343399122 -1.5185846415282072 8.106516914596678
6.809300084921439 -1.041979951571304 8.019935385056943
6.815093962668947 0.505987197698752 -19.812660536785277
6.932230098755404 0.45466298165825075 -19.21313966001687
7.0317681347729835 0.4015310697801755 -18.614974786309748
7.11081292654933 0.35116272484370975 -18.015097698063176
7.162436992456566 0.30854215818072045 -17.40044010474301
7.159445213173615 0.2724733498925398 -16.793762711374278
7.092003851022016 0.24468505809777913 -16.19016507726257
6.967219251929762 0.23071292455522602 -15.622460357669006
6.781839892210947 0.2267321937701687 -15.080809633964542
6.542588735903471 0.22744679677187596 -14.565542816518905
6.2498270467631505 0.23310648573549975 -14.069176740496518
5.907555707014897 0.2508209555033076 -13.59328921184765
5.51428654623857 0.28531397150368115 -13.130786738561074
5.065582962990484 0.34075682800453977 -12.676142351074642
4.567342790058194 0.4154113678274909 -12.229913808262703
4.017589702352548 0.5099788181692934 -11.793435096713907
3.4143083615032133 0.6230515115574672 -11.369566478314214
2.7658042056280667 0.7491682419124395 -10.963073176962945
2.0878650760286552 0.8784842487108548 -10.575916620291894
1.4001940963097312 0.9995699927299672 -10.203493151890392
0.7242684339745438 1.102896950666869 -9.836713047966404
0.07405309132401983 1.183150556506933 -9.464181140532077
-0.5392714051383107 1.2380242637523997 -9.076387114109924
-1.1036920379699653 1.2692515715368797 -8.666510538559573
-1.6146449880099127 1.2800377914207506 -8.232872967129573
-2.074511532086361 1.2737286765359244 -7.776122958894233
-2.4811996945793924 1.252150640310968 -7.295004594754521
-2.836671422514331 1.2148688283210864 -6.789130948970688
-3.150168700634113 1.1594706682698543 -6.245320673719056
-3.4057607362376907 1.0805546185369816 -5.675404365345065
-3.6077020431044544 0.9900272833875118 -5.062599387704392
-3.74837886235486 0.8798687372065741 -4.412994697187304
-3.8247122507951983 0.7438964281778495 -3.7230959526649556
-3.828237970160647 0.6561112426163089 -3.0255717649931304
-3.843847620458739 0.5084545486018771 -2.310245647885045
-3.8274440213204293 0.45743166909304245 -1.6098343288908827
-3.784585229539335 0.2710354552577125 -0.941343020576266
-3.7470035313052286 0.03627825812432464 -0.26356127208248514
-3.7423946926719434 -0.0743047959414233 0.36896262380291556
-3.7331486916463064 0.08024247483169465 1.3988993124826803
-3.8305326493125764 0.29937151744436064 2.5759452068210256
-3.890376213146031 0.3346228402929171 3.132615696621436
-3.867478480284194 0.397275035321489 3.512656748217345
-3.84740160665271 0.28106057301815135 3.6903574718787544
[...]
CELL_DATA 87
SCALARS quad_param_group int 1
LOOKUP_TABLE default
3
3
3
2
2
2
3
3
2
3
1
1
3
0
2
0
1
3
3
3
1
0
2
0
1
2
2
0
3
2
3
1
0
1
2
2
2
1
1
0
0
1
3
0
3
0
0
2
3
3
1
3
2
2
3
0
0
0
2
1
1
0
0
0
3
0
1
1
2
2
2
3
0
0
1
3
3
3
1
0
0
0
0
1
2
1
3
SCALARS single_component_feature float 1
LOOKUP_TABLE default
-0.02458882500284459
0.031776799203315914
-0.020108357380188478
-0.005722814979553969
-0.0040774888897272404
-0.017106155030969142
0.01384925724210069
-0.035789400568047136
0.0012631082087917606
0.006094738172680955
0.026379233919858792
-0.012586602273304645
0.004160908550209744
0.030161165114452125
0.0016709045169499784
0.01772382264905972
0.007836575035724526
-0.0030282679994932805
-0.00362382337589678
-0.026096623495657584
0.02247572237946873
-0.030167189167872005
0.015110476063992299
-0.020982578767720306
-0.01932504300572456
0.007009169069817443
-0.004298170598827908
-0.018586488741988344
-0.012260612516194118
0.05072016497971735
0.005734408612369318
-0.052026959655222665
-0.019867645685311162
0.057797515607331734
0.02474256698637868
0.0025613496755498167
-0.012435208721264628
-0.015457113052299763
-0.002646514541665878
0.036845019537247656
0.004958434789452914
-0.0014195055498866585
0.019020609705466728
-0.03706032807340935
-0.011628622689929709
-0.04849267133735936
0.03189082818174609
-0.014897307022759095
-0.007172603562362606
-0.01739453951048536
0.023439947546524467
0.0039265004520942035
0.0065076654413019595
0.03289411708773486
0.01738125922038094
-0.032076044635269765
0.015540551174466703
0.03790212686770558
-0.009315027913195807
-0.0314649234187408
0.018020691332310042
0.01955896679525883
-0.04931967981407147
-0.04706742906188283
-0.028434977497514738
0.007202545072857294
-0.03418202009489951
0.019972012479249644
0.006617267328995667
-0.03855923667218703
0.004704755125190032
0.025082297903935485
0.017708307113058666
0.010517710972449818
0.02044075541830851
0.02963574678319681
-0.023949704966286185
0.020116624693213417
-0.022474297619796905
0.0013607963705419973
0.018905295405661784
0.015710393284459057
0.02364132450415712
-0.018694045722602377
0.016518521900305467
0.005362454855163731
-0.004066564717791373
POINT_DATA 5568
SCALARS single_curvature float 1
LOOKUP_TABLE default
0.053869582284038695
0.0926634566058261
0.12298266682877262
0.15492869282790228
0.18293063389918654
0.18759856810335787
0.1824586519533146
0.1699593434686522
0.15177342627257578
0.1368586419661695
0.11949379796319134
0.10328140606564366
0.09048465925051838
0.07875100177712756
0.06968545227236747
0.057493070605534345
0.0446803948831846
0.0397138571034981
0.045486486962699114
0.0637219235409349
0.08833749285453486
0.10870118534743604
0.12556188192043702
0.13586743391453127
0.1403740475148888
0.14986999400108844
0.15172804062443676
0.1549436298262441
0.15585211939597127
0.16002170254744486
0.15413246888809667
0.16444707540529088
0.21480764078776513
0.18644625477856905
0.23764887969146126
0.2328929756659816
0.16146581238439203
0.3339431465495536
0.46424539004947196
0.9655001020842994
0.97503938418947
0.9668112002239058
0.9527832094803
0.3351904778035434
0.21841160553397096
0.2200745869100768
0.22137158725053735
0.23263823756152688
0.26745758965487737
0.2824847641875024
0.24911630918389022
0.21246048350943708
0.14881179418639293
0.10236048625977814
0.10636168077916176
0.11284842594529172
0.12369715521691141
0.12962227692795406
0.13050071144124784
0.13069349750228376
0.09660614571991616
0.06251879393754856
0.028431442155180953
-0.0056559096271866505
0.052833355904144515
0.07132544843256705
0.07467284817179023
0.08600514383850517
0.12573816453326303
0.1819892328998091
0.22049278085678514
0.2474366623743788
0.2523285674200547
0.22025004521196762
0.19093338279192357
0.16042578657601592
0.1279300211020508
0.09892363087374172
0.06809932899574016
0.044285245354854105
0.03448043780435843
0.0366494871140957
0.05019065869276635
0.07077844393179766
0.09379353281732405
0.11623874891943138
0.1409897380384504
0.163260699535477
0.1729008739663366
0.18313344273279075
0.1777371082165401
0.15951244458446592
0.1475022718308907
0.12165361493615237
0.12359032875447014
0.1517516170369113
0.1728214930141179
0.2031891644284732
0.1885324464026661
0.4959737482275154
0.6759803682685271
0.7314089041270108
0.7346448454918016
0.7395775283557895
0.7278010169356832
0.7202108195051918
0.7616633942395148
0.6079211206087893
0.41273415637860006
0.3338860011414215
0.287445611529952
0.2304147177052511
0.25248452982290726
0.23271866160714114
0.19612241344674125
0.1651452955805253
0.1412066637606856
0.13951968833296055
0.13912974703316655
0.13886939515337668
0.13626755811616706
0.13899019717540878
0.13569887754809942
0.13267477654769555
0.09846901236665756
0.06426324818561957
0.03005748400458158
-0.004148280176456409
0.04517576261576252
0.08224073589877545
0.11419604797807015
0.14768722037160711
0.17808618298172513
0.1871510045992511
0.1853709630862848
0.17639433938887544
0.15992687453716756
0.14317900117711363
0.12478767732067812
0.10734060852390874
0.0930303042085255
0.08011976391799012
0.06936134575089795
0.056029518228206364
0.04332372976363745
0.03894876616830415
0.0454016093941363
0.06409054551427204
0.08873220967604653
0.1092954582045689
0.12686744557712595
0.1382210083192375
0.1431709934924707
0.15279973468682195
0.1541665579602118
0.15433037505685077
0.15338856192736994
0.15499791901816964
0.14337534874021896
0.15585625798648917
0.19235904549701768
0.16971503457177264
0.21386722283009352
0.20987829464381905
0.15605253033561828
0.24820836315240347
0.34780429406132346
0.9411138237760879
0.9583305416332508
0.9536546961560889
0.9404672611663862
0.341074673117268
0.20826860211256235
0.20382658677523055
0.21373576442114475
0.23198048186334133
0.26551952152815306
0.2777400764225365
0.24407093267652652
0.2078613885960755
0.14789346031160605
0.10501384474419674
0.10827077898372392
0.11414886904689253
0.12393740211702847
0.12978643459996927
0.13077276473050456
0.1307645301232924
0.09668204484171888
0.06259955956014537
0.028517074278571863
-0.005565411003001647
0.023321843810123314
0.054909484710267714
0.08822252272582813
0.1252423967278437
0.16259809224177849
0.18555683125341976
0.19496872938973467
0.1969059813348211
0.18612409143797146
0.16399180197974011
0.14240147389726154
0.12112248363997409
0.10185755970675804
0.08488402340387065
0.06853412741792647
0.05160115180097664
0.03945344116591832
0.03696966382807399
0.0455809308433089
0.06556443019736634
0.09005658782451922
0.11122599849843894
0.13099151324151193
0.14560902316141774
0.15194090703710555
0.16195067566160545
0.16162458931466822
0.15327228845471785
0.14716274958945483
0.14066075396513267
0.11460999376791053
0.13333812123359398
0.12339172861930801
0.11947916973191722
0.14518546938332463
0.12837411503759164
0.14188415786847547
0.15999775691376944
0.18273113311782432
0.8303279630637252
0.884550663569036
0.8911065135926588
0.8848914769985774
0.38367886221995695
0.2050966706570146
0.17988618297336562
0.21225526853566778
0.2304680988681013
0.25891661031935087
0.2615376456345725
0.22691736291297893
0.19215372017819582
0.14474624615261206
0.1139397859924924
0.11520599385184062
0.1192039603120936
0.12554954863902973
0.13095167887176964
0.13181812203300056
0.13107601764287954
0.09699781925595935
0.06291962086903916
0.02884142248211896
-0.005236775904801233
0.02212993362730571
0.053101203487146614
0.08577428397405393
0.1227836797697229
0.16084657233365085
0.18536568142283294
0.19608445915530112
0.19922726642494293
0.1891102108545192
0.16641381423230736
0.14446628836616915
0.12276080555371872
0.10292205909223688
0.08545910939106925
0.06846022628906849
0.051129956714803054
0.039063465025545405
0.03679416767561171
0.04564816671593296
0.06575754787134891
0.09021297546662037
0.11144803261691641
0.13145513813184007
0.1464354288383719
0.15292135524159392
0.16296777249511024
0.16243759934084587
0.15325475313558176
0.14664151725694272
0.13922739852962587
0.11250554302410115
0.13186537512711885
0.11909758285715391
0.11725765874929656
0.14069403527913027
0.119920901597606
0.14058007592199315
0.16870144575609897
0.1859189806740127
0.8199695650816735
0.8774804904387477
0.8824011292018109
0.8779403905874339
0.3927388866093402
0.21011923765668597
0.18247479727547022
0.2141627726648756
0.2303513692034201
0.2581704920545681
0.2596530175689684
0.2249270384404875
0.19032961133239268
0.14438059155962216
0.1149978306194654
0.1160791966691606
0.11986990744853725
0.12581933663520542
0.131150005468747
0.131954100726588
0.13112065902722395
0.09704158963919865
0.06296252025117335
0.028883450863148058
-0.005195618524877238
0.03964534404204684
0.07555641371795666
0.10842667239029914
0.14288996477445662
0.17483936156012717
0.18683532303904454
0.1873456725765246
0.18069884954786328
0.16539763869928695
0.1474614037251117
0.1283906851343841
0.1101277853536543
0.09479438581181916
0.08107035871101452
0.06916194580545212
0.055067511695667176
0.04245272017756174
0.03847394553646799
0.045381157524880415
0.0643632324366335
0.08900171800854807
0.10969598312088077
0.1277373789349143
0.13978517502341434
0.14502878139814843
0.15474399035864925
0.15577172520696222
0.15398824269486439
0.15186484089575913
0.15176530386092
0.13646737055324112
0.15034701099352857
0.1766946635941751
0.15796119448452953
0.1978971669836383
0.19356946569561967
0.1528143074032387
0.19803330982270326
0.2778918471239754
0.9190561815451833
0.9434410005820336
0.9430567787578331
0.9306727114961914
0.34615962158306124
0.20282675223045715
0.19417983416863985
0.2103465159846784
0.23159032197659205
0.26417112402290616
0.27445600639826734
0.24058579894002427
0.20467657570745146
0.14725659465711652
0.10682645036935945
0.1096156783525259
0.11509178180475246
0.12416604599789478
0.1299476900340241
0.13096939602006077
0.13081860787015342
0.09673856344508504
0.06265851902001665
0.028578474594948264
-0.005501569830120123
0.030050937801093993
0.054523702095603144
0.07323372551212638
0.09907118139141911
0.14235595397989445
0.1833513496901856
0.2083421206595201
0.22398976770208642
0.22127241583692472
0.19317020791136674
0.16743871183150785
0.14122278848900535
0.11507555775591122
0.09201687545087572
0.06794833597754735
0.04673722078942592
0.0357130609918884
0.03573250276669385
0.04712347798717362
0.06810781410000856
0.09196874431977822
0.11386403077731765
0.13637078935748004
0.15514956038415045
0.16326102459284775
0.17356631850151247
0.17069226505870294
0.15475935109132485
0.1440578291486906
0.12702273225810615
0.11084891054184426
0.1357419838482512
0.14895684116892446
0.1665859714926937
0.16237090962558495
0.19403274071255266
0.30058927815440833
0.37684628636424106
0.3759374828317877
0.742562594510992
0.7964761167780527
0.7894973795329512
0.8126199682511184
0.5154722592037929
0.31127722764600657
0.25756568155735915
0.24636081607093163
0.22978363770435506
0.2517115949623518
0.24092611555279642
0.20513335579192787
0.17234998976981775
0.14091204624207967
0.12695318235709957
0.1266637362789308
0.12831169343808022
0.12994674904252737
0.13422180666257216
0.13364521524006473
0.13174759744292347
0.09763464598099454
0.06352169451906561
0.029408743057136685
-0.004704208404792243
0.07722609186212025
0.12035330116996003
0.14562790080151697
0.17334771491488543
0.19495994029249605
0.1885662478779323
0.17539680841946262
0.15388652689696228
0.1315326367014227
0.1214876806826164
0.10676181805088683
0.09373306377793467
0.08463456092876166
0.07563173145915113
0.07063798354091348
0.06126144142181502
0.048347919036672966
0.04190670751822054
0.045974944229430936
0.06301642771453173
0.08739391452381805
0.10723997980922201
0.12227030988031479
0.12989829091179794
0.1332691554516997
0.1424304537093014
0.1454345820979395
0.15694935423613138
0.16286998888549228
0.17346075577739456
0.18252609230150574
0.18706799150571274
0.2609756047817402
0.21948339605392328
0.2930498301636996
0.28294281884504224
0.18050975397729044
0.590366290070902
0.7672293395391104
0.9933925046313828
0.9949037350237141
0.9872378732862586
0.97259998672669
0.3242670615584021
0.24711210890626142
0.26302183733845874
0.2493982027882192
0.23469047344157248
0.27176347896334946
0.2933244867902058
0.26070203578069084
0.2229433911205751
0.15090140090219775
0.09600857271850302
0.10208499537277264
0.1101351540926138
0.12359633514512319
0.12958957092959347
0.1299333390184397
0.13056134905466074
0.09645681999259655
0.06235229093053235
0.028247761868468155
-0.005856767193596041
0.02127062611845239
0.05026032505570683
0.07964076165355477
0.11502761351169848
0.1552105816026742
0.1847441022348527
0.1997223721144306
0.2067131189634077
0.19877212007568595
0.17432162570912227
0.15122627823245582
0.1281516593309033
0.1064429504621929
0.0873608228912831
0.06825031995065546
0.049667099456551525
0.0378836504262945
0.03630638818212207
0.04593936363595591
0.06641354836175516
0.09072663314017239
0.11216913754122768
0.1329466319889003
0.14908860201179203
0.1560689074910692
0.16622107491915095
0.1650148861145897
0.15336744890520923
0.14526010578300652
0.13491472284050998
0.10856631603043912
0.12983668059899303
0.11940613395521416
0.12402657519674434
0.13886626642640518
0.10090818772688319
0.1388430438429814
0.19220933694527065
0.1957312881853587
0.7871025536840535
0.8531783932783191
0.8531219583587889
0.8564248692206863
0.42760730789649093
0.23437397212268823
0.19885488062896392
0.2220542190092565
0.2300490862267952
0.25585288246732335
0.2536185631795672
0.2185566418751128
0.18449935463953138
0.14321649150529536
0.1184805506777906
0.11902786195910886
0.12215765401120701
0.126820016247684
0.1318893351064573
0.13241815102729482
0.1312796824843605
0.0971954523081173
0.06311122213187409
0.029026991955630882
-0.005057238220612326
0.02354265392571619
0.05077027656715796
0.07626613534671482
0.10840473071273506
0.15019324819304383
0.1841901139046621
0.20302826153179998
0.21341181720480285
0.20746146166087914
0.1815277304283465
0.1574090145749053
0.13311487284057874
0.10970645783486506
0.08912237826261463
0.06810110956722397
0.04844609418204948
0.036940825579934986
0.03598299165298899
0.046306091955063154
0.06704162100721366
0.09119863718741024
0.11282111841334302
0.13427701036977766
0.15144837199792083
0.158868542604969
0.16909676505505042
0.1672620662803348
0.15370785781539012
0.1444451929193294
0.13149196962778723
0.10818568399113297
0.13099281436507357
0.1304589510629295
0.14047017651725313
0.14691793663143188
0.11364751865125315
0.16905836273843738
0.23684968865408945
0.233544054297159
0.7620058662749554
0.8303385901883054
0.8266605183834816
0.8385233500137224
0.46219477843998097
0.26256987913736773
0.21999724850046817
0.23071049633693438
0.2298743867353119
0.25397906387131064
0.24839280628505064
0.21303861476243305
0.17947042819216447
0.14222760253359878
0.12169160005609313
0.12184585382328109
0.12439384767598886
0.12789194973439513
0.13268594325216768
0.1328673753175281
0.13144316803847267
0.09735087859673705
0.06325858915500143
0.029166299713265814
-0.004925989728469804
0.045371910339321586
0.0656036574028997
0.07339565464387107
0.08896007304600365
0.13046954487890577
0.18227676446397564
0.21687110872553853
0.2405425755825316
0.24312813038579675
0.21209174506069606
0.18383280962065068
0.15459643873039441
0.12401143410645162
0.09682185741283178
0.06796632548045045
0.044782736163866285
0.034599407258939695
0.036140339214222106
0.0490977446142633
0.06994983157460856
0.09323901917552996
0.11553095589445149
0.13963396026623176
0.16088754189347182
0.17007772612395583
0.18037214107545288
0.1757502358962374
0.15776994297463887
0.14586251787819018
0.12256181311646136
0.11911645070089513
0.14647978541516288
0.16824750264352023
0.1954601019676487
0.18295219257361522
0.3943938933089461
0.581636988548872
0.6451154893143125
0.6490043175069605
0.7461049609502751
0.7472629784284617
0.7396846744174177
0.7762201328090258
0.5850543003553408
0.3850158919660348
0.3137007372171429
0.27447964656940715
0.23010657687862573
0.2511535396038222
0.23335835520229795
0.19696632761244964
0.16544734948982956
0.14035355852982806
0.1356884429452671
0.1351902134539275
0.13547775732373096
0.1341367988983179
0.1373769579927633
0.13504430009987034
0.13236036081997893
0.09819003586213709
0.06401971090429526
0.02984938594645342
-0.004320939011388414
0.03198720551034999
0.06617069839881336
0.09998710027853648
0.1357683166678193
0.16996020885144683
0.18634040763388518
0.1903491681142402
0.18715962400221645
0.1736350679087336
0.15397286705305152
0.13389140642489009
0.11441685216384971
0.09753151424324771
0.08254733096128823
0.06888841496882676
0.0536531063349705
0.041202168365160226
0.03781876469748696
0.045406794874991656
0.0648100650438724
0.08941455913379173
0.11030170918005597
0.12903841704733168
0.14211863969610272
0.147799053606371
0.1576386140496993
0.15814140372240554
0.15358737123869262
0.14978243743917394
0.14712414576268176
0.1267245152267114
0.14262129445577212
0.15324454816041772
0.14044277829311005
0.17461741367246397
0.16789546844819472
0.14825694353001714
0.13463306052846918
0.18819658956123103
0.87713088038464
0.9153663026744229
0.9244811192886369
0.9137413621841254
0.3566952186344633
0.19820376940617138
0.18307597872727518
0.2083621794345591
0.23107797823857992
0.2620923156283383
0.26938894655909784
0.23521787818414722
0.19976236977547282
0.1462723613516543
0.10960612297149705
0.11174146152880723
0.11662172129363305
0.12461587338505037
0.13027061705649512
0.13128694676257396
0.13091049651468134
0.09683270011017484
0.06275490370566833
0.028677107301161825
-0.00540068910334468
0.022400694224966277
0.05032965639641828
0.07743807343623244
0.11100030027271907
0.1521907465099071
0.1844100574933704
0.20170397765855128
0.21073983765475918
0.20399037951558627
0.17863830865195116
0.15492748407389234
0.13111933692580388
0.10839199069261425
0.08841303224380434
0.06815606721367076
0.04892188529535579
0.03730301598773794
0.03609811411714172
0.04614691555900566
0.06678658625658679
0.09100893972934054
0.11256028527203384
0.13374680002987727
0.15050866522901366
0.15775362510258123
0.1679538115398844
0.1663725220092839
0.15354337342839156
0.14471994898527887
0.13280504987190048
0.10806826381362947
0.13028235658496642
0.12563796618322076
0.13354854669580277
0.14329967284872253
0.101567063077089
0.148911836795975
0.21189422186587917
0.21059066285315556
0.7711767047620806
0.8394656676849614
0.8371078438491484
0.8455145368819966
0.4482911517776388
0.2508738570923403
0.21111462780271262
0.22711617483107266
0.2299332180075731
0.2546962582493644
0.2504467925170258
0.2152080647302424
0.18144409735149014
0.14261287245925477
0.1203998224233097
0.12070088394322084
0.1234798546682106
0.12744379164772482
0.13235242005806933
0.1326842631382393
0.13137541610859294
0.09728676459606138
0.06319811308352982
0.029109461570998266
-0.004979189941533291
0.05058683822568354
0.06959385065099973
0.07424899839991507
0.08683330160802366
0.12712588090370508
0.18206120733891656
0.21941323985194144
0.2453891461068486
0.24958963552211696
0.21780890857636864
0.18880683248676994
0.1586779388922578
0.12675384997459407
0.09829312853690944
0.06805028444268042
0.04441173284385182
0.034492834726280584
0.03647580894422539
0.04984954420058838
0.07052854759852516
0.09362718934749183
0.11602766213354189
0.14058722212420907
0.16255680374055606
0.1720632189446951
0.1823180869608684
0.17715473192820322
0.15896630968013342
0.1469616626781972
0.12186498995239538
0.1222063101907366
0.15014135949467503
0.17163571275106443
0.20111663847682285
0.1870742873743197
0.465465542493407
0.6507793772345548
0.7084568680263864
0.7119451543817765
0.7428416815050515
0.7334634293198229
0.7259226543715623
0.7659868154408173
0.6015029799357007
0.4047188804152857
0.3281275017053034
0.2835136180741948
0.23031221290516635
0.25197703268490124
0.23270963844939338
0.19617063321543143
0.16503157108702593
0.14085777799568705
0.13836945760238237
0.1379344896669442
0.13783563264441823
0.13560954865309807
0.1384914590165767
0.13549975576786855
0.13257729968994425
0.09838288707967259
0.06418847446940093
0.02999406185912927
-0.00420035075114239
0.02137661118948228
0.05021636299730056
0.07929106705299742
0.11445203034582106