# vtk DataFile Version 3.0
vtk output
ASCII
DATASET POLYDATA
POINTS 5568 float
6.689658773957399 0.4116421308316796 -19.887841977777253
6.77308540775367 0.3861892146128459 -19.275429906838717
6.861199126132967 0.349067840869654 -18.657752278221583
6.949523759804364 0.3041233675615958 -18.03539219278959
7.024783923671974 0.25710066809849763 -17.3924923839025
7.052809473652456 0.21642564267131847 -16.75860370961595
7.027316492572152 0.19142965799967107 -16.14401502091274
6.945170211322052 0.180930470807731 -15.545989525202453
6.7946994525585716 0.1846132856413297 -14.964765489079735
6.580991133633027 0.19826570215228015 -14.433428247349035
6.306290121400047 0.22279365783021085 -13.931340795848266
5.971810006322741 0.2623440250166849 -13.45432364953626
5.5818347779299895 0.31824956471158466 -13.001611630446412
5.134206272837582 0.390385339433136 -12.565704344973078
4.627778558019007 0.479385924193023 -12.144941810656386
4.063831491135911 0.5848625992280637 -11.740310491528042
3.443978943327013 0.7038435148669178 -11.350839563903993
2.779974673605424 0.8314116376756956 -10.977268333729821
2.089881981940544 0.9589208944376012 -10.617298002258208
1.3927508831478197 1.076550339685661 -10.265145991503429
0.7093478452748545 1.17517411831188 -9.91272414957792
0.05275382042228449 1.2498528147068588 -9.55172848661746
-0.5670812215906643 1.2979620621925332 -9.17525104114358
-1.1405038126646256 1.3207879659994632 -8.775756910277211
-1.6634388367730677 1.3188308373223345 -8.348495451268022
-2.135191428793805 1.2963098289847161 -7.892504161483187
-2.5503050074077014 1.2545334622056294 -7.405354957657353
-2.9056279584314115 1.1937730932749742 -6.891659604157043
-3.210110649843907 1.1139417354419612 -6.3464483385433255
-3.456123595824884 1.0017836180533934 -5.7696126896526945
-3.6451826932898266 0.8749023419541838 -5.142680546423781
-3.7816292608434057 0.7482640619216522 -4.48129210819402
-3.856855480937667 0.617228091261063 -3.7856734369847453
-3.870528349654098 0.5235414942689846 -3.0826396815002495
-3.862362971389483 0.41041125063918216 -2.3473368805057007
-3.819081324194577 0.37985953587093807 -1.6724376289177714
-3.7359005857890577 0.360284145720997 -0.9656881687480365
-3.6578463669114876 0.25583078490320843 -0.21003044989996555
-3.619679915828165 0.21686665338560285 0.5539524580216265
-3.60490157166545 0.21121733559664385 1.3330986032568952
-3.6747615771101203 0.15368341538625924 2.0114058623942612
-3.730594945960937 0.22029566982509147 2.6201635656591873
-3.7608935310830987 0.3107128116519894 3.13803753419631
-3.760843482671425 0.19080756775149124 3.3924861094529923
-3.7391521228574556 -0.1297189017020228 3.6026569850292973
-3.6088598721323613 -0.7163148843689897 3.739984522305242
-3.444422726339337 -1.260488421316027 3.908894190751491
-3.1677377052050004 -1.8698146137139349 4.026704053888305
-2.813011279857323 -2.444282565730484 4.159767096411529
-2.377834028582876 -2.952679855282217 4.326133419545595
-1.875472877344194 -3.364889647755892 4.541250553696678
-1.3206046410893237 -3.6782917118870784 4.812058771474979
-0.7782021971165317 -3.8768585827495956 5.142278668169733
-0.16830177494774223 -3.9720229509761276 5.502577846051172
0.4785094164244408 -4.002147460327179 5.885452567823302
1.1560538659975585 -3.961292685203926 6.271370658920862
1.8638325472754775 -3.844274558019941 6.6424484585818275
2.60814384999867 -3.645971686284092 6.986694817136481
3.37967383128274 -3.3660122082924233 7.278729377209042
4.169788677326311 -3.0083337843023306 7.496551644225669
4.925472500942445 -2.604185434287275 7.624702447682396
5.641865770780713 -2.1595118710655763 7.670287395195791
6.303975987095232 -1.695693952788005 7.648347662682789
6.903184012500758 -1.2256452253155543 7.571302405404692
6.868880160503068 0.5491821899430952 -19.670564965949172
6.987347707224375 0.4647734165388587 -19.01575900212586
7.063057085916119 0.381595210936428 -18.367646973950837
7.099430247505244 0.30453261811748544 -17.75093021151204
7.107648521325211 0.23587391668402335 -17.14002317675817
7.068504574745488 0.18814998541837463 -16.564610087578846
6.985199473705683 0.1623466730293488 -16.025466365453912
6.861639224288791 0.16273378308267922 -15.477082030684587
6.677516608868962 0.1808186748814492 -14.950806841255583
6.45598739726671 0.21114870589103063 -14.457899907479877
6.189743329758916 0.2497326907160869 -13.995046923425294
5.876595275015058 0.29783956074855084 -13.54997339921577
5.519102253381755 0.3557645830896063 -13.116994339890743
5.10611101328546 0.4258952622877794 -12.6868066002776
4.635334082986418 0.5086529492928251 -12.256901073157458
4.103017107855538 0.6055654098345274 -11.827921195090466
3.5062491514861778 0.7171061654956707 -11.403183528317593
2.854028308673749 0.8399707537087556 -10.986164241870416
2.1679275466979475 0.9644721597851071 -10.579026107686635
1.472286436497908 1.0801052738649375 -10.18045283982902
0.7958053526438598 1.1752162291304311 -9.785397271383376
0.15246930675787607 1.245555256694266 -9.38723498011287
-0.4515990758164655 1.2909602841277454 -8.981247117478228
-1.0117536755888787 1.312705733789206 -8.559474199129955
-1.5222126128077518 1.3090817867387712 -8.116917278912307
-1.9763224533777066 1.2809650303935711 -7.658380199044472
-2.3798789164059397 1.2313193894335401 -7.181063337975932
-2.734104313906117 1.161983151541231 -6.691605264341089
-3.04837045714998 1.075419008480109 -6.177784525957257
-3.308227713384631 0.9358405136100569 -5.641514730254691
-3.5184912672159037 0.7825678630340672 -5.050733141130037
-3.687827401045147 0.6688494026775822 -4.426526322886812
-3.830125833190528 0.5529730504482374 -3.7440124388136407
-3.9251915841556717 0.4408116136226533 -3.0545502648539706
-3.941710866410764 0.39180469609050256 -2.3103788847319064
-3.8354150206423636 0.5497778900753508 -1.5881863165363885
-3.631437171235768 0.8403652786723628 -0.5634600661132336
-3.607975991807255 0.6904225231409188 0.3762889592803065
-3.6999630051114 0.29413018609260794 0.9290764046163136
-3.6678904119840716 0.08242451537670845 1.413314643170073
-3.659682449042785 0.06811983645904535 2.1149371169986537
-3.669533042424887 0.42175902515595093 3.0437523306185006
-3.626088822374752 0.5275056312201333 3.5175256807717123
-3.597608653288711 0.4632979936934852 3.9471859045885016
-3.550154400824461 0.12397450753864903 4.172403872559949
-3.4366310748206423 -0.4941020401114703 4.383914130823082
-3.288271215193189 -1.0904269215005389 4.549434973171778
-3.0640776735557247 -1.7246479704158353 4.706958812838013
-2.7708782262838936 -2.3197753743403005 4.861416433495182
-2.398875473778818 -2.8621700036675963 5.022936965465848
-1.938458794452083 -3.329592562204779 5.202177698258549
-1.399819913117077 -3.6858368887237525 5.415160812483658
-0.8374806758891674 -3.9066933653198093 5.64669635330233
-0.20715519064325405 -4.011100572384341 5.936946390770476
0.46070630057818385 -4.008405698443733 6.269098381148811
1.1409610570802189 -3.9171456619877123 6.623636914550598
1.8311521837729818 -3.7543294292254883 6.980595815116536
2.5596831707257532 -3.514456796318404 7.329320693424607
3.3260901245846526 -3.2018004569555463 7.646574149675171
4.1375674836682705 -2.8073385051257906 7.909395446055228
4.935838985196058 -2.355701880541026 8.087650329606586
5.684666974106488 -1.878640420398638 8.175013003692907
6.377842143242448 -1.3892489420601528 8.186354898568403
7.006327332450793 -0.904286618587406 8.133510621407126
6.7506865058525864 0.45847670796603773 -19.813855700355766
6.845665109895126 0.4135109840521889 -19.18780932982473
6.929588926204951 0.3609927526431371 -18.560218103711666
7.000078072325677 0.3051263443422162 -17.940438997894088
7.052038890007439 0.250668577277141 -17.309374311215677
7.056473195157475 0.2075580964392485 -16.69658598254689
7.010536144777075 0.18229077372020575 -16.109049081589582
6.914007398814996 0.17559001550142292 -15.52864904773475
6.7518861361347415 0.1842918048124819 -14.966896452222567
6.53548886957872 0.20372782117268085 -14.448949495141521
6.26370195741813 0.23315274446620496 -13.960467421038052
5.936579852650495 0.27568966411452656 -13.494473332503391
5.557832054732952 0.3323054612755964 -13.048549066176674
5.122181009292566 0.4037476830052492 -12.61462112585951
4.628115268431443 0.4905834735214402 -12.190788718507553
4.075185157981156 0.5930931704807187 -11.777960692992957
3.463424833744529 0.7094961963282587 -11.376627193200745
2.8036414235129308 0.8354269259072569 -10.988466227419003
2.115107585315716 0.961881305113965 -10.612673360470795
1.4186699610634945 1.0788046623194723 -10.24494599489859
0.7378091928602827 1.1762108016829314 -9.878198973176408
0.08590926246817265 1.2493945100319908 -9.504695782300953
-0.5284172768445957 1.2965727587575113 -9.118272232515938
-1.0972400373934543 1.3190277232494119 -8.711262063432747
-1.6158773248093277 1.3165033464729383 -8.278834801638983
-2.0815677530479118 1.2920678952366877 -7.821994006294625
-2.4927185412216084 1.2475916391470852 -7.338215523472391
-2.847653846088593 1.1838825337426861 -6.832873315320697
-3.155464131260072 1.1017437886433328 -6.298542944393623
-3.4061354233305945 0.980182250558027 -5.735969230632943
-3.6024032718174466 0.8442793017201664 -5.121760837710387
-3.7501716064455697 0.7221437964893919 -4.473421942848519
-3.8481846065706624 0.5964186036200355 -3.78302565272991
-3.8895638825246133 0.4965879110443086 -3.085739184745938
-3.8897964823401017 0.40536232046971643 -2.348135848835474
-3.826247287743051 0.43669640178920566 -1.6630416480054784
-3.707608996704483 0.5084997996737358 -0.863661090068999
-3.6467284656169237 0.38941749202669695 -0.04817466120926661
-3.654199160971616 0.230690412656214 0.6147415882181455
-3.632951956305887 0.14643934754303856 1.2743395533902513
-3.676367194003749 0.10358456033107413 1.959222424627935
-3.7191056686991226 0.2537543230731053 2.6634946042533523
-3.723638648560312 0.34930559484646007 3.1648129818259916
-3.7152498715522024 0.2457349587026998 3.4706561070268873
-3.6849801127374793 -0.08100125213940118 3.6858054005897882
[...]
CELL_DATA 87
SCALARS quad_param_group int 1
LOOKUP_TABLE default
3
3
3
2
2
2
3
3
2
3
1
1
3
0
2
0
1
3
3
3
1
0
2
0
1
2
2
0
3
2
3
1
0
1
2
2
2
1
1
0
0
1
3
0
3
0
0
2
3
3
1
3
2
2
3
0
0
0
2
1
1
0
0
0
3
0
1
1
2
2
2
3
0
0
1
3
3
3
1
0
0
0
0
1
2
1
3
SCALARS single_component_feature float 1
LOOKUP_TABLE default
0.0012071463288817735
-0.025945233418516324
-0.008038670721631277
0.008922658142346848
-0.029930158733093022
-0.023266796370107277
0.004012402450774714
0.01648904514361159
-0.020020060290404602
0.0011076863698975259
0.010798148904845272
-0.010729165137996613
-0.03149036394703809
0.024073981205482906
-0.018075010222747233
-0.01320571257516592
-0.01412451330678089
0.015716862116201075
-0.022120225705050352
-0.012224330442341665
-0.057705782653026595
0.010985898486425158
0.02880956076518313
0.03460680203414995
-0.019054172727342913
-0.013706803724956251
0.0302584579580987
0.06535059763181383
-0.04588093451089625
0.015283573996546243
-0.020885361526459485
-0.00123010229310749
-0.030609353558294625
-0.009343879702530835
0.02146906107905447
-0.009264304285242352
-0.014783766822267667
0.023700391293532318
0.011036231610765349
-0.03499816869356838
-0.01799664860906096
-0.012889307881372485
0.03069719945179328
-0.009020474729402927
-0.0035685781710498715
0.010697208437179037
0.005525674067057337
-0.0033915164767520656
-0.016581677475752586
0.00551380748887843
0.017953986356792448
0.015209349621913948
-0.0038212960032659588
-0.012606120395122055
0.01743449539361902
-0.017300264185153277
0.009693627391215098
0.004006970137798866
0.020329899260023272
0.04086794183132157
0.02563247908781376
0.023602021326486013
0.0153282194097006
-0.01568929661373088
0.009640560243307048
0.01039080632183998
-0.02380684384231974
-0.022248855880579614
-0.016082880518516026
-0.005701866900861885
-0.008043703960572773
0.027954547522718018
0.001588774572111696
0.00814481724343441
-0.020277812381749923
-0.015939770672611875
0.021810128753636963
-0.0004917433680614314
0.005837521645402272
0.03843911762343351
-0.025083942226492836
0.06408685393146447
-0.005186629450931651
-0.04802620387096218
0.016366629086175723
0.011475605852208061
0.008331557407953476
POINT_DATA 5568
SCALARS single_curvature float 1
LOOKUP_TABLE default
0.02148495894699328
0.05058968100143756
0.07995129584286488
0.11611811979202752
0.1560045734529854
0.185391860994311
0.19980137580258284
0.20587508119050785
0.19789996872001636
0.17335464155509894
0.15055491377106833
0.12770777277148962
0.10616206909963184
0.08729064152354503
0.068477823091701
0.0500368357107162
0.03814424463223476
0.03641044084837823
0.04596001189260073
0.06650773710950027
0.0909675372748583
0.11237895788105409
0.13310081789722392
0.14914403643428756
0.15613501063476787
0.1659845078549423
0.16471508405198113
0.1533309045480029
0.14587904481699335
0.1370571541887845
0.11006504668845522
0.1272213845051948
0.11423540309925893
0.11155991694145431
0.13244099674648305
0.10126720397068376
0.14158909154572516
0.19362028029949535
0.2003256758441494
0.8167516276964482
0.8711541411683323
0.872836277588841
0.873429835767523
0.4151014460967903
0.2322087415317428
0.19730709033207794
0.22156837497595105
0.23033862156331614
0.256340202380963
0.25435192115245514
0.21827498515359817
0.18423445081644094
0.14218802826278826
0.11697762212700813
0.11882136950610472
0.12267046820112543
0.1277176118255626
0.13277135858048764
0.13310640352906625
0.131778308671891
0.09744597577625518
0.06311364288061935
0.02878130998498353
-0.005551022910652292
0.06740024013023087
0.10658055226150737
0.12687553561315307
0.1385138096235042
0.17214122620124342
0.1748603164080475
0.17757184009229807
0.1826896991216751
0.1630273837595569
0.1506595866831656
0.12772760005071912
0.10769170908054802
0.09325729257639787
0.07867267498599498
0.0645885864910443
0.04950225252047958
0.03842700785248324
0.03648080602511226
0.043766598424985294
0.06084394898411462
0.08286102571713809
0.1040759756753676
0.12202032003055541
0.13390176885375346
0.13757203407446242
0.15536286379828798
0.1589885309557999
0.16122438235101325
0.14739153309090133
0.11943870353255323
0.12685841255356
0.19450692479850076
0.1873611528846701
0.290243047518759
0.453859995807586
0.5046188265998729
0.5694641094545178
0.5227219090167087
0.4813201140974723
0.5248145523459206
0.743956916438274
0.7409041742677221
0.6670956133522901
0.5422515011260959
0.16876873203223225
0.16092643384326802
0.18805738185107299
0.22867735465418032
0.26564270094307335
0.2789670118428063
0.26596612709586265
0.229307686397046
0.17652721782411504
0.13576677631432674
0.11080493680530877
0.1004677745285813
0.1029311400797307
0.10984724739106615
0.1161951534680319
0.12057572506900546
0.09143252151189517
0.06228931795478487
0.03314611439767458
0.004002910840564283
0.02878707282796728
0.06080836520885341
0.09170600211312237
0.12221876668579891
0.16046495441496675
0.18157269225020145
0.19243002994634947
0.19853705537116376
0.18677627830224144
0.16615960540608082
0.14320506650676645
0.12114819752766447
0.1018322534567909
0.08434641022561717
0.06710345079176928
0.04980289313404944
0.038206793505273326
0.03641593468446583
0.045200120904828556
0.06457089137771813
0.08819088335393194
0.10948948368722317
0.12925676021069196
0.1439376862715632
0.1499076373338531
0.162079223092983
0.16251826827752555
0.15407791863023226
0.14422420358757565
0.12887025871398475
0.10964127722309258
0.15224570273504645
0.14315096927930582
0.18244697490690337
0.21622637557570634
0.18721513007902804
0.20848793628332865
0.2246362997365201
0.20862095609955308
0.6471985876822957
0.7829395120012999
0.7801378010951007
0.7770586155430296
0.4478250072031123
0.20081403405440135
0.17540718333345273
0.20955442817143338
0.22892309995669413
0.25753108344494907
0.26055518685066287
0.2327596637311605
0.19768202341739521
0.1527443949652861
0.12255987934191398
0.11530369745591984
0.11464240837360073
0.11901097205390446
0.12469555379840741
0.1270891204131149
0.12775389352069666
0.09528765817864895
0.06282142283660125
0.030355187494553543
-0.002111047847494163
0.030032355687157168
0.05711284171849149
0.07821500005580535
0.11223146819815452
0.15292875598310152
0.18857324435869294
0.20563910971992946
0.21155837822101758
0.20659073618275595
0.17895730627730264
0.15635743445618935
0.13296669089716928
0.10970583686665161
0.08974091511941422
0.06965829581893962
0.05027443925671836
0.0381214914621253
0.03642228024688376
0.0466036248036202
0.0681270185301653
0.09329226335102583
0.11482988266535865
0.1363467484487297
0.15346895918216957
0.16122446826777329
0.16945468730676277
0.1667362691340896
0.15414081208794772
0.1487874139080512
0.14510731597774235
0.12363079325596601
0.11586186207156103
0.10076398423676136
0.07362380384618677
0.10593114559119161
0.10491090125798967
0.19292902475710277
0.24398063522251756
0.2620880008531033
0.9223827581276476
0.9340241553521571
0.9387338639605898
0.9372622293216943
0.3943959350910492
0.2620393370865086
0.2192961005942234
0.23153468034363067
0.23207189200619172
0.2567958558247186
0.2509304116557852
0.20786189231994986
0.17481409019135624
0.13451547989060067
0.11313004239908861
0.12239900896901384
0.1296627767305434
0.1351806272805003
0.13972313075666792
0.13833794328414178
0.1353115463489979
0.09933984198488968
0.06336813762078147
0.027396433256673264
-0.008575271107434945
0.07661168213678717
0.11764025939340547
0.13561749392484806
0.14299453645876636
0.17539348442612335
0.17364208890035454
0.17429902704292313
0.1788852162457152
0.15736373341480117
0.14691990215292744
0.12406145859847846
0.10457288224444404
0.09132767367581887
0.07742437861774658
0.06405865230034459
0.04946152152964965
0.03849195568304457
0.03650380576958461
0.04345482163188014
0.06002099319296401
0.08168657021840606
0.10290959124742456
0.12045966179870277
0.13170248306204446
0.13480436971983997
0.15402557650375476
0.1583313780219434
0.16373882163698744
0.14919808244751115
0.11871136880587832
0.13225294947642335
0.20074128644919495
0.19365934846538582
0.3078557774894591
0.47935147194198097
0.5529292336466727
0.6228667902192311
0.5687934894882184
0.5473472790021608
0.5309554382093253
0.757857145470102
0.7555178961493418
0.6639040470065422
0.5666148865813151
0.16604218320977482
0.16177163169276265
0.18402060120848118
0.2291126941846586
0.26838813725892613
0.2840148182534084
0.2739844639687007
0.2370479881793798
0.1822921931732571
0.1390626545056812
0.11020350195900501
0.09760269185560316
0.09950157289848442
0.10668486961657563
0.11390340221849689
0.11908312249697789
0.09062954248856556
0.062175962480153224
0.03372238247174089
0.005268802463328559
0.06125782212684795
0.09924506596989961
0.12115490317371855
0.1356835428865454
0.1701000760081824
0.17575360548967742
0.17979558533677595
0.18519314761900094
0.16676020726938487
0.1531130604433394
0.1301468052536403
0.10976394212463667
0.09455128369211699
0.07951561686054348
0.06495118275156482
0.04953484459075016
0.03838642172996825
0.03646697827288046
0.0439776726246059
0.06139862003337769
0.08365311800958984
0.10486834773095144
0.12308083277564413
0.13539003571042338
0.13943092748789135
0.15629436178731188
0.1594561328948724
0.1597062706719554
0.14639175679732377
0.12022673664558174
0.12352326114811499
0.189670295299816
0.18246547137717808
0.2771961915569444
0.42959828719755755
0.4653716043445931
0.525878073796716
0.48527231243111096
0.4361248926498199
0.5265707292434505
0.7383345516602062
0.7348370536528532
0.6731990487007437
0.5261823224977636
0.1712345113095528
0.1609052203908685
0.19097689902930554
0.22848701295519686
0.26396984238539184
0.27573898683431863
0.260668763677785
0.22421232110277511
0.17273670066477667
0.13361808151143933
0.11128928322070185
0.10245661886687817
0.10526764392966156
0.11200180981857527
0.11776227139445403
0.12159983020138458
0.09198313376942727
0.06236643733746995
0.032749740905512637
0.0031330444735553215
0.023729914297010615
0.05205496344595848
0.07874108313705383
0.11457465206498788
0.1548240792137935
0.18655445125793702
0.20196083423405384
0.20798735603346227
0.2011215328469528
0.17543316850572718
0.15269920529473766
0.12964280098105652
0.10745844415742117
0.0881827174739605
0.06890371780738606
0.050118733797987786
0.03813278168652765
0.03641295494296468
0.04619305385900485
0.06709629569002777
0.09181216149223055
0.1132662470036311
0.13427756980351027
0.1507195410354913
0.15799769603066402
0.16722493588654033
0.16543083446160464
0.1534860999196477
0.14679028234288463
0.13987890091655636
0.11369915455373882
0.12200464856956184
0.10771426168560087
0.09149134978397568
0.11980236562394912
0.09740521164482285
0.15376803539123382
0.212589508084405
0.22154725767917394
0.8627678637499743
0.8972224171522142
0.9002530761311965
0.8996422707751363
0.40698534509049594
0.24281942697269002
0.20504775060743238
0.22521431979441003
0.23091611379663607
0.25636511930767647
0.25293045240857764
0.21430766795553916
0.18061416020513854
0.1392686474627825
0.11548525089983505
0.12005423526372858
0.1251847052774428
0.13041074293127977
0.13527660194076188
0.13498620992065707
0.13304421982630574
0.09812461165694482
0.0632050034875839
0.02828539531822298
-0.006634212851137938
0.04196425382711264
0.06741773332502002
0.0790997582021293
0.10956809301720126
0.15038541523139712
0.19160704943629772
0.2110294835115178
0.21675176148375555
0.21460235025163646
0.18411060908315932
0.1617602908710487
0.1379290441371108
0.11310989802040881
0.09212978190383955
0.07084172677502101
0.05054527478138221
0.03812666822617064
0.03644941741835643
0.04724260413265337
0.069715510040002
0.09557556736788592
0.11726264093686449
0.13955398819266782
0.15767795570166757
0.16610615723814284
0.1730250312310842
0.1688697793809598
0.15597088725633204
0.15270899652893002
0.15367300006126622
0.1427128424738277
0.11558046325981469
0.10800915205591832
0.11747514992579235
0.13914194823985243
0.1653688985712149
0.29931703311404223
0.26959399279445084
0.31022648911858536
0.970415938985876
0.9686146444136554
0.9739202997412737
0.9728244186985239
0.3783541486584753
0.29254510704378756
0.24236092146126026
0.24099838225407705
0.23416232326884182
0.2582825441310189
0.2489544387087035
0.19920762218102042
0.1672531877173182
0.1281958302521741
0.11024475027634163
0.12647441748318186
0.13673262110608414
0.14266601772064152
0.14672726491096738
0.14365709077691866
0.13893627875386436
0.10128210440058634
0.06362793004730832
0.025973755694030307
-0.01168041865924771
0.053893109417554826
0.0904896554533669
0.11440375359708956
0.13244347438926873
0.16777424373737954
0.17690297433330887
0.1825038131048127
0.1881669555448598
0.17120205878374226
0.15602271121895886
0.13303043101998116
0.1122488564220973
0.09611559592599292
0.08054091991478116
0.06539739431266932
0.049580078282070755
0.03834066981938688
0.036452060660994344
0.04423514247462671
0.062072477530659476
0.08461595838070457
0.10583750641229164
0.12437779418908092
0.13720255276069335
0.1416802715522626
0.15745835066973224
0.16005113323230646
0.15806490979165516
0.14541997874235332
0.12149206109197516
0.11980144223023008
0.18307591831257986
0.17575046806061587
0.25999174823264337
0.39275878824420807
0.4111208978956095
0.4649885664818746
0.4334455820210541
0.38165575220557507
0.5357801805037993
0.736356007121109
0.7324319883049248
0.6853996960664782
0.5072813983320069
0.17508159676197588
0.16165571968068437
0.19469609643163022
0.2283659414568122
0.2621448141006702
0.27202732679166314
0.25437412118994923
0.21817870333213973
0.16824141404019458
0.1310895624457281
0.11196396042724326
0.10493290865667217
0.10813303519795585
0.11464481487966714
0.11969099051017104
0.1228641260990502
0.09266256135134053
0.06246099660363086
0.032259431855921186
0.002057867108211514
0.021436453636419314
0.05056972980352944
0.0800140489677022
0.1161755096760752
0.1560478099536884
0.18535058419261288
0.1997240850360984
0.2057992210519007
0.19778444499116973
0.17328006694311102
0.15047815934147504
0.1276386892128468
0.10611594837734062
0.08725899469287013
0.06846279555295413
0.05003402589407505
0.03814471676583827
0.03641038844766667
0.0459517701610716
0.06648687555506674
0.0909376067219869
0.11234758426487831
0.13305917589191252
0.14908812585335174
0.1560687248508523
0.16594098977282784
0.16469011927148788
0.15332850749514043
0.14585002754626156
0.13695964270471161
0.10997211776397704
0.12743504521168583
0.11449853859499984
0.11230420277634202
0.13287083568706687
0.10147009041199317
0.14127465065180814
0.19301438957836653
0.19967395518588732
0.8149740322536694
0.8701751054470054
0.8718059783260116
0.872450133917227
0.4154028023604652
0.23183906636603668
0.19703942804099064
0.22143884836427166
0.23031932882007736
0.25634245919923637
0.2544061717025581
0.21841939382911496
0.18436684089483735
0.14229410799698186
0.11703237029818338
0.11877908117482994
0.12258195221497245
0.12762255967440808
0.1326830046673331
0.1330402207688003
0.13173381452793645
0.09742212105876723
0.063110427589598
0.028798734120428784
-0.005512959348740437
0.03282530942955473
0.05947033917368323
0.07829416694759775
0.11146139733392277
0.1522581010331743
0.18933562686846112
0.2070076768194852
0.21288035483988393
0.20862325201800336
0.18026564089199015
0.15772298607041924
0.13421485428746052
0.11055651395383705
0.09033462821119069
0.06994939852413924
0.050338074398750675
0.03812018840862015
0.03642753925699353
0.04676131166122359
0.06852079044159999
0.09385802223662135
0.11543040913623015
0.1371398380857147
0.15451570675994744
0.16244505199950907
0.17032510936395104
0.16725184867825083
0.1545086069615058
0.1496722469788407
0.14718352914572144
0.12810850308935934
0.11420757599044273
0.09980020519603387
0.07948410647013951
0.11061771633284401
0.11803892408847337
0.21810328422672917
0.2530392337787546
0.27606020834163103
0.9385221552730227
0.944927776508416
0.9500037188830496
0.9485190570553605
0.3900697582171646
0.26952932551529835
0.22491229722632378
0.23391744663086433
0.23255773349768763
0.2570789954059841
0.2503218490030776
0.20557007289068013
0.17278206443494837
0.13282879155824978
0.11232459724765319
0.12335723441848451
0.13139715981316138
0.1370209420668495
0.14144207391703606
0.13963888954978543
0.13619508434260386
0.09981332350187345
0.06343156266114305
0.027049801820412653
-0.009331959020317748
0.03387920890776697
0.06684962514190923
0.0964192100396082
0.12428381419290656
0.16194446511832972
0.18048284871818102
0.19022604256151504
0.19629267288815383
0.18339265268129856
0.16396445543886978
0.14098434099367926
0.1191880958710269
0.10055767667487783
0.0834899355656321
0.06671259515510208
0.04974506575604484
0.038231854355380006
0.036421319328973856
0.04498144080879467
0.06400849839018441
0.08738548581751301
0.1086597098653767
0.12814985893964637
0.14242181383201238
0.1480732215653224
0.1609975391295224
0.1619268095237539
0.15467706696796332
0.14415917102876097
0.12686670379222983
0.11132379285065591
0.1599072645199424
0.1514887328535696
0.2017827236616932
0.2569945288867993
0.2352863587469233
0.26279229792800707
0.2670015544086057
0.23980631051631504
0.6105258134592146
0.7648482159140862
0.7612816631992005
0.7508893613996693
0.45943320032474844
0.19329932848939424
0.17063557313109182
0.20611041125748808
0.2286655132310923
0.2582646005575572
0.2628033131690479
0.23735750016550305
0.2020073248730638
0.15606027735771194
0.12435723591570925
0.11443549359980097
0.1123888558355012
0.11652760722599162
0.12239784638456047
0.12538894880646898
0.12662449785340804
0.09468164771868036
0.06273879758395268
0.030795947449224995
-0.0011469026855026876
0.08023408381533824
0.12200914222629912
0.13911005687837205
0.14483854568205676
0.17673981328388316
0.1732067371097961
0.1730346204676682
0.17737109433506648
0.15511205356861596
0.1454264573710384
0.1226044779858301
0.1033405582931379
0.09057112321208871
0.07693780245973596
0.0638543550988923
0.04944806063227992
0.03851881913888411
0.03651356934991694
0.043333495586897315
0.05969957961240412
0.08122812397839133
0.10245713284504085
0.11985459808577319
0.1308472228493062
0.13372110783730895
0.15351798164835176
0.15808655905249694
0.1648014235663429
0.15000597541343147
0.11857595091414957
0.1345046067400215
0.20288890678526286
0.19583237393307013
0.3142003340799825
0.48602458238134094
0.5685966499951923
0.640245091107292
0.5837479024409342
0.5723621250611743
0.5359113423811683
0.764764062852284
0.76270013831419
0.6643451387922062
0.5762308134667792
0.16523930610125326
0.16232143868971932
0.18255784924221236
0.22933261213796793
0.26953955871724433
0.28606152707320404
0.27715790446372024
0.2401199791723823
0.18458704212510826
0.14038380559525307
0.11000636427100924
0.09651239097833096
0.09817425196174953
0.10546074935605687
0.11301897400063542
0.11850868773218234
0.09032034480345948
0.06213200187473661
0.03394365894601374
0.0057553160172908735
0.0551471668758268
0.07929513740981135
0.08118198519968893
0.10808953807996499
0.1482196312166873
0.1945072915837374
0.2160676099308611
0.2215911772636272
0.22213996949821044
0.18895060823564283
0.16689617638241597
0.14270661439262614
0.11644331754940232
0.09450341139032903
0.07204995874381093
0.05085437137239078
0.03816034143144307
0.036492886449362896
0.047890292286016066
0.07130642901279954
0.09786495030869234
0.1197249945537164
0.1427849540213093
0.1618539603972816
0.17088054724345586
0.176744896903161
0.17113727868655687
0.15858154468801938
0.157407190445447
0.1625577087813069
0.16312267558521795
0.15186518108315825
0.1629353645088098
0.22144734879224326
0.22372428537217925
0.23799519112121664
0.4094625645625032
0.37291299720943155
0.4339828681522968
0.9906979709410451
0.9874323883910824
0.9888519972902785
0.9883221731109044
0.3657391843672356
0.3234784425176297
0.26624590291654565
0.24997793891833053
0.23654736023627093
0.2605170853949176
0.2480993793415951
0.19221360750172847
0.16147491740378478
0.12336264628131749
0.10852684688519823
0.1311043917502922
0.1439915286754742
0.15032813736737247
0.1539324823966748
0.14917914452272057
0.14273315173228587
0.10331615773866015
0.06389916374503443
0.02448216975140871
-0.01493482424221701
0.04954060473250206
0.08533403144233752
0.11046341364130469
0.13060053001097321
0.16645551850073528