# vtk DataFile Version 3.0
vtk output
ASCII
DATASET POLYDATA
POINTS 5568 float
7.974526632765235 0.5057142546913966 -19.290910754443665
7.9707907485343155 0.5787477661249908 -18.633130577951547
7.938253847008387 0.642211075088024 -17.97313269626295
7.876919114978956 0.6950199878621572 -17.320463489885256
7.778848740763376 0.7430576660445676 -16.648355330205685
7.604004731928487 0.7930577549518804 -15.991489204850943
7.35622165075842 0.8514325691982805 -15.396686622431393
7.046241942181995 0.9145494151612608 -14.850486687417314
6.66348764915245 0.9832971176223628 -14.334204506402285
6.206480126145971 1.0594578656416704 -13.859104474360972
5.686749282701763 1.1432486867836205 -13.41434479333323
5.110871804155971 1.2342622791583806 -12.998807887167775
4.4904274915293145 1.3312609420616766 -12.612868732957805
3.8340333052328437 1.4306591535267372 -12.250684927323773
3.147899245573761 1.530736536097286 -11.907388098973607
2.4412630444556154 1.6271338175454992 -11.57824358596195
1.7225944409096026 1.7156153171196415 -11.253442608333444
1.004014195590308 1.793029048827914 -10.920620825732296
0.2983235482328289 1.8545241791353198 -10.570175531309637
-0.3802848749408856 1.8947478825495738 -10.193016244362266
-1.016298510377053 1.9069368909624265 -9.782717582641894
-1.6047703594840264 1.8890913085964076 -9.33581175973596
-2.1400402867506245 1.8412284391495304 -8.850437351941302
-2.614151174706234 1.7653086172659784 -8.323714203005272
-3.02467159298805 1.6598740144831272 -7.7565048111334916
-3.3687981070349844 1.5311030923914182 -7.158468879795148
-3.6448917433133836 1.3813377950120902 -6.53052304557509
-3.8509764833860114 1.2120996830210367 -5.888680805700316
-3.9993602733826803 1.0274781462266414 -5.234383054533867
-4.084079262626533 0.7884291041822535 -4.557740265755633
-4.109894049992194 0.5465784214739194 -3.843869471770385
-4.101600900675345 0.3473633334387324 -3.136094642885997
-4.053231672672142 0.16394469386507743 -2.417414832316409
-3.9720714366629757 0.07992245186116109 -1.7217314438986746
-3.910144742634239 0.0027931871953823656 -1.0226633937295952
-3.833367530613234 0.10994781493620082 -0.34313106061807475
-3.729879235328582 0.2634425044373572 0.405693179012376
-3.6852862342178154 0.2083770917654029 1.1493878981296275
-3.725136155607984 0.18399661785132207 1.9134330149618695
-3.738274992694519 0.13812024389534824 2.5540264225980347
-3.807148364234658 0.02311015681877282 3.0661440480041176
-3.8417747696904945 -0.06295108569727273 3.471833387983482
-3.8179906999967055 -0.2458802043067104 3.7006585669379186
-3.765279272872098 -0.5057388680007324 3.9117137682560013
-3.6798294183931417 -0.9293427497731244 4.117204354013322
-3.41489832707849 -1.5931579195396903 4.202594569384347
-3.1401168347425736 -2.1317648997140886 4.358298312415393
-2.7392739744587042 -2.7071319378969996 4.454173429191487
-2.269153342226357 -3.2078298552450404 4.580641149319403
-1.7262072837766214 -3.62240227096238 4.753014366107245
-1.1251962159805173 -3.9295299025659167 4.982303317661887
-0.48807688345609646 -4.13146369301937 5.266794732106677
0.10607306287641816 -4.225594165430064 5.615411557715406
0.7713816212366825 -4.207887371991428 5.971039785132575
1.4642040891171137 -4.134136508653621 6.333538948175395
2.1758149345058424 -3.9983851483011756 6.685518074524522
2.902252837577647 -3.7981294026806895 7.0123851116694516
3.661977905473503 -3.5270603577493698 7.309750701200291
4.449257296600908 -3.1771472842566073 7.562151225285965
5.2583614003741115 -2.747010245068858 7.755819305201679
6.023769551912024 -2.2704911138565476 7.875093612449861
6.7359079189721305 -1.7599502483730838 7.922483442838348
7.37571773350776 -1.246580511659244 7.913295807701875
7.944149341972973 -0.7456443017957171 7.861498286626296
8.77691976149929 0.5609859002101196 -18.921874339706605
8.713209083121317 0.7037197158503208 -18.22153144856173
8.598399682397142 0.8384419867345497 -17.515378403526967
8.43544020141819 0.9600842529227529 -16.818426532305665
8.2173951483357 1.0755038776055985 -16.098315880745844
7.89431405869904 1.1916107242070924 -15.39181404398875
7.4774356440209155 1.3119666991894847 -14.770859174945457
6.987363693567041 1.4307271491879872 -14.2205942431569
6.413758486730965 1.55016793484931 -13.714003183213414
5.747534408590881 1.6772018284355834 -13.252580618711006
5.015715228898244 1.809834858593539 -12.830515131558132
4.232984891690741 1.9434109882551789 -12.447371781530904
3.4186201029367744 2.074365293665383 -12.10222329763635
2.5912489619301193 2.196282064286377 -11.787791990444607
1.7623106164015776 2.3062330976579606 -11.495467239345366
0.9459826680299037 2.3977775874821936 -11.215661573311737
0.15396535739558137 2.466825700032846 -10.932363205140536
-0.6040718025513557 2.5123417130085977 -10.625373863458236
-1.3224711078966482 2.5324820544942774 -10.280885635049266
-1.9933777715817134 2.5247413110290915 -9.887297906211256
-2.607044118436195 2.483335148703962 -9.43762956049975
-3.1638579223471965 2.4069656685474534 -8.929332152950657
-3.659523672334289 2.296165489075867 -8.361750653405968
-4.084907510454867 2.152432253110395 -7.733369424048362
-4.43608445093763 1.97240306642812 -7.048385887655083
-4.70751192093085 1.7643498481660898 -6.325254979055842
-4.897921214239613 1.531635968882311 -5.5690924666967305
-5.006460057559847 1.2776448741487596 -4.806490053607037
-5.0495515506335025 1.011013366892935 -4.046474541212968
-5.020028394706413 0.6716854754382691 -3.2702712964497955
-4.928699786792984 0.34064706972639697 -2.470747506008342
-4.820599604492858 0.08693061705812843 -1.7136572991214931
-4.687643087584081 -0.1346226182691716 -0.9675197320017541
-4.543413174494827 -0.21287676308526082 -0.2689676370848775
-4.448108212704786 -0.27024038191532673 0.4104438193069083
-4.349803133067215 -0.07668490153328045 1.1048812035298052
-4.233442512787097 0.1892526071936173 1.889653918405556
-4.207886018244038 0.1654045638738684 2.6233217755735523
-4.2939172917620025 0.16073359000492105 3.40110700758677
-4.322715342177867 0.09913239546544811 3.9720644992628515
-4.3926314319647215 -0.045920460315252015 4.397057325722298
-4.4193402503321115 -0.2133326534859635 4.717185253788818
-4.354958929476643 -0.6402950112463089 4.880105389235592
-4.2570806217124915 -1.0342722508509354 5.070327631952929
-4.124310271854981 -1.5351622828340403 5.271823470372662
-3.759085512735298 -2.260512945160731 5.318366974425178
-3.4066526542337545 -2.8017709975344527 5.467670815056948
-2.9155461420792337 -3.363688250440091 5.5495222655714205
-2.359212777972568 -3.8260455938830553 5.673650583835274
-1.7323058186082212 -4.187196598896742 5.853795315109832
-1.0522207616674013 -4.429345264284732 6.098278574838359
-0.3487396977452767 -4.559355762915611 6.398576885433753
0.28711923007895124 -4.585068078581476 6.767044057710565
0.9966012366891764 -4.49178085378576 7.125888074695969
1.7254395806666007 -4.350043035751772 7.47982941937484
2.4646393245774134 -4.1530349253551115 7.813401264010084
3.208277225144643 -3.8993875611004283 8.114432471805891
3.982088210056915 -3.5815019015024805 8.383074339297242
4.782481838141397 -3.186093279024131 8.610052609465741
5.605045774964989 -2.708806763039179 8.78707519414691
6.376866566653339 -2.1855683077442123 8.899343880131843
7.086620308147621 -1.632308467743798 8.946816445519815
7.712790823769583 -1.0870008577071382 8.944800108966211
8.262430986232474 -0.5660801659180671 8.908006029686499
6.810928342524571 0.42556153413427633 -19.826072542159963
6.8880675326842224 0.4063279456079059 -19.20925801213505
6.9650686816737695 0.3761494592350276 -18.588288471061077
7.038010544430241 0.3385227693950735 -17.965581832339765
7.095233955838399 0.29898897451787526 -17.323875333266265
7.102963872604356 0.2659444123407575 -16.693377700263017
7.056020437164035 0.24822917117178636 -16.087223891202793
6.953012915165214 0.24460196238635565 -15.499544588516613
6.782318430963769 0.25440220432652666 -14.929840147842379
6.54954582493274 0.27381436960601174 -14.407967549632083
6.256764501830258 0.30360646845612727 -13.91475289194262
5.905140682211303 0.3474919437376499 -13.445967724789682
5.499228569127529 0.40660980295596383 -13.000882520729599
5.037154843560673 0.4807037953730049 -12.572258792503987
4.51828291632995 0.5701994262129371 -12.15827595127785
3.9443633467662123 0.6744226926838628 -11.759530204754611
3.3174869775749936 0.7903775484470721 -11.374520254376241
2.649510651231419 0.9133030921415606 -11.002952047840587
1.9584427666146307 1.0347932788477534 -10.64206650049617
1.263359613543363 1.1453684255848258 -10.28599171677998
0.5850887070911586 1.2360148380122087 -9.926984410255493
-0.06390868011957052 1.3021392027659178 -9.557351401644826
-0.6742597057912445 1.3415227132631655 -9.170843152529752
-1.2367704151959016 1.3555774760648334 -8.760450408133298
-1.7476135820405427 1.3446064370267958 -8.321981369652613
-2.2058139534796037 1.3128430466073835 -7.855547152753577
-2.6069214090222634 1.2617694893682887 -7.358924975690652
-2.9481119031213816 1.1917727128483973 -6.837610618251944
-3.2386165453039957 1.1031403104692492 -6.286657140502344
-3.470792044125348 0.9797079861465681 -5.705435930487319
-3.646486605950767 0.8425310200213929 -5.074708685566859
-3.7715895428640516 0.7104758952578986 -4.412304086206493
-3.838690307285111 0.575714016688285 -3.7163144037214835
-3.8472254966530786 0.4822364586426106 -3.0152354804639434
-3.8351758729938896 0.3750108059427478 -2.2831710685919733
-3.786649964687979 0.3639036035357809 -1.6080000845586493
-3.6979119334866586 0.3695310123367306 -0.8887156113240939
-3.624857221888944 0.26785976925766797 -0.12733261456571543
-3.599330076297747 0.21528646795589962 0.6225478168887824
-3.586407300983338 0.1958360730674546 1.3735784257982893
-3.6531003372759 0.13426272144616958 2.036419335139793
-3.705231887402279 0.1936437314649177 2.633731739352178
-3.7259590846591712 0.2522702607441624 3.1088517202754575
-3.720694673601165 0.12397871943075323 3.3630242016108083
-3.6928731580207774 -0.20542944562213394 3.5733240792220093
[...]
CELL_DATA 87
SCALARS quad_param_group int 1
LOOKUP_TABLE default
3
3
3
2
2
2
3
3
2
3
1
1
3
0
2
0
1
3
3
3
1
0
2
0
1
2
2
0
3
2
3
1
0
1
2
2
2
1
1
0
0
1
3
0
3
0
0
2
3
3
1
3
2
2
3
0
0
0
2
1
1
0
0
0
3
0
1
1
2
2
2
3
0
0
1
3
3
3
1
0
0
0
0
1
2
1
3
SCALARS single_component_feature float 1
LOOKUP_TABLE default
0.15603592845000347
0.25408758263097553
0.013845357426229436
0.05233732476040852
-0.2786370425565915
-0.32391486634613187
0.2535565645407814
-0.022903322078876454
-0.28157127280219163
-0.1835357828373447
-0.2151392506312917
-0.2759563892705097
-0.3377214337876498
-0.026602473319621067
-0.20494042002836552
-0.33153628170641447
-0.27183083360672516
-0.03125500420723645
-0.34328704876526783
0.1909495326307927
0.29952542435630325
-0.13480226980591517
0.021089533607245935
0.32028790735856794
0.22839335494894183
-0.2734066083228456
-0.21237864681365576
0.38627002806021593
0.32906260297387124
-0.0783120073685842
0.05319202741975328
0.08059277250498004
-0.00038470832318054926
0.20578896328474172
-0.005850942918087828
-0.2696976827561973
-0.3596903091230244
-0.10751915736744001
-0.14018752423485376
0.48101795395454516
0.5774378436590444
0.09680456023323258
0.14584287105023067
0.34685087366473555
0.2633850451106087
-0.002086191316708827
0.11085287341669897
-0.05504572221831407
0.016977558738573734
0.0820374997136123
-0.11161565981183037
-0.16104985860721474
-0.25138164652794237
0.12833068145731283
0.1937867908423067
0.20874345610801173
0.4001628955055458
0.31785368994063945
0.36516178834021434
0.4549700485673123
-0.44410360110162383
-0.49662393007423883
-0.32896369220743127
-0.333616225546394
-0.11651625211065164
-0.04459359115999134
0.1695264507778047
0.28343751518128835
0.0784949988296608
-0.05180654305480105
0.05063367345855151
0.12987854387600917
-0.3489212121059062
-0.25079596655577746
-0.14663227797941972
-0.05487972210956968
0.1519811768485211
0.014890118634780777
-0.09052470223831606
-0.04066057851875401
-0.10154945865518863
0.06460211259410074
-0.21788745897571057
0.34605625721108635
0.2193011267039459
-0.12348918788063531
-0.060228551637763986
POINT_DATA 5568
SCALARS single_curvature float 1
LOOKUP_TABLE default
0.053538943565740356
0.09534478861144566
0.13251575432941246
0.1629946698315593
0.18941898166769439
0.1938729459144104
0.17340071940318055
0.15247307289320775
0.129680791087529
0.10009433807855844
0.07922268625433822
0.06063652185851247
0.04324214643114164
0.03190106430252801
0.029906358974949965
0.038296420481094835
0.0585577515787363
0.08303400659730044
0.10616225404629996
0.12722215913918333
0.14201007646890026
0.1508632799539571
0.15586838636556255
0.15542293248525693
0.1467027838268864
0.14640766848542794
0.1342876104835891
0.12041423354663756
0.10879158497900009
0.12152048315277598
0.10537408941604774
0.17657849478353813
0.1719175956727173
0.215684494028597
0.2418395203879223
0.17165997903479496
0.2580456727077487
0.20131298363039304
0.6267849840628239
0.6940556384376695
0.6826325144342791
0.7063858219466118
0.3660927217458888
0.28744401504908235
0.2603696122006848
0.239466144135037
0.23147168517078598
0.23404947263990772
0.24661702782520484
0.23637386755803988
0.19465986344109223
0.16179253127649165
0.1200796409264953
0.09504787947673755
0.09961392408846304
0.10204293217210555
0.10555315060685387
0.11072672776163071
0.11197706385848137
0.11182638318350875
0.08326905088420027
0.05471171858489178
0.026154386285583295
-0.0024029460137251907
0.06833220939696778
0.10903183331050578
0.13947378335988755
0.1605544461608435
0.17631813821955497
0.16890550463495518
0.13772908230589906
0.1109948303022002
0.08935434821841215
0.06692860503505747
0.05180229321050541
0.039440922856448776
0.03286734901206569
0.037400085238503876
0.05200820958606012
0.07559594396636234
0.10419288953519908
0.1271911764298055
0.1439429118618007
0.1546391137054798
0.1563330794869498
0.15350382671252794
0.1478311418615988
0.13952557821638112
0.12652729253876507
0.1231884994762309
0.11019600199733773
0.10306184266496465
0.09327538502778217
0.12802156581241697
0.13360285513644263
0.21813571511665342
0.21662735059460572
0.2855709647180135
0.3019639735162327
0.26251589996884855
0.3990697166261487
0.40492918866966193
0.5892050036653663
0.5872504440883072
0.48577066537505953
0.4291486064525267
0.2550514489537739
0.24271978625532564
0.2740778100517206
0.2587216334083452
0.22889404750817502
0.2276332882498743
0.2330355035842038
0.2200387738752581
0.17792826569017592
0.14764733608744635
0.10695205394490051
0.08259302201975449
0.08865523535161335
0.09041549341264388
0.09334552311069812
0.09878521982666325
0.10060110217312172
0.10049534881214381
0.07485748764730285
0.04921962648246189
0.023581765317620934
-0.002056095847220024
0.022646712486046893
0.05376367357489829
0.08613852069189683
0.1225411619361358
0.16166880021219712
0.18843513524286493
0.1993890476086481
0.20271318097242497
0.19211493647658842
0.16618781488857673
0.14276362662147032
0.11998215675257888
0.09885935135152511
0.08028476340053715
0.06184527242944675
0.04448208937582103
0.03533635436747083
0.03665296684775769
0.04902385914122914
0.07150545046549008
0.09591952359357517
0.11673935867453498
0.13634547804523786
0.1508852137217823
0.1561519857495497
0.16523674777302214
0.16275463195816833
0.15045037196568856
0.14194553542721844
0.13303898866674777
0.10548703132535564
0.13168903498377307
0.1199712318501429
0.12718918191004294
0.14650386676738608
0.10643084881406263
0.14400909614657106
0.18718143348498564
0.1897321133451423
0.7625555169740019
0.8284675161492924
0.8296758327771657
0.8329606856433729
0.40215152903906254
0.23068047842538963
0.19827863745578164
0.22169935462595694
0.23112617574568137
0.256187075487362
0.2538697589121814
0.2179899618396614
0.1837452890296314
0.1413808688350861
0.11558919834240561
0.1166436742007653
0.11984905166589264
0.12465350618662444
0.12976767265278868
0.1304176996143538
0.12947619084178064
0.09592171307506109
0.06236723530834154
0.02881275754162199
-0.0047417202250975565
0.029794189705537398
0.06512633915357478
0.10133498592289363
0.13754872435108953
0.17430089791431233
0.19570826473467934
0.19765897659275009
0.19327539166438462
0.17749083012601644
0.14786710370995368
0.12377698455829848
0.10148141595795133
0.08096419356422739
0.06265850915044906
0.04498408971779054
0.032777022617339585
0.03184370762263216
0.04176349261510839
0.06173563466453904
0.08702940045847586
0.11039480482277746
0.12897910897839893
0.14530280030078416
0.15587168825792785
0.1567559574637684
0.16294279294785394
0.1568419419140149
0.14214936072817275
0.13202063339051254
0.1267194025857399
0.09701018394150127
0.13780225987386024
0.1280129645455324
0.14590377215411196
0.17200294638521763
0.11285283672676809
0.16072942894941875
0.18489513679525463
0.246552848909761
0.6846291519952182
0.7424106127112249
0.7458671539988819
0.7251215759403102
0.36199036289612885
0.23911619358954628
0.21013716266431554
0.22580484400184583
0.23331094309451644
0.2549386984657011
0.2500879081431988
0.212009237594336
0.17779353351539115
0.13550736966864468
0.10987599630995278
0.11198542352160806
0.11498107588843835
0.11937114987826494
0.12445420081701068
0.12524353278391245
0.12460299066486824
0.09248099336212973
0.06035899605939121
0.028236998756652698
-0.003884998546085816
0.04227993060500782
0.049441296574613075
0.04254458300898653
0.04915047139139057
0.06965486321673586
0.08863597225927455
0.11108788675054258
0.1377054963597228
0.16403866545865192
0.19544302465908167
0.21569456214382887
0.22566198215228586
0.22609911628698487
0.2170944027212055
0.1990059353697857
0.17381054103956284
0.1433658980553613
0.10904101573699544
0.07785546323149382
0.05220791660632601
0.038979273336070215
0.03992140877732486
0.053098568538645044
0.07535740900094012
0.09942472626460849
0.11920371140981731
0.1415442837924609
0.168393776042461
0.18588036023307222
0.20627222825102265
0.20397583675058858
0.20881095803542232
0.1880318521833522
0.17664715953403057
0.1731910503412087
0.1561037300689163
0.15631316758533276
0.1598667922724563
0.13386256062772262
0.6999845209715013
0.9651311592515236
0.9683335145486405
0.9705911390892086
0.8787351743192364
0.22036431723441485
0.1669753862604843
0.17221709190876264
0.19229747514965612
0.23458007416683443
0.25287344892856195
0.2431993613218621
0.21814359767098998
0.17884343654218268
0.15467372019258616
0.14824386519896887
0.1543880177136472
0.16448169234413995
0.17139649381949595
0.17164092288631844
0.16660932435218387
0.12086427302235554
0.07511922169252722
0.029374170362698876
-0.016370880967129436
0.043508798086469576
0.0504801137243028
0.04202859633397856
0.046439705774124096
0.06290652970881318
0.07739736135693928
0.09609350342270696
0.12025960936105624
0.14689987369493596
0.18254461903917832
0.20951469652704283
0.22762024603109657
0.23584977853540934
0.23240209364262263
0.21683814933374704
0.1913123374189422
0.15846717775619146
0.12066971279920902
0.0860956536217604
0.05660597715870936
0.03905758904165931
0.036268608638517975
0.045830521090973186
0.06578753482896292
0.08934368083929291
0.10843714281943384
0.1314217731859952
0.16281262631766044
0.18443144262846922
0.2123067110357327
0.21572656429670986
0.22608562337557989
0.2047043562753811
0.20002171501569077
0.1969499611626475
0.17398992863799273
0.17186900038293906
0.1580829721490199
0.12520964067013307
0.6187377367611511
0.9693333144534207
0.9724134088337303
0.97486351603586
0.9188745417392143
0.22266774949041157
0.1681685298174863
0.16384659416532923
0.1844611729496939
0.22748090559569653
0.24816699330284142
0.24288675714825356
0.22043840547778312
0.18236724739330495
0.1590746937384098
0.15192559646289885
0.15888213223120037
0.17018527002440578
0.1776627790964947
0.17797547946996167
0.17210380693117686
0.12436156907083694
0.07661933121049702
0.028877093350157118
-0.018865144510182813
0.06828070030879849
0.1090010340745235
0.13949195991001062
0.16062678193659644
0.17644254491618414
0.16907536209860674
0.1379260829486206
0.11119932070584755
0.08954059179575644
0.06707094826804998
0.05191152007510975
0.03950760510973309
0.03286873829341407
0.03732481166176356
0.051853699933483974
0.07537813317947088
0.10394997526686589
0.12696468083687454
0.14376231331269954
0.15452684071048628
0.15629882791535493
0.15353289028657116
0.14791138832520123
0.1396377532602616
0.12665007530846642
0.12331980854911312
0.1103229200343731
0.10314814353050983
0.09334542950585456
0.12797008756482323
0.1334357389462384
0.21793267178790154
0.21641375287847903
0.2852115123658881
0.30166084801686277
0.26196413748849934
0.39822500791903287
0.4036623860543108
0.5894604541403138
0.5873880310930009
0.4864327565183084
0.4305092954821749
0.25477409365229586
0.24291417067543813
0.27402549939894916
0.2586449471898422
0.2289283165049755
0.22768550582059463
0.23312109264309275
0.2201329993004802
0.17801730495867496
0.14771984109060052
0.10701771249258366
0.08265488459350816
0.08871172073766836
0.09047615723348093
0.09340879086389506
0.0988466859646316
0.1006591044926279
0.10055411282041875
0.07490172330446344
0.04924933378850814
0.023596944272552836
-0.002055445243402468
0.020018607965662724
0.046633300030641624
0.0728133920784039
0.10728733076876368
0.14762102141646471
0.17812352050806643
0.1966516046623421
0.2071734036494701
0.20248990508771036
0.1821530385117686
0.16077722735559244
0.13836747251972084
0.11699948809980494
0.0980965671274423
0.07919211423817349
0.05995652989036349
0.04421406563499212
0.03755387017637987
0.042158903834290364
0.05839135343801892
0.0818782881866363
0.1039183311867822
0.125907504651512
0.14382110852490956
0.15329503808635941
0.1651131063865916
0.16655761102418723
0.1578141295306002
0.1514166054940463
0.14118909177082098
0.11571225770437164
0.12784655363666983
0.1144044781573416
0.11048040107769976
0.12390892395463213
0.10066749535692761
0.1301592156245039
0.1854040457846822
0.1985370664586798
0.8354798519881474
0.8970573166638516
0.8981505126883385
0.8970309355457207
0.44924918114220735
0.22320294118454287
0.18744054210058217
0.21694114868137065
0.22818013858577182
0.25641117531470103
0.25669805691870523
0.22331202211907974
0.1893096784425846
0.14694846409274917
0.12105453846385754
0.12106594415548984
0.12448758459349539
0.12973951772247372
0.13492163041027944
0.13545476286353755
0.13416732669348105
0.09919680031922774
0.06422627394497443
0.029255747570721122
-0.005714778803532189
0.042400322542448306
0.049536829082368346
0.04251357974985956
0.048956223945643515
0.06917585649660069
0.08785193786503802
0.11005992220251269
0.13653889171276234
0.16293456655074373
0.1946787090483331
0.21540678471905123
0.22591294598908998
0.2268391538824491
0.2181623468080724
0.20020959237532776
0.17497973886448456
0.14438184699881876
0.10983917390498148
0.07843164620814637
0.05250527739793609
0.038966175650259956
0.039641403151436314
0.052570364901358684
0.0746945236888951
0.09874880363729563
0.11849563673201277
0.1409053323775514
0.16808064203680972
0.18584805055782425
0.20673206483673887
0.20479896229981734
0.2100162194308381
0.18919333183503714
0.178245487027238
0.1747977372341986
0.1572912447193663
0.15733128828539117
0.1597280524939746
0.133260359380685
0.6948675233832647
0.9653820844419707
0.9685833629424803
0.9708614129111741
0.8818397796513554
0.2205394936480346
0.16705806422222705
0.17167068705845762
0.19179570408622995
0.23414074608122362
0.25260000799020627
0.24321532911269603
0.21832259776930513
0.17909552023010714
0.15497717577041467
0.14849548581008826
0.1546888128509186
0.1648575649736956
0.1718064229193269
0.17205401064786696
0.16696903700105153
0.12109480777184205
0.07522057854263256
0.02934634931342306
-0.016527879915786414
0.03488841519110544
0.04498713262327945
0.04481466973116063
0.05870952155610576
0.08992156423062429
0.11840338271254768
0.1474004023630232
0.17566106559031885
0.19601092288588304
0.21154327769702702
0.2143178747472703
0.20734954421621896
0.1942193131727001
0.17743046246007707
0.1569720717735915
0.13362574633307536
0.10780447006875456
0.08013323628803878
0.0572899388293044
0.043461725914608215
0.04267057634468932
0.053959296427707415
0.07507922432611626
0.09978798957557002
0.12227584695159188
0.14180252144908378
0.15954297595899744
0.17382514884863962
0.18166514844970802
0.1863083120709331
0.1732029001741724
0.16533912738211046
0.1463887655317835
0.12032032747428924
0.11842969457960373
0.11594388399977472
0.12323711168969562
0.1665612867913375
0.15722938836642622
0.8354318826615578
0.9592896016571165
0.9619505170551131
0.962950040018412
0.7384477890212843
0.21399496927135264
0.16515228302726806
0.1899761121455842
0.20784209093921394
0.24688830927218564
0.2590914248958957
0.2399296310007662
0.21019582699410416
0.16902551639546626
0.1436072672785963
0.1392065266913357
0.1440062125066212
0.15191485688783554
0.15790617969455037
0.15813609551253377
0.15473053915927978
0.11313010947829596
0.07152967979731215
0.029929250116328326
-0.011671179564655493
0.03810192002287471
0.046653943096116465
0.043605785785610425
0.05460648357563994
0.08201027263115823
0.10758616650624764
0.13488310500233805
0.16335487265808393
0.18659587383820775
0.2083972268993831
0.2172724061241161
0.2156638503427965
0.20644641005759629
0.19160818969986956
0.17152200650406488
0.14743374987316382
0.1201626735029992
0.09032900227754286
0.06431379815934905
0.0459362346358181
0.04050589467852116
0.048042429158382347
0.06672496002923585
0.09109267248438994
0.1145822169864331
0.13450794284909912
0.1543014909077718
0.17313688545715827
0.18424835895402755
0.19398649734933401
0.18422520121245048
0.18038734607077536
0.16073414903050068
0.13968285041340422
0.13680955305341225
0.12957122896940826
0.1341413604452842
0.1638226833380105
0.14856567138026697
0.7986750047666614
0.9608594086645901
0.9638110062840697
0.965340983125612
0.7931243468350728
0.2160694654812555
0.16538847489740738
0.18409411356971042
0.20286019001714728
0.24325159560705284
0.2576187935122068
0.2416062001660749
0.21328118896939233
0.17262585822996537
0.14753347919350596
0.14238869961101172
0.14758321161957538
0.15616478634370548
0.1624244244475654
0.16264100683929994
0.15871980971204472
0.11575350906111063
0.07278720841017655
0.029820907759242482
-0.013145392891691615
0.042164648810915806
0.0493508704688281
0.04257322542784222
0.04933102583503309
0.0700983705319346
0.0893592102474362
0.11203344889064491
0.13877458857136035
0.16504497725656292
0.19613084775583503
0.21594245599929024
0.22541699454514275
0.22540986239593122
0.21610979633840857
0.19790075429362367
0.17273831078079876
0.14243328302388975
0.10830648354573497
0.07732431553797736
0.05193554268106039
0.03899432531007623
0.040183355161389954
0.05358858903462488
0.07596816678847423
0.10004467630381286
0.11985134145891636
0.1421252222367554
0.168673351069461
0.185902003574588
0.20584371240255403
0.20321654013770957
0.2077000588784185
0.1869615496903299
0.17517726220274726
0.17171581535311728
0.15501555013663246
0.15538207185062658
0.1599966147596081
0.13441814621545872
0.7046301378377942
0.9649055894594412
0.9681079797531915
0.9703459052976224
0.8758341671599592
0.22020158375305776
0.16689967864043614
0.1727166406780721
0.19275501336636186
0.23497871667392314
0.2531192679814909
0.24318034011744383
0.2179764450539147
0.1786103212406511
0.1543943442435191
0.14801245865369222
0.15411210337567344
0.16413759048367577
0.17102157120512596
0.17126326415836648
0.16628028538339773
0.12065320513068477
0.0750261248779718
0.02939904462525883
-0.016228035627454118
0.0436400817652477
0.050602826487981326
0.041826184851065706
0.045692004528444796
0.06107623508145568
0.07432026813160486
0.09190513905421545
0.11523002941935874
0.14171836614391076
0.1782482031540326
0.2069776339698463
0.22745179713996905
0.23812411659683574
0.2365604773759295
0.2219449281405273
0.19640983122794467
0.16282462884622395
0.12392292937254179
0.08831833095514542
0.05782382234676865
0.039150847541294796
0.03538581400703823
0.04395179372090875
0.06314684607542816
0.08643303550512091
0.10524952117674559
0.12826628036452134
0.16083080004344624
0.1836128815274989
0.21370503673688185
0.21889952270171964
0.23076561229222936
0.20923082299577475
0.20658650444834167
0.20372342293730805
0.17925035412881188
0.1765332002842815
0.15767414368495394
0.12281899849206059
0.593664250189068
0.9706774777091748
0.9736849668926951
0.9761487975096436
0.928106025113384
0.2231789104523928
0.1684729369338879
0.16132666626113557
0.18204012194820648
0.22519304999865974
0.24653575955988874
0.24255743999640253
0.2209372899565008
0.18328306085903456
0.16029313876175486
0.15296001470201215
0.1601871784402093
0.17188062127132278
0.17954546118088244
0.17988751699487612
0.17375355210929364
0.12540149601341707
0.07704943991754051
0.028697383821663952
-0.01965467227421261
0.020024293198587704
0.04617445718890748
0.07163966298496417
0.1057536400833967
0.14614816290351762
0.1769377750989054
0.196142759715926
0.20735556674872868
0.2033027801201283
0.18363006931343123
0.16254350565190806
0.14022725915105871
0.11886166452300287
0.09992636005639435
0.08097159877299406
0.061620728674414475
0.045340407268937406
0.037908245981474464
0.041735643529891495
0.05724938792075027
0.08049056808860494
0.10259580638141276
0.12477940768823537
0.1430027447105016
0.15289081921782252
0.16497466179823778
0.16683074785142502
0.1585056249564908
0.15234959574767618
0.14210819972773647
0.11684680184243634
0.1276192126719856
0.11401181011244663
0.10891252646518368
0.1217886049177376
0.1001102566356758
0.1288701181207596
0.18507865609948815
0.19884606645804806
0.8405767263046388
0.9017980399806841
0.9029155127795997
0.9016304590915967
0.454505294265744
0.22251191775806756
0.1864101625830569
0.2164220481420056
0.22784054158560976
0.2563814995473425
0.2569381294968993
0.22382300389325993
0.18986016008691928
0.14750386728605916
0.12160293322619402
0.1215082987525359
0.12495298269526982
0.1302529455768965
0.1354440940456235
0.13596635353859018
0.13464100191108605
0.09952548739899407
0.06440997288690209
0.02929445837481011
-0.0058210561372818714
0.037141973116014054
0.04612107133325101
0.0439217184090232
0.05580042656661028
0.08442037355500993
0.11098150950031553