# vtk DataFile Version 3.0
vtk output
ASCII
DATASET POLYDATA
POINTS 5568 float
7.2259052702542075 0.7976426285934239 -20.873376342282608
7.233601903293747 0.7039239863283566 -20.269174422214906
7.194468028047912 0.5996208475748903 -19.653953645861435
7.128355750146581 0.4884120105567721 -19.002299245849205
7.019739380633138 0.38483689085469874 -18.341836150656952
6.850325479148241 0.3023658158076848 -17.718547190951227
6.639311014652048 0.24192241091715463 -17.15472080617389
6.4028003657359465 0.2123443914115536 -16.625550453792037
6.152413239653979 0.1995967756272264 -16.14996189470866
5.890844918376839 0.20711134494173083 -15.702775779121366
5.6222604426360165 0.2246503332292222 -15.29445568670588
5.347002935439747 0.2541538718716189 -14.90276894054573
5.0587871611906525 0.29127524303980695 -14.509628669785817
4.737358539703815 0.3343554481830454 -14.097743064725345
4.369559399917787 0.3813363471839902 -13.656795715644579
3.941918397662064 0.4320736073988651 -13.182658546594993
3.440486713205199 0.4874611873521756 -12.67750361363018
2.8705095232268434 0.5450774971663588 -12.154729872126586
2.251179401149893 0.6026848335095528 -11.62873031554666
1.6086803512247503 0.6557734519541655 -11.10896349662498
0.9746281307660439 0.7001613103972772 -10.600828746833557
0.37573998803096453 0.732177619131486 -10.102920338946848
-0.1703759041934756 0.7495195553755527 -9.615635934927282
-0.6515509576839826 0.7521390243677295 -9.133918183787586
-1.0616479539596049 0.7378784848315209 -8.655190310321215
-1.3971105111733872 0.7079601394511684 -8.185773101586946
-1.675892513274755 0.6673032590184456 -7.713829597227098
-1.9103718961975638 0.6209566320270192 -7.233498882930909
-2.109997026674659 0.5745538088984693 -6.73745116603307
-2.2766552946494816 0.5185042543129557 -6.212915941819427
-2.4076024088310817 0.4428462520797606 -5.667724537158369
-2.5193106332547597 0.4149462576316732 -5.07882855449357
-2.597979168707519 0.39983604641220305 -4.423835967149674
-2.6295322199829148 0.46098244431836777 -3.7020135112741572
-2.684336457067847 0.46168708713671525 -2.9022640353368767
-2.704708765436054 0.4518811148471246 -2.0629554010098023
-2.7164591781489764 0.35801806355666105 -1.2711844694115184
-2.6259092786951843 0.37906430992392454 -0.39070442663353466
-2.643390702601561 0.4499861474871214 0.5423047887091366
-2.63367182920275 0.7971217845961304 1.8771479027619382
-3.038102225755501 0.975260556281445 3.1661413739921596
-3.2863584861416006 1.3482137804805587 4.2086698632943005
-3.4806554682880355 1.3060237025229184 4.919705606848874
-3.526746208042463 0.9978678994430412 5.09679332779811
-3.51820253573424 0.6022961709070804 5.258067494433935
-3.399748672331192 0.06198962671596553 5.371746263506906
-3.186324997437182 -0.48732851012618383 5.4494885907129635
-2.8652198151837602 -1.0810687158453072 5.604335257442146
-2.439584395712454 -1.6628776395225073 5.776233266395738
-1.9282872677045404 -2.1787932988815486 5.977798953929363
-1.3426832084598543 -2.599803478376752 6.227355871435322
-0.7097326391608841 -2.8992234153215004 6.537622141845183
-0.08294686524118333 -3.0831782415411255 6.9017239139149895
0.5809368710935868 -3.173305400105664 7.300567477850591
1.260483106386761 -3.1935813298833526 7.714792688205154
1.9649049598072326 -3.151731410900695 8.129445645970506
2.7086730429768417 -3.0466633388148177 8.53212177684621
3.504059731625398 -2.8713794277862603 8.906228341933815
4.349790081440697 -2.6164763587953113 9.235381082703377
5.245625405884587 -2.2575106286243285 9.49292754100341
6.112966274685217 -1.8263312811953454 9.657496992557032
6.922511548181866 -1.3463592937262883 9.719788547479332
7.6537730300811395 -0.8555311974023501 9.686843791858207
8.296077910834743 -0.381277835885508 9.577320190686894
6.991399853971849 0.629009540931036 -20.43160490788244
7.033092417541123 0.5645725816426508 -19.825043300855896
7.050064781411494 0.4896762499345613 -19.212132815778087
7.052460531126385 0.4083192190259897 -18.578824156894022
7.025389605301905 0.33049907045859944 -17.933375716674043
6.94388295933102 0.26733527243961974 -17.313968017261946
6.815360361654758 0.22311361392224796 -16.736502637073013
6.647505257934836 0.20234489587122945 -16.18354391818634
6.440711952466968 0.19699166590445058 -15.666605893017966
6.200150703484331 0.2074644743319222 -15.1848230801116
5.9289467006169865 0.2282612222907884 -14.737124089092912
5.628520418465115 0.26222977270044207 -14.309207915372482
5.297700461211848 0.3073414341188253 -13.890746246313517
4.923840499811606 0.3626188713635198 -13.468992111154261
4.498924585070529 0.4272014283691131 -13.037829010384552
4.015658662955911 0.5010395996954263 -12.595802847327153
3.4665291125960223 0.5836316893904122 -12.143947116390617
2.859481956217654 0.6715877567271102 -11.689961791020895
2.2130405276126446 0.759821990893045 -11.240501291272817
1.5501044447596208 0.8413857223277599 -10.797915256526354
0.8974496189077423 0.909737197194316 -10.361288780690446
0.27591335031077113 0.9605445489053276 -9.9260619329336
-0.3002197334445663 0.9913862029255326 -9.489345396946762
-0.8197522972045705 1.0028428787203303 -9.045153700091081
-1.277088925747384 0.9939398546391948 -8.59018707821644
-1.6693625356158002 0.9671656168144344 -8.127909947852201
-2.0051272117552243 0.9259741319958257 -7.650751705694314
-2.290529470394007 0.8734122248783392 -7.157391608816268
-2.534680155648689 0.8127331386582536 -6.641443723656547
-2.735321890826401 0.7322677938799143 -6.095784518438369
-2.891422156687018 0.6343201810802712 -5.5162099393364175
-3.014178931074296 0.5645543650413014 -4.897881160846166
-3.092418491415306 0.4995495849917915 -4.227485450931203
-3.117455224217788 0.4912229465004174 -3.5186082393127327
-3.1441370556240495 0.44179748689021203 -2.750372420503424
-3.1333191340367192 0.4259821924006089 -1.9866239595521809
-3.0999067042026036 0.37130065493852504 -1.2308583480485402
-3.016281459693711 0.3337773166907637 -0.4060629557329518
-3.01052492185287 0.3452236820053236 0.4400167810210125
-2.997556365002929 0.5060469064086839 1.4916809520275551
-3.2272589676847465 0.5614116053423495 2.476116666007999
-3.37714553928836 0.7841195029742353 3.3116745173072295
-3.489465937167532 0.8066549354893268 3.92471511543514
-3.5122086983894234 0.5982992376472557 4.131326724573406
-3.4972142156535484 0.238126492445058 4.314475786971619
-3.373907881098295 -0.32298316768940216 4.439808195440958
-3.1832529452105893 -0.8689476791048517 4.557501891773887
-2.8833008775348485 -1.469527921920518 4.696465944949319
-2.491325814429258 -2.0480094679307053 4.851087831233154
-2.016134857574231 -2.5610024479520774 5.036467588355105
-1.4694253301397624 -2.979141719863504 5.269555453549794
-0.872507438537338 -3.2857917794127696 5.5605982027728125
-0.2838643438191145 -3.4769519593393063 5.907206482397584
0.3560929903565634 -3.5695883587823696 6.287215411008249
1.0213557759895364 -3.593646905575636 6.686314796351232
1.7137803719660583 -3.551229204314122 7.087434160179706
2.4410140544809344 -3.4398447788143445 7.475606459183654
3.2130072427309253 -3.253340952230368 7.836314239845128
4.024966812262585 -2.986423873651295 8.149130551648422
4.873269098762047 -2.6271505992861632 8.389514484838662
5.690824314510994 -2.207120159085063 8.53846745369933
6.4589137155987935 -1.7423460863332116 8.593982563870929
7.1596276748003564 -1.263110106823055 8.56668418488322
7.7830357400504715 -0.7905136500708198 8.472264539405627
6.912998469048052 0.5726310238532539 -20.283908991831435
6.966119681774642 0.5179170927947037 -19.67582741394703
7.001780672821254 0.45262391827756293 -19.062280008333307
7.026549886468387 0.3807955191613904 -18.433266934800002
7.026022844294718 0.31112413826270613 -17.790535529359023
6.972987977490382 0.2540278939790469 -17.169857444981375
6.871235236827189 0.21498628531705077 -16.585307007626255
6.725761257992732 0.1970920629402202 -16.02241756723461
6.5334571220502164 0.1942632623172639 -15.490134308158511
6.299921313394461 0.20576007126888363 -14.996094888480274
6.027863700375968 0.22769227267555653 -14.534716668749057
5.718776573607086 0.26321406656711377 -14.094329622976403
5.373035549005889 0.3111348535373975 -13.667140242067351
4.980636006115269 0.37071892458533645 -13.241827054092916
4.535354266640688 0.4414953857348267 -12.81352826699384
4.032061798582086 0.5233800375059924 -12.381525602273365
3.465518325733072 0.6153175617820785 -11.946418444428469
2.8446050079117584 0.7135623532801055 -11.514066546091371
2.187693923105284 0.8120840220100541 -11.088708324383397
1.5166606953737998 0.9031529111541637 -10.670485501260307
0.8567270906515037 0.9794854738765862 -10.256517636951811
0.22671514495119516 1.0365657537682356 -9.841227802943251
-0.36025506905295457 1.0719386894471499 -9.42065605673068
-0.8933947836333541 1.0863781340397385 -8.988437338822303
-1.3674054946465195 1.0792844246491742 -8.540936560477318
-1.7798108990649704 1.0535652682275292 -8.080566262885078
-2.1357598091626486 1.0121499722486613 -7.601156643726481
-2.439116613153085 0.9573864719516597 -7.102960985191763
-2.6989207244098985 0.8916939027799012 -6.579890173213881
-2.911448127443959 0.8027085274965255 -6.026714952076309
-3.0763314462716935 0.6969669380422219 -5.4352325045517285
-3.2029897662492672 0.6126292330065236 -4.80635394710436
-3.2811679547082324 0.5305482723288244 -4.129981426939517
-3.3041048284047965 0.49926737431874885 -3.4239183905491557
-3.3216492153449977 0.4334510105617591 -2.6651394028958273
-3.301047977453351 0.41575928016274094 -1.925579719819457
-3.2529816990976514 0.3737063137570794 -1.1807061490971358
-3.171521038021501 0.3173882830532487 -0.37321779938166777
-3.158496868297689 0.31023294059565437 0.4456464644261874
-3.1446752974495102 0.4179889505641833 1.4129381297764223
-3.325045939656122 0.43939169882772483 2.3075218036106975
-3.446534474848709 0.6187561047065513 3.080791692497562
-3.534410220699468 0.6606945588477006 3.6650521997805554
-3.5505109539683763 0.4792149474302742 3.8832711779652733
-3.533414383203191 0.12998197970832692 4.073726545691734
[...]
CELL_DATA 87
SCALARS quad_param_group int 1
LOOKUP_TABLE default
3
3
3
2
2
2
3
3
2
3
1
1
3
0
2
0
1
3
3
3
1
0
2
0
1
2
2
0
3
2
3
1
0
1
2
2
2
1
1
0
0
1
3
0
3
0
0
2
3
3
1
3
2
2
3
0
0
0
2
1
1
0
0
0
3
0
1
1
2
2
2
3
0
0
1
3
3
3
1
0
0
0
0
1
2
1
3
SCALARS single_component_feature float 1
LOOKUP_TABLE default
0.18987449384498145
0.10558829636441763
0.07740918341599741
0.12966078308739404
-0.16195172445913625
-0.045135373044693575
0.16626239450324753
0.05910940187641772
0.045558265828710184
-0.009004065794061083
0.03460292203039779
0.04974754230165519
0.053085269541951884
-0.11662301228353984
-0.006920836465425588
0.11842033991919232
0.1946063487597559
0.029110849896544687
0.10289821558524265
0.2800924007679295
-0.019362744061678597
-0.17521712468544012
-0.13615772426103492
-0.007968282305739878
0.01614670095573635
0.22122549061876884
0.10725743538337673
0.13590306628040227
-0.10643514154525108
0.050204491651139875
0.22481316882693864
-0.0182765892120145
-0.017919648265450713
-0.11933398618819234
-0.1999028572699339
0.07800209371907689
0.048570240453422446
-0.11504092712825534
-0.09210260365800164
-0.0756917413507352
-0.13485954530114969
0.25855054050403026
0.11359249101654408
0.09600898716721565
0.28224742730920904
-0.19740548962287494
-0.25060847134087205
0.030935677846353628
-0.025965425056414124
0.07122852998521895
0.06346088381933465
-0.023028278941748557
0.020896859458500307
0.10489242309770162
0.12588983316637942
-0.1523644574921222
0.12357612163966121
-0.02878280833064062
0.06410728236613736
0.029967996690141087
0.18124628220955882
0.11564423729570852
-0.08521162061311882
-0.057411752123836104
-0.0446619828782672
-0.10244958793552968
0.016805506633817427
0.03064940438745776
0.0018003771935417787
-0.1777216367173624
0.0069087427334178775
-0.10524621952014791
-0.17077454112027973
-0.052941286850783406
-0.03884279615620038
-0.04272447053285556
-0.0862222012601352
0.08980473327570859
-0.08449701904242911
-0.0961992196351857
-0.19564664758881425
-0.1839700736878078
-0.25781522468411244
-0.2807465485710817
-0.085472886858094
0.059157241451841994
-0.020906401019729813
POINT_DATA 5568
SCALARS single_curvature float 1
LOOKUP_TABLE default
0.06565177783890254
0.10711124445003224
0.11966576597539567
0.1416397219080673
0.15364892301838126
0.14154981582085283
0.12986181823746035
0.11586742389266516
0.0934827407465858
0.07780288300079491
0.059985227666050356
0.052301021824093935
0.05489866248357309
0.055182038325783764
0.05354501987306084
0.0473500873579141
0.03571039271437636
0.029342764603999105
0.0323601179077291
0.04895644345560542
0.08012200481340381
0.11587778247300144
0.1439686327598355
0.157889489028362
0.15646146215836237
0.14640351249732064
0.13771692134168093
0.13866781688636173
0.13040752905247133
0.1380383333885881
0.12886066373950247
0.10307074159466968
0.11337058732489504
0.11868762846206245
0.1272173174978174
0.13608119144828962
0.16041408085322945
0.1700697222623109
0.3257167384826144
0.9065212947470509
0.9130114180653586
0.9178978206180503
0.8943034669867078
0.29058516853399396
0.23846217475215795
0.2021555418981258
0.19060933625949736
0.20317826711979917
0.21776289109474514
0.210591737795964
0.1844871712807063
0.14777922201363275
0.11416942324225729
0.09782496437738962
0.09563870373132097
0.10243090202520307
0.11089620513959723
0.12099755993095249
0.13084396484052335
0.1374237249832905
0.10660884504622631
0.07579396510916211
0.04497908517209792
0.014164205235033728
0.04410407111728701
0.08120734080355617
0.10431901531926109
0.13225976585059518
0.1561909009802201
0.1607629050174896
0.16110834135378585
0.1578458554633308
0.14376700591085026
0.1261981167221081
0.10563848906046265
0.08968304339913842
0.07911926860626307
0.0692846891557707
0.05950482537333095
0.047883859850318684
0.03605504003278838
0.03182473254966431
0.037565644668529775
0.05584163417056443
0.0841834399347662
0.11315324846808414
0.13815984463598321
0.15356154865615432
0.156227950917458
0.15631713154609173
0.15104178718367778
0.14242220795745186
0.13425274065729037
0.13420839585935881
0.11394201496331165
0.10386904409130275
0.09593006225322394
0.0741491881088006
0.09046793393387832
0.09463457351253009
0.14069350333668332
0.18993454952505098
0.27615841891307874
0.918631359449221
0.930210434820354
0.9327796506465706
0.9225170118880742
0.31155505242623993
0.21598965816874113
0.1821600391877626
0.1923515599515813
0.21503784783981356
0.2341861862930949
0.22917962612813908
0.19928923756475123
0.16356089605449253
0.12634414892047918
0.10616038071756724
0.1051565469877956
0.11041991631964355
0.11738351973172427
0.12553105037942439
0.13152096464983076
0.13470103909609824
0.1025473496877821
0.07039366027946597
0.038239970871149845
0.006086281462833715
0.03636546188883477
0.07157895561132767
0.09803429016527858
0.12837914321882662
0.15658933160103608
0.16749752675151755
0.1716797429353417
0.17137628910153216
0.1592468854711919
0.1401755486395638
0.11894065437093566
0.10078316899904571
0.08675678018798964
0.07414320402211155
0.06178788186308069
0.048298146723333185
0.036464149033042986
0.03293720404528733
0.03966111930171913
0.05852184764936277
0.08580515733646976
0.11264185305176962
0.13651774979441716
0.1521890579246091
0.1561008019989873
0.15916720815741664
0.1550447460541358
0.14476817926136912
0.136653313758711
0.13393478714951856
0.11041530202361326
0.10779658866642208
0.09533007033485398
0.06806249257552296
0.08625550616127987
0.08405275519564268
0.13385726545320942
0.19384803634210426
0.24766949954076878
0.9047867135384008
0.921983473229707
0.9243254444273792
0.9177799202891624
0.3312744549326514
0.21415781381129537
0.18057420310139197
0.1971318584633494
0.21904615801099792
0.23993349882343137
0.23579670152774243
0.20458347917877426
0.169231172533473
0.13071113545295798
0.10911220762259198
0.10853276117319482
0.1132741751853964
0.11971474947473092
0.12712136078488034
0.13173494798974866
0.13377638356833269
0.10113793760639479
0.0684994916444569
0.03586104568251901
0.003222599720581115
0.05064382902644399
0.08921172263999014
0.10931538695573285
0.1353248861233721
0.1556714887970774
0.15500703789990847
0.151981696521237
0.1458949822031348
0.12982249828285194
0.11329414513710699
0.09338716571141248
0.07957054362494999
0.0723550999635512
0.06513797621221695
0.05764597260624203
0.04762587977685617
0.035811690777460554
0.03096903664898529
0.03589108578703822
0.05366953190154081
0.0828871416911683
0.11373728610855087
0.13967384904279057
0.1547559150101612
0.15629803313267837
0.15367272966100892
0.14740929054776136
0.14084001880778405
0.13264367492264115
0.13487108514367271
0.11769714621086456
0.10186646180799348
0.0987640366779361
0.08469210104947497
0.09898918619274227
0.1067547129761202
0.1475950996577035
0.18512467518206238
0.29538178170063406
0.9221839213055274
0.9310985219760318
0.9340174723011165
0.9207061627906059
0.29983391738566123
0.22015646292091604
0.18592928770610093
0.19008534109429281
0.21162818682746187
0.22937843422191972
0.2236875050006686
0.19490489584147105
0.15887503128442546
0.1227318865067648
0.10370444424503954
0.10234977437805129
0.10805495001961413
0.11545782046631241
0.12420298763426577
0.1313338340701473
0.13548698858116517
0.10373191506665974
0.07197684155215431
0.040221768037648875
0.008466694523143442
0.042622882486819606
0.061333169737653674
0.06839662847457115
0.09863353230954722
0.15147335427809636
0.21011889454295615
0.2405179633717099
0.25551717155203085
0.25072063589219495
0.2156133460072148
0.18933310149218419
0.16078923904531803
0.13180266927361733
0.10657562197165786
0.07978906886556277
0.054624538066870294
0.042786131345076174
0.04383842911188548
0.05821087612190116
0.08110111382991746
0.10007926253434687
0.11228262248685829
0.12585336133871744
0.1402034817181473
0.15098044639552644
0.17114550129020062
0.17582215048316346
0.17210419253602896
0.16590271658263694
0.1482143445253286
0.13874409558161183
0.23272901768421816
0.2434592957820847
0.3349124492379412
0.33075536555659973
0.3218887281570057
0.398089349051377
0.4228075055307093
0.5944000454291944
0.6594666316002628
0.8432552719799931
0.8252623991603899
0.7542654707722055
0.6928971036985306
0.3138881718145158
0.2789599387461933
0.2872701528025451
0.25305713078348663
0.29384007965154113
0.3003392604782654
0.2569501849141136
0.22589770454270375
0.1740633662714644
0.13756599355394397
0.14121336788764732
0.1413798908303331
0.14322676563141815
0.14242899909587925
0.13357689366183903
0.12632607870122933
0.08854699770849396
0.05076791671575859
0.012988835723023215
-0.024790245269712158
0.02294770574206301
0.049007940344459114
0.07387541576469558
0.11015284677802076
0.15575780520630125
0.19368929740228555
0.21279248254046282
0.22174216884046474
0.21464167560047664
0.18746089008737518
0.16374945542738759
0.13903921222110918
0.11481821277073594
0.0935549427042172
0.07197142670242201
0.051274794247873005
0.03940198621205024
0.038571674078590884
0.049548471186951756
0.07074338088996893
0.09345102140819071
0.11197595979584148
0.13059690868720927
0.14626119120039952
0.1545108264810054
0.16803564384406713
0.16869368688957947
0.15895684993333117
0.15152101085368833
0.13850653776878097
0.11473985492961539
0.15185192255669705
0.14557082802178745
0.17374522776330484
0.18516994321520167
0.12973742221784962
0.13442790602937807
0.17178916325575871
0.24825428867560936
0.7109139017145456
0.8295918865174798
0.8276773357126035
0.8068896948292635
0.4894371448611193
0.24699318859199906
0.21303567629755152
0.23731680273544373
0.2365621597560826
0.2664160381773815
0.26696268257772615
0.22969709622677412
0.19628798791493215
0.15147472465669892
0.1229207979711612
0.12436431359211188
0.12678656759643406
0.13087951316438867
0.13452551824522435
0.13263681524881965
0.12979085974898125
0.09477942936059303
0.059767998972204806
0.024756568583816585
-0.010254861804571636
0.06006257942509708
0.10053188836526564
0.11601633189359636
0.13942248529618123
0.15456519050234463
0.1465545946170959
0.1382850762978718
0.1274585526099327
0.10773947508233545
0.09212307615568714
0.07339329419202767
0.0632352584840488
0.061789004957619395
0.05897366129294941
0.05504430016395317
0.047398811928550076
0.03565589910130594
0.029879727546540988
0.033614239532994236
0.05065845920591375
0.08111482882354014
0.11491602037892516
0.14219347042310898
0.15663033846629976
0.15638357626894173
0.14934253435320666
0.14159088448068766
0.1392144306271414
0.13098798235559464
0.13656703533594977
0.12426904952554095
0.10146399525789
0.10642889618423529
0.10436162181770298
0.1152180533608178
0.12503719859528842
0.15615493452092713
0.17628579080159293
0.3165585940635626
0.9164492999652605
0.9233426282826953
0.9272286613659685
0.9082798020017344
0.29081670679857874
0.23021381160575452
0.19494070358510796
0.18952612927791368
0.20647660038213828
0.22224810864258498
0.21561835143181637
0.18847966495881596
0.15202496933330037
0.11744686323264517
0.10008577497957022
0.09821790686376519
0.10458706226797723
0.11264245210263944
0.12223526239764018
0.13104011529900272
0.1366703431814248
0.10549597648084563
0.07432160978026647
0.043147243079687314
0.011972876379108155
0.03150665017883081
0.06541365428169302
0.09380502882388711
0.12572995812526722
0.1567275094976328
0.17179971958313653
0.17840075938245775
0.17982298262747798
0.16876179785568485
0.14859954247369167
0.12696346410413759
0.10754183592877727
0.09151854307672895
0.07726454577443181
0.06331225378027965
0.0486304715834501
0.03679440129870851
0.03371190408000891
0.041082001786703605
0.06031850829658268
0.08690538813598736
0.11239863177941908
0.13551924243935756
0.1513068856071901
0.155981019981358
0.16086383516300778
0.15748339459455454
0.1465501497093532
0.13848878052389124
0.13405170275422182
0.10882032956033318
0.11135204317273012
0.097070298431114
0.07264178056069064
0.0915714595985492
0.08391585566354788
0.1339699063200618
0.19497172754051026
0.22556852750480452
0.8882900662754194
0.9115853539307291
0.9138234141096125
0.910373097904886
0.34759837682106265
0.21488580325725695
0.18136392928752432
0.20140392898196008
0.22165672427510755
0.2437347960051872
0.2402031307989874
0.20811620392584465
0.17302177866792637
0.13362766531928694
0.11107372643917811
0.11077791244941859
0.1151777877934958
0.12127426478784568
0.12817546002977745
0.13187153305916016
0.13317480614175894
0.10021042973946769
0.06724605333717643
0.034281676934885166
0.001317300532593907
0.02815684151969147
0.06106643724635269
0.09066081885585793
0.12372085005627319
0.1567690746866056
0.17492463308220463
0.18327661384632363
0.18588397550942776
0.17552510951951286
0.15451235433766516
0.1325927369403978
0.11231228546441346
0.09493065435631405
0.07954428471849906
0.06445339368823243
0.04890698789237322
0.03706870029507858
0.034307427225563326
0.04215730592135481
0.06166803554976327
0.0877382152342598
0.11225874912021562
0.13481093712579995
0.1506559605625459
0.15586954866103292
0.16203821586954215
0.15920234737710184
0.14798307582169376
0.13997173895756565
0.13428352831653892
0.10809562444343208
0.11458746842242264
0.09972190667989796
0.08028823513683744
0.09941412130660146
0.08699003458756449
0.13577699425716933
0.19486612051379518
0.20758299810140404
0.8711657605129187
0.9008734650927909
0.9030167472571774
0.9025165921934339
0.3614711158383652
0.21642838425672836
0.1829133041658256
0.20508817284612454
0.22359267023875068
0.24658461316678212
0.24352181650037005
0.21078068403830347
0.17588431389895945
0.13582853914156298
0.11254892252885342
0.11246726217696666
0.11661300249418009
0.1224527188387589
0.1289671789931093
0.13197173790566577
0.13272951153620305
0.09951784048506117
0.06630616943391929
0.03309449838277741
-0.0001171726683644736
0.020836747765033647
0.04960524389825022
0.0791721731165619
0.11546603761940322
0.15642320176912344
0.18674054695350917
0.2017688296252491
0.20846886487598387
0.20031663732658037
0.17565048728563498
0.15264954130884473
0.12947267709268656
0.10755270046828849
0.0882911317930189
0.06904509099345478
0.05024529806268072
0.03838846246886419
0.0368380761826913
0.04659895144708391
0.0671595853287908
0.0911754738816457
0.1119788624907968
0.13218381791473527
0.14802937637930663
0.1551896351586413
0.16603697442132004
0.16533827308692411
0.1544310367075925
0.1467165960840385
0.13633617178130067
0.10992447594069478
0.1338219008061253
0.12249143217591281
0.1305138391358923
0.14662474224532346
0.10812997607881883
0.13774883853250822
0.18377408317394409
0.20353306942825522
0.7793686918106959
0.8526861995479069
0.8533052090783334
0.8509659098090794
0.4319619010735682
0.23103809609235545
0.1973247457365226
0.22329337633249544
0.2313984056846325
0.2583583163443011
0.25736659682328356
0.22193236383937087
0.18789630410301514
0.14504849454126378
0.1186845224661867
0.11950110211818331
0.12261418667755115
0.1274071821227459
0.13225516085905994
0.13237106293519849
0.1309482164538493
0.09668574403337234
0.062423271612895376
0.028160799192418415
-0.006101673228058546
0.025725106254495717
0.05781443520219144
0.08814940115955826
0.12207551675743346
0.156765172010343
0.17740366140517408
0.1871450224134591
0.19065680343919317
0.18081576302430075
0.15909445019834878
0.13695186763746664
0.1160215525757627
0.09761298717123888
0.08136165907600325
0.06537967656203691
0.049148345846562344
0.03730756886780903
0.034800478867546586
0.0430378650305696
0.06276699164288782
0.08842018530026803
0.11216844674356335
0.13425612552220073
0.1501302106002573
0.1557638487206738
0.1629355209150132
0.1605363199930587
0.14920210255163463
0.14123801683626508
0.134557370800833
0.10783845877363274
0.11762677210569612
0.10278488788366802
0.08825380349327612
0.10727682696680725
0.09050859565978764
0.1372746924998169
0.19409207376034196
0.19270247670686405
0.8538623530157826
0.8902791299981985
0.8923069469702171
0.8946447252749197
0.37378361983433983
0.21830048054337228
0.18477094363779514
0.20835031898611667
0.2251590504992824
0.24891021424632911
0.24623953860519457
0.21296513130498917
0.17823335426889841
0.13763356042572328
0.11375566496738035
0.11384971820932036
0.11778928286511016
0.12342034421853278
0.12961432295893288
0.1320522968618647
0.1323699740527422
0.09895454668973962
0.06553911932673703
0.03212369196373445
-0.0012917353992681346
0.02915968178541209
0.06237989986189668
0.09163062334342773
0.12434547748695003
0.15676172084199574
0.17396502841764697
0.18177948109382783
0.18402852676397832
0.17346010782861782
0.1527136088989233
0.13088062494654584
0.11085898845118776
0.0938866845110062
0.07884296192166741
0.06409986654145446
0.04881883741608861
0.0369813284716466
0.03412152670599915
0.04182307759136787
0.0612494762512954
0.08747934953885171
0.11229854821189551
0.1350272248224473
0.15085707167405013
0.15590621827330287
0.1616827260925104
0.1586790041462826
0.1475306952735918
0.13950290972942647
0.13419899800877266
0.10827372155844901
0.11352778465073715
0.09876958638563654
0.07763013100408171
0.09673149581698165
0.08585121888926997
0.13517217274549534
0.19499386508707994
0.21325705128413885
0.8769526984050189
0.9044726145584903
0.9066491361729877
0.9051664436551391
0.3570211407398224
0.21585998053677152
0.18234592399598126
0.2039056276386677
0.22299397005169794
0.24570043434941932
0.24249078822280495
0.20995254703762944
0.17499429840490838
0.13514439582944196
0.1120908092169051
0.11194256787668655
0.11616698042621221
0.12208623793873018
0.1287213954358604
0.13194083299322268
0.1328671239066114
0.09973245556053127
0.06659778721445114
0.033463118868371014
0.0003284505222908851
0.029981346035888437
0.06344764975945992
0.09240523724749392
0.12484099363830709
0.1567523452246665
0.1731962288368158
0.18057998794182628
0.18253844020107055
0.17179828602739822
0.15126186094872698
0.12949852680944363
0.10968733100766366
0.09304789020049108
0.07828190878331016
0.06381862811236845
0.04875029802704809
0.03691334671787004
0.03397453905605449
0.04155790082446928
0.06091681590087085
0.08727396641542538
0.11233243464693292
0.13520124573195758
0.15101736721709205
0.15593400109760533
0.16139463642999485
0.1582568540474258
0.14717615511848517
0.13913589690879422
0.13413983424925546
0.10844563917848464
0.11272225305659062
0.09809659411631885
0.0756898608294894
0.0947479559389226
0.08505258898830344
0.13470673868886188
0.19503331986842667
0.21771295937108334
0.8812417137601417
0.9071549413697141
0.9093550439613909
0.9071355260698105
0.35357882489370385
0.21546573298450092
0.18195054611117284
0.20299082855989695
0.22251709571458783
0.2449980114587149
0.24167258536782313
0.20929558134243245
0.1742884497934955
0.13460172304299356
0.11172713765572444
0.11152609045281546
0.11581311530400817
0.12179564205882741
0.12852623182067768
0.13191616508844864
0.13297679970620632
0.09990312601214907
0.06682945231809181
0.03375577862403456
0.0006821049299773063
0.0337653470068439
0.054996120104772575
0.0686206011504858
0.10169779737722688
0.1534979619336206
0.20490125521006186
0.23124677156401224
0.24402543999059628
0.23845249053652595
0.20633535995288801
0.18111667503267914
0.15392835870792573
0.1264036654274113
0.10231903119596049
0.07713214857229225
0.05339515901805437
0.04151803948681148
0.04191563764103059
0.05508663768797903
0.07738009551147343
0.09769979053854536
0.11216416552380613
0.12766093571880752
0.14262800705281073
0.15259130232742157
0.17051679231181857
0.17370292760138298
0.16745761746208226
0.16073070996089026
0.1441067123264649
0.12855940876308167
0.19748619036901102
0.2020583616496124
0.2701197808710361
0.27104252482785807
0.2323490104217251
0.2497087118042366
0.27554873464165996
0.43734689706408203
0.6342193795725893
0.8207046273291791
0.8097395550253992
0.7502082814048285
0.6150322968679158
0.28668312667939233
0.25214720960319204
0.26738625086490003
0.2467095952798826
0.2829561788294246
0.2869608760220665
0.24597797449403613
0.21394981451210193
0.1649628964230185
0.13171082332411488
0.13447097262871363
0.1355151761596736
0.13822481933193997
0.13925443533914716
0.13318888011181274
0.12760368791048715
0.09096719679864462
0.054330705686802094
0.017694214574959566
-0.018942276536882963
0.02085795353522084
0.049785188197471436
0.07954234646139224
0.11578017473839351