# vtk DataFile Version 3.0
vtk output
ASCII
DATASET POLYDATA
POINTS 5568 float
6.613519518342935 0.5035841787446232 -19.91422318129405
6.704321328728959 0.49257839297063216 -19.303790355239045
6.799265439945483 0.4711046068168589 -18.689408725135234
6.892702439192364 0.44000228902701405 -18.07383546776413
6.971837181074844 0.40409132066978215 -17.44577085177753
7.004836315977992 0.37214828993508137 -16.833515180665668
6.986280365148404 0.35154168528123664 -16.234001877928232
6.911421105729867 0.34275879728696323 -15.644176216186125
6.7662160921661645 0.3453329901192698 -15.06054152681639
6.55525985929225 0.35500724992186233 -14.530762620866533
6.281412485631546 0.37285149904798437 -14.028250358964566
5.945584927041147 0.4028557823141291 -13.548684455744306
5.552767833627945 0.4466913752327102 -13.091914857632792
5.101167657663395 0.5041197450097769 -12.651023430317284
4.590545683005735 0.5756403194524069 -12.224832622310753
4.022186903495248 0.6616386197274003 -11.814469524070981
3.397763449046276 0.7608396467361701 -11.419879826038008
2.7293286493010323 0.8695681504051591 -11.041856248969749
2.0360889901340595 0.9795886281464354 -10.678300740041301
1.3382286385157314 1.0812241859788927 -10.323291318149675
0.6567414830771235 1.1649941132121127 -9.96897024137092
0.0031033444125622145 1.2258211020678256 -9.606872482020494
-0.6139416124807833 1.261027119238883 -9.229561634013363
-1.1853535297813425 1.2720606064467144 -8.829362193883673
-1.707400821731612 1.2592585820609166 -8.400791797217039
-2.177401055473312 1.2272046879903533 -7.944171817286664
-2.5900693225100326 1.1770050000537244 -7.4573110092368795
-2.9421853207165607 1.1086358020431775 -6.945241571671658
-3.243115829150571 1.0218562554054698 -6.4023636256865215
-3.483844799086968 0.8961366400053679 -5.8267784978390385
-3.666020726149418 0.7548574895914258 -5.199957226205489
-3.79526411095882 0.6223306320437261 -4.541251763317671
-3.862250642295939 0.4842889967338324 -3.8501451039065335
-3.8682796350608815 0.37245730365689594 -3.1556839258872755
-3.8473860659997836 0.24536113153642305 -2.427207061464655
-3.78418714874655 0.22697854758851554 -1.7526123608581843
-3.6937150938835943 0.1767894039445966 -1.0571847962285998
-3.607041180163043 0.043003210411582476 -0.3245390773214262
-3.56889935748011 -0.04067119114608719 0.3840134825606114
-3.5399533951323487 -0.08919618051060511 1.0783984996500215
-3.5777461414758647 -0.11516106548683293 1.756213517436283
-3.6352134219582872 0.0411512442688237 2.4818578453985376
-3.669063994163369 0.22468178264669952 3.1137317258584374
-3.6767192911676982 0.141714295818321 3.4229673664241025
-3.6689041485536102 -0.155466788493677 3.661048670529114
-3.5495362493606835 -0.7393710399234857 3.8137029681558774
-3.4003748797903963 -1.286774993358493 3.993338574174136
-3.1432741937479514 -1.9057787776362316 4.112931223273584
-2.8102141355847574 -2.4951112814103187 4.240646599373648
-2.394971899132114 -3.0203223408728874 4.3961846622759175
-1.910451712538602 -3.446749027216949 4.596849969051509
-1.371364843679252 -3.7712652264870017 4.851707938034207
-0.8449108638649481 -3.9769396376158093 5.1670930225698175
-0.24780435228714004 -4.075757905143709 5.513242363347072
0.3894548886986853 -4.108475716244147 5.887197305506943
1.0579248125252225 -4.069204362858508 6.270738153333767
1.7559234205264715 -3.953242660993928 6.64631888240258
2.489596680687047 -3.7542344419076223 7.0015342493999695
3.2510786389700876 -3.472242608724382 7.30828023365604
4.03744485291193 -3.1093636971583285 7.542256076310887
4.790605488604713 -2.69977064781694 7.681963723532271
5.505795979972122 -2.248347833680555 7.7328534044803625
6.166321359477825 -1.777233597057166 7.707689081272745
6.761713955243649 -1.3002663275353716 7.618206893099284
7.079534019193899 0.02803883162472348 -19.714530142798903
7.137890996013683 -0.07922029443127962 -19.07687180063219
7.1919123893686665 -0.20134015469735814 -18.429684417381967
7.243524964494068 -0.31996490640323605 -17.77240746114619
7.282385267714465 -0.4264306166950246 -17.065418309470516
7.267178767921451 -0.5121189198800346 -16.34248384766249
7.192547636506244 -0.5584312140752207 -15.676020236435514
7.065217426535161 -0.574151747380072 -15.051943589262804
6.882387075322962 -0.5618521368647724 -14.494487048986032
6.653888204245772 -0.5257630305985056 -13.965249748568748
6.37684488408409 -0.4674116043317442 -13.47387980421149
6.052454227149328 -0.38286250469869076 -13.014438693264513
5.681113583798645 -0.27242361473213117 -12.582245493419338
5.256559816596054 -0.13476296025004175 -12.166828342735094
4.773239846127794 0.03176025191590545 -11.764362046892412
4.231467399695986 0.22381989893736212 -11.37557493153419
3.6324093542722293 0.4314339926358091 -10.997085100269379
2.9864186510381616 0.6441907039508838 -10.630282564350418
2.3074825089457764 0.8513549629577953 -10.27294525996635
1.6107486381873417 1.0423242385882747 -9.920821940056536
0.9175787268160217 1.2089482853043023 -9.565240345951487
0.24836789331429854 1.3467663294925707 -9.198839568539935
-0.3825068250677698 1.453790010457986 -8.817568378910583
-0.9637515974642539 1.530495931267569 -8.41446207415858
-1.489272763659984 1.5774680922049111 -7.988052321721585
-1.9657903212783467 1.5968837241611373 -7.533148604996031
-2.3900358538889948 1.5914710602434674 -7.046123164539258
-2.7604228727142512 1.563279399316907 -6.530139044595909
-3.0841565228661945 1.513480259026779 -5.981271579726457
-3.359032078537619 1.455581839937314 -5.405891981043494
-3.585772681164641 1.386592460561022 -4.783625442229128
-3.7639290802835945 1.2898557072526708 -4.1175640171187835
-3.894316328429147 1.194573250002322 -3.4020970182548456
-3.9646151899169846 1.1803980269897558 -2.6559795026719506
-4.021911613814644 1.147378562602641 -1.8792618467934727
-4.054933067082683 1.1057079556881133 -1.1916390137575803
-3.979456419118975 1.3104048373375723 -0.33479756476175326
-3.9569486536931113 1.341456476457188 0.5953469956623445
-3.9582820139666186 1.4359153864591658 1.560055925619677
-4.020470967477601 1.6058465607543102 2.6961719458104154
-4.22803079064758 1.404525702843862 3.4100910770050974
-4.274133945536005 1.2335448327995475 3.7220555046191635
-4.282758743835329 1.059796577809971 3.9385555552830973
-4.23912732369156 0.7259053442857072 4.070410470736004
-4.135326022319176 0.2407670307877568 4.163348862014944
-3.957502361408658 -0.3701147995492379 4.2485442083305704
-3.7249223540824254 -0.9183761947106708 4.36939613491679
-3.3692813116646785 -1.4950585204268307 4.489877842393917
-2.925406630836772 -2.014851228563222 4.654760448206727
-2.4070612835032716 -2.461621215709599 4.872704616899298
-1.8257124997800278 -2.8246424094675464 5.149390616611461
-1.1966926522750012 -3.097120036340034 5.483061608660511
-0.572975962018847 -3.2662561643827064 5.858454101427627
0.10185687452817305 -3.345774312172192 6.2675320102294805
0.7980642924842034 -3.35510401951229 6.678945798683977
1.5181418464845207 -3.2940772494679 7.067660999959221
2.267394024353048 -3.1604883446148038 7.414561036148843
3.0590707565144704 -2.9544736830247142 7.71020354143816
3.8787959849772715 -2.6746700558400662 7.9417665502582935
4.693923399807037 -2.3304816016292467 8.097803423541396
5.472780902868533 -1.939027534801929 8.185460334413053
6.2029319698213365 -1.5168490259190173 8.217047983102802
6.880477821792488 -1.0793521647145286 8.217669162418233
7.507217552997076 -0.6346762696533137 8.202574270267366
7.261595147109432 -0.15774577832526038 -19.636514673840495
7.30709845966532 -0.3048577061018516 -18.98385802293417
7.344688080271247 -0.4690736622557022 -18.31893914580656
7.379280826543403 -0.6243944891786288 -17.6413136286808
7.401028536921706 -0.7610600501127662 -16.899797128879573
7.3646337532759745 -0.8702583512946003 -16.129347833269915
7.26626329646784 -0.9274547160570646 -15.434463929502668
7.117297619835837 -0.9460349580453055 -14.795824694677224
6.919725820143894 -0.9299765490339715 -14.247614465220279
6.684135018542068 -0.8834412665650421 -13.718191242671708
6.405445348004519 -0.8092616029791663 -13.230434772607857
6.084612467666085 -0.7035766112396021 -12.777538557971075
5.7200735366770585 -0.567318279718321 -12.353101683794241
5.3037141721013725 -0.3982906288264083 -11.945324096832728
4.827891457672877 -0.1940874720301813 -11.54948255225624
4.292742805289071 0.040498548204465246 -11.166419099570962
3.6998514588521463 0.2917540537645519 -10.791854261900763
3.0593002657499646 0.5463625254678682 -10.42754378509162
2.3831813568112477 0.7926365748934676 -10.071173419873302
1.6846408364886627 1.0196726702625452 -9.719056375013173
0.9849740655386205 1.2198894483547107 -9.362035775079962
0.30794529622785316 1.3888956986216605 -8.993047568114617
-0.32991123400816547 1.5248486254994456 -8.609313213859899
-0.9163486590651142 1.6277913828205373 -8.204158609289085
-1.4443429661002964 1.6983325642325826 -7.777697248922757
-1.9242177435707049 1.7379865591263666 -7.322704865918908
-2.3535982269623412 1.7501964428143928 -6.8349514454998435
-2.7316631960052917 1.737870950339755 -6.3167950787320395
-3.0648028086223364 1.7026786217821632 -5.764934880985661
-3.354170469054461 1.6712688823927133 -5.187449218511374
-3.5993633172905883 1.6302824462471064 -4.56421810007147
-3.7972507077584665 1.5475359231263173 -3.893930729253346
-3.9534570766802863 1.4691609001962458 -3.1667068724962335
-4.050618357620241 1.4950346230449145 -2.394622542399291
-4.140193255473824 1.5001722620108053 -1.5930474446920702
-4.211659092574151 1.4490095278314867 -0.8964157297005552
-4.142156242129827 1.7752687608037343 0.04719621046753664
-4.148924137870359 1.8820237281113477 1.0730319006884614
-4.169403364929406 2.0626517300061322 2.1595212806714077
-4.280277842897076 2.348771271165622 3.5110526205822508
-4.566450067854522 2.0665374334221958 4.256416706263033
-4.6165330836903395 1.777406229694267 4.501060193883075
-4.620469179722907 1.4445809785157298 4.663680866488339
-4.543114793921556 0.9238088608594544 4.730298215184631
[...]
CELL_DATA 87
SCALARS quad_param_group int 1
LOOKUP_TABLE default
3
3
3
2
2
2
3
3
2
3
1
1
3
0
2
0
1
3
3
3
1
0
2
0
1
2
2
0
3
2
3
1
0
1
2
2
2
1
1
0
0
1
3
0
3
0
0
2
3
3
1
3
2
2
3
0
0
0
2
1
1
0
0
0
3
0
1
1
2
2
2
3
0
0
1
3
3
3
1
0
0
0
0
1
2
1
3
SCALARS single_component_feature float 1
LOOKUP_TABLE default
-0.0204821565112211
0.09300386123888651
0.13734023351163377
0.10400716367689393
-0.0020123053179725847
0.039971269040219706
-0.013742199867359958
0.0711184535743803
-0.04330203529026454
-0.045458693909872096
-0.05265042915426976
0.0802274710677992
-0.032779914231798477
0.15574249193773074
0.06536761162598773
0.047227160541266286
0.028556750613857217
0.124853566410894
-0.03267716313506963
-0.05247278420188377
0.09322151529559193
0.04113159284623033
0.14637036507722595
0.04699630807792974
-0.016852965110895762
0.03293442536004205
0.09925715346205172
0.04951187746853758
0.09980953254052183
-0.08919481461563887
-0.05077074129136962
0.11388102778427289
-0.04814479435794323
0.10339223310016604
0.20377795834343893
-0.012651168333425278
0.006780511228342875
-0.13625449500465547
-0.09015470355587876
-0.020483231751923847
-0.13901523555215042
-0.14698946962545756
0.07008674829024947
-0.06732368872748229
-0.13506972347280538
-0.06510221603287843
-0.01874711767490772
-0.021351235818004702
0.02593329355968697
-0.030364354038421963
0.050190457621099374
-0.013637773715730578
-0.007835556621356802
-0.02808262249881959
0.059909508312082485
-0.0726090891727288
-0.19512572082176416
-0.13425348390867314
-0.03426436978341006
-0.05845342307379381
-0.021655517553267237
-0.12180157997162652
-0.07420129565884648
-0.008217691686435463
0.04705073009081367
-0.08273683023245738
0.049617292466102955
0.1666118427344878
-0.06624604807977647
-0.08345198169452862
0.06078904750467735
0.15712896817986027
-0.13087472838132086
0.10521950269579436
-0.005609353115145561
0.007208663749192641
0.021462587104741748
-0.09852351058498728
0.00118763267666043
-0.15017953860468508
-0.20858907883993283
-0.05675201951625563
-0.156607701270878
0.1152831844466808
-0.16916808243463904
0.1985141077754217
0.24225053277315733
POINT_DATA 5568
SCALARS single_curvature float 1
LOOKUP_TABLE default
0.02341164639039336
0.053419515951129495
0.08308122797886028
0.11768370122152245
0.15566124941436954
0.1871833979839184
0.2021767052657901
0.20794339118522823
0.20012083687733176
0.17191012132362693
0.14813629814355503
0.12522725675144622
0.104626347634874
0.08663552927811055
0.06847046275215818
0.04979182722241666
0.037374132711291454
0.035278081282275026
0.04475086366933697
0.0656571073220762
0.09018895685440444
0.1116811038692201
0.13247626390113892
0.14894459162332577
0.15639828890868054
0.16909307225118628
0.16856621288417026
0.15770060985427592
0.15066592561165243
0.13671171423486714
0.10988059888840442
0.14141742909444854
0.1287262869083853
0.129036914950894
0.14858676697569365
0.103620461469329
0.12232909140783589
0.16363762171402083
0.16327404314165048
0.7527607379621784
0.8532793606631728
0.8622059593251231
0.8632430146935346
0.4858571379851891
0.24112938513459545
0.19073618502578543
0.22358149226262994
0.2344331141678703
0.2686529992021785
0.2716020434116635
0.2348468545013143
0.19756126402142737
0.14935942513070394
0.11904383535809485
0.11902614664456102
0.122186668260862
0.12844363175281226
0.13532475135905686
0.1384697222480711
0.1406670525050659
0.1053888709523406
0.07011068939961532
0.03483250784689003
-0.0004456737058352589
0.02340100135052044
0.05084895944382551
0.08397914667534291
0.12150457503042766
0.1658619595134438
0.1816317660311507
0.19068579216595016
0.1974947724478873
0.18392952943639815
0.1763039006387724
0.15638388736690967
0.1329878324081802
0.10814248013548894
0.08657828517392843
0.06706171741367527
0.051439955563781815
0.04282013714353021
0.04247447207245419
0.05097905864139072
0.06855010546085152
0.09155243531750766
0.11257879323954752
0.13246934165585295
0.1458798701573067
0.15034586080550022
0.14955170436737847
0.14529009097812193
0.13767613696381298
0.12685923016760903
0.13824705020731692
0.11335603118343325
0.09404636698260178
0.13742619692296798
0.14465705401346785
0.15203449029501107
0.1525735906793195
0.2944903217249943
0.5658016013593518
0.693692536736406
0.805567055833449
0.7470025623004455
0.5386130118700243
0.4049387844599814
0.20224421288543012
0.18748504526819898
0.2147384705017412
0.20998781483860118
0.2102856148127783
0.20406701791650295
0.1871546898432505
0.1618869254119693
0.1421534013672708
0.12348975555525152
0.11564473262016188
0.11848122247775202
0.12086127612788282
0.11899900083946638
0.11544836869186591
0.10543611149204977
0.0913524357330779
0.06257101031056045
0.033789584888043
0.005008159465525547
-0.023773265956991904
0.029451757110943607
0.05615342968479948
0.09052075628346229
0.12596294985104528
0.1725563552916515
0.1840538181579448
0.19127836218812858
0.19833461227069143
0.18104720720349246
0.17914240656959243
0.15956636352773887
0.1349452983368828
0.10812985858242066
0.08551423901277101
0.06626195419448194
0.05236289573364662
0.04554227102569924
0.045667013463720076
0.0532888213261165
0.06933371272549312
0.0914478856028405
0.11234728887308637
0.13201499407684855
0.14442210815254483
0.1479300753388736
0.1433053045721734
0.1370950533174494
0.13333842357869838
0.1213137006508104
0.14066073907468452
0.11767241404432432
0.11509588349633222
0.16487814017386895
0.1708834218633182
0.17492206947077424
0.1537178965980314
0.344458783456236
0.7789533917669579
0.8391958504649364
0.8677939486947307
0.7977444865750613
0.36248816117899596
0.2505561099529713
0.18819882645672817
0.20092089332017118
0.2265219400819286
0.20904327244851945
0.2003217980119993
0.1817551108777277
0.15965930999447472
0.13928004503976196
0.12622583274549615
0.11724844388827253
0.1167320101902838
0.12014302750117799
0.12136891924630715
0.11592844951748128
0.10805514231662962
0.09450598295876393
0.07817546322705432
0.051762551644447215
0.02534964006184011
-0.0010632715207669896
-0.027476183103374102
0.024894318476218792
0.05214719011999415
0.08559124307123828
0.12256922077205475
0.16741744125366415
0.1819915409832924
0.19054094249476497
0.1974052441632433
0.18299259760105288
0.17694515462631752
0.1571809157846918
0.1335393595556489
0.10821733774406865
0.08636854338760742
0.06687574765095519
0.051657659002072635
0.04347404919388994
0.043258571411799916
0.05156607221605408
0.06876561537108872
0.09156022495153765
0.11255210240665701
0.13238047958903607
0.14553122907889826
0.14974749486390798
0.1478791481087748
0.14315482220777373
0.13639366584332324
0.1252605695057284
0.13884115036000833
0.11436420396639968
0.09788907078980924
0.143893944252297
0.15093740184046592
0.1574130882321268
0.15391308335871726
0.3091955763354016
0.648320523858507
0.7607630352110888
0.8345809340819735
0.7733887832494861
0.49646111323796643
0.34782354450623837
0.19137012721537583
0.1865785048226423
0.21763352319486662
0.20956622469950215
0.20785506491409375
0.19835067577662813
0.18002217693221587
0.15597643026362562
0.13792697920491845
0.12176490591195406
0.11581217046306476
0.11881619954797065
0.12094748658265347
0.11820630792329218
0.11358069584597866
0.10253631638538342
0.08748174166257033
0.059301321260575336
0.03112090085858034
0.002940480456585348
-0.025239939945409656
0.02127463713332393
0.05078231400618642
0.08100890085318588
0.11687315683005056
0.15642768968371987
0.18508949530132707
0.19916346313282432
0.20522547346335893
0.19683748452333638
0.17238879675702706
0.14947412465007617
0.12670997939733908
0.1055118375855063
0.08688524134170708
0.06831481195610774
0.04998071463777109
0.03806954211589132
0.03629474078870134
0.045750014159629517
0.06619704322030276
0.09056674412197518
0.11197035320597021
0.1325863639093683
0.14851381459316187
0.15543501429539822
0.16581669049477454
0.16482634804961263
0.15373568875723345
0.14603350979415505
0.13593625883194846
0.109146052093205
0.13105748267855627
0.11746622032291179
0.12036060694048539
0.13762660837267293
0.10301922592128465
0.13589809886039125
0.18379425695854076
0.18947039511082647
0.7922393980400921
0.8597610922487683
0.8614725070028204
0.8626404405950294
0.4253490004724074
0.22899004924625568
0.1937442975530556
0.22033083926696775
0.23053381712993531
0.25757909541846197
0.2566337654397253
0.2214673633010023
0.18697444610902608
0.144038635366429
0.11777077742221041
0.11837164518141852
0.12164941214624644
0.12674716316357093
0.13205719208708255
0.1329096253937403
0.13216428316954093
0.09796431680671622
0.0637643504438915
0.02956438408106679
-0.004635582281757922
0.01885736412640244
0.047360967369284836
0.0789066740979803
0.11747111205662776
0.15959044143580078
0.18209483161223408
0.19389786314248805
0.20039931989379028
0.1901972985605887
0.17378413086917002
0.15252309469584652
0.1297892837718237
0.1070931690176086
0.08708133215227079
0.06784410038351929
0.0505260931809791
0.03994485990951134
0.03885940239521664
0.048070658583008755
0.06733541978924709
0.09120328582534779
0.11242316898517919
0.13267731664070012
0.147434804892619
0.15320862904130653
0.15837968999745453
0.15611731676884077
0.14562602966720736
0.13647133409328008
0.13600964407842706
0.10969339308576395
0.10863983752015949
0.1268119931865357
0.13321783356080494
0.14562191500576574
0.13290179179820297
0.2068605997726606
0.2387181741971219
0.27241818889715336
0.7531862664191801
0.7654170845685332
0.7576288754344161
0.7528727326298741
0.3020209038835452
0.206367903930923
0.20193957703121118
0.21428260895366547
0.22169129824065675
0.23311163767064608
0.2242737508930984
0.19323318338497636
0.16524911893118754
0.1336254981428166
0.11597125862763531
0.1177450538634679
0.12092195069253062
0.12312009595982366
0.12464833985524762
0.12042207890575556
0.11315731512856432
0.08138931605819658
0.04962131698782883
0.017853317917461087
-0.013914681152906658
0.022564598666190858
0.052385500316546214
0.08225008752257898
0.11730691988193269
0.15589239237938485
0.1863622830636131
0.20102993369754293
0.20691318149160345
0.19890042854056966
0.17207656927390005
0.14862439143617232
0.12577660398893292
0.10496217959665305
0.08673806299346731
0.06841778181355025
0.049857170666827454
0.03761825331168792
0.035640284474296444
0.04511286387440689
0.06585653164595609
0.0903336013768295
0.11179293102486611
0.1325213415211205
0.14879054898205546
0.1560481000251873
0.16790068880332693
0.16721172707899623
0.15623038726032001
0.14895048530716484
0.1363599096339822
0.10953258447439668
0.13760633105599732
0.12173535295044209
0.1230650273483003
0.14178459985580028
0.10062451702210605
0.12452649479084098
0.16866836560111848
0.17073333517876504
0.7704643444944104
0.8580237372909084
0.864047315222588
0.8650660792032241
0.46378385888489565
0.2365216097948233
0.19179137891481945
0.22236089189275746
0.23300757159135838
0.26459395382796347
0.2660921153499005
0.2298971039658157
0.19362313691434968
0.14736318731072723
0.11854398087914221
0.11875960398136398
0.12197466794629838
0.1278176388576442
0.13413257605950304
0.13643854881425505
0.1375617496762411
0.10267728597412044
0.06779282227199979
0.03290835856987913
-0.001976105132241529
0.020656782813498937
0.048515793878846115
0.0810074417784748
0.11955933842902354
0.16301000624945142
0.18138221528038276
0.19151940080254226
0.19821699443278712
0.18618498996956256
0.17515185644774722
0.15479206442219748
0.13177163062363642
0.10784494556750876
0.08688793394345175
0.06740770961568836
0.051034076319691486
0.041573436359113
0.040943849501659586
0.04979113854549251
0.06808272820816767
0.09147072040055965
0.11257150109792417
0.1325992759225685
0.14654698026598462
0.1515322598954096
0.15306602167251077
0.14967814504514426
0.1406129605202695
0.13045540493378333
0.137152834427726
0.11155855292009917
0.09503208173401992
0.13065455138703713
0.13793274986827883
0.14724240399147823
0.1473154187209367
0.26117305773380295
0.3793731880540632
0.49513449868301845
0.7415297460817145
0.7007930577370015
0.6205007611452539
0.5491037408283426
0.23491992969200615
0.19349296242557026
0.20917787636178062
0.21128668555793526
0.21504682366949135
0.21576618452975113
0.20193273409854698
0.17424425824386613
0.15112431917474733
0.12729342443211128
0.11553984143908824
0.1179906724223643
0.12078368966361927
0.12063838041535066
0.11921153120497541
0.11145601219812974
0.0998557097489014
0.06985775188824159
0.039859794027581774
0.009861836166921961
-0.020136121693737852
0.026793337979686534
0.05747364361011802
0.0864983515102652
0.11964187933338141
0.155321276759689
0.19046549779186614
0.20644775296290901
0.2117350498980721
0.20442185084797473
0.1714071817604699
0.14648285178595097
0.12330150970285235
0.10338593061299993
0.08619243726751233
0.06860998741256194
0.049601314594489784
0.036632978955620905
0.0341327198845834
0.043555640443353846
0.06496405175006
0.08964242057266476
0.11124972455688058
0.13228230315003034
0.14943892328980227
0.15757138839213103
0.17308201848302346
0.17304298650772174
0.1628422070751812
0.15664903717048206
0.13855779059927653
0.11180351079681983
0.15459278342950494
0.1638819155528592
0.1601698749572133
0.18250198789976652
0.12453216165764856
0.13488351642414026
0.1659572655877383
0.15645564735815484
0.673377863217974
0.8232861940934372
0.8449605647296146
0.8463751129080613
0.5568456283666053
0.258414442767382
0.18752936800262576
0.22795757799677496
0.23929164341233555
0.2825212689201431
0.29063483632438425
0.25217350013427403
0.2115441261671626
0.15659740115509224
0.121042440883324
0.12016788762542374
0.12304208468317526
0.1306197063660945
0.13935461248114736
0.14535258246233118
0.15116444281770483
0.1145530316722812
0.07794162052685757
0.04133020938143395
0.004718798236010319
0.02714974330568853
0.05789682484868168
0.08686692856633314
0.11988022325647262
0.15532621083183548
0.19081675302558432
0.206881521617357
0.21211617917656492
0.20484058608881694
0.17136388602183478
0.14632639018722346
0.1231145426303871
0.10326075694173471
0.08614299813294188
0.06861983320036937
0.049585802491187374
0.03656995872327026
0.034031323599149337
0.04344566254645408
0.06489728473412794
0.08958630366244151
0.11120479460271172
0.13226070210482813
0.14948344954847437
0.15768117504356974
0.17345397035909915
0.17345612113359563
0.1633389474009967
0.15722603501114357
0.13878802789573524
0.11204782798310482
0.15586040096413536
0.16758114741226962
0.16345133293474656
0.18604372710009195
0.1268546802027084
0.13682968011027505
0.16699927308706508
0.15661684543514157
0.6647011699742678
0.8196883409732069
0.842813889210928
0.8442760562838607
0.5630464215011357
0.26019222446077456
0.1872558488406635
0.2283875751690123
0.23975377361170605
0.2838401424315199
0.29246180673938726
0.25385583573990794
0.21291806619898118
0.1573204940389013
0.12125599285149852
0.12029498200492279
0.12313394214563839
0.1308296974763214
0.1397346625168355
0.14600281443616478
0.15215315843325652
0.11541584975848918
0.07867854108372183
0.041941232408954476
0.005203923734187127
0.0283785350941127
0.05935239750879694
0.08814970897421935
0.12073966678333642
0.15539104287982325
0.19204058162362547
0.20836444070101215
0.21341373276323367
0.2062507034992889
0.17122402000912113
0.14580421484505152
0.12248521536486975
0.10283382365777384
0.08596883088068692
0.06864818553778919
0.04953728673832403
0.03636887080015533
0.03370226841844155
0.043083403163120995
0.0646732554929281
0.08939369556800057
0.1110498444123704
0.13218462933765512
0.14962917065352144
0.15804582790608487
0.17468660693339053
0.1748199012498298
0.16500600430232593
0.15916140906016268
0.13962867160394915
0.11294348783302824
0.16011591401037034
0.18011475160947843
0.17456097383898808
0.19801602253388123
0.1348286349032396
0.14352549162381062
0.170830240117852
0.1575377751641673
0.6348819493434215
0.8071262267969451
0.8353869886141668
0.8370089783749707
0.582871626101246
0.2663117291095016
0.1863812600309832
0.22983821455757844
0.24129877173140457
0.28824605859868324
0.29858684518546474
0.2595210185657841
0.21756583132373652
0.15978144520815407
0.12199906803641984
0.12074274605404536
0.12345394736669381
0.13153508289722587
0.1410006570824866
0.14816997849175859
0.15544362488120084
0.11828676364379233
0.08112990240638382
0.04397304116897531
0.0068161799315668015
0.02173913406495736
0.049423132218559165
0.08218293969955544
0.12033463640153406
0.1641558128849813
0.1814109610887141
0.19108583204996893
0.19783085900514483
0.1851854157404001
0.17561159467232362
0.15545530185831005
0.13229652979014211
0.10799251252727177
0.08677646885631674
0.06726756509654361
0.05119838991808901
0.04208299734291694
0.04157550220932654
0.0502884411273815
0.0682833546901893
0.09151542611199137
0.11258428968989502
0.1325527537494445
0.14627360804001652
0.1510391571641825
0.15157610924329462
0.14783240964942995
0.13932943248661087
0.12889264775600037
0.13758897095924555
0.11226775601800622
0.09310520742116528
0.13238938840525707
0.13970594306912815
0.148189116874781
0.14995273135528073
0.27565187774202965
0.45606956132110404
0.5854019695348787
0.7662078165733254
0.715340413663957
0.5855397606790747
0.48538959326498105
0.21974109506698397
0.1905376914300876
0.21145335426120634
0.21066783478257015
0.21307616248931896
0.21084501349153595
0.1956873355968189
0.16900306201752244
0.14729757860100576
0.1256483391879318
0.1155450679993346
0.11816509599737636
0.12079990235809565
0.11994576763746403
0.11763826267293394
0.10891510322650183
0.09620607724340144
0.06671761345990809
0.03722914967641475
0.007740685892921401
-0.021747777890571945
0.025141422060563624
0.05550399141139151
0.08481062563571622
0.11860963566926326
0.1553906331628198
0.18885442850695675
0.2044051759054506
0.20993060250352852
0.20240806343848236
0.17162832316477702
0.14724559178531751
0.1242016657623396
0.10397726337577565
0.0864150120213739
0.06855344451324641
0.049683224794286066
0.03695805512149082
0.034644764591033016
0.044100143553466795
0.0652868128588608
0.08990522173714498
0.11145867877483112
0.13237962364770925
0.14921623770713746
0.1570329988556866
0.1712537254261693
0.17100153908366325
0.16044326121089195
0.1538601581251145
0.13757557229475367
0.1107691513986245
0.1484643790177583
0.14646564046271196
0.14470836332224832
0.16576286584370578
0.11379328922168531
0.12649853415436044
0.16222011444407536
0.15701884662678345
0.7131762515071098
0.8392677686595088
0.8544735285045272
0.8556736879723649
0.5251471209882037
0.25010697822374817
0.1889374222735381
0.22589746606422353
0.23704459130392155
0.2761052088597777
0.28178924493297414
0.24407603158412394
0.20497125390156082
0.1531669431495461
0.12006180228889642
0.11959537449388877
0.12262118993489418
0.12960572353762087
0.13749813201973482
0.1421788843334984
0.14633036971399707
0.11033356754956523
0.0743367653851334
0.03833996322070156
0.0023431610562697214
0.031877971617542314
0.05829655233412324
0.09315615882521884
0.12786419890243078
0.17562982608075928
0.1858322081631956
0.19247512510346335
0.19966653886141247
0.1805978843720683
0.18051514246529474
0.16085261182622074
0.1355392292872636
0.10787532621568931
0.08490345451066379
0.06588889325029597
0.052774255270665975
0.046724805703154446
0.04700197652386601
0.054196662708977696
0.06959008331630546
0.09129873418485891
0.11215468015443102
0.13175126056819148
0.14377636746584
0.14692528818920875
0.14115582812425925
0.13407849770367647
0.13220153879324645
0.11972879955140878
0.14160095470216916
0.1195720665550138
0.12519755598783924
0.1750004214780724
0.18022762193535122
0.18310141068602004
0.15150113483324337
0.35789717251700837
0.7866131374153188
0.8317232986432626
0.8539126438283571
0.7696142785669832
0.30253111535986665
0.2325871790385349
0.20043054212457123
0.21666308087369593
0.23131142241868408
0.20909168836004913
0.1960486062174559
0.17307955474666548
0.14922957885016577
0.13082293295361724
0.12044212730253585
0.11517816852458813
0.11747118037937375
0.1210463263449311
0.1216849041217697
0.11474714649200189
0.10511362464004871
0.09073794447677952
0.07497746005311441
0.04949945473314357
0.024021449413172732
-0.001456555906798107
-0.026934561226768947
0.020053731717529697
0.04802626737360793
0.08034674641170444
0.11910141589426432
0.16231876094796013