# vtk DataFile Version 3.0
vtk output
ASCII
DATASET POLYDATA
POINTS 5568 float
6.672690308184417 0.5303392114476161 -19.89281353144816
6.758547223788549 0.49860545772029613 -19.274887513136132
6.847893893866407 0.456099639487733 -18.651558394372586
6.936067960206018 0.40581304435295645 -18.026833218301867
7.011054765318397 0.35385640096508475 -17.38509505180125
7.039814145747491 0.30854984169148825 -16.754082478791332
7.017234593276933 0.2784090674488741 -16.142501568512497
6.939089727851726 0.2637131438023653 -15.54192327491159
6.795327426036109 0.2634472651457323 -14.954634781010748
6.5878646498642395 0.27245791911378725 -14.420894487650209
6.321291804608736 0.29204359702017957 -13.917563193497335
5.996452901310843 0.32655438485883126 -13.439579579570902
5.616366350501861 0.3777896466851838 -12.984821993662596
5.1779238440349875 0.44596568990466595 -12.545217797003927
4.678643426806649 0.5318866073527373 -12.119844548618795
4.119810619838954 0.6351051168646511 -11.710878843138161
3.5035013766870984 0.7524070645985802 -11.317903607508473
2.8417530940589453 0.8786567181345165 -10.941752928073305
2.152725954755476 1.0051193461812822 -10.580183475280318
1.4553682987692427 1.122125151549638 -10.227914063147892
0.7707909622835617 1.220493169098688 -9.876915534099538
0.11215765630648822 1.2953466449890225 -9.518843673239989
-0.5109839937482513 1.3441087341056936 -9.146620689376626
-1.0894799107353714 1.3678811710683865 -8.752399419234528
-1.6197649322566923 1.3665338073271873 -8.33029625012266
-2.099350354125712 1.344158842045667 -7.879828631424688
-2.5232583311955614 1.3016962257862739 -7.398524737393539
-2.8885125896250674 1.2389450419277463 -6.890508407778636
-3.2042712247772314 1.1561575634932315 -6.349551756874221
-3.459882436488689 1.0399123152682903 -5.77736431864689
-3.657758795816678 0.90906023941837 -5.15455569022365
-3.803885525086919 0.7790373362734779 -4.493128976455016
-3.888948480243426 0.6462038377735786 -3.7978858253442667
-3.913062069644995 0.5435591243204678 -3.097838453579018
-3.905818293981875 0.4298752440413911 -2.360805075984154
-3.8543772574316857 0.40680306664455945 -1.6867048053851645
-3.763206101084483 0.38765307787350584 -0.9702999603680177
-3.683057895341972 0.2702634381332191 -0.20734982328453055
-3.6498670286738792 0.19519731586530276 0.5222563327073223
-3.627860365662166 0.17488933315993727 1.289299244723535
-3.6948107811032957 0.08990305750952435 1.9399336734171766
-3.75146648097421 0.14172245025379343 2.5432031787714173
-3.779454683401183 0.22458762286658762 3.0661049161548717
-3.7800381223853496 0.11548402311388693 3.3390804102868774
-3.7637947553221403 -0.1859608265700588 3.5685977415080137
-3.6310880129171776 -0.7680197761165308 3.7116029854847583
-3.4686460156932877 -1.3006735341268452 3.8956096423573
-3.189779663122543 -1.904827617492113 4.01846979666887
-2.8328738511666836 -2.4737765858766094 4.157360081746673
-2.3946338976259027 -2.975852166258155 4.330829587492281
-1.8883694830860895 -3.379901234492948 4.555114898306354
-1.3294893494346185 -3.6831481470005194 4.836995271117075
-0.7912022937994619 -3.8687711305663988 5.187288037747427
-0.1780262535312298 -3.941445326441066 5.559174066625427
0.47461934758466773 -3.952098603248969 5.95040132915976
1.1595929990002694 -3.8921544429061052 6.341856586731283
1.8738551623842834 -3.7561076253574375 6.715686993039405
2.6256696344843222 -3.5400506294714953 7.059610650757856
3.404769352896407 -3.2421696886728384 7.347436178964053
4.1990310076957496 -2.867654214673455 7.55777588074418
4.953802918669725 -2.4487331646935124 7.6766956221062195
5.666188015616252 -1.9904512284590004 7.713368994674564
6.32199738904886 -1.5146053030702653 7.6842552005191935
6.914433753920146 -1.033625984127529 7.602303901739563
6.58853207503309 0.9102959874728471 -19.942193073962144
6.677623964410523 0.8656756429210796 -19.311268605932543
6.7730730389165 0.8115373914738468 -18.672906628236507
6.868741662699245 0.7478719273343531 -18.03869739135512
6.953248191242836 0.6824863604805715 -17.39522641821211
6.995083296635633 0.6225748169108954 -16.764002726985368
6.991548001058931 0.5751000339264719 -16.149684583078578
6.933549410772812 0.5442718249071964 -15.531662602784598
6.818029643486447 0.5280436091752861 -14.913244960466901
6.632588735033492 0.5187069455160895 -14.364291542487704
6.391495647981915 0.5195225137123863 -13.849614397112378
6.0949503307981825 0.5359537304560346 -13.3625552521457
5.742268084800298 0.5713823203830274 -12.897205482037256
5.328650865343657 0.6267190009443487 -12.44373805443486
4.847470656848083 0.703331820463472 -12.003856104556084
4.300736173545867 0.8003093688810093 -11.58374309878996
3.6926638845388133 0.9131210410881779 -11.184114574248287
3.036589392591509 1.0356667023107404 -10.805648148638024
2.3504225031963863 1.1590775031709055 -10.445604509703376
1.651930570385871 1.274302990189814 -10.099732951183013
0.9621240145530909 1.3723647799548164 -9.759754578017535
0.2942567246991681 1.448498796896661 -9.416918290482831
-0.34294292749656263 1.4999151865423763 -9.063221998072024
-0.9413027764221777 1.5270869107068432 -8.68977868302795
-1.4992907758394822 1.5280674700800416 -8.286951415003305
-2.009062690645215 1.507006570431939 -7.854933339031489
-2.465506722654398 1.463329113511047 -7.391094726645863
-2.8655637533945146 1.394976816793503 -6.897604952371244
-3.2190773052796358 1.3029356392691926 -6.365155730991608
-3.5056821183990348 1.1767933539689857 -5.801388873990887
-3.7304676165870143 1.0363332014344464 -5.186054930664823
-3.9047755897859044 0.8925718611984157 -4.517978636849114
-4.013183796476602 0.7511568029141116 -3.8210453576739045
-4.060326327284409 0.6208076991162913 -3.127106075600918
-4.052485129647072 0.49549734428293246 -2.3849973626533094
-3.982337847554313 0.47055952714894317 -1.7165267695834998
-3.8786840641258116 0.4147913261550635 -1.003841741756452
-3.7839463411203935 0.2595853834605352 -0.24081655319824002
-3.7462652832857413 0.12048084174299184 0.4301167116798972
-3.702588553517524 0.08759229513444736 1.2134847767363115
-3.772226435205327 -0.0915431705298663 1.7835145047460994
-3.8370349067466756 -0.11877496428118085 2.3371921098579977
-3.8688936786109256 -0.0642487487502994 2.8862403380799733
-3.875492186287098 -0.142744367883987 3.20658711750454
-3.8808709365471237 -0.3884283609939016 3.508499705056673
-3.737594646863129 -0.9515399857975173 3.65995179447676
-3.578288015907713 -1.4426460065250588 3.8955217166810607
-3.283927599645941 -2.0268178004394213 4.029614647091499
-2.909735699861116 -2.5752762589672957 4.185157261753037
-2.4502098380980932 -3.05237082634505 4.3839136626954645
-1.9217709735215833 -3.42226832755589 4.645971685765209
-1.3433880167914847 -3.685793535130043 4.976407781085185
-0.81472837948773 -3.8257055274331524 5.41681622369384
-0.1871867270644202 -3.819418161928467 5.843680011907887
0.48550325775338987 -3.7674370193028466 6.273667443696043
1.1978335528238602 -3.648596303736317 6.6903946992951555
1.9389685441711881 -3.4531664708117256 7.076826394492581
2.7204809426993974 -3.1814704690979823 7.419469127310564
3.5281061099753046 -2.8258108101475536 7.689357679178924
4.335331676231544 -2.397984698522812 7.867741782529528
5.0829044897264035 -1.9345636820467507 7.948283624348566
5.779041913807893 -1.4334363818687144 7.948644932004078
6.41080658831701 -0.9192449537502867 7.890244142153218
6.977489409849075 -0.4021604652478251 7.7878635896330834
6.668105462634941 0.551038827733765 -19.895503673187747
6.754136492124062 0.5186104902464143 -19.276878924981784
6.84381163253055 0.4754786446163921 -18.65274031263909
6.932389802388334 0.42446982648534887 -18.027507782752895
7.007892542691918 0.37178456487555633 -17.385685253199842
7.037362421026375 0.3256847309989737 -16.754676462346396
7.0158186132814295 0.2946034901326856 -16.142974145827075
6.93876132206254 0.2790399061074411 -15.541482047318704
6.796519681869443 0.2779208149811649 -14.952574616359401
6.5902657979238075 0.28593686803397694 -14.418051170867994
6.3251065822111165 0.30449699044097284 -13.914146063814469
6.001847460854573 0.33801307127268587 -13.435705407649696
5.6232926188951735 0.38837676070364574 -12.980398447246506
5.186236446371185 0.45584496941806796 -12.540059621167279
4.687962970033816 0.5412539800895136 -12.113907823520606
4.129799439199896 0.6441300430069035 -11.704339439616438
3.513943231880806 0.7611861447404786 -11.311002836873705
2.852505539656055 0.887233345329485 -10.93472604206155
2.1636345529458314 1.0135293475450666 -10.573239889749347
1.4662161448925137 1.130437854021006 -10.221320026982509
0.7813582342386123 1.2287885589465648 -9.870924210715668
0.12223171212890793 1.3037106694448206 -9.513686892056901
-0.5016581010716001 1.3526158039234004 -9.142480801363543
-1.0812081997315448 1.3765717640718886 -8.749403702065628
-1.61296256761293 1.3753503771503908 -8.328366086131446
-2.0941494826820692 1.3530479251168408 -7.878925374691243
-2.519785380573395 1.3105228193852223 -7.3986030017654745
-2.8868905769617843 1.2474740811389693 -6.891414706128445
-3.2046587741888315 1.164194505982044 -6.350961395223454
-3.4619322140076245 1.0474207451339375 -5.779267793012539
-3.6612610525351372 0.9160530233077634 -5.156896075089715
-3.8089017351765198 0.7852941623021079 -4.495134515433723
-3.8952286823842592 0.6519988934800595 -3.7998192915925104
-3.9205953694829017 0.5478517255156741 -3.1001527654015915
-3.91331921812236 0.4335376654398161 -2.3628471625916045
-3.860857407681613 0.4103640502514714 -1.6890682235220036
-3.7690130160933695 0.38922059186983865 -0.9729194358207799
-3.688079281563794 0.2697889336436088 -0.21001516004932963
-3.6546426257393194 0.19113684482373394 0.5161440032451557
-3.631468451969456 0.1701512028066631 1.2840525688802158
-3.6985289043859795 0.07986564487187232 1.929687846993225
-3.7556263677655712 0.1271831077822666 2.529925678926819
-3.7838194430943726 0.20852902469917567 3.0541890469138675
-3.7847128411136866 0.10104387812197076 3.329506915213227
-3.769656016296398 -0.1969436524603087 3.562562387047071
[...]
CELL_DATA 87
SCALARS quad_param_group int 1
LOOKUP_TABLE default
3
3
3
2
2
2
3
3
2
3
1
1
3
0
2
0
1
3
3
3
1
0
2
0
1
2
2
0
3
2
3
1
0
1
2
2
2
1
1
0
0
1
3
0
3
0
0
2
3
3
1
3
2
2
3
0
0
0
2
1
1
0
0
0
3
0
1
1
2
2
2
3
0
0
1
3
3
3
1
0
0
0
0
1
2
1
3
SCALARS single_component_feature float 1
LOOKUP_TABLE default
-0.011043432854493626
-0.048314187892691464
-0.01307390152005183
0.0180116309648953
0.11600976345146488
0.17568985108028184
0.09126886421492036
-0.04849660332536628
0.04285467905701751
0.052135060856057756
-0.13451920226485053
0.011243374558810654
0.046929628494246006
-0.18199715099823582
-0.07844980286753186
-0.047207920663761706
-0.09857595158606627
0.05320704337854614
-0.04185066341263623
0.03319110368050433
-0.040685061198798306
0.002286757147654559
0.0394991854599811
0.08164252491265458
-0.11019483539932856
-0.020319374069741603
0.03544275430845412
0.1557229296608688
-0.015001725067861378
-0.07815002128873637
-0.041289995881676894
0.02726492390316751
0.0785106484539119
0.11651222684955773
-0.016227736530315458
0.011444027524814281
-0.025552128949765072
-0.03879959894251249
-0.04111245736216365
0.033159019342994867
0.040052706141589595
0.04403057266465689
0.05065872070015411
0.0008535843669110962
0.005347696314035305
0.07263817255072744
-0.16679848060108768
0.03377236187794864
0.06547475909415681
-0.039745081968181994
-0.061236178669273396
0.04376652304788783
-0.033322973210107076
0.09186387833845858
0.07601293588493514
-0.24338631638713937
-0.018512190542406
-0.09805229247769255
0.04640893398099209
0.021468824165133137
-0.045557291775823086
0.04846989744588273
-0.07081565868204491
-0.05847629236037323
0.05593966920767624
0.049422606469125316
0.04816828506916161
0.012376694352259618
-0.047273054046178
0.056715078646597576
0.05508337997387414
0.047504582723911754
0.10254340918490043
-0.032495782809624334
0.08621560532207889
0.09297197948278128
-0.028894585086431317
-0.10316032371780748
-0.18497785591093907
-0.10250038458493305
0.023876489645944257
0.051374529321270304
0.2496052722205517
-0.046939631482946755
-0.16332898748039626
-0.02340594983694627
-0.09490208178748938
POINT_DATA 5568
SCALARS single_curvature float 1
LOOKUP_TABLE default
0.02053771411049694
0.04920457342963349
0.07829138183071267
0.11300710162168844
0.1501742416004016
0.18108909032990061
0.19640422188947773
0.20395383914958842
0.19921403599330564
0.17407039909877095
0.15250111795820528
0.13056186668820632
0.10955245307104547
0.09095087426020529
0.07178245492163837
0.05271901638608003
0.0395252803417715
0.03639281330808748
0.04445276690597461
0.0634347732485649
0.0873372734991562
0.10890612945775964
0.12987709477246717
0.1464858551149983
0.15405796130586732
0.16556529239826537
0.16573878708137185
0.15490420695190557
0.14781546671255175
0.13595959085436038
0.11060806628090461
0.13440787215019623
0.11931074407864563
0.12329482545991538
0.13653775602581705
0.10595591009951318
0.1614483804793811
0.21635044425398553
0.2322033673449663
0.7616893041088374
0.8307667692686828
0.8346277900962545
0.8358812438169403
0.4461568175063848
0.2562774837039357
0.20948266211326805
0.22889863814283146
0.23311105734475454
0.26219342527962586
0.2626105796669944
0.2233320715080219
0.18797085978968964
0.14174074997858968
0.11233635742493489
0.11644625717698515
0.1210958104562014
0.12683562367828874
0.13249144797284132
0.13247167952134714
0.13049856978629004
0.09603310087237811
0.06156763195846618
0.027102163044554248
-0.007363305869357684
0.019281280183025027
0.04523344213690758
0.06988950717848139
0.10027509274547487
0.1295118533553732
0.16866040706049784
0.18806960995770866
0.19991071386727416
0.2069975665485865
0.17871085224297925
0.16197819546556444
0.14319582614750562
0.12313749221141969
0.10481538814235322
0.08369716705599695
0.06228957747250983
0.04506812001833682
0.03736382496155031
0.04077367179730373
0.05470349946247418
0.07665031402801639
0.09857268152230583
0.12062136982182213
0.13961025350259088
0.14939865481727135
0.16538010290704944
0.16964109697224516
0.1598347554578308
0.15507661027402123
0.1374075093565671
0.11997965759701225
0.15435340830127617
0.1391855948863266
0.14448742703602188
0.14726825761149365
0.12624144795832143
0.26910435213266826
0.34594715319438823
0.3846486517477402
0.6557222556702288
0.6917132749416722
0.7151242258149334
0.7213096069975645
0.5154085856752731
0.3662709623255852
0.2711676692582652
0.25973829444023494
0.24088638261671225
0.27849023234896286
0.2858611509861947
0.23563931175532382
0.19828611851193292
0.14044131602939772
0.09877037363209804
0.11179827981467966
0.11993763570149095
0.12801961638665635
0.13482662424551686
0.13279506804271657
0.1278116245492391
0.09208250253678843
0.05635338052433775
0.020624258511887067
-0.015104863500563614
0.02044738753984644
0.04896835035944283
0.07782834850068822
0.11230650250525943
0.14901476720444337
0.18039508042208585
0.19595143388759567
0.20376041792303506
0.19969479043722643
0.17435731788140735
0.15302801624142665
0.13124425191498665
0.1102830044112395
0.09169794060132842
0.0724258214282833
0.05322556109928281
0.03979159383039944
0.036404611186946614
0.044209329705544635
0.06292599008347038
0.08674049213898273
0.10833821892111986
0.12937523752524543
0.14611843118741494
0.1538183686810881
0.16557689409359483
0.1659743301293391
0.15519034053840225
0.1482279961301387
0.13598755601922127
0.11097361171044526
0.1353278957055417
0.11984527383594556
0.12396611397617631
0.13646582050533118
0.106444157399287
0.1662030187703438
0.2223333373053656
0.23988649112800456
0.7555108044629442
0.8249119803665187
0.82939811357432
0.8307217701487752
0.4508439786848506
0.26179034654878464
0.21253526824457314
0.2305574429920901
0.2336299706030689
0.26323638871788607
0.26400923784564356
0.2239864906590798
0.1884387809422075
0.14149748172737664
0.11141695738978757
0.11612821368926396
0.12101253695408888
0.12689046544898894
0.13263264580416295
0.1324989352739613
0.13035904855545438
0.09582337885345725
0.06128770915146012
0.026752039449462986
-0.007783630252534146
0.02214692326541463
0.05286877874467435
0.08500537609347121
0.12307951022797858
0.16707925486796754
0.19117057187555958
0.20282958387569747
0.20636704283014007
0.19168149946127871
0.16957289862831326
0.14487883825203016
0.12091186864812731
0.0992466464537306
0.08038323448193621
0.06265679786014201
0.045744376264022175
0.03618402944054848
0.036737098259721414
0.048457409612622473
0.07101237230013999
0.09599237694635923
0.1170408035007606
0.1369763692564452
0.15161377939578796
0.15728145973347973
0.16512652107529271
0.1621016578171411
0.15062331530478434
0.1417422627252929
0.1359961439717464
0.10926069204282195
0.12549545708818363
0.11906753214174678
0.12050354285849074
0.14126799229845602
0.10596467027958825
0.11611508893939282
0.1541848482025819
0.14462838020661564
0.8430892913596304
0.893607224297475
0.8916274506007611
0.8938188521516136
0.36965988962978324
0.1881554596217811
0.17525674721049214
0.2062070541713605
0.22460983154268946
0.24686229242888988
0.24355264681057512
0.21635312720515287
0.1846680113373392
0.14811598291012645
0.12734316905435022
0.12187137926117451
0.1226234091757722
0.12625019384694336
0.13034639469764658
0.13197097073927394
0.13237824250229255
0.09891965608692667
0.06546106967156079
0.03200248325619491
-0.0014561031591709683
0.03202360480837685
0.06904350183240227
0.10858184294423977
0.15657848633214794
0.22460663708493478
0.2250481231993122
0.22246062843455133
0.20911409146414298
0.1595891965539036
0.15026266959131301
0.11934899431442886
0.0909003615786137
0.06721771152170246
0.046958217092465636
0.0333485036877629
0.02797450938103767
0.03197673968936765
0.04513213638704593
0.06884762906042041
0.09817149429724562
0.1251946496424695
0.1431544159590814
0.15839319881832944
0.16602555892034862
0.16469101862768057
0.16001823051735273
0.14687782379152373
0.13467092567566755
0.1202789844028057
0.13802990131969142
0.14797259006969526
0.14780576920683158
0.17908582036890716
0.16881889179719928
0.16153832038371876
0.21516324039184895
0.19523956811650736
0.19655133618534348
0.23442049078912724
0.927315722952512
0.9345557061437016
0.9377093356188192
0.9361178677885365
0.26461464228049736
0.2158953733854087
0.19142862692837848
0.1813060786775225
0.1863411344999017
0.20892395308025297
0.22783456386563308
0.24910505646066916
0.24051393324897433
0.215275146406228
0.19256749437578463
0.15114269607379077
0.1337561810332368
0.12857920773516215
0.12293620399419859
0.12897691710314288
0.1363170858774673
0.10598690114701952
0.07565671641657173
0.04532653168612395
0.01499634695567617
0.040018104826614456
0.08022956318906702
0.12187396138991947
0.17539017652730096
0.25545145354959187
0.24301497882930823
0.23141397641112077
0.2062666885539651
0.13815495661535837
0.13683130801208696
0.10519809480052664
0.0755797202168998
0.05068858112764029
0.02914174577657071
0.017953214628746692
0.021120451139198446
0.03346317838619439
0.054098048180173976
0.0837473286342883
0.11413380058678178
0.14148332287825413
0.15661603217222003
0.16816063208817783
0.17153877247176805
0.1660196232023256
0.15442799009775118
0.13620037115372718
0.12498342348295152
0.10807481726399551
0.1384778948421337
0.17727240233304842
0.17719510291520446
0.22649637966287
0.21003972518930777
0.17318492145414496
0.29264978324878294
0.2493171166187461
0.24077762320470217
0.31849808857394174
0.8512822813559189
0.85637718212907
0.8891439357126797
0.8787722358442628
0.35177537315918805
0.34303157691955605
0.21915244882342996
0.1966651082545067
0.16193630196657272
0.1841168027378048
0.22355038513405076
0.2688806049380303
0.27674381013281624
0.2597007930394083
0.23077483079007174
0.1736296134173096
0.14490652352247071
0.13380371532348642
0.11965664684761869
0.1262735932829581
0.136223166963409
0.10742958567126122
0.07863600437911344
0.04984242308696567
0.02104884179481789
0.02900050405415264
0.0645416881829872
0.10265336048311599
0.1483211505160296
0.21048823592168492
0.2167925091365619
0.21796537815129
0.2092669332419362
0.1683579281391036
0.15558621352931543
0.12562500016393416
0.09800480909041281
0.07482676074541192
0.05500604922174479
0.040469950090655904
0.03162302456375431
0.03212620637001093
0.04211326758551012
0.062916084539014
0.09130560977225671
0.11798943394702702
0.1369148809631003
0.15350938843143092
0.16293020189273272
0.16339221279332408
0.16181371821059728
0.15106452985270685
0.13879258898593658
0.12567292468870006
0.1375667538293747
0.13625440750967466
0.1384014557738467
0.1606724510735668
0.15337330587375783
0.15689059379188455
0.18430332484615222
0.17361858607760441
0.1812606859776617
0.19783000629298428
0.9322258527567765
0.9423534196294934
0.9403545148949464
0.9405398880000523
0.24266182299884553
0.16483441970744026
0.1788227654157892
0.17870638293166968
0.19672556244065895
0.21741864953767276
0.2268110210461053
0.23608361043565
0.22069562366012466
0.19410446747977067
0.17528527907127847
0.142440964961092
0.13000644757003146
0.12724348320579743
0.12466049550240789
0.12990470975810545
0.13575558615043476
0.10469999684770064
0.07364440754496651
0.04258881824223239
0.011533228939498263
0.01927707002379392
0.04521578582768384
0.06984884796909671
0.10021360850231097
0.12941435445892466
0.16860140981054844
0.18802883095831766
0.19988842452912928
0.20703003832258574
0.17873017065842275
0.1620233630012943
0.14325805511356396
0.12320477793615683
0.10488396028996537
0.08375599855887474
0.06233758950082452
0.04509862888404282
0.03737260433905277
0.04075994145333614
0.05466439950793434
0.07659969985378107
0.09852279852441996
0.12057604577332608
0.13957607145940765
0.14937459246535095
0.16537712815745062
0.16965792100418278
0.15985708574895025
0.15511036792556132
0.13742022273076418
0.12003624122096729
0.15446346158174637
0.1393275265108107
0.1446287931496913
0.14739313028010909
0.12640711818860456
0.2697128954943949
0.34665387552941035
0.3854094401977345
0.6552888867116076
0.6908913233942015
0.7144504351071734
0.7206789623334092
0.5156784729309306
0.3668426602579549
0.27148390364959085
0.2598895280130017
0.24091497484373764
0.2785503349385947
0.2859543753162868
0.23569488961509374
0.1983390990811966
0.14044968399342148
0.0987229136748989
0.11178132846064869
0.11993354597042448
0.12802601197948948
0.13483653019473307
0.13279568413574402
0.12779793545430798
0.0920628212798221
0.05632770710533622
0.020592592930850334
-0.015142521243635548
0.024033278562245616
0.05645474799960253
0.09089985221458953
0.13170982450851262
0.18183403072664311
0.19992002088037034
0.20818827382660712
0.20788291626228078
0.18436880890184154
0.16520198963398447
0.138302543236328
0.11287767334487975
0.09068703460523737
0.07155248845812613
0.054985849972841026
0.04032927520514161
0.03408740211892569
0.03783260732425977
0.05267505087022224
0.07779635181121018
0.10348607239699069
0.12394033061544565
0.14285866509500098
0.15575465838816896
0.1597027739013649
0.16435106380701234
0.15862855431707043
0.14673413728986243
0.13635772133021462
0.13644130668151122
0.11559169598157458
0.12607011826526068
0.12924092888764127
0.12789663746433452
0.1469696420514159
0.12657103301574948
0.1259462153646069
0.1514940850453388
0.1319545083528189
0.8939796595935534
0.9235021352744365
0.9190187794094138
0.922227499556763
0.301169089820571
0.15017123578021735
0.16529865976333116
0.19027809089414216
0.21596303528433813
0.23500599616520682
0.23205495190561617
0.21675573115658245
0.18963463465410188
0.15893578590746704
0.14242020855286683
0.1278044193646837
0.12451307294405252
0.12613235184569718
0.12839919713397852
0.131390953337561
0.13377378524606762
0.10116315549009124
0.06855252573411486
0.035941895978138474
0.0033312662221620937
0.02486182820323948
0.05790231568746579
0.09313690781413565
0.13492402832207695
0.187369201967138
0.20319146521213688
0.2101417801835981
0.20831330606452192
0.1814595565564265
0.1634607609239965
0.1358485459723272
0.10993960498240234
0.0875576208460667
0.06830853370732407
0.05215537214701077
0.03847029346862746
0.033500578934409934
0.03844264882119859
0.05444421028849386
0.08037134744257791
0.10628778817049349
0.12648648935176043
0.14499403030098715
0.1572300713838058
0.16052001436465024
0.16396830613868613
0.15725424056801227
0.14524043162669015
0.13431796055542358
0.13665302893883802
0.11908799128544685
0.12763800617659715
0.134526077445164
0.1320655246085546
0.14902558819239486
0.13709161088577027
0.13525553904368867
0.15671585504690075
0.14147539600551268
0.9075517255003407
0.930999552770541
0.9258303698288991
0.9285640750368919
0.27701179783496566
0.14003651239553888
0.16547288283505257
0.18584864135968643
0.21247361860845068
0.231161260131218
0.2294662098409328
0.21883168417916174
0.19371088327110575
0.16440411887773027
0.14845054866615476
0.13031394641113644
0.1253751476280386
0.12619921949524995
0.12766481688976447
0.13114121811819793
0.13423496886804673
0.1019341794291813
0.06963338999031587
0.03733260055145045
0.005031811112585022
0.018988180308427145
0.038536886647734137
0.05141828974249165
0.07282711007423344
0.08853435949298583
0.1433943288914426
0.16925302077272808
0.18695825817067707
0.21578745701174906
0.18380887229814857
0.1812825038865629
0.1723643275615399
0.1553394912461168
0.1377165542063148
0.11195464358408447
0.08573328655785985
0.06256558169136767
0.04597405598058098
0.03932410878663108
0.04129583114823726
0.05591347013479125
0.07657834327103795
0.09988235842580313
0.12338473343301956
0.13703218251451052
0.1617886670727259
0.17488467826306925
0.16804680480496267
0.16859740145050253
0.15012599631176782
0.15474986633960536
0.21517001467085484
0.22322759593277675
0.22017163733331852
0.251685776359822
0.24369840647792548
0.4988416620225856
0.6036530942156099
0.6292885608310947
0.5961662952043475
0.4034621373006889
0.5653041107658819
0.5881494368246674
0.6600466392500096
0.639330687215218
0.4036123930456461
0.3291765091564692
0.2438198308873284
0.27988530587886534
0.2967798939040473
0.24541183846735398
0.21257606920054534
0.15244005593236612
0.09485030942891924
0.10785509313024881
0.11847193433667502
0.13056337413397814
0.13732154048605147
0.13186295013899035
0.12112474747690771
0.08300822481969777
0.044891702162487834
0.006775179505277895
-0.031341343151932044
0.02171672405221661
0.05196578798862377
0.08342512865074757
0.12072783229287887
0.1630966342476258
0.18880133745120842
0.20134438509635286
0.2058651343431027
0.19354082959385385
0.17068339597890236
0.1466650812711325
0.12313829550519285
0.10162098648381512
0.0828233284442277
0.06476856066852986
0.04731664963429258
0.03688133180105806
0.036569866572434016
0.04743711852138046
0.0692046364460898
0.09396084825662901
0.11514784142391953
0.13533956439518063
0.15044341259492117
0.15656632447885985
0.16527413075411918
0.16299191721881365
0.1516494008882314
0.1431825256976928
0.13592692461556335
0.10874016683221287
0.1266685093814911
0.11784479332312844
0.11995902888625562
0.13979705683216825
0.10430089747929415
0.12177587823236524
0.16359808726662858
0.1597979050003514
0.8258561302539416
0.8821785728509616
0.8811647858672126
0.882877982692052
0.3885265507726914
0.2018686199255342
0.1812377602685152
0.21124416609993207
0.226760074448483
0.2503992196445989
0.24765195635977222
0.2174263123182946
0.18471829615835272
0.1460908287024849
0.12356300224249038
0.12046054144870921
0.12220690226210426
0.12634878278024247
0.13086345947295117
0.1321054658600477
0.13196177897890096
0.09826910033019177
0.06457642168148259
0.0308837430327734
-0.002808935615935787
0.02438899799155941
0.057083405400423726
0.0918801158396482
0.13312224435453862
0.18426447160001558
0.20135719627813653
0.2090498156331817
0.20808120906475935
0.18310230982882364
0.16444418461461427
0.13722433808211124
0.11158300804000677
0.08930811406447992
0.0701242129112969
0.05374051320490017
0.03950141045080835
0.033816397582578955
0.03808698014317473
0.053439040241716695
0.0789251104513954
0.10471670514005545
0.1250609685459927
0.14380097665327776
0.15640771047788013
0.16006770253517963
0.16418916993354976
0.15802996800155023
0.146080580695769
0.13546342937444217
0.13653254603619563
0.11707995681512537
0.12669499552583338
0.13149566659977344
0.12966474919207516
0.1478818487092843
0.13112106676765536
0.12994013040328778
0.15365223579371168
0.13558891319408303
0.9003446795049509
0.9270337246870787
0.9222390774359903
0.9252717957244905
0.2904139672254906
0.14549009276677097
0.16517080653412908
0.18820892501760564
0.21444600170885111
0.23327792168649664
0.2308011791676126
0.21754036035456506
0.19127959824954596
0.16124345740739796
0.14504560264231023
0.12888741158299907
0.12488073459167975
0.1261537566079281
0.1280765934041354
0.13128343599737202
0.1339806143626177
0.10150659897652753
0.06903258359043735
0.036558568204347164
0.004084552818256981
0.020695760320023522
0.03680031495974228
0.043099755921072486
0.06044578773637942
0.07105596067381874
0.13215897870125087
0.15969693603028343
0.17821966310082568
0.21503358851127116
0.18308309735373834
0.18962013808955924
0.1876059305414693
0.17298123433812618
0.15600148620128312
0.12781452161260842
0.0990785321557898
0.07384547225925155
0.05415060086818019
0.04283895087972737
0.03865813943589813
0.04848148788177639
0.06659872259735103
0.08958463601291489
0.11474279972610071
0.12968161033940281
0.15805919571286922
0.17535439822378898
0.17035248401419467
0.1736574715990654
0.16046864340033143
0.1777492791117301
0.2524056500436807
0.27222571308768545
0.260285172973169
0.3135052976645559
0.30946428742222354
0.5190416584956784
0.6317364814901175
0.6482615551658429
0.6480002828683165
0.4632458235977487
0.7166858249882452
0.726841140685191
0.7661111608514218
0.7682912802674565
0.4507004794627903
0.36594260648706983
0.2372415309637867
0.2626167015135951
0.2794496635505032
0.23403506731874402
0.20644499485291448
0.15621633385819986
0.0985473917854297
0.10703021556795639
0.11719341463989102
0.13077133772390803
0.13657636266420364
0.13016815680659016
0.11745610264932597
0.07858752264084674
0.03971894263236751
0.0008503626238882817
-0.03801821738459095
0.018808747182752588
0.04252653043204155
0.06323608780334003
0.09026968584655172
0.11397151679141368
0.15920281100972888