# vtk DataFile Version 3.0
vtk output
ASCII
DATASET POLYDATA
POINTS 5568 float
6.469254023940461 1.0523041479261666 -19.958346090412757
6.541554259679781 1.0018727713448368 -19.327209969578107
6.6454371966516375 0.9229936650278895 -18.659673914309316
6.771332441903793 0.8210755680939481 -17.955299874327345
6.900398579316915 0.7000595652830857 -17.168637693361863
6.96703927446034 0.571365904702617 -16.353868481718276
6.965850494645787 0.45644909886740076 -15.535089973925752
6.8887246370991395 0.36250223075975035 -14.802619613489213
6.731200244558163 0.2912868801199312 -14.152788456979698
6.5179834204434135 0.23825199498075816 -13.591256549099866
6.258769814763539 0.19956855717336816 -13.082667944219489
5.960262504404067 0.17930405889039616 -12.618582727873292
5.623823820097433 0.1783023347474716 -12.19028797308984
5.241051947824456 0.19809805908570835 -11.782308011948277
4.804167872525976 0.2401474081280958 -11.388496335695232
4.306226401519849 0.3045133105561818 -11.008009316805897
3.7384217075013444 0.3869742253587457 -10.638393513701633
3.110027982093011 0.48048797258363946 -10.283542353295047
2.437732042179979 0.5763726808350943 -9.943554870682359
1.7377413807100568 0.6661927988864279 -9.616937409556426
1.0340781364934852 0.743727304141842 -9.29725390980043
0.34578448401779194 0.8057763300407796 -8.975160742868027
-0.31342883559032164 0.8499331311030902 -8.641340759323999
-0.9285244101889639 0.8779531848943861 -8.284834182518253
-1.4909921339842866 0.8896785017881538 -7.897329520513301
-2.0001664922883085 0.8901826838584095 -7.474894634195878
-2.438007704936115 0.8782635636558987 -7.018227609188722
-2.7980159797736417 0.8515198650664588 -6.537902663209783
-3.0947830718705127 0.8077537516872417 -6.037600672596363
-3.329881800110857 0.7366763625096293 -5.507018896633313
-3.4963751100027425 0.6281827383612271 -4.935414742721656
-3.609043853470067 0.5214547533759473 -4.35765077062094
-3.672975237028394 0.3846526072556722 -3.7421964381545454
-3.70263419122999 0.17368689900645462 -3.1035788486924942
-3.653251446092032 -0.019746908772291488 -2.382403626266289
-3.5626506006154313 -0.18385280264948953 -1.8157319028369558
-3.440831130268365 -0.20591550893677749 -1.1178867600493088
-3.3151976903519915 -0.2572743979873792 -0.3940899025632435
-3.2352807489063995 -0.12090420292195436 0.5002388084681586
-3.168577590173363 0.14878068600652977 1.5501965344910913
-3.3488315602040384 0.36881703440861513 2.5601854182989356
-3.518385229318415 1.0676884043900903 3.8274426824034093
-3.582588442862738 1.1094867313709693 4.2551646626011355
-3.6287663689037974 0.8511141558931121 4.43243695069668
-3.7043119523441357 0.3841313417771243 4.655009218656083
-3.64864474974822 -0.3791505941403515 4.7195811121795375
-3.519603555337505 -1.0872084607516665 4.772397408748018
-3.2648753598619495 -1.8238827688537844 4.7736538151994825
-2.8937869115240846 -2.50510176778951 4.7937974260962095
-2.404258959257505 -3.097140831704713 4.86579949781646
-1.8262530870321019 -3.552993705798938 5.015748015265351
-1.2002157112205907 -3.871013961375852 5.248123945934233
-0.5956412384732893 -4.053823882809824 5.552008096197631
0.06201318899230923 -4.130585347501195 5.915785986355089
0.7419562253171761 -4.128147799584334 6.320209411499609
1.4395437789235654 -4.0531477458293725 6.733135888458384
2.1561874946367108 -3.9058548061657348 7.121257159906998
2.8900157799351884 -3.683674555565582 7.464353849376928
3.629975732226945 -3.387526602737047 7.735610159165387
4.40409687041937 -3.001494111603697 7.929471084551578
5.148246978166872 -2.5490355949022496 8.025972624260302
5.8533013663748985 -2.0417777352654642 8.030733749514335
6.500032740438345 -1.506997410535694 7.96364704671836
7.07293511690628 -0.9685384507140731 7.844832812823714
7.10232469531769 -0.7067213185440528 -19.736124220389602
7.209177510050699 -0.6962698599552376 -19.148920820077066
7.270899719946511 -0.6722668230390282 -18.606691338030807
7.29776775924653 -0.6365781855069507 -18.108054388988243
7.293824378528153 -0.5880076918970267 -17.673136801254973
7.267011268627794 -0.5208513305237062 -17.29214997371373
7.209111540318816 -0.4406365377218776 -16.954708262990412
7.115911967089373 -0.33708664191775994 -16.545400005709656
6.968741694166608 -0.21503613441911906 -16.06327285320762
6.746259392019089 -0.08540523003517375 -15.570795810514058
6.435463027478762 0.05713372953218532 -15.069384315923283
6.025535253516245 0.21580438703468569 -14.560032702659894
5.525946526778539 0.3894546323638486 -14.055030908271522
4.947677550904574 0.570849945820826 -13.561730898851152
4.304372802106986 0.756535477182837 -13.086315773247806
3.6138818458097757 0.9444447490310286 -12.632182737831494
2.8968373339037212 1.1344003542443575 -12.200572631510521
2.166879656216846 1.3267870460132851 -11.785960775137957
1.443028706469132 1.5133590216942359 -11.382100224538567
0.7479735168581392 1.6819823908330669 -10.975970122340712
0.09594100477960443 1.8186022612256376 -10.557006951655287
-0.5108189248698026 1.9158914046526525 -10.118624563638459
-1.069152540933103 1.9713456731646701 -9.657855404879465
-1.5777754188976232 1.9852965997058383 -9.172753855298659
-2.038399081095676 1.9588023473073788 -8.665292928575706
-2.4495592501252657 1.894141926841408 -8.141127741435685
-2.827157219608097 1.7962558774059207 -7.593100750124063
-3.176000952852679 1.6695096872332957 -7.015703797132652
-3.4970272776435767 1.5176270882351506 -6.38610186476809
-3.766227164049402 1.31995816362385 -5.723559340105452
-4.001549465059314 1.153847658663756 -4.996929353640782
-4.189929636543108 0.9896952713502422 -4.178506999328607
-4.296548799351948 0.8745934537097633 -3.3291158942727455
-4.289843798744131 1.0110496325827905 -2.448303042163503
-4.359764700147114 1.0483541853304248 -1.657796680612599
-4.414285783667976 1.355727348904289 -0.659832204687586
-4.389130336201062 1.3726188086417785 0.09962146263284943
-4.4082433154490035 1.157876908225591 0.953385125412123
-4.448004476514779 0.7919471327528307 1.5752487760057052
-4.500032018706731 0.37392378576274937 2.0939419849714445
-4.430353510159502 -0.06824591607274966 2.505651407482554
-4.381853501044387 -0.6896996222405578 2.760648224173539
-4.321923024217154 -0.48638757109959363 3.469619656929524
-4.1962829606449406 -0.3176882978701958 4.129444807780357
-4.032855856720399 -0.4834310795947625 4.355129251582272
-3.781879106725384 -0.8693221750119813 4.621097591778172
-3.5375405857192392 -1.2418356614080028 5.000896481964913
-3.204284058039632 -1.7067161117573297 5.324707201814224
-2.8559137709589555 -2.154638139583112 5.65482159075304
-2.4924683052299086 -2.55971836765119 5.981106905548914
-2.1017469448563544 -2.920599595880296 6.303623138843267
-1.6566798816396222 -3.2367938998464387 6.635382284119697
-1.2083030692792387 -3.4671262464078483 7.002225872081875
-0.6744127283467041 -3.5936066564740625 7.348506966319277
-0.07923432906285155 -3.6737974570023733 7.690116641964958
0.5664259997164277 -3.68407230317531 8.027791817139017
1.2582115381876169 -3.6131380653066896 8.368646805917994
2.020602533153945 -3.451973940126936 8.716109754807825
2.850936972111861 -3.197812382456268 9.05027869987988
3.67616602369765 -2.8852597336261425 9.3178935977488
4.465755080233144 -2.5565829861907248 9.509539332545794
5.218304827057549 -2.2091790287141775 9.631965082647392
5.925658560455571 -1.8538591782175153 9.691179329151408
6.58940490839781 -1.4881996537957956 9.687310603168726
6.960841808403508 -0.3136024893138858 -19.78578785689632
7.060065070021107 -0.31641244644240135 -19.189624194634145
7.130401678865149 -0.31350573474384164 -18.621946136773968
7.176410035641361 -0.30440814789523324 -18.083506930125687
7.1958575865239975 -0.2853860924071728 -17.58392037064389
7.184297936675524 -0.2500734343446781 -17.126471446281627
7.134663448270343 -0.19999266669555038 -16.707073352780863
7.044562089042444 -0.13216074746724227 -16.240625627476568
6.896548018607696 -0.04979763799986518 -15.728966365109606
6.678119401897409 0.03945206244866806 -15.226253075295613
6.381607573228952 0.13971333202349556 -14.727390503845793
6.00060837621126 0.25462016750934924 -14.231639883277138
5.54269347691972 0.38434453774409644 -13.746744566110877
5.013629716199078 0.5248398257516127 -13.274734959858245
4.421418351630434 0.674422712403443 -12.819054386617243
3.777664611578926 0.8317670521830415 -12.38236719263336
3.0961258505729314 0.9957132465206425 -11.965327897184705
2.3900594892424154 1.1646020077597847 -11.564780690235576
1.6784852616240078 1.3299530081970228 -11.175960377927359
0.9831893849573281 1.4803868284895652 -10.788484075194528
0.3210493240466096 1.6034577987236724 -10.39271202111498
-0.3018434403929886 1.6926130130926251 -9.981549787354709
-0.8800859577814318 1.7453364327088987 -9.550777222436125
-1.4097962228650434 1.762333655783736 -9.096508455723432
-1.8908660383478857 1.7444813611577505 -8.618233706442853
-2.321984932914551 1.6946862501864228 -8.119273187703888
-2.7120356911213634 1.616739219107175 -7.5939485169908885
-3.0629032305292334 1.5136953580534303 -7.040338364913401
-3.3780894691358396 1.388028057490749 -6.4420223928092115
-3.6391010045385057 1.221250666469499 -5.811400074925237
-3.858044716823477 1.0689335598476897 -5.121132612258032
-4.0279622675126 0.9186679876431757 -4.360194051136328
-4.124187935303547 0.7976776362418594 -3.5668138501761892
-4.126495500556906 0.8469743184653514 -2.7581925078864815
-4.168703798395132 0.8316574459387653 -1.991264143225136
-4.18299223756948 1.0065227422427578 -1.1244093039200804
-4.135721679152826 1.0144564769990776 -0.38036077953538283
-4.120250382871026 0.8395631999451114 0.4388353098302973
-4.134922351026879 0.587266944354268 1.0879988361188875
-4.162834371934198 0.31762344940381054 1.658568471656876
-4.140504850668242 0.02616555542472726 2.1268852925755755
-4.130919608065253 -0.27703000505002523 2.441499559514786
-4.104726004324145 -0.11686362535047853 3.0774646987041976
-4.035960267851825 -0.07875247955625994 3.5545148051642848
-3.923306018735503 -0.28787022667521345 3.767133602206369
[...]
CELL_DATA 87
SCALARS quad_param_group int 1
LOOKUP_TABLE default
3
3
3
2
2
2
3
3
2
3
1
1
3
0
2
0
1
3
3
3
1
0
2
0
1
2
2
0
3
2
3
1
0
1
2
2
2
1
1
0
0
1
3
0
3
0
0
2
3
3
1
3
2
2
3
0
0
0
2
1
1
0
0
0
3
0
1
1
2
2
2
3
0
0
1
3
3
3
1
0
0
0
0
1
2
1
3
SCALARS single_component_feature float 1
LOOKUP_TABLE default
-0.07095708372107201
0.12574272217719434
0.08178292803066842
0.08948212526911711
-0.023040159508168914
0.02288473921561649
0.016024049232100032
7.611653242615112e-05
0.02499101912025923
0.03571227578215102
-0.020131339943549938
-0.13111195921037266
-0.02344490600454905
-0.033037937324800565
-0.08528677244446306
0.029720488608708392
-0.05813616307320418
0.0082344279068144
-0.008287446445686481
-0.042012622297475086
0.09768436536646488
-0.0017954955085720675
-0.027616820064150473
-0.041160513843097705
-0.06347280525065158
-0.12553571345621803
-0.14317372644069015
0.1967985239486549
0.0576209930858927
0.0671677544933196
0.021774768808193512
-0.007449564182480023
-0.0733865661943443
-0.09266635810139265
-0.11836209111150905
-0.05713400480258243
0.016251811440556867
0.06077248285841544
0.08292809970794573
-0.02262110913052593
0.023119924676196738
-0.034177254185855835
0.09392296336424176
0.18290864323585326
-0.04927585296543158
-0.04500935717193654
0.04914424561379334
-0.0020094295412487126
-0.08548496594628119
-0.024940488957240797
0.06824764408083209
0.03086617967200568
0.008675082624116828
-0.06334191659932406
-0.07265008279182054
0.007203876754573971
-0.06640002083579495
-0.07724943632639736
-0.009606858128423629
-0.08088499789546755
0.10668148059037538
0.1480882315974831
0.048586719787475495
-0.013653293364280672
-0.013314194950621468
-0.06064514385599196
0.018896919318242972
0.10921052639123792
-0.016725234987640804
-0.005893890599107075
-0.02036136124874079
-0.016380689046164534
0.07497368302558599
0.002386698349935254
-0.017574834970203283
-0.03416090654425849
-0.08037662653105966
0.004225486150081954
0.05309443020329797
0.003171088584858959
0.03545330639317229
-0.05317270377172932
0.048813957091143736
0.07019478314429992
-0.06616427454749003
0.041061851510880945
0.014697560077882268
POINT_DATA 5568
SCALARS single_curvature float 1
LOOKUP_TABLE default
0.03441378240022017
0.05795651272084784
0.06448330338715745
0.09201437557794298
0.14134379410841097
0.17488650564315986
0.19923300797007654
0.2091967333607682
0.2015246646883373
0.1854652593861583
0.17190254252545312
0.15540211322247124
0.13525235798824928
0.11454421279770911
0.09257733065387867
0.07104170527341402
0.05105013783875276
0.03802578140969839
0.03684211493077065
0.04831554357214273
0.0730517894717108
0.10098179802635916
0.13495400797324753
0.1664047221834467
0.18425404833580683
0.2020787503554697
0.21148344167850816
0.19579016658754764
0.18245734404614808
0.16915508706514656
0.14938757004700975
0.15789308094224164
0.19413948559705968
0.16751190675100694
0.18195824162248783
0.15612681727888214
0.14149433973026646
0.1638713991849008
0.7023898568364958
0.946149889046392
0.9447497634820979
0.9503456600148887
0.8062619860568281
0.2208020847003065
0.2296262123566446
0.20619915007031336
0.24432380694514708
0.2692947823177573
0.2911709761227527
0.2775248402030416
0.2337556565140296
0.18601956472401518
0.13756786405254964
0.11797300087571282
0.12128483001810511
0.13016381082605502
0.14156869530725338
0.1481228736630721
0.1450670085351278
0.14091510371638197
0.10191068022984888
0.06290625674331579
0.023901833256782704
-0.015102590229750384
0.11933847003329258
0.18130122717444375
0.2313294657867511
0.22150233178910428
0.20222200631098816
0.19137665597151896
0.15224371220700317
0.1665120893312009
0.16937407397035387
0.1425319919622531
0.11500175839750156
0.09063515720642205
0.07073691569487688
0.05333724096124413
0.03612009434418802
0.028544873224838316
0.03474163050430937
0.05183498773984539
0.0788619907888549
0.10445177303122014
0.12143650441098834
0.13225946419102252
0.13169787356616378
0.12369223537985159
0.11388611366235683
0.11183948372343983
0.11001808184825121
0.10806487126995065
0.11656678511052691
0.16683976455626096
0.1892137327695713
0.21050823569292787
0.3000048394341929
0.2833722078310096
0.3455756781307986
0.3578999690121231
0.33868568017980416
0.3840079030356511
0.5304639458292234
0.5166169367325347
0.9406275373684208
0.9363896117338991
0.9000862907561825
0.9046705267478952
0.22797960163561704
0.17260699507879768
0.13624239374046707
0.11297455682744215
0.15788976747231548
0.20831793720223654
0.20801581528698107
0.20219283265934102
0.17660641938991248
0.1276506365181383
0.11901863960431402
0.1096603828319975
0.10095426936305997
0.09948044444169728
0.10184435794473905
0.10624327201151447
0.08236645732037681
0.058489642629239155
0.0346128279381015
0.01073601324696384
0.0666079403745486
0.11074146649166763
0.154060135119114
0.16931774628936627
0.17887903295043564
0.18934102946483522
0.17587365462795826
0.18323044788704737
0.18045639139473763
0.15320075221809515
0.12598576355884664
0.10128914508185213
0.08071964282072215
0.06317833650722436
0.04594956502702306
0.03345019472799288
0.03343671515736463
0.04422275315261467
0.06545303689771882
0.09121451250449115
0.11110641876628252
0.12537468978310268
0.1315436834429058
0.13110315142440182
0.12665213443836168
0.1286423503117566
0.1248446752406069
0.11984388456512089
0.12250848344985035
0.15851011470777035
0.16276563911555422
0.19039606471058917
0.23690945822146317
0.2233252937013456
0.25911055495771107
0.23878470111863628
0.23224637310047058
0.3171898633007222
0.4404459281977074
0.5202209712230512
0.8853186878646039
0.8701761080262719
0.8276835940253653
0.802457018065421
0.2300194683148179
0.18491408955736238
0.16942721690789098
0.1578719902307385
0.1957696857955837
0.22401228038087284
0.2090605269828476
0.19358456806745725
0.16134651579369727
0.12227629617334305
0.11791258472828305
0.11333081146363586
0.10960006536594945
0.1109230652385059
0.11325483941678373
0.11575189128853056
0.08822434986193455
0.060696808435338534
0.03316926700874252
0.005641725582146512
0.0745608016022067
0.12110792062335203
0.16531466273480327
0.1768065438371349
0.18202164545863111
0.18955701572064687
0.17226081992397663
0.18044812989031248
0.17858689738057706
0.15131827786778138
0.12396520053299101
0.09927624907270695
0.07881818733628283
0.06132297425286417
0.04412136027996525
0.03245312073019974
0.03354688678542616
0.04546310287374583
0.0677458100236649
0.09357061310752955
0.11296726880170992
0.12661039515690048
0.13153587860351998
0.12969930798980256
0.1242712040406502
0.1255359710180853
0.12194203880813102
0.11749830604075966
0.12119998773901955
0.16032313419568722
0.16800312665391312
0.19474969432799372
0.24863923318583184
0.23412329544306043
0.2754744982912395
0.26180453499902817
0.2549630079751093
0.34553319501739316
0.46937118650826765
0.5224127400447874
0.8994032375332457
0.88389438001179
0.8420527628865196
0.8279281820718474
0.22996678947177607
0.18337579626031197
0.16379465241241756
0.1500620739271496
0.1892384776398936
0.22108930775977859
0.20855342774164973
0.1948541945766547
0.163727405960635
0.12306342892870846
0.11804059732660492
0.11264772765711195
0.10805329145399639
0.10891747504797794
0.11129385958778945
0.11412522341217271
0.08723802933424854
0.06035083525632437
0.0334636411784002
0.006576447100476029
0.024506403584378143
0.05172623815768656
0.07355620904029489
0.10752542179410987
0.15157098767145782
0.1822830105613511
0.20067467500887592
0.207899170212033
0.19921757396437031
0.17722929964549866
0.15679854130038104
0.13550282482797996
0.11434313199155761
0.09509004732542499
0.07564032009221865
0.05641064232984284
0.0414861527599023
0.03609497335430466
0.04210491135420447
0.05973897740035495
0.08478589967473202
0.10830170745170734
0.13321770277729733
0.1540534831061723
0.16438159381380393
0.17694198591206473
0.1784428687601494
0.1657111746544236
0.15558554476984585
0.13554517269693778
0.11039884929975366
0.122666722056832
0.12207816559947722
0.12547535583151756
0.1476038647206765
0.12390915418624635
0.15115018737201208
0.19051772908544834
0.25909753460168444
0.8753910960164939
0.8976634322499241
0.9017158702248457
0.8866731863783015
0.33378429702290013
0.22841121674171558
0.19782168568406833
0.23017593515893228
0.2454375208627557
0.26962799619821926
0.2629724670208517
0.22430775370409486
0.1853450641172853
0.14071488590133088
0.11740322215829498
0.11901364150881531
0.12424651079506024
0.13143930600900494
0.13724248399571468
0.1368926964529018
0.13482382774044985
0.09904234628574494
0.06326086483104004
0.02747938337633514
-0.008302098078369763
0.023985337854699716
0.05618545966721107
0.09330612468544218
0.12782350815907437
0.16168134808146933
0.1868216789614477
0.19516831293664477
0.20055203101199096
0.1928909138806188
0.16732257140943815
0.14266220167602373
0.11891510715205682
0.09771273608318655
0.0794697114278824
0.061478119169696345
0.044231097564204444
0.035634127211949404
0.037479306380512466
0.050310011758267804
0.07308991430075988
0.09641231426779795
0.11573578709410717
0.13211981665525996
0.14319076082449161
0.14672652756657986
0.1545010550727776
0.1517171030539898
0.1423136018608191
0.13723232633373825
0.1414867845024579
0.11894170681502227
0.1456288455597775
0.14054711670445658
0.13892335256322896
0.14569343640392332
0.10181645422982792
0.12111429851296295
0.15103924629362098
0.23870958342197085
0.6921218877960151
0.8331674714387646
0.8376661875081505
0.8171529543362871
0.5251573805582184
0.22805778237711716
0.19151481370241907
0.20790306844322232
0.212468197888097
0.24141505621028778
0.24665495769251394
0.2161781691106796
0.18703071976975302
0.14716805272270794
0.11830908086838135
0.11787551853203859
0.11910401014958506
0.12174837168946127
0.12603265026660151
0.12737052793469233
0.12730277043800928
0.09498565978219596
0.06266854912638264
0.030351438470569328
-0.0019656721852439885
0.02206216354026547
0.05336994091850597
0.08886594176147164
0.1243090882608864
0.1601007277827151
0.18631095641705073
0.1964841202494442
0.20202040106829633
0.1940565816319349
0.16889043547059066
0.1447256740231964
0.12123333242396983
0.09999732187551032
0.08162958431592533
0.06347360305170853
0.0458858817350959
0.03629970825363096
0.03707517943463927
0.04889729954185913
0.07101458671257221
0.09467151243766012
0.11461085265833211
0.13224760466849955
0.14474111782842544
0.14926239020136317
0.15773657618926973
0.15539229423285938
0.14547611022695342
0.13955768724826492
0.1395502596076235
0.1148973831631791
0.14019473081790104
0.13097012928637644
0.1309557741521048
0.14050960606822666
0.09960907962731975
0.12533750931870696
0.16606871914267746
0.2338526972529012
0.7310557124566894
0.8429196012166581
0.8447172759321302
0.8303880160713542
0.49139457052532204
0.2278712057220938
0.19218439587259262
0.21172255225464523
0.21800056836033607
0.24608575118673984
0.24920845430212152
0.21728994751870465
0.18660577919259463
0.14596296317628552
0.11806489912698019
0.11798046134602942
0.119837678576509
0.12318909770631976
0.12774747311440016
0.1288871330539797
0.12852031445724535
0.09566659421477612
0.06281287397230689
0.029959153729837665
-0.0028945665126315634
0.021073135681194607
0.05053673164367074
0.0808537036886746
0.11686026029176726
0.15655255307659702
0.18489829910105318
0.1988510068159916
0.20493763224226907
0.1964812359449425
0.17242893763822523
0.14959649377188564
0.12683961967526725
0.10557406351120413
0.08688062197419996
0.06827232635189201
0.0499828721147043
0.038140555865169436
0.036412254552379786
0.045873674959235604
0.06627682186657387
0.09062364999328289
0.11201092453285462
0.1325939775014128
0.14844722375391048
0.1553001181111772
0.16542128345728033
0.16436972218602577
0.15327781780474853
0.14551225801066348
0.1358991928120984
0.10912062565729881
0.1299839279151888
0.11758746684260121
0.1207117110049514
0.13770006099961518
0.1041682235198201
0.1385067579963049
0.1868170481002337
0.19334329407995177
0.7943858150431119
0.8590248679734713
0.860066896327316
0.8612175411167909
0.4191454827409698
0.22775620316153017
0.19408375750916504
0.21995856017980311
0.23005535274164884
0.2563356775091588
0.2550013152708736
0.2200313182711016
0.18586252547847884
0.14349777448434595
0.11765181833775068
0.11831280696379334
0.12159061185389021
0.12654990714498593
0.13168258117387188
0.1322894814147039
0.13122757810961633
0.09715065766985401
0.06307373723009169
0.028996816790329366
-0.005080103649432954
0.024765887258224394
0.057253972585885264
0.09478484568311302
0.12894428450321996
0.16217552910945268
0.1869671172085139
0.19472726915976157
0.2000760554172079
0.19251910217247603
0.16683644428188607
0.14203298383495916
0.11821467577280498
0.09702486826789058
0.07881827433970932
0.06087364456694189
0.04373785660611198
0.03544610101184284
0.037618701481804316
0.050758085119434325
0.07373044057699499
0.09694632285464401
0.11608167148237876
0.1320831474857992
0.14272030937145952
0.1459556982230792
0.15351649185696506
0.15061151524447594
0.14136597821098768
0.136546049899303
0.14210558816633684
0.12032363421092436
0.1473739141238287
0.14375724022990802
0.14162774104514064
0.1478422374806339
0.10312628859308678
0.12034385999788472
0.14575891377114555
0.2386221378487177
0.6787193634696697
0.8299421943165409
0.8356876804042632
0.8133850212107939
0.5357583159165941
0.22812822824017953
0.19132195828928686
0.2066987093787205
0.21072942799281263
0.23995052952458887
0.24586455031339063
0.21584603892261806
0.18717437931669098
0.14755592536980705
0.11839243961124317
0.11784789042570726
0.11888126583150835
0.12130680477750026
0.12550374845151074
0.12689881780953988
0.1269228749283303
0.09477165958757833
0.06262044424682636
0.030469228906074397
-0.0016819864346775681
0.029933404152083447
0.0640036141092741
0.10310418310714209
0.13498258585143338
0.16477294248801355
0.18762809688923143
0.19220614575385547
0.19747414080010797
0.1905301073574707
0.16433124836641355
0.13886361618773352
0.11473126670586688
0.09362013684073665
0.07558553528564826
0.05785524456118601
0.041344843831584696
0.03461433133249096
0.03844585201456797
0.053148701733622045
0.07700993515959012
0.09965932479967693
0.11784455164189996
0.1319151356226505
0.14036699833127095
0.1420896362861807
0.14857026682033841
0.1451501239488977
0.13671130125253003
0.13324885062120378
0.14535233975672557
0.12802087675817905
0.15647155642842905
0.16117541199863372
0.15646408310630744
0.16293299547468237
0.11525197749273647
0.12229551257058892
0.11530289272028431
0.2280956964623345
0.6006700788477809
0.8126780323571232
0.8283180115337533
0.7979297329072802
0.5907508083398263
0.22855521376893118
0.19039339853413123
0.2003469399649036
0.20159649235231492
0.232279948057672
0.24180039196105976
0.2142286499765266
0.18800446426031134
0.14966296129553855
0.11887990342797164
0.11774066509458174
0.1177658209359959
0.1190653960914937
0.12279509508329277
0.12445508831172962
0.1249464727858255
0.09364746002633581
0.062348447266846116
0.03104943450735642
-0.0002495782521332729
0.02393931995755116
0.0514193992813306
0.07430064784250101
0.10861913362250132
0.15219282282442267
0.18264858026971603
0.20054391496224624
0.20761012813070667
0.1989272991289643
0.17665004126750677
0.15588541014449225
0.13437808743491492
0.11319385840861888
0.09401674902810317
0.07468556099638113
0.05557523233968405
0.04102153112198144
0.036092953734167176
0.042538609437229376
0.06053357238870534
0.0855168357996184
0.10876349965077199
0.13313136844277382
0.15333381597945298
0.16321870313921683
0.17546870939610956
0.17660391373427944
0.16407304940722375
0.15422004443508872
0.1350727716767309
0.10958988098418615
0.12299149988410288
0.12038231201133205
0.12421388999218974
0.14608280019813602
0.12129192090418703
0.1502328390944134
0.19113146366892517
0.24043006209858783
0.8665980809686734
0.8925701734135553
0.8963047030470823
0.8853291544245951
0.3432271120310231
0.22828784978428784
0.19729663563297095
0.229007699048999
0.24364088938389242
0.2680590748494183
0.2620002352938991
0.22375415787751335
0.18537626356488174
0.14101604530786815
0.11741343779078312
0.1189112248437646
0.123904969904109
0.1308234387191908
0.13655304261524054
0.1363358964798943
0.1343936878952237
0.0988218366878764
0.0632499854805291
0.02767813427318179
-0.007893716934165518
0.044125808643123404
0.06405301542719556
0.056648266251869556
0.07703560640132445
0.1285423193582289
0.16280058224777205
0.189853692766874
0.20206467239424905
0.19713216150060175
0.19120415949345376
0.18996017645439187
0.18355506212380743
0.16695075541449922
0.14409539814772548
0.1173468577567851
0.09135107332161356
0.06712871751712468
0.04512808831574264
0.035046552194669955
0.03888371828039569
0.06017458037837204
0.09285623806658709
0.13789278686265696
0.18280743697155927
0.21057582242444603
0.23545867666287884
0.26007736555650024
0.2421613182739732
0.22901010013583784
0.23673587799687043
0.2176482013070565
0.2679110830871543
0.34782057581668213
0.2975611034957444
0.28540248783431516
0.2051717412530995
0.12058445909135443
0.12158031157067661
0.9935025659633206
0.9968592772694942
0.9967479927600256
0.997155818155564
0.4863101082942731
0.19580567102634666
0.22138615901443506
0.20750123793812775
0.24897694800622755
0.28510941505001886
0.30735750046218374
0.29142068184780284
0.24539128614358147
0.18913144947583985
0.13750158038181695
0.1201723828533442
0.1256570485077579
0.1383132520315123
0.15409784574241764
0.1603521495317565
0.152495370048807
0.14574690389622985
0.10340576752930553
0.0610646311623812
0.018723494795456874
-0.02361764157146745
0.02458677667547353
0.05177083300924932
0.07345540707081097
0.10737490234642058
0.15148452125696088
0.1822313281570894
0.2006907066234895
0.20793747220934988
0.1992566837122601
0.17730928374570987
0.15692571747910625
0.13566010775016984
0.1145041090861381
0.09524032945459385
0.07577381138655243
0.05652743313822917
0.04155181656453754
0.03609623850893238
0.04204552448455299
0.05962916010660421
0.08468430368901024
0.10823758026663481
0.13322989331960933
0.1541539289301107
0.16454384239007616
0.17714750292677992
0.17870028828022747
0.1659407960114889
0.15577784137371312
0.13562581561896317
0.11052756086961633
0.1226386996984608
0.12233702822296663
0.12566007814311467
0.1478167352637278
0.12426951214169947
0.15126196297597042
0.1904154231312156
0.2617906292040486
0.8765403485347336
0.8983364913648075
0.9024308023473342
0.8868128837013622
0.3324988337459398
0.22842894629086402
0.1978956401569445
0.23033574374252158
0.24568432205232843
0.2698439227126021
0.26310700474270476
0.22438507644558192
0.18534145797498172
0.1406740617956525
0.1174022559480191
0.11902821613015308
0.12429419948317807
0.13152500668473768
0.1373381725186325
0.13696964585284832
0.13488315444177065
0.09907262068353602
0.06326208692530139
0.027451553167066753
-0.00835898059116788
0.026561157728219056
0.052925901150553165
0.07123622235107066
0.10392012304527601
0.14943782700376473
0.18094900244528556
0.20091954864624292
0.2087081313585442
0.2000903326960715
0.17915891776509887
0.15994690367502054
0.1394434281443887
0.11839601046657805
0.09887008934431127
0.0789840898544524
0.05933296642996937
0.04318184516022672
0.03619815122695464
0.04070846963735857
0.05708380770662085
0.08228527148646807
0.10672747926015813
0.13353145235868363
0.1565560039837684
0.16841988347566372
0.18205483797104893
0.1849109818342074
0.1715039242719225
0.16050195198864134
0.13868196769863952
0.1147718761159468
0.12336574808358058
0.130148165067075
0.13066161660546297
0.15294489719503948
0.13242991193440315
0.15280219572472126
0.1869981735282273
0.3323601119079388
0.8991684190083963
0.9119407049393589
0.91686611550373
0.8865930916476609
0.30398271307451963
0.22887054165713935
0.19969363381539015
0.2339251573043711
0.2513056102972001
0.27479128047618395
0.2662411983961878
0.22623639933445397
0.18530700674227793
0.139782209075036
0.11741093054383886
0.11939678093311933
0.12543620119168686
0.13355636165863663
0.13958829833915068
0.13875530374188366
0.1362512379345784
0.09976067624190203
0.06327011454922565
0.026779552856549274
-0.009711008836127105
0.037095014293961275
0.05969871771188586
0.06241638201745842
0.08808621551776068
0.1382781922868023