# vtk DataFile Version 3.0
vtk output
ASCII
DATASET POLYDATA
POINTS 5568 float
6.600205188182517 0.9814128237264033 -20.205048485480972
6.680225022960457 0.8944647189546677 -19.621265442692707
6.765117694148693 0.7957654728036765 -19.021276761583426
6.8453203170181 0.6951605537172707 -18.400400924749853
6.905404444241169 0.5905046937571347 -17.733692769707893
6.91465669970678 0.49615348448151136 -17.05373573670294
6.870601360306849 0.42588235100342575 -16.394324050339684
6.7705147349791135 0.37194004623183907 -15.769548837052406
6.60263548498066 0.33116283470682484 -15.150611222190749
6.370194366350944 0.3070186218019322 -14.616382248476445
6.086489268284425 0.2992224030039859 -14.107084523730677
5.746453100761839 0.30738383079163956 -13.617071639453837
5.3502734114943 0.3321617276626899 -13.146122155540619
4.897458837192835 0.37101846033171976 -12.690937162895331
4.393711341565414 0.4220735381821359 -12.253718310895998
3.8388427099952613 0.48453876837750265 -11.831066285549129
3.232660622172774 0.5575753845315654 -11.42089142044967
2.584117600137724 0.6384221958804602 -11.022910570099624
1.9061920180619274 0.7189637324216229 -10.635680155131144
1.2162539464210642 0.7898831168011259 -10.257145772556349
0.534242053191491 0.8419746877956811 -9.880724774668266
-0.12673104275325986 0.8700586505258561 -9.498311134038872
-0.7555429817319139 0.8718432180525347 -9.101810889084412
-1.3413027115399063 0.8496111779886811 -8.683674906249154
-1.8771266937340942 0.8037599160608998 -8.236828639998405
-2.3578657671037577 0.7393977905539868 -7.759303291500798
-2.7768346122265544 0.6616721291102264 -7.247521164646987
-3.1299602925605114 0.575891783891576 -6.705922778923339
-3.4280367955663187 0.4862562828745162 -6.1290485853153225
-3.6671367417749434 0.38031096465703457 -5.515198607526448
-3.850706445154279 0.28647072042809607 -4.8414288253651385
-3.976735685200902 0.19765384434425973 -4.127937904862627
-4.047443666263341 0.12842051636315432 -3.401064568740454
-4.071376603838391 0.06799256937466006 -2.6775167506746618
-4.042883848388254 0.0352690489806411 -1.932577298004303
-3.9567399617153125 0.11226889675573512 -1.2237372496319097
-3.8411947485031317 0.2541682206871999 -0.45204112842143784
-3.747470652008424 0.2265098336702838 0.30888511410312425
-3.683990412529305 0.3301516791996376 1.2209113553708557
-3.7562665103430946 0.36949558218725304 2.0423326212613944
-3.852063559619567 0.38221021472191086 2.770183847808906
-3.905972766072136 0.40150873094118655 3.2531569988369244
-3.8662158353670515 0.38806688122368466 3.602222606755508
-3.836653954233834 0.2795403449215254 3.737910802903039
-3.777578011218361 0.04389988595781044 3.8985276323437574
-3.635835670305825 -0.39800308089579806 4.023433637171582
-3.47775015075546 -0.8083842569323023 4.22973858843662
-3.205068453908787 -1.3293026938507673 4.341383377318977
-2.8634466398282523 -1.8609279678997135 4.4519942721811105
-2.4428603691097086 -2.344198914684544 4.582900711180858
-1.9692900368666078 -2.7324647190904736 4.7493608550043
-1.4500884641792382 -3.042495167285284 4.953752313491925
-0.9330973295201819 -3.2526271728362306 5.179818399798258
-0.35867959000335004 -3.379724334545854 5.456729661165346
0.25255026191734 -3.428235412104034 5.765597205340146
0.9007743038850418 -3.392067458803436 6.091583893454958
1.5751554454076095 -3.261901510109693 6.417060952952818
2.262139623545325 -3.0502004655237043 6.730509871842186
2.9731552369229024 -2.758840822860994 7.006545409966853
3.702102215290702 -2.3899692691843613 7.213561199996978
4.420704423986217 -1.9644289717515937 7.332641562907055
5.110634655837192 -1.4972631818629711 7.355207696492891
5.744423819698043 -1.0180540574985617 7.285625777374048
6.3063069281160145 -0.5425495362524762 7.134519368862168
6.651091490309886 0.6869975261183399 -20.034315907859867
6.733545574056685 0.630618967037531 -19.435535016899077
6.819725838277199 0.5629743688955898 -18.826421305186898
6.902876923567671 0.49081151801828315 -18.20553782480931
6.969301860102068 0.4161292788565868 -17.552733691129323
6.986879119402219 0.3502104082297519 -16.89903060881397
6.951267547665421 0.3040403360934837 -16.26551531418686
6.859709999795424 0.27336129010236554 -15.656404488413477
6.700313844033373 0.25656024769586366 -15.059064526150621
6.477656608327621 0.252656274213316 -14.527607171046848
6.198987574268157 0.26216259390182406 -14.023231497745753
5.862493576897905 0.287012754589554 -13.540972324852499
5.470478400686527 0.3281972664133494 -13.080229715385787
5.021377645575261 0.3844702878249707 -12.635469991936814
4.517310276631905 0.4552036830034452 -12.206852037982532
3.9587670027687247 0.5398759549033644 -11.793279959202966
3.3463740456114923 0.6366309508536029 -11.39332881910417
2.690456235562519 0.7416488698927325 -11.007309148342397
2.006701676484335 0.8465541281627781 -10.633448622857918
1.3134503949685101 0.9417654716586862 -10.2678430904886
0.6312565315587672 1.0180746517558614 -9.903199736983074
-0.02675313994546269 1.0704501554527286 -9.53135309436269
-0.6501562090708939 1.096484319091675 -9.144882432315626
-1.228841297904995 1.0979254259344715 -8.736226184283273
-1.7573560589419865 1.0751626367023925 -8.299525732987826
-2.2327583550276007 1.0327321412044783 -7.833468571828525
-2.6493040789048763 0.9737870985333581 -7.335044545963791
-3.0035100300276536 0.9010067498675957 -6.808814204679522
-3.3051821263787162 0.8163878203173287 -6.249424253783684
-3.5482442748464074 0.7065133679294272 -5.6561538468514625
-3.735152399083833 0.594596386164019 -5.008299310853256
-3.867443460744115 0.48608372054126703 -4.323598280574135
-3.9420220742399623 0.3848000761248025 -3.614244382578991
-3.962462560680796 0.30650245123728725 -2.902109414248497
-3.945194669595091 0.23335466488654721 -2.163162631570132
-3.880539232254035 0.2575902146689549 -1.4735840823538375
-3.7803699695245006 0.319053639200789 -0.733675541642974
-3.696053293710118 0.25049583117820096 0.027458803443910718
-3.6499793614349265 0.26707732370179577 0.8485979997709712
-3.6754021909630943 0.27661250620324607 1.637273798526778
-3.7555072798768405 0.25306481496182964 2.338492039788657
-3.8097488442210232 0.3007116815924117 2.8906054955724185
-3.8014665502113982 0.3366886934209918 3.3188042976722896
-3.785000433476206 0.22342628775526957 3.5129525907976955
-3.743515399645454 -0.05459929124667279 3.6984492824140807
-3.6073797553205487 -0.5695750410137967 3.8313738278349048
-3.4466266047623604 -1.0471345377523442 4.018850223426416
-3.1729655252344586 -1.6136351367946864 4.1345565796743715
-2.8260007744218174 -2.1677778842116604 4.257198963926326
-2.3994294731557884 -2.664702434195107 4.406255642993604
-1.9121154297157963 -3.0664594981288285 4.596827064951312
-1.3752398013324156 -3.379070694137651 4.83381498224975
-0.8457875869496024 -3.583446896131385 5.110234133501178
-0.25327330621876787 -3.694358519836273 5.42785852768337
0.3764949701809178 -3.7327185624738863 5.773317295857566
1.0397942804163232 -3.6929904763995722 6.129330832737417
1.7309503090868827 -3.56853909279711 6.477952273254867
2.447106286726167 -3.362733184894601 6.807360177085496
3.1891774577347576 -3.076471021870874 7.092215696619557
3.950095742399472 -2.71253193216887 7.305802340056411
4.688749428178439 -2.2970994481661693 7.430679503611169
5.392979748357083 -1.8410401018313012 7.466156172727306
6.041797084881098 -1.3695600560406445 7.422144815130261
6.622885431451963 -0.8972528970776938 7.310251045648397
6.853389508117475 -0.4834477337723112 -19.355570143597433
6.9482098623269435 -0.41059509191419163 -18.678431553524835
7.041906809490006 -0.35081336095035687 -18.01608900316733
7.138520721020872 -0.31065175467939354 -17.382716086775243
7.230196378896244 -0.27270753992223257 -16.771443306749937
7.278042853143852 -0.2364248494772621 -16.206572770417825
7.272648177162123 -0.19606271466043293 -15.66304571519401
7.212037158881975 -0.13998414771577872 -15.106039670672484
7.082336670841132 -0.06924220872795017 -14.582708453331891
6.894931603544313 0.006018979348667686 -14.054840273596206
6.633462971788235 0.08304254105102098 -13.565254901430368
6.308107822319513 0.1727832272353942 -13.10933845236734
5.929301878663604 0.27748721664914333 -12.684591117131031
5.490969001267226 0.40172630103187107 -12.276650200998173
4.980583867555144 0.5511514945501084 -11.877822487475397
4.400663382486141 0.7260998467556701 -11.495862370672143
3.7554434403838326 0.9202593908437496 -11.132389555517134
3.061274953766518 1.124886462675469 -10.790144434143443
2.345272368178283 1.3296611864197236 -10.465616229831937
1.630300190773947 1.5235781902916115 -10.147491003063523
0.9394062746939021 1.6971204875061727 -9.825437330098069
0.28554525453543 1.845724961725379 -9.490942369012977
-0.3237609988327207 1.9665186848174803 -9.139219956708422
-0.8811681310138755 2.059361284618597 -8.762898642589462
-1.3867984437408016 2.1248306434662934 -8.360838702300201
-1.8460244768603502 2.1657732872744826 -7.934453856386302
-2.2560767632224783 2.1778745219562192 -7.483578957816039
-2.61559538619876 2.1540846684524144 -7.013745909928162
-2.931181934531895 2.088286917733256 -6.5196435083652595
-3.1893694559199 1.9635744542310947 -6.002654140508829
-3.390326293886007 1.7833437311442708 -5.445770624813146
-3.547002664847707 1.6009697338354427 -4.861249378924835
-3.638264516772191 1.3728824757063591 -4.20441159380995
-3.6453188759729254 1.2249086984603874 -3.531842999307254
-3.6730232590528473 0.9854864368096949 -2.7936382758566047
-3.6876132102478154 0.8069317952347475 -2.1365665806957552
-3.636149129296873 0.5666841803385159 -1.4433000282307735
-3.5880923280064856 0.3279696200952345 -0.6594196151307584
-3.596365933310856 0.05711509946068705 -0.07968513365250096
-3.4486458524634487 -0.0437796323926202 0.6197876504553593
-3.472527681046059 -0.20259917987973636 1.2400648196628399
-3.524315745874178 -0.004740092790511186 2.124316392135861
-3.728057146398552 0.35850183980385464 3.0339064296263785
-3.8111677313264267 0.23514251388732998 3.614391729808586
[...]
CELL_DATA 87
SCALARS quad_param_group int 1
LOOKUP_TABLE default
3
3
3
2
2
2
3
3
2
3
1
1
3
0
2
0
1
3
3
3
1
0
2
0
1
2
2
0
3
2
3
1
0
1
2
2
2
1
1
0
0
1
3
0
3
0
0
2
3
3
1
3
2
2
3
0
0
0
2
1
1
0
0
0
3
0
1
1
2
2
2
3
0
0
1
3
3
3
1
0
0
0
0
1
2
1
3
SCALARS single_component_feature float 1
LOOKUP_TABLE default
0.0724965195549883
0.03462929577615299
-0.11591149791643149
0.013338169854740622
-0.04717046719356873
0.0635392093222622
-0.03984870377276742
0.13381786760465272
0.06648030876055908
-0.11142108399554632
-0.09708141051295033
-0.11041750656423083
-0.10732947944791699
-0.0021148382800781074
-0.1087333160913433
0.08260181147881783
-0.05421605238566876
-0.05799092522063847
-0.03883189295160004
0.07764401546799905
-0.03717278688750739
-0.04339392917224086
0.06811678226549889
-0.12265333396404371
0.0997943196095277
-0.009710441475749548
0.014470104500776564
-0.05787230976035834
0.04778912630081325
-0.043317456634459274
-0.009628520657325619
0.018001214450945865
0.056712191625936735
0.05441890035221551
0.03571367592446024
-0.06645926800715722
0.04017213614677487
-0.07945942010837877
-0.14999620177352418
0.02953208343527921
-0.008423041345403308
0.0010609448585681969
-0.014695323783566255
-0.00550378502259383
-0.023911834009684343
-0.048479342178041174
0.10036071941406396
0.0408068258688408
0.0792022633148466
-0.048541157942024626
-0.059781278417032124
-0.12501885548968886
-0.040716716664054256
-0.022803223133087712
0.018358331938125753
-0.01908865799115013
-0.059428123580266966
0.006744769543011557
-0.023319475597342564
0.09500213947668934
0.19109153424094122
0.16815767884029528
0.045051463720801974
0.049205420492791
-0.003759837078337689
0.07746948774698685
0.019428599993456766
-0.04213456679553622
-0.015249540874889708
-0.012430774067371794
0.08092448813944364
0.05980409448268642
0.04134555371816103
-0.04130192426441978
-0.0029303763009353445
-0.00578086535429936
0.017783075738407754
0.02115831155032477
-0.035145648451774564
0.06413709550200103
0.03421740504906492
-0.031698370300860645
-0.009433918791513996
0.003463977376699054
-0.013664648835146662
-0.06652560089003642
0.06645581649393449
POINT_DATA 5568
SCALARS single_curvature float 1
LOOKUP_TABLE default
0.024009461377147705
0.051753334006173345
0.07881710762967477
0.11257053321930491
0.14028262190598303
0.18062495153014166
0.19050386706371425
0.19342832981556723
0.1900042647137702
0.15377187839241613
0.13739966437281753
0.1181157823364066
0.09884748618232896
0.08116907668928781
0.06417781545054585
0.048830810298195054
0.03803259604657894
0.036080109066792605
0.044036399805773896
0.061010873112943786
0.08377701555156813
0.10593578826159762
0.1279572908624988
0.14620238679494663
0.153533665406273
0.15817104173213145
0.15425854089297256
0.14227282256709392
0.1323655318138424
0.11587524903213077
0.10645471459726895
0.13790994183768848
0.13228732358868925
0.18128983330693332
0.19014062373699736
0.18530517967821278
0.18344335906739043
0.13514374336748453
0.3202126538561054
0.9600333275028363
0.969090600766084
0.9734956398280945
0.9651808174727309
0.4108945212317294
0.3076113923748142
0.2646194864563081
0.24383320932709293
0.21377533479070857
0.24738966214927705
0.2508841245131072
0.2254144558233327
0.20563663660358333
0.17770590334373074
0.15229633230848563
0.1400781056993504
0.1363097369841184
0.13449293272549645
0.14165452656703192
0.15120327133793285
0.16053786227277872
0.12445145686025963
0.08836505144774054
0.05227864603522145
0.01619224062270236
0.0216074429168507
0.050284188028574955
0.07884579190978105
0.11492857804650809
0.1486787612888102
0.18280889896616356
0.19480573500711865
0.19932446224875291
0.19337672129997163
0.16345675798832685
0.14385867172400002
0.12283020583085356
0.10256304535005892
0.08435188759475896
0.06646965059981204
0.049529849983891365
0.03810144722674891
0.036221088990509985
0.04496221369489624
0.06373982306575814
0.08739978889869766
0.10921248693752476
0.13047298585337155
0.14733912348709283
0.15409756502832814
0.16120371850427637
0.15821702139526997
0.14687312230366337
0.1380254037825033
0.12493915880021579
0.1053431858681601
0.13241307032867178
0.12258320547706845
0.1480356707667056
0.1650447179621684
0.13682986543863426
0.15404523877663132
0.16732128318389894
0.21858414836432463
0.887690068701625
0.9204982194469854
0.9247284045514221
0.9207008728475451
0.41755629308046016
0.2592690943870572
0.220710779239973
0.22862962892461847
0.22266664275749617
0.25287144341972717
0.25345471609566356
0.22254261791407917
0.1946210502521907
0.15849777910936336
0.13285171905536586
0.12775391484172222
0.12792436031883395
0.13002077272732426
0.13646029889336125
0.14125016241235297
0.14508428556556505
0.10999200913358324
0.07489973270160144
0.03980745626961964
0.004715179837637834
0.01935271723557915
0.05013719242792297
0.08866545037488062
0.12014113732678411
0.182557924531656
0.1927467273747445
0.2130351396972017
0.22518208552406918
0.20720241834371894
0.20235336864340686
0.1672918257127877
0.1380072715634628
0.11291480557915345
0.09268682748957065
0.07234255269832478
0.050428390596348766
0.038165733755054436
0.03733945196058544
0.04900738351561093
0.07436561434973316
0.10008092994915448
0.1194273763235923
0.13823740671637177
0.15328352998615494
0.16560823915241438
0.1909837142643121
0.2039805914876578
0.19069766281560188
0.18368778948674794
0.18461646258016726
0.1600241351495465
0.15004822364200357
0.14622998087424458
0.09598751788981408
0.1457117889737635
0.23096798555516554
0.30483437348013426
0.3732733769571889
0.34688759746562164
0.562447656702735
0.6785375689129302
0.6722100989266654
0.6669485503692262
0.4350199174419497
0.22152817962089646
0.20603567649584353
0.22694372068905333
0.2479675647472159
0.25513405237474407
0.24967232216832705
0.2065648134134003
0.15902268974896594
0.10872533996606151
0.08360243556528305
0.098345324934481
0.10867972217211866
0.11777746678680522
0.11608734138643528
0.10616739153331467
0.09481449534883601
0.06472836148067092
0.03464222761250582
0.004556093744340725
-0.02553004012382437
0.021147623501076657
0.050314913210091385
0.07989740807778041
0.11613106743868737
0.15349593670755238
0.184078001913544
0.19728665838241538
0.20275823556723632
0.1952889926813617
0.16897400539668972
0.14742052948346504
0.12534594010396105
0.10447416689938659
0.08596480521409354
0.0676242647785057
0.04983988314970613
0.03813327031455072
0.036330922984785775
0.045509427919242444
0.06528591359942654
0.08938490614877315
0.11095159785381362
0.1317995200728799
0.14801924719434018
0.15476616767579085
0.1636441427293318
0.16172001916966916
0.1505699479183286
0.14238923162556197
0.1314019727904135
0.10686109238429303
0.1303419829560602
0.11861427903917243
0.13038484147088425
0.1485069924989265
0.11245674632871436
0.1404627551503635
0.1773257542496795
0.1912177022352896
0.8306600985243411
0.88292978859053
0.8854341572329204
0.8856082402466954
0.4184086682465912
0.23816179443902996
0.2025385905802248
0.22272921284117758
0.22734517531312456
0.2552311622279186
0.2545568252078888
0.22104354921524608
0.18913957378422525
0.1489933271729015
0.12321908456377689
0.12174924060462369
0.12388911251599069
0.1278332991651424
0.13353359451919103
0.13572043361992409
0.13650279377961874
0.10202013468412448
0.06753747558863021
0.03305481649313595
-0.0014278426023583146
0.020962988448441553
0.05126556821686427
0.08447172176508226
0.11883994388139134
0.16731600349722467
0.18789489139500803
0.20452443462881673
0.21293381035633865
0.20077828992727523
0.18473703054149548
0.15715775236791155
0.13187420596377653
0.10913104976672361
0.08979015634056663
0.0703364228922374
0.05038876561995804
0.038188530860670554
0.036744088344533056
0.04713308338670147
0.069649151969389
0.09473193824688497
0.11540728554456472
0.1351806636032394
0.15019854581734765
0.1583008352035276
0.1737125184146863
0.17709862105055996
0.1657143769586649
0.15904007624043573
0.1539869808409746
0.12642220568895599
0.1358678910559481
0.1251801327975465
0.09799194619204753
0.10833797479566991
0.11787739025711197
0.17095389099550545
0.24494590245363349
0.26345752187412913
0.6858750091863441
0.7834548278926531
0.7797384438910527
0.7740958203683485
0.4241287644816653
0.2108761649647341
0.1845993483668048
0.21658537242139295
0.23872767219186208
0.2582611256617566
0.2549733432947009
0.21571447151115378
0.1747354286169927
0.12661218375808134
0.10075266810135329
0.10811044490057854
0.11489364826665738
0.1226002210330509
0.1252541991706846
0.12072272799597299
0.1138959433703287
0.08133383039402885
0.048771717417728996
0.016209604441429146
-0.016352508534870705
0.023292598407180617
0.05126164191250516
0.0786439257423125
0.11314918661731171
0.1422442663010667
0.18113409014433385
0.19150711464261636
0.19479737075543294
0.19079801586839396
0.15604362195272184
0.13893935697146997
0.11925652773832252
0.09976104672147061
0.08195654459153585
0.06474630998790017
0.0490129533669964
0.03805018170535766
0.036106871780562336
0.04424923775833853
0.061652435957410025
0.08464261699853169
0.1067302735069612
0.1285694460098242
0.14646473724033185
0.15360121800084986
0.1587444246877701
0.1549482410615534
0.14314568190671928
0.13346137617747933
0.1177112675163204
0.10585993504238857
0.13650914631268757
0.12992652700895183
0.17349199095176077
0.18478299335796144
0.17412526837092604
0.17661230057612365
0.1446716737537747
0.2909298293810784
0.947256964402146
0.9602968177699562
0.9650193184967003
0.9570199407543103
0.41346081364169485
0.29513837100944484
0.2530900919795207
0.23966796974911808
0.21591625475852658
0.2488025716556888
0.25151852328677704
0.22466375319593626
0.2028356362889551
0.172885701248566
0.1474256889194741
0.13696824286951695
0.1341823143943324
0.13336160191024587
0.14042832482653117
0.1488442813969141
0.15688750988610084
0.12102572553515809
0.08516394118421533
0.049302156833272576
0.013440372482329821
0.02101256488574277
0.05120515351544281
0.08391673324698946
0.11857952758022886
0.16564753503211155
0.18741389060080785
0.20363585991662173
0.2116716139741084
0.2001089246900954
0.18283276375176014
0.15601512150531946
0.13113714234553922
0.10863148839383117
0.08938936582932577
0.07005456216426147
0.050348447659232604
0.03818510197563672
0.036687289156058886
0.04693320777418634
0.06912758129490273
0.09411249262347801
0.1149102460585934
0.1348041110391215
0.14991148051769657
0.15773468800270063
0.17224022412073417
0.1748082943346428
0.1635197767734791
0.15672636997904862
0.15097837565164932
0.12304480372452493
0.1344312092190355
0.12313916533610565
0.10059505390593652
0.1106722344337833
0.11231781497915445
0.16281944190916828
0.23403270576259294
0.2521917576559461
0.7013922718574741
0.7948664324078009
0.7917514285776528
0.7871345267814865
0.4228468901843601
0.2115598296588127
0.18411099894104802
0.2164642673999041
0.23751265645006187
0.25819616182660515
0.2551722265220039
0.21648607603086883
0.17643476756041618
0.12897579399911688
0.10309495580305497
0.10950077839261474
0.11579704793944672
0.12317085321048413
0.12624957045131763
0.12245632652569435
0.11641868081731811
0.08361017856833429
0.05080167631935047
0.017993174070366644
-0.01481532817861718
0.029484932476248872
0.055678521670938
0.08109278211808302
0.10838914922489258
0.12737996320901915
0.1772317421692492
0.18393282880216383
0.18453025383688773
0.18467395663815445
0.1386830507223662
0.12674482878596266
0.10995782435996315
0.09208867395809463
0.07526941360675513
0.05989344911340745
0.04731842571594298
0.03789153370476771
0.036011050981403815
0.04269832988686696
0.05672882104802913
0.07777141339387976
0.10023431177937078
0.12351627179815369
0.1444566715920308
0.1539421639212842
0.15635273237208505
0.1529548848947604
0.13929245600138795
0.1285739524514949
0.10943707970259298
0.11539729078160871
0.14883871894383577
0.14699919514134396
0.22918590325863802
0.21766747508322395
0.25233855660364535
0.23380693778004505
0.3162276818722828
0.7086093160990915
0.996561843401293
0.9967319959840665
0.9961353871031828
0.9908303402389661
0.4096714144981216
0.40423484066860654
0.35668892337099006
0.28426013428439123
0.20036680360494144
0.23722985857435316
0.24786674064531689
0.2335896443864233
0.2298862095883763
0.21555047203121694
0.1902197350006585
0.16473322991755343
0.15338457794237798
0.14363270048970433
0.1499758082099086
0.1671621445671728
0.1846445737962934
0.1471951999521001
0.10974582610790679
0.07229645226371348
0.03484707841952017
0.023521217006976153
0.051416532895956366
0.07869184325655089
0.11296043041948815
0.14159831757756883
0.18096644901330977
0.19117664989317576
0.19434603939534492
0.19053707948274157
0.15529620290939586
0.1384345049992968
0.11888361752575165
0.09946336196768026
0.0817002648393111
0.0645613932453948
0.048954279600077096
0.03804449283621696
0.03609762426545363
0.04417890618435617
0.061441447280939844
0.08435890495927074
0.10647065302674233
0.12836957006341249
0.14637822912160287
0.1535748298930426
0.15854666430524017
0.15470573890651992
0.14284505016590132
0.13308515508979343
0.11708610711239131
0.10603475426246356
0.13696422397635677
0.13070372265278862
0.17606566134855653
0.18658264152995338
0.177828650467472
0.17887111045650672
0.14150900949173884
0.30007800484954394
0.9517389656082932
0.9633632331165051
0.9680103051430904
0.9598613439650006
0.4127051532950742
0.29917142855879625
0.2568056207567535
0.2409947820249989
0.21521420116347034
0.24834490147824878
0.2513098381505844
0.22490304685563275
0.2037396435699637
0.17444908083597618
0.14900628313167114
0.13797586828545022
0.13487084038556252
0.13372779662770035
0.14083115986807376
0.14961890425287497
0.1580875641510653
0.12215130390573373
0.08621504366040214
0.050278783415070555
0.014342523169738969
0.0195193075024271
0.050308380118786813
0.08845512287130548
0.12011852905172397
0.18159768115020614
0.192408043270245
0.212468522400632
0.22435951911370275
0.20677125087539588
0.2012236203736608
0.16666588258463957
0.1376519763222512
0.11271854936766501
0.09254579814593054
0.0722469479101347
0.050443884514643746
0.038170534553217075
0.03729801705086636
0.04888649474385819
0.07407029532993425
0.09976001628080597
0.11920265315055056
0.13806524549889526
0.15305876454842038
0.1650193378228506
0.18966723625482723
0.20194802472688736
0.18884603509053471
0.18195171439074898
0.18252312273062438
0.15787900843169814
0.14916370204496748
0.14496237452360972
0.0942710457916484
0.14035611164220788
0.22087756077438314
0.2935491390817583
0.36454765996092875
0.3423259362857717
0.5691862900311216
0.6851697344615199
0.6788620070312578
0.6731843880576964
0.43463863521053425
0.2204139341013533
0.20424425903075338
0.2259164415625375
0.2474794026586066
0.25552549622797194
0.2501976313322086
0.2072591793899728
0.1600312267750063
0.10966342817226256
0.08446193721164375
0.09880837060004442
0.10896797529639826
0.11807085348180572
0.11667328679703606
0.10700426146092158
0.09576228887013158
0.06550635464347174
0.035250420416811895
0.004994486190152053
-0.02526144803650779
0.020007322613321495
0.050773669986868615
0.08773101236758782
0.1199985774171885
0.17849009852357672
0.19134927803236393
0.21067053986688083
0.22175449998496824
0.20540822651693902
0.19759200295678486
0.16463118538568822
0.13647382755156573
0.11204376086878236
0.09205024975193683
0.0719085213048036
0.05047692142065959
0.038182618073160236
0.03716752314862484
0.0484981042577071
0.07311346179017718
0.09870681791739243
0.11844821134030087
0.1374890366074641
0.1523636706167142
0.1632435235759026
0.18563720770220848
0.195700994245682
0.18312282042243405
0.17650271604098902
0.17590022165019417
0.15092020915220028
0.14629043402113664
0.1407382269263056
0.08920218455948767
0.12408432281256042
0.18913553521959164
0.25787554577952193
0.33640695087770095
0.327145996503139
0.5919696834101907
0.7066200936352779
0.7004998007585587
0.6937364802949865
0.4330041574959174
0.21699291503890925
0.1986278740683026
0.22285216603234373
0.24581587767817595
0.25661445819844053
0.25171710874745457
0.20939481759320497
0.1632749263634704
0.1128704636062576
0.0874464709506819
0.10044595165334017
0.1099931773100633
0.11902339900042656
0.1185585218057397
0.10979494160760855
0.09909078225425536
0.06829950843304487
0.03750823461183439
0.006716960790623908
-0.024074313030586575
0.01955600348916511
0.05034532035603551
0.08840736912347397
0.12011283630622244
0.18138218927199662
0.1923328308151389
0.2123421330326518
0.2241761323950293
0.20667519184153793
0.20097061895780186
0.1665252464170396
0.1375716756581987
0.11267370470477826
0.09251335693855298
0.0722249055367101
0.05044701467209689
0.03817154062601387
0.0372887910180958
0.04885942440636948
0.07400400294929069
0.09968770555932166
0.11915167053522982
0.13802622553259924
0.15300899755456332
0.16488986009106582
0.18937654867978326
0.2014986464907794
0.1884359915161246
0.18156553081889576
0.18205641250617136
0.1573971652905841
0.14896514047415915
0.14467534613259858
0.0938884432271661
0.13916609634286112
0.21862166691072965
0.2910241382733047
0.36258933776080815
0.3412948375390387
0.5707180305108216
0.6866578036084429
0.6803569168850042
0.674590670032648
0.4345446632974172
0.22016679429876798
0.2038450767824304
0.22569069284989518
0.24736818657876194
0.255609775674828
0.25031187118862164
0.20741275914261534
0.16025714886463596
0.10987737793668982
0.08465890095400982
0.0989150726930449
0.10903450165203114
0.1181367207867516
0.11680454056593985
0.10719376443585223
0.09598033492102666
0.0656865885835644
0.03539284224610213
0.00509909590863987
-0.025194650428822393
0.01966691151378106
0.05045521385186506
0.0882579978759456
0.1200931190053073
0.18071715547820683
0.19210247917287615
0.21195377506478252
0.22361287112249184
0.20638028109590967
0.20019099261440612
0.16609082148989004
0.13732254660503
0.11253346645151371
0.09241142056306727
0.07215553146513777
0.05045587930330048
0.038174483850916756
0.03726048531011924
0.048776014883812606
0.07379936813891179
0.099463868060109
0.11899306779730096
0.13790492075636343
0.15285692773186715
0.16449635704791013
0.18849022720371852
0.2001272349210819
0.1871830850723278
0.1803815801674784
0.18062312930801297
0.15590925772841063
0.14835194793450976
0.14378374558383747
0.09272019479499308
0.1355308131005891
0.2116898425895025
0.2832591840204131
0.3565484344830637
0.3380942752848189
0.575490343725667
0.6912495645627331
0.6849754584355792
0.6789473514028371
0.43423573927243897
0.21941192160705802
0.20262080277808867
0.22500568658907005
0.24702109355839824
0.25586163524800426
0.2506560441962527
0.2078815502637938
0.1609534318067495
0.11054557710740602
0.08527616314665383
0.09925080891727217
0.10924407697822806
0.11834010904838158
0.11720907900151972
0.10778244814638063
0.09666545649736301
0.06625568143318769
0.03584590636901237
0.005436131304837055
-0.024973643759338263
0.02107418402259653
0.05057372091519891
0.08098008613600685
0.11693267760552829
0.15701897239344229
0.1850210141303452
0.19911077379224426
0.20530012621086138
0.19668285121445386
0.1729965012168039
0.149966209814292
0.12710423348616487
0.10577526239771265
0.0870507919097913
0.06839850107409935
0.05002685764786146
0.038152747027872705
0.03642318956606146
0.045916154425691115
0.06640800319979066
0.09079580201446691
0.11216141429868921
0.1327195038996684
0.1485375405114218
0.15542941155123566
0.16576682112865618
0.16487715549137125
0.15378292732766932
0.14607121542091453
0.13662564326764348
0.10957749184202774
0.12997042833524652
0.11752989671567778
0.11929518257347073
0.13600515828215112
0.10360316303089714
0.13891508398552224
0.1888304497639437
0.19489301412090915
0.7891230665333333
0.8554280915738343
0.8562369810204251
0.8574105877534346
0.4189144886249191
0.226327958345415
0.19298324960057472
0.21963184451809778
0.23053579548805364
0.25654059180977495
0.25508530532628954
0.21987956588200225
0.18534767023536533
0.1426448248425854
0.11679991857436414
0.11779284771239573
0.12125247896447061
0.12637170568457523
0.13141084689056656
0.1317682193229299
0.1304164699009216
0.09639847248476409
0.06238047506860658
0.028362477652449078
-0.005655519763708428
0.0196168976434424
0.05040599000358974
0.08832638500667375
0.12010252227233809
0.1810198472395128
0.19220699804683403