# vtk DataFile Version 3.0
vtk output
ASCII
DATASET POLYDATA
POINTS 5568 float
6.745114280403991 0.43146115067240315 -19.875070421604388
6.825826313651989 0.4077867210455503 -19.257023883865138
6.909668943473057 0.3731171933591627 -18.635692883921923
6.99316185369755 0.3314656795961329 -18.01371762994861
7.064542026820727 0.2877345512417327 -17.374796909448694
7.090930927819591 0.2503281376926978 -16.747259718943344
7.0653195265702 0.2274770994902 -16.142938149897645
6.986448601716914 0.21954164267284113 -15.551382664256975
6.8384677045476785 0.22417733655531022 -14.978586939979449
6.627565861834672 0.23709964069675873 -14.449470251232539
6.354558115992028 0.25897904901522956 -13.94958028757274
6.021262094243195 0.2946305408094557 -13.474324029554012
5.633106953409021 0.34528913539080797 -13.023322727322936
5.187659490011596 0.41116621058478087 -12.58880227834839
4.683030923956689 0.4934985641266312 -12.16861306651924
4.120300958581211 0.5923078748152623 -11.763761191258979
3.500796061858175 0.7046056277391064 -11.373694461781616
2.8362150784106146 0.8253056255430451 -10.999650130667622
2.144707088691922 0.9456041437660785 -10.63938765596201
1.4452865298707294 1.0555857346702777 -10.287132655416418
0.7589725436380914 1.146177707441197 -9.934714073204091
0.0995560380074001 1.2128432023384903 -9.573750855679853
-0.5228059397886313 1.2534933535120196 -9.197621428832566
-1.098620924251633 1.269770106314518 -8.79903667129464
-1.6235709794264672 1.2622691696071946 -8.374071085659756
-2.09704445641926 1.2346000614119939 -7.921931938875155
-2.515872669590112 1.188439931295389 -7.439158924859401
-2.87783638175277 1.1246778982411278 -6.929294271473622
-3.1921886275892386 1.0435179219870276 -6.384720997735989
-3.4494746093726643 0.9331888136719785 -5.807944452719742
-3.651610280474923 0.811944293025029 -5.179545018008741
-3.801337756427212 0.6927156194814954 -4.513116638606171
-3.891956066610935 0.5712363622433677 -3.80972793980606
-3.922581473093782 0.48462906983072107 -3.100150019083278
-3.924453191793499 0.3893601067154811 -2.354664700755697
-3.881668506463406 0.3813238481480273 -1.6674954591055198
-3.8006383418337983 0.3919672667914145 -0.9369812016148107
-3.73034254039313 0.3035918788767336 -0.16212177904423375
-3.704867237272526 0.2718919819244146 0.6369120837889396
-3.6929525035108703 0.233191359736769 1.3711584634599723
-3.757698214576495 0.16553357280995368 2.042954913222876
-3.793618547760146 0.21074229390165666 2.6162691848518627
-3.817061815376639 0.27764766109146677 3.1049675648036663
-3.8149795125706034 0.17224859146493032 3.3930889187832323
-3.782904200210895 -0.1448996268961737 3.601986662947049
-3.643813297961695 -0.7255300025647853 3.7453265943694682
-3.470920206080388 -1.2700007423043156 3.9128179119239563
-3.1886691227634474 -1.8767836298606464 4.036097828457814
-2.8299787880927947 -2.4498052948667652 4.17392006288717
-2.3926443018055092 -2.9589691590602065 4.343299552459736
-1.8880375501797766 -3.3756675484172134 4.559081333588108
-1.3296256634423462 -3.695042529169727 4.828639387952554
-0.7834020690516719 -3.899125451181305 5.155630281047273
-0.16802365865158986 -3.9996546330198073 5.510310266421263
0.48575877181664096 -4.034716654588451 5.8867822046041045
1.1703204932926616 -3.9983488942629895 6.2659920335904005
1.8847041197285446 -3.885731992415945 6.630606199486163
2.6359642121368028 -3.6902177252979906 6.969109159917862
3.4141790503917537 -3.4114259712492725 7.2563895406167065
4.212848165591615 -3.051989425683518 7.471694316667155
4.9751293727039725 -2.6451416337451126 7.598340370901967
5.69542314415906 -2.1973609324956236 7.644941804968384
6.360942725837133 -1.7278405570830246 7.627142663070107
6.9634656073867 -1.2502205200175904 7.556904144817749
6.78388928813134 0.4426510466826938 -19.872529542016377
6.861159822704025 0.422499353789669 -19.251239153793154
6.941958871203477 0.39146699669960217 -18.62791423094135
7.0234235750245455 0.3536637932742915 -18.00591419278228
7.094150170858325 0.3134033153554899 -17.36891342700513
7.121750393683092 0.27891192535867526 -16.744232313870203
7.098241211267064 0.25782385066869984 -16.145306822180135
7.023560488811921 0.25155962384741737 -15.557079637219813
6.878837294982308 0.25642967760067786 -14.989024200075308
6.670504479762534 0.26813739413422116 -14.460267342727535
6.398558441367497 0.28733200414895393 -13.960696496705049
6.065427066829809 0.31948292183414345 -13.485677002722813
5.677531031374659 0.3657917272154173 -13.03531930487433
5.232548433979409 0.42665058402695066 -12.601688075839814
4.728027395005036 0.5037870051838522 -12.18226372129136
4.165072550394547 0.5974844863523738 -11.778077271571858
3.54494405085186 0.7046137827361081 -11.388760144748389
2.8793940768184862 0.8198937884704613 -11.015852977804455
2.1865094210793714 0.9344293510049719 -10.657003416731001
1.485080737183191 1.038249838408691 -10.30628688029489
0.7960435123547659 1.1224142016334684 -9.955359294802427
0.133745650740983 1.182691253917912 -9.595717846468151
-0.4913344161376608 1.2173426202905386 -9.22089736229654
-1.0696470525329835 1.228304088676836 -8.823824019420773
-1.596742333410143 1.2163350705363862 -8.401251219085339
-2.072304876275569 1.1846685810043396 -7.95230884018072
-2.494628095261918 1.1352131044851983 -7.4727059360142984
-2.8621080010118445 1.0693034752080413 -6.965028516103003
-3.1842522666270217 0.9872918666521351 -6.41975555423226
-3.4503549143192562 0.879465445738634 -5.841386299065068
-3.6625268735062786 0.763796727801011 -5.210225561985331
-3.822018586728265 0.6501658046439863 -4.538069840919675
-3.9229105846353374 0.5359587274570743 -3.827464451935772
-3.964526714200126 0.455810858607942 -3.1115909981668937
-3.9737708501878024 0.37286666349356523 -2.357617199837687
-3.933543175912507 0.37682910886150095 -1.6609077648894037
-3.857855452492339 0.4031857557138034 -0.9195917614592559
-3.7921460729829977 0.3295731336595774 -0.134845757000858
-3.7721931145999967 0.31830670864259125 0.7070875456180092
-3.763252218938299 0.26215977123808953 1.419288930156605
-3.8266673240385494 0.18473303453824988 2.085334872764867
-3.8487117242652276 0.2060325610059579 2.6226920260902573
-3.8694890960340884 0.25422163834450984 3.0905033746619983
-3.866523743154534 0.15950057982248106 3.4030961762684444
-3.826927077570203 -0.15440373541026448 3.610534875508429
-3.6800541747724274 -0.7293290244719426 3.756227553157785
-3.4996521025724987 -1.2723169660941012 3.9227114694960523
-3.2108694794926915 -1.8763173069363486 4.049069824097333
-2.8465885938245314 -2.447546961774687 4.190042731248786
-2.4050689828833547 -2.9561966965175577 4.362107504228212
-1.8969740160846325 -3.374647517969469 4.579795474472463
-1.3349535585733694 -3.6974098725790885 4.850503958203851
-0.7861073823289438 -3.9052814666741598 5.178627478358769
-0.16684859546145692 -4.009892844433083 5.531356136409205
0.4920261180496114 -4.050212506455435 5.904519043697052
1.1823950851755232 -4.019359756582228 6.27946646570159
1.9029754523976998 -3.9120088866532385 6.6393744563734645
2.6606188364618357 -3.7202658152468 6.973058620838046
3.4445751955948056 -3.4435840456339233 7.255561199591492
4.249541735575576 -3.0840000245950177 7.467202929745781
5.015740401685493 -2.6766056464390116 7.5908545022350555
5.738083803079844 -2.2274254630662815 7.636806973267189
6.405303285764115 -1.7541310724392023 7.621218325926178
7.009537386765211 -1.2707948404841052 7.5557007021709515
6.67348609740721 0.4107903122608174 -19.87976413022678
6.760531573711802 0.3806426396603954 -19.26757302733893
6.849993064741509 0.33926874663211487 -18.64981634544894
6.937247510474755 0.290494512422203 -18.02781022071237
7.009844986446506 0.24031794682507007 -17.38528956438563
7.033981897216935 0.1974888977840609 -16.75242028745361
7.004437777274932 0.171339895957465 -16.13804103597803
6.9177486427261385 0.16028774750399943 -15.540240848926393
6.763682936056113 0.16448446223715665 -14.958620041048695
6.548010010034844 0.17965849275006826 -14.428812343091336
6.273020523168549 0.2065100298938734 -13.928302219837803
5.939388963681026 0.2486397690288831 -13.452563830201758
5.550702920937222 0.3073607152307023 -13.000311279680894
5.104325150852946 0.3825502622268068 -12.56407557647681
4.599420484698122 0.47451969283977824 -12.142405551009448
4.03703026846213 0.5828041344416559 -11.736266981982434
3.4185986575614344 0.7046769766533282 -11.344763120756351
2.75571843784169 0.8354172069273896 -10.968564363301198
2.0666473165651746 0.9663875934580654 -10.605633807322606
1.3708050494530544 1.0877676796461508 -10.250472067085424
0.6893653554322958 1.1902333520533985 -9.895227679229649
0.03511230545918165 1.2686874948578528 -9.53174808142131
-0.5823717865532386 1.3204009857406178 -9.153127252661719
-1.1536904538496557 1.3464796460732062 -8.751681296291977
-1.674770392563051 1.3472285592817985 -8.322222949995924
-2.144467262580474 1.326948080454569 -7.864087430951458
-2.5569289179248837 1.2868647218500242 -7.375356850913719
-2.908824618099929 1.2270408511142703 -6.8613440855563175
-3.2089899634666788 1.1474220735403051 -6.3179414131790725
-3.450239002517762 1.0324755048488155 -5.7438732407203865
-3.634132578295937 0.9009495972937063 -5.12013291695073
-3.7661354018134334 0.7714550425814146 -4.46380632611211
-3.8380914934312154 0.6366390731297958 -3.77308995269972
-3.848662990438055 0.5381655693366252 -3.074468368933077
-3.8370831727730477 0.420314199819416 -2.3437538016832997
-3.7896340886521354 0.39051243672305186 -1.6734511157052003
-3.6988302630555543 0.37268911830286305 -0.9616934981093758
-3.620097983551007 0.25730475049369184 -0.20403677923317265
-3.5851680249101623 0.19054433414396266 0.5203242345801941
-3.567515833925752 0.18543768307698447 1.297491172509733
-3.6347809561709483 0.13598177566626724 1.9803887372485767
-3.6989301993076107 0.22985902810092657 2.6260428284084414
-3.7276428586671284 0.3337949326994366 3.1559138178487514
-3.727053597893066 0.20975153557441667 3.403700785592486
-3.709000083376122 -0.11378526488426732 3.615540263553814
[...]
CELL_DATA 87
SCALARS quad_param_group int 1
LOOKUP_TABLE default
3
3
3
2
2
2
3
3
2
3
1
1
3
0
2
0
1
3
3
3
1
0
2
0
1
2
2
0
3
2
3
1
0
1
2
2
2
1
1
0
0
1
3
0
3
0
0
2
3
3
1
3
2
2
3
0
0
0
2
1
1
0
0
0
3
0
1
1
2
2
2
3
0
0
1
3
3
3
1
0
0
0
0
1
2
1
3
SCALARS single_component_feature float 1
LOOKUP_TABLE default
0.007943329581863029
0.014429283459895026
-0.0040380243498001345
-0.07909280811946975
-0.06865968929439796
-0.04797183853046784
0.04109365191704251
-0.018893718458115577
-0.019815486698542866
-0.03432920661362432
0.03178415682937194
0.017445661966686232
0.045216016570059095
-0.07649416129546174
0.002871542799063355
-0.12954273479069514
0.035660069062387584
-0.022339190861781016
0.03638199579691723
-0.030983258473328695
0.007219774299440866
-0.01384618251501507
0.052151027221396744
-0.03779946150057288
-0.1172203078894102
0.003093374348624209
0.0016987933876270456
-0.07983623053854913
0.08260951880977899
0.007119270586825328
-0.029485865197199323
0.015354751626577248
0.0647292932690696
0.00978804434362747
0.05369860732310045
0.003960386948350242
0.009634701542351132
0.08216957722836282
0.1032798963216624
-0.00972848217357565
-0.05062597851256903
-0.03629640773906316
0.019269926070514122
0.03952096164591239
0.050452074652914736
-0.10179833573340624
-0.018573750645122015
0.05603005269962279
0.03673168815216037
0.018753727776095845
0.03928111444694317
-0.031904531866338424
-0.01654399722486251
-0.015145202229091376
-0.018036604551245616
-0.004070551292670114
-0.12630398851224803
-0.09915751409966811
0.15059568110348637
0.18622794434053536
0.006188499620505508
-0.0076867468688245205
-0.04479317135988479
-0.012044964329621863
0.03810502849726505
0.07388177904733165
-0.0360945154355939
0.005520700965182243
0.030331318680465624
-0.12863431068990597
0.015468441207366145
0.008794362342583711
0.08823573258831147
0.06824991414193743
0.034184574898743575
-0.03408527671163588
-0.011625234955870485
0.023630812092112458
0.05191045967782995
-0.01272003311166334
0.016071656119030588
-0.06321823667809283
-0.01626948890604568
0.015542998338230224
-0.008796365379410104
-0.050012065279907064
-0.03779825493241266
POINT_DATA 5568
SCALARS single_curvature float 1
LOOKUP_TABLE default
0.019825233850690935
0.04809035034935471
0.07824946190621757
0.11316349755748481
0.15589318317793832
0.1845918636742741
0.19983892441124654
0.2077602349446126
0.19760095085003068
0.17452616073548852
0.15072587090144685
0.12758670631910674
0.10631595368000597
0.08773294216550354
0.06912660970804234
0.05095009669722913
0.039049477288882646
0.037066778539576496
0.04615789473625301
0.06595261061930446
0.08960955996792694
0.1105632056896494
0.1303499098632053
0.14514979346087187
0.15121732428693047
0.15973132856031774
0.15860221491931448
0.14894296802126192
0.14186543360439283
0.13295721530641794
0.1082059968463045
0.12905641332475942
0.11612253805194546
0.12063360115736572
0.136145263873025
0.09200697906174812
0.12260603796476154
0.1750301785079999
0.18110884309602002
0.6597696367258118
0.7856453701990745
0.7849251630750115
0.7857435456407901
0.45824737611866884
0.2193589495556432
0.18555442476679682
0.21221805442815958
0.22271378171460088
0.24901954929833278
0.24900403754047312
0.21563318089744107
0.1832606449601773
0.14215725856023242
0.11709054680324792
0.11873148191561611
0.12194912536637573
0.1266273138400553
0.1307667947546471
0.13031515399969987
0.1284395526309943
0.0946061837512522
0.060772814871510095
0.026939445991767993
-0.006893922887974108
0.018974587821520717
0.04624700571365597
0.07628086439481337
0.11013531123076575
0.1553961411022849
0.18442715288631012
0.20075469753256908
0.2101922689468684
0.19857577159684794
0.17625678068115422
0.15162342910023824
0.12816169995600454
0.10688486051058432
0.08839612066443249
0.06979639078861194
0.051713630200451485
0.03977685346845826
0.03759417855422155
0.046389522461145916
0.0656945290590746
0.08877921494011028
0.10936613541094257
0.12848898020929014
0.14243425906970103
0.14791786182636882
0.1552146797988449
0.15407962218715676
0.1455678929585172
0.13900390438496532
0.13059681482236368
0.10799768309192587
0.12885444859502157
0.11563534597097178
0.1212269666869949
0.13447570755720278
0.10984679108267907
0.1371724857618364
0.1918849066531348
0.2019915428928053
0.5422687926225345
0.7303694445677775
0.7275290812488389
0.7257619315817019
0.4926340859451821
0.21253975388927815
0.17870041364939135
0.20592753100084932
0.2167498281588757
0.2430894077926045
0.24418536013257439
0.2121114650975792
0.18118410712856511
0.14109619029094955
0.11661886703234246
0.11904530902928935
0.12222605288070085
0.12669221150758045
0.13006182038827932
0.12881820657921178
0.126338061193514
0.09269888787295426
0.059059714552394504
0.02542054123183475
-0.008218632088725003
0.021793181318408416
0.05184300888283596
0.08218845776320466
0.1186667591745687
0.15687612174404264
0.1850825042649578
0.19842245735259545
0.2035927855420689
0.19596456221136782
0.1714052960805234
0.14905529612756585
0.12649490388588236
0.10523115204681496
0.08648049347031954
0.06786917502837637
0.04951709075683432
0.03769015341706449
0.03607195290239605
0.04570303963378754
0.06640223340044535
0.09110043075484517
0.11271493621935955
0.13372277076211922
0.15014478009814813
0.15744793502423185
0.16844640993060825
0.16747579371664803
0.1556346959107704
0.14747791997033313
0.13738646364625004
0.1099301399162085
0.13076140400410693
0.11873702216890158
0.1211539030850147
0.13823407611346122
0.11327669559496897
0.1494501954098948
0.19518803511521027
0.20302776555753904
0.8505968829536699
0.8927290450949105
0.8942357596097419
0.8951841621835342
0.40003480550822706
0.23203047521625034
0.19848262155809682
0.22397712542329
0.23390863628908104
0.2601677315924716
0.2581428583394064
0.2223284321885656
0.1872036391441303
0.14417501427938026
0.11792668446361919
0.11808927801624708
0.12141702687815976
0.12654297768429407
0.13220619668053643
0.13338233579492054
0.1327575112188877
0.09854322218409403
0.06432893314930035
0.030114644114506678
-0.004099644920286999
0.03931847313745423
0.07911532438190509
0.10905448631013094
0.149358035542554
0.16447841432403043
0.19286889712628322
0.19757902620966494
0.18746773367500796
0.19108946698675672
0.15495915354339795
0.13844948291795287
0.11885957481296505
0.09754665230004947
0.0779573172209958
0.05954753884757901
0.04009092093813401
0.02910795164685494
0.02959341788242698
0.04231951149906798
0.06853019009570004
0.09899994324234905
0.1242074734507952
0.15249172398152133
0.17980248102011748
0.1990464657200301
0.22964692383914567
0.2321373356573497
0.20578252935094854
0.18682452647033437
0.16329333308476368
0.14994753427069532
0.17150991697627413
0.17045683716674434
0.15890471719966007
0.24659822625101346
0.2561117869621273
0.3147371151629733
0.31272956455822803
0.2515005967817118
0.9939892376877189
0.9940726940183825
0.9948799211869707
0.995002332154892
0.35094821164394296
0.30630776924941233
0.2802956237114108
0.29978777093261716
0.30897277405712903
0.3355648052640442
0.3222282993792715
0.26915835747898126
0.21417623334452948
0.15772443752011678
0.1216539594284149
0.11237192353526129
0.1177520832597505
0.12739380970961306
0.14524850100736145
0.1607064705573959
0.17091672635898603
0.13364841178971068
0.09638009722043533
0.05911178265115999
0.021843468081884643
0.03667147846551906
0.0752582897172902
0.10542324751747084
0.14551954334786246
0.16330237210580506
0.19136125182600053
0.19687557436137418
0.18865428965664158
0.1911749721609452
0.15685613506589613
0.13991955092801575
0.119996268843521
0.09869661228326453
0.07920057075272655
0.06073697145427023
0.0414278723567635
0.03027210733242739
0.030486118009693915
0.04281986618552575
0.06829378260689364
0.09806286798165083
0.12283134408321707
0.1501596470841764
0.17592709839183265
0.19312816629615842
0.22083056146481417
0.22277783064906234
0.1984389548826922
0.18141664091659798
0.16023456259251306
0.14406840768419782
0.1653366444975463
0.16278103643299305
0.1530686085624138
0.20463097145517986
0.21643918814479773
0.2738008467613027
0.27590690612518237
0.25320745963304087
0.9966297140439357
0.996461235942203
0.9969035378920831
0.9969540342038198
0.31064516853141433
0.29693495727382485
0.2692691517464579
0.2891678666717402
0.2980592047672701
0.3245290004098756
0.3126424645125614
0.26221751492278217
0.2102806171210768
0.15582470000154902
0.12133024065339196
0.11332566722461505
0.11827211577286464
0.12710822838569966
0.14302619901810118
0.15614992350226464
0.16463488204627102
0.12785970694582918
0.09108453184538734
0.0543093567449455
0.017534181644503655
0.03152594037476274
0.06757710508557839
0.09802972291081397
0.1374901340431029
0.16107041598305255
0.18874584478060583
0.19625835061350067
0.19202385770364055
0.191926984003381
0.16102428010041042
0.1428485209816682
0.12218208128658535
0.10090445616119832
0.08161636233863605
0.06307170604933206
0.044064905817387055
0.03262824852571857
0.032282826104256694
0.04379798706912326
0.067775196077544
0.09604495085659287
0.11988329937980925
0.1452543213860527
0.16796572416239533
0.18144965791922812
0.20344181252721702
0.20426158601041522
0.1839715884984002
0.1703636814008413
0.15346027972377527
0.13171547925826504
0.15263709817232438
0.14679176609747382
0.14092847703249822
0.1469002887585337
0.159971085087378
0.2127764347629932
0.22615810984039394
0.25262345832165956
0.9969700869192042
0.9966268420488406
0.9969518207770969
0.99696908312099
0.2565247231788371
0.27725905668696715
0.2468805395571149
0.2681190692133063
0.2768582714767492
0.30316351770839745
0.2942616743549261
0.24882204408007327
0.20264337165667368
0.15202778421945218
0.12048257200060689
0.11507481190847174
0.11930609664233144
0.1267141022278179
0.13900575696990883
0.14779422453222096
0.15301645263787167
0.11715430456143529
0.0812921564849989
0.045430008408562525
0.009567860332126144
0.017259860528471893
0.040257772674258965
0.06962500382631705
0.09764040002914463
0.15365888413761916
0.18455536010984844
0.20563220506526653
0.22146231234003866
0.20320151026311636
0.18362046985220987
0.15524802841637456
0.13040217011022223
0.10908190763462557
0.09100522299935489
0.07246021910227127
0.05474984646876446
0.04268237618582734
0.039660728100555466
0.047220992578398985
0.06452125809881631
0.08520679874858803
0.10422449185649282
0.1206132123510421
0.1312561972580633
0.13497447599181758
0.13838049001354716
0.13785582172224592
0.13375799359877139
0.12879413568337164
0.12133723983112088
0.10894498436582879
0.12976709394158054
0.11690185788948694
0.12646674453464357
0.12627044482468858
0.24084130998072306
0.2567502496594147
0.3532272003422282
0.4119654732985578
0.29162054610176275
0.7101039441370388
0.6776334454904837
0.6409005617079502
0.6457909951529726
0.18566583210695226
0.15240533834796188
0.1807843729634909
0.1929573913127773
0.21948740955823698
0.22531830178714746
0.19841848208284096
0.17311380584847588
0.13700010232877458
0.11456899263869105
0.12007993443531026
0.12326606199968121
0.12707750173590646
0.12770675345156104
0.12389332455722578
0.11949914430620276
0.08657196647135106
0.05364478863649935
0.02071761080164765
-0.012209567033204055
0.024773877472382796
0.05694806709698927
0.08743573170781022
0.12528722884669627
0.1581991670624843
0.18600821501496426
0.19715936835223183
0.19902058908561832
0.19424408807959737
0.16769167327820492
0.14696643152848765
0.125089476964998
0.10382736549144861
0.08488101314988974
0.06627692255074225
0.04770413838221207
0.03598458664496141
0.03480863182439705
0.04509553558629351
0.06691277354218773
0.09286742791427773
0.11527004981330341
0.13777754720685093
0.1562767660794251
0.1653882383825521
0.1798292879347042
0.17928943016282659
0.1646513908283889
0.15491765640780078
0.14292752101570355
0.11529145556845867
0.13610150166950644
0.12579539809901188
0.12547723624356075
0.13796526402242512
0.13562794776829926
0.17813726303420532
0.21288948921658593
0.2312692575529537
0.9649424525163297
0.9701385835626413
0.9714060739929278
0.9715568413548707
0.3384578938703371
0.24767283047317495
0.21480033267727539
0.2387597662076937
0.24810344159255118
0.27433687584385397
0.26990078926508365
0.23095900996630764
0.19226897790699884
0.1467658288792016
0.11888968202322862
0.11718307535724325
0.12072608078753072
0.12651007634331563
0.13423835199634918
0.13771501210527912
0.1388644714333104
0.1041373686791724
0.06941026592503441
0.03468316317089641
-4.3939583241586755e-05
0.024973052532265776
0.05727583497676555
0.08776888719659101
0.12568983642320453
0.1582847353197998
0.1860766964228836
0.19709892604295076
0.1987588694340512
0.1941489519557362
0.16746751659370737
0.14683633564676488
0.1250004386183381
0.10373819243829657
0.08478015517768463
0.06617701510122403
0.04759046834621451
0.03587828076416108
0.0347293886547392
0.04505641969409182
0.06694280805985475
0.09297397524608275
0.11542431716888238
0.13802419095396623
0.15665433116502767
0.16588782841960303
0.18055372902513592
0.18004795246427222
0.16523366378093488
0.15539325450649524
0.143270596933991
0.11572829427245336
0.13653783893017954
0.12635574486520695
0.1258641822419565
0.1378292684333481
0.13648269290079937
0.17936482852442961
0.21339680970642055
0.23255823147761914
0.9682223151609117
0.9726515962187556
0.9738630775985152
0.9739944085191324
0.33502356522494814
0.24863572040819115
0.21581838413146068
0.2396830496914485
0.2489954705504472
0.2752285982056257
0.27064583166567746
0.23150608801634723
0.19258915128806925
0.14692933012852227
0.11894642806609604
0.11712292857812039
0.12068225178621365
0.12651087477388584
0.13437346370890754
0.13800265168697762
0.13926973245232266
0.1045093208581455
0.06974890926396835
0.03498849766979119
0.00022808607561403127
0.028257980140973516
0.06253620612998627
0.09305867026693197
0.1318951383271927
0.15968089820452652
0.1873165816864765
0.1964227071581402
0.19498082724845045
0.19283573432607462
0.1640442850296501
0.1447829752343177
0.12357110671984901
0.10230347345628693
0.08316871341238859
0.06458849506624185
0.04578493055475674
0.034201567430605304
0.03347259897990416
0.044421656528330765
0.06739175754796368
0.09460214622465986
0.11778505596071927
0.1418266396514958
0.16254339825319736
0.1738442009499096
0.19219056338207355
0.192310998103309
0.17469115120100637
0.16303290423640682
0.1486148738970165
0.12355645667188861
0.14438603915139628
0.13634346999817507
0.1330895269669988
0.13573577775027434
0.1450978156459892
0.19351214904401648
0.2163805359235084
0.24688856703413373
0.9926618219115951
0.9926572629386041
0.9931909035192242
0.9932124253381425
0.28672123378545966
0.2636074498631384
0.23186488461930152
0.25429307176947186
0.2632109117315671
0.2894607770127408
0.28261310441791676
0.24028985832299338
0.197710589445422
0.14953675984229944
0.11978830770044992
0.11611728953057882
0.11998050532924233
0.12657083196739025
0.13663940737663582
0.14281151461267594
0.14603515803680567
0.11072722422052271
0.07541929040423975
0.040111356587956795
0.004803422771673838
0.017522507479281586
0.04204777228103846
0.07167258730287066
0.10195773090737109
0.15420420111289906
0.1843571748778524
0.20372429893887267
0.21729772057449048
0.20147731403861954
0.18100921011927576
0.15399596550525688
0.12964297401838382
0.10834135187068956
0.09011647209691831
0.07154743679953635
0.05370975106584334
0.041685476017248174
0.038959543035868745
0.04695389618864679
0.0649516788892881
0.08648177879833084
0.10605812714309079
0.1234007638886276
0.13515447080831985
0.13937290130310612
0.1439192473273595
0.1430641835330121
0.13748589078058038
0.13205566744099423
0.12447625631950753
0.10850853618440225
0.12935666817171826
0.11610886728217476
0.12437774752284238
0.129204226947332
0.18531992415781728
0.20447188977724864
0.27353643428413443
0.312121674856744
0.3176739294844456
0.6732255756538612
0.6580526544601534
0.6360061723878602
0.5913914780472537
0.1947347137270895
0.16114548132965045
0.18941432804244898
0.20113012771494918
0.22758538743932805
0.23173411865589388
0.20305368158962392
0.17584305855634366
0.1383786789086535
0.11530214964238077
0.1197658774257149
0.12292247124264606
0.12692361769826585
0.12843039403752832
0.1253872795788816
0.12155479244670223
0.08839456045102628
0.05523432845535034
0.022074096459674397
-0.011086135536001546
0.018635392155727834
0.04543981063573203
0.07540999669980737
0.1087182563100152
0.15517403693620535
0.1843755976928134
0.20121641100257173
0.2113650201569354
0.19904983267424065
0.17707062115813652
0.15203899069374602
0.12842519235510952
0.1071449477439599
0.08870086983395964
0.07010512561844187
0.0520656005521828
0.040112745020876375
0.03783647352888524
0.046493535020071544
0.06557091907731306
0.08838767687029941
0.10880196802341367
0.127615642943015
0.14116967992848842
0.1464022522619901
0.15316637019527837
0.15204868615344141
0.14406169458985954
0.13771977745875655
0.1295109945278298
0.10800771665834301
0.1288659723521919
0.11556583265060749
0.12164586749290826
0.1336190991446268
0.12043755328006259
0.14624789509720978
0.20202002412650197
0.2154052127836724
0.49078388218314517
0.7094103631025979
0.7053800772065899
0.701420156213861
0.5092050516656217
0.20938953748484496
0.17555829514960095
0.20302239105709763
0.21399950007296248
0.24035667117447695
0.24197509055948455
0.21049870379222094
0.18023292093499715
0.14061080594996198
0.11639541842045249
0.11918306096144327
0.12235192082346143
0.12672663757424849
0.12975167726455203
0.12816163865128344
0.125418389050624
0.09186668601887471
0.058314982987125424
0.02476327995537614
-0.008788423076373147
0.01728004729224149
0.03958986706451789
0.06883577786779249
0.09578901085985339
0.1534411008506941
0.1846986386209248
0.20654819988228343
0.22338404948155682
0.20400070082017382
0.18478837218783525
0.15579721199847824
0.13073024648926376
0.10940049694777165
0.09139085373549288
0.0728581278013045
0.05520307454958017
0.04311697246743403
0.03996354845149882
0.04733087815291366
0.06432346810615387
0.08463331676829466
0.10340015655388704
0.11936740881722525
0.12953464573438714
0.13307094102367645
0.13605196633642527
0.1357128729718026
0.13224773413616533
0.12745935572857556
0.11998323178931805
0.1091205878577228
0.12992529735606267
0.11730138580729181
0.127407289366638
0.12499223409112827
0.2687932905408992
0.28370828526031655
0.3984225736065002
0.46537298429081386
0.3111810292836022
0.7420648151138967
0.7002837487082426
0.6580032962733435
0.6695677429705927
0.18181181427417015
0.1487375578195205
0.17702219718631582
0.18938488746464982
0.21595034430619622
0.22253536302104376
0.1964164147983306
0.17193661446337047
0.13640831364058822
0.11423951500772633
0.1202026875114061
0.1234108857377688
0.12715126334580842
0.12741968763169034
0.12330868671710904
0.11870253613326681
0.08587336404611218
0.05304419195895754
0.02021501987180291
-0.012614152215351726
0.03865691561699193
0.078156631462475
0.10815692594013242
0.14841522055944018
0.16418258481688805
0.19248219151755275
0.19737946375230273
0.18773111689482044
0.19109213440312267
0.15541819753294317
0.13881500838962324
0.11914477363035118
0.09783524986438272
0.07826841377339164
0.05984439566161985
0.04042410517126897
0.029395980640285695
0.029814521191491025
0.04244426340025483
0.06847274222469953
0.09877169464094801
0.12387177827903362
0.15192003783492622
0.17884673666940545
0.19757207797780554
0.22745201661595493
0.22981084858660727
0.20395550950656194
0.185493172182831
0.1625573723272392
0.148514803870572
0.16999567035160218
0.16858275738143272
0.1574805707848895
0.23557109024348127
0.2457144677860738
0.3040914964062049
0.3030125883829584
0.2520040572937513
0.9949017416256593
0.9948917725674652
0.99557419232154
0.9956711704976169
0.3409476148113034
0.30401041479876934
0.2775689511976326
0.2971435153121705
0.3062409585938401
0.3328000066161683
0.31982138047514924
0.26741891126410705
0.21320430319229502
0.1572531798823647
0.12158020840713771
0.11261374389249053
0.11788126646802144
0.1273170221564031
0.14468289618872657
0.15955095422467455
0.16932750392704163
0.13218404049977683
0.09504057707251204
0.057897113645247245
0.02075365021798245
0.020599995792797723
0.049628375812326674
0.07987375535510485
0.11550899195459148