# vtk DataFile Version 3.0
vtk output
ASCII
DATASET POLYDATA
POINTS 5568 float
7.02515671317269 0.4527739610162158 -19.064612219581548
7.211197727775728 0.41462663333895033 -18.4527076465879
7.37566478293215 0.3602792422468662 -17.862336660086736
7.510701856328986 0.2962293994525068 -17.268278911616296
7.600852101803431 0.23242528526311113 -16.65933770439152
7.610820010548732 0.183026083857951 -16.103573255544596
7.554484318851497 0.14877306609866195 -15.561724389561155
7.423449424037107 0.13601171090248626 -15.047306149241676
7.215619002708731 0.13619635538494063 -14.531875632488495
6.944357080105254 0.14374212690667304 -14.062373034860277
6.614858756143013 0.1608997967344916 -13.627431154904986
6.218726442749398 0.19205808816442985 -13.208667862138173
5.764145794898926 0.23553209156354232 -12.804835195177706
5.241984045739317 0.29317899168996925 -12.408037299626923
4.655323668975842 0.3671222022635599 -12.021644177230293
4.013112244489928 0.46209238974475186 -11.654721185345362
3.328073793936715 0.5717810620771049 -11.310579791185734
2.618446143657796 0.6894702367005909 -10.991087212438808
1.8989412712072986 0.8054539930505715 -10.68670444884122
1.1800166796642024 0.9092927629922255 -10.388028131390866
0.4744777919298553 0.9947584483100459 -10.080472581865992
-0.20016764911496654 1.057575556052242 -9.751409069776415
-0.8332910477108104 1.0956923270223027 -9.39311706186921
-1.4149189658264165 1.1117120737900943 -8.997250872639095
-1.9407872328875273 1.1086959232135731 -8.561428108121415
-2.4085210602673435 1.0927482164533568 -8.08970589582237
-2.8135147701402463 1.0631051878680948 -7.577696413883384
-3.1535868086179173 1.0188436039116773 -7.027334110626193
-3.444641766131146 0.9509661267726086 -6.430305749011288
-3.6739873527385405 0.8763533132885425 -5.816799959257598
-3.825410013784565 0.7477099806651479 -5.1810803411925495
-3.9076860091054266 0.6091015216065029 -4.531296187664354
-3.933358455994667 0.4346250051905487 -3.848173306015373
-3.898473337788439 0.27116991989899564 -3.177870178668858
-3.82717515990542 0.13326087762893996 -2.4978863601225463
-3.744982569114252 -0.01225448024591766 -1.8984823773056227
-3.58653442698467 0.10116192832747964 -1.1428402463010816
-3.492559907166127 0.1111112462840893 -0.21959142471068327
-3.5152433711908215 0.023881882891852196 0.5079383230989155
-3.5830483857316446 -0.020536165209767296 1.1199663832956523
-3.682888929473651 0.03887998123332537 2.003273080025736
-3.739771616539365 0.08419091470893686 2.597664261908214
-3.7102789377221 0.48003410355294535 3.45415986386461
-3.687452292372527 0.4206071946673262 3.7178649862495767
-3.669903110076294 0.2154240400132384 3.898907976065599
-3.5796380331412063 -0.272793018512271 4.041569691067449
-3.4249199218383026 -0.8075949246493743 4.128091470962879
-3.1812981025851172 -1.3817855846972713 4.248752563815063
-2.850429069009607 -1.936444445428597 4.380858122613487
-2.4335020556567613 -2.4324784651217906 4.53802963532061
-1.939839209782461 -2.84097347431702 4.741665813698887
-1.3910048322922128 -3.158158315865369 5.006118804171339
-0.8931429016469415 -3.3653300907424253 5.412840104545483
-0.30500787582149547 -3.428550376683199 5.793742813901777
0.32296117132011093 -3.476101810981752 6.19835684611566
0.9875274758235242 -3.478439234874647 6.618446454157411
1.6888307627322092 -3.4162531540468466 7.040206907617845
2.442954606759868 -3.2609015543443585 7.454042695845438
3.223886235620419 -3.0271240667456207 7.820030936558966
4.048704028712232 -2.719714754025079 8.112738852470882
4.878888373484661 -2.349946369249138 8.302741029114094
5.681860970283766 -1.9368756174397321 8.396962106430744
6.444656409583482 -1.5077956138747703 8.402362133175437
7.152698053974728 -1.0781447579907864 8.329393849780685
6.905158957703568 0.4399447063267896 -19.36268125870273
7.0533544867809415 0.405660852180992 -18.75168308758881
7.1895274628812285 0.3569621852265832 -18.152133062832306
7.3066404500746565 0.29938633416448746 -17.54849187146776
7.390291474990515 0.24129820780225086 -16.927939427484613
7.405525294663074 0.19481895926589077 -16.345212921188264
7.359107498984433 0.16381285668986245 -15.77876987978559
7.244671743307346 0.15203038570512278 -15.236023341563786
7.057112012335324 0.1537014157304966 -14.69881442443381
6.806996909278427 0.16370055417168244 -14.208717612577965
6.498173302303634 0.18370494741879878 -13.751278536178344
6.125849373893247 0.21798806956026323 -13.312853037782766
5.696527834246407 0.265976366310555 -12.89222549646308
5.203513643231496 0.32887100148181814 -12.481678306865719
4.648174782438508 0.40822995814540564 -12.082818145111053
4.0364145121059005 0.5068694415785744 -11.70183434301819
3.376654692244372 0.6197689378267004 -11.340650397575384
2.6847133998037433 0.7409020213163322 -11.000860279947085
1.9766362627469163 0.8609609658340323 -10.67561917942237
1.266209627602915 0.9697318204793463 -10.356874628140394
0.5692866609520392 1.0599070884541568 -10.032388667613988
-0.09829655153853345 1.1269759637832346 -9.691143200411762
-0.7261891400809504 1.1687053655902455 -9.325763425239199
-1.3045668879997032 1.1872053595235061 -8.92821734564631
-1.8291510600508096 1.18455136586632 -8.495293878600979
-2.298046849175741 1.1660943713710477 -8.029341974923309
-2.706507272637592 1.1318539440989983 -7.526749800361412
-3.052087653894328 1.0813564823713462 -6.990560567141554
-3.348247273166817 1.0089200335153912 -6.413554907455391
-3.583833607518994 0.919997449365909 -5.814745634576717
-3.749321732495323 0.7916208041626591 -5.183127776374236
-3.8517581332920603 0.6576816673387837 -4.530243346398649
-3.8965762997317426 0.4995120861908008 -3.843583631077009
-3.8806847195386442 0.36138623202672726 -3.162984746823956
-3.8324932132289047 0.23353834564894566 -2.46380568229903
-3.7635864738340676 0.1323732465079463 -1.8402323734339112
-3.6321927998054497 0.19988999448800404 -1.1012254399335517
-3.545279001969519 0.16479355517466293 -0.2404866387116903
-3.548139064479297 0.08922638828838386 0.49418655403307743
-3.587385371453792 0.05430592412686638 1.1578350615058213
-3.674072078196853 0.0680241147728925 1.9612196756329663
-3.7299937513939834 0.12469007747379998 2.564922876849348
-3.7250722712786617 0.3906324904643158 3.281235722278519
-3.7101619016400127 0.31058861290094475 3.542440973276331
-3.6908087315237426 0.06628385057717365 3.734056934505531
-3.586810348666157 -0.45713287490667653 3.876170143690275
-3.4291454732073947 -0.9950789624928431 3.9920828624690587
-3.1744713509699087 -1.582325995664455 4.112363262933203
-2.8359690596953286 -2.144484267502049 4.245161741647332
-2.413463063941338 -2.6455407126948787 4.405584099904694
-1.9173595923142885 -3.056247303714656 4.6128005947741455
-1.3666341692834807 -3.3727238328785445 4.878605352116808
-0.8532598521353202 -3.5766115431543826 5.254621849307672
-0.25717255703749875 -3.651590970082564 5.626667539916423
0.377826665490856 -3.6922176720264477 6.0223711272550196
1.046737228739995 -3.677876592208401 6.42911363926246
1.7494240919141653 -3.59482259144654 6.831566199730692
2.498985359616923 -3.423025204266699 7.219347846743507
3.2755478616793177 -3.171926765114548 7.558085215569536
4.08698436830445 -2.8456575125857753 7.823495310851052
4.889424364474947 -2.4625359415723267 7.9910491135353645
5.659931099422291 -2.037414627525644 8.067675378120152
6.384791266240841 -1.5952754739224895 8.063360173458879
7.0515698868010634 -1.1507589290665532 7.9893500808096665
6.428705543791596 0.38900590192310064 -20.54617015577041
6.433026680338125 0.36877799403499634 -19.918590583399908
6.456716874786668 0.34203609318116107 -19.267597655996912
6.501656242533454 0.31036934814139916 -18.618421922199282
6.558514041389596 0.27586621939231437 -17.948973723329885
6.596997998102661 0.24280703661016187 -17.25205431534607
6.594491012346735 0.22624304418295396 -16.579593905520525
6.553743832100153 0.2187834585683522 -15.907764887131586
6.449907454056125 0.22685653929270486 -15.26801500835485
6.283053301697185 0.2474433399244474 -14.679381340621047
6.052696945198222 0.2799378494314768 -14.115163710253828
5.7665795669571285 0.32789351916003884 -13.584391539282668
5.42679843217895 0.39492308269921805 -13.08702481933428
5.03607233111652 0.47926800090222654 -12.615359859270653
4.59066659589949 0.5803843120734727 -12.163025850002068
4.086187822922463 0.6942190325584778 -11.72377419944068
3.5157702099446837 0.8208044999653772 -11.292776924957408
2.8856558770439964 0.956818491685721 -10.869437934527411
2.2166463638183553 1.0942409755228184 -10.457988288393132
1.534707912513568 1.2236594604306341 -10.056207840666524
0.8677824740918538 1.3331980587341195 -9.662110931501756
0.22578657665617752 1.4174363280294104 -9.271111582163865
-0.3824119225684369 1.4735641419854917 -8.877007780872678
-0.948135983697486 1.5018628325120214 -8.472705660623797
-1.46765337185573 1.500632091581096 -8.051192522865305
-1.9413875754096606 1.4723132873316567 -7.607618517296756
-2.36422534017872 1.4200504485065228 -7.140764920828645
-2.7324721256587607 1.3452837025611188 -6.657078298040165
-3.04874322945716 1.2554558422754838 -6.153797300858267
-3.3102925311595177 1.1105826788811768 -5.606973622032611
-3.532558011239191 0.982654364816643 -4.988665624930724
-3.7180550694512653 0.8666155625756308 -4.317604280217457
-3.8405675985657273 0.772137905665877 -3.6080146525693677
-3.9024447310552786 0.7352018336246501 -2.870405046696299
-3.951638722791421 0.6484969652755864 -2.0816043821943615
-3.9376532470686327 0.7376554442418611 -1.3175058617195652
-3.9037412682110704 0.6335676907446054 -0.612090861752852
-3.839977867563299 0.44425691849720883 0.044702108433394394
-3.76192642162842 0.41559726028990585 0.8154335907491675
-3.6629465177708562 0.4268037225931523 1.7236236707764885
-3.707380633055392 0.2963768552618942 2.2677372550045924
-3.759398947781287 0.4002305792718691 2.910966853668409
-3.8139894791723177 0.3380353151744112 3.2489853260220913
-3.832226820434121 0.1644905322830091 3.5151972709261305
-3.804372062264604 -0.27477107511962184 3.751919154514485
[...]
CELL_DATA 87
SCALARS quad_param_group int 1
LOOKUP_TABLE default
3
3
3
2
2
2
3
3
2
3
1
1
3
0
2
0
1
3
3
3
1
0
2
0
1
2
2
0
3
2
3
1
0
1
2
2
2
1
1
0
0
1
3
0
3
0
0
2
3
3
1
3
2
2
3
0
0
0
2
1
1
0
0
0
3
0
1
1
2
2
2
3
0
0
1
3
3
3
1
0
0
0
0
1
2
1
3
SCALARS single_component_feature float 1
LOOKUP_TABLE default
0.05808725285587995
0.03680572646243365
-0.047692986565781276
-0.012527820943117402
0.005630977676577539
-0.01806727993933903
0.011631714970670913
-0.07832026081610645
-0.02283674640368856
0.03624020708326727
-0.023952112922288736
-0.02966313525696361
-0.08827823896194309
-0.022081560983466378
-0.01650534001707186
-0.0456880457681087
-0.07869392517860224
0.009096991682146855
-0.014787823702294325
0.03750296653386509
0.01848311173308676
0.011332454281091427
-0.002398540306370295
0.05981054489246794
0.04741741810730066
-0.0026096487766229387
-0.03983987130953992
-0.03638876999371987
0.023656933981432524
0.05788310089736595
0.05985009747451973
-0.025882935642316866
0.014823074950328006
0.05766203772447363
0.08400739029268697
-0.030155489157349738
0.03912015279607622
0.014582126474633073
-0.031617015723094034
-0.040073343128612327
-0.11370283465598272
-0.030776826991577765
-0.054158839333815836
-0.03182133398136407
0.016038949656998758
0.007830993002386304
-0.08092071217834591
-0.010599821407405757
-0.006635440244279547
0.015821520016787424
0.08239222384862803
0.0014473116777685355
0.011302199524832128
0.03973071669137872
0.04976473075417545
0.10297782468218705
0.035475513415818394
0.022230421569503663
-0.01602898779729625
0.0031394989684196267
0.06727547252088341
0.025585586880963296
0.054023482757252744
0.014309320601958192
0.0050983237536709036
-0.04738556990043552
0.008156606487456364
0.05311846963740752
-0.002639247859876813
0.06055505138249172
-0.0874620581947134
-0.06276310319636391
0.08954982626392423
0.1202572631281787
0.006167727734635701
-0.014386219357237783
-0.010105527341707957
-0.049792303943866245
-0.057835868950086244
-0.034419450735107215
-0.08065280184852001
0.004529481766094363
-0.007863292964091958
0.03733373518176185
-0.020040827269015602
-0.030764409039915827
-0.05892016408846333
POINT_DATA 5568
SCALARS single_curvature float 1
LOOKUP_TABLE default
0.06678798940453211
0.13019514072047889
0.1713779390256723
0.22129169199321538
0.24763487722055494
0.24995957498424234
0.24913389038720668
0.2235434665394102
0.20060707518420218
0.16277770011439238
0.12934858790491888
0.10534635527572088
0.08831513086361903
0.07437601069001729
0.058790798253471
0.042753168350804185
0.03482884518793446
0.03865140338578709
0.055735036117316235
0.08265579068991268
0.11025174951058753
0.1311725890328211
0.1506879832802403
0.1638099773197382
0.16489843819246372
0.16333215288993752
0.17316026933512646
0.16721950813144298
0.1613199410047311
0.15694560484439546
0.12627514712045038
0.10871871102370727
0.17207006624727428
0.1781003152807616
0.2323021095351037
0.25335975565366964
0.18696555345482016
0.16122108652238273
0.14403575740568375
0.9677590195203856
0.9880331092638633
0.9901834137432882
0.9902249040759434
0.632933415431066
0.2614768335718656
0.21237569497981623
0.21667691314985463
0.23629646737148954
0.28582346453187724
0.30745997139993064
0.2518604123918051
0.2091113753093331
0.13318445162348366
0.08003296616813575
0.10051987125263091
0.11246315616255342
0.12323214900732912
0.1263362055305684
0.1282737366408337
0.1291529735067469
0.09480150431618052
0.06045003512561414
0.026098565935047766
-0.008252903255518612
0.048197295655406376
0.09758480869472129
0.1350227582260204
0.17990351463412033
0.21191181814215992
0.22562581776973514
0.23099460136194003
0.21831796605714646
0.20046629311742806
0.1674407767034493
0.13763001072292036
0.11357083390280238
0.0946837389014967
0.07879319866542404
0.06204229110437771
0.04512650647474845
0.03576435047004331
0.03753134493421112
0.05178450801617172
0.07635128758250827
0.10276585445163176
0.12387067402305331
0.14386087832047506
0.1581306908882287
0.1614996797839257
0.16379019607617892
0.16848275568597926
0.1602566440188228
0.15292501445691215
0.1466742020480101
0.11636202116186871
0.10052776436261683
0.1402184021342441
0.1448110015463162
0.1753111391440697
0.18582048325080422
0.1372853043726383
0.14182487977201882
0.16517711250467496
0.9339823608856648
0.9686839684874297
0.9722226611622635
0.9706187630608183
0.5308635895584424
0.23123323950357827
0.18859120706769103
0.21234091325586474
0.2338681608190283
0.2742508669271749
0.28646119130500286
0.23822439091228081
0.19854273536390735
0.13564194458097084
0.0937975615642391
0.10709686009331583
0.11584764775286678
0.1244564386218466
0.12833263060018085
0.12960105590270693
0.12970608058302033
0.09548973803902577
0.06127339549503122
0.027057052951036664
-0.00715928959295789
0.029934553255158602
0.04018366823683322
0.053134939395247854
0.061889627738248826
0.09716895862379427
0.1369134369307387
0.1584351674392104
0.18171642179899689
0.18521299887346096
0.17281380738406182
0.1595442633798749
0.14097877850012647
0.1186096831854969
0.09777759115656497
0.07730642606746996
0.057485439344688284
0.04254537632479749
0.03673351342637838
0.04046159805333895
0.05557268279029109
0.07729768284967253
0.0988464581870912
0.11973826051029868
0.13691849862884514
0.14715300837152018
0.1684040053408756
0.1687370607276237
0.15622822191509794
0.15158765869691576
0.13662592175340196
0.11813688641171817
0.17010177588556452
0.23144478587222983
0.2448832472993053
0.2913446329504419
0.2279335056890427
0.3407525397778237
0.4034123003968025
0.6749177138127682
0.8168057459953658
0.7937659580662817
0.7772252566364517
0.5829306408885179
0.3866339187470509
0.28621027710050684
0.26060348088626684
0.23932354411450849
0.22602485319080962
0.24887462243679007
0.23962501795881092
0.22236827587104005
0.1954577335895235
0.16374820350680191
0.14797985039654488
0.1320683753946791
0.1286099982264848
0.12954212247269375
0.1360662119189617
0.137172114541699
0.13550713794162605
0.10113781476776705
0.06676849159390805
0.03239916842004904
-0.0019701547538099606
0.017072809589731387
0.040829451129919495
0.06743746109184663
0.09780415367718849
0.13959129368959944
0.17166497024844835
0.1879863567454368
0.19936803390768335
0.19413963349300473
0.1732140027041487
0.15288856787911523
0.13098070300321418
0.10919376449244508
0.08975476069968691
0.07058173860526173
0.05186034511390902
0.03917373817141583
0.036289040901521845
0.04416171680917751
0.06313512873526164
0.08678235661937767
0.10825185923355736
0.12898639113570565
0.1452859677025597
0.1531795220632479
0.1661877979758614
0.16443887565770884
0.15271249812989432
0.1453918764996189
0.1344659219739893
0.11005895470473916
0.14155334910872377
0.1344502845239922
0.138504429463109
0.16314271688058446
0.11820488111586236
0.1750096063301365
0.232227066757014
0.2228063432964487
0.7326159400430994
0.7921094690171783
0.78801442352267
0.7967002301591358
0.4024766558738293
0.24076669129968956
0.20960454607463672
0.22468056524445934
0.2289537356792605
0.25219386509384656
0.24744340478165655
0.21708384383737295
0.1848071661600953
0.14750287743495427
0.1257111831050282
0.12203750902164967
0.12350259319639195
0.12730771877305883
0.13283910395171938
0.1334066160717241
0.13205627266972295
0.09796346706306554
0.06387066145640813
0.02977785584975072
-0.004314949756906689
0.024235445241663614
0.05642094435440342
0.08806869740062251
0.12577881023050191
0.16446859018501553
0.19095765678774113
0.20377774718486566
0.2073056946255722
0.19739114148809472
0.17194319964881322
0.1480076354585054
0.12493965553226843
0.10395912257773963
0.0856363645495673
0.06729207614822103
0.049198637263878825
0.03772395904158419
0.03650923958331969
0.046680400078622904
0.06771599729357969
0.0923823366709807
0.11373755829762912
0.13426089205410732
0.14991782365439837
0.15629037829545506
0.16515077344517098
0.16465350910743073
0.15389831107794197
0.14601807236684378
0.1369091377076047
0.10922048111567526
0.12474928897362014
0.11884220102668996
0.12188626054026003
0.13680644861073127
0.10927565858105812
0.12736006307114728
0.17056079371525606
0.19312253919196712
0.8249378080919769
0.8865648793714385
0.8889819887929695
0.8860854040341068
0.4291668976301683
0.22349862627936035
0.18861810445414412
0.21809478529167553
0.23064983044101836
0.2586774423120644
0.2590897784906809
0.22204342640953129
0.18700514980877506
0.1419334809623465
0.11401293878582774
0.11662191557159189
0.12073269672742337
0.12623849438438314
0.13118952326362338
0.1318447303493562
0.13093105400624944
0.09684162763234462
0.0627522012584398
0.02866277488453499
-0.005426651489369827
0.016560668962845908
0.037955437267039115
0.06264948129827723
0.08978845648521966
0.13240797427767706
0.16594707339616988
0.18322124338941057
0.19676390908782465
0.19295161068437566
0.1734000990118381
0.15418846021531327
0.13271553949599238
0.11074925849745837
0.09102060088679007
0.07161379841097068
0.052709024848043136
0.03965800389595315
0.03628082488246005
0.043469917951845766
0.061819457993831185
0.08515761531219213
0.10665414609953962
0.12743682540248685
0.14390755595980168
0.15222607803353008
0.16652538118376947
0.16470361080183438
0.15275811423525534
0.14572920507422865
0.1342162547492379
0.11091788407616365
0.14657144419976256
0.14848052026141156
0.1533108734958195
0.18173443671989312
0.13259051826196838
0.19531756864219618
0.25534233338184065
0.2763624255131389
0.7254605103099797
0.7749318174258328
0.768104596181922
0.7646854729411385
0.3975472142892585
0.2474576347517731
0.21730914492219527
0.22688928085849916
0.22846167650597757
0.25080870151958257
0.24482250532417882
0.21651975023048553
0.18508993591031947
0.1495490134126823
0.12925820210747313
0.1236619163368966
0.1243321173816373
0.12764298089054543
0.1333430497978194
0.13393046589053914
0.1324800461745278
0.0983700407235806
0.06426003527263341
0.030150029821686214
-0.003959975629260981
0.028216234490654215
0.06343167065127225
0.09636459563647322
0.1355945840113735
0.17313798054283622
0.19749813169567199
0.20902897642633034
0.20970211952191928
0.19823743486635534
0.17130167954595904
0.1461959489531802
0.12283741166695725
0.10219372694769185
0.08429212816894727
0.06624001155738019
0.04836330187778376
0.03729343700833662
0.036644750705850694
0.047591109874818446
0.06931008727352939
0.09431384068301156
0.11562472384504109
0.1360614381683033
0.15147896365856472
0.15730920991323363
0.16483997110780957
0.16507146095194916
0.15472084150300636
0.1467960982126704
0.1382572954269397
0.109753521408912
0.11932475256659951
0.12228261249458997
0.125403883871617
0.1397917205018077
0.11909432074246491
0.11978064357330566
0.15684155192944307
0.1902220217485797
0.8530898947819652
0.9104092496183873
0.9137342208693049
0.9091824004476082
0.44274280543784383
0.22060420878993017
0.1843639162630046
0.21626854959315708
0.23123880044914408
0.2613528175907553
0.2637897663608999
0.22455767584980446
0.1886142846178007
0.1404328179860899
0.11012936409701274
0.11480663433464024
0.11980297026653836
0.12589247295099787
0.13064346476841868
0.13137509769701683
0.1306364898404948
0.09653329155613868
0.06243009327178256
0.028326894987426438
-0.005776303296929686
0.051797174701979046
0.05281920370317097
0.05368604641249955
0.045338500247878485
0.06620911641860752
0.1100010852451105
0.13455167782089214
0.16488508789404657
0.17518051441742966
0.16953701335627244
0.16215436115589155
0.14744212123413508
0.12565420860069634
0.10453171065297126
0.08336142662578472
0.06271513925481992
0.045958336162324094
0.03812265790991536
0.038757047963789676
0.050839001508147366
0.0710478317782472
0.09242666257490009
0.11311434456065049
0.13063445843470514
0.1421072584450598
0.1703162440397911
0.17673776800099966
0.16463058780803327
0.16357836216333368
0.14448030128009232
0.1274095773095147
0.18671386666250828
0.3101282194954952
0.33966263129107327
0.3982161721657849
0.3320159738761745
0.5407990440160474
0.5868484832326686
0.9275100852675932
0.9443942838159719
0.8984876749254074
0.8857093611284238
0.43207164282996585
0.39102538233010536
0.3248256786814026
0.30263262573697386
0.2523382874536303
0.22383659980689455
0.25495009533428914
0.2486802834740636
0.2426961382026201
0.2203070979534674
0.18435035837914418
0.16673211525501724
0.14013332584799015
0.13267036493203438
0.13175664031428497
0.13897211547158947
0.1413884761703864
0.14011797476808352
0.10510346233494816
0.0700889499018128
0.035074437468677444
5.99250355420855e-05
0.01652842773503189
0.03596392082694274
0.05889826929352894
0.08309924669818747
0.1263743805896259
0.16109258274296345
0.17914557801344896
0.19446160121634345
0.19185938564320862
0.17348496027828886
0.1552340699502458
0.13416461923897766
0.1120697386941668
0.09211189325013441
0.07251181880907799
0.053452183998342805
0.04008986068996606
0.036296588775904894
0.042905028195903375
0.06072072304920876
0.08379400431329065
0.10531013493473461
0.12612773522890722
0.14273632852125712
0.15140497511378737
0.16682143321062531
0.1650580413572892
0.15295295823393695
0.14621756789216062
0.13418541808535878
0.11182383543597427
0.15077688448178508
0.16149103619227353
0.16719254923631108
0.19885196874354982
0.14649388819980877
0.21464130407159318
0.27650503231127144
0.3305670907496318
0.7260078981182879
0.7648139098829919
0.7556465560233776
0.7359568323226321
0.3942000106563768
0.25347687826938
0.22415716194952248
0.2288357481766759
0.22804734716618225
0.24986852878340138
0.2429636583085155
0.2164361341735369
0.18573612412087176
0.15145500482642887
0.1323021376665154
0.12504860000565207
0.1250396582238399
0.12793592285729455
0.13377779060179357
0.13440100524617618
0.13287850636597912
0.09874665261898824
0.06461479887199736
0.03048294512500649
-0.003648908621984387
0.047716643402089455
0.09675828428327983
0.1341000995479837
0.17885251417612505
0.21099869984932382
0.22498419896929273
0.23050510991609385
0.2181520459696462
0.20044040435006608
0.16754772474020627
0.13783817699132525
0.1137855155222092
0.09485335187163603
0.07891375899973403
0.0621325302928625
0.04519422852763042
0.035793692097991346
0.03750602948201337
0.05168423011985913
0.07618764306332165
0.10257065570809519
0.12368032035537167
0.14368196174940726
0.15798007300342967
0.16140736008665002
0.1638083563855648
0.1683792580670738
0.1600982163074247
0.1527396655292698
0.14643863387029551
0.11614568385894747
0.10078482099211736
0.1397394911112928
0.14428984015533147
0.17422694391143073
0.18408933688812382
0.13621280930094862
0.1415835925788035
0.16577955396830063
0.9327207421032093
0.9679006902781403
0.9714687468029537
0.9697862924208455
0.5284059688651451
0.23063647481099087
0.18815183592231977
0.21233707877089356
0.2338062347217293
0.27394405615663847
0.2859161940564021
0.23787845043157074
0.19827956462783572
0.13572578762939141
0.09416448126212823
0.10727123878231687
0.11593723661151521
0.12448867541798474
0.12838504981717688
0.12963805129483214
0.1297228302450538
0.09550975245342906
0.06129667466180433
0.027083596870179596
-0.007129480921445136
0.016569313313606133
0.035556295308189774
0.058066930855149954
0.08157028669803337
0.12498351947038841
0.15996678094766884
0.17819645792639477
0.19391560978775538
0.19159494106766192
0.17349477235858482
0.15546864109870384
0.13449732723777277
0.11237585452204847
0.09236716543611354
0.07272301021370528
0.05362756410197317
0.04019279319298159
0.03630336329913532
0.04277714502941481
0.06046851612831948
0.08348005426901259
0.1050002366300141
0.12582510478780629
0.14246465838843655
0.15121301406423956
0.1668912591606393
0.16515779179916754
0.15301926293436494
0.14635798121091848
0.13420250671718548
0.11205486639328752
0.15174171678130696
0.1645970385237353
0.1705302873899041
0.20293533944145228
0.14987899163684273
0.2193979725706946
0.2816135778103775
0.34418542241822947
0.7270361384503801
0.7631367079932797
0.7534385786979185
0.7291234124797012
0.3935246695119779
0.2549094656375206
0.22577782137138702
0.22929574079893164
0.22795169122609196
0.24968337920298178
0.24258398410794374
0.21647206177977651
0.18594274642799014
0.15192070119780707
0.13301253491983403
0.1253712082310976
0.1252041804190106
0.12800504667783588
0.13387960008171843
0.13451373347302292
0.13297633618937632
0.09883838034181118
0.06470042449424604
0.0305624686466809
-0.003575487200884242
0.017538021698118134
0.03428407441154775
0.05456831954917155
0.07447592942618374
0.11798099820875096
0.15426009424286558
0.17336261656670224
0.1910776213292181
0.1901887776710946
0.1734856621573528
0.15660994094354244
0.1361630283293805
0.11392625222921178
0.09367389737360286
0.07381095258007839
0.054534543683097805
0.04073105001013195
0.03635662159360448
0.042148104902037666
0.05920646487378168
0.08190327538816436
0.10344078987051035
0.12429736486723696
0.14108776837062614
0.15023098091360648
0.1672515766656514
0.16576789202186465
0.15348101886922666
0.1472304739694058
0.13443188663682665
0.11333516909995836
0.1565550061267126
0.18068931138103578
0.1879789814070627
0.22410526125675564
0.16778412291877326
0.24513217812647717
0.3086815344568129
0.4187527447138592
0.7376125452447752
0.7590120039499199
0.7467840264996913
0.6937043592069028
0.3906407988056027
0.26234753613381295
0.234145689473331
0.23167360846912424
0.2274692001853818
0.24894492552197994
0.24097519878530496
0.21699319566515335
0.18733764060464833
0.1544276651214646
0.13664079090242917
0.12701261386985285
0.12604070442202253
0.1283629234118715
0.1344019240615093
0.13510739847701797
0.13350575753987304
0.09933034140155081
0.06515492526322858
0.03097950912490635
-0.0031959070134158774
0.058616394109456134
0.06018436593299488
0.05741968036278154
0.044087813379585374
0.060413019458972
0.10199796051864915
0.12726091602621986
0.15928989665646723
0.1715769098185034
0.1679344742599056
0.16236178285165564
0.1490386184352854
0.12765105007978625
0.10662714022874727
0.08533231160860828
0.06444800369636301
0.04713516255552477
0.03877583427893394
0.03854498303315048
0.049749886033941294
0.0695227653531427
0.09078970623262199
0.11132785200966308
0.12886291582783027
0.14054906808919382
0.17090469785759696
0.17989124820838548
0.16808997976262238
0.16836956900866115
0.14781309453156494
0.1304525946661311
0.19045006954000432
0.33251550654133116
0.3683998018154915
0.4295481833191388
0.3642849155536719
0.6090456504447541
0.6472972920265213
0.9526682044816587
0.961238835431679
0.9140680469794905
0.9022083048397675
0.4013603634914318
0.39415266588228004
0.3363593485220857
0.31505951290553014
0.2565013945452157
0.22319429803140198
0.25788051888338565
0.25378278331184084
0.25138165762947906
0.2303952275872449
0.1921058820208202
0.17266062372610025
0.1425904863281869
0.13389198711040856
0.13254231841294078
0.1399432616000281
0.14295393461102848
0.14193912044136134
0.10661605705783116
0.07129299367430098
0.035969930290770794
0.0006468669072406119
0.016511560320269424
0.0362527918753904
0.05947160972443883
0.08414327223750052
0.12732042306762695
0.16185688818694244
0.17978909075243327
0.19482967942548254
0.19203651062065924
0.1734761601151475
0.15507309753649806
0.13393800831905842
0.11186188434977126
0.09193906042925565
0.07236907588113406
0.05333377488937734
0.040020581535283796
0.03629266943959449
0.04299253136514355
0.0608925202218113
0.0840076518812709
0.10552092153942558
0.1263334054925924
0.14292076005984167
0.15153496592725457
0.1667742740205678
0.16499412611388925
0.15291252111455847
0.14612811582181426
0.13417905105718697
0.11167131779356415
0.1501193884337231
0.15939869632277986
0.16494939081675827
0.19610111054410423
0.14422722002395794
0.21147137920996323
0.27307997648875815
0.3215411399514155
0.7255062338330893
0.7661032846866771
0.7572999993318014
0.7405619461938708
0.39467953095977476
0.2525116525059218
0.22306337277198757
0.2285252518660707
0.22811237892876424
0.2500014180864167
0.24323269308508047
0.21642386394516783
0.18560828167272744
0.15114404282299443
0.13182082770677228
0.12482980358211744
0.12492805851314026
0.12788925732007744
0.13370889109368225
0.13432526511432222
0.13281328036459114
0.09868534052510207
0.064557400685613
0.030429460846123926
-0.003698478993365145
0.01664705440606886
0.03869828069079309
0.06394750254594171
0.0920233413973598