# vtk DataFile Version 3.0
vtk output
ASCII
DATASET POLYDATA
POINTS 5568 float
6.980612973084626 -0.1206880066378524 -20.8730951404679
7.116370732017219 -0.10506567363513877 -20.11209563496303
7.3025640296127685 -0.1128220304583646 -19.308727017397402
7.48047855583405 -0.12970720087762933 -18.504054125305732
7.606145043392588 -0.15050596176946032 -17.70936520370906
7.652529056896943 -0.168405320040444 -16.919741116745932
7.598631470857661 -0.17871300628387182 -16.138785184917992
7.429494324850728 -0.17833631876130382 -15.378909585953272
7.133663976099699 -0.1623436729842701 -14.652544619442043
6.712985762845693 -0.12370711312306895 -13.976840231940576
6.1836121834185 -0.05527713777396463 -13.361679941610651
5.560281436960535 0.04641544527562358 -12.806734745317272
4.857534556579544 0.17872475718906966 -12.309197730426437
4.08727959852162 0.33185726837137997 -11.861271899271033
3.2627372286618743 0.49224872744088755 -11.452318706492411
2.40740196377729 0.6442340860046429 -11.066661501830305
1.5489081527546493 0.7730653783251287 -10.683410922228699
0.7121882131951031 0.8693708603862756 -10.281862060699765
-0.08139407778429675 0.9299792110538837 -9.84517888841124
-0.8156786323066755 0.9544241134959766 -9.361857844683286
-1.4790995532071816 0.9415040296314635 -8.82589867588725
-2.0642113114179867 0.8905535597867158 -8.237325902446432
-2.567194382986119 0.80223022281754 -7.598256244675816
-2.984283156464147 0.6786257944688976 -6.911287913549101
-3.3104984840780713 0.5231296277458315 -6.178750697185056
-3.5391962735543494 0.34091581636245155 -5.402613967699243
-3.667025729061183 0.14202087419302206 -4.587663507640715
-3.6991684688294173 -0.0590852854073842 -3.7433484335990403
-3.652499851755447 -0.24496411263575907 -2.8874475377983218
-3.55398955268519 -0.3999877531402348 -2.0360670270499814
-3.431564943939954 -0.5063159666335475 -1.197546835694832
-3.3046003929197623 -0.549240655814935 -0.38758944056037636
-3.185278814596971 -0.5151049257171505 0.386185012332402
-3.0864653529301362 -0.38236965362988284 1.119030585338771
-3.0236310553114163 -0.13363854172827055 1.8106254875980838
-3.0114190435201653 0.2304534425734348 2.440954094299304
-3.050741091589743 0.682621761937422 2.964286856139105
-3.118381057588069 1.1888349345460225 3.3944606888317663
-3.2053840346558555 1.7028097855890167 3.7717688437149337
-3.3057363370982227 2.1411611454248085 4.114183982754211
-3.4027955200549522 2.444804238445486 4.413039927515949
-3.4757713125533045 2.6166331217939183 4.671437119405371
-3.5348391870384264 2.6745547477565395 4.936622565847372
-3.588529487250489 2.5689888961171476 5.225377821198752
-3.6303774131474613 2.2855758775995767 5.49510263010854
-3.6255478226252364 1.8224610848409313 5.752758117154567
-3.5500968182399264 1.1659676477083742 5.971790012972402
-3.3950907885753394 0.4129122556378271 6.129957432449331
-3.160760814644687 -0.3517811245182524 6.247145450917009
-2.828765659346418 -1.1004747539882227 6.339476534083476
-2.38485186916196 -1.786675824240585 6.435469154786075
-1.8130559651933784 -2.3574463157306513 6.580461738078585
-1.155358254243823 -2.753879268127056 6.8124427573627555
-0.4443353852052866 -3.000184485908928 7.135853929271057
0.30172540633133016 -3.1161050274832833 7.535110715877899
1.0761443877779509 -3.121946929654526 7.9776365828528455
1.8746960395078145 -3.029687083963076 8.421459638712163
2.697202178274102 -2.841943134909101 8.825541669476612
3.542137812956336 -2.5493207410427083 9.153642775365917
4.3864668847873425 -2.1617565385844073 9.37325027419228
5.205918404167579 -1.6956877892122586 9.475386200721339
5.976682119493641 -1.1716422856650768 9.460304610476195
6.678206596894493 -0.6199320188924275 9.348686929315937
7.281905606698408 -0.06528751850224235 9.163746290311279
6.841153062705144 0.0855035017654612 -18.185851348263885
6.877833419792787 -0.01847120866567864 -17.57812905612979
6.849248099347722 -0.13181743544148472 -17.02366937598474
6.7794259298543285 -0.23974674249144015 -16.531816116891886
6.678820300637591 -0.3269790621283298 -16.084489413267494
6.552941044940444 -0.38876653731627864 -15.648760267942597
6.4007982862003745 -0.4156151073049136 -15.20918800409302
6.221942069069195 -0.40888779887612187 -14.767228944953008
6.008416978576317 -0.3786581583238378 -14.32040619133467
5.7499808202032545 -0.336827771421482 -13.866724877960433
5.434106139143697 -0.2889262646768494 -13.398791034706829
5.040772828661001 -0.22898458607171285 -12.908999860818506
4.55853809821369 -0.14639427213401 -12.402244613827705
3.984494897702519 -0.03608956670487368 -11.876401031742763
3.337020000332092 0.09645301273906656 -11.33792719700671
2.658700144779279 0.23206236553665607 -10.807550147983711
1.9973803781823372 0.3535406005644579 -10.293589769422802
1.3956077701990908 0.45273059103146523 -9.798308319739387
0.8779122442168182 0.5288732210467374 -9.325315217802759
0.4467561912895252 0.5795097211425543 -8.880482586863408
0.0928553855186044 0.6004886929359123 -8.469997153025353
-0.20079444183004147 0.59506423830836 -8.084262184386127
-0.4501631432009763 0.5633443841453557 -7.703136842712174
-0.6631422473560376 0.5045815262413041 -7.309968407678871
-0.8463872822258289 0.42498211384010975 -6.883340441661321
-1.0090861282241077 0.3375776088647835 -6.396467861622754
-1.1578418214482649 0.2606375065440483 -5.830158199649253
-1.2842229508166778 0.21668281515323123 -5.196701823886755
-1.377556009794798 0.21712987206574516 -4.550932075254707
-1.4451272690374721 0.250685591228548 -3.9491819254291163
-1.4955538820157104 0.3105898707692562 -3.4160811506079893
-1.524578681017499 0.39593076280841827 -2.9600212956925884
-1.5381620854263187 0.5089261679119101 -2.5541799987123333
-1.5503801329271272 0.6537825773121599 -2.165526069609485
-1.5739682407612898 0.8533114809261938 -1.7565150204826963
-1.6090788150573134 1.0797556863466435 -1.3677747505395654
-1.648959435915623 1.2679034563660438 -1.0999772813956459
-1.6907388172906372 1.4343224370990555 -0.8780799750632662
-1.7347487294029478 1.5866291359620848 -0.680915595987539
-1.7739240593691679 1.7111407689737197 -0.5061435713160389
-1.8027858871047895 1.780471067191147 -0.37425514897623985
-1.8171134521193613 1.795679052032598 -0.2832386092837307
-1.8189158332069366 1.7809093702428844 -0.21260937989171563
-1.810774720479185 1.72019934226768 -0.1253548162780767
-1.7942596916331763 1.5936128222261041 -0.024715587463202446
-1.7702095844073698 1.402595356817532 0.09170556579250137
-1.7353879901107316 1.0396801243476919 0.24947040567863837
-1.6536026904717913 0.5628409931050499 0.405548964054721
-1.5197212883780724 0.029710855067456188 0.5931017647773413
-1.3050690367497273 -0.5535198771432849 0.7975601301693511
-0.9771577805900514 -1.1163683019230455 1.0249185450340912
-0.5284781885754071 -1.6104578938453045 1.2958686548905474
0.02681493605244989 -2.0022219065687876 1.6284438370578043
0.6717509490750094 -2.2687707127692747 2.0199333085806956
1.3684578980219744 -2.385388075899207 2.448834402541495
2.0779312697644525 -2.3724903029387727 2.8766283992362047
2.811586528681609 -2.2623039083742347 3.282941993665321
3.586294506630575 -2.054638973834704 3.650435250190591
4.402558650376337 -1.7434979429615054 3.958344667535228
5.2196745568003315 -1.3587675540449575 4.174674424677247
6.015683937506887 -0.921438862508724 4.307817581847857
6.785092938524962 -0.4490356932927567 4.371482846359971
7.5104905659367365 0.04444992386680485 4.380231549072178
8.149531551205131 0.53284373278752 4.36109283966213
6.998722552172399 -0.14746302333258854 -21.222047422529638
7.149291098722726 -0.11415024106675771 -20.437437156478072
7.370348934361263 -0.10489744704727777 -19.592888367953336
7.590753985078885 -0.10617454411474915 -18.734510448889118
7.7562389375290035 -0.11514291195450882 -17.880151018768444
7.832936108701799 -0.1251846153032381 -17.03139852289426
7.796463659860016 -0.13255093555572758 -16.195869465144686
7.630234890300975 -0.13326208655018887 -15.38728090763037
7.3228084874529475 -0.119775736026074 -14.619456734877783
6.878169301530393 -0.08190836381165184 -13.911596737679915
6.316959325446453 -0.010488297714361619 -13.27549632587364
5.659310283493811 0.09744897412457833 -12.711323603541278
4.923672755821675 0.23715367016405614 -12.214748535701004
4.123959704921818 0.39668081666105975 -11.776747002912021
3.272350835034272 0.5614323150510712 -11.384195545483912
2.389705564715398 0.7162066283353873 -11.016957398859624
1.500898766377234 0.8464953792847416 -10.650584952218942
0.628185898130415 0.9426470547975634 -10.26140779669263
-0.20779638375906262 1.0009984824988698 -9.829634377550217
-0.9889404641084478 1.0212661475119145 -9.340933321831935
-1.7004643841623328 1.0027421714947264 -8.786974099416069
-2.331037848772251 0.9442981319847213 -8.168523298024844
-2.8734849447268296 0.8468771995597254 -7.4908591419853146
-3.322054128532419 0.7131591628058289 -6.759676347598534
-3.6698440068440363 0.5460129358700266 -5.981361798270269
-3.9078767858128747 0.34925338954127316 -5.162555161145616
-4.031914241022527 0.13165918224660814 -4.310955621817205
-4.04958572141274 -0.09357508452138699 -3.4342757810925257
-3.98126527550096 -0.30850254107147823 -2.544400547346277
-3.8560642286162823 -0.49388848429816434 -1.6519905145684572
-3.7046564271762707 -0.6281095585971046 -0.7633207388119309
-3.550610908584508 -0.6937136855942111 0.10458218570709676
-3.4080333662911837 -0.6744279943709953 0.9382967702861567
-3.2901165731203585 -0.5452343501184815 1.7260341663242298
-3.213016577791371 -0.2898511570188828 2.460920005528388
-3.1928767269692275 0.09468995040528416 3.1272083703070095
-3.2313104770989733 0.5896328568615907 3.690243606751225
-3.3026302848437665 1.1540953057863512 4.1530191249970425
-3.3964387388544734 1.7317309008977355 4.558467259280503
-3.5071729645562146 2.2256878464716996 4.927263300552045
-3.616374329337068 2.572199317847353 5.253486389376495
-3.7006099509267685 2.7752795080477934 5.541449338944322
-3.771587898110434 2.849391541953198 5.843044359594613
[...]
CELL_DATA 87
SCALARS quad_param_group int 1
LOOKUP_TABLE default
3
1
3
3
2
2
3
3
3
2
2
2
2
2
2
0
0
3
3
3
1
1
3
1
1
0
0
1
3
3
1
3
1
3
1
0
1
1
1
2
0
1
3
1
3
2
2
3
3
3
1
2
3
3
3
1
1
2
2
3
0
0
0
0
3
3
1
1
3
2
3
3
0
0
3
2
2
3
2
0
0
0
0
0
2
1
1
SCALARS single_component_feature float 1
LOOKUP_TABLE default
-0.17823716531453654
0.36301316237359565
-0.2485212748402043
-0.25530644841693295
0.05971066522567689
-0.2895201705724949
0.003873087192690184
-0.3826667324417752
-0.4119549769802642
-0.37229436237789454
-0.018317161361528014
0.24561581080494177
0.09940979183441483
0.12353582072096016
0.04646398498794689
0.24040982133367533
0.17570728572788943
-0.41361154206288225
-0.04651127212071639
-0.014833068175350083
0.4466067646943594
-0.20812965232645092
-0.18292952341094
0.3301585348691233
0.11326310935403924
0.5259536258518549
0.4519006747589893
0.9711947459434611
0.29804202701705884
-0.33477247816876216
-0.28840912724184625
-0.35288486456530294
-0.3758768203992865
-0.25836171884318504
-0.11748273820109012
0.6744033510885217
0.3401159592767381
-0.19163048244765715
-0.09467610070504945
0.7537244495964711
0.9328937022818243
-0.284188265636685
-0.12815779375029948
0.6506431997666883
0.1405160332321191
0.29769857319566106
0.32101228493553347
-0.4900254102537973
-0.44890887223871273
-0.40709611862278033
-0.3863307305397284
-0.3672640286673862
-0.3418705027294559
-0.43502576539003635
-0.3958570302522183
0.22457255968171594
0.24904980377353952
-0.04956778193420153
0.46818441898555596
0.5149861341268718
0.327815767849142
0.2644082186798673
0.5129639053524435
0.6185746275517363
-0.4598238079851747
-0.33298190006156825
-0.016198139725037888
0.2947481087848593
-0.32735246761710884
-0.012433355026921437
-0.3689042620249353
-0.2613896227213728
0.44077829692501236
0.3014651221667026
-0.45198703414343655
-0.40740284034704394
-0.3504507607718687
-0.4162757929013904
-0.23988317749024946
-0.22805484647448443
-0.12202254269387908
0.016247961055015338
-0.11282999256664197
0.580126864051354
0.07233102902192479
-0.3456777418276511
-0.2672310187017595
POINT_DATA 5568
SCALARS single_curvature float 1
LOOKUP_TABLE default
0.040726131129451615
0.07213168474107248
0.09632325825225171
0.13964021615851557
0.17259035108532036
0.1933094781528213
0.19901095701035926
0.19025947995726494
0.16947091994079727
0.14115944047831222
0.11146376309600813
0.08222775354032069
0.05718239284325334
0.04491660441661872
0.04677334954993585
0.06266244571617
0.08810413224283294
0.1125699524095311
0.13203579908405214
0.14545384517789856
0.15290487454125704
0.15584902630208927
0.15423064145006168
0.14698109184502103
0.13358051687644
0.11440721656640758
0.0961110644870531
0.08729077060149486
0.09319573325777501
0.11983211138869675
0.15957430741408743
0.20103627178547073
0.2431284194805315
0.2571338046258037
0.2314379632616386
0.19339254712328124
0.20583194959992526
0.34694438852737286
0.6024488602126254
0.7807127183899074
0.827952310660442
0.7866887019185402
0.6370224509813377
0.39487533742031683
0.22285154775086144
0.16575880452851088
0.15617922222618436
0.18077176071142176
0.22857350406601606
0.25714549946327736
0.2601149854092219
0.23129005696220056
0.17941759200168625
0.1429660310129082
0.12833084179195517
0.13218987246431665
0.14337607675262848
0.15365118098100258
0.1550014695664687
0.15476434788486657
0.11562941773241191
0.07649448757995725
0.03735955742750259
-0.0017753727249520679
0.1504550792906193
0.19321486229095924
0.1876279853186481
0.1844477920374635
0.1738604954934128
0.1636469032835379
0.14585276648033835
0.13055951300164043
0.12088575657478146
0.10795670866126303
0.09066577757551084
0.06960571073894758
0.04603326488324787
0.036816014168478746
0.04486497107475678
0.06656113352002124
0.10064481680447043
0.13427689967882214
0.16549850650489661
0.19203388392591886
0.20309827926575916
0.1937332604400517
0.1691568374269426
0.14273397417162775
0.12639307637923328
0.11893808320548789
0.12149508364741085
0.1400893505332499
0.16628731154269807
0.18960617938437735
0.20787006568810928
0.20230926810407274
0.23906749022111337
0.23117046971852093
0.21414971793290655
0.22144521691951954
0.41445851010004653
0.9412238619133948
0.9978962342324995
0.999349905715653
0.9993168905071819
0.9916715859692534
0.7918683814920358
0.4487851444388405
0.2180414820521899
0.155640133228043
0.16337512847112365
0.1840390014636275
0.22062077480246378
0.24485980132761884
0.24550296185921455
0.2269508601145653
0.19715976168804197
0.17147470036490287
0.14807631837499194
0.1350962752048932
0.13012477109248505
0.12173029727091614
0.11066979548009578
0.09877621704919244
0.06916547174528886
0.03955472644138529
0.009943981137481711
-0.019666764166421866
0.04050604097670181
0.07067446084081472
0.0919517445055423
0.13644741332740226
0.17152790620624622
0.19401170968723436
0.20089121795745837
0.1925279805243512
0.17156943728744875
0.14311767228737135
0.1132109749129103
0.08353781109469449
0.05836201701906075
0.04575810496218822
0.04694501276211446
0.06221141489582281
0.08674488866448755
0.11005603952039994
0.12825925477545042
0.14051102284153463
0.14738978561531824
0.1511542499162306
0.15175520955864244
0.14666317732671103
0.13403980180581757
0.11415330855739289
0.09394481620227343
0.08294941818735495
0.08739713093990316
0.11340847895270027
0.15362842553918707
0.19696796885841397
0.23692408202115925
0.24959731830938592
0.22263448690818763
0.18261582077114613
0.1899643975923261
0.3049323114047193
0.5389216582298113
0.7278209488636809
0.7842007630970282
0.7474326656190363
0.6089134002115371
0.38110854096518243
0.21955194964687139
0.16604630537705947
0.1547075938518036
0.17929500586308156
0.22798135966569866
0.2576144910384968
0.2615014738151998
0.2323544876403496
0.1782812673363462
0.14026792370793986
0.1263319535952471
0.13194874855219957
0.1449499278802008
0.15740689209244407
0.16010906521696158
0.16082201087062192
0.12057326204094117
0.08032451321126041
0.04007576438157966
-0.00017298444810109892
0.04051023635623036
0.07055923462691602
0.09158187639219195
0.13613642648120577
0.1713954636186586
0.19403681836565465
0.20102494603030782
0.19270220823711048
0.17173648306021985
0.14328241991008606
0.11336560315182743
0.08365652757988007
0.058469777301031686
0.04583386767949093
0.04695722053000073
0.06216465459330228
0.08661245059973549
0.10981413827376899
0.12789929139207798
0.14004368767247508
0.14686856831265158
0.15070625934706985
0.1515101915413806
0.14661689797921906
0.1340664284776381
0.11411625428207478
0.09373554584310421
0.08254699895166784
0.0868651155639598
0.11281339621029338
0.15306382958213513
0.19655666381173117
0.23630591823383404
0.2488483598123988
0.2217754183511913
0.18158831823810534
0.1885157838650221
0.30126938323906083
0.5331603955041221
0.7227408392319793
0.7799282859277007
0.7436424350970013
0.6062155714872051
0.3797784257409277
0.21921333685280495
0.1660529121018968
0.15455548993192508
0.1791371273787394
0.22790705283308813
0.25764700424695414
0.2616279109048669
0.232460437767071
0.17818429863760313
0.14001947681396154
0.12614564547160267
0.13192700815799857
0.14510009579866465
0.15776419820205545
0.16059245545542092
0.16138664550790188
0.12103175277875097
0.08067686004960006
0.040321967320449154
-3.292540870175609e-05
0.05376058964304766
0.08938383305222056
0.12043552466010056
0.15103509393879885
0.1717104760196229
0.18400707874325722
0.18444803236507584
0.17477941902914185
0.15637618396577435
0.13077162759883904
0.10368203314247496
0.0769278696902108
0.05250377545133282
0.04144763423692159
0.04572023193675452
0.06388166888555756
0.09271139468016566
0.12128254833678156
0.1455270740528288
0.16370418221440142
0.17317037133555013
0.17229677039597002
0.16158077503429338
0.14597763316354906
0.13001978161841116
0.11417975968651026
0.10405767470795797
0.10510392967126293
0.11768436405082101
0.14558409254191887
0.18082004354376344
0.21062348847816156
0.2585965641907827
0.2750367879023142
0.2549433779878067
0.22756475631259657
0.2733720838811196
0.5630865760359313
0.8481081464539634
0.9373293539256327
0.95083265672579
0.9088931810723685
0.7285642843185174
0.43775379174386575
0.22971300830245164
0.16184361048770585
0.15982251962555624
0.18361564603643918
0.2279625046114424
0.2536787516925089
0.2544394462259209
0.22832863334561593
0.18516486404252663
0.15380917849891526
0.1360495668827291
0.13323066267514005
0.1377980042901637
0.14023146184859833
0.13646389298186987
0.13172104998192113
0.09656025255282727
0.061399455123733404
0.02623865769463954
-0.008922139734454326
0.040574517812492134
0.07002181571984424
0.08983167013871207
0.1345590511110912
0.1706528863538188
0.19405707394948662
0.20158076421068646
0.19346953054720054
0.17248941827499265
0.14405040567252378
0.1141073794464705
0.08423323624634829
0.058995853872025286
0.04620059784548492
0.04700667379972867
0.06191988636947039
0.08594086220798024
0.10859634941918682
0.12609652209367683
0.13771300317906965
0.14427026990126782
0.14846230922809567
0.15025999732956324
0.14634232651078782
0.13415231525762944
0.11389416043519628
0.09267785186953477
0.0805588524664053
0.08425194077048455
0.10987682027224913
0.1502428800009236
0.1944411221298287
0.2331502194564326
0.24503332178635692
0.21743806693551218
0.17645641679256494
0.18142231442017695
0.28373944529628226
0.5051200177591608
0.6973163277678087
0.7583537791370168
0.724584503275493
0.5926816942185003
0.37308374520978715
0.21745948468702092
0.16603103298703728
0.15376208165753494
0.17830100455768078
0.2274879090492784
0.25777741528643716
0.2622453549545931
0.23300203499846397
0.17772865341747326
0.13879873626962755
0.12522393831194442
0.13182144651934177
0.14585256871166133
0.15955155875622953
0.16300326741978052
0.16417833642067298
0.12329186492335059
0.0824053934260282
0.04151892192870582
0.0006324504313834356
0.04675359645715839
0.08137142924230091
0.11323450874576346
0.14808638849350386
0.17249435622964795
0.1872068771761599
0.1891614635767448
0.1796785914462668
0.16040198980291362
0.13376750808648205
0.10574934100583105
0.07826186777813969
0.053673993917739415
0.04232590574613658
0.046008938298749635
0.06361256923464464
0.09159930818085221
0.11919214259384302
0.14225122371974033
0.15918993196339565
0.1681903284068494
0.1683833498189446
0.16001293826670493
0.14646918888986316
0.1310461113930806
0.11426521096898043
0.10200520895050066
0.10038549215496079
0.11113622967564668
0.1389294897281664
0.17571371032259328
0.20916595766719556
0.2561515598832554
0.27260710454378256
0.2511060438420229
0.22054056147005227
0.25532351158258126
0.5001939569922349
0.7908417408155639
0.9070436838696525
0.9276673154973943
0.8830450811480567
0.7084011286251957
0.4287487014846194
0.22890703041476118
0.16313624039222333
0.15913081316361358
0.18323258273880116
0.22849045323729747
0.25476109027928046
0.2558985581750922
0.22891160548831985
0.1835408272558024
0.15102625336487474
0.13410468429688083
0.1329543507585724
0.13914174133675808
0.14347412126886042
0.14097259654617242
0.1374390371470557
0.10131652529366066
0.06519401344026562
0.029071501586870593
-0.007051010266524438
0.040829355054528144
0.06864886743948075
0.08571854629489875
0.13018160234013593
0.16805939596389044
0.19329549187808998
0.202184255449615
0.19470079877365876
0.17383975784610464
0.1456354515717585
0.11580591416917188
0.08560908781153387
0.060274586106561376
0.04706530808134228
0.04703718765393366
0.06117635180396523
0.08407790263183294
0.10529791664095596
0.12129276535128702
0.1315811492081888
0.13744728104899487
0.14248817156821156
0.14674731085806467
0.14525741309807985
0.1339781687032167
0.1129866944885707
0.08976511021618162
0.07546170471134873
0.07768025855283507
0.10239395719900735
0.14278778961820332
0.18840205086614598
0.22433773778340324
0.23446951589866194
0.20572469214274092
0.1630030054929866
0.1637793864041221
0.24296255718125626
0.4371002214092536
0.6306229159794372
0.7001812385912257
0.6736163136736016
0.5566462574668656
0.3550816282449314
0.2123563712715463
0.16552517021121807
0.15138682633246903
0.17570046522470606
0.22598665455700648
0.257856384063492
0.2637549394878228
0.23452703981565687
0.17676098838400953
0.1357434049121201
0.12286306561480155
0.13156777195541894
0.14786123416416724
0.16429461334320594
0.16933550160790803
0.1712997370459693
0.12899617879064829
0.08669262053532728
0.044389062280006275
0.0020855040246852696
0.04085435907670603
0.06816753786149296
0.08452712503536261
0.12878110492440084
0.167092717762934
0.19283752180744526
0.20212966331416532
0.19485578982662002
0.1740716432892483
0.14598966779966002
0.11624349558182248
0.08598047465571856
0.06062819153339156
0.04729573053071595
0.04701520876141658
0.06091934764809344
0.08348134264869492
0.10426634971980914
0.11981401556973009
0.12971605636903646
0.13537689657285068
0.14065292620237022
0.14561518197350543
0.1448192855531789
0.13380273399622042
0.1126107260307693
0.0888368315640016
0.07394496594497811
0.0757636727805905
0.1001857598937393
0.1405129995995053
0.18644120915746956
0.22153146546316452
0.23113654526780456
0.20210906185431995
0.1589551437536207
0.15869759179170823
0.23192981515986477
0.4180874501000055
0.610652256638561
0.682299549223384
0.6580023162725979
0.5456241355390171
0.3495231228803752
0.210672585817749
0.16523932181664214
0.15057860058314365
0.17479062466733764
0.22541140022926748
0.2578005061968354
0.26417753023111223
0.2350178801789675
0.17653595377614018
0.134862629715879
0.12216501580659352
0.13149796904975192
0.14848079976156353
0.165748199027824
0.17125483677268577
0.17339152857298412
0.13065126156019888
0.08791099454741363
0.04517072753462839
0.0024304605218431474
0.040810722770746974
0.06881032582561719
0.0861476711042991
0.1306749791975493
0.1683857050935926
0.19343428583679056
0.20217732638042957
0.19462083209130304
0.1737366163136168
0.14549399212988365
0.11563993202216591
0.08547041296727456
0.06014369237567727
0.04697890256799723
0.04704136335647313
0.061264732715706045
0.08428793714607648
0.10566392096616478
0.12182011507897965
0.13224880282599114
0.1381890478392487
0.1431432049316788
0.14714539974939522
0.14540178867542206
0.13402669906533393
0.11310959588225163
0.09009236237708794
0.07600821104613048
0.07837539152868486
0.10319199098150014
0.1436014177300552
0.18909061833086213
0.22532919815911379
0.2356507550144024
0.20701480906150024
0.16445863282985523
0.16563025808351714
0.2470578640470605
0.44409561537129644
0.6378212843498177
0.7065733366220887
0.6792002838221525
0.5605883954501087
0.3570636125999298
0.21294470093083276
0.16561237885880034
0.1516662671048547
0.1760124950186064
0.22617888321251842
0.25786708342648157
0.26359929955976696
0.2343542785685004
0.17684957297161633
0.13606442326565302
0.12311532049350692
0.13159362098889157
0.1476404401265473
0.16377546087151928
0.16864744294988135
0.17054190347541548
0.1283940077226777
0.08624611196993992
0.04409821621720214
0.0019503204644643612
0.04505599996077615
0.07927900753401243
0.11067337263904747
0.1469932193112063
0.172722864448497
0.18830654117617415
0.19079868659323937
0.18138852493395613
0.1618253120612061
0.13485926976260396
0.10653234604948851
0.07878026271611481
0.05412948269366911
0.042666896825187796
0.046120086789878105
0.0635066150108124
0.09116708950670377
0.11837207635479048
0.14097013843903305
0.1574384765997538
0.16625003188920684
0.1668345958905873
0.15936253466720232
0.1466267015848805
0.1314345435470421
0.11431132129570093
0.10123608920405867
0.09861559680922392
0.1086865965379995
0.13639521793014545
0.17369992056608874
0.2084250352653696
0.2549211437174793
0.2712377187081968
0.2491778450048209
0.21748101206668777
0.24856241411987898
0.47741868186136355
0.7672704999253772
0.8935329867361343
0.9172704339837447
0.8721350945169459
0.7000578595660634
0.4249149861641739
0.22842288235588992
0.16359399982311076
0.1588322233130139
0.18303525889258512
0.22863260415103376
0.25514472748210004
0.2564579418264581
0.22916494219866843
0.18294351378117996
0.149960984790275
0.13335468278059953
0.13285010555745955
0.13966981897015532
0.14474733216999147
0.14273903511608516
0.1396637571469698
0.10316410568136454
0.06666445421575928
0.030164802750154027
-0.00633484871545123
0.10386099080922961
0.14328962213359694
0.15474093023715635
0.1658107851095667
0.16937351065039297
0.1703394046600032
0.1626379703361102
0.15140809748121692
0.13768922786733206
0.11811291504883609
0.09596246134622183
0.07236601423295888
0.04849587391096248
0.03848685049893591
0.04490698730431097
0.06509103943537345
0.09698797989683214
0.12875257268776893
0.15716674788238316
0.18009392448433187
0.19084010872093649
0.18539649825788665
0.16622550979248024
0.14382170460153634
0.1269492489206451
0.11539189434820864
0.1130128306911557
0.12429382219595415
0.1443670823422019
0.17086867548713092
0.19782486714506936
0.2097118592220238
0.2560330014665846
0.26492613665182846
0.24820249167089067
0.23672398797375202
0.34732384251623954
0.8130054317694406
0.9774469761587369
0.9925657263705933
0.9935113994615355
0.9724357918441706
0.780739859870911
0.4557886309551096
0.2265213615694332
0.1570210140959322
0.16184499767977278
0.18402530700314515
0.22437749615097874
0.2488570998666583
0.24912270638947975
0.22706966531839837
0.1918645673035543
0.1641288498761023
0.14312559626634447
0.1342992323778083
0.1331698427612591
0.12905786138427838
0.12087543091189981
0.11174197105184294
0.07991701388522296
0.04809205671860298
0.016267099551982994
-0.015557857614636988
0.06136929921375606
0.09772600909477777
0.12629912419027337
0.15338754167666174
0.1710308186140162
0.18138358021638104
0.18056606597865782
0.17074111928322883
0.15310191620804553
0.12841989026695716
0.10213315799448243
0.07596033161248081
0.05165577503199101
0.040811437586263585
0.04551489719207798
0.06408416916680325
0.09353354341558308
0.12279920011735102
0.1479070496220233
0.16701432782317813
0.1767979702366677
0.175088977326719
0.1626376992926826
0.14555981126148093
0.12927605044239207
0.11418463015261998
0.10564984598115378
0.10871531714383663
0.1227057275094904
0.15056699197542525
0.18447245985460797
0.21125299656658064
0.25964387897796354
0.27564539900808294
0.2565140036017854
0.231744043473029
0.2871904911129257
0.6125196617613019
0.8854117057611699
0.9551601511394239
0.9644375472900245
0.9256238335081748
0.7419651012165791
0.4434317710253039
0.22987248828256432
0.16082659486520703
0.16027289851359844
0.18379858041940264
0.22743591294529727
0.25280667463776796
0.25335963948396484
0.22796600562072558
0.186426624073829
0.15587688595952318
0.1374827493249552
0.13343945957934605
0.13682962910136315
0.13789302640989856
0.13320570476271396
0.12756146562281445
0.09309561260550267
0.05862975958819089
0.024163906570879107
-0.010301946446432675
0.06694317651493321
0.10375867895075079
0.13020429640398468
0.15496498611582893
0.17060356169319013
0.1796680824634008
0.17798987701111596
0.16804697198724133
0.15093389941854238
0.12689874126745074
0.1011622982003156
0.07536745781948867
0.051136057042167005
0.040422697945878466
0.045393800967056676
0.06421618025502025
0.09405089484506948
0.12373679982131298
0.14937697845801515
0.16907063966986427
0.17903897755580944
0.17678823631946394
0.16325841808027083
0.14528532567953814
0.12883166868255025
0.11423262533742361
0.1066857047844505
0.11102591745164388
0.12592007693260016
0.15370149472104927
0.1866949856508774
0.21144634734595316
0.2599394787919444
0.27544445400665907
0.2568612770239836
0.2338413174624744
0.29603351884912615
0.6442584922969476
0.906007583240694
0.9643651317128502
0.9714792499191482
0.9350264925002585
0.7496321880035798
0.4465075251084514
0.22977624330009178
0.16018250155137115
0.16053500855545116
0.18387820752490647
0.22705336963983205
0.2522348662181007
0.2526873208976881
0.2277685419114864
0.18723760254389019
0.15716963019135916
0.13837429096469775
0.13357142809651507
0.13623583821075427
0.1364588786703984
0.13120552689040085
0.12499989471874946
0.09096096124456875
0.05692202777038803
0.022883094296207315
-0.0111558391779734
0.0517026391462255
0.08708530210004925
0.1186225944798339
0.150303711097073
0.17191934723656987
0.1848204868568014
0.18564451824361447
0.17602185374143173
0.15739081490238932