# vtk DataFile Version 3.0
vtk output
ASCII
DATASET POLYDATA
POINTS 5568 float
6.898993108895557 0.142266720423453 -19.764968644006235
6.964560570293388 0.13407809098180265 -19.07232057932969
7.056104764777061 0.10126420335326752 -18.40043030967491
7.146270320358819 0.05589013549698761 -17.760131267027504
7.20734874732447 0.000587526424485077 -17.132105561981987
7.217770557792766 -0.05501929722634084 -16.484040460183138
7.152750992083921 -0.09927072728870585 -15.813980706753943
6.996120178721081 -0.13155378228356118 -15.147228879750429
6.739672864507498 -0.15277009915153136 -14.507322305489772
6.38489811517214 -0.16274713689015685 -13.912852543767336
5.938417472749271 -0.15921449442935293 -13.366407766265715
5.400419898880586 -0.136484243738842 -12.85778159142883
4.7733495133821915 -0.08996938086423875 -12.381271950952254
4.059313583438264 -0.024615939337773077 -11.93137905525916
3.2754791715324814 0.04862559797227914 -11.50828755744029
2.4577103841975063 0.117804803681997 -11.109367754844708
1.644038338971873 0.17583070646143523 -10.725425002113203
0.8631552408841356 0.2230914509344944 -10.344656405081118
0.13187780775310165 0.2625548974016236 -9.95481746901892
-0.5418174698035331 0.2927619184035104 -9.54228497651299
-1.1529311950711292 0.3089774978774464 -9.094058955194228
-1.6996484679952637 0.31067697605477745 -8.598456560226838
-2.1821417120211244 0.30171107002762726 -8.042270579020705
-2.5956600797840896 0.2871338818841097 -7.4125217144387925
-2.928720345472715 0.27058111938521395 -6.699723058906559
-3.166346253602711 0.25215051933856386 -5.90625323745689
-3.2978663705090603 0.22870060510019827 -5.053899296266291
-3.3211385785688554 0.19523770569626606 -4.180744094583935
-3.2518395040252535 0.14980747733838573 -3.345178419583415
-3.126244181797908 0.09230213213490944 -2.591924321343655
-2.9772688964460228 0.03665889445598821 -1.922783949245554
-2.8269138789118062 0.007225180139644554 -1.309877477806498
-2.689457856944584 0.028559777256244888 -0.7248871331158224
-2.577265154362159 0.12958033845024092 -0.15301369787818386
-2.497171875367676 0.34412150046845136 0.41076858760001733
-2.463352767364188 0.6503287263766258 0.9316152904753733
-2.4792388141073936 0.9845095562041726 1.3098887424713546
-2.520262557351915 1.3351007346227268 1.6145035228820916
-2.578325515056213 1.6895405396421328 1.8838345686660973
-2.6421931078193435 1.9920003045634287 2.130812715687434
-2.696866490700021 2.2006672849468725 2.345845257525468
-2.736402748274745 2.32268708564468 2.5599820230663304
-2.77546353502743 2.357543474254006 2.802706621069986
-2.8282415053487693 2.2460160536778906 3.0848910618791563
-2.883487209691562 1.984810941399466 3.3457461959601766
-2.900090450830644 1.5915494169159798 3.5999726014903963
-2.87249809253068 1.0310720912567612 3.823630927511523
-2.78747020244398 0.3842182838327547 4.001853584559621
-2.6416203045459876 -0.2787962534507833 4.161073402598395
-2.397648214104018 -0.9491707773704839 4.310180922432858
-2.0224916160451416 -1.5952533759051755 4.462555729175417
-1.4967297089946023 -2.1610498727373466 4.66000381003612
-0.8556323726342826 -2.5758585876309654 4.947188679039321
-0.1452321445101038 -2.837452186203727 5.32582064439608
0.5991607345651331 -2.952787114532601 5.776849457559166
1.355164122179684 -2.94775332841437 6.260855657047777
2.1286900311841137 -2.8481473380566857 6.732848609048293
2.935198892159044 -2.6506144757804098 7.151741527904382
3.7736623575200934 -2.3376570439182087 7.47991596128769
4.615944170210264 -1.9295985894304781 7.685212926506443
5.433845167422264 -1.445104611605332 7.768733292520687
6.201045838459407 -0.9056314185616445 7.740147166455196
6.900095080835935 -0.34277215906624636 7.626364282267265
7.509959170277812 0.21560228211287347 7.454420071968813
6.940181893061494 -0.08280956388113392 -20.022522450745072
7.046021411165964 -0.11242494209376132 -19.315516949542342
7.1541675898391635 -0.16150009490446293 -18.601874674665012
7.235218839215147 -0.21422670365590907 -17.913478348403792
7.268372943805965 -0.2597236186254149 -17.250279040567012
7.242194066660567 -0.29184104092170615 -16.59595911774732
7.145122369294155 -0.3045535838954489 -15.945140832072953
6.967623389286799 -0.2963720805021094 -15.304355074858474
6.698500001973574 -0.26814079696908366 -14.679608494301686
6.334177732838832 -0.2201222283341296 -14.081269659757183
5.880022802601306 -0.1498858007507503 -13.51433792852972
5.338237731044263 -0.053073721970599744 -12.978099078369217
4.714450728244239 0.07219326744650269 -12.474104555456034
4.016286962236361 0.22135083979434023 -11.99722808759918
3.258938758247738 0.3834700243662782 -11.54211991536874
2.471632493513364 0.5409660024677836 -11.104398912910328
1.6884288434329786 0.6771170942367326 -10.672005022639556
0.941079079448411 0.781702330755724 -10.231527932053613
0.25334299430977925 0.8518293456698286 -9.773650155814995
-0.36287070596666615 0.8866102505988392 -9.29471338762457
-0.9037384688733691 0.8841491484955938 -8.79572478026393
-1.371510393367856 0.8452241987740882 -8.275768870564786
-1.7707657416743046 0.7695059804010229 -7.730263269950204
-2.1032517309463303 0.657285139123138 -7.155491728332015
-2.370008749207386 0.5132965797318177 -6.544518990916012
-2.5717881399847684 0.34692425977114455 -5.8868124138463225
-2.709065472178814 0.17333262304986696 -5.176554517140687
-2.7816734210387084 0.013019122732980726 -4.423115143581543
-2.7966674938071923 -0.11569131895099882 -3.6542545054843467
-2.7734039222979776 -0.20485461237606784 -2.8967365164244465
-2.7316210615433367 -0.2457254444482922 -2.165104193547889
-2.6792094011353678 -0.23195153484538433 -1.4785345823677432
-2.6235209160705497 -0.1579951322717889 -0.8353415210319048
-2.5770785751070155 -0.012287947251580555 -0.22542460690646526
-2.555079586390063 0.22266004308451676 0.3674572476984048
-2.5673881831736747 0.539011195510066 0.9151148544898066
-2.6121433940682586 0.8943922501600658 1.352713985564817
-2.6736004736690577 1.2711560966059696 1.7136416770639233
-2.746637666228794 1.6435649313143847 2.0309024525833212
-2.8252013519082597 1.9580441591766768 2.3162754315815426
-2.8972717558462397 2.1658900830086814 2.55467133557422
-2.9467564394601333 2.267444062967086 2.742651890244889
-2.979560584120092 2.290127368512398 2.9186635313006266
-3.0029381888823736 2.203639105324851 3.1155322886813
-3.0149477450190183 1.9850270077580232 3.31177467944104
-2.996997498591266 1.629694501346101 3.5095687002458464
-2.931560987634676 1.0812372096367313 3.7039229775250635
-2.7963504588360784 0.4254949902128897 3.859790701441196
-2.5901410522271693 -0.2589582649499318 4.000668060886669
-2.293131400899645 -0.9505290371085771 4.129897486480827
-1.8869778131405168 -1.590598651135943 4.269536085327622
-1.3593634417740752 -2.1292765561077687 4.455600231361103
-0.7410226297283463 -2.519690933340288 4.717164004270641
-0.056337191727354186 -2.770985785374334 5.057667095137374
0.6708134158753299 -2.8872206504539726 5.460344994562882
1.4230405729363242 -2.8874261108722656 5.891022744189069
2.200443545127677 -2.789249829661264 6.316124980814175
3.0069630101203426 -2.5952722240405013 6.703817147066123
3.8418455108486373 -2.298683549755677 7.02414726801373
4.676129100129383 -1.9153049842785632 7.244703313256156
5.486813285793635 -1.463075833911636 7.361570348172057
6.256881232487421 -0.9616445416291965 7.3787135049381
6.966089741599168 -0.43528106143695455 7.313664502167344
7.579001157901612 0.09032561159225838 7.191269572414422
7.004079064332805 -0.4319759250288982 -20.422071989145387
7.175764856795362 -0.4964558038149474 -19.68735450554109
7.311498945745482 -0.5727203771653514 -18.90563469095884
7.37679668390413 -0.6376945828074237 -18.138459745980704
7.363718586994579 -0.6670290491851514 -17.415524761772243
7.279471684380104 -0.6623004877166294 -16.74569380812847
7.132861865344125 -0.6272727212728103 -16.118032490443778
6.922186449849483 -0.5580298333674056 -15.510143196649164
6.6303454210504364 -0.45312733236140257 -14.901495538350279
6.245988223132255 -0.31167646490482226 -14.289153006675997
5.772704974541642 -0.13080515419375266 -13.680417440034528
5.215859553873946 0.09005351848299525 -13.089819802391574
4.5863231170155645 0.34654357777800954 -12.531817238395277
3.8995191075731857 0.6338266149032967 -12.001728804220237
3.166965858109178 0.9416893911209419 -11.48494173942225
2.409389556314094 1.2436067648423554 -10.974976080521076
1.6572797365349814 1.5072812284127792 -10.455740335221455
0.9481125791403785 1.7052239824992448 -9.911286334552459
0.3146823995776552 1.8253901921959008 -9.335947320610723
-0.22672280381107757 1.8681907638186217 -8.741221577343953
-0.6741852359436369 1.8370139723669245 -8.151120299606943
-1.0367453999258185 1.7363934586941268 -7.580762274443154
-1.3279421037132255 1.561400472028252 -7.033368957253279
-1.5616004837795563 1.3054192056134177 -6.508848678789888
-1.7552514795187548 0.9721490466600204 -5.995199608514882
-1.9257623501427232 0.5822639891730583 -5.465987245337798
-2.083774241883566 0.1801959575751928 -4.891795495612281
-2.2316946071677806 -0.17197706514965472 -4.258310104520833
-2.372104031601698 -0.42979898235149777 -3.5530299369790797
-2.5120526123873335 -0.5731571495805691 -2.7595667227900966
-2.6570456431019025 -0.5897289065308825 -1.888023199141378
-2.780027738861036 -0.49698252016535827 -1.0381025110716977
-2.8680798571198696 -0.3263115971341023 -0.2664129590334361
-2.9337846959962754 -0.09981715312609873 0.42479998069208946
-3.008757385821283 0.17283681464491107 1.0753199793654211
-3.0976040527091993 0.5086432226265893 1.671985561333022
-3.193833889459953 0.8997512888051189 2.2131419769734375
-3.2915814231229366 1.320261800633835 2.6723245905609603
-3.3906593865555172 1.7228321902287227 3.072618261274772
-3.494555345511589 2.057400603235317 3.423972543364717
-3.596346478552836 2.2647062152168567 3.702860039508007
-3.658811614377805 2.3388939606361063 3.8556756475604934
-3.682332749073094 2.3475382451652838 3.949693893184519
-3.6758881551954947 2.2931808931353914 4.046975169506227
[...]
CELL_DATA 87
SCALARS quad_param_group int 1
LOOKUP_TABLE default
3
1
3
3
2
2
3
3
3
2
2
2
2
2
2
0
0
3
3
3
1
1
3
1
1
0
0
1
3
3
1
3
1
3
1
0
1
1
1
2
0
1
3
1
3
2
2
3
3
3
1
2
3
3
3
1
1
2
2
3
0
0
0
0
3
3
1
1
3
2
3
3
0
0
3
2
2
3
2
0
0
0
0
0
2
1
1
SCALARS single_component_feature float 1
LOOKUP_TABLE default
0.03938430558703725
-0.006061816535795125
-0.07656350061563534
-0.06329833158494234
-0.013408759411556812
-0.02222980359134492
0.015094751534658385
-0.014733615547230607
-0.001379252794821078
0.007802099547683168
0.026783069964911678
0.0014398433829769103
-0.03320487612337142
-0.039878625297670084
-0.027129219932768473
0.04902928879229537
0.024086927446458142
-0.01953963142869454
-0.022394082568668074
0.006768716697965346
-0.008314721189288637
0.041787587123016286
0.054697806608429135
-0.0760249464243985
-0.07820111435096891
0.0675445487791196
0.09000957440691294
0.004439349157420516
0.008046217112099345
0.06009625275332785
-0.011748639108924045
0.0005771624044198786
0.050658503908373745
0.09742801521443456
0.06169856121856318
0.006833045774859964
-0.020685736189106428
0.0006769735437934452
-0.02511465831512264
-0.05064882203718431
-0.023029620442217666
0.019383909146687403
-0.034477498080826854
0.06058566311953592
0.035662347043720274
-0.037711404469245514
-0.04978268548772859
0.008973569972148876
0.008327475475157428
-0.038600072339527926
0.007724136340169677
-0.013917998687405899
0.009935812494721669
0.06360030537467597
0.004736970238700795
0.07053996130582103
-0.025109250431671434
-0.002583728181124536
0.058631669595952285
0.033335107419678316
-0.06025366764976407
-0.05638386106065996
0.029277528471061784
-0.0384040437261985
0.026531011189981978
-0.04454480170343401
-0.023283482416302043
0.0007088850972201792
0.05266592774921455
-0.018970370242831457
0.014164092906099178
-0.0415689636702595
0.02146960916683663
0.030675511562928772
-0.020202346899964554
-0.02727848954463296
-0.03695841159389819
-0.0054342122490400185
0.008048670522252926
-0.0011281868628398844
-0.006796811877650806
0.058030109036851726
-0.003948206331049545
-0.038117391353690556
0.0038800486402158062
-0.008139765279793943
-0.07458549919913929
POINT_DATA 5568
SCALARS single_curvature float 1
LOOKUP_TABLE default
0.04829965430565414
0.07829907110150033
0.09814144521499645
0.13694992917375787
0.17171829878036815
0.19718972580962094
0.20737591721016416
0.2013064787539525
0.1807907064989456
0.1497111591580665
0.11675799819226881
0.08621985320099253
0.05823997900029413
0.03859133841435873
0.032383284005900334
0.041272601888425395
0.06555750137714358
0.09708403694494136
0.1260980675257671
0.14886515649952411
0.16292704139985303
0.1679330251113038
0.1653006033321908
0.157990718907879
0.14874684903818153
0.13761785630332712
0.12147986403365887
0.10344905304418332
0.10534711344695075
0.1349521764595091
0.1891450800169162
0.24476444779496775
0.32568581689374465
0.3456669560829692
0.316420783579139
0.2782647031362301
0.27695287579705985
0.4648353757660426
0.6779499424517084
0.8047552343056599
0.8357514706583861
0.7637954243137803
0.6080337282100179
0.4054131948496507
0.23914468322331886
0.18444529389683623
0.1718954219897231
0.19241744265804944
0.23586225805990083
0.2558138112373534
0.2537604757339456
0.22711424692096605
0.18067329353426176
0.14999173034029875
0.1385607402170983
0.14264443762041643
0.15378378568047457
0.15911073011782023
0.1521098268031605
0.14215789008969623
0.10277902219498002
0.0634001543002638
0.024021286405547584
-0.015357581489168631
0.048240813438233464
0.08358952911271035
0.11648142744763153
0.14995232733638275
0.17277021858222538
0.1858681475927171
0.18661020780245538
0.17658580820228428
0.15743539486360444
0.13140039744409363
0.10404325080655666
0.07698691409792478
0.053116399449878664
0.043051422556621366
0.04833837078377941
0.06740199750814674
0.09594318667947778
0.12316507928012745
0.14554551714203365
0.16177536927336889
0.16979501752193263
0.16856243440483182
0.15854963593797072
0.1438404220820001
0.12845259887943564
0.11330879371675281
0.10392313407350075
0.10422235043424649
0.1150903297069437
0.14066544022432764
0.17311633509629765
0.20378828071871352
0.2461684323144193
0.26211910445078374
0.2417719035145117
0.21220251682711053
0.2512506777338517
0.501980285689526
0.8051581626626158
0.918471324218534
0.9372747851346177
0.8973941560861814
0.7237663573434243
0.43070741795680756
0.22665129038275575
0.1596839556997577
0.15706670149930116
0.1818692684447312
0.2275217589301064
0.2547425731128612
0.25632343296378807
0.2291806915473772
0.1838117484849518
0.15096693605141234
0.13327859817867174
0.1314394687520899
0.13695967963152375
0.14122719476453455
0.13949505036101426
0.13705229523549103
0.1013909189074022
0.06572954257931338
0.03006816625122455
-0.00559321007686428
0.08741122809924386
0.13320861069356257
0.1614799041388907
0.17668954067049622
0.1777111665634164
0.16876582353295216
0.15363000518864842
0.13676720564696465
0.1196623360402359
0.10088618800130007
0.08102570282590642
0.059632741472268255
0.04553451686236956
0.049984645302781065
0.07371920980080614
0.10983486760387294
0.1463934620742991
0.17597881681799632
0.20120161649103446
0.22202946547995048
0.22587695308089628
0.20106016629587944
0.15493626512294317
0.1250535816678608
0.122121393911927
0.14287813919203307
0.1702610155659312
0.17414039246488164
0.1639621221821942
0.15358789435026995
0.14222249539430074
0.14779409854392406
0.152072639373082
0.1630695689981681
0.15704911322031395
0.14118385989233825
0.22665370962952336
0.6069862729674256
0.9825767251515046
0.9983497677280051
0.9987787759594033
0.997184171823301
0.9252381537242964
0.4219032844963033
0.19239918529741865
0.11550868130431591
0.1338328919215047
0.1687819184264831
0.21878392285864384
0.25497919832763716
0.2597324956173663
0.23050197282504367
0.18712915998950558
0.15254060860927227
0.1257536109995393
0.11454407571821096
0.1105360651329166
0.11128570732289626
0.11689139914128428
0.12606063397947764
0.09711509820701568
0.06816956243455372
0.03922402666209175
0.010278490889629788
0.07944818521155127
0.12318048451462191
0.15319776336064878
0.17144613768042685
0.1764638975257448
0.17177115492886164
0.15968097531886977
0.14414946797987901
0.12666285084323076
0.1065866777108305
0.08543882711732476
0.06297533661892282
0.046995535838851174
0.048881825167805766
0.06939176769968666
0.1025562885471619
0.1375714291781217
0.16604870266744037
0.18955251010145127
0.2081893740100283
0.21184576754461037
0.19120510422000675
0.15294118728685152
0.1252667678574018
0.11933720151478998
0.13388720779146807
0.15556668170226876
0.16166667035560497
0.15746781586815944
0.1535051686241665
0.14861668962746025
0.15759717573228324
0.16706263226221718
0.17888079092734663
0.1702936411731703
0.15196627624757583
0.23029520768364736
0.5799433506668744
0.9624628066004167
0.9945677975896199
0.9960254985244347
0.9916117120791225
0.8910384408126442
0.4311761213394734
0.1996593766636731
0.12405799125002535
0.13810778184479394
0.17086594610120048
0.22002095483161815
0.25476464825531586
0.2591489344440852
0.23045115853395107
0.18666553249491183
0.15222327789943388
0.12705980008090118
0.11759481891716016
0.11543191684136236
0.11701886980728017
0.12134787855992538
0.1283808901234042
0.09810126153012312
0.06782163293684204
0.03754200434356096
0.007262375750279881
0.051006037392545056
0.08735377265209195
0.12110829795517791
0.15252958002717767
0.17309155588259095
0.18400471530073279
0.18314426228559286
0.1724393870554172
0.1535044891525335
0.12826323240275045
0.10176113761316986
0.07528811555747951
0.05234709416598557
0.043860586009147294
0.051151339689152184
0.07205434571920727
0.10136122215159318
0.12833720759463882
0.15017232644842146
0.16585032310852227
0.17277476446970672
0.16948518353839992
0.15692725485499348
0.14053139295874092
0.1255263613745464
0.11320841952500126
0.1077757101108196
0.11031700076813106
0.12092021242181078
0.14327730739713018
0.17030723287060806
0.19751118430040523
0.234675973107508
0.25005159519069764
0.23123190937539864
0.20312349078212685
0.24796142096327234
0.5095243164507763
0.8277409758205816
0.9339933662939268
0.9498488639054159
0.9158559051984926
0.7446379405465375
0.4334186534592263
0.2238096641276329
0.15532067907089595
0.15462054319656532
0.18029386208606735
0.2263648063217042
0.2546599476160038
0.2567123499791516
0.22943226917598614
0.18425064020757595
0.151122647215313
0.1324436002728823
0.12962874699542376
0.13419544968198985
0.13820363166753183
0.13728999772228165
0.1360722393078503
0.10106183440932685
0.0660514295108034
0.031041024612279935
-0.0039693802862435235
0.05509792781923244
0.09268295479276799
0.12677140126592396
0.15572096408610123
0.1735360301918181
0.1817753596781595
0.17896932244957192
0.1674356206145069
0.1487584063891356
0.12445987340147008
0.09896276274087783
0.07319401163043777
0.0514217200462713
0.04482311460234443
0.05452126490479309
0.07764916161253252
0.10790969688192682
0.13476424398213555
0.15621979190683644
0.17157332532577735
0.1773307711934061
0.1712661346617476
0.15514101785969472
0.13662206497159166
0.12258164920300263
0.11447560029922084
0.1140083138545418
0.1187283536922375
0.12821339369896156
0.1461699637071406
0.16679966031546917
0.1901083585953706
0.221400308481701
0.2361029336790052
0.21912364388331299
0.19277373159032746
0.24427875413959568
0.5193175913244774
0.8548904763058442
0.9506925979532542
0.9630371226563412
0.9359287473497433
0.7703184948957283
0.43588945180498667
0.22011628035378483
0.14997822417061915
0.1516794429584722
0.1784601277908253
0.22504996996969465
0.25459444158157923
0.25716947961535486
0.2297016007253776
0.18475059375893102
0.1513105679416229
0.1314519224538558
0.12746176239007734
0.13086919930447616
0.13453315358085607
0.1345883274870205
0.1348413082333322
0.10062930178898996
0.06641729534464771
0.03220528890030547
-0.002006717544036779
0.0438157515828132
0.07648080402343242
0.1044808961071853
0.1431061487266181
0.1720864108658678
0.19121601122850063
0.19646556127251383
0.18834284219990757
0.16856524387254518
0.14020635683031268
0.11030291831619679
0.08159189607916262
0.05537887464586152
0.04078055715693653
0.04041512590378999
0.05438391038774004
0.08086143405560303
0.10952829539597807
0.13449345008184505
0.1534114623717504
0.1647008951330548
0.16780905712346503
0.1629216483776057
0.15235553433589713
0.13822461800173794
0.12025009918803042
0.10224983422376088
0.09452389698621563
0.10297396137855072
0.13392058729156095
0.18071502609086995
0.2224178360685608
0.28143526145809644
0.2991358955748409
0.27448087209206745
0.24077709338302017
0.26198375445769917
0.4828462934230371
0.7424844235014617
0.8678772501395501
0.8941722993057827
0.8378437419180136
0.6668819682075279
0.42035670974514056
0.2335735527592311
0.17173348782483958
0.1640575824670638
0.18662516120855197
0.2311585271130918
0.255122551052273
0.2551632376694606
0.22832411212181467
0.1824384327933206
0.1505182232603178
0.13571841558614745
0.13666500106487162
0.1448641595778608
0.14974057020752088
0.14559728542649114
0.13963777251974863
0.10217717919454865
0.06471658586934867
0.02725599254414869
-0.010204600781051287
0.051568929528714176
0.08809999312466663
0.12195321577026214
0.15300265539800076
0.17315420788711597
0.18366913089229167
0.18251790406315896
0.17168934100548028
0.1527932131506413
0.12769427959820986
0.10134465454997697
0.07497716458361668
0.05220837897726386
0.0440060831773069
0.05165866850961387
0.07289515736715842
0.10234292951999367
0.12928867795377003
0.15104733465906497
0.16665224474457832
0.17338932345978114
0.16970267229958097
0.15664398986740272
0.1399345254069983
0.12504138928249328
0.11330698092634761
0.10860937268282295
0.1115156930158157
0.12200588569068188
0.14373276347697034
0.169789934440068
0.19638998954322626
0.2326456036547032
0.2479189771012426
0.2293754862018631
0.201531066778395
0.2473902603294592
0.5109415008507716
0.831826915611703
0.9366445126828638
0.9519661179581275
0.9190254440092157
0.7484549490125436
0.43384762779747804
0.2232741890312616
0.1545251990773499
0.15417896370809983
0.18001433481034257
0.2261621290184812
0.2546477638460128
0.2567816964884922
0.22947502387392865
0.18432762769138064
0.15115078689749237
0.1322938578790261
0.12930271473072893
0.13369628684573742
0.13765505989789828
0.13688792458792579
0.13589110777485142
0.10099946292061525
0.06610781806637908
0.031216173212142914
-0.003675471642093253
0.04679724408058973
0.0815259789579794
0.11360710720362555
0.14835566092940042
0.17258828479448443
0.1870562467107976
0.18881032119088145
0.17921456462776825
0.15992626889584005
0.13338157834783929
0.10547126576287369
0.07804511686902182
0.053608451299685715
0.04253674421870243
0.04655248600160117
0.06445688459511478
0.09252395663837784
0.1199720868581498
0.14280308522870117
0.15950410579416713
0.16825428568713796
0.16819368927504835
0.15959565176789683
0.14590376178361417
0.13049338928831467
0.11398084835535441
0.10223781677952395
0.10093532257814906
0.11165484064581692
0.13897499728819773
0.17485611803455664
0.2078412807461381
0.25369821522259045
0.27002308491225785
0.24870804952887005
0.2182119608431213
0.25345935228868155
0.4974320104215975
0.7909110062763274
0.9079300810761446
0.9285622112429209
0.8849278359631649
0.7107468472666782
0.42871219649220127
0.22834681903442114
0.1624198261272528
0.15862226006264535
0.18289489328061106
0.22828804903392516
0.2548085429309308
0.25607174700531904
0.2290077539225354
0.18352160418789726
0.1508678425788234
0.13381449474733148
0.13259530417140436
0.13871721843264428
0.14313708898024297
0.1408780333299999
0.13765510174261958
0.10158570121436977
0.06551630068611997
0.02944690015787016
-0.006622500370379647
0.044701553810929016
0.0782564352070843
0.10826219728016717
0.14535032316157143
0.172282382413563
0.18938058947114497
0.19309592174463178
0.18432821465378502
0.1647681233026917
0.13721611951561444
0.10820362491711781
0.0800578718989694
0.054584575987802426
0.04154257907656739
0.04309333128582924
0.0587708088052425
0.08593813587253941
0.11398577137823032
0.13791110015445432
0.15575951130434665
0.16595193353800805
0.16784627054472454
0.16155506629280156
0.14969780418770834
0.13475015258775533
0.11674229044196664
0.10100000704845591
0.09624198498046944
0.10600203640352453
0.13586033047570353
0.1781651166704305
0.21590485181455854
0.2689201300700886
0.28599900096224967
0.2628071284369334
0.23051075031872353
0.2580598615360484
0.4890457885756079
0.7635366074225713
0.8860808190104027
0.9100554353462259
0.8592049900734234
0.685915116877769
0.4242847584410582
0.23140319228828016
0.16767336463049548
0.16166014020186775
0.1849515167802208
0.22985474697343344
0.2549678721912221
0.25556979087596754
0.22864094522290568
0.18292972312057829
0.15067335735709764
0.13487242150822112
0.13486349023526845
0.14215093595811137
0.14684045785311564
0.14353696680091538
0.13878687972655765
0.10193346568775825
0.06508005164895886
0.028226637610159463
-0.008626776428639932
0.044357036009954776
0.07568009846251669
0.09999002822669092
0.13984848477639372
0.1718562358751128
0.1941236117959434
0.20178404097245722
0.19466890557404024
0.17453902971739177
0.14487631941683554
0.11351945164206496
0.08391706625341447
0.0567079149326928
0.03964540840996045
0.03633453156307604
0.047720117644255225
0.0731265034890212
0.10303082873752324
0.12988572867369505
0.15066644633210435
0.16350039314989098
0.16792190961264716
0.1645492641978902
0.1557407658881698
0.14361511323452283
0.12782588881212703
0.10878116276984888
0.09607819249215709
0.10167678516576106
0.1327630590405275
0.18472841561517153
0.23304986386704724
0.3022519391524476
0.3210031346268925
0.2940747503248657
0.258174700266998
0.2688070315340771
0.47369182662371584
0.7102895936753706
0.8377435973286392
0.8669394639342741
0.802523095343708
0.6376904079831863
0.4134626758388014
0.23657226356206798
0.17801395968421405
0.16786171611085737
0.1893740891017826
0.23335438717733556
0.2554217730412214
0.2544974336120794
0.22777088892961028
0.18161320349679883
0.15026723283262097
0.13708242678528298
0.1395480340711288
0.1491811127556104
0.15430710242967854
0.14879995357332365
0.14091128437576295
0.10250723433324195
0.06410318429072095
0.02569913424819996
-0.012704915794321037
0.04604834883855147
0.08041058718441592
0.11191719653524602
0.14741403977264111
0.17248724416093297
0.18777097322218408
0.19013058867493893
0.18079088178367111
0.1614193490020139
0.13456644943932886
0.10632013781386684
0.07867220538612972
0.053906158077720805
0.04222869872800572
0.04548293191134952
0.0626962245094368
0.09048295506835044
0.11809333174341731
0.1412319311513535
0.1582563538489314
0.16745114374796582
0.16804024023425046
0.1602159386161201
0.14711103876871465
0.13177206460856833
0.1146245214501727
0.10155046670052506
0.0992274946939541
0.10974300304977037
0.13797478339114966
0.17588577558205504
0.21030082028902838
0.2583078662106219
0.27486121751940457
0.2529665619165351
0.22191499634075956
0.25483309436547347
0.4947845402780055
0.7824169233443324
0.9013734434523827
0.9230721612271421
0.8771950342870106
0.7030220328479354
0.42742119878867124
0.22932332688187074
0.1640489585465078
0.1595569588861927
0.18352009703739883
0.22876011277676422
0.2548532471413959
0.25591880863700095
0.22889899631761995
0.18334307970022182
0.15080817884684086
0.13413837564895578
0.13329157867893865
0.1397734064026677
0.14428016224849016
0.14170198313130503
0.1380097193834112
0.10169730955133874
0.06538489971926628
0.029072489887193825
-0.007239919944878631
0.06111071142943145
0.10028439409205518
0.1338811869251285
0.15980838406470324
0.1741795468961409
0.1790271429883191
0.17377180450047355
0.1611906161351164
0.1428327939221409
0.11969043486059859
0.09540946338933975
0.07052113747892398
0.05025989858495358
0.0459886407996269
0.05866111629408087
0.08455188041814089
0.11604506770688411
0.14300247657374526
0.16441373443885654
0.17991096730289988
0.184545167852271
0.174684025330445
0.15340234409544312
0.13220764753434386
0.11995312062799994
0.11782597635097591
0.12361301666916824
0.1301416462296364
0.13712598167237686
0.14919293439739534
0.1622273939649172
0.18110349223721683
0.20568079194850342
0.21957086423685468
0.20487639121595955
0.18070865131501762
0.24006832114617352
0.532814043611592
0.887880524565275
0.9680305050423094
0.9763568464215292
0.9571576534400417
0.8029390471345798
0.43753414725343653
0.21512203100653451
0.1431945817495793
0.1480231051405109
0.176272666174797
0.22352886044980697
0.2545640503058995
0.25772291060363933
0.22998516035570854
0.18533025940879588
0.15154704477907574
0.1302377775357861
0.12478187986270459
0.1267266050802887
0.1299120320425851
0.13114981007307233
0.13322945576656173
0.1000351858008345
0.06684091583510726
0.03364664586938003
0.00045237590365279634
0.06507289547892313
0.10523530520946923
0.1382052230590298
0.162343845894627
0.1746203216692504
0.1773767879069132
0.17061877153563904
0.1573926076623549
0.13922850835575243
0.11677962105369079
0.09321911878743742
0.06886764856066105
0.04954567622869826
0.04667264364175535
0.06113156411834545
0.08868485639747423
0.12094732781917447
0.14809609583958955
0.16970689248239282
0.1855829189044665
0.1897436468196077
0.1774646514610314
0.15270881139448123
0.1299304834977105
0.11896892287483792
0.12065144247091283
0.13018635881271035
0.137288449487942
0.14224596773957088
0.15066358784478487
0.1593375120488821
0.175740106393747
0.19655310980465246
0.20996270631504785
0.1966478421952431
0.17379794730731296
0.23769167424873378
0.5418544054910114
0.9069706197103075
0.9765425124089476
0.9827572764715045
0.9678221831462394
0.8229295761812209
0.437625162571296
0.21188991301477667
0.13900731690406776
0.1458061688678644
0.17499649834387035
0.2226667978227926
0.2545730280305104
0.25805092670328705
0.23012873277735071
0.1856591108891056
0.151692927396208
0.12951199063503216
0.123164330007996
0.12420948708882545
0.12707663515749912
0.12902021367073677
0.1322070973988266
0.09964420498096194
0.06708131256309727
0.0345184201452326
0.0019555277273679283
0.057680663995631105
0.09596868248339117
0.12994168847133708
0.1575315256283028
0.17381084216849596
0.1805441034025716
0.17664829716279773