# vtk DataFile Version 3.0
vtk output
ASCII
DATASET POLYDATA
POINTS 5568 float
6.905442092608655 -0.08606819763677409 -19.93476640792958
7.032417037039042 -0.12209589004594659 -19.23494790336955
7.150440615929136 -0.17126174470578792 -18.540765464245506
7.23846301150327 -0.22165280169693297 -17.87316788187465
7.279031478505254 -0.26375031816421235 -17.225929337386322
7.257857106446252 -0.29253808064181547 -16.58072951586654
7.1615017282097755 -0.3019190790996914 -15.93379293925903
6.980634188625794 -0.28981842095437355 -15.29269696237616
6.704382590342895 -0.2566182884940289 -14.66609970287546
6.328936634403555 -0.2019336605582047 -14.067786594992794
5.860322988557572 -0.1237041194867594 -13.506275988622896
5.303114706969904 -0.019355955062428473 -12.981913512338627
4.666020113777744 0.1105793981430835 -12.494382952801182
3.9599817209888175 0.2606728741883892 -12.034227852316805
3.2013410143114713 0.42027915767220614 -11.592311379910974
2.4168940232525236 0.5724367912786409 -11.163807800125442
1.6377630156460432 0.7014283877465299 -10.737339815622404
0.8938011072006793 0.7975112993332495 -10.299575094293283
0.2072272939209101 0.8574073049366218 -9.841481034309387
-0.41010382991629024 0.8792230807073661 -9.360035792187919
-0.9528719721252639 0.8598246747308801 -8.856834034377266
-1.4217101917933401 0.7996454294995872 -8.330500653112654
-1.8198717706137097 0.6989533266016862 -7.775816057563227
-2.1486601055845944 0.5599892247702974 -7.189087035501183
-2.4098462519121426 0.39036388703368363 -6.563535757412291
-2.6065873809126896 0.20256642363482047 -5.890491226349126
-2.743103974638804 0.014711463281901871 -5.165173226833182
-2.820559669594319 -0.14993774567958973 -4.397335357429604
-2.845426177001095 -0.27088179897755194 -3.6172051212272085
-2.8363459841807788 -0.3390184407456671 -2.853082598131107
-2.811917957000309 -0.34734732345021657 -2.120791532891811
-2.779726567430022 -0.29191970820404023 -1.4367008423902834
-2.742955922956777 -0.16888340839524907 -0.8027147616392915
-2.708485738931033 0.031615265597941256 -0.21719030019103058
-2.68776074658581 0.3221809131620002 0.3359801881223624
-2.687809370456459 0.6810024878650385 0.8305163319301841
-2.7083620705781417 1.0582447460170241 1.2120144456384123
-2.737626931256596 1.4432968255170726 1.5338834759742466
-2.774617906180986 1.8105598240979122 1.8355791076553298
-2.8220495625849207 2.0990814800908355 2.1306273000285803
-2.8739913178790806 2.2764077971450782 2.387241058163431
-2.91646097542966 2.355435251869407 2.607224339568466
-2.9511887157011545 2.3476544529359518 2.816674138499817
-2.9855058787477318 2.2178422094570194 3.037115566349253
-3.012850236256458 1.955343147751975 3.241146206234147
-3.009505049122101 1.5709777762376023 3.4361446094998747
-2.9550322137285816 1.0302139777292223 3.6252675373993974
-2.822498354522709 0.4054059279946126 3.7909767122780043
-2.6161417098083763 -0.2565504995224044 3.95739153896371
-2.3189559468456813 -0.9390177020548479 4.116112982414319
-1.9138505566216963 -1.5782362195800443 4.284844745649323
-1.3842456332169286 -2.1229881924492138 4.501386434016553
-0.7619790282461304 -2.5138502089187202 4.796284871986447
-0.08030713568486136 -2.7634643108976817 5.168091496436834
0.6372295190605919 -2.87765490763894 5.597311835103305
1.373707874721283 -2.875822992928313 6.047018113903275
2.1350075903170835 -2.776212880748749 6.485862377220496
2.9265022858852943 -2.5785203915740995 6.884709780250306
3.749184568737645 -2.2739649884566093 7.21407647796754
4.575623687498056 -1.8831424178319152 7.44193018718861
5.382982815841302 -1.4254948296510106 7.566497689228016
6.1537193156677334 -0.9205757495849856 7.591075540430642
6.864978236802361 -0.39470542330955616 7.52996174744392
7.481146643302951 0.12349819480916935 7.407219379434008
6.918807979193278 -0.07085846412608146 -19.95917223923147
7.033608624507956 -0.10262543351710221 -19.25715915942412
7.146102217531585 -0.15073565541502312 -18.556725029541994
7.231530299462058 -0.20173197011460883 -17.882638198098398
7.270456103275676 -0.2459825367412243 -17.23033638526006
7.249235947805797 -0.2777142476859618 -16.581440709058086
7.154494896798046 -0.290509396686718 -15.931665036007086
6.97644897055145 -0.28263275632667795 -15.289252359275757
6.7042846781951875 -0.2547140879798888 -14.66270946531236
6.334616020835208 -0.20666421931057896 -14.06477033154822
5.8732468970404454 -0.1362606858462428 -13.502213786313343
5.323531744815609 -0.03999981921975726 -12.974306584196322
4.692547311988887 0.08288894739737446 -12.481114091336513
3.98937357830122 0.22736692140585257 -12.015132829669001
3.229962842039055 0.38264636317404616 -11.569300318229526
2.4426165729394564 0.5318124847140266 -11.139097392582133
1.6600108378673786 0.6592701746682986 -10.713009104207103
0.9126721469762261 0.7557096701879529 -10.27777246511351
0.22313440870588164 0.8183911590118468 -9.824065655505843
-0.3969298106962733 0.8458454915803335 -9.347981908698165
-0.9428052652160256 0.8353218257472694 -8.849994792806989
-1.4156045606050018 0.7873135616539139 -8.328317826294631
-1.818886477806468 0.702044426416303 -7.7775963244477975
-2.153749050922647 0.5811137441417591 -7.193716264873024
-2.420954216005349 0.43072223887934885 -6.569777890786293
-2.621772003653221 0.26139129832363894 -5.896926467276233
-2.7581454211592455 0.08885799702301014 -5.171230132946267
-2.8304677067307056 -0.0663369375906521 -4.4036948370136155
-2.845828690538822 -0.18583779423121385 -3.62527016624316
-2.824037379004761 -0.2616106133306818 -2.8649989717917466
-2.7849741841348514 -0.28574056780838447 -2.1377779876034033
-2.737381562880633 -0.2521927426883606 -1.4583160579574446
-2.686880415458641 -0.15512276407744435 -0.8249456354517033
-2.6429199401339147 0.017265837588069793 -0.2317629281807102
-2.618055767860014 0.28080090830161764 0.33672455733292517
-2.6208158238127877 0.6192647917350216 0.8529730711329752
-2.65045917497202 0.9848837482235356 1.2556705190014739
-2.6929948683888436 1.3642471247159822 1.591436764052475
-2.7453807920979685 1.7325206656360965 1.8970144309720491
-2.8059515598063673 2.0317618070700605 2.184970394390753
-2.8658388739338596 2.2226201382959694 2.431319828093869
-2.9108663090440623 2.313077527171225 2.6374089301187356
-2.944988345318942 2.320345410627081 2.834488747182911
-2.9757351339981177 2.209624925655871 3.048519097039646
-2.998326413932801 1.9652909481711087 3.252551910136514
-2.9902404245443344 1.592249212348527 3.4520512814780138
-2.933056722767393 1.0473456999899475 3.6452767432830955
-2.802380399516979 0.40918443311855157 3.8078690906852946
-2.5998947253048743 -0.2614523014043165 3.963743330738465
-2.306166943220539 -0.946587296046203 4.110175422047266
-1.9025626824615864 -1.586439502527179 4.266335677117893
-1.3740605931497432 -2.129965896949288 4.469555888293903
-0.7523122869254736 -2.5220325563761037 4.7506644486239304
-0.06780481686688122 -2.7730019659186858 5.110375104555925
0.6550753087183544 -2.888060138819767 5.530310050740118
1.3988829548356558 -2.886843376996646 5.974489655184516
2.1672268425272248 -2.7878082810648652 6.4098606702735665
2.9655331804458003 -2.5916027305355436 6.8054907682954795
3.7939710092691263 -2.289700102994118 7.131199887007961
4.624441457940465 -1.9007981784174546 7.354789917944552
5.433696238109466 -1.4437100197289083 7.473816756255835
6.203861967866431 -0.9381470062894768 7.4922317189187435
6.9134776369919555 -0.40991750379412684 7.426386758850653
7.527905215104466 0.11356580735451272 7.300846728621611
6.937732931457584 -0.04932278231251392 -19.993728809005933
7.035355338113773 -0.07507290993470853 -19.288201888912305
7.139959939156395 -0.12167989626983192 -18.578764875191613
7.221671995515262 -0.1735412201312542 -17.895407371901968
7.258248994855912 -0.2208681138493237 -17.235884093779568
7.236963526867869 -0.25679815683118434 -16.58171717436674
7.14451499876249 -0.27445180990598 -15.927871244168259
6.970449225875965 -0.2725606444143871 -15.283525235591332
6.704014451275501 -0.2520918460608824 -14.656969273968445
6.342403077533881 -0.21336736056563926 -14.05944155141427
5.891093408360796 -0.15394562229545802 -13.49526373226397
5.351748705404062 -0.06903672308150496 -12.962198283813716
4.729205348679794 0.043943441049836995 -12.46087405545076
4.029966511820124 0.18049575853697825 -11.986563901781954
3.269414740331685 0.32964292645368465 -11.535144303811727
2.4779343374046245 0.47455989476455285 -11.102518786428076
1.6903842578547819 0.5998391588615131 -10.676966200015046
0.9382299227486505 0.6967877235022767 -10.245304030224384
0.2444321777227153 0.763420612885254 -9.797771635433438
-0.37961266170106156 0.7988536802636428 -9.32918087813955
-0.930071940534884 0.800867471589708 -8.838386865018162
-1.4087609559904575 0.7700217716359177 -8.322962619455735
-1.8196685112271218 0.7064405350873599 -7.777292852979614
-2.163538222100743 0.6107878158028557 -7.1966653990783245
-2.439594800116283 0.4872909285070858 -6.574136098858548
-2.6463800359897705 0.34379058367002413 -5.900807918238957
-2.7826406730514712 0.19273966472887372 -5.174104641530966
-2.847743447243584 0.050834607725270986 -4.406772780698599
-2.8496900449877876 -0.06665821393901396 -3.6305654836329695
-2.8099558287165167 -0.15325114666496728 -2.875229767259772
-2.750219720354562 -0.19967378186798004 -2.1540567963609876
-2.6808378236192394 -0.19681981242758181 -1.4793527302351834
-2.610801048214766 -0.1360236859025704 -0.8446442028578233
-2.553178297540254 -0.0028377033858085488 -0.23810554608411183
-2.5223017453828844 0.22323479702585114 0.3546452942769639
-2.5289737016481895 0.5336554228442816 0.9040457010240379
-2.57185580062669 0.8836644130129692 1.3387045837692866
-2.6335818198327337 1.2557193397813857 1.6952391239702451
-2.708144671692344 1.626035564523379 2.0068793658260544
-2.7877890853220153 1.9415817220691494 2.2854945131098914
-2.8593949788571313 2.152922457677656 2.5186164777724254
-2.908278364179917 2.259742536259657 2.7072931386170893
-2.941841207240013 2.2870604932000616 2.8893540082712414
[...]
CELL_DATA 87
SCALARS quad_param_group int 1
LOOKUP_TABLE default
3
1
3
3
2
2
3
3
3
2
2
2
2
2
2
0
0
3
3
3
1
1
3
1
1
0
0
1
3
3
1
3
1
3
1
0
1
1
1
2
0
1
3
1
3
2
2
3
3
3
1
2
3
3
3
1
1
2
2
3
0
0
0
0
3
3
1
1
3
2
3
3
0
0
3
2
2
3
2
0
0
0
0
0
2
1
1
SCALARS single_component_feature float 1
LOOKUP_TABLE default
0.015841316536098694
0.008601545503522455
-0.0016493510852334378
0.02226065528714335
-0.04766991717821056
-0.02647645854067096
0.008552113977303669
0.016288095885866993
0.023609813338750518
0.07370312747462543
0.019723307499699944
-0.00317647994887707
-0.02494881950219572
0.0735033404587856
-0.05984791486746614
0.0027211556796087333
-0.016191435157189543
5.6539556618940266e-05
-0.0024980894977008478
0.029253858732817682
0.01958323140391273
0.08405390584413296
0.04839649456028202
0.025403915192425366
-0.04036373783178368
0.020563394621927633
-0.03411507359707116
-0.04626813330100201
-0.02345135532384506
0.0751390554314045
-0.023168033967729144
-0.04116342890780182
-0.06239076941030541
0.01498808913786986
-0.022847047825018514
-0.0785870235849756
-0.007259236400341373
0.014176262137663953
-0.008342960397470327
0.025686432514429106
0.041095030535345224
-0.014565255341241964
0.02392638531624892
0.017691883794960915
0.04557107481746778
0.05747149690436816
-0.015976036729556557
0.02583302890417454
-0.033497621133017394
0.023031771474495172
-0.006207758064223773
0.016126544733383093
0.05741716600522723
-0.0025711360639642765
-0.01170654261720639
-0.01290993632727367
-0.02023207778782718
-0.04856665455114839
-0.0028400557691783054
-0.018440596491022226
0.03883287039638935
0.05511927017306731
0.014865601124648145
-0.03595375571428373
0.032926888231680364
-0.031973644077691626
0.020605547100059803
-0.03401240996407408
-0.0507805053370758
0.030135444334209515
0.0033643662935727917
-0.011569042107690997
0.02765346220084479
-0.011151448920825521
-0.005564409531484771
-0.015251910500457717
-0.0006411918324780927
-0.04986362580058204
-0.00921322812519999
0.005820041586996333
-0.049985223609042284
-0.06995096958419432
-0.013532249171420672
0.034021225417660936
0.02923150954209654
-0.013470246797380098
-0.06200346138735675
POINT_DATA 5568
SCALARS single_curvature float 1
LOOKUP_TABLE default
0.049946497194275276
0.08759657390709023
0.12407592422578623
0.15708108743991941
0.17949728243829735
0.19149186186438233
0.19162221047120054
0.18157779022216794
0.16182105249352763
0.13329482774456106
0.10210849804640061
0.07249659002948322
0.04916482760161183
0.041588602625659055
0.049867842950233096
0.07090217679741338
0.09980698751852322
0.12732563842293743
0.15011402838807894
0.16593094613067955
0.17177602370312733
0.16655872722071366
0.1520928059430706
0.13523562248813062
0.12126646714745894
0.11153127808605723
0.11028008926920277
0.11818652107806986
0.1356312368248922
0.1666654314364006
0.1981624930759022
0.22258939587601284
0.2576503744298566
0.25146638486598083
0.20448815644167218
0.22093739423406217
0.312254022581111
0.5558941006495107
0.8001782703737947
0.8844247392127766
0.891499946863479
0.8236719932258505
0.6264907397413146
0.38296936375324514
0.21538530180409274
0.15686946447842684
0.1530872542443391
0.17336206753910466
0.21909711767272802
0.2466081565371063
0.2499350265766629
0.22614059128308828
0.18188192663742475
0.15233531270939438
0.137318057158351
0.1356430968562301
0.13978717702721505
0.14183932181642916
0.13863286069036942
0.13579531550782314
0.10080682758053769
0.06581833965325223
0.030829851725966778
-0.004158636201318677
0.047582468826444194
0.08380714687446685
0.11878318047812267
0.1528481766252419
0.1763259158514757
0.1896600897417641
0.1906883364320887
0.18090856158009871
0.16133356187854767
0.13362500157024204
0.1038438701462012
0.07514719773777205
0.05119163565503505
0.0418839115115488
0.04803986234151861
0.06750503855696866
0.09599760041049842
0.12351736691894934
0.14641506817729313
0.16275557116832534
0.1700877516435629
0.16740019085628693
0.1557196613327421
0.14021771500588728
0.1252677208632828
0.11192098184030753
0.10554147119816736
0.10929467217935322
0.12406837572549394
0.15396188596549232
0.18798819334603728
0.21651567994122173
0.2569425108173704
0.26132788819065284
0.22535468837183562
0.2185927054834562
0.28489853287551714
0.5322144512943415
0.7970917373185048
0.8955476252434221
0.9096056159992316
0.8522968760510189
0.6628272898267411
0.4022494459578355
0.22072416264175942
0.15912215561649853
0.1553781431514745
0.17780682567926875
0.2234731119886896
0.25044160012505756
0.2527765875884378
0.22747750184638005
0.18259867315328226
0.15164231218859778
0.1357738760765171
0.13439774584157366
0.13953531636485042
0.1426879017640477
0.13983294082111453
0.1366913602869746
0.10115404477415507
0.06561672926133555
0.030079413748516026
-0.005457901764303497
0.04634620186370549
0.08057624737571477
0.11166322440289493
0.14695250069853402
0.17180944946928273
0.1869642725059292
0.18920549577023393
0.17979393854792128
0.16051584096226784
0.13401983722500216
0.10627712028151087
0.0789729068848704
0.05426452178232851
0.04250107336287552
0.04566357386979433
0.0628626135676574
0.09067415177066923
0.11820202355097185
0.1411906595111292
0.15813200264163718
0.16739516316273131
0.16821414992433073
0.16068285741228036
0.14773908945027237
0.13236485756115826
0.11497367604934564
0.10144966644800063
0.09852934499356057
0.10825398952211054
0.1355292758670513
0.17291321702389803
0.20759422125973961
0.2557283135386545
0.2743835704453928
0.25549690369230066
0.22119363752580923
0.24898859044825206
0.48851088316449487
0.7840020300762442
0.9060223246577629
0.928442243513842
0.8860394089544154
0.715413967455276
0.4333798194165194
0.2305773867261755
0.16415392524671757
0.1598949750687724
0.18424665955299319
0.22946458103176942
0.25564961185731416
0.2565944716444152
0.22922416736988452
0.18359278041474755
0.1506870384715974
0.13363177623519787
0.13265789190984684
0.13917615176383932
0.1438904722873197
0.14156254988722153
0.13805641029585583
0.10174315231380891
0.065429894331762
0.029116636349715078
-0.00719662163233184
0.053269280546902435
0.09219192030846557
0.12892708357476548
0.16087903407952128
0.18229519498495722
0.19306524071721173
0.19237117465162293
0.18208894221844676
0.16219038321244605
0.13296665776090844
0.10055951801957588
0.07019648603584804
0.0474695343466016
0.041425445511521886
0.05159029197152072
0.07397714451518177
0.10320514531683138
0.13071695924488197
0.15336911278323362
0.1686527375274936
0.1731059029942201
0.16562612799630091
0.14881926834176037
0.1311025531528606
0.11844476027508567
0.11227487573217304
0.11547702583606045
0.1265761780523516
0.14573176610935498
0.17732702164893976
0.20658644530902232
0.227698493288401
0.2582332808355724
0.24258476537311618
0.1934970333110695
0.231024640280556
0.3415440028942812
0.5760284155620573
0.7991279970413846
0.8718961014467658
0.8717872874743063
0.7953835649295321
0.595567195704884
0.36791364846884905
0.2119324154581539
0.15595000859652092
0.15177451422656768
0.1694993696554725
0.2151290681655215
0.24311025704472355
0.2473208564348904
0.22488630171515744
0.18123759967507924
0.15296209388748475
0.13870803371074406
0.13675833361270523
0.14000937012120301
0.14108828477288796
0.13758477726703167
0.1350499192200386
0.10054822138987457
0.06604652355971055
0.03154482572954653
-0.002956872100617486
0.05456002518355297
0.08031891333462984
0.08794624636527004
0.12216275325876956
0.15127757972626155
0.17347722276277258
0.18032015331590212
0.1724739860723997
0.15508778185019823
0.13475942311544778
0.11678371914362345
0.09652842303982996
0.07099497951636424
0.048240229722623706
0.03846938106913496
0.04582093828450162
0.06904445695554744
0.09737489916169582
0.12038440454194671
0.13801484682597076
0.15262488622761877
0.1667914672964548
0.17887370324464386
0.18377700948038755
0.1785980500435821
0.16224779129536201
0.13384182219442017
0.10174419976748109
0.07879310503151797
0.08291992193779403
0.11710558991332283
0.17002767452230133
0.24370048466921804
0.30623328524022564
0.34903497596098976
0.37623765356177485
0.3157293400572266
0.35595951179433183
0.6473193009238851
0.9013611658360171
0.9557263950853823
0.955576303134493
0.8982171486170327
0.6087982304022627
0.2956998893657907
0.20010207835462399
0.18945363276506144
0.2139004239679477
0.25256563767135454
0.2752447609889013
0.27036013512817736
0.23478403689133379
0.18764418612593187
0.14678261134173642
0.12470322707442044
0.1252140151538042
0.13751878335484016
0.14924103167756977
0.1496748083661397
0.1453910267638454
0.10564012502140888
0.06588922327897234
0.026138321536535808
-0.013612580205900726
0.048694442787582275
0.0782476843399947
0.09690361287419373
0.13320687280281077
0.1607699109350507
0.17995753453444882
0.1848513965879542
0.17630096693637448
0.1579324210695163
0.13462514176024443
0.11203633151589781
0.08841971039427748
0.06272471048817153
0.04501441366147074
0.04105478707179868
0.05278293215033173
0.07839319031013324
0.1061297738979366
0.12916273792987812
0.1468846665989101
0.15978308719680454
0.1684255791321889
0.17147603570658723
0.1671797510291438
0.15525097536647112
0.13502215520938604
0.1087961740204046
0.08835658994190142
0.08135062705083121
0.0974912719859048
0.13810587258206602
0.18624674700303778
0.2509045775256526
0.29787641812063315
0.3157586247996881
0.3080067741187341
0.2495846819990936
0.3943323490355019
0.7253787829514644
0.9086398192901195
0.9503555766480217
0.9364547751479733
0.83168639775113
0.5234610930633719
0.26266319148638223
0.18210683218319637
0.17491033429659478
0.20029163083272114
0.24278511907357395
0.2670532261280478
0.2647475947369622
0.2327031506837655
0.18587495592175876
0.1485029609396417
0.12867128393976485
0.12856486683343707
0.1382919785677041
0.14679362793816142
0.1458788247611946
0.14179053252053153
0.10361030065604432
0.0654300687915571
0.027249836927069893
-0.01093039493741732
0.04757121983266893
0.08378620721075267
0.11874774502065999
0.1528194661875302
0.17630420768860952
0.1896473758809657
0.19068163630899648
0.18090365533828615
0.16132997604305785
0.1336271099959453
0.10385567309509794
0.07516546413804671
0.05120588272659764
0.04188632608909347
0.04802779962136509
0.06748214529069438
0.0959717069296726
0.1234914781865882
0.1463897832249169
0.1627335779815045
0.17007558193052097
0.1674051729331001
0.15574412321021747
0.14025277347268714
0.12529798856549015
0.11192845500973098
0.10551386338500904
0.10923691314599479
0.1239897364381541
0.1538735162515883
0.18791689216043192
0.21647335855602132
0.25693735197009976
0.26139388293935234
0.22550285417702462
0.21858794589524888
0.28471471587242453
0.5320323455747166
0.7970534103768943
0.8956127717354596
0.9097148136273698
0.8524791341492172
0.6630791213332161
0.4023891082354139
0.22076551915795814
0.15914156305012347
0.15539653419457944
0.17783748388921325
0.22350259998589
0.25046734716547986
0.2527955862191984
0.22748634049925975
0.18260352763632276
0.15163763212186035
0.13576342037175257
0.13438928923286417
0.1395335917960367
0.14269369929107517
0.13984119778954518
0.13669767550917897
0.10115661433775318
0.06561555316632739
0.0300744919949016
-0.005466569176524189
0.05014128803823175
0.08787968790901432
0.1244089444472863
0.15734408886099205
0.17969245460045816
0.19160292115583705
0.1916767482983633
0.1816158721861303
0.16184867661235505
0.133273063096084
0.10200098713934665
0.07233481411290797
0.049043681658740526
0.04157419872615818
0.049984619355798066
0.07111445486799228
0.10004300393174796
0.1275614441556304
0.15034162666224907
0.16612353033592867
0.17187384361770724
0.16649950320523832
0.15186645321201536
0.13493880277466166
0.12104791030590911
0.11155131276371771
0.11061416007952833
0.11875854701902341
0.13634249733198497
0.1674291007288061
0.1987694858409189
0.22295457895804802
0.25769171554182346
0.25084903855812807
0.20334966059916032
0.22126481840930343
0.3140279904751304
0.5572231721038697
0.8002131298712036
0.8836343902439852
0.8902411691299447
0.8217857110291679
0.6242929815634631
0.3818580553866067
0.21510457503238153
0.15677105794645996
0.15297326455952642
0.17309080770973231
0.2188235012121328
0.2463676293662118
0.24975590366186137
0.22605536319521302
0.18183733724928466
0.15237856566474864
0.13741417491764654
0.1357203857627985
0.13980267446042496
0.14178699985145754
0.13855941724787965
0.135741923791128
0.10078731521353314
0.06583270663593827
0.030878098058343392
-0.0040765105192514806
0.054098670011371336
0.09328970490786512
0.12996414898118838
0.16168237620813541
0.18288146078423573
0.19338979104469295
0.19251910572058722
0.1821865190812658
0.16226045557471439
0.1328934714784197
0.10023287063009433
0.06972041308267754
0.04712595301710556
0.04140341244322839
0.051964650256842715
0.07462962637444984
0.10392079847567315
0.13142981397336476
0.15404804453634677
0.16921133057917978
0.1733641182499015
0.16540779995769633
0.14812650862570625
0.13027159719652845
0.11793853712484678
0.11255034914346196
0.11666837861786206
0.12837412146268912
0.14781014656122501
0.1794718587815243
0.20826680523295638
0.22873013609058646
0.25835490179469184
0.2407291693022738
0.19277171824279724
0.23468583593413186
0.3487513385540188
0.5806003538040763
0.7985097656892948
0.8689418194322903
0.8671983047861005
0.7891408647004059
0.5892658838389956
0.3650028687263353
0.2113701682114688
0.15589735842498517
0.15158961201075885
0.1686970881235307
0.2142855225933953
0.24236394524652463
0.2467605800285324
0.22461466381702827
0.18110122599997647
0.15309526141204413
0.1390025765904714
0.13699400331951628
0.14005594374928088
0.14093066979143412
0.13736649715371185
0.1348992665601735
0.10049986532862833
0.06610046409708314
0.03170106286553796
-0.002698338366007219
0.09864558736495409
0.14800465822115141
0.1720143065453353
0.19258506923476304
0.2041375759746308
0.20390122294503113
0.19569123544309333
0.1834083685272531
0.1630095050498897
0.12917990348921818
0.08814170099311978
0.05558460704553196
0.03874458679924278
0.04476489170673047
0.06967046952916778
0.09950882884329779
0.13005653978799397
0.15658459221930585
0.17620682724269598
0.18496443492726167
0.1769058408828703
0.1520884430026108
0.12336131470597547
0.11020104132743969
0.11767664310464601
0.1426919180139702
0.17090088160171318
0.18826887999234712
0.2013656578985394
0.22408412910821693
0.2379728086783619
0.24890508795174252
0.2634401286660845
0.22551300506431057
0.2606220681027653
0.4136434736763657
0.5456464946127082
0.6469310692467787
0.7119794973787313
0.691177083504109
0.6244244793415504
0.5426847917703761
0.4198613892552655
0.32055052403117673
0.23389507638115808
0.19307158183849413
0.16677646777339672
0.140896509361249
0.1815559582995613
0.21256157299230247
0.22374683907782672
0.21277752683735907
0.17588639921745255
0.15834321334805865
0.1504436336764769
0.14601806466831463
0.14176520541103158
0.1352014853653407
0.12982934398730425
0.13088223335364602
0.10024608811539998
0.06960994287715394
0.0389737976389079
0.008337652400661866
0.05182595823579056
0.09024470483136561
0.12699283854378116
0.1593729654471889
0.181190919832778
0.19244908400841756
0.19208403827107073
0.1818961568888787
0.16205148913403566
0.13310033854251485
0.10117284319408121
0.07109909824230407
0.048127849089118706
0.04147857192117386
0.05089795136023914
0.07275557687436845
0.10186036300858183
0.12937600009265932
0.1520868341440801
0.16758901279748875
0.17259994772048856
0.16601573708256118
0.15011819331923354
0.1327016181002849
0.11947831036346318
0.11186625376654628
0.11332507540004588
0.12322157689062886
0.1417753757012663
0.1731976983123718
0.20333709828229887
0.2257164222477163
0.2580047664917337
0.24609227882623036
0.19625543794258898
0.2254707780686685
0.32884090245069303
0.5676693116334212
0.7999297161032257
0.8771499578628698
0.8799981770043273
0.8068583700567109
0.6076133742647648
0.3736284684312326
0.21314589739690262
0.15618393935479571
0.15220885747212537
0.17101720297003803
0.21670673557074907
0.24450350515963706
0.2483644627274721
0.22538967225522183
0.18149320115837522
0.15271298917645712
0.1381563388429226
0.13631630653568286
0.13992166448992396
0.14138494340907815
0.1379971932470597
0.1353389352605216
0.10064482978311762
0.06595072430571364
0.03125661882830966
-0.0034374866490943234
0.04631199947049505
0.0802477572492241
0.11064525172227947
0.1460845248396963
0.17113421823151828
0.186552567636675
0.1889686092159723
0.17961125826320434
0.16038135624679872
0.13407136878858303
0.10663702667033763
0.07954823020562074
0.05474287962889144
0.042613370516960285
0.045331784933795694
0.06219118182002552
0.08989054358490134
0.11742176599947199
0.14041886310741988
0.1574357012189706
0.16696711242692053
0.16829806969296182
0.16140101675115565
0.14889667564936543
0.13355719932578605
0.11569573730862312
0.10115063827010957
0.09717679342527391
0.10603358102073157
0.13281238570707618
0.1706463794402603
0.20625147213661982
0.25551730587950483
0.2761959297799698
0.2597966602349003
0.22280171953092148
0.24473987628772131
0.48148231160805527
0.7813257103112132
0.907075144937685
0.9306459947954391
0.8903650123358122
0.7232170072544104
0.43836961732172885
0.23224755546774067
0.1650577878452972
0.16067666448971513
0.18521888533635275
0.2303347384215177
0.256402058180211
0.25714169990675895
0.22946929545056952
0.18373857168739785
0.15054737674645505
0.13331723246842997
0.13240111917826514
0.13912237052545262
0.14406959337034808
0.14182308076119232
0.13826908183487957
0.10184040731657552
0.06541173279827148
0.02898305827996743
-0.0074456162383366165
0.048396746116173124
0.07823081200990353
0.09768508746964477
0.13402886901733999
0.16145239323440863
0.1804074700600454
0.18514972808220484
0.17654750527741958
0.15811533231953448
0.1346020674060195
0.11168789209610666
0.08783500889501931
0.062162441209014305
0.044817355575599876
0.04128832174110122
0.0533460477989967
0.07911439672676679
0.1068256021486816
0.12985934163147575
0.14756068417401913
0.16028349297781913
0.16848131071936043
0.17087274575293315
0.16596558667508468
0.1536649982199988
0.13333295277941404
0.10756125659021806
0.08815592409794326
0.08229139264213386
0.09926345927612107
0.14002123262472466
0.18750330783149569
0.25130104011926835
0.2968410376630947
0.3127011634519156
0.3019042631265275
0.24787797226817612
0.4003876963105198
0.7310343591177376
0.9092834255853163
0.9496635728381996
0.9344072857804995
0.8255211930552458
0.5174725841930766
0.26043868480701154
0.18085875418755873
0.17388708299312833
0.19929786518452297
0.24202004730316193
0.26640529732773277
0.2642934513025832
0.23252093597696719
0.18574048691754827
0.148632029871239
0.1289669051063427
0.12881158844104448
0.13834702264987034
0.14661583029678726
0.14560871042858475
0.14154467445699667
0.10347860880593407
0.06541254315487147
0.027346477503808864
-0.010719588147253739
0.0984398914515885
0.14775784304377057
0.17183447466619306
0.19245822296139764
0.2040550023799704
0.20386530847450196
0.1956874249741127
0.18341259042869396
0.163013579816387
0.1291983638076119
0.08818715697898422
0.05562166198964434
0.038756504638314024
0.04473102024921293
0.06958368797518374
0.09940924819634196
0.12995630205012676
0.15649317669089577
0.1761350569285407
0.1849250422180978
0.17691643648990804
0.1521598736219187
0.12345007411960315
0.11023992334395048
0.11761962178941085
0.14252225832087212
0.17068252397599804
0.1880858624625584
0.20125882373937823
0.22405107960422416
0.23799176609955727
0.24891425449529117
0.263431490298801
0.22531646910514389
0.26009304349202955
0.4129412116172579
0.545193838249212
0.6469842545828065
0.7124989899338284
0.6920731626563421
0.6254720949446742
0.54356900456375
0.4202851448141215
0.32049858037619755
0.2336455101547244
0.19277578346152907
0.16664052909028806
0.1410015809481958
0.18168856252396404
0.21268628010149296
0.22384556565768482
0.21283070749719923
0.17590752733435192
0.15832132319404263
0.15039639914911626
0.14598117060964574
0.14175842393365612
0.13522362361951107
0.12985695680259665
0.13089191318799298
0.10024101005490586
0.06959010692181875
0.03893920378873163
0.00828830065564451
0.059031599353477376
0.08270191071051183
0.08413318595230898
0.11614371441137564
0.14581715308013507
0.1695648086843383