# vtk DataFile Version 3.0
vtk output
ASCII
DATASET POLYDATA
POINTS 5568 float
6.929987366969673 -0.03873452153643921 -19.619041506239785
7.065308003867343 -0.02880681964820154 -18.91655945675902
7.196587571796654 -0.05560869065158983 -18.23875697171626
7.293473104947867 -0.09820855094229057 -17.606320152146218
7.3360808400955735 -0.1471859622106761 -17.01273761705471
7.318358741774667 -0.1899392133687201 -16.42062569116006
7.22673418118042 -0.21058461538704198 -15.815345494098263
7.052337308014918 -0.2104483555334518 -15.21184949353047
6.786750103396977 -0.19487293530912475 -14.618719828438769
6.42819569467149 -0.16613590469462694 -14.044983606407513
5.976890465013837 -0.12154653585916786 -13.492479370096573
5.422222145318943 -0.050712681049798994 -12.962444883582677
4.768731947444026 0.05429422933438775 -12.47313640422593
4.035099881940554 0.1838842178843118 -12.028940051499445
3.241168614855513 0.3241375039152625 -11.622546012812997
2.4179993194404457 0.4593070311657145 -11.241412253675273
1.6021972337145167 0.5741246157429225 -10.865888194010289
0.8291962497550756 0.6601250966666856 -10.474483184968784
0.12774407403663846 0.7174698163247736 -10.052040830551107
-0.4888112959402878 0.7489220987336789 -9.592485306407651
-1.0195057783644863 0.7537910329583223 -9.0937823736206
-1.4691411230381908 0.7300167646092871 -8.555983684442229
-1.844228095264345 0.6759229296355088 -7.979298607527136
-2.148493474943076 0.5910088243785532 -7.363688675097758
-2.381004732864657 0.4791617862199987 -6.708702996506289
-2.537920128370386 0.3503650118754102 -6.015620084231615
-2.619838105093724 0.21787924885757787 -5.28696427021073
-2.633818595325166 0.09429425030344789 -4.5253831806476645
-2.59666197590549 -0.006237377390319529 -3.7431322437017998
-2.530551407541517 -0.08616086938687108 -2.9616706532257684
-2.4619082235942633 -0.14176760920806486 -2.2107365995523844
-2.40983357059754 -0.15725787641026445 -1.5031219280687065
-2.3884772800474248 -0.1196090470609665 -0.822757745726175
-2.413308095355736 -0.009045300016219934 -0.15896905079270918
-2.4953448249781265 0.20531914424328324 0.5025067299481941
-2.625053521606379 0.5325255721716466 1.1164362273847381
-2.7761270878837983 0.9175141269577142 1.5855242852674285
-2.9152722968471863 1.323575906752074 1.9280642315263976
-3.0294180618396305 1.7216299741515444 2.2055642887500286
-3.11378240875823 2.0618814467983992 2.43868492670548
-3.163115463699391 2.3051844470181244 2.639744285706065
-3.173942346750078 2.4342726228787592 2.819137079511064
-3.161808272739277 2.4670303857410083 3.0290088875471817
-3.1378867977774085 2.3325267828280185 3.2893396896472527
-3.117448800795675 2.0092547421888973 3.5221092392943425
-3.0852575529494777 1.5663421565597586 3.704225959252993
-3.0299818996500143 0.9653081583771963 3.8598174021307066
-2.91068052633307 0.28229018026984054 3.9651240742600247
-2.7206135093810633 -0.4270975389583469 4.055304794260047
-2.4356413179920846 -1.140119225422219 4.129396829565693
-2.0279154704599334 -1.7804527801818657 4.223049692491402
-1.4794368917635576 -2.293925755195546 4.384723604653038
-0.8386792100835174 -2.63012106258191 4.651674477128779
-0.1393473877546867 -2.8207895601739494 5.020911913231269
0.5919096672644045 -2.8838409352204804 5.471658578434647
1.3358418421808183 -2.849454995599051 5.958882641180042
2.100699952987673 -2.7425068197780424 6.432433281470045
2.9078203200637556 -2.5573182654210806 6.8580542817585455
3.752935872112647 -2.2662851003897213 7.2062804830535345
4.596091769128518 -1.8860528804982122 7.439953365726818
5.412242253030325 -1.4354609758843995 7.559927322344181
6.182636807873518 -0.9348078796819314 7.574160984915034
6.889664177401904 -0.4111413430902845 7.499667284257336
7.4982749071367465 0.10772966027075404 7.359980380856841
6.935144470749534 -0.05415272570647753 -20.024019207713497
7.0321676863869635 -0.08442929090714649 -19.318664045283207
7.135537788044812 -0.13327115079832086 -18.607628690240784
7.216372630150395 -0.18590982549831633 -17.920832430100138
7.252739600993076 -0.23250695493425816 -17.255993287309426
7.231105748344721 -0.2669824296114348 -16.596561770556807
7.138180119858342 -0.28346805128686864 -15.938619755268327
6.963458563265092 -0.2803407212123775 -15.290574224893989
6.6959412388408115 -0.25806921196126753 -14.660721928272007
6.33261684865296 -0.2167139229494003 -14.06078399904144
5.879536318017691 -0.15390618647055 -13.495748812581102
5.339844822471688 -0.0656387178106709 -12.963294688486066
4.718768799402151 0.04985658176920671 -12.46223046583021
4.022069601433827 0.18849474442119402 -11.986430078916444
3.264797226979092 0.33961610199818093 -11.531550631491655
2.47693090754323 0.486263453222398 -11.094261417433607
1.6928188432581401 0.6129711985926641 -10.663664428427253
0.9434261727666865 0.7109092868132015 -10.227389263999424
0.251093263135974 0.7777540553380332 -9.776294735417302
-0.37296946952672316 0.8121675660736172 -9.305505825264701
-0.9245521502276676 0.8116893893164372 -8.814216688099883
-1.4050731575024775 0.7771248599521822 -8.29982192611948
-1.8181746852589784 0.7087903118238954 -7.75617347530487
-2.164340735408471 0.6076305879666821 -7.178231674148147
-2.443085005934417 0.47825212662650196 -6.558457528973517
-2.6536993972534564 0.3287436799611747 -5.886977680688739
-2.795332609338002 0.1720498559954347 -5.160460096170972
-2.8667322397986714 0.025972765791281077 -4.392349481165876
-2.8748311194638347 -0.09353468800327845 -3.616219039177187
-2.840768453091134 -0.17885839200679216 -2.862516217115869
-2.785521485944701 -0.22048292666168534 -2.143218614175658
-2.7183412568091962 -0.21049763900275664 -1.4709250594248713
-2.6471646995574973 -0.14114573190026025 -0.8407253544119827
-2.5842418395427758 0.0011425086076103652 -0.24152635059458205
-2.5439971097828775 0.23517132551306222 0.34127037638736013
-2.5387682020470175 0.5493870323282172 0.8795297130666934
-2.5694658346353996 0.8993416011819273 1.305815937560972
-2.620559309735561 1.269870142353812 1.660334646550892
-2.6874260043960785 1.6374030876885726 1.974384690385447
-2.763257310499297 1.9478198943586116 2.2592952032174285
-2.8350200806490715 2.1525977905754816 2.4981253328804427
-2.887028713761036 2.2545525075622996 2.6910445390720183
-2.9249265668934927 2.2780017162491815 2.8735117788501574
-2.95606587281383 2.1920640447943898 3.07652466075458
-2.9764267606819548 1.9765762525281418 3.2782020956616
-2.9644727049620663 1.6237873559639464 3.485188017954632
-2.903526517377578 1.0785240681486306 3.6874153736504924
-2.7741790395160613 0.42671607093925223 3.851423315522783
-2.5754196459363836 -0.2521275019670286 3.9998952403582537
-2.2851251088249995 -0.9385653327115425 4.137416686794763
-1.8836468186358548 -1.5795523121501351 4.283423473645245
-1.3582735089931663 -2.1246952315884746 4.473547980567751
-0.7386406990888594 -2.524055138974564 4.738352690281293
-0.05141944062635495 -2.7828028969607645 5.081666222238482
0.6780060729510218 -2.904050625659292 5.486767956642475
1.4316463749382489 -2.9068218113624003 5.9197393174056
2.2096914191646584 -2.8092850521009844 6.346958005981259
3.016158934266036 -2.613942437899816 6.73553143146477
3.8505933996117476 -2.314431977033973 7.054323856589468
4.685157299025455 -1.9271731952231004 7.271387361862497
5.496265667220799 -1.4701564534942675 7.383102420885128
6.265716895132854 -0.9632427551455022 7.393893104566899
6.973481499475566 -0.43146088010634465 7.322714656404253
7.586245204007205 0.09942090160349759 7.194885771410339
6.935266677286241 -0.054518086849918546 -20.033615858169462
7.031391260523785 -0.08574772658500728 -19.328140969703135
7.134088446458962 -0.1351243353343321 -18.61628293056118
7.2145255716099905 -0.18800947100315635 -17.928161013375732
7.2507334336836795 -0.2345436169293187 -17.261581020332393
7.229003082656238 -0.2688097329047938 -16.600507253455074
7.136048878197657 -0.28519193941973753 -15.941289334388156
6.961323307938526 -0.28199135860836866 -15.292166376439358
6.69376196644501 -0.25955715081084224 -14.66142741035244
6.330323366060488 -0.21789726627664077 -14.06085837151749
5.877197583471601 -0.1546536693165697 -13.495520146864449
5.337854185702514 -0.06597422290838335 -12.963003922473712
4.717528157504278 0.049768885762229764 -12.461655922728157
4.0216723290536 0.1886249578434409 -11.98509471625085
3.265222730415671 0.3400114173152353 -11.529044942450955
2.4781395302774767 0.4869397285830736 -11.090399455063256
1.6947290842807157 0.6139367957920708 -10.658472064490446
0.9458641671264221 0.7121623299367087 -10.221113528446468
0.2537374855179447 0.7792344273465002 -9.769329421368735
-0.3705039464457133 0.8137186677459203 -9.298272589402723
-0.9225896294611774 0.8131128547364767 -8.807156484447372
-1.4038631803523791 0.7782906396068426 -8.293297544194006
-1.8178918461821223 0.7096148061957019 -7.750391820538327
-2.1650723482496605 0.6080645635044294 -7.1732866319982325
-2.4449267875484475 0.47826306878054176 -6.554285594449664
-2.656829851882813 0.32825156468885996 -5.88325753427846
-2.7999013236010155 0.1709662952755254 -5.156729644926304
-2.872678857105895 0.024341084555628972 -4.388408470822976
-2.88184762790795 -0.09562048809459135 -3.612385848968247
-2.84852955517607 -0.1810707332001344 -2.8593194281311676
-2.7935931259040845 -0.22237125335651037 -2.1407591249444207
-2.726063105374159 -0.21179713462890135 -1.4692747141998428
-2.653738755853945 -0.14171263260064892 -0.840166596282571
-2.5888071988007155 0.0013327368262890105 -0.24227893516777388
-2.5458010000715716 0.2358992593072215 0.33899143421447
-2.5375722805371073 0.5499524161154341 0.8757856361505805
-2.56560303183424 0.8992551203645436 1.301275002766268
-2.6146929477660867 1.2690908076829386 1.6561857838913419
-2.680465743565935 1.6359885410818515 1.971161495468236
-2.7561111020041085 1.9457659848376463 2.2573779609352442
-2.828436871216523 2.1497073316268236 2.497203079080727
-2.8814616515468963 2.2510784837708973 2.690566984318896
-2.920502565416567 2.274339009976092 2.8725679468491547
[...]
CELL_DATA 87
SCALARS quad_param_group int 1
LOOKUP_TABLE default
3
1
3
3
2
2
3
3
3
2
2
2
2
2
2
0
0
3
3
3
1
1
3
1
1
0
0
1
3
3
1
3
1
3
1
0
1
1
1
2
0
1
3
1
3
2
2
3
3
3
1
2
3
3
3
1
1
2
2
3
0
0
0
0
3
3
1
1
3
2
3
3
0
0
3
2
2
3
2
0
0
0
0
0
2
1
1
SCALARS single_component_feature float 1
LOOKUP_TABLE default
0.02712966273867463
-0.002634895661865172
-0.003340218601638585
0.005396326460139135
-0.05662517510990677
-0.05417591442891197
0.01055606482922991
-0.027787425056854873
-0.03527464106327322
0.03402288664716039
0.07237359299407438
0.0017109548990277591
0.0036572899642282365
-0.0350691224084186
0.04872455234321433
-0.01027212668522019
-0.009871699692669055
-0.000989370846817536
-0.027227775386465612
0.04283274341489063
0.013151223393347025
0.008141217780651452
-0.03172272638170684
0.010246476421265444
0.04863236397559768
-0.009890710988225838
-0.03341981849643325
0.041082309010797236
0.04278298917161149
-0.0405119317243338
0.062357562677353234
-0.026514565963549307
-0.029996564554560318
-0.0009868089051670928
0.016526196512035452
-0.019650017274962572
-0.010813647569432636
0.005893449757661991
0.01657953898571948
-0.060353805208636854
-0.042889999232099824
0.0072165099088268535
-0.03233189486600967
-0.03930771757161827
0.026551975605422204
-0.014008526699535562
-0.02284416709233658
-0.00023331766037663904
-0.012236547537879672
0.03138332822168298
0.020952827962718086
0.00019402328330668517
-0.006587850059338152
0.02327818058923521
0.03521355398823981
-0.07302563940698081
0.011453836722099639
0.03544052471231396
-0.028836875763046818
0.03819831943163337
-0.03296731006521965
-0.010300714107384874
0.03461951140105324
0.0023800020288962526
0.00259386563939068
-0.007446384981528824
-0.016743110662580978
0.06442235716636348
-0.038996734607225136
0.026223983924184076
-0.03469663777142673
-0.04999762286454351
0.08962090678251769
0.09300454842454485
0.033523589171310306
0.012018149363839145
0.0063355693457180645
-0.019403484073883814
-0.009386376264279017
0.03185560472586738
-0.0045850980590500245
-0.04841424571929406
-0.03191068753991014
-0.04048082191239765
0.03618981637794794
-0.010968091247065687
-0.01873956897972976
POINT_DATA 5568
SCALARS single_curvature float 1
LOOKUP_TABLE default
0.07641689365966203
0.1189973640728916
0.14849933557945785
0.17983197355337813
0.19508654852395874
0.20085889481115193
0.1935952330102509
0.17965780014262225
0.16299726729877534
0.14174661130780083
0.11873437160522125
0.09179835607590849
0.06250408201747233
0.04920377855321945
0.05575891651485697
0.0804024811809499
0.11719100333450262
0.1494861106569987
0.17038907633082198
0.17964960783265377
0.1792582288946311
0.17254737707413523
0.16138797836901328
0.14610798753859836
0.1264883818633427
0.10125640389873274
0.0760146790573975
0.06723059585605214
0.07805272804124809
0.11187517664807728
0.15863387263939016
0.2015220478556047
0.255800030920982
0.2956262510272707
0.28976842011569465
0.24940664564204823
0.2608660032765569
0.5512991577391397
0.8123850727918542
0.9006264339489786
0.9188536129406472
0.8446716100366536
0.6137227580186312
0.37375568043718094
0.21008481028110226
0.14912890091222997
0.16759898609891163
0.2095535874760831
0.26998095571598196
0.2969101417997865
0.2845980313535655
0.23518525011646113
0.16700424197200273
0.12898378615107203
0.11682302511034089
0.1252925698208958
0.1409446554724761
0.14996014497782204
0.14877123162829117
0.14623603335072036
0.10828675649119629
0.07033747963167222
0.032388202772148156
-0.005561074087375911
0.044039822594271194
0.07790541644633721
0.10987956543124186
0.1452308501178956
0.17053734796968906
0.18618043883137445
0.18907046664086652
0.1799964632300867
0.16037791674082058
0.13314668287165543
0.10457827989645867
0.07699399919302345
0.0528811935275008
0.04173358847972353
0.04514280212346964
0.06210542704883781
0.08925934591751675
0.11632015811885403
0.13942682876123114
0.15689768806571447
0.16665732034188366
0.16756233194759568
0.15966522305575323
0.14647650292878955
0.13152553450466895
0.11554608380989687
0.10450291280552818
0.10383356678954643
0.11508377413382681
0.1425744975265285
0.17816748806082147
0.21006511315882792
0.2551576361497102
0.26906562853968
0.24761551540289375
0.2216546753317657
0.26111684188912804
0.4977951337300722
0.784316579881453
0.9041980629760485
0.9255073588385285
0.882498936003025
0.7148012628341373
0.43472476953827555
0.23168979863588998
0.16478069171188114
0.15821146641573883
0.1806248488601999
0.2244515189860318
0.250705029455233
0.25321096708704266
0.22836304216325112
0.18507626628033302
0.15311173780585957
0.13577596959170773
0.13378252996670464
0.1391468060944445
0.1430916727211037
0.14055697822782962
0.1370303086274282
0.10101376827159878
0.06499722791576934
0.028980687559939905
-0.00703585279588953
0.04342167937215971
0.07710712333698039
0.10912192381721646
0.1445308336893334
0.1700071271458628
0.18585468766340388
0.18896752955448065
0.17999850391530495
0.16030154882837985
0.13292674036154373
0.10422613659442252
0.07662890264618015
0.05264711912325451
0.04155964732934911
0.044908099367423966
0.06171231160631727
0.08866184789029402
0.1155986884449304
0.1387374252587276
0.1563687733090654
0.1663362473873652
0.1674116853017994
0.15959955368553902
0.14646882619641954
0.1316341447292343
0.11588692566788159
0.10521088336221215
0.10485359888098165
0.11628792943011759
0.14371190097012723
0.17895227458691823
0.21034794143323757
0.25492319248678125
0.2681539033082125
0.2468041207948935
0.22213499111725526
0.2630748635892981
0.4983715337682233
0.7836251416267548
0.9040114837120351
0.9253688532092236
0.8827899409132042
0.7168362508137783
0.4365477784535923
0.23249115485580063
0.1652033393546495
0.15797813054122845
0.17993580357979877
0.2233635668808349
0.2496016447071075
0.2524662855806111
0.22820562373887873
0.18551659922903008
0.1537238072207718
0.13626207685671993
0.13401192195520506
0.1391256373711432
0.14292976040111988
0.14036299413358183
0.13681696014555736
0.10084648964628158
0.0648760191470058
0.028905548647730026
-0.007064921851545752
0.051616883341488735
0.0876159721422283
0.11902782647719015
0.15358011070580796
0.1767355349994853
0.18995921092459503
0.1902561727407257
0.17995385770684402
0.16120121639491147
0.13560052067513217
0.1085377806715426
0.08110989288325601
0.05553170763927103
0.04373154213006501
0.047883063551005176
0.066735548544846
0.09630852507780638
0.12478815214427615
0.14746133519126164
0.16298352176209738
0.17025573090833976
0.16917732817104641
0.16033288176974667
0.1465096019440447
0.130250884770007
0.11166844244611393
0.09653305765313913
0.09263148564075774
0.10233981624628082
0.1309066198612783
0.1702560523524861
0.20712606308870454
0.25712805831196006
0.27868066287954524
0.2578901625205637
0.2174302887160457
0.24169871702989695
0.49525609193595155
0.7909744997132326
0.9051670900051207
0.9260913604134995
0.8772089522263604
0.6898514292588577
0.415329166899647
0.2236070297777637
0.16010884743374262
0.16083950858981394
0.18847537249088617
0.23684725195157907
0.26328181863127803
0.2617160698409278
0.2301828160573531
0.18009126898958072
0.1462543336336434
0.13034675646592647
0.13125486171304204
0.13945462641416664
0.1449387540062717
0.14276830877439084
0.13947589989421152
0.10293560372238122
0.06639530755055092
0.029855011378720625
-0.006685284793109675
0.03453319625003439
0.057538283525936505
0.07635185548942781
0.10557827150031078
0.13579090432792168
0.1638382511593197
0.18170421324765118
0.1793861247971252
0.15272573586029095
0.11455059708572345
0.07612132693822846
0.048019503519221796
0.03493752506598242
0.03008064115206073
0.03228804088831143
0.0425690990251424
0.06002853862476264
0.07890077192205938
0.10071498512433748
0.12357770310721519
0.14210822531764186
0.15282198707923378
0.15160246155082877
0.14364082164558475
0.13798764376320202
0.14131717264861215
0.16183155766328497
0.1932172856207512
0.23177693042074204
0.2602249765113781
0.26115727207523104
0.2328315521336397
0.21137372676825592
0.19975432613702737
0.22459329738642245
0.29054622132728314
0.42890590178186255
0.5944001365325271
0.7329605279893711
0.8078372989338845
0.8689454423181068
0.8387547211452442
0.7529607131591035
0.6262543283393937
0.3315174423330052
0.20038062893094274
0.1402055737318512
0.1306376493551707
0.14676432194078484
0.17242802878183716
0.20112196100756782
0.219116794245372
0.2188910488492714
0.20238351983421446
0.17578945746952224
0.15400909970399435
0.13985696994599098
0.13092510684327213
0.1258559520721948
0.12144219748439061
0.08897841296777587
0.05651462845116112
0.024050843934546373
-0.008412940582068373
0.033659270749982075
0.05704211791882039
0.07692531478665089
0.10684299283335566
0.1371353598051847
0.16474655448184158
0.18201743347433927
0.17944622976332694
0.1531475502231808
0.11545867553248315
0.07745697897294078
0.04935444694056471
0.03573247591692324
0.030503852531506153
0.03254794354628448
0.04281406338719181
0.06037521813510582
0.07952105135064615
0.1016076609364497
0.12460474144798533
0.14312659380392098
0.15359508594970936
0.15208964908448097
0.14386703376993362
0.13778518988281396
0.14017844266503532
0.15910693792516312
0.18879563067564673
0.22588767256802014
0.2544282915925454
0.25721244360807494
0.23218503645181
0.21429280970699602
0.2022238974298521
0.22439720429074347
0.28690227448371564
0.4227547061720968
0.5912495309028468
0.7331495230942937
0.8167338703564824
0.8733283559997952
0.842398842111743
0.7562509567092468
0.616304260157507
0.3257671617563413
0.1986948588864346
0.14098357063600725
0.1326649547112496
0.1498236280732821
0.17547753155614196
0.20311291108408105
0.21935270425581396
0.21738946163292217
0.2001156107984396
0.1739017457548051
0.15299988486798666
0.1397361790671415
0.13146385461552884
0.126514602237098
0.1221139683325039
0.08948814448254416
0.05686232063258442
0.024236496782624684
-0.008389327067335056
0.05696239564999336
0.09441433531216452
0.12540237677639354
0.15931887673540002
0.18087804546554911
0.19245593189516808
0.19103137675871296
0.17990758437993715
0.1616849759169007
0.13712655882896396
0.11103016903268043
0.08371075264045996
0.05721711441619997
0.04502729523546478
0.04970072531694059
0.06984447542103057
0.1010514555355239
0.1304450801183845
0.15277545544980625
0.16693498181526553
0.17250132206142446
0.17011365939010675
0.16068335676245454
0.14647857963242253
0.12939689004512417
0.10918290889139565
0.0915080915821985
0.08588357853245561
0.0951650556789917
0.1247140283361353
0.16620799095694042
0.20551895861431427
0.2577038806967374
0.28398974115545167
0.2652836676778732
0.21603162944684565
0.23284318778104854
0.49788143848108657
0.7941978618568954
0.9048537265477115
0.9255306691896652
0.8718842398321622
0.6724853726989927
0.4041175404145378
0.2193761376650621
0.15726082956632725
0.16249555282459885
0.1935130183359739
0.24479450947747927
0.2713483958440429
0.26718695076441457
0.23136988119657476
0.17692288478634047
0.14196942910579333
0.12697039975380592
0.12971741683405286
0.13971927578445426
0.1461283479170562
0.14419122459689396
0.14106249900496565
0.10418654630000156
0.06731059359503747
0.030434640890073375
-0.006441311814890716
0.02937720633821895
0.057485020410387756
0.08794141807150178
0.12342603870905404
0.15294803357177877
0.17514260946757992
0.18551371753487936
0.17990231563576442
0.15725755355036408
0.12489373438948247
0.09164233839749027
0.06368731630738063
0.04447128618385964
0.0357907146655919
0.03759960876607101
0.049855793157216687
0.07076332255978175
0.09357363398354837
0.11714738408361103
0.13908526583894204
0.1549590947601673
0.16140719540834092
0.15664514304337937
0.1457215686669608
0.13503061117882761
0.12767809610750183
0.13046457307641635
0.14304562178010277
0.16469683175765854
0.19215350001608486
0.21330365333939985
0.221643903001381
0.24090242547908117
0.23380447318179476
0.22807078472640274
0.24791043069394528
0.3423535837513911
0.5413320543847051
0.7527017504746898
0.8832118735329697
0.9108529702146847
0.8762306369277114
0.7644133377776214
0.5123845976983078
0.2695138757051638
0.1807648342645547
0.14974495677086436
0.15635175410469035
0.18628334996780072
0.21207923536036444
0.2272982002246246
0.22317988148583173
0.20090601147071066
0.17566543005085986
0.15385567388390028
0.14260687942286768
0.1389296383014713
0.13735757208023378
0.13366622376293572
0.12957329186203817
0.09520602396684313
0.0608387560716481
0.026471488176453062
-0.007895779718741974
0.029088852172002518
0.05572825225750564
0.08367358216994915
0.11812197515250097
0.14820418515885542
0.1720758299897599
0.18449837093587168
0.17980920559190694
0.15617512596455316
0.12228830190787944
0.08766609444001791
0.05964165956281593
0.0419684689198322
0.03416791572438919
0.03579276262637684
0.04711571510975279
0.06668097619877542
0.0883390660230786
0.11173569197397717
0.13441138238483144
0.1514868039656039
0.15930503522474454
0.15548827856425587
0.14530509743385045
0.1359149621514764
0.1312603270247947
0.13845433746887428
0.15563346354198568
0.1814502562332079
0.20941473707837968
0.22565042669515167
0.2251335520209888
0.23442544164277093
0.2238242527839901
0.22560884733899766
0.2584141739551307
0.3671614484208031
0.557672744066462
0.7437996136634542
0.8696599438028242
0.9023314970488467
0.8684763882016592
0.7682454958610148
0.5402764326540485
0.2841199364611747
0.18578153966175243
0.1472137679619125
0.14936038020044476
0.1754074480404263
0.20112019006533213
0.22001143303652307
0.22188254161459658
0.20562241059383182
0.18257351704470204
0.15946735956785488
0.14545575008457534
0.1390607253558144
0.1356703170205429
0.13162772391784147
0.12741696421144835
0.09354284285880968
0.059668721506171
0.025794600153532327
-0.008079521199106349
0.0855021816426988
0.1304343401315407
0.15930923609312725
0.1893462824406448
0.20142586487719766
0.20453414625170016
0.19469591114764498
0.17950807791036827
0.1634339073625259
0.14353596911705857
0.12179139073344715
0.09502737081198386
0.0646317148305882
0.05092744537316881
0.05834774431358399
0.08500375853189335
0.12423129238026875
0.15769915198117984
0.17786507392833842
0.18487540552361847
0.18182467251383644
0.17328874235640424
0.16149091906934676
0.14583525903184796
0.1252135304979222
0.09799700165917619
0.07001827391571783
0.061136703430700885
0.07368867741239885
0.10954405593496798
0.15762422919706753
0.20007643833589353
0.2533283837978929
0.29793530702389415
0.2990034009817888
0.2719364142221687
0.28956675463936454
0.5833487525255947
0.8205193630711135
0.897718495456014
0.9138181152633215
0.8290039706891916
0.5893911487652569
0.36324289867523846
0.20776044321658085
0.1462898077453284
0.16960776676637246
0.21611923358398408
0.28020295633372344
0.30727512836392545
0.29168675642578945
0.2367363593166897
0.16303300774693014
0.12399369291974509
0.1129651710804228
0.12370887929286015
0.14162999151988434
0.1515566837184389
0.15067942981773555
0.14842065031880428
0.110027308648782
0.07163396697875973
0.03324062530873746
-0.005152716361284809
0.14718655952280077
0.20776256722444458
0.2336547679941918
0.25426513768638964
0.24194142253212433
0.227125753489679
0.20121488496509268
0.1781770694307622
0.16469329295561608
0.15197173101040068
0.13698806297689742
0.11124498445583436
0.07540309382767812
0.05998110343276228
0.07298320813335522
0.11213106558888061
0.16564969160155382
0.20492242064414376
0.21949077734071354
0.21205941383493276
0.19284518605780854
0.17435068529272266
0.1600634391587998
0.14313653929432688
0.11765600417832575
0.08054863417549847
0.05347044228505699
0.05363106104469628
0.08005301779227994
0.12531548180815472
0.1613875124549994
0.1876833640933657
0.224840561721134
0.28762355119273225
0.3296806900612187
0.3735306420364405
0.44692859183626976
0.7028541265619553
0.829319577858948
0.8620682932138056
0.8579152288422446
0.7082995527349416
0.47251184671706664
0.31979453691666826
0.2037646435521729
0.13722629973020015
0.17926719743588113
0.25067645029685964
0.3324314259432996
0.3599908795275709
0.32787740617419625
0.24432002297362035
0.14387392517732317
0.10224441855954017
0.09680305082053081
0.11846812320954275
0.14734897707583608
0.16042711898568465
0.16131117342303675
0.1608870890007561
0.12005222500055292
0.07921736100034973
0.03838249700014655
-0.0024523670000566322
0.04802172200097984
0.08302281901817428
0.11471184838089543
0.14966177735825173
0.17385423151362026
0.18820919572396125
0.18970894958808546
0.17997783976002826
0.1608340090281385
0.13448616617077275
0.10673254022470051
0.0792309094951377
0.05431908067676257
0.042811166135506916
0.04661090903619846
0.06457711350015918
0.09301989307572225
0.12084720511085568
0.14373471622080314
0.16017816170247395
0.16861854123780612
0.16845949061806867
0.16004486105339366
0.14650677994827407
0.13084431289722398
0.11344683723300887
0.10016889503724956
0.09767381564168279
0.10796021152000339
0.13596175699503743
0.17364805060778005
0.20840889581598848
0.25638445979007873
0.2744555180166008
0.25295221737381096
0.2190832738498026
0.24989107492406382
0.49547273536061415
0.7881943486400277
0.9049701308778813
0.9260471695384102
0.8800886168567527
0.7016731119080869
0.4239241255084295
0.22708164613191056
0.1622191397080051
0.15964052370586787
0.18487278239984425
0.2311594282293664
0.2575098813458396
0.2578089550773017
0.22934226258098847
0.1823716680222001
0.14937447385544514
0.1328131877743313
0.13239511641199686
0.13929794609331952
0.14409041344098872
0.14175301699267817
0.1383499828505929
0.10204983700842574
0.06574969116625856
0.029449545324091386
-0.006850600518075789
0.04989646853421202
0.08542056523116896
0.11696648228736448
0.15171258553093886
0.1753679829168639
0.18913000402531374
0.18999728559528387
0.17996611326829215
0.16103018474653738
0.13507718105589728
0.10768846561647588
0.08022537682191737
0.054960338141928626
0.04329659417990222
0.047279853693327094
0.06571024245075038
0.09474586043057459
0.1229175143897777
0.14569504390589041
0.16165750961514183
0.16948638761174087
0.16884360071743149
0.1602008687569961
0.14651087497895843
0.13053266986419634
0.11250736202190063
0.0982440615190071
0.09498902419277092
0.10494214084595128
0.133227431932606
0.17180528717713658
0.2077172471543095
0.256811382904788
0.2767293260011104
0.25551752039291864
0.21814936225148718
0.24539575772114228
0.49515097035209854
0.7897188155472163
0.9051223114818544
0.9261171552813612
0.8786635789223222
0.6954997683037093
0.4193220033821075
0.22519814494218968
0.1610971761987401
0.1602753096615344
0.1867756073201505
0.23416391986947677
0.26055862669434693
0.25987190406693217
0.2297852116335751
0.18116568884987183
0.14772076032126033
0.13150513498045927
0.13178866353279647
0.13937738465924898
0.144538293911575
0.14228910495608701
0.13894383766829846
0.1025168213331839
0.06608980499806935
0.029662788662954798
-0.006764227672159756
0.02907405785914401
0.055752360045886455
0.08377655506167872
0.11826081468672832
0.1483315769159653
0.17215873657273875
0.1845259876715244
0.17981215126528183
0.1562057471204169
0.12236063698169361
0.08777585020223258
0.05975304271659069
0.04203701011670204
0.03421129925358662
0.03583889283988712
0.047183937700359904
0.06678221324850876
0.0884709358957877
0.11187474519088506
0.13453445336211955
0.15158133676256297
0.1593641181864489
0.1555215282063631
0.14531769927203045
0.13589173565757107
0.13116230044064003
0.1382335299182125
0.15528335177083813
0.18098204945007437
0.20893272591931217
0.2253065276125344
0.22504117802011284
0.23461585925231848
0.22408754863137728
0.22565843515088901
0.25811522963765454
0.3664944432367715
0.557236107967529
0.7440157925544781
0.8700854804596438
0.9025906547840608
0.86871693573969
0.7682114888719298
0.5394866147424715
0.28370196210592863
0.18564281481702236
0.14728299152808536
0.1495500374707081
0.1757014298483778
0.2014160389703845
0.22020770689200056
0.22191618461162677
0.20549320371698204
0.18238327272687752
0.15931230687925935
0.1453763887018725
0.13905603615477732
0.13571648665859934
0.13168358853864617
0.12747574451068575
0.09358807525616639
0.05970040600164703
0.025812736747127668
-0.008074932507391691
0.10685358283515188
0.15725748642253293
0.18485368251175885
0.2117176036090347
0.21585877139815376
0.21274942611464742