# vtk DataFile Version 3.0
vtk output
ASCII
DATASET POLYDATA
POINTS 5568 float
6.909839128155446 0.030906038838826595 -20.05271194221664
7.054955112407894 -0.001840090896732656 -19.36997503080847
7.197482461514171 -0.05704147416501544 -18.681160486278948
7.305212652218217 -0.11838615535584561 -18.00113881544696
7.354727325947758 -0.18047608295548323 -17.327023382344866
7.329685114352519 -0.23762200479042309 -16.644548427561777
7.2149548646899015 -0.2808802720967063 -15.960681357245992
7.0068697426181386 -0.3050004720806684 -15.294035069005696
6.702470770724589 -0.3065994001136325 -14.65487222880221
6.305152838761228 -0.28280287109603053 -14.052489279341167
5.823751371605878 -0.2312744239272545 -13.488578914308828
5.263429301116027 -0.14978311655981927 -12.958717703298726
4.631512834013622 -0.03931107718488598 -12.460728468465723
3.9324686862941367 0.09297080039145549 -11.98858100387583
3.174952592482862 0.23739866626425266 -11.536723622150241
2.3837662317542976 0.38129202678629814 -11.099187324589142
1.5927092084944015 0.5118289282727193 -10.665364965922999
0.8340939411847841 0.6213606144899325 -10.222676096788453
0.1329921549736448 0.7077915357406281 -9.760621086716975
-0.4958357012137087 0.7694024865985182 -9.273407221191677
-1.0457623476428126 0.8009248615693585 -8.75998666019038
-1.5174850951969767 0.7989049401400415 -8.220544393865378
-1.9142271328819271 0.7620940154346684 -7.6531894739793955
-2.235960549969143 0.6885599622686652 -7.058105708176805
-2.4823758709398462 0.5786212586262792 -6.438058003578043
-2.6555037196656697 0.44021292926968264 -5.792127113449777
-2.759736160534632 0.28763511906258526 -5.116096255076004
-2.801461829118765 0.13704081484037536 -4.412242450349859
-2.794481751410869 0.002825084374414505 -3.696728192160062
-2.7622060295278144 -0.1047160279904505 -2.979797355368194
-2.725298571272265 -0.16524099089306424 -2.2618505512415523
-2.6861213916335434 -0.16707515979178972 -1.5745988121773808
-2.650647007017644 -0.10510081194992621 -0.9194290352892867
-2.6314074372590133 0.03429655839888335 -0.2915703264182017
-2.634337497829862 0.2688042893850512 0.30966305444164044
-2.6615828240766786 0.5883299377503666 0.8458847658569499
-2.702604633328712 0.9388827171998841 1.2570106837723691
-2.7483194635604873 1.3036934630976404 1.6011428835131145
-2.802410296537466 1.6645971665788086 1.9133035741603426
-2.866479040142376 1.9778884834121593 2.207030705203453
-2.9291623721669358 2.190495733794357 2.460890418935036
-2.9720398079258463 2.2998430266344485 2.6685960336691386
-3.001596851457798 2.3307147881043786 2.87101053946783
-3.0245758751948166 2.252552603632086 3.09754936412058
-3.044715798695053 2.0397161013144354 3.3285784570579775
-3.0421865790635256 1.6809393636616217 3.5572593927038296
-3.0027900427302887 1.120513524540145 3.7677177309684997
-2.893443953762378 0.45387164688800297 3.923881288336902
-2.705447745928806 -0.2362415814065275 4.05774245436789
-2.416178926831481 -0.9327355064021657 4.181739636175685
-2.005476042308601 -1.5832567434829667 4.316011940753543
-1.4675084759296704 -2.1365630348902496 4.49166962768154
-0.8218129773068324 -2.5529115968351355 4.741416012863797
-0.09698816852648973 -2.818135042962158 5.078643963177109
0.6663999211150333 -2.9331163827079973 5.489512116706274
1.443847717948044 -2.9271477707278954 5.935233766425977
2.2395296858941203 -2.8201307403096796 6.3788154470549925
3.055570486054336 -2.613678376203873 6.781999962048526
3.8893287527836744 -2.3048828956757395 7.106548118871186
4.715156087110238 -1.90869643504073 7.321432632545772
5.511233232549462 -1.4423922716628372 7.425284441136961
6.263372640975287 -0.9262303123104461 7.423013182250649
6.953931455174075 -0.3864272352139777 7.33313323851826
7.550363743218314 0.15102059218881825 7.185540403636529
6.985616532717487 -0.22432163773896086 -19.855884907173305
6.9915947336105635 -0.23849113209654024 -19.09409846655479
7.020684140537304 -0.2680509818803216 -18.338925647527102
7.051336096088875 -0.3003123026893698 -17.650000214285253
7.063575439798561 -0.31710832854271626 -17.021849526776975
7.049513938533872 -0.3104527330804557 -16.424440120386706
6.998155115085553 -0.2771205579639517 -15.827789421466441
6.886558393387353 -0.22227305487165333 -15.222890865322997
6.6894687126266685 -0.15506061387262043 -14.61624802293551
6.392404810813402 -0.08230933922451443 -14.024972723531015
5.99471477958395 -0.001810409175088637 -13.459482662306653
5.491869519871394 0.09551787222849044 -12.921918090525141
4.884144098015321 0.2184488772820146 -12.41767458800025
4.182520759898699 0.36769397027535 -11.942979757864654
3.416198637698742 0.5295974071742473 -11.495166788655743
2.6260845716658334 0.6786974451280651 -11.073718545311378
1.8480117671604548 0.7944133035004648 -10.664610487821175
1.1109119484978378 0.865914902153091 -10.253194458207437
0.4328008698752416 0.8912501095061726 -9.831045111537234
-0.18201836877144884 0.870792951094274 -9.394288380394366
-0.7348871538265297 0.8077439083484624 -8.942096286247432
-1.2288022733539616 0.7102512584147067 -8.467629794977304
-1.6687229488068933 0.580903775330017 -7.958510718286044
-2.0569148243041706 0.4260697702583055 -7.401379518255948
-2.392951828510842 0.2595466310910822 -6.770260425526131
-2.6711326356290828 0.09156986407371145 -6.037206163855911
-2.880140786933376 -0.0664418290866346 -5.199009925873542
-3.002905749279412 -0.1941747627206643 -4.289860181928304
-3.0324724709970137 -0.27363757958758245 -3.377074381961279
-2.985500608551276 -0.3083231746015236 -2.534269879588261
-2.8883841420755414 -0.3146217748069698 -1.8007770350173262
-2.768314037339604 -0.287410059770693 -1.1457362819134373
-2.638668380910708 -0.21109854413417029 -0.5478503870116662
-2.5114292187220135 -0.0700484602008006 0.015949264080382664
-2.41534419727164 0.15899589512009 0.5841193505896477
-2.3773652999891066 0.46550713534355304 1.1460234169510222
-2.4174265251964715 0.8220028135940349 1.6142887628430316
-2.503576871828842 1.2132017247788678 1.986697780230411
-2.6103699776582827 1.603483195657127 2.295140556615315
-2.71225478494633 1.9168218117770386 2.549092123535239
-2.795493983047357 2.1162901290163436 2.7489977012245803
-2.853611448790697 2.210682934927888 2.9096805593659454
-2.8942857481481625 2.222735600990765 3.0604684575675343
-2.928935240871252 2.1095685963738324 3.2344243859384463
-2.9407579015293694 1.858407266109304 3.390033351769959
-2.9049576087039277 1.4922919561585146 3.5494816805966276
-2.802269462834114 0.9610332458969629 3.723955859220237
-2.6349366876496405 0.32972447090369317 3.8885837441540954
-2.4164668226677133 -0.3346678610817573 4.051381701610827
-2.1256583752195266 -1.0074288764508001 4.199389676467576
-1.741171210883829 -1.6288637777882564 4.3548913466621535
-1.2346330990640693 -2.149386932991873 4.566460366406947
-0.659739538873459 -2.4993064027845193 4.861539231228381
-0.042498484187652896 -2.7277323600861556 5.223179599990776
0.6202352129571118 -2.845951030401824 5.628187737283301
1.323451354354337 -2.856222633766131 6.0495102340539
2.0623785962624357 -2.775020381485127 6.456080308282105
2.849745394812468 -2.6045759514901823 6.825157386333712
3.6886380022631977 -2.326195416168942 7.140149423313059
4.544003819939561 -1.9591100946833087 7.366318856918869
5.388572462333267 -1.5227654958526382 7.496775952876598
6.195622662694186 -1.036008372056259 7.535748989825506
6.940722761125784 -0.5217783524185692 7.502350939003851
7.587946889755632 -0.00621364888096354 7.411810503869412
6.9649817450855736 -0.1548211192874808 -19.909482468238004
7.009889104417091 -0.17413942145291883 -19.17260133048229
7.070499017328087 -0.21076507737871691 -18.437852554654025
7.122056721013988 -0.25088508139842314 -17.752330064087552
7.14415536233685 -0.2796604997510993 -17.11228033432413
7.127250424394477 -0.289526470160166 -16.492844833228457
7.059611070710335 -0.27596745903509395 -15.874320147434773
6.923213562598071 -0.24174780708368981 -15.254756405239226
6.698480103010222 -0.1927253824617675 -14.641045906151177
6.375448918522865 -0.13301328374555652 -14.047814303767327
5.95587336035368 -0.06028020013360193 -13.483241069520393
5.437802045887863 0.032771216161002495 -12.947926269706961
4.82357741460471 0.1523195989138394 -12.445416718107472
4.122681069169527 0.296928407061573 -11.97143281690444
3.3587925102449256 0.45405120414865074 -11.522530869422319
2.568406115376258 0.6017342524987326 -11.096725236975926
1.786839712341135 0.7214443861790137 -10.680958473720464
1.0440466299963247 0.8031295206103684 -10.26120278116181
0.36008781190869243 0.8447550065886946 -9.828584492502815
-0.25778163677991717 0.8461918347351434 -9.378866135248174
-0.808759236381351 0.8085145992093498 -8.91123361376087
-1.295437680617366 0.7368749560270675 -8.420580738596401
-1.7224203088237604 0.6329176749085342 -7.897179761724828
-2.0914309490324317 0.5007432504690787 -7.331054106740697
-2.4019430878102828 0.3502794338190124 -6.703815659706391
-2.6499009003327636 0.19077844898548246 -5.995653374383185
-2.8282668650967038 0.034116104906402045 -5.204044506186319
-2.9271052420652954 -0.1007102663092975 -4.354241555152209
-2.9458931738894343 -0.1965140211849399 -3.498465133929523
-2.90314725244536 -0.25215640088326413 -2.6918448822500687
-2.8226711521762056 -0.27333293032818967 -1.963471918755841
-2.724536156866731 -0.2539706695120579 -1.3008766423722278
-2.6201669100696896 -0.1816428167491309 -0.6892354036471994
-2.521825370231025 -0.041485309157369754 -0.11036505920444561
-2.4524863499344023 0.18845015225216485 0.4652385404832381
-2.432459478441129 0.49818186171195555 1.0194442973733695
-2.472792684349601 0.8530284736762541 1.4716897091832375
-2.547590404239121 1.236783833810414 1.836127292670582
-2.63963917933467 1.6185250289657487 2.1453032123663953
-2.731258087816132 1.9314138628918998 2.4095488516511545
-2.8091053685513776 2.134116711369995 2.623256050936775
-2.8633827739422286 2.2323160617782998 2.7958736234088417
-2.9013953288688845 2.2490217099806027 2.959640320949972
-2.932843523044486 2.1455084118396175 3.146175855077687
[...]
CELL_DATA 87
SCALARS quad_param_group int 1
LOOKUP_TABLE default
3
1
3
3
2
2
3
3
3
2
2
2
2
2
2
0
0
3
3
3
1
1
3
1
1
0
0
1
3
3
1
3
1
3
1
0
1
1
1
2
0
1
3
1
3
2
2
3
3
3
1
2
3
3
3
1
1
2
2
3
0
0
0
0
3
3
1
1
3
2
3
3
0
0
3
2
2
3
2
0
0
0
0
0
2
1
1
SCALARS single_component_feature float 1
LOOKUP_TABLE default
0.013779557904435434
-0.028241731981941468
-0.016799001819356497
-0.031084714225624734
-0.00872532511417103
0.0008294003700374496
0.043889179726986596
0.03371408831621924
0.020763896309440692
-0.008280364718563863
-0.037961887732930945
-0.008553805165344458
-0.04717223908484931
-0.027200609484983825
-0.0023477560022097943
-0.0018304332547604734
-0.006657343961854165
0.026937617534942237
0.00682088673973253
0.008139392804114468
-0.0012128766981424899
0.021189984677732605
0.014598652215568619
-0.04602533149938426
0.020228737834372963
-0.012028842571813143
-0.029585684927529006
0.07641252142978855
0.019203938534547618
0.005562175142781799
0.0010357951058788464
0.02108221898618317
-0.006357577226623133
-0.01288211963149264
-0.019910382202080808
0.0013887198116689578
0.04780409749977406
-0.0025347044005166706
0.018866438960937787
-0.03173176266478253
-0.05462931437766321
0.002257399148469272
-0.04914118533770182
-0.006848625798995596
-0.0038899018469982054
0.09818444191170453
0.10270099298856135
0.020300478445454427
0.013466717277547828
-0.008158444367288699
-0.02679876911096318
0.01449283211517903
-0.027358625596884813
0.009252629957228024
-0.009963734571754848
-0.0072535356845441
-0.016913167935133797
-0.0025777227517043977
-0.003706967142915845
0.002678378990478675
0.029372438889876673
-0.018343679145285827
0.020277217642101386
0.023152033936269106
0.01789627700062179
-0.03253040801146544
-0.017345728116305463
-0.03927397875398476
0.017972845812577916
0.06474852919590669
0.0403236673951566
0.006987163818710032
-0.039371936985197226
0.02548398796010347
0.020970388355300303
-0.0330845231238781
0.014223353181586896
-0.020546321130160854
0.027625170188163364
-0.0761325507413852
-0.06760850441483711
0.014263666616350628
-0.07326961835850901
-0.01217956466179344
0.009550953955854933
0.027876107107991703
0.007746330537967888
POINT_DATA 5568
SCALARS single_curvature float 1
LOOKUP_TABLE default
0.06008775749402703
0.0994493964145441
0.13411193481708644
0.16499012990478645
0.1836606229280942
0.19211623577571366
0.18786049539788327
0.17365583955194827
0.15150578481785895
0.12453181226149247
0.09787557393954095
0.07215687256311576
0.04847068476240401
0.03716871979353008
0.04030964388606283
0.05815597989735608
0.08851343418026765
0.11907634971422844
0.14492018433456255
0.16519534349635018
0.17799469574874408
0.1813519784704708
0.1745141603634526
0.15860115879633493
0.13587828944044475
0.10980236793382447
0.0953011804349172
0.09531299915419761
0.10899777079390009
0.14117777278213614
0.17802148250251856
0.21543270878920032
0.2648090502593849
0.27228972896760495
0.24037217988393658
0.20605475257856695
0.2330741671282661
0.4513582623250305
0.722555888152534
0.8599497619282596
0.889035609131987
0.8411981324710223
0.6836090034540672
0.43904157721050496
0.25763526298892625
0.18591122329647877
0.1750062304530852
0.19039483104205587
0.22408772965686374
0.24770410110728852
0.2492418493716494
0.22394155556452075
0.18413492598875666
0.15112055045206096
0.13347604630292875
0.13482001627038342
0.14419935312672966
0.15090694006568764
0.14950402632366663
0.14477343748916738
0.10634962023302692
0.06792580297688647
0.029501985720746013
-0.008921831535394442
0.03009131911819198
0.055241073570341165
0.07463962285006916
0.11048113443737832
0.14533164242782992
0.17369418897594446
0.19149043243114194
0.19505724184504974
0.18289255620334668
0.1559444500741171
0.12364470842467913
0.09160270032002733
0.06495949586305243
0.05468663036431576
0.06101164327145255
0.07930037741605378
0.10250532469795835
0.12173442762615876
0.13604111915989672
0.14408085720294422
0.1481012568066549
0.1479135498992107
0.14103730556445077
0.13313582263316195
0.1269696198230969
0.12325384279604648
0.12398827712650227
0.12330717703447035
0.13102533919467094
0.14911918087532816
0.1737815172110191
0.2001801119522382
0.24895783233871127
0.28524424792559905
0.2835687822356823
0.2570340374241733
0.2940040759916272
0.5901322545030091
0.8977770288521537
0.9616031500885843
0.9704716152722415
0.938406221846053
0.7291053083567007
0.3983643398214999
0.1753520231690232
0.11805144565844367
0.12540072916386424
0.16795211719093164
0.2387659020201954
0.2696342196069562
0.26993270280916043
0.24007624455351856
0.18202104283605203
0.15146647412946454
0.1367630528314954
0.13011347926629116
0.12960784535368547
0.12927191337055582
0.12469925394692302
0.12348701331277817
0.091741348806538
0.059995684300297836
0.028250019794057668
-0.0034956447121824996
0.033006180554411804
0.0613884636476455
0.08640413285148937
0.12480343592387862
0.1563168015765735
0.17963453168297136
0.19083225640465593
0.18860324540837628
0.17333132273531482
0.14662585862112118
0.11624917547674771
0.08615799464213932
0.0603649534804782
0.04948116946467828
0.05446784232077692
0.0722435466159348
0.09729783186327318
0.12017375820456912
0.1384109179698509
0.1502777442093872
0.1558423270263228
0.15505801925704601
0.14714909959739758
0.13705598287169465
0.1280668355344521
0.11992119113901167
0.11413187726095517
0.11196927518558036
0.12030167169984815
0.1422935287736294
0.1734686969478192
0.20288276188724105
0.25013421653221374
0.2783940972231355
0.2689545503847368
0.24097235602175435
0.2784622720848544
0.5518101733274818
0.8572993211906218
0.9435387383598212
0.9565794792288816
0.9188810387545908
0.7246626382747411
0.41111495027534734
0.195195740176391
0.1356971455178205
0.13913613136497263
0.17419662044225004
0.2344333765901451
0.26363041088298056
0.2642860578977295
0.23542464142210762
0.18256124211568794
0.15097542946220172
0.13531430714787446
0.13107692509267566
0.1334126416995023
0.13504866319942668
0.13135526991973978
0.12929428535533918
0.0957735904507976
0.062252895546256015
0.02873220064171443
-0.004788494262827153
0.03074060646646423
0.0554129332673377
0.07345707752038264
0.1076400186814715
0.1429194743833554
0.17224446825174936
0.19162886963650858
0.19673464249492015
0.18537951313912054
0.1583416626533497
0.12552144968252374
0.09296934556608968
0.066111422457519
0.05602083135396131
0.06272634589412346
0.08118673799019024
0.10394849791719697
0.12222049987314361
0.13547310306433305
0.1425203249084431
0.14624702579540727
0.14633233015701447
0.1397852386968619
0.1324063797626121
0.12676387442652937
0.12398892726663828
0.12650388486668918
0.1264260284134693
0.13411329364265698
0.15125900782586038
0.1741011928409795
0.1997276641618883
0.24897403765655052
0.28721774347269013
0.2873862525278048
0.261228050467504
0.29775996352021955
0.5996694924371576
0.906687534765367
0.965230693988351
0.973235323685417
0.9425908863067298
0.7292345377946867
0.39522851195849845
0.17105570569688516
0.11394423582309941
0.12199548481802684
0.16639169594296097
0.2398778087624171
0.27112028670814997
0.2713329180778493
0.24126503426300563
0.18190182088326892
0.15164886912206205
0.13719697766467318
0.12991459045706485
0.12868396436063184
0.1278532167916358
0.12306282020453484
0.12204957776949046
0.0907390928848628
0.05942860800023514
0.028118123115607477
-0.0031923617690201855
0.03884154835006817
0.07013778223022045
0.09878595487345362
0.13599880658454327
0.16434243446925173
0.18359635848066672
0.19024145236338705
0.1843357636351159
0.167033722470139
0.14038373099232912
0.11119222809773649
0.08237617637485017
0.057166393226663954
0.045982308143693904
0.050225959007072454
0.06781988469621365
0.09423657996249432
0.11946234571470908
0.14014114653647616
0.15451035296959237
0.1615365373387275
0.16092646675320318
0.15265342876285878
0.1409654244642389
0.12924924999761928
0.11727514886530728
0.10776342654987488
0.10544126323481892
0.11467524129642138
0.1394602544011353
0.17409439079618375
0.20556057623091292
0.25227967071414664
0.27481725861862133
0.25962308990047706
0.23046926167381798
0.2670014827406074
0.524932982385234
0.824790308234082
0.9269100009146565
0.9435747439560961
0.9022031709814098
0.7177599162869642
0.41968475252697385
0.21093717568612907
0.14880848251069276
0.14877616120992984
0.1785523127272152
0.2315218325416518
0.2593920091851026
0.26029891581937736
0.23226412699197133
0.18297677077022614
0.15083338960944773
0.13456032255280315
0.13190706833925364
0.13617692179537846
0.1391826924061337
0.13610751261026696
0.1333999333520732
0.09860565267804623
0.06381137200401926
0.029017091329992292
-0.005777189344034678
0.04718954576880819
0.08204326212096714
0.11409914710418446
0.1489895636966668
0.17327650460919747
0.1877371136179103
0.18937342062515589
0.17958695800642432
0.16007475121780426
0.13336957839535518
0.10539244600313019
0.07797421363293791
0.05343211126166838
0.04205488022616359
0.045651805363353185
0.06322344975957016
0.09129825095574001
0.11902769917951762
0.14220528488831627
0.15928477650143236
0.1684565766108763
0.16884335133585376
0.16066597613511563
0.14710366062118457
0.13133210210468785
0.11398680018551369
0.10137545629872713
0.09965957617966693
0.11044468534997572
0.13850495453429418
0.17550535521914365
0.20940050594718232
0.25637139262156217
0.27223856183531275
0.2500234379465907
0.21907817298401927
0.2528795982113683
0.4934063928194433
0.7830023183422251
0.9023902623105112
0.9240018029248406
0.878994196419003
0.705758759963526
0.4288314545509437
0.23055602691030416
0.1645918928666525
0.1600513065573138
0.18363833020449696
0.22824038517182255
0.2543979085658195
0.2555888651822638
0.22864598226937183
0.18347796000067537
0.1508467819148086
0.13392854860811812
0.13304056736880393
0.13952838690763802
0.1441283614195087
0.14177547216088163
0.13824950398800107
0.10192752398678409
0.06560554398556712
0.02928356398435014
-0.007038416016866833
0.09291762686850821
0.14013844659740865
0.17347414495455687
0.19251792057451672
0.19861087155594628
0.1962203430906045
0.18268807214455407
0.1619187600265144
0.13533768112459638
0.10705907741289188
0.08212886847761881
0.059513943182150704
0.037830672993989456
0.028740130598738357
0.03260704474858376
0.051979401249532
0.08706369964402219
0.12107566358468311
0.1498943995190988
0.1754269911344769
0.19957027588632512
0.21829249888685143
0.2224944773349502
0.20409220143555656
0.15937903899758618
0.11189418526806343
0.0949936705699676
0.09869660694808652
0.12218551184078383
0.15602700974996409
0.18289533404326436
0.23073056877451836
0.2977585624625155
0.2958349097286018
0.2425189927790155
0.19616537174831736
0.1923002804904411
0.3586931958908591
0.5792440460076561
0.7225564640445626
0.7675016961540363
0.7284183149973547
0.6146359908165037
0.453123510751821
0.3167377029698543
0.23281924759962694
0.2078432954818705
0.20540612313460557
0.21576993398807348
0.2326883345672182
0.2348014070734054
0.21380845842516646
0.1853562562847169
0.1525259955149505
0.1338794221372103
0.1398950690760333
0.1555462599556492
0.16686717042894175
0.1674475120609429
0.15947296391924762
0.11605839049063633
0.07264381706202505
0.029229243633413754
-0.014185329795197515
0.08175731239434841
0.1267621878303841
0.16141249077079903
0.18476159620060142
0.19498964049672032
0.19577316991018515
0.1846991810498127
0.16558669914275675
0.1402296164029725
0.11247758859350393
0.0871588391479872
0.06362265071015309
0.04112913184702747
0.030925780070828433
0.03429257190279322
0.05306732999020934
0.08682846533262648
0.12021846628853883
0.14851509399693255
0.1726003636252016
0.19249865298799676
0.20463221455596226
0.20361986280314506
0.18531375387319132
0.14879229079456097
0.10772410444807674
0.09228172026562813
0.0952401205952266
0.11502829772915851
0.15058587382008246
0.18166872896280697
0.22556464103120272
0.2845803055439633
0.28328873836608914
0.23669608546338872
0.19497014085874442
0.20393995191463268
0.3888967645429009
0.6268941654033913
0.7741508473824382
0.8145148057076105
0.7696844439744863
0.6397094627204701
0.44972594814456146
0.297776381026747
0.2175332012538298
0.19708418701484684
0.20044902731113734
0.21837274017208522
0.23766068600462828
0.23961867758198413
0.21711477863758524
0.1850067089263403
0.15196205117488337
0.1335469800959052
0.13804749650116557
0.15164436924906022
0.161456048604896
0.16141061810142296
0.1546029386889774
0.11288755332935296
0.07117216796972853
0.029456782610104093
-0.012258602749520342
0.06754420902718171
0.10907830499726451
0.14421522111984691
0.172616776013195
0.18828574207049728
0.19382766294597262
0.18687041806818466
0.1706880246027576
0.1472942860226411
0.12009263436650071
0.09399754200143359
0.06910246005315585
0.045850124434930056
0.034782175944062216
0.037878550019639634
0.05599474202003635
0.0875751577786335
0.11935790454008849
0.14628652973636724
0.16804857862634784
0.18313604445151074
0.18896150083226765
0.18357665883230864
0.16659160661592773
0.13943901836996003
0.1081137943261354
0.09329124931458968
0.09441439660082608
0.1100242057885387
0.14402956695012487
0.1794177902172977
0.21892670231412864
0.2707986838290005
0.2744064006128166
0.23726004556033894
0.2006387093781891
0.22241061765276937
0.4291084534607083
0.6890385678160416
0.8325706006379339
0.86578706568531
0.817839799777748
0.6693280380320848
0.44345171163595654
0.27204527707502085
0.19720472892765414
0.18288247658373183
0.19396724572663876
0.2219917634875335
0.2441442492604007
0.24584610887851122
0.22149460143007235
0.18446439196443426
0.1513665265008571
0.13340383115294624
0.13588726296969994
0.1467749588983624
0.1545907851137264
0.15368047918287667
0.14825332482005676
0.10868305708940786
0.06911278935875895
0.02954252162811004
-0.01002774610253887
0.0392020643286443
0.0706641484303778
0.0994955271898077
0.13661664769609658
0.16477628125127963
0.18380392612071594
0.19020529862590368
0.18410740547127763
0.1666976931779357
0.14004799950339097
0.11091759537989294
0.08216933230965948
0.056991222761537105
0.04579405385946358
0.05000188659041672
0.06759018682069712
0.09408314088661039
0.11943246289897874
0.14023725692698194
0.15473895143992483
0.161854982679408
0.16127124640011653
0.15298892851855944
0.1412127883901748
0.12932788312888632
0.11712431186889032
0.10743471902743418
0.10512317575222335
0.11441788478965642
0.13935684564849316
0.17414598667475012
0.20572448151037365
0.25243191347264954
0.27465499829672185
0.25913829394753535
0.22991215412653812
0.26635693862467674
0.5234573207854921
0.8229169278183835
0.9258889520548519
0.9427691396522553
0.9012080242514936
0.7172911043910842
0.42013743793144737
0.2118324762388113
0.14953963189875558
0.1493048950808427
0.1787909043134907
0.2313650123823384
0.2591587525263422
0.26007927979169077
0.23209274104576214
0.1830000540224944
0.15082988889146803
0.13452481550990944
0.13195628886463245
0.1363311083068102
0.13941179191241332
0.13637052319737142
0.1336261259396958
0.09876117809922483
0.06389623025875385
0.029031282418282872
-0.005833665422188106
0.033823889843781214
0.05818686110253822
0.07325307833760002
0.1028163496308094
0.13809778302481288
0.16896347674903767
0.19193566354675332
0.20091283694598475
0.19157015093045915
0.1642687086491908
0.13012261248433177
0.09629606919874335
0.06891406378286398
0.05931062419142788
0.06700896773001147
0.08595102605074664
0.10766743187219767
0.12354961861055772
0.1341382007266833
0.1387327945765346
0.14188470613164872
0.14279374918597526
0.13713436233749368
0.13097196963857508
0.1263273419218899
0.12559986244799257
0.13260350624355025
0.1343522859526158
0.14216239155919952
0.15705851641007945
0.17527773269827776
0.19901001954945224
0.24946938583508743
0.29236199343093167
0.29683282514823717
0.27169832047826575
0.3067105264198933
0.6227072213640361
0.9262314400991395
0.9728046216521096
0.9789847682120957
0.9517461367838695
0.7279830615412921
0.38796316013197985
0.16200917870996473
0.10466357072968692
0.11381673952106824
0.16261159079541732
0.24262240747280112
0.274697370706849
0.2747132262685493
0.24419862369576464
0.18164950708904026
0.1522028977094299
0.13837586956562628
0.12950269232397518
0.12648565474620174
0.12445100064893519
0.11913703093747598
0.11858633093569564
0.08831839683968752
0.05805046274367941
0.027782528647671292
-0.002485405448336822
0.0389801403923757
0.07034027655584542
0.0990593195218831
0.13623704509667323
0.16450983041365014
0.18367652336714307
0.1902275630366992
0.1842476537748263
0.1669040548404605
0.14025421194691257
0.11108631342282574
0.08229642333088794
0.05709885570950271
0.045909682367421524
0.050139461553988386
0.06773116473470875
0.09417724260021548
0.11945071263037732
0.14017818910734814
0.1545985359849072
0.1616592377817043
0.1610590991549325
0.1527823391474043
0.14106035833993236
0.12927937369402057
0.11721705308104398
0.10763639990766057
0.1053181051738486
0.11457535826317168
0.1394197205273854
0.17411408914480606
0.20562356839274626
0.2523379242859988
0.27475425494865785
0.2594358172942602
0.23025422816174929
0.2667531881969039
0.5243640782359279
0.8240691061723081
0.9265177614927849
0.9432653657434064
0.9018205368280733
0.7175802756963633
0.41985952929108766
0.21128201093285695
0.14909024573828042
0.1489800105386434
0.17864430231060963
0.2314613369900853
0.25930208923177206
0.26021424993547654
0.2321980283951782
0.1829857431013615
0.15083198944546117
0.13454656281542882
0.13192599933845997
0.13623633408323718
0.13927098902156332
0.1362088835494097
0.13348712676555152
0.09866561157496978
0.06384409638438804
0.029022581193806296
-0.005798933996775446
0.04073371742799985
0.06703130924475867
0.07926168933614594
0.10213330122525052
0.13481533765971582
0.16551168535456204
0.19231286335645
0.20677095924474023
0.20022639775391035
0.17247581103987322
0.1364143106925007
0.1007940550829774
0.07270164320734457
0.06384686615100209
0.07302182023101123
0.092738996886617
0.11310952920478996
0.12564322801163025
0.13243893162894585
0.13367067318701098
0.1363245620140932
0.13862410359974603
0.1343103792046429
0.12965279822812215
0.1258029223326214
0.12737588906309774
0.14067874808826414
0.14560352299190968
0.15399940226548825
0.1659951280553499
0.17770103783729588
0.19888109225034944
0.2510350928543306
0.2999276970102343
0.30978065351233064
0.2863906066429185
0.3184449937461061
0.6533138948554551
0.9478893106142607
0.9806783625643837
0.9849463868845886
0.9621011426306116
0.7229903042012539
0.3794939776990893
0.1534288030186956
0.09411062537860157
0.10313719512461057
0.1575679244753429
0.24641250067396903
0.2794306569280436
0.27922277564490444
0.2482648615168426
0.18141888545456322
0.15322505664567157
0.14025563462348434
0.12910935713936375
0.12362491064405573
0.11996465380239119
0.1139601711984247
0.11398866129065004
0.0850934671193216
0.056198272947993164
0.027303078776664727
-0.0015921153946637095
0.029966802305217633
0.05533286490307754
0.07523806855856446
0.11161811216904584
0.14626039850952877
0.17423257355678842
0.19143761522910632
0.1944503037296378
0.1819926735498973
0.15507454256708827
0.12296124266369098
0.09110354277818887
0.06453865561802447
0.05420194810620949
0.060392204296877396
0.0786223166573037
0.10199120791705184
0.12156601423488686
0.13625139025130845
0.144650926728517
0.14878749937010355
0.14851094883716115
0.14152050619536932
0.13342507768521075
0.12705005075654746
0.12297486078751498
0.12307045851758912
0.1221915784684631
0.12993314690213986
0.14837657205921012
0.17368903049386397
0.20036827852900807
0.24898111836145237
0.2845462561447611
0.2821864653152836
0.2555181691264152
0.2926193502232903
0.5866397454742819
0.8943951898147147
0.9601955513233323
0.9693971223351857
0.9368113019266537
0.7289616764186309
0.3995234867235757
0.17699750027689826
0.11958872099884077
0.12664967039139644
0.1685228967091689
0.238362144895131
0.2690892073200215
0.26941958400485616
0.2396442877860157
0.18206651245683797
0.15140607479256302
0.13661173533294238
0.13019042264924768
0.12994835102493402
0.12979317085891004
0.12530037862505458
0.12401410168946157
0.09210847355980745
0.06020284543015332
0.028297217300499194
-0.0036084108291549316
0.044283207733405994
0.0779622986562768
0.1090156939323651
0.14475129178958301
0.170405796686985
0.18643810752945236