# vtk DataFile Version 3.0
vtk output
ASCII
DATASET POLYDATA
POINTS 5568 float
6.690786925866551 -0.09678595589368408 -20.101270861224815
6.765337145652479 -0.05116596501118804 -19.35115484847965
6.890159655517147 -0.03556033316910588 -18.60291373040269
7.01020296718128 -0.04133395847233995 -17.892588723126707
7.092831252766165 -0.05889532163240865 -17.224217398686864
7.119598801905508 -0.07941807952872952 -16.585718056291093
7.079159722246333 -0.10140474933392546 -15.959490239745808
6.951269203863678 -0.11186948246184285 -15.323566497032619
6.713793838635614 -0.10436579434201548 -14.682684299474712
6.361468248934862 -0.07586462204090967 -14.059789852074971
5.9086146627007645 -0.023740561935483538 -13.470518013054662
5.366522954589802 0.04735861671886984 -12.916113246402842
4.736209862506004 0.1341618738890976 -12.39315365440479
4.024224886814122 0.2412679960195931 -11.907250711394695
3.252416131192736 0.3641512138109836 -11.456814038365382
2.4550486678869348 0.49161066060005276 -11.0276866470747
1.6681891618370104 0.6121760689049607 -10.599802973209536
0.9191266673950574 0.7182479344243826 -10.160426606022524
0.22289625576241534 0.8050807557108143 -9.702251823672057
-0.4163396847842874 0.8658757619471293 -9.218217092712678
-0.9956945240856274 0.8901407212938666 -8.703313276087778
-1.5112712034011608 0.8684933106982502 -8.158837083989386
-1.9605828302612047 0.7938302083546387 -7.590193024578679
-2.3403280034666265 0.6673934480880817 -7.004946541589913
-2.64910706676139 0.5020626101118728 -6.4018961383519395
-2.8850630407024873 0.31543260418301394 -5.771014876125988
-3.041428068182025 0.1302378523919571 -5.102451383232897
-3.108462786779764 -0.018788800507343217 -4.401884782733939
-3.083197009611149 -0.11010047679511362 -3.6973808992523742
-2.9791951906640897 -0.1500023948436482 -2.9942078065523843
-2.825590972955654 -0.14167788579562973 -2.2918982917536126
-2.6472446675674113 -0.09066122638002339 -1.626390634564428
-2.468301828311258 -0.00014775226217565718 -1.0089835211708889
-2.3171514878364 0.12923049353030253 -0.4347768654805063
-2.2180175994156555 0.31457701231162094 0.14627947284056841
-2.2142904515070563 0.594089075073213 0.7881288086065631
-2.340243745699362 0.9626391255708434 1.42430881941184
-2.564934881296631 1.3780175908548142 1.9996214566245865
-2.847653356026638 1.7846674700740415 2.46898055067982
-3.13434231653668 2.1164042024709397 2.8255308413402695
-3.3461677589880177 2.3155060566777665 3.0509473732215255
-3.451181036395864 2.392395069765305 3.17408374583964
-3.4881869604780045 2.406822390164385 3.2458537462254538
-3.4909371798882542 2.3684231765085744 3.3181953146818253
-3.4447274814245508 2.2536242296453466 3.405242081418646
-3.324338224650985 1.9945242842432427 3.553869443454286
-3.1333123454926026 1.4237500828328822 3.760038543784325
-2.857904406748216 0.6410597106832897 3.9270790869488956
-2.5250448598964508 -0.17970345724425574 4.076595458899851
-2.1485325084529783 -0.9695630139553371 4.205117377360369
-1.7156008905787816 -1.6487552561860759 4.3549782637384435
-1.1974861246651602 -2.1896800196486725 4.570101454258746
-0.6143061808193132 -2.5609905837854834 4.882307856955121
0.022176390342550145 -2.792332216267041 5.288531967306554
0.7019618323616617 -2.908021100854448 5.753788634996171
1.4217009922125223 -2.9289686046437815 6.2480873608702545
2.174671067768366 -2.862923338594881 6.7420382392336675
2.965429525510366 -2.6987114224083935 7.210658000372394
3.7859676455062052 -2.411598938880877 7.621073480025246
4.597385843087309 -2.0244402002262225 7.922225651204092
5.371838786311348 -1.5559681030012058 8.098251750993395
6.08793156857524 -1.0247931705813478 8.145513514933292
6.731873423479757 -0.46014208664317513 8.079706373719697
7.27145797824636 0.1122017677835222 7.921942161379249
7.115862910592486 -0.02010507584202502 -19.904153990051668
7.235302551417171 -0.09845797148548556 -19.226578202616988
7.328169985032595 -0.1899011695699227 -18.54418721586398
7.3837430845985175 -0.2747869021906154 -17.88005658021578
7.387342104650487 -0.3432874257175689 -17.226304996813198
7.329430612840181 -0.3898751065331393 -16.55936992764553
7.195586984642946 -0.4028104944263832 -15.883361416118195
6.984657139603024 -0.3897784269201073 -15.231368980584165
6.694645765592793 -0.3575617798410149 -14.614334927765961
6.323792905870571 -0.3087720028655621 -14.034793698676292
5.870735807651737 -0.2409980140408472 -13.48918776057021
5.330294878711442 -0.14280732952585168 -12.97293104459089
4.710510655986071 -0.007829769880885074 -12.489225025254147
4.018916091986082 0.15266792271419438 -12.025333113363779
3.2665059494965005 0.32304969011207574 -11.574455776201825
2.480323828403702 0.4821551125275396 -11.139789021966621
1.6936316290688604 0.6115491485520965 -10.715807088718703
0.940456545475249 0.7016054093780092 -10.28881208250676
0.24938774705085132 0.752300132515905 -9.847221181523679
-0.36278821928538096 0.7671500313349344 -9.387560889826196
-0.8913356382649992 0.7498857359587169 -8.91202417376986
-1.3419940611188728 0.7079117173525994 -8.415839268739852
-1.7233974278789175 0.6462558637918732 -7.885436380688267
-2.0394155460536068 0.5656317513958099 -7.306494036718524
-2.2897758853030874 0.46513998250979566 -6.6667956137827815
-2.473435164001508 0.34668303002380124 -5.958234723853394
-2.5942018054186478 0.21598545317350296 -5.1848680222513055
-2.659712036531962 0.07622599440608938 -4.365645624084013
-2.6875947678562295 -0.06281827003446128 -3.5322955076607148
-2.7037897557981743 -0.18383327176901165 -2.7296867949590133
-2.720399882396718 -0.2662027655474152 -1.9817267993723033
-2.7371153700752093 -0.29052272809908086 -1.2854889176840287
-2.752928141222026 -0.240462703546429 -0.6252810003115497
-2.7704515518131516 -0.0909594025190886 0.011803256825393738
-2.7933606586605624 0.17940176487003054 0.6125106664434863
-2.806083985660439 0.5202763072048536 1.0928575566044567
-2.797065205537955 0.8649443787655211 1.4030488514002357
-2.7632785283535894 1.2241685889520737 1.6398478062159063
-2.7120029043316025 1.5939334114699686 1.8739632404339897
-2.660792640243421 1.9219284673269694 2.129518877455046
-2.6337082024042684 2.158330886680759 2.3967060517293164
-2.6302469443883822 2.295399314224158 2.6659352406487096
-2.651913962818479 2.3285580703768214 2.9741037030983986
-2.7083049656448464 2.187132517070119 3.327636240520276
-2.808170699826287 1.8449039706138617 3.6632565994521777
-2.8975537027653524 1.3743562173553439 3.929800174292329
-2.9285180633345247 0.8247698467202168 4.127501006264422
-2.89143314823146 0.24848330275671437 4.28169139387682
-2.7777552010721602 -0.34304047107660596 4.420386783839888
-2.5458518889084347 -0.9622198902854718 4.553793860359944
-2.1661621855794575 -1.5752578063265168 4.688954244827933
-1.6314555975676543 -2.1189688454495457 4.856192836307466
-0.978706515064534 -2.5310540685528777 5.0858604550561735
-0.24708195007007483 -2.801504219545768 5.387006040738726
0.5233548626311871 -2.9185039720355617 5.755439196865435
1.3035101118232468 -2.9020798650075386 6.152699720178252
2.1013487130458257 -2.7793991979935315 6.539465796265173
2.9235314761746816 -2.561734226310412 6.876804292220181
3.7745215992789376 -2.2527160779806037 7.134546157978941
4.632096247408169 -1.8644099128015075 7.292651852072587
5.47479880439027 -1.4153336291327216 7.357405339746309
6.287309625594405 -0.9266150111404987 7.340844227910245
7.046195363610867 -0.41960353385054205 7.264795302071104
7.718462199609961 0.0815443803931053 7.1570177012557314
7.088542122980469 -0.02503356419016026 -19.91682322653074
7.205094197862003 -0.09566452546064065 -19.235456158488823
7.29987192754248 -0.18045167503987852 -18.549441597842833
7.359420857543566 -0.26036991635425744 -17.88282396172703
7.3680361125345675 -0.3255950906690923 -17.228532479087818
7.3157172596404205 -0.37044720770547174 -16.563792922251093
7.1881915222709125 -0.3839852045341486 -15.891376138755188
6.982814718352306 -0.3725069384806636 -15.240687339852178
6.696250580074846 -0.3418854017001654 -14.622278636758063
6.326604160032193 -0.29438155382929887 -14.040056969071834
5.87357476466503 -0.22759477896672092 -13.49172069320745
5.333065056222208 -0.13112550321179273 -12.973083285455957
4.712699719153009 0.0007835393470781438 -12.486958832630163
4.019898403798242 0.15786758024906428 -12.02172786411236
3.266318246458588 0.3251941349326115 -11.570921367550573
2.479450658798895 0.482261263513895 -11.13662828859027
1.692750387693934 0.6110876457185253 -10.712397122788209
0.9398508548695819 0.7021694108545405 -10.284614941946376
0.248490200369057 0.7551627470273866 -9.84199150187908
-0.36534766649287853 0.77289761174594 -9.380828580371102
-0.8970388658341552 0.7581962410377563 -8.902854977268909
-1.3517201592803338 0.7174571789633146 -8.403655877405626
-1.7373172782397228 0.654999169286173 -7.870860311385361
-2.0572403889909467 0.5715364952478387 -7.291648664021758
-2.311206071825254 0.4669443765337024 -6.654655645885008
-2.498207759154005 0.3440572690796547 -5.951652119765224
-2.6213522046579 0.20970614431233858 -5.1855648439942135
-2.686985419207908 0.06927007227250473 -4.374289219722922
-2.7111714091873345 -0.06648650474604254 -3.5496837016416865
-2.7191464721486933 -0.18186966832684504 -2.754482619766469
-2.7245684687027945 -0.2581272735331275 -2.011046274123621
-2.728684628651716 -0.27753146980688603 -1.3187215604170097
-2.7318530226103865 -0.22499740906652033 -0.663168390647839
-2.7381382591180774 -0.07715325871862849 -0.03163491237050731
-2.7529416439517043 0.1871971956528869 0.5669124128570556
-2.7646786589694794 0.524112973767132 1.056365472826941
-2.762597530317434 0.8695035897748642 1.3828286340251863
-2.741780618399219 1.2294000070978717 1.6349684041457913
-2.708330871005879 1.59719500202187 1.8788043483409642
-2.6764302554801014 1.920912490766841 2.136428806944827
-2.664669615788918 2.15167481827474 2.397265651913066
-2.670061732427089 2.2830908054635435 2.653121027869433
-2.694121807105647 2.3148111532632574 2.9403905341022556
[...]
CELL_DATA 87
SCALARS quad_param_group int 1
LOOKUP_TABLE default
3
1
3
3
2
2
3
3
3
2
2
2
2
2
2
0
0
3
3
3
1
1
3
1
1
0
0
1
3
3
1
3
1
3
1
0
1
1
1
2
0
1
3
1
3
2
2
3
3
3
1
2
3
3
3
1
1
2
2
3
0
0
0
0
3
3
1
1
3
2
3
3
0
0
3
2
2
3
2
0
0
0
0
0
2
1
1
SCALARS single_component_feature float 1
LOOKUP_TABLE default
-0.036512057362748644
0.02712194916497209
0.023032018800248164
-0.020177872720807927
-0.013878990417504315
0.002593311298224785
-0.02713056821551767
-0.036803052826395566
0.008568545390109617
-0.012720199314089835
-0.03507596960492874
0.038302127021164784
-0.01759678527455602
-0.049223706596035886
0.008669873533244362
0.02117523221862409
0.0384587923217959
0.012565424937374062
-0.005055409711879517
0.0014447276499680514
0.06026345957436353
0.034475619709181504
-0.003813180741553645
0.014011333899013871
0.018520145647377414
0.04675689140228747
-0.01828554683829197
-0.027494357349719917
-0.008720866775525955
0.00039450749722865636
0.016975286548827385
-0.008334452785609089
0.01867166751192102
-0.015793178856517487
-0.03987468695308211
0.014278957322220759
0.0020999432103856325
-0.039773384129312556
-0.01860552926939594
0.04525785952578038
0.012387098760902056
-0.0075642516516787675
-0.011667002325541742
0.005253441125631038
-0.01075962905993174
0.010632897093105163
-0.011856194940875996
0.024970368270777296
0.03372034735060238
0.007749819127880912
0.020265255879982423
-0.009191019079997682
-0.025840384547131875
0.020248848146713586
0.02021114734993837
0.0899420027950872
-0.03828966606918081
-0.004673455031801076
-0.029588709346690636
-0.025824426609171516
0.000988350521331366
-0.01101862265863246
-0.03846582577855807
-0.008330847903205048
0.009077648873660922
0.03568436344354457
0.04644783531955947
0.0053796196781556
-0.018018733314355162
-0.022987249553424675
0.0036442238599233914
0.015759122996940052
-0.021619052712830805
0.08088910382276315
0.03496132702748332
0.038292082053449784
0.010391201978913626
-0.013407408115192563
-0.024160307595839512
-0.011964921185532308
-0.03581689201745099
-0.0439890352184546
-0.020001268503945083
-0.057061525360899555
-0.004436591826487386
-0.016616222761642985
-0.022514740748733685
POINT_DATA 5568
SCALARS single_curvature float 1
LOOKUP_TABLE default
0.05474895434178124
0.0880292346307717
0.10558898926760557
0.14478150537019197
0.17968885710448387
0.19937139919546823
0.20233137221854605
0.18946648057494342
0.16531732062939422
0.137934260391356
0.1112131639841087
0.08382991191817393
0.05610643764750024
0.04046013776197577
0.038357546270315374
0.0522237222390846
0.08008623372478559
0.1058135241080117
0.12942446341607214
0.14919546917826268
0.16128537639750812
0.1662724349441142
0.16806686331479703
0.17308351349689038
0.18416254713438107
0.1889974163537873
0.17974749761838776
0.16105851360687293
0.1359840389516028
0.12440572351971328
0.14030939519170013
0.16863734716852177
0.20428315097951416
0.22511249364934754
0.23356838751989323
0.23363529721073054
0.2551034034479274
0.5301632925145784
0.9923491109498519
0.9998864467525205
0.9999467661858719
0.9998960311368829
0.9913451361512667
0.5249189948803655
0.1301755048801293
0.09746306505893143
0.10316098534054874
0.1447527602549189
0.2170678391266945
0.2641641956072942
0.2679029502018169
0.23031823828768397
0.17001938566677027
0.13215079653538625
0.12288932978185481
0.13256980283870715
0.15062884756230874
0.16917186358780537
0.17875375428287957
0.18814279526138783
0.14436880073452124
0.10059480620765465
0.056820811680788064
0.013046817153921475
0.06652324575938916
0.10203826535757517
0.12847494716066513
0.15324944527470763
0.16903382355836014
0.18003950655876014
0.18036419914622664
0.1729563108339973
0.15730340193207334
0.13111974513865943
0.10220630471519965
0.07513966157742645
0.05311801367074436
0.04628283083028872
0.05465283904168423
0.0746233007074728
0.10242571959554073
0.13087744785384342
0.154564275657997
0.1705925787668212
0.1769615205128744
0.17221175180272416
0.15547845934269935
0.1304238822068809
0.10030421351765183
0.0695884430035878
0.055312410434248574
0.06308865080624089
0.09336597269680534
0.14562873775194088
0.20160033436185895
0.2610843232404577
0.35918352128195385
0.39367627254561177
0.35192688549660806
0.3244160794197591
0.3258604926511506
0.4553690038177579
0.6367040607493827
0.734740352716859
0.7378051965787724
0.6623691083128466
0.5318409025582264
0.38309685544445865
0.28424553135415337
0.2395729230596864
0.2203471434582301
0.22761515321459885
0.2470781918499866
0.25126139421053006
0.2474753055641832
0.22689921175766717
0.19128463198462248
0.16314859325309478
0.14138487594618962
0.13211953527330048
0.12992921270507618
0.12466330119059084
0.11390346603770107
0.10135921601553531
0.07101899975299154
0.040678783490447776
0.010338567227904008
-0.02000164903463976
0.0621048655427297
0.097482892920008
0.12588358385368806
0.152350014822106
0.169487882853438
0.181083243852026
0.18170487068528
0.17401148913752834
0.15780187656454117
0.13154082996235314
0.10274219563850996
0.07557698876841601
0.053177464044328666
0.04560492773284509
0.053243765395568445
0.07286657592627774
0.10067232907391685
0.12898165608766973
0.1524804877132987
0.1685659768446764
0.17535702914751372
0.17144655654457916
0.156064440220048
0.13263661860835613
0.10438943834758567
0.07552728377519155
0.06121176385508542
0.06771585280077695
0.09553410308142606
0.1445184226970674
0.19794023379170064
0.25224865513877376
0.3391344786688368
0.36945522144001347
0.3266737600301083
0.29909042611011644
0.31170797616916324
0.45823735318792547
0.6541626309515295
0.7593438583785672
0.767344770634187
0.693036408380053
0.5523799948527295
0.38826306698539076
0.27689713799578175
0.22757329668612017
0.21011553202943886
0.21995548467930953
0.2436734570123985
0.25161652814413016
0.2487400203390483
0.22726354790379966
0.1902258809802822
0.16140110201381386
0.14032457693210695
0.13229739714820327
0.13136054888106796
0.12751176593858998
0.11796947212512425
0.1067146854159841
0.07549115298049257
0.04426762054500104
0.013044088109509508
-0.018179444325982022
0.047803024043184886
0.08161261617491519
0.10593254792031608
0.1453574471872618
0.17607503016016024
0.19368418455083394
0.19649704196102588
0.185234955128579
0.16321688284394384
0.13614165318614255
0.10878946668528294
0.08122107549654163
0.05468848869758363
0.04064529331635987
0.04100765806595555
0.05660100850105977
0.08468621200338217
0.11136150841620708
0.13451596412518718
0.15272623468870347
0.16343086554227632
0.166583996234602
0.16408891607579187
0.16048625818714018
0.15889124278817698
0.15387811771963986
0.1437050614424468
0.13319171831590254
0.12513116159385698
0.13165458460483986
0.15494732935746655
0.18252417686315828
0.219755591135534
0.23762953694916028
0.23852769152169323
0.22705731757137199
0.24433584941989922
0.5359680942276402
0.9337153543834085
0.9887811875233092
0.9935875869744587
0.987734276587399
0.8942076924885216
0.484579609725778
0.1767949362749343
0.1190386773181199
0.12442716102730726
0.1591835137187099
0.22040705253911613
0.25935177372217055
0.2625312640342369
0.22991699047553177
0.17639204339031822
0.14074087527464835
0.12796626624331534
0.13295229825393068
0.14574032205955267
0.15787462265867636
0.16201052429328627
0.16571531317378652
0.1252660732173667
0.08481683326094691
0.04436759330452711
0.003918353348107306
0.046336151003798676
0.08037018589653598
0.10733896177533096
0.1459651694453994
0.17486972753724198
0.19164090905970044
0.19427728130206132
0.18359758155130057
0.1624130270071893
0.13545639956218716
0.1078712964453449
0.08028255088569991
0.05433859350048688
0.041053426390757555
0.04241396680129378
0.05864180202186975
0.0866895791886899
0.11366114140723314
0.13670756103464213
0.1544253412031308
0.16459591364499476
0.16692228180583435
0.16269484265177014
0.1559363869323964
0.14980956486059066
0.14102770528576297
0.13023973747375717
0.12259822709806603
0.12067913148766442
0.13402812597928354
0.16118356920291127
0.18962308860534793
0.2283987684575416
0.2452069244659807
0.24046812259314526
0.22218442419318
0.24434513677766426
0.5271416297356983
0.8917170766247347
0.972039601910258
0.9823269855153907
0.9676311869978389
0.8349233466868546
0.46504143807135717
0.19399210919132942
0.13099021148329865
0.13422125414914018
0.16591610249950467
0.2224510353784025
0.2577694641703779
0.2604763631420155
0.22967060051602872
0.17869389573422403
0.1439636935947276
0.12987803516175253
0.13300411358403935
0.1437587665334759
0.15346521135236937
0.15553121550821025
0.1570002991925867
0.11786629999849363
0.07873230080440055
0.039598301610307474
0.00046430241621439605
0.047100930272818343
0.0817467734747069
0.11406336578595183
0.14832816477808475
0.1721473901716516
0.18665267723363466
0.1885676832990427
0.17931188669639378
0.1603320619811097
0.13368553232580632
0.10552368787459489
0.07801369772839938
0.05366684012968476
0.042691090607854955
0.04677181305470655
0.06457855664052148
0.09248701573929018
0.12010469827090897
0.14309932225350278
0.1598279925825611
0.16856408035324702
0.1684037131451253
0.15942007308805908
0.14482394184405425
0.12782688062226596
0.10953245462266704
0.09682075315498993
0.09604643091046129
0.10885591561567612
0.13921488664401147
0.1780120782373848
0.21325645039524435
0.26275899207933195
0.27970355577259864
0.25457374262860133
0.22302844939607008
0.25808025566927645
0.49026491921554316
0.768258106333067
0.8890132139495052
0.9107518785774937
0.8605450350099016
0.6856894802854945
0.4223789526128861
0.23483269187785327
0.16995581645456115
0.16422767423844367
0.186819747998151
0.2298985132264441
0.2543644703882747
0.2551685071096958
0.22879552330254962
0.18426786275588022
0.15208432839761524
0.1347176401051054
0.13289605763908652
0.13836760246008478
0.14186868242527023
0.13863037828802918
0.1342678554643347
0.09863515818415883
0.06300246090398295
0.02736976362380708
-0.008262933656368793
0.05029275633282677
0.08386599468894596
0.10524611787988195
0.14492124890400157
0.17752337542933622
0.1960343130534242
0.19896769197929898
0.187039308429337
0.16410846312075733
0.13690226177297568
0.10981417811354298
0.08230130351638923
0.05517048083701103
0.040379284332161244
0.039669782724331866
0.05454237041280584
0.08262132829315957
0.10892721279443361
0.1322479859355572
0.15107372604984726
0.16236581781049453
0.16635351633022505
0.1657189110350859
0.16570531308419795
0.1693441885688313
0.1685264708848285
0.15888039026323567
0.1450222030260863
0.12989832508349006
0.12875894789120496
0.14838572693382768
0.17585116197223294
0.21215589558980572
0.23133892729931738
0.23669402576431625
0.2314081315898154
0.247197939540767
0.5388558979724736
0.9683507874626935
0.9973632616377935
0.9986389444896969
0.9973291439329104
0.9495209585322625
0.5056952525872432
0.1571140857782129
0.1081620516775884
0.11466435492500342
0.1525185269944268
0.2186455839018678
0.26127629530659147
0.2648118057708577
0.23013037400306624
0.17374829675351589
0.1371211206829006
0.1258238853622701
0.13283363838162557
0.14786778627678737
0.1627118457381989
0.1691538332337994
0.17530550754680171
0.13342448636008797
0.09154346517337422
0.049662443986660476
0.00778142279994673
0.0549023067842521
0.08817407702303497
0.10561944804694842
0.14478618825733877
0.17976009768264492
0.19947805717906117
0.20243619881451155
0.1895415950648314
0.16535490530330677
0.13796635639324575
0.11125682543418554
0.0838785870809418
0.05614362644365397
0.04047368431342508
0.03832890366595214
0.05216324934710899
0.08001227045823396
0.10572005503581187
0.1293410329996304
0.14914338384223358
0.16125823898360434
0.16627401465077912
0.16814235160063243
0.17331867624498182
0.1846353456017177
0.1896444456354566
0.18040039988357032
0.16155538185561885
0.1361652557272451
0.12426302405860856
0.14007614751952677
0.1684446552134514
0.20407436403191476
0.2249502802196625
0.23345128577027408
0.23362894762833392
0.2553875756610181
0.5296852398439074
0.9927397448925231
0.9999001602393065
0.999953278961864
0.9999088172477575
0.9919860738126508
0.5251740993140551
0.1293461191922392
0.09720110149841345
0.10283368119222187
0.14453387213103758
0.21703329238002625
0.26425903122585087
0.2679989856201591
0.23032219178336955
0.16990089532752417
0.1319952936331988
0.12279763929588211
0.13255969897767034
0.15071234463545335
0.16937077940523776
0.1790504807553513
0.1885383734211461
0.14470645260941245
0.1008745317976788
0.05704261098594515
0.013210690174211503
0.049773481222794576
0.08464072544843736
0.11725574793559301
0.14940438735183678
0.17129604929358408
0.18495906414144164
0.18653435793626208
0.17775885242161724
0.1595859401988188
0.1330519611306777
0.10469399992688927
0.07725791199759217
0.05348885943083825
0.043453774700809994
0.048556113436852406
0.06690876170305243
0.09477432974434441
0.12259781625611453
0.14566894708061925
0.16214486400245293
0.1703365061705304
0.1691563335970321
0.15836142234436423
0.1410736272254518
0.12050645189477872
0.09894747456815373
0.08557060028186912
0.08707021270556345
0.1046824564841313
0.14081617222287235
0.18405176344070354
0.22363969086622237
0.2808319982646145
0.29995311006863146
0.26693205373734513
0.2356319083286087
0.2699551417500208
0.47804297346388197
0.7291951012422281
0.851181763590884
0.8719246499971431
0.8109854514997706
0.6406309634426244
0.41057394137249625
0.24807462794023927
0.18611039826876635
0.1766836655377883
0.19564783158151447
0.23338617704779646
0.2533923775926206
0.2532703356767429
0.2283978942581826
0.1861226162338419
0.15490291277762933
0.13640670487117998
0.13277259019911658
0.13634931827199087
0.13765815148481714
0.1325417248457758
0.12610531366900324
0.09175779749309367
0.05741028131718409
0.02306276514127452
-0.011284751034635054
0.046157660351605366
0.08023382178791667
0.10767795745141746
0.14609689099643527
0.17465849318851204
0.1912735703915412
0.19387097726940267
0.1832961710046346
0.16226558948813963
0.13533077720903267
0.10770352271515493
0.08011411828529681
0.0542809580309532
0.04114322690130432
0.042690075657444614
0.059032737874744175
0.08707149186197619
0.1140940284131671
0.1371254324566291
0.1547594610564314
0.1648312698316324
0.1669981332193158
0.16244697480766143
0.15511759255274365
0.1481791315779143
0.13870957654391192
0.12779713034866647
0.12066842448132588
0.11985055905843495
0.13443942316313806
0.16235201937319882
0.19104301852235667
0.23021012673737265
0.24685535665768146
0.24092152386880494
0.22133223879648092
0.24460268743727825
0.5249875020620095
0.8832395484948826
0.9679171915831031
0.9793409251920457
0.9625258059493209
0.8237241951277877
0.4615748608515354
0.19707025550711194
0.1333903693100728
0.13612331383016066
0.1672284562048765
0.22287439623304484
0.25749518625243956
0.26009968549849366
0.22961986890462419
0.17910738995532124
0.1445501219522991
0.13022638827857197
0.1330079475492594
0.1433889941872961
0.15265184638101104
0.15433930794535927
0.15539623243102152
0.11650585477538632
0.07761547711975111
0.03872509946411591
-0.00016527819151929135
0.05400354648365553
0.08732637563321127
0.10545469681343748
0.1447666544854493
0.17934094404932913
0.1988478443486845
0.20181445192277941
0.18909561866285463
0.16513190670153238
0.13777593088694573
0.11099791336679247
0.08359078605092578
0.05593167175266159
0.04040459611573546
0.038511130208081765
0.052533856539567374
0.08045537556684945
0.10627753113381254
0.12983977270445107
0.14945783169467733
0.16142483857557577
0.16626818717109418
0.1676966292959706
0.17192858247875006
0.18184087215522685
0.18581451950796038
0.1765297527960814
0.15860520605857797
0.13508262178978364
0.12510351795051736
0.14147684830283036
0.16961496932005343
0.20534196715178607
0.22593698752133332
0.2341266969307165
0.23359982142496413
0.2537150980547195
0.532365800556974
0.9901622185147164
0.9997925535905927
0.9999017598723429
0.999807518066321
0.9876548628859058
0.5232719736864626
0.1342805464771265
0.09881482967363758
0.10480173726205683
0.14585216209127072
0.21725090328747715
0.2637007640039327
0.2674290966914292
0.23029706143136006
0.17060171785062894
0.13291714872245505
0.12334130292115685
0.13261796933831016
0.1502148370858099
0.16818881293134522
0.17728832333563935
0.18618798622531482
0.14270058935636362
0.09921319248741242
0.05572579561846122
0.012238398749510021
0.07954534686616134
0.11541619973495942
0.13575440453993703
0.15580769306420805
0.16790234925125566
0.17729079537312784
0.17675856612568897
0.1700859304979052
0.15595512953529925
0.12998380077312527
0.10078207749881778
0.07402942364076959
0.05301688534945798
0.0482732662503553
0.05866622833514358
0.07956587542063308
0.10739368476956745
0.1362662783725929
0.16062897750273814
0.17660779606095417
0.1817520509150592
0.1745573586911676
0.15400470605209063
0.12480008919966186
0.09054667787210716
0.056470962498189
0.04332020665936209
0.05418577228894245
0.08989303112302044
0.1490783321770263
0.21083343470887655
0.2864761395671958
0.4200734623426553
0.4653320603326421
0.4301656468190729
0.39889915119499886
0.3613557021138053
0.44863081985314224
0.5938713534095834
0.671915150312698
0.6615957407774007
0.5864492748828971
0.4829627362419394
0.3703084922257164
0.3024810972969156
0.2721972876397954
0.24980693472504836
0.25039704344264735
0.25756918331958506
0.25061717134826117
0.2440525395361266
0.22580604730451442
0.19394525694042936
0.16770636093197167
0.14416665166525966
0.1315405903782079
0.12598593847975093
0.11694712614687158
0.10294421292954577
0.08711179201658369
0.05917682005845853
0.03124184810033337
0.0033068761422082177
-0.024628095815916948
0.04710369995440236
0.0810042487197191
0.1064180026790241
0.14558357979104516
0.17556926028762637
0.1928372826289857
0.1955852158115939
0.18456425219422806
0.16288700838408413
0.13586038318589524
0.10841199549567214
0.0808318285146117
0.05453700519930176
0.040795422254962244
0.04156378713923702
0.057419246936146695
0.08549214256054934
0.1122929393109019
0.13539789492450613
0.15339878330465134
0.1638850206700878
0.16670756335726616
0.16350812637863052
0.15860153687451298
0.15512516340390045
0.14856232116292903
0.13815108680579694
0.1288320808991253
0.12331913724286986
0.13265567894834657
0.15747584070122533
0.18530825397682815
0.22306761467761094
0.24047729105365534
0.23924551301000893
0.22507808748691965
0.24405252313936385
0.5329926324574642
0.9174911161775998
0.9830704224530266
0.9899197803665691
0.9810195110873231
0.870464752045018
0.47647843943426604
0.1839306471491794
0.12370518136157445
0.12832977408873503
0.16186113468497934
0.22119241722453437
0.2586847583706915
0.26168779077866916
0.229822061257809
0.17734623110775072
0.14206844058523801
0.12875324804115898
0.1329798851322279
0.14493429220109508
0.15607043393723347
0.15935574773306993
0.16214578752360873
0.12223356809455638
0.08232134866550403
0.04240912923645168
0.0024969098073993334
0.0620086615006735
0.09495705302703929
0.1078145475874869
0.14554319861383422
0.1830422142585658
0.20421291003059514
0.20693352432343273
0.19273561930679464
0.1669626226353463
0.1393396196512883
0.11313307886053148
0.08602292202689113
0.05841164525407509
0.04189351195193198
0.03800833552385664
0.05045109197472216
0.07711695410588716
0.10190267093817687
0.1259979452682846
0.14724390926363473
0.16044192839077637
0.16655960849997964
0.17150604798845925
0.18372131998561528
0.20555997226439005
0.21787105684950772
0.2084889765060907
0.18261198493765524
0.1434070202954363
0.11781667733659949
0.1312662031295845
0.1618483452193734
0.19675259609589252
0.21931022516818766
0.22717433089619748
0.2293729635718472
0.26625096879620436
0.5068206232973508
0.9994111808622033
0.9999999807763211
0.9999999907174871
0.9999999824810468
0.9999797543606036
0.5000783651327324
0.09604940823078789
0.08933616414339382
0.09042404997217149
0.1363933077418075
0.2163493696941825
0.2685930115554771
0.2720980337952465
0.23038327688825425
0.16469652138949778
0.12530239290342773
0.11885751743968914
0.13202011522206147
0.15414654082643925
0.17776236551847327
0.19163245664519704
0.20522490245942354
0.15896998371149626
0.11271506496356898
0.0664601462156417
0.020205227467714415
0.049832878876711666
0.08470383589306676
0.11731222857213935
0.14942345366030232
0.1712821756368557
0.18493083495910634