# vtk DataFile Version 3.0
vtk output
ASCII
DATASET POLYDATA
POINTS 5568 float
7.06909617298546 0.06736277795641304 -19.903231943384295
7.225116128005153 0.005947133482893122 -19.224606414473676
7.362028901293774 -0.07744754471889655 -18.52809646719917
7.44657672247088 -0.15622631200129217 -17.829822757201157
7.457265700724284 -0.22666324888952427 -17.13929076388694
7.387858969608401 -0.2861969140102424 -16.453005433311326
7.232308479138985 -0.3315760861725915 -15.784283520600233
6.993283065475614 -0.36153194895608903 -15.156774442199884
6.676175788483503 -0.37451310603097476 -14.578986299406719
6.289931123321036 -0.36803846609932744 -14.04428150046787
5.840990406177466 -0.3377671690323916 -13.536949058840984
5.327139723651209 -0.2772637565895727 -13.043375276506527
4.746200641565876 -0.1832753778264561 -12.560031869150308
4.090921540037161 -0.06176183197056467 -12.084605983509512
3.3542885597068235 0.07804319753509242 -11.619305436275704
2.560518056255246 0.22449754765642727 -11.163353503293306
1.7574898825893799 0.3619222445614917 -10.707780209049387
0.9903540862260322 0.4804913242630005 -10.239016437645674
0.291121545449024 0.5794268011736147 -9.746674415704273
-0.32608551871336366 0.6603429673464187 -9.225531904134044
-0.8602192900438912 0.7199376475990709 -8.672926302748822
-1.316706589265191 0.749922229945588 -8.094747512380787
-1.7038429265845834 0.7422524081632564 -7.501092239997243
-2.028292737305628 0.691303013407416 -6.899131807748143
-2.294450707929965 0.5944329614590868 -6.28581137342176
-2.5023363117957236 0.4487146304064724 -5.644988972422055
-2.6528689531253966 0.2620361243589511 -4.957683852610658
-2.745117355571512 0.060644636739845825 -4.2214999576752685
-2.780112063478758 -0.12496046815239814 -3.4680147397885923
-2.774688209120952 -0.2806919486236128 -2.7186517123218112
-2.7485271490145333 -0.3970817966555739 -1.9776006127852201
-2.7127702366577777 -0.4620676601351451 -1.2642934699968742
-2.6724071582225455 -0.45975939724595755 -0.5855897030415796
-2.6388854896355016 -0.3562642266080074 0.07048007946399337
-2.6324325264218804 -0.1143390646680365 0.7187571840172579
-2.6616623693964523 0.24468359265185174 1.3001627875893282
-2.719575168243778 0.6402971133764868 1.7127546818316834
-2.7717312567526653 1.0266457214032443 1.991237174238523
-2.819369872146205 1.3949653219457978 2.1986500547736023
-2.8632555398264365 1.7207440009621795 2.3669898873600586
-2.9013180461643224 1.9804664733285082 2.5147855907614187
-2.925155368229804 2.1418374471527812 2.6655349562152497
-2.9413972026067854 2.2144626196057025 2.8263495992395953
-2.9619316975185668 2.1621714352164574 3.02242952106362
-2.9845776479690422 1.9678323659266979 3.19253695496966
-2.9751715089529145 1.6311864255944954 3.3754775775113566
-2.9286831701947103 1.0918961570961152 3.5576606456398663
-2.7969231224649977 0.45476010686509827 3.714063475288778
-2.582830069245289 -0.1969505770484148 3.873115412434208
-2.2718369406899948 -0.849499914104696 4.034163534410102
-1.845729381164077 -1.462606822733042 4.215403122618732
-1.292744312798558 -1.9881839100893157 4.451721109298538
-0.6331341042871718 -2.3674076866491447 4.777673964616188
0.08338288432300489 -2.59170494077398 5.194679138803508
0.8101460429471218 -2.691500774570062 5.672071434635267
1.5405136527640506 -2.7107506147999425 6.170435420392982
2.2984949480791106 -2.654980646100487 6.660886683731454
3.0949736919595816 -2.5055798119548944 7.110207463223232
3.9283862284504947 -2.2401647839970513 7.4830837199354105
4.766550848288711 -1.8698665220940818 7.743495856350969
5.586157179127026 -1.4253201775923159 7.884292045010245
6.371503199573937 -0.9423045520459117 7.908429570942183
7.106829511340206 -0.4503379712687387 7.840985439343833
7.764140034792252 0.02895781390814417 7.711406237819472
7.011823455011392 0.016165376976335404 -19.93942436886831
7.144112304630303 -0.030491929786891185 -19.250452541777534
7.267743849220671 -0.0982917991798744 -18.549466712343758
7.35132239277127 -0.16544320162764914 -17.858322288396263
7.3733580249611075 -0.22566927973839748 -17.181806812658312
7.324815472873281 -0.2746651742448645 -16.510131472477113
7.196447623018162 -0.30771687716106105 -15.848784733396354
6.985201171297685 -0.3236390910449326 -15.215164686627887
6.689521590049212 -0.322000345897429 -14.617665233449005
6.31337152064265 -0.30141010500127013 -14.057097532327896
5.862856821731781 -0.2582323762270768 -13.52622883039728
5.337582117910749 -0.18675508846800765 -13.016422897247205
4.738574519437476 -0.08413147717774093 -12.526035752683274
4.064561762850387 0.04424017008675439 -12.051661097384445
3.317930954688576 0.18841347609259623 -11.592673438781942
2.525457408595843 0.3344971709146759 -11.146889870621662
1.7294225022683292 0.4668499796623602 -10.704188246805057
0.9691070948293489 0.5760636303883083 -10.251180869934744
0.27268515693735595 0.6607865472000108 -9.777834794576984
-0.34677473214863686 0.7215151944455621 -9.279148019190966
-0.8869528500055629 0.7553518699594174 -8.753378343328448
-1.3518757940814212 0.7578807471544692 -8.202733731269124
-1.7481466445373943 0.7247143073036899 -7.630176282429228
-2.079981951767278 0.653014251542942 -7.037606537399494
-2.349665014437676 0.5430769237177154 -6.420434678457808
-2.556691340324921 0.3965413300957592 -5.765940509645056
-2.701157369370563 0.22349785137475173 -5.062369838393328
-2.7823164397997675 0.04657869601571479 -4.313682031372258
-2.804162974422061 -0.11004343333008021 -3.5513150170864654
-2.785353468421834 -0.23537125601142836 -2.8000346458812597
-2.746227715018969 -0.3200049573067039 -2.068099289614132
-2.697501281272039 -0.35344639055179855 -1.3721768734929163
-2.64571639098023 -0.3233168873073267 -0.7135467304570434
-2.6027173439252924 -0.20426426153326838 -0.08033155842751871
-2.586017264651966 0.03341132955718426 0.5420477770876108
-2.605126892719635 0.3732395845175045 1.1071843034404607
-2.6556093402214493 0.7500186403035094 1.5266658582556867
-2.710353100608034 1.1301910068747998 1.8356931655832494
-2.7673578750590733 1.4980086761008775 2.0845655126090037
-2.8241844159171197 1.816280367119857 2.29706890397394
-2.8747653840062193 2.0510912601580604 2.4788772991603225
-2.9085181740930914 2.1862343045328965 2.644586246406796
-2.9317724695208427 2.2380081083853405 2.8133299104203338
-2.9548581171554047 2.170430051792591 3.013643912160595
-2.9753228911411767 1.9637831887716082 3.1978577318550845
-2.964160297100808 1.6172716088974997 3.3899898561284205
-2.9117795613288493 1.0735430785899256 3.578909438019373
-2.7814285401057037 0.4291235421690317 3.7363360107932673
-2.574205095936831 -0.23497266111351833 3.8887091438506616
-2.272346215527859 -0.9024522843082794 4.0373583869980605
-1.8567773804447412 -1.526977836428399 4.20150020067169
-1.3150813406383128 -2.0594189472603746 4.416779869767918
-0.6723147686016879 -2.444715685301533 4.7161742343955915
0.031481069448679455 -2.6811626092822047 5.101980636029328
0.7589501257224308 -2.787921662562933 5.549664136116041
1.4983477704940595 -2.7987179725112488 6.021713063507176
2.2637384652762567 -2.7248025443360944 6.486464113785825
3.0638798745232263 -2.5562843726777342 6.910883932475885
3.897700070996329 -2.276771019771199 7.261587383557703
4.734423127045216 -1.8995984790210325 7.50405087195579
5.550481455432839 -1.4500340438908284 7.6327301124903455
6.3289793682851885 -0.9571371518110241 7.651306036344501
7.0522750992001635 -0.4486965645543196 7.582170341235922
7.689892591125122 0.05173889409580501 7.452994897251086
6.966720981091751 -0.024152762691889082 -19.967926035704174
7.080363214034812 -0.059170108060671946 -19.26990930261128
7.193600186146648 -0.11471788910484554 -18.564971292970785
7.2764333454106405 -0.1728161402943914 -17.879300247890466
7.307241706177154 -0.22516119612852764 -17.21350252111862
7.274751100308889 -0.266062124285085 -16.552746680923317
7.167301307968274 -0.28960111465093824 -15.896421492702947
6.977519336243865 -0.2945390659704007 -15.257026255944801
6.698454962002269 -0.2812502405366122 -14.642901382777081
6.330089379051679 -0.24927694200183265 -14.061001257334556
5.8782081389731085 -0.19566202740261693 -13.511004089505882
5.3437880205150625 -0.11533364045416009 -12.988167557613558
4.7303098935112935 -0.005769444034392238 -12.492174108282907
4.041269181404044 0.12809944363964026 -12.018624299599349
3.2866459233144165 0.2757472224605415 -11.564593284013974
2.4951554950824986 0.4215466821071729 -11.126752215942863
1.7045672443419644 0.5499537250332063 -10.694065402803162
0.949513306479725 0.6519130510201895 -10.253265012450427
0.25509686167785506 0.7256309608324788 -9.794537299475996
-0.36653297417775876 0.7707418233566504 -9.312929057258723
-0.9120758738285922 0.7846937492381152 -8.807251040827405
-1.3842627382722772 0.7660050045985592 -8.27700798034226
-1.7881937570387203 0.7129795468145974 -7.7200320466853025
-2.12611036308846 0.6249231412547716 -7.134334225859113
-2.3986468154702556 0.5045786054293678 -6.513983163742875
-2.604969671436519 0.35740000556160034 -5.84859593480783
-2.7446498059470597 0.19517327272169277 -5.13176048140155
-2.817098988310162 0.03747757197892365 -4.372419868783266
-2.8285843125607992 -0.09644168109094764 -3.6020742740177907
-2.799237875254705 -0.19805834176513976 -2.8482956087713447
-2.7499919123552075 -0.2581417442204154 -2.122472436429835
-2.6912088009343966 -0.26733201314862887 -1.4389849881096657
-2.6305695542989285 -0.21575906006524645 -0.7949481302337769
-2.5802737522964057 -0.08470354882204958 -0.1789488908812581
-2.5557756294623886 0.14967149175019315 0.42354123189019244
-2.5671641780842283 0.4747902816719616 0.9761504342700452
-2.611906439624313 0.8372118494839502 1.4013156822238242
-2.6688527278174417 1.2131317207329724 1.7356785810788375
-2.733814804690493 1.5818528763584552 2.019761657841771
-2.8017987591335967 1.8964120508755546 2.27048808155828
-2.863138050983115 2.1148091618916744 2.4821876908499054
-2.9051213310750055 2.2314267037687654 2.6619739913408775
-2.9342676849826064 2.2671353795465508 2.83909360759195
[...]
CELL_DATA 87
SCALARS quad_param_group int 1
LOOKUP_TABLE default
3
1
3
3
2
2
3
3
3
2
2
2
2
2
2
0
0
3
3
3
1
1
3
1
1
0
0
1
3
3
1
3
1
3
1
0
1
1
1
2
0
1
3
1
3
2
2
3
3
3
1
2
3
3
3
1
1
2
2
3
0
0
0
0
3
3
1
1
3
2
3
3
0
0
3
2
2
3
2
0
0
0
0
0
2
1
1
SCALARS single_component_feature float 1
LOOKUP_TABLE default
-0.03422418776015001
-0.0196409125189524
-0.008156530172599284
0.007256740775770036
-0.018007631212209843
-0.033887952734434276
0.02077288789245615
0.031646712243458795
0.026597603949272033
-0.01750577057323739
0.025378675138704676
-0.04952575288415094
-0.024582004578753806
-0.01363782082021923
-0.005585401868451419
0.009592937981136508
-0.002749835270441245
-0.01204908745056352
-0.007532154604935523
-0.027836545123394115
0.005475266486092938
0.002836576863954804
0.019979298977283455
-0.024943301798100677
0.01845082016061783
-0.03282605085111937
0.02054931929786019
0.05103110042814313
0.01014364435024552
0.01971185432659872
-0.022445728283127842
-0.01200016464570279
-0.05024577674315553
0.01618001794657883
0.004163727546455387
-0.013717947269311241
-0.006324584751310636
-0.02078251278151455
0.03890109912735274
-0.0013074591719479181
0.07411073971563208
-0.059026515018249945
-0.007181657987383043
0.002408786547481192
-0.013778038134122338
-0.016298369366839507
0.008648815772247126
0.010210542592386592
0.03907963980301677
-0.016238261506214154
-0.06410501892672303
-0.015369481052042637
0.01806978938328794
0.03136941521789151
-0.020828245427125316
-0.006281208142449729
0.0065143041911060184
0.011750637635869046
-0.00868069481920576
-0.014912235237616794
-0.014440263993475182
0.02034102096929148
-0.009670441509791421
-0.002987421229297328
0.012030558088113173
0.03387942140226606
-0.012271804163170004
-0.020389835222411626
-0.011964613773011525
-0.022244480292208043
0.06853086719626456
0.004229032991939954
0.014094453066032048
0.016006981494539566
0.05072475321821524
0.04505763041984728
-0.016340201187596274
0.0013669963423027995
-0.05438437482526703
0.013130645512491684
0.0662157950142839
-0.0008915196590421233
0.0036017875453673463
-0.0307145655114437
-0.004631524400314493
0.015091424955507249
0.008013562685422049
POINT_DATA 5568
SCALARS single_curvature float 1
LOOKUP_TABLE default
0.07909679546668094
0.12085849957891986
0.15257419914935627
0.1776907640059273
0.19273321325623777
0.19832676148933834
0.18917056232245558
0.16782373829694786
0.1394207591229265
0.11183191921559944
0.09143842394455141
0.07230510965210242
0.05067960467168625
0.04099812576234381
0.04440133352321437
0.0625902557560024
0.09437745686135449
0.12144816883575227
0.13895745382047947
0.1493049321329353
0.15495427061556727
0.158640866069777
0.15502397549374958
0.14292289682946263
0.12748431647702285
0.1074318185031747
0.09232654644103032
0.08955672636727768
0.1008246427440486
0.13778724316139263
0.1878670285467152
0.23579993958763237
0.3058698638120703
0.35402138144566797
0.35642167464182034
0.31549636781954093
0.2504189285194886
0.4589471644121585
0.8007738242541502
0.9406051442733376
0.9717591965092345
0.9543490503106119
0.849152883197956
0.556672201618622
0.23934652069755324
0.17392577814348953
0.17097591620427227
0.18624733573795096
0.2186967030778804
0.23920028099447288
0.23408839353128227
0.20054933333386532
0.15441254227808066
0.1242641258605593
0.1185233661457057
0.13417502522829455
0.15029150603820038
0.15671046865200758
0.1502029306409497
0.13801797612991293
0.09865883096297466
0.059299685796036394
0.019940540629098127
-0.01941860453784014
0.06390757931744434
0.10290694596413252
0.13634593919971927
0.16581292570060896
0.18456141800320616
0.19389999696999516
0.1894989614341169
0.17320474463687932
0.1486471329423975
0.12135458515562199
0.09753549241942114
0.07474503304476564
0.051817022280713644
0.04124831668858904
0.04460640500509942
0.06240751638098833
0.09255351428202203
0.1201230374893423
0.14022085200789347
0.1533207173766224
0.1598312848546688
0.16092400720654773
0.1544846802317368
0.14185789503927376
0.1271154754126902
0.1094415474089957
0.096169793955983
0.09387914987710894
0.10491242332084524
0.13818570557018425
0.18317539827838372
0.22552125601632045
0.28580799688877695
0.31828068927307507
0.30749863395684895
0.25705418308012984
0.23378055203462814
0.4666057096651351
0.7968155342804416
0.9282041671736354
0.9569758654769367
0.9297700247476633
0.7902378031019991
0.49686952126587286
0.2340780583091997
0.16851548878514816
0.16513029193685036
0.18463791436804064
0.22305434832047497
0.24617842383256555
0.24356370820123596
0.2127650584703945
0.1668199431823665
0.13556521818931155
0.12520477351164835
0.13373642904155636
0.14566303733608457
0.15112260515001302
0.1461639084890335
0.13748545434800008
0.09947528726635653
0.06146512018471298
0.02345495310306943
-0.014555213978574122
0.05302980770449275
0.08952542909279755
0.12271610222956146
0.15558965881510414
0.1776563680465157
0.19016502258369944
0.18954242342918418
0.17725534551771835
0.15576343096063003
0.12879375622998135
0.10243084982660541
0.0768236138383199
0.052896693595381024
0.041801554222045414
0.045268900923850934
0.06288148397979552
0.09171554705642311
0.11936275022503728
0.14124242617174476
0.15654992153676245
0.16435146832448555
0.16461279540780793
0.15687121711027108
0.14380587952705626
0.12888966804781105
0.11200678152845832
0.09944471870705959
0.09745625581582594
0.10826514901598107
0.13839478287400905
0.17882500008838745
0.21626132204439205
0.2687210796869473
0.29103806691227996
0.27280748032029345
0.23231299246030668
0.24402905846411294
0.48475013037543846
0.7928059778902246
0.9156504308423835
0.9405881490033887
0.9036259156997398
0.7414933230491377
0.45500418875836535
0.23074019188099712
0.165125157459983
0.16132289057723231
0.18368393282134735
0.2263110422184469
0.25135103387741997
0.25089547760510406
0.22229115815121278
0.17657361709051544
0.1445118253787074
0.13037902939153484
0.13330204643161161
0.14192796905630825
0.14676191888672094
0.14322982700515313
0.13754910040490254
0.10060416661606068
0.06365923282721883
0.02671429903837698
-0.010230634750464873
0.041587931282759345
0.0742942118129591
0.10406287785724555
0.14076069609825387
0.1678572767731738
0.1848918521423193
0.18929969311425382
0.1822982049610388
0.1648703383953778
0.13844923446560634
0.1089230858771609
0.07973940776403801
0.054578209222893796
0.04303996756964442
0.04691673854415263
0.06451204528198502
0.09167206306153144
0.1189622427772874
0.1427864440535844
0.16098375527182876
0.17111825792837249
0.1717504260240902
0.1634010437911563
0.14967496514474649
0.13366306305933
0.11653939857621812
0.1040738060551069
0.10244090551405816
0.11289982704486254
0.1385152331794967
0.17200709141513998
0.20216936486178014
0.24417429128437446
0.2563531787332629
0.23316132437211062
0.21052727247477374
0.2615776831150578
0.502591266072472
0.7782249242505742
0.8933712721699879
0.91051458733814
0.8585687908205429
0.6768987184864895
0.4060714498627117
0.22745761258908567
0.16188582425824208
0.15741926675071075
0.1829159674288589
0.2304001755995277
0.2577771550588347
0.2604423758039041
0.23478575552740086
0.18946352064837238
0.1564219619696474
0.1370969873285542
0.1325652738065137
0.13681293451064075
0.1409984488221317
0.13964463409206346
0.13822689757699785
0.1027102016337951
0.06719350569059235
0.031676809747389595
-0.003839886195813158
0.062276588612966234
0.10093731790374004
0.13444770484740284
0.16440444217164804
0.1836029479869838
0.19338092206320148
0.18951684238263872
0.17379343067663727
0.14967169529138996
0.12242040957217178
0.09823055467347003
0.07503394098871925
0.051961208174387416
0.04130786244858521
0.044672705391389
0.0624395048332315
0.0923980287060687
0.11999603758443081
0.14036250659490898
0.1537761129632855
0.16044095853195528
0.16135239005165336
0.1546795327501278
0.1419922749879011
0.12726212314306912
0.10975669539941983
0.0966236992007513
0.09437927549343335
0.10538268583964087
0.13822124385734322
0.18259302736030206
0.22426803431630368
0.2834451710315928
0.3143466706750475
0.3023265735537957
0.2525230742015484
0.23430306485001995
0.46881444827328517
0.7963709905990035
0.9265918733980949
0.9549271329408234
0.9264371614566678
0.7833644409460886
0.4906311339148613
0.23355841659162824
0.16798466342165783
0.16454418452519945
0.18448408165159144
0.2235274817310087
0.24693246324596443
0.24461511898522012
0.21412740477351097
0.168210830499422
0.13683764911215462
0.12594706991291094
0.13367994064788521
0.14513635438227238
0.15049978067672518
0.14573312256274162
0.137469520106177
0.09961077215239299
0.06175202419860898
0.02389327624482497
-0.013965471708959037
0.07873989780500731
0.1204432258875526
0.15221552483347842
0.17743137503018047
0.19255308845184232
0.19822927449476546
0.1891814747366334
0.16794937366287374
0.1396334327529869
0.1120499083253244
0.09157536289710697
0.07235789426472913
0.05070254884520885
0.04099814296983923
0.044398471293844555
0.06257716710251468
0.0943278299844261
0.12141481211713671
0.13898719539777887
0.1493966096728749
0.15505440564209513
0.15866114712685808
0.15496424241752887
0.1428511741715609
0.12744093546619223
0.10746131920215711
0.09241054107074002
0.08965332253147497
0.10091649676954119
0.1377980382328857
0.18776883842969297
0.23558103581080017
0.3054287298480872
0.35318854170585884
0.3552494580076475
0.31392556663434135
0.24969423344069863
0.45894738081172043
0.8007254755748425
0.9403533641982459
0.9714812220271047
0.9538790025934365
0.8478642978989493
0.555212623538345
0.23921274947244858
0.1737880607145255
0.1708293246176032
0.18620584980387492
0.21879971242412935
0.23936583231336533
0.2343081339727362
0.2008312560995509
0.15469750279270694
0.1245226627034774
0.11867794377160874
0.1341660837304798
0.15018638850941635
0.15658124359515255
0.1501060029922268
0.13799757986781602
0.09866945321085166
0.0593413265538873
0.020013199896922934
-0.01931492676004143
0.03688352755938303
0.06590637045882042
0.09048594913504947
0.1268246371914702
0.15888610554123211
0.1800985261056785
0.18880850218443654
0.18627996693384058
0.17231033755580466
0.14647311581966085
0.11442867168876124
0.08236777844376444
0.056267694529533736
0.04459631121674673
0.04912402674009218
0.06697303184779646
0.09281993014414464
0.11935446965463059
0.14439258636554003
0.16494649968056493
0.17747104310084927
0.17957919781912457
0.1715669697882402
0.15716193489712574
0.13951950695576348
0.121208830116534
0.10823665887488489
0.1069151246730935
0.11702773700225971
0.13844923876813034
0.16504657835430125
0.18825660971034403
0.22137907158541562
0.22806246163849175
0.20517838396668983
0.19508654352200686
0.2687462764077205
0.5038989501173937
0.7541707862797052
0.867448250920932
0.8759411137897186
0.8109321670482986
0.6238302637113152
0.3697407603011207
0.22573519767576203
0.1603295135726611
0.15518235750252993
0.18277060486985636
0.23368081814140237
0.26286405973966687
0.2684351349951431
0.2453315576984059
0.20043148849726972
0.16664031228091203
0.14269196964738978
0.1317513061859868
0.13225298640083863
0.1360584445175525
0.1368331831081382
0.13929093850346294
0.10502010437098866
0.07074927023851438
0.036478436106040096
0.0022076019735658148
0.037813135422133395
0.06367482868156492
0.08337587241064115
0.11507946314177914
0.15150502160864562
0.17617610652083412
0.18823103148533138
0.1891598791353844
0.1778769504820742
0.1525758608864753
0.11868468899934403
0.08451282825770405
0.05777366889355434
0.04616598720389994
0.05143141406637102
0.06967670293397012
0.09459637433317293
0.12022562917264085
0.14587540484786485
0.1681500061571705
0.18271009130152344
0.18660991539731303
0.17931106740202482
0.16427646329535667
0.14496007191275126
0.12520713948515924
0.11157432900726291
0.11052696692056681
0.12033906200790795
0.13826293346547894
0.15875708017591253
0.17608890058206356
0.20244186481790283
0.2068480383492472
0.18668460203117296
0.18409667108940111
0.2676777890081808
0.4951173615832907
0.7274410113339633
0.8418293159509774
0.8428851634495843
0.7689860429545446
0.5847777900634976
0.3447473569413233
0.22511574530346815
0.15993939626312903
0.1541797520517854
0.18301407907274808
0.23608509552124057
0.2665456123567239
0.27454184794728265
0.2534517814193625
0.20893936513216213
0.17462640065452592
0.14694444186026534
0.13097041479190585
0.12854910995017546
0.1321805592433613
0.13479127756202208
0.14040019056907235
0.10712357795936621
0.07384696534966007
0.04057035273995392
0.007293740130247778
0.0370141760448039
0.06436194019816391
0.08637501964335574
0.12058552945911641
0.1549450066997983
0.17800228136807195
0.18851897832103046
0.1878592583512178
0.17534026503436495
0.1497830436602451
0.11672937193567481
0.08351406982809004
0.05705802311509933
0.04540213164905833
0.05030099439822359
0.06834133799384709
0.093676958360104
0.11975916228104995
0.1451664517245156
0.16666357725093056
0.1802710751510645
0.18328093963155248
0.17560939657001773
0.16087698434109768
0.14237346813961924
0.12333547199356253
0.11003017542587394
0.10885194265997539
0.11880574194271422
0.13836518293061945
0.16175423655216767
0.18183862741968504
0.21128246641656673
0.21652517549643682
0.19487622589358056
0.1890761556163763
0.2688990966829646
0.5002144195181215
0.7406240111178598
0.8542546427742687
0.8587701141798197
0.7887369382242078
0.6024628293239757
0.3558949059177795
0.2253208509049808
0.16002712103455946
0.15455895225181082
0.1828621557565575
0.23499631939012386
0.2648837048961782
0.27174562055001433
0.24972597655813697
0.2050283095215679
0.17094828415689567
0.14499978009764536
0.13134753341001285
0.13027204191119413
0.13396953930401487
0.13571548946644366
0.13986065162991207
0.10612348074726458
0.07238630986461708
0.03864913898196959
0.004911968099322095
0.06177995554916156
0.10033545769575487
0.1338614614099275
0.1639685754571598
0.18330680138415795
0.1932205698673782
0.1895215599521881
0.1739735595585016
0.14998582722119788
0.1227475355363914
0.09844433117928213
0.07512321703220462
0.05200614984152826
0.041327431326364815
0.04469489705456311
0.06245160754405319
0.092352516594369
0.11995813301614247
0.14040619163931353
0.15391629258967818
0.16063064223825496
0.16149067094498895
0.15474934555385988
0.14204340268500823
0.12731447834513732
0.1098569894152172
0.09676402308392136
0.09453355340829911
0.10552764790873082
0.1382317853572691
0.18241170378508295
0.22387874753444909
0.2827145751415772
0.31314144308120345
0.3007521644095305
0.2512216323707775
0.23455631465026577
0.4695431225239392
0.7962357337353676
0.9260858657670614
0.954279812291048
0.9253879497256143
0.7812460295258794
0.4887331680120063
0.23340169096576058
0.16782473003140055
0.1643669971886524
0.1844379742338425
0.22367222045198268
0.24716297288766573
0.24493767374661576
0.2145456052321838
0.1686380654576474
0.13722872208881132
0.12617479099871873
0.13366224946137886
0.1449742063563616
0.1503085616556457
0.1456016464895593
0.13746633088592303
0.09965411789901323
0.061841904912103424
0.024029691925193622
-0.01378252106171618
0.03690218297198846
0.06460422657116638
0.0871648130086742
0.12190167870883661
0.15577253263862875
0.17844203380965204
0.1885833741205116
0.18753572206472255
0.1747153016432638
0.1490981021551478
0.11625181406544452
0.08327363192500724
0.056889512895788884
0.04522679961748816
0.05004340614874756
0.0680396586287303
0.09347946881761847
0.11966258396995448
0.14500050154409266
0.16630425069904928
0.17968344185355234
0.18249300502993998
0.17474181152873003
0.16007976115488462
0.1417635050289289
0.12288686164086204
0.10965565881021584
0.10844680280988855
0.11843426609945608
0.13838571757818965
0.1624579022546657
0.1832014503626788
0.21340578473928143
0.21890652853992923
0.19695331684195777
0.1903084642290186
0.26900954024498813
0.5011860160163517
0.7436099641688192
0.8571174743225911
0.8624694546506819
0.7934423379661456
0.6068509490278436
0.3587043436857397
0.22539160709697542
0.16007238066980045
0.15467274935750636
0.1828354676330804
0.23472620119304993
0.2644700174507627
0.2710601403817071
0.24881463731801054
0.20407361003897398
0.17005226663544698
0.14452240235126
0.13143477247741536
0.13068723258670442
0.13440451339036152
0.1359447878197434
0.1397365335118986
0.10588788037225258
0.07203922723260656
0.03819057409296053
0.00434192095331451
0.09530718342515697
0.13946163549364904
0.16807976011224218
0.18874744413338537
0.20047682937026265
0.202501439413913
0.18852037935365626
0.16214924276241388
0.12994815085237127
0.10219963509926028
0.0855654075977614
0.07015540843932769
0.04983962389967751
0.04130208111080448
0.04490101136053817
0.06358590061211276
0.09689747472915355
0.12301036406200427
0.137516813364768
0.14516585663864628
0.15106925001342614
0.15938551826965622
0.16011890626098751
0.14856914399363927
0.13120663538754307
0.10693735880954092
0.08876006224891371
0.08532455152169999
0.09677356552831638
0.13721736791592765
0.19186562271841395
0.24489818344908454
0.32484690377456804
0.3919779660812026
0.410743731389874
0.3887649397099592
0.2950306705995825
0.4641622117523533
0.7987508261239173
0.9509177214211608
0.9820052300648023
0.9717943810058345
0.9025794310727804
0.6267000436729603
0.2460056405417308
0.18078008215743643
0.17817815271094906
0.18831637310805974
0.213895958847445
0.23146255316070888
0.22407041484277698
0.1877842352555523
0.14159004793586805
0.11268331726807004
0.11152322971487366
0.1345405363778887
0.15498693029318295
0.16259653627835913
0.15479184258722029
0.13936215298048948
0.09859761941708
0.05783308585367053
0.017068552290261052
-0.023695981273148425
0.06895532311466697
0.10894339768058477
0.14199398335025698
0.1699794441030425
0.18740993661073918
0.19544327866107966
0.18942143355473925
0.17140308950019548
0.14553063636669059
0.11812295757788807
0.0954423251780123
0.07388777588994708
0.05140059021092361
0.04110673337142557
0.04446009031506595
0.06237768971072252
0.09308885774530176
0.12053792537805345
0.13979516549358323
0.15195035660318656
0.1580610344214857
0.1598344777287507
0.15420238825347002
0.14175592088596856
0.1268976968304898
0.10859578049016491
0.09482376924257346
0.09238506418211526
0.10350437259493328
0.13806687707944626
0.18486610223495625
0.22918596542356884
0.2928159433900777
0.3302809642658185
0.3235661405907891
0.27371294991691497
0.23538422040574453
0.4617664779199257
0.7983013745185098
0.9327811356890982
0.9626580451756662
0.9391098681803282
0.8107768840043873
0.5163128588825884
0.23573820219647568
0.17021592289381515
0.16698990060930208
0.1851373278031651
0.2216040504144476
0.24386226938040223
0.24036886033663868
0.20863341527512788
0.16261023732755128
0.13172083389762765
0.12294957756888684
0.13389764234003174
0.14724659100285917
0.15301111247618188
0.1474939708090048
0.13758627222080563
0.09911834326228706
0.060650414303768496
0.022182485345249928
-0.01628544361326864
0.05803456512092802
0.09576065398498886
0.12929887896456957
0.16056119930204574
0.1809992040984888
0.19197170651573708
0.18954563475085887
0.1753490185658769
0.15239452789056246
0.12526130321948886
0.10009381118594149
0.07581861689216897
0.052362423377397646
0.04149833764437396
0.04489503670000674
0.06258161953044135
0.09203904551787292
0.1196850560880687
0.14074623667511713
0.15500070875858174
0.16212823957971087
0.16265899186156002
0.15544121490671733
0.1425893974259019
0.1278306125332772
0.11068309275409567
0.09785834436785537
0.09573182912849401
0.10665195313764418
0.13830698455037438
0.18097627295322333
0.22081168138784274
0.27701253133980686
0.30391308290514807
0.28886293501995725
0.24238219898265964
0.237653738560017
0.47568250492254344
0.7951129609328014
0.9220094773778483
0.9489998034490871
0.9168987563250062
0.7648433951209435
0.47440400428596213
0.23224073060767306
0.16664285326046013
0.16304790963238422
0.1841014273775364
0.2247774055141999
0.24892045644012972
0.24741490279014708
0.21776134358615754
0.17192750416640754
0.14024326753456984
0.127923479018471
0.13352044372455724
0.14371968413547423
0.14883747527192964
0.14460248657466945
0.13746825700948181
0.1000147967897224
0.06256133656996299
0.025107876350203576
-0.012345583869555837
0.050828575722163
0.08672519276554579
0.11959256014391234
0.1532013295671623
0.1760606918218472
0.18930385659854726