# vtk DataFile Version 3.0
vtk output
ASCII
DATASET POLYDATA
POINTS 5568 float
6.955615016014 -0.11546529571820086 -20.02774009774934
7.057411398530686 -0.1377371459465609 -19.322459226298303
7.165009955219854 -0.17643748616141358 -18.60845990313676
7.247457058494668 -0.21660292819616744 -17.91523964368131
7.2820222669852965 -0.2505151260615223 -17.24524984397719
7.256933309005299 -0.272812738845723 -16.583408390439118
7.160195082865132 -0.27770151891579176 -15.926183343287706
6.982760622048775 -0.26418944813262946 -15.282106063490641
6.715045970135738 -0.23313308309025993 -14.65769126849068
6.354061726107129 -0.1853342566229424 -14.062114313477732
5.904556894000731 -0.1191032477582876 -13.499111749731089
5.369041257349408 -0.030793113446613896 -12.966578277032463
4.7521759255020175 0.08109393630378588 -12.463569898828753
4.057757964925644 0.21234183905033116 -11.984711112815608
3.298091673696928 0.35295454110590846 -11.526501749028078
2.5021830855869336 0.4873304155044771 -11.085430466924814
1.7061862006568902 0.6006841073666433 -10.651159355710165
0.9444493581370522 0.6847667006030554 -10.21171128756274
0.24268467168082408 0.7385939313700278 -9.758145075773742
-0.3869976519685969 0.7632140750391111 -9.285586286682475
-0.9418484243126798 0.7580040926363871 -8.79156157732854
-1.4239566900225227 0.722608625806674 -8.27212699659915
-1.836755650463144 0.6553786210012169 -7.722422688869149
-2.180834377636312 0.5563005046170022 -7.140169048703697
-2.4554319166679712 0.43018988757282617 -6.521539708401747
-2.6592623359860545 0.2859683222859316 -5.85956142596225
-2.791124960114766 0.13624465770755928 -5.149790621423281
-2.8499898185305015 -0.0020962741240259097 -4.400151921126362
-2.8441480330496662 -0.11238578261612518 -3.640185734066547
-2.7969879161127897 -0.1881616584117049 -2.8983925866117026
-2.731722493414384 -0.22188842002635342 -2.1844065394591676
-2.6586000972904875 -0.20653943173057618 -1.5120045784951817
-2.587087605572049 -0.13435393011088037 -0.8746129257380001
-2.5308849167581715 0.010484908930178866 -0.2614893943069365
-2.501906485353721 0.24780536699495212 0.33692463127582006
-2.5115704618194443 0.5627879889176817 0.8885383794685465
-2.557458155710859 0.9096453660308947 1.3212755239202523
-2.6199221488890796 1.2744949292582959 1.6745514243126054
-2.69262447911227 1.6361564737989174 1.9836469647856776
-2.769076243211661 1.9477385477164435 2.265877691778619
-2.8389624815744603 2.1578112552467124 2.509651729933141
-2.8882085647774423 2.2606993275456597 2.7085891761058503
-2.9249812365361283 2.28269627665877 2.8988123570642297
-2.9569905340111147 2.189243022494729 3.1106067568568267
-2.980996138790018 1.95766071831948 3.3180551338156437
-2.977536705387899 1.5912230341627485 3.5218970617652197
-2.931750405090849 1.0341044850891181 3.7171749804368823
-2.820224705343807 0.36853347496604527 3.863908197957492
-2.6368328472505906 -0.3202624618873873 3.9896990524183913
-2.3552894208529334 -1.0123161797490092 4.106043441272519
-1.9544216405375778 -1.653588308354562 4.235152187111686
-1.4168946738071193 -2.18804470355857 4.416255963237866
-0.783598640685512 -2.5564155736082887 4.68161525747373
-0.08454754465995418 -2.77892492808768 5.0318459898329175
0.6502910545528097 -2.863079575631215 5.449844851096063
1.402060090581009 -2.8376314054786684 5.898910662604311
2.176409365612911 -2.7254239673699705 6.343148613984842
2.9817561585871104 -2.5293613621741957 6.747880900124128
3.8197532264914296 -2.2414512285605634 7.078978114515826
4.662647214227997 -1.8744618564156807 7.302905678141969
5.485494079267175 -1.4425755655945982 7.416840735808612
6.269213496785064 -0.9641157372451383 7.425433736774338
6.992179266346845 -0.463700933528155 7.349108584706391
7.62010456753977 0.035244512103170866 7.216044608283702
6.946773981094729 -0.0889860293026849 -20.011022427712824
7.047972573856927 -0.113136155979977 -19.305893826726475
7.154841481566046 -0.15528662155705303 -18.594454263750162
7.237229813951765 -0.20035438876558928 -17.9060715259825
7.272808716541059 -0.23974763300920537 -17.24104382783701
7.249337816547763 -0.26753630457328326 -16.582846029986122
7.154262814502268 -0.27749598112043894 -15.927356901473171
6.977987674821432 -0.26848837331963576 -15.283320942847391
6.710432387895909 -0.24139760541945413 -14.658020808962892
6.348645513242138 -0.1967984155806233 -14.061605112838912
5.897705384534713 -0.13269919625846419 -13.498225249782841
5.359879726204939 -0.0450568396150325 -12.965823926947188
4.740057881376362 0.06796090219931093 -12.464086025705187
4.043353187853159 0.2019834100253406 -11.987723925522413
3.2834086638918403 0.3466178013471765 -11.532776114209232
2.489675784923233 0.4857433719442099 -11.095456321630145
1.6976142928505955 0.6042983664218767 -10.664853556586872
0.9402865268304009 0.6937996710893644 -10.228472502584733
0.24220610653600327 0.7527829880640554 -9.77705348682013
-0.384804356633078 0.7814379295644243 -9.30567496334545
-0.9374755205884879 0.7784327729949981 -8.812536058591645
-1.4177264801152423 0.7437961772675268 -8.294383375854652
-1.829193540500324 0.6766373078985506 -7.746059909702656
-2.1725568862348155 0.5772947113576878 -7.164298596226061
-2.4471577088458396 0.45047063642022855 -6.543957389419275
-2.6518231432777473 0.30481160690698583 -5.877253811010271
-2.78554015358122 0.15308203891456218 -5.160438149880247
-2.8475092039278103 0.012348049681861595 -4.403349738103362
-2.8458409722602154 -0.1010999611131226 -3.636419188549988
-2.803012894945066 -0.18068691372582074 -2.888632078800234
-2.7414790113223644 -0.21824970434079197 -2.1712697810966013
-2.6714198172160164 -0.2060960790488571 -1.497652959326719
-2.6018698023983853 -0.1362715874482269 -0.8615694709124758
-2.546007133277104 0.006289010457828537 -0.25223168440997434
-2.51663938720521 0.241378697906625 0.3420401449887215
-2.5247654612121937 0.5563204568113459 0.8903697298911142
-2.568468406261109 0.905536348535523 1.3216660594208336
-2.629304348266287 1.273886090515158 1.6748623326094783
-2.7012737192358727 1.6390302979809972 1.984598969682528
-2.777758963846759 1.951138404699628 2.265914681269497
-2.847556537239034 2.1603015716982936 2.5060272674411928
-2.8963732703304723 2.263727180889113 2.70171581899055
-2.931805470128238 2.2866490121451353 2.889409822311353
-2.961606609193259 2.1948199184704267 3.0992846980357838
-2.9827221361551968 1.9665133533438661 3.3053294242481845
-2.9749588487172764 1.6028055947802229 3.5095864760224775
-2.9229736947758154 1.0488060430606478 3.706062552879665
-2.804309641547445 0.3880898166422283 3.8578901214941097
-2.6147977761102594 -0.2974529304626866 3.9910700449388026
-2.3298150886424756 -0.98798506874073 4.113976269472417
-1.9284989477527592 -1.6290429011129577 4.248239970971041
-1.3952900118963063 -2.166766417395556 4.43206429522232
-0.7671364142598256 -2.545734925033671 4.697197986463387
-0.07286601341985133 -2.7809427071568864 5.0453566965312735
0.6595276539374229 -2.8786054158543948 5.4594655710376125
1.411580078168946 -2.863724944765766 5.903643354057931
2.186930094302135 -2.757386342818987 6.342361577131306
2.992741130140308 -2.562014230152261 6.741617448500281
3.829594619665052 -2.269526417839495 7.068591943253436
4.669230625039913 -1.8942613963193449 7.290222667106511
5.487224185067421 -1.4520493680742648 7.403516931473788
6.2648469283086685 -0.9618833471227999 7.413164960106023
6.9812440943366685 -0.4486357738878727 7.338899838689923
7.602491755439351 0.06320899428667737 7.207625469970859
6.886302501303075 0.09212856175651277 -19.89667583197964
6.9834360417196875 0.05513605146250866 -19.192443996881654
7.085433983171354 -0.010338545180716821 -18.49791337160214
7.167513255574475 -0.0881870026116069 -17.84113632025491
7.209909007760615 -0.16420306563466602 -17.208183508723863
7.197258151394075 -0.22890249241552046 -16.573270723399688
7.113296843654812 -0.27323263495390904 -15.928478188429736
6.944714641427631 -0.29498670276868155 -15.28389430400671
6.678007351961046 -0.2951112663047692 -14.651936065037592
6.310496039791256 -0.27249791822808417 -14.04941587021076
5.849562849915661 -0.22304557463715907 -13.483290651883292
5.295751909020207 -0.13999547996717063 -12.951737227214831
4.655347101158497 -0.019144390654116272 -12.458606314208378
3.9424705796618844 0.1340346525762574 -11.999091239723896
3.1799675200054116 0.3062324539555249 -11.565999878109318
2.4002139631351596 0.47759558876193586 -11.153639752461507
1.6338948134623528 0.6311824730457408 -10.747298910574223
0.9054611198026356 0.757081719313674 -10.331095622920877
0.2315333440121743 0.8507796628855286 -9.893713506660248
-0.3778221064748577 0.9066988764720021 -9.430013667602305
-0.9158390741608758 0.9186005427127806 -8.942790185745784
-1.3834961581369156 0.8890938718778129 -8.433347913878585
-1.7859112572051705 0.8224228840315907 -7.894420952630185
-2.124402265759314 0.7212789232018144 -7.316012734009966
-2.3990140090347305 0.5895337543241987 -6.683877411001205
-2.6094194342070023 0.4338640871469578 -5.984384008956997
-2.7561449202639166 0.2680727735822754 -5.218432308063913
-2.8401485117390224 0.11045847895837738 -4.4091596407629545
-2.868120199700536 -0.025388879776074458 -3.5929829126420483
-2.8558869689508866 -0.1319572296723261 -2.8024106489769878
-2.8202883433259442 -0.19630429146521278 -2.0606410430430193
-2.7712238572657757 -0.2061220212821868 -1.3778822919983833
-2.714930080679189 -0.15225171079177924 -0.7503835543055853
-2.6613587932618046 -0.024934881445353413 -0.16655182673335422
-2.6294228445745365 0.19517372546405737 0.39979870153298813
-2.6272147684962697 0.5098571501202089 0.9260873094659103
-2.6559859592748456 0.8756153175980966 1.3479657302116501
-2.705526714178356 1.2686043550993793 1.7008590340576677
-2.7723615478129715 1.658150616304662 2.01508945803031
-2.849087187018409 1.973898404950555 2.2902012852871136
-2.9182688533307775 2.1769819952745393 2.5061231290619865
-2.9642956879927955 2.2839647328584953 2.6806326891901735
-2.9910028134493927 2.3128747849626032 2.8517832671844565
[...]
CELL_DATA 87
SCALARS quad_param_group int 1
LOOKUP_TABLE default
3
1
3
3
2
2
3
3
3
2
2
2
2
2
2
0
0
3
3
3
1
1
3
1
1
0
0
1
3
3
1
3
1
3
1
0
1
1
1
2
0
1
3
1
3
2
2
3
3
3
1
2
3
3
3
1
1
2
2
3
0
0
0
0
3
3
1
1
3
2
3
3
0
0
3
2
2
3
2
0
0
0
0
0
2
1
1
SCALARS single_component_feature float 1
LOOKUP_TABLE default
0.006568108791022742
0.0037932882821813015
-0.0151861076661524
0.04670014943570558
-0.024367719327544363
-0.017840309636822656
-0.047538328657483676
0.024647779162706062
0.002591075638476671
-0.015715372432457228
-0.03976637712672412
0.023293098816849267
0.004971605050241579
-0.029512451440070784
-0.007064811338091451
-0.015736782944028964
0.010472147293632326
-0.02316806588053394
0.031271900537712866
0.013166212159112536
0.002878561401121655
-0.027828142521631523
0.05377560339919903
0.021276685244578986
0.034655506922901695
0.003926529846768296
0.012519624976852946
0.01994949414108739
0.029613633219919985
0.004257324127050363
-0.002160240917302819
-0.0032365444617791506
-0.014313553064135537
0.03482030032692735
0.01007618023902522
-0.005401554082299025
0.013802979795357974
-0.01241147324993621
-0.02841077351998228
-0.0469193677791115
-0.026734679666754448
-0.04337163668813224
0.01682381544063625
0.011752718519604266
-0.02576804159135593
-0.013669979203831558
0.017666912624621826
0.034787820253493036
0.011591303532297675
0.011971228863729894
0.0111769754220461
0.032536632777256734
0.034091047208080316
-0.037873949760968834
-0.019251531956687606
0.02216260937860791
0.0014420605545854073
0.034004849263074954
-0.010707470535905043
-0.008786698907872408
-0.012072788083704626
-0.010464337444769387
-0.01191874572620314
0.0426715245273495
0.014299138037814938
0.018306216439809977
-0.006592606846348022
-0.011294895293826109
-0.017405659481717933
0.021477883614763875
-0.01607498943237462
-0.02636198368055514
-0.031421269447749464
-0.01383831859780428
-0.001733743814465536
-0.006680653965984586
-0.009081637760762672
-0.002213109703846014
-0.0174321631837179
0.053793825592589065
-0.029513545901297785
0.014178085412344828
0.010790076948795822
0.021147788163911434
0.012502858082384084
-0.04336507884559028
-0.027995667897916438
POINT_DATA 5568
SCALARS single_curvature float 1
LOOKUP_TABLE default
0.04544023446370463
0.08002352146545684
0.1135353724017252
0.14797222834518742
0.17125025318619652
0.18526713355935825
0.18688124591431873
0.176926194903693
0.15713751509437324
0.13076762369283076
0.1036865248510163
0.0775844743159812
0.05456667484579617
0.04329026267462252
0.04596623059398815
0.06196503339127219
0.08820412669805175
0.11537568680049991
0.13872142512901667
0.15634876185769722
0.16673276065347578
0.16895772092729053
0.16333418800270125
0.152805077455892
0.13973557558506636
0.12330337206661869
0.10909678171437952
0.10397548712415591
0.11008985672093219
0.13427082647107164
0.1688563717347002
0.20066152102395737
0.24883246766335534
0.2684738355697578
0.2498405053132819
0.21708418233584947
0.25164221550134364
0.4947226848773401
0.7738011959687993
0.8959787283345183
0.9180409965066408
0.868367251701531
0.6942071514223901
0.42449925943104966
0.23328817533555643
0.17106037721067305
0.1709555906254013
0.1980267747116452
0.24780652386810184
0.2717684429465862
0.26931624577040864
0.23429606340435224
0.17772747780117717
0.14075312386927366
0.12218572022799098
0.12340374371086453
0.13374204878614362
0.14196867560151832
0.14182902814026566
0.13866177114150796
0.10233385015686489
0.06600592917222181
0.029678008187578736
-0.006649912797064339
0.04579235985566957
0.08036581543906425
0.11316924841352859
0.14795003228246495
0.1718015108182887
0.1861748145759128
0.1879715741362738
0.17821815873490102
0.15861797510982467
0.13210162372594259
0.1045944015650351
0.07788910528386832
0.054206737104392576
0.042894507664659125
0.04598535884402091
0.06264284452252998
0.08958372011498246
0.11689813281436252
0.1400869949520667
0.1573923524909693
0.16719139676127992
0.16859386620358754
0.16186297619292228
0.1501013937723464
0.1360397159265075
0.11943290962024766
0.1060079474117051
0.10231440413179316
0.11033878940785616
0.1360185571284412
0.1715596916369036
0.20414035254793456
0.2517937524383011
0.2701110690499695
0.25021659592278717
0.21830136614748213
0.252691040582583
0.495417518821767
0.7792989694961122
0.8997366659938725
0.921425419707479
0.8738527650273291
0.6996502486080554
0.4260752003315841
0.23146717528605926
0.16777448118436525
0.1659497262808872
0.1917814828059694
0.239711383128587
0.2647112677793761
0.2637976752979995
0.23211018719210502
0.18016946524409655
0.1449861686963859
0.12709239993372848
0.12735143124516485
0.13598758772986994
0.1426491563789775
0.14159087602976916
0.13834486558062917
0.10207817104525939
0.06581147650988961
0.029544781974519832
-0.006721912560849946
0.051025115008885624
0.08534330877926977
0.11286188384736069
0.14739824566756474
0.17529448547157692
0.19222310012802818
0.19532615274473414
0.18705870546601067
0.16894152999766096
0.1417555138237321
0.11162394107026259
0.08078013639595993
0.0525111097870213
0.04086044272465678
0.0465026057025088
0.0677381392066725
0.09988858945070951
0.1284384994825269
0.1506243908219294
0.16557416544133294
0.17086022448884322
0.16637406332325813
0.15257072573152983
0.133086748670437
0.1128181388642029
0.09510164008424643
0.08627544226748117
0.09144489790099174
0.11240537906828615
0.14919749943438737
0.19179471293396314
0.23031755957676203
0.2737253339768465
0.28181951182235265
0.25359888451840973
0.2273597889476059
0.26002423923567897
0.49612165241128114
0.8157565526470716
0.9232322411996654
0.9420312354352273
0.9080829074644928
0.7344695277547706
0.4345385886411126
0.2168073008233384
0.14470234410182756
0.13179436915484688
0.1487162388632333
0.18301306857471603
0.21322922207946948
0.22240754518015063
0.2147996269486063
0.19556877480085463
0.17470261921181987
0.16298923431120138
0.15702220842708914
0.15386943235400485
0.14900009748379114
0.14018958323135702
0.1348424228130483
0.09891298688477101
0.06298355095649372
0.02705411502821642
-0.008875320900060879
0.0498483555425841
0.08383049263281606
0.12012192123269716
0.1461717758769819
0.1620708826965683
0.17148145762204373
0.17093067268765863
0.15885761190108932
0.13779794845850357
0.11517530008776229
0.09478922257908623
0.07647276444917742
0.06162851305345817
0.05014343464105199
0.04622493667326445
0.05359216425208007
0.07215920591557543
0.09828216714544473
0.12407047006953986
0.14567239454102696
0.1621614924985636
0.1753516725995342
0.18855945468992896
0.19923610753260562
0.2026943697615576
0.18865247526952386
0.1594111644904447
0.12976097865576436
0.10860229051295277
0.11452003618987901
0.13737225873928463
0.16108136419838864
0.21395359821065987
0.24782972057863473
0.2489205138047745
0.21129426591015205
0.24381655950870615
0.4769141433688623
0.6944149533737138
0.8330182639004591
0.8590512020772582
0.7793016192760239
0.6087983823765067
0.39249061717810996
0.24756341664318035
0.21021527615097746
0.23675910024402033
0.2815802957460984
0.3486290076539426
0.3520554263643017
0.32625996044683103
0.251180641048731
0.13961544530448952
0.09042905514389576
0.07156124484190395
0.08585515869251663
0.11940422685880872
0.14198389516086332
0.1459693092316655
0.13740549119276077
0.09993782836358607
0.06247016553441137
0.02500250270523667
-0.01246516012393803
0.05550103661426845
0.08957879228092146
0.11428369567123443
0.14694673802999111
0.17681775744337494
0.19504789632237135
0.19880230361524578
0.19130103564206774
0.17398887708189045
0.1466610469031518
0.11548156069974566
0.0827299770726158
0.05236503916078604
0.04051869709108235
0.047178393978052846
0.0705862657362399
0.10538353449228073
0.1346977082227789
0.15645191332276875
0.17017135755872842
0.1729742323756122
0.16546790326004857
0.1485131733670401
0.1257045773546034
0.1027994753915736
0.08462737811471394
0.0776047205676387
0.08651131767847806
0.11360318612150712
0.15632280505016666
0.20265904290738915
0.2444101028209308
0.2853217813075746
0.28775346323983947
0.25565385096891957
0.23209854202086402
0.2639837757518464
0.4939882381725987
0.8327003217725978
0.9332394220367131
0.9504336152997507
0.9223868528862971
0.7495922993434693
0.43723978907854844
0.20873826984794946
0.13384045346522475
0.11608192892948975
0.1282018850272723
0.15580712843150465
0.18723409321981777
0.20094181588951693
0.20551145436746238
0.20212744075128153
0.1891883266862505
0.1812080883661929
0.17252018982737427
0.16361303525792076
0.15280176824178604
0.13956279213036077
0.13235723943980046
0.09656192316345921
0.06076660688711796
0.024971290610776714
-0.010824025665564535
0.052195676693968296
0.08645202255860873
0.1131735522506825
0.14727639548722177
0.17574560109956897
0.19304653328853283
0.19633729510206757
0.18828897219774288
0.17040001611725097
0.14316204087871703
0.11271117140219425
0.08130391964823197
0.05241218439729661
0.04070590390684929
0.046658182576509916
0.06852963038530474
0.10144464010731537
0.1302040907143647
0.15226114238624464
0.16686106111196192
0.17144840195959388
0.16610090733923225
0.15137041009428925
0.13089927041130556
0.10984397523224457
0.09198912362472506
0.08371031591013986
0.08999620955274078
0.11273954548790417
0.15120759429285008
0.19486395312547317
0.2342986189094159
0.2770142210846483
0.2835187873722199
0.2541690372946599
0.22870969048059658
0.26111840637608563
0.49565858486371145
0.8206979355378399
0.9262139431496577
0.9445627926004964
0.9123758437383467
0.7389655922168814
0.43540870778764434
0.2145183368592627
0.14150683920910967
0.12715838877816998
0.14273663972156914
0.17508131776765629
0.2057414859417691
0.2162570925029352
0.2121479750523712
0.19752612418584606
0.1788980177821519
0.16822446900195454
0.1614485542618192
0.15663408731805104
0.1500659960357463
0.14001037273078532
0.1341744487745225
0.09828433780297398
0.06239422683142545
0.02650411585987693
-0.009385995111671597
0.07123791754746847
0.10440152776244306
0.12135613716644658
0.1457315900737971
0.18022227661776732
0.20187058742859243
0.20725899584848517
0.20175782019422753
0.18661082903076553
0.15932811030802635
0.12624636179319768
0.08960948670392571
0.05528086424483652
0.04295860123717424
0.051459246919312626
0.079609799776965
0.12053752877144146
0.1522884487273751
0.17315688979474633
0.18354073395823012
0.17930693644913503
0.16366404511322327
0.1393561919523806
0.10920406497164215
0.08069453935392885
0.06172057567025176
0.058251461241290124
0.07508095572286164
0.11710320501093256
0.17645001148859002
0.23314823769428067
0.2838148980675919
0.31720558071034777
0.30334982634273805
0.2616279333859186
0.2447331023185396
0.27889237749215817
0.4843933936483645
0.8739329591612958
0.9548884267438671
0.9674499917654434
0.9515533449322683
0.7819556090597641
0.4405066915304616
0.1880316068184854
0.11129283813426692
0.08321971081784217
0.08068531933677091
0.0934731680828239
0.12348586980197765
0.14709766922052536
0.18234504054389045
0.21607655263537817
0.22467567469596647
0.22731203708847067
0.21281700103448278
0.18939948164027726
0.16296682880810798
0.13753457735712546
0.12411262164946128
0.08873669019164347
0.05336075873382566
0.01798482727600785
-0.01739110418180996
0.044557242158444144
0.07904027246144953
0.11670307649966465
0.14767182329121592
0.1673956728968593
0.17920763421910701
0.1797169770239236
0.16859140604656409
0.147833543862297
0.1227626439641244
0.09862934955504804
0.07630832228923268
0.05739081222979573
0.046211746077611845
0.04600754863943758
0.05788220695015847
0.0800580406679503
0.10652629863629871
0.13094095726826577
0.1505190060142514
0.16421168377412507
0.17157539708005876
0.17372044988591215
0.17192887200112827
0.16582992865522161
0.15054887561439487
0.13047962804108237
0.1152110477462314
0.10887566329200372
0.12405316110128599
0.15287991031098455
0.18028709705775284
0.2312028649734588
0.2583913555509098
0.24829316493520104
0.2102342391904274
0.24499419029056438
0.48702005518995833
0.737117733358871
0.8695242283789804
0.8937073174774823
0.8301427276064282
0.6569991594218269
0.41212891726329504
0.2426300265757358
0.1909697222007698
0.20253968965035568
0.23758000250352412
0.2976456048336384
0.3134267437287374
0.3006717434357274
0.24554318447852788
0.1609333355985408
0.11479547963239223
0.09375070127985702
0.10125964022899074
0.12245405994610567
0.13960969244280017
0.14362579037013468
0.13945516338306088
0.10264886268001959
0.0658425619769783
0.029036261273937006
-0.007770039429104286
0.04597178004280074
0.08053882484859187
0.1130300503754915
0.14793522895595976
0.17203706819013434
0.1865662248693798
0.18844296093075696
0.1787783781287883
0.15926251865708033
0.13268681858232823
0.10499783832513639
0.07803014621320588
0.05405813504207843
0.04272901372151936
0.045996757199597914
0.06294117347564936
0.09019182234395738
0.11757107058055422
0.1406926761270999
0.15785671120675843
0.16739617780454494
0.1684393449158365
0.16123499961664903
0.14894797696159628
0.1344630586645963
0.1177812514897207
0.10468578257114862
0.10160023565313432
0.11045123103114013
0.1367902004784176
0.1727513519981855
0.20567584191195332
0.25309689907659244
0.2708269312793514
0.2503898521802072
0.21883862954561456
0.25314584809999097
0.4956730493432442
0.7816679342152495
0.9013392865453081
0.9228622919204538
0.8761939171402826
0.701983056734642
0.426730936509296
0.23064916415838999
0.1663377544793957
0.16377481330173585
0.18906655083945667
0.236178281052094
0.261607600590593
0.26135637793253
0.23113034562666904
0.18121367263557564
0.1468334996213448
0.12925254389731203
0.12909876976403473
0.1369952614421671
0.1429670150709362
0.14149094605405108
0.13819173104890733
0.10195048945256031
0.0657092478562133
0.029468006259866272
-0.0067732353364807485
0.0512501145353079
0.08555647991877455
0.11291720322364208
0.14737461999007698
0.17538515082439957
0.1923877399078557
0.19552816753513244
0.18730424294144307
0.16923225240308895
0.14203513120140612
0.11183885699197535
0.08088208663676956
0.05248805607698253
0.040826390448851675
0.04653139890767226
0.06789409925844414
0.10019672381890579
0.12878768428401324
0.150947633560744
0.16582802941451605
0.17097602602454284
0.16631886607567778
0.15232955038991094
0.13264699591943788
0.1122199204716494
0.09447543067022461
0.08576013224879872
0.09115457859758842
0.11247120268922474
0.14959509093246132
0.19240209066797148
0.23110530848130317
0.27437697913844683
0.28215726894974236
0.25371091728796863
0.22762758099530603
0.26023993402257173
0.49603982763074006
0.8167448257449961
0.923832658939054
0.942542786643551
0.9089490740649395
0.7353739318659972
0.434718022407279
0.2163543225356503
0.14406253413683942
0.13086494075015032
0.14752145569275074
0.18142847605128903
0.2117391108098286
0.2211857894339677
0.214273777283638
0.19596305696332203
0.17553935956640732
0.16403051922968204
0.15790080186097596
0.1544168286783484
0.14921009195811907
0.14015381964089554
0.13471257439408438
0.09879105824361759
0.0628695420931508
0.026948025942684
-0.008973490207782792
0.06534778444735868
0.09886336856245459
0.1185138326520154
0.14610743382032768
0.17914690819132487
0.1996326349440337
0.2044786293888113
0.1983000005530105
0.1824124766353491
0.15505939316564007
0.12249603835646038
0.08696038753954491
0.053684537345219156
0.041512041517806304
0.0495129444634338
0.07624300497386888
0.11526483686589883
0.14611518537787005
0.16724442215522362
0.1787810197446853
0.17702307802149933
0.164192254185451
0.1422674539502933
0.11442202692969214
0.08762680967447536
0.06885879144446769
0.06434030369802224
0.07874544400897536
0.11585789711452718
0.16935508036666438
0.22243201488716574
0.2700072011421558
0.3061068934909949
0.2980268547857083
0.2595303252762645
0.2404106816464805
0.27265408404529373
0.48783696217978245
0.8602979747429047
0.9481675294434599
0.962372274453709
0.9428716868774589
0.7720746541898624
0.43994203210441174
0.1948244040581216
0.11775190039690478
0.09279186293632138
0.09563339496607696
0.11289768925349437
0.1441519501664106
0.16473207582573052
0.18984098788922507
0.21180097233339928
0.2130305265252647
0.21197591779954583
0.19925000243595717
0.1806859054184987
0.1595721859391891
0.13833201619949814
0.12716220642256815
0.09161865926793297
0.0560751121132978
0.020531564958662624
-0.01501198219597255
0.04456684058472835
0.079066954713508
0.11645308592616387
0.14772254204889296
0.16770043789887074
0.17967036124998373
0.18025634517276987
0.1692083153249964
0.14850461725654962
0.12331474915232025
0.09895323106991014
0.07636112468554822
0.05715487270457368
0.04597807839835595
0.045997740413341856
0.05816943307937861
0.08061674309544187
0.10712427530545533
0.13145651182453527
0.15089739325146811
0.16437323018524186
0.17136437776795063
0.1728909605826379
0.17040040241864604
0.16374993500785506
0.14838395244903124
0.1288027739897576
0.11434566751592232
0.10893945170533408
0.12474651534313895
0.1539770881541871
0.18167266700812515
0.23241966865317829
0.25910762065156384
0.24835011420518552
0.21065517929326683
0.24545918273537223
0.48775419871859077
0.7399021894330985
0.8716213335323453
0.895664453686611
0.8331380515526311
0.6598772845758438
0.4131790594008604
0.24209103436225918
0.18958944366558836
0.20026089513682088
0.23470515540182732
0.29412702091236703
0.31059588469478133
0.2986270167256205
0.2448978290799387
0.16223180310430982
0.11660750432889935
0.09562126813766939
0.10266679147747113
0.12306547002249388
0.1396515441565521
0.1434792054312638
0.13947296255576433
0.10270649989699025
0.06594003723821618
0.0291735745794421
-0.0075928880793319775
0.045632678340753956
0.08021115276552641
0.11331750181385389
0.14796152242556684
0.17156871452664327
0.185790098902062
0.18750895634503467
0.17766932432349544
0.15798802709249632
0.1315322409869469
0.10420487227591683
0.07775618990500147
0.054356758164697316
0.04306029430550255
0.0459760661565233
0.06235320458024778
0.08899378086680891
0.11624637615367267
0.13950158045932246
0.15694438443886274
0.16699425450916977
0.16874714709253905
0.16248397882238336
0.15124238329935846
0.13759942800089622
0.12106653030850226
0.10731328017345462
0.10301761993074462
0.11023125311210195
0.1352706992085938
0.17040368759152233
0.20265192688340677
0.250528287363986
0.26941322416441116
0.2500527843409804
0.21778049730057203
0.2522455137300413
0.49514022626301546
0.7769694303630826
0.8981509059091297
0.9199998158580212
0.8715371703381184
0.6973487373243114
0.42541662427791505
0.23225203969539238
0.16917526038882516
0.16807817390747531
0.19443735189467223
0.24315962493206766
0.2677266287395885
0.26616130776940783
0.23305157273353053
0.17913782582758203
0.14318311106297804
0.12499489339021157
0.12566017643917712
0.13502003718893266
0.1423509643105419
0.141690712705195
0.13848568361164823
0.10219341413360186
0.0659011446555555
0.029608875177509125
-0.006683394300537243
0.05849504775859096
0.09240628677886176
0.1154673350875242
0.14666736356222854
0.1776264613370687
0.19660130660461725
0.2007216974521547
0.19365825253544228
0.17681368935751357
0.14945020945225296
0.11775530240976566
0.08400119316984735
0.05255821897311502
0.040600651969379856
0.047760442472188996
0.07233696269908103
0.10859608889439797
0.1383875249552028
0.15991815666306708
0.17292424800320233
0.17425663568783586
0.16500775026142947
0.14635191813871676
0.12178817104047202
0.09750974417440009
0.07911309856087133
0.07299529750136433
0.08384429417949146
0.11432372591108356
0.16052611732843167
0.2090494353795169
0.252694564029126
0.292083966761789
0.2911434647294848
0.2568973933833394
0.23483111879459573
0.2665011074776392
0.4922047493227175
0.8420224565048271
0.9384770125310935
0.9547135689768156
0.9297217260732097
0.7575190144068917
0.43838626372127115
0.20408938697120452
0.12808341600082732
0.10777959360699507
0.11699170312511657
0.14097562417312456
0.17266621193731457
0.18878179707095757
0.20023087721993812
0.2055419703734937
0.19724130995618366
0.191499164759843
0.18138600093443463
0.16925033971710585
0.15503777974762992
0.13918897318942813
0.1307574477544815
0.09503887994723763
0.05932031213999375
0.023601744332749877
-0.012116823474493998
0.04811885938299741
0.08258664229520028
0.11245781296334074
0.1477112252770284
0.17385812771383452
0.18966931690725267