# vtk DataFile Version 3.0
vtk output
ASCII
DATASET POLYDATA
POINTS 5568 float
8.562737483967558 -0.06781262362262364 -19.738188189871934
8.538983900998238 0.07997639305257595 -18.909272880161904
8.448871157446805 0.2114147370790101 -18.07623793647437
8.282330499429813 0.33441237101879584 -17.288450624935912
8.025281001080723 0.4576977147012342 -16.55272485914434
7.669814379555212 0.580155929368732 -15.860923040280428
7.2059837612003514 0.6991148263157486 -15.2068860002379
6.625717958690159 0.8175957464095693 -14.586548843417056
5.9247592094321035 0.9401654155604411 -14.003230150719395
5.112849208302196 1.069039988808199 -13.46610425627273
4.217609037719036 1.2030361140336208 -12.98161939124904
3.275710293565869 1.3365720111272332 -12.547543957675181
2.321773059882355 1.46180860502119 -12.150867704670794
1.3829699214942144 1.5722175544375423 -11.768969355318218
0.48932271129367844 1.656278830747447 -11.374638944086964
-0.3417701550846748 1.699179819454745 -10.942759301291268
-1.1021106485702665 1.6926337931617583 -10.45072041565314
-1.7813951918482551 1.6350846793535019 -9.884384219619223
-2.368664799764181 1.5296058692141925 -9.242203977054153
-2.857356406994948 1.3782292601019708 -8.535230777558013
-3.2439164114066372 1.1817134529749311 -7.784115524819459
-3.530046591548413 0.9485313059503231 -7.004371902553736
-3.7211871321486814 0.6853621799630902 -6.200807977320248
-3.822165578679441 0.39733768028230165 -5.381587261233724
-3.8430363070120186 0.09637302616052268 -4.553884022626984
-3.8024734347638915 -0.19599852367712245 -3.7210287026095243
-3.7223700764724 -0.44837707790242187 -2.887978085553687
-3.6177628104064006 -0.62191330593782 -2.072966774228162
-3.4992794362028636 -0.6909300721290094 -1.3052427670869713
-3.3805875263861425 -0.6503231134122479 -0.6025946404418415
-3.2710457734418372 -0.5019318202920905 0.05533577552314928
-3.170894798587029 -0.2570889534457913 0.6725791895561191
-3.082658544111095 0.0706741340172159 1.2561447468177367
-3.0157856882075804 0.47000894655355063 1.8106020927305182
-2.982274295578244 0.9185563131307375 2.3390655500779904
-3.005522781492362 1.3398203383508336 2.8076151694560094
-3.074801083660666 1.6963247576213418 3.1541189381440473
-3.1593164186575904 2.0013931278898474 3.4373700333458306
-3.2523712086335412 2.237768722493824 3.6884186268323993
-3.3509471017536985 2.367902949279105 3.9354522302342345
-3.4566566909055214 2.376215877922223 4.178922399300674
-3.5560522442847167 2.252504941306541 4.422895102272159
-3.6415192886300014 1.980906056932693 4.687013997169135
-3.6927430979078224 1.4688874292280647 4.9796666679491235
-3.671093006293639 0.7479523791949271 5.209856720191517
-3.5346269384975026 -0.1087713092978414 5.381106868314021
-3.2684263012853125 -0.9844481194061111 5.48014172930437
-2.9159906100351725 -1.7980006616853137 5.556035470996689
-2.4904284279861852 -2.515745701258236 5.626842644756672
-1.966507846091825 -3.139174518147623 5.723137189489666
-1.3271428829562588 -3.660330181514272 5.865269907112406
-0.5767643105791336 -4.037414382991838 6.082312506720379
0.23505303501152464 -4.244405282263587 6.390760517514388
1.0825665881307116 -4.307009775514125 6.7763081716068125
1.951979946278179 -4.240220475688924 7.2024312800791055
2.8221624487028207 -4.063892492360372 7.621992412151774
3.682870256197741 -3.801895045545468 8.000252086353807
4.531457744677605 -3.4609058898447675 8.313815172540444
5.3700310659825545 -3.040877335435686 8.551955941271089
6.187672576066088 -2.541851328571613 8.709528569894982
6.9647799691781245 -1.9826110234591865 8.78497525701492
7.682061625854091 -1.3936245084522858 8.783597139016136
8.324573691194676 -0.8069038896852061 8.728020530183642
8.87341237296836 -0.2501437089319646 8.638484460312087
9.323803948606612 -0.07483628119529262 -19.621329463027852
9.232792403649519 0.1693934882376527 -18.711920630066462
9.03346346925256 0.4015483725740612 -17.787785454117575
8.723133158637147 0.6257417422344856 -16.910241586768244
8.287954728761997 0.8507920875559452 -16.09345066856207
7.721462269572719 1.0701630618625488 -15.338924892328865
7.014854210472003 1.2749264493693466 -14.644819164168466
6.161730293960845 1.468670995078389 -14.005186706945821
5.166439932239527 1.6580574099577947 -13.424197672219504
4.053038648936769 1.8456036540765868 -12.910060444760704
2.868270209323872 2.027034745338173 -12.466635447253097
1.673903656193506 2.1903324342165504 -12.086337624503898
0.5220376269838414 2.322875101668809 -11.744932023977661
-0.5523491712684476 2.4194108854555116 -11.40899650388221
-1.5175080431596149 2.4707275978003 -11.040853561889493
-2.371530527730361 2.4646405574980967 -10.607250997595374
-3.126526473149478 2.395542648669198 -10.079197186873714
-3.7847510942381986 2.2623169747230567 -9.436705452539474
-4.337982121025 2.0670482623058652 -8.675977050932929
-4.77610175047477 1.811119813306099 -7.813605618546387
-5.0907385997068575 1.4967548369549897 -6.883869251683628
-5.281164152079703 1.1386685020537186 -5.91691798364638
-5.353493956281742 0.7496660394005983 -4.928114101334056
-5.316865668667961 0.33984716337805193 -3.9369612027929772
-5.1913123463465 -0.07174993678981462 -2.962266845768114
-5.011463079035193 -0.4533443409910782 -2.0169320295345043
-4.814631376291268 -0.7628983820096604 -1.1103621092528608
-4.623434737278609 -0.9534509964507852 -0.26074933714707715
-4.446227464431457 -1.0002288897641682 0.5103429952171017
-4.288780555246615 -0.9022775839911312 1.199078770569309
-4.151527669154445 -0.6614077801591111 1.8468881868738554
-4.030237780366858 -0.29058071319593876 2.4638159520337113
-3.9265965059485333 0.18719121821160623 3.0512769797604715
-3.8506545685057803 0.7412507566869332 3.6047999858337194
-3.814221742423408 1.3156227083288645 4.118855798493057
-3.845999606196591 1.7937055570964002 4.558525950587054
-3.928023039676742 2.153558265364966 4.87049806584369
-4.022726453067572 2.430012640826106 5.124505874407608
-4.123613357008973 2.6155570659841167 5.352247965622054
-4.23483872362154 2.6825306620870655 5.5976955760029306
-4.374899284217153 2.597579131648069 5.88488156924704
-4.527161081385962 2.296930409754032 6.2092686502710395
-4.660230077812328 1.760457726320408 6.550813167576947
-4.728753380776397 0.9076246412013027 6.89146774799154
-4.6751027350873775 -0.16895263658838844 7.117070955359996
-4.451531520257558 -1.3530091066719325 7.247525121491615
-4.055131674984494 -2.4277954955039807 7.280316463087452
-3.5722408690819965 -3.337392644201837 7.309134555025606
-3.017984152707858 -4.087728319147483 7.342752272429756
-2.3605030888434233 -4.695152957244169 7.423571045059365
-1.5797392135732808 -5.170968449148069 7.5704840011264585
-0.6909045236124031 -5.473140080914721 7.809319014847857
0.24003074250420786 -5.586341468554278 8.14779828486988
1.184704770844541 -5.54967757779374 8.560415583051276
2.1364164036942745 -5.386355295751041 8.999887901975905
3.0751705417169246 -5.117692537147748 9.41394428788553
3.986237541215505 -4.770813233966969 9.769078462188013
4.863438954665801 -4.354747532412835 10.04720755352817
5.709919254884779 -3.8733442508669245 10.247219712398039
6.523766821054683 -3.3176132275403094 10.376486988402267
7.2879797395440615 -2.7066836276636743 10.434598987111821
7.983356950123577 -2.0764528491955985 10.427330012174853
8.59778757913578 -1.4620603094665239 10.378930204068661
9.119146961656956 -0.891597572486103 10.307057136273007
8.119904291801666 -0.06372584691113069 -19.80618346419446
8.131942500745058 0.03309779855779395 -19.01759588743011
8.09876634779188 0.11227574417648112 -18.228209708829937
8.005416534290262 0.18380364518524234 -17.481357153860557
7.836645700167659 0.256462375733412 -16.78073812223919
7.583674160375242 0.331490888364391 -16.114238691790586
7.236211454368433 0.40895322382184773 -15.474671429240592
6.785986572766928 0.4913163174426537 -14.86007354925063
6.225894344904033 0.5817889507446489 -14.27372820965255
5.5600180386804325 0.6822173394224735 -13.724905463454192
4.8072919506106695 0.7928664210980628 -13.220296653274218
3.9921888670206487 0.9114588725667702 -12.759109177562044
3.140066992274826 1.0330160775904051 -12.333420471450816
2.2728980510981547 1.1510372144707408 -11.926280347222043
1.4180834083152782 1.2534956784816988 -11.516828218551657
0.5991152916833529 1.324511456531556 -11.085410484972666
-0.1663183012071584 1.3538718743376166 -10.612745560395313
-0.8611455227989843 1.3386602968342765 -10.086264991235758
-1.4715780728627341 1.2813773187630433 -9.503794388912283
-1.9911715766824811 1.1838769801879117 -8.872745907364465
-2.4177914984103643 1.0462714418775956 -8.207244089116513
-2.7541755285557703 0.8744356603854142 -7.5164397468005015
-3.0057554132054127 0.6726213532629862 -6.80082186911099
-3.1759313734418537 0.44404229863928035 -6.063549200560575
-3.2708059107675136 0.19759896873780985 -5.306403598230486
-3.3020802868689914 -0.0499157859885726 -4.528075508593615
-3.2841392948247328 -0.2727145491088426 -3.730988358196294
-3.2274239680651653 -0.4373461836479365 -2.9325520812518113
-3.1424386759067664 -0.5193687417590833 -2.1646114653776203
-3.0458773828185253 -0.5121140681407802 -1.4506715448244
-2.9512666535667766 -0.4154197583342639 -0.7812824441059567
-2.861613450576986 -0.2372167708181947 -0.15672010089851296
-2.7805998859034595 0.014130764156513265 0.43144364553874914
-2.7178891929446376 0.33547379671255356 0.9916153573884898
-2.685718784399272 0.7192920374033751 1.5315554291071967
-2.704199409872815 1.1098911689377078 2.018500891508834
-2.7659282557129283 1.464926013351949 2.386270404887804
-2.843975891118125 1.7875875752976977 2.687531681726976
-2.9318539324595574 2.056841689055279 2.953533257038202
-3.0243857673442394 2.2288286567783286 3.206190394636989
-3.1165747942503113 2.2850643488166607 3.436590709188894
-3.1943440301789905 2.233686863223901 3.647646688363225
-3.2589452535341574 2.072218703601966 3.8741627365268783
-3.301581298769579 1.7141064663934047 4.138360136172083
-3.29416303956348 1.1632925628766126 4.364784136881415
[...]
CELL_DATA 87
SCALARS quad_param_group int 1
LOOKUP_TABLE default
3
1
3
3
2
2
3
3
3
2
2
2
2
2
2
0
0
3
3
3
1
1
3
1
1
0
0
1
3
3
1
3
1
3
1
0
1
1
1
2
0
1
3
1
3
2
2
3
3
3
1
2
3
3
3
1
1
2
2
3
0
0
0
0
3
3
1
1
3
2
3
3
0
0
3
2
2
3
2
0
0
0
0
0
2
1
1
SCALARS single_component_feature float 1
LOOKUP_TABLE default
-0.19695983665478817
-0.28903291092457717
-0.14338631149525413
-0.11459547243486037
0.27964457435833656
0.22844810511663965
-0.278551222174638
-0.04438708939523869
0.18651603675208758
0.06288859672939472
0.1998146090046694
0.29192414516685605
0.292501139474392
0.025605285297148422
0.19971553297811298
0.252121183277876
0.23056911434040878
-0.024170141390326774
0.3028843209171423
-0.17800786288152964
-0.3111000801250549
0.05699560453530445
-0.04699253840781716
-0.22786627972229867
-0.22264339999045624
0.34172712962107893
0.2982117045413343
-0.2716687643445265
-0.2990406851187841
0.06646943016445245
-0.15153249995830176
-0.14724284396878046
-0.032062191509859964
-0.08560679061415898
-0.026943972430464626
0.3882148280595814
0.42296855263744637
0.11575467524133036
0.10279390468689398
-0.32230856877061254
-0.3244686004720959
-0.15312951149468315
-0.18017344964723367
-0.3436217388249744
-0.26888005081250804
0.009194751339690749
-0.11614334008541144
0.04687357373687458
-0.03148765052864891
-0.08682247144026586
-0.06748420034141997
0.11098138749646279
0.16671477592881723
-0.05936430816039892
-0.08912581280156576
-0.15913100676550246
-0.2938850363288559
-0.22362321106069952
-0.35601571999913767
-0.28321778085524074
0.4961773698903132
0.5632710775766865
0.4385920073144413
0.4180791882957605
0.0380120802042929
0.0838726087771241
-0.23619929503280218
-0.3037096982219084
-0.11650594616946389
0.06003281112447753
-0.1170632917587114
-0.08923913302691822
0.44952801601408626
0.32622979148717723
0.10395571608170888
0.011540127003998368
-0.07292451219886495
-0.12593127094669604
-0.056636691993966745
0.07354320288046243
0.0933048000187271
0.03134654900293484
0.1716960870478012
-0.2571437268434782
-0.20215462798241834
0.011248228845543926
-0.021781076861668566
POINT_DATA 5568
SCALARS single_curvature float 1
LOOKUP_TABLE default
0.09627599634691823
0.13906957767343464
0.15711431242905854
0.16207288953488014
0.15232832755915587
0.135156442384216
0.11382259783532195
0.09217877956314623
0.07030665613226485
0.048110758989883644
0.03751540847180066
0.043481342897944364
0.06524266266851839
0.09981884107935765
0.1314271241552251
0.15160585002878235
0.16023933006951901
0.15903150315994272
0.1513102238791105
0.14077236791993372
0.1271904609649807
0.11013546812534505
0.0946256987053262
0.09180292526272274
0.10764035941480375
0.1429647768609605
0.1852094908252362
0.2143242772102
0.2211693112089349
0.20771277573318672
0.18038590293029438
0.1618672102866894
0.18775193551537317
0.1916827256733779
0.23215722637497707
0.43656037065265185
0.6775376890951132
0.8125073206505778
0.8396404546154798
0.7726022398472463
0.5753485510467886
0.32791113873681454
0.21757409968562014
0.1752749436718547
0.15445058208130608
0.16511320289016723
0.17908740944728593
0.20755171025256647
0.2284140773794562
0.22269372388859324
0.20175625984926854
0.16801479391953314
0.1321774650138908
0.11446515388139063
0.10943877522191846
0.11165878111692427
0.11620400705560373
0.11717896728057234
0.11284903046161222
0.10808507693801979
0.0786590914546544
0.04923310597128901
0.019807120487923616
-0.009618864995441775
0.0983918445767285
0.13593929638019694
0.14324769730593095
0.13903851635018874
0.12376878380990258
0.10399480651024932
0.08316003885432008
0.06494213770265493
0.04835925387938454
0.037083931090200375
0.04171227925012303
0.0649877768765158
0.10229750850671164
0.14178118090878267
0.1667584790248294
0.17212299413459745
0.16327195987468524
0.1473521069381641
0.13021422672072952
0.11526734149885792
0.10080752305158319
0.08500058699180696
0.07459863784191603
0.08347040431289766
0.11847540498294931
0.1786874556459489
0.23522280749697644
0.2613300665579706
0.2513792551436503
0.21127490198027693
0.1619552255217615
0.1459066512849592
0.18696743742610916
0.21755104720669324
0.3434525715979506
0.6062151071181923
0.7272567756220562
0.768871693609133
0.7315425053219565
0.5270370411143865
0.30885462820115295
0.18784710520135586
0.15535824738878765
0.14863574624290024
0.15216591571225757
0.1765451758534513
0.1881913082078335
0.2080936833288244
0.21718244848685794
0.19954222995572488
0.1737788822006296
0.1418677557611862
0.11240376707423394
0.10087696239747478
0.10006187385629513
0.10301656974272373
0.1064004630552978
0.10561827735978048
0.10011523646826315
0.09396885277527375
0.06747568333911322
0.04098251390295268
0.014489344466792148
-0.012003824969368387
0.08764511056218961
0.13131612476284962
0.15628505260855685
0.16903008059149804
0.1661429265660366
0.1541478895951329
0.1353643680894934
0.11338282266439395
0.08955690160413335
0.0641351244552925
0.04309301911858466
0.03742472793089479
0.047537599771220365
0.07290202012328846
0.10590604684626843
0.13235298081136057
0.1499415177788609
0.1580413437542518
0.1581519449373594
0.15300019280210334
0.1425466803146368
0.12692013578404734
0.1100525686769358
0.10104870805939759
0.10582897971543576
0.12557411277542455
0.15512885019856337
0.18110711980277117
0.19458329497096227
0.19612138914743935
0.18548131374171425
0.17441365371222953
0.1997946691677403
0.20198678114149907
0.20639352905843286
0.341564409277604
0.6040802601033478
0.824075404990973
0.8829348565584829
0.8667337394843688
0.7547706702194656
0.47385491223964693
0.28472397064121463
0.20392442809394257
0.15900052535558867
0.15749702572211846
0.17138321817026206
0.20321248907318903
0.23157727662898628
0.23441174478000376
0.21804516917377426
0.18451839172638926
0.14522112641266044
0.12352873846775028
0.11560221742640253
0.11715448594526238
0.12229410915279236
0.12427432699750847
0.12055703648060027
0.11635972882133465
0.08512919886809002
0.05389866891484539
0.02266813896160076
-0.008562390991643867
0.08056594649929269
0.12373401364442704
0.1521933943291713
0.16963947262918308
0.17157783516045455
0.16370188677259134
0.14749663253944842
0.1262424435395474
0.10192063920797058
0.07551082321028059
0.049875705651010016
0.03757766278415336
0.04077001154757141
0.05964727896952098
0.09112737254325531
0.11987209159460066
0.14150861424037317
0.1544368294814459
0.15922234799316093
0.15782581729180886
0.15006092821905406
0.13616133893076227
0.1194530127538568
0.10783966767437542
0.10708487608689668
0.1184588382163846
0.1400951634134892
0.16260014207858506
0.1781455829078075
0.18706922423752004
0.18613142540172278
0.18179302009470272
0.20925056957457408
0.21301645653904672
0.2038789072779346
0.2995294612358804
0.5431609068795042
0.8146274063147695
0.8953731297947001
0.8967885366093714
0.827440288392764
0.5727167342038937
0.3380736491240407
0.2272043440258279
0.1642247256418451
0.15437872782880224
0.167268042501106
0.19984643137479927
0.23221237239189285
0.23992031655066914
0.22652871689916643
0.19359315850089256
0.15261383677546983
0.12871163910983408
0.11910497048684078
0.12022428391533366
0.12564882462447494
0.12815488360240881
0.12473869108930659
0.12077591608227088
0.08855717790619028
0.05633843973010967
0.024119701554029066
-0.00809903662205154
0.04686991060818417
0.061383212052676966
0.053533356138413875
0.06675252657734383
0.09368310730012971
0.12073664674494929
0.15034701041894627
0.18906442701569093
0.2283667415417094
0.25296278732697186
0.2592250521922992
0.24180062696758575
0.2040235498554494
0.15959905597563204
0.11357050345046785
0.07116839802259312
0.046358976902717335
0.04120015428854322
0.05398874095528606
0.08272327810105946
0.11619094201984954
0.1531803388133622
0.19089896366073247
0.21990353265089255
0.22796698082620281
0.20993270777973816
0.17150810564981547
0.12316698590719832
0.08453153476843493
0.0812716873196229
0.13041240440420013
0.2317160615130812
0.330912277759255
0.3828120272170049
0.36643592634292604
0.29521707330324015
0.2048274588777645
0.12219885209814693
0.12045386753535055
0.29265698555664943
0.6559059334220039
0.8368230967786859
0.873292679717349
0.8439606938154846
0.6445484179702177
0.35290578409238826
0.21276182228167007
0.15919420880297291
0.19525922671554014
0.2382668829100828
0.27406086205053054
0.27598116794283534
0.24096928448821336
0.19872215698926582
0.16729354214572573
0.16099433041722827
0.1685589591745234
0.17709170428767504
0.1764267920386983
0.1726658195200497
0.1277675170959538
0.0828692146718579
0.037970912247762
-0.006927390176333897
0.04489183820109611
0.061111370712812724
0.05707598047035164
0.07532606219734415
0.10789262734751862
0.13890074293873364
0.16932508895722836
0.2031642873680744
0.2316266712843062
0.24294540160328196
0.23772212018690292
0.21448220829337594
0.17735323455893828
0.137408940203311
0.0968677849689394
0.060904846316724846
0.04345813931646771
0.0449684518533414
0.06413523692754391
0.09673063262031154
0.13052998799631177
0.1648120281191553
0.19553067649153927
0.21511302104155816
0.21537323153938187
0.19352946283721836
0.15590722251040331
0.11216656415104563
0.08107879578503514
0.08517235836575697
0.1375965213569449
0.23158349146523666
0.32392433025528167
0.3703750693611803
0.35255921357592424
0.2881209228077389
0.20211734675340792
0.1267233664960374
0.1517137577336313
0.41706253253314896
0.7908579748911984
0.9012685390313436
0.9149348694196532
0.8672293040407283
0.6076526364267267
0.31142216925770316
0.2002040311764744
0.16252446180197436
0.20366914381017903
0.24645561490042267
0.27733122525674203
0.27367112089986106
0.23461956861363814
0.19216564758144333
0.16238961225402823
0.1567456845222353
0.16404664794396703
0.1718585270520548
0.17087239714265068
0.1672165634340092
0.12371622202893798
0.08021588062386675
0.03671553921879553
-0.006784802186275696
0.09880888191131751
0.13709358282561734
0.14547552730414956
0.14203157943755995
0.1270581121512961
0.1072820026777429
0.08618733722036943
0.06749123404797029
0.05022765864836428
0.03772741678320092
0.04082864003673053
0.06229431916739669
0.09812507613819339
0.13739793987054713
0.16332101145772365
0.17054109642371737
0.16371024114681393
0.14929477357696055
0.1329430454464106
0.11822879017628045
0.10366180126078912
0.08756462395290965
0.07651410359938231
0.08409627478328012
0.11697674495839035
0.17454086998587406
0.22993732007850307
0.25679861527703274
0.24896046519502404
0.2118319488304878
0.16451209752094886
0.14739334249086597
0.18585988447348226
0.2118174967658483
0.3268981851326529
0.588637203271674
0.7237398200648155
0.7736037180444604
0.7450178216399814
0.5566163416378076
0.33187944820787396
0.1988110291100819
0.1604634369528207
0.1508930543156969
0.1523731733787512
0.17555893835015113
0.18754312801892065
0.20847804335489573
0.21879298907589467
0.20229614630179116
0.17689763989111368
0.14466649427851216
0.11447354714635906
0.10229239590415332
0.10104881816531223
0.10394431018246027
0.10746568271131168
0.10688220482610372
0.10151712030417144
0.09555344224126852
0.06874020148762475
0.04192696073398097
0.015113719980337198
-0.011699520773306576
0.058718913923335316
0.09764718685398097
0.13154502154099604
0.16055226677154788
0.17640423854004253
0.18184032697217561
0.17558862547148366
0.15975715589227452
0.13684571428197057
0.10931618291837523
0.08134824828256498
0.0558415002128014
0.041079945689385444
0.0418781276297709
0.057806644565772294
0.08505289322657542
0.11324337000095527
0.13629980776893807
0.15269807682375636
0.1622446238636921
0.16385868063577483
0.1573496325181633
0.1443125446053458
0.1297716808417904
0.11822369631780599
0.11069757127374011
0.11130474408799722
0.1204390300534387
0.13553744023686345
0.1586561074990655
0.18173462800827264
0.19943596568740815
0.23726173786753532
0.24811556137797403
0.226310347851085
0.2359526801848221
0.35877468092979514
0.6836706399176663
0.8728188917793426
0.9195736506488034
0.9123650343590622
0.7997711679053346
0.5413948975768715
0.3242797979355033
0.1928574573299018
0.154495652397253
0.1600200338668927
0.1898023474268376
0.230957869407626
0.2504986128143845
0.24562835268522476
0.21563902873330748
0.17138163663470427
0.14206564490011328
0.12808587011918565
0.12795394469250476
0.13396214745583357
0.13769453190592867
0.1349273197963492
0.13135007011380614
0.09669743091347995
0.062044791713153746
0.027392152512827547
-0.007260486687498652
0.04221544591223504
0.06030015371438989
0.060847017540128105
0.08440911167198925
0.12069114287906428
0.15377970283908463
0.1830510583825067
0.21077645973912582
0.22921249632783908
0.2299961961861186
0.2167270965547997
0.1902844594913358
0.15444096295753854
0.11780619654244619
0.0811579779074251
0.052477212169857665
0.042343662738915176
0.05054353629465211
0.07570221270240993
0.10942627081446304
0.14198870664715665
0.1723803343737064
0.19624328728275028
0.2079919968210355
0.20238388673808647
0.17813289089076847
0.1415629818144309
0.10208909591908856
0.07812843397353318
0.08871688203507015
0.1432425963580065
0.23036494091722648
0.31606950902570113
0.3575256838655894
0.3388631146643865
0.27912180954335264
0.1940524966733615
0.12974886012054268
0.19168872688139885
0.5458091512629498
0.8660893205408614
0.9303857720139562
0.932472898403492
0.8632366026341208
0.5477435900637828
0.2763950816552791
0.18947384636710116
0.16511281437008898
0.20974994422451107
0.25164452376426893
0.2778744917720104
0.26950013512269605
0.2276904829965295
0.1857914515836089
0.15782005880965821
0.15287102338647948
0.15999126341664624
0.1672160692574376
0.1659811125056199
0.1624151174012292
0.12013988532808517
0.07786465325494116
0.03558942118179714
-0.006685810891346872
0.03624327073422032
0.06398536953337942
0.08540188949000425
0.12500616658910055
0.1591356695578363
0.18547808869525792
0.19969661665165514
0.2023484917503416
0.1923493107156572
0.1702987885976095
0.1436578514259882
0.11501165021931349
0.08472939432870495
0.0584036474564022
0.04430086368449056
0.04521062860318484
0.062043211999627326
0.09081293914265691
0.1207147570964284
0.14663664880036556
0.1660944480924286
0.17746370088386326
0.17885224619380363
0.170893912049872
0.15465919477985554
0.13029473323672708
0.10339907221995202
0.08564003716005578
0.08578677091590525
0.11285208865539643
0.16377615741551102
0.2195925654410605
0.28051355089393937
0.3054483942677322
0.28514671516904
0.22914266720539186
0.17224911240387372
0.24185426281465136
0.5320845995935307
0.8486004731740163
0.9298535075533366
0.9320056628405113
0.8754547096810251
0.6260039990595935
0.3117606080050897
0.18906854002703025
0.1638216569722553
0.1751413347564864
0.22357205016361445
0.2576040893178714
0.2676344170078851
0.2460114659207792
0.20005241338359492
0.16330399975954119
0.14236166561397134
0.13996132595133168
0.14658433277893096
0.15202513294958966
0.15004701644593682
0.14664624363019518
0.10831809592183418
0.06998994821347318
0.03166180050511218
-0.006666347203248824
0.043129392703476384
0.060563258275761124
0.05950464921987103
0.08126420929177351
0.116538052533029
0.1491313584596076
0.1789749649124518
0.20883439545401228
0.230521342594563
0.2345682568328538
0.22368605248490567
0.19810218977460384
0.1617920358547605
0.12415137266741862
0.08630181750601533
0.05510378484244873
0.04252453345182132
0.04849007709800873
0.0717138354460296
0.10530799901092666
0.13843088106669613
0.17022316933416062
0.19635248658266083
0.210573133355159
0.20674990729471654
0.18317597282653927
0.146228272117418
0.10531644709490623
0.07900540433566082
0.08750858664759871
0.14144640870006106
0.23086694286921097
0.3187810002340295
0.36186864188103307
0.3434437006611544
0.2823435424603033
0.197371997426316
0.12877685362776686
0.1770502292926866
0.503342235516397
0.8462188047408188
0.9231626857705731
0.9284950052683526
0.8673598529931886
0.5694420625053944
0.2874378738408604
0.19286901563422032
0.16428807606590037
0.20790292775219343
0.25015843705016555
0.27791866864718406
0.2710449203580144
0.2300471875450574
0.1879014960127655
0.15931752852199016
0.15413470778821642
0.16130977919708236
0.16872091466148814
0.1675640236467478
0.16396993716849706
0.12129888048759166
0.07862782380668626
0.03595676712578086
-0.006714289555124542
0.047064731630014456
0.061230386184954355
0.052720535452426505
0.06495090203060193
0.09053702053319578
0.11653485166057609
0.14567567987571636
0.18513752878803635
0.2267216431920748
0.2544604443263633
0.2636588042310798
0.24790936695278362
0.21015829271889705
0.16461863236762517
0.1171361562067419
0.0734223130630469
0.04709011529316215
0.040579110213830163
0.052040666631665754
0.07965362298869381
0.11280477244245503
0.1501351832621242
0.18927583788149266
0.22046151794431929
0.2304386294841786
0.2134173379960057
0.17487696252592516
0.12547776148448048
0.08521539828094594
0.08032551905716764
0.12860325855015675
0.23154265955394282
0.33219943212317743
0.3852925102629976
0.3693258233257096
0.29641807450971297
0.20471631821936523
0.12089418717592315
0.11471002898576502
0.26898054576776115
0.6198185296071033
0.8162668211487879
0.8600559946875839
0.8350219200116192
0.6478829979197419
0.3621694962226034
0.21556177285348502
0.15833129158119977
0.19309549075987836
0.23603436599717056
0.27287818915000767
0.2760878689380924
0.24212887634915475
0.2000721886199703
0.16834552548702217
0.16192554461191008
0.16956278676812536
0.1782702806791527
0.1776866260126293
0.1739031239212708
0.12868682431290374
0.08347052470453667
0.0382542250961696
-0.006962074512197464
0.04707117311187331
0.061220936252956944
0.05268225384249025
0.06486805173196802
0.0903917509775258
0.11633954300862444
0.14545623734959545
0.18494916680240858
0.2266371011816611
0.25452263269707465
0.2638601648602687
0.248191815248209
0.21044380144207114
0.16485156824513858
0.11729953782444809
0.07352505082436354
0.047123495212098805
0.040551243072516924
0.05195243255214651
0.07951225174546424
0.11264666499590388
0.14999039408967235
0.18919531950878768
0.2204824732173273
0.23054958866489514
0.2135766044833159
0.17503154742628294
0.12558296561138077
0.08524581864953334
0.08028075878050168
0.1285174057430946
0.23153263539699528
0.33225643184523235
0.38540448364147156
0.3694575966366463
0.29647039732986324
0.2047055716718087
0.12083088683454309
0.11445257997708046
0.2679228587775678
0.6181140513171623
0.815254339700355
0.8594050890344039
0.8345756392069649
0.6479940039894724
0.36259550030823445
0.21569070928022388
0.1582899928366864
0.19299255074861574
0.23592712977391903
0.27281902195654256
0.2760887190452344
0.2421798448305286
0.20013340186745973
0.16839370451112848
0.16196841859699673
0.16960917371953715
0.17832490246604193
0.17774511319834704
0.17396058846607382
0.12872951833738408
0.08349844820869434
0.038267378080004605
-0.006963692048685133
0.04126289346519272
0.07302222319651042
0.10122253247049992
0.13897177825372944
0.16804495573699466
0.18803669547593654
0.19513596083558302
0.19025309118746417
0.1741236316752441
0.14875913467054763
0.12096917822842061
0.09289222292118292
0.0650668443439596
0.04690426380038932
0.0432702139493865
0.05416561023575344
0.07873823248898094
0.1078080641001492
0.13401465004442495
0.15484184765254758
0.1681872137168009
0.17285648325101236
0.16821954017236815
0.15652666483308755
0.14016398750983997
0.11941568369737231
0.10031930871990767
0.09191849761082592
0.09873225637283568
0.12724209364538078
0.170857459676636
0.21378801044626905
0.2663454383626837
0.2861888832331801
0.2651607901250456
0.2181333581191548
0.20920792589160003
0.377481093014129
0.6973472584975816
0.8872995927362736
0.9286636684790669
0.9082627072942203
0.7909961206983995
0.5040781876751115
0.25781044097296485
0.17185364325717678
0.16014432241629337
0.1796706796922821
0.22668444451487144
0.25644113490072795
0.26120517083021255
0.2362103365071616
0.1903086455999458
0.15593417147546754
0.13739579173412048
0.13581061270757286
0.14225172103962422
0.14712034484466685
0.1448909376118366
0.14147513450904436
0.10440850583462304
0.06734187716020171
0.03027524848578038
-0.00679138018864095
0.04312276392394599
0.06056125636878339
0.05951407816513778
0.08128666952946986
0.11656870416527891
0.1491663321514175
0.1790064140194858
0.2088505894048094
0.230513502552435
0.2345357791770902