# vtk DataFile Version 3.0
vtk output
ASCII
DATASET POLYDATA
POINTS 5568 float
7.334067013693958 0.3982229065917703 -21.1528347342063
7.355982204891032 0.3385692713949772 -20.449744084687286
7.3330806323113755 0.262217605169024 -19.746065780473245
7.273858117262994 0.1822637578108237 -19.06620401541398
7.171219348029855 0.10935297295777612 -18.42168704115631
7.028957265575788 0.05447700061999574 -17.810289964515274
6.850331622211767 0.022644189501507872 -17.224990225369368
6.630844615022365 0.015526815750399457 -16.659938475896823
6.362224425892048 0.030438330356714893 -16.111965435389354
6.037858143514638 0.06263252286666718 -15.57839043545953
5.654594016079057 0.10530777590264598 -15.054998669247288
5.210139669640833 0.15118250785270015 -14.530855265495585
4.695975265773824 0.19774565645585473 -13.991161083431619
4.099995533705286 0.24864273345433657 -13.432454689421897
3.42753310593464 0.3058893104863283 -12.863011022642493
2.707619198843452 0.36760472880801515 -12.2959402513885
1.9800757779374623 0.42745899753523553 -11.740937555069518
1.28172730072392 0.4757202348574713 -11.202265124874247
0.640093202722472 0.5026604787921352 -10.679748120561039
0.06867489630460366 0.5005304856737045 -10.169781056350264
-0.42891858207053857 0.4663595337177259 -9.666347005075059
-0.8584344999296929 0.40642348491181907 -9.161340974336088
-1.2308609507012673 0.3306921398406424 -8.643149322020733
-1.554686391739674 0.2479512371636099 -8.099722688700195
-1.8354825703352324 0.16642927199515462 -7.515700123995023
-2.0750966996896167 0.09084626706994389 -6.872140366167679
-2.2682159114862035 0.025092125354328934 -6.156365393572155
-2.4033977935115995 -0.024305864355763353 -5.372434057376427
-2.474779458720955 -0.045375116964811335 -4.545864167730307
-2.4866586827985886 -0.028135722751892456 -3.719405613504539
-2.4496664401700157 0.02105624688048772 -2.9269348031288898
-2.382627309015603 0.10239715712079474 -2.1780624412345952
-2.301909995530884 0.22687439743939095 -1.4706803694799637
-2.221276873147027 0.39732808735793457 -0.7901424763552195
-2.1489479928879938 0.6159272054269447 -0.12580705432920491
-2.115353816125386 0.8615786111197201 0.5361943324652079
-2.144955853655192 1.1286421153052455 1.1410774223265858
-2.22316484808943 1.4272743768874054 1.7039544639702342
-2.343901284223642 1.7310459957528845 2.2500191697490024
-2.49711549732944 1.9786343445705734 2.750616273706099
-2.6577782342771306 2.1372817315790402 3.157701362729951
-2.7872652457580074 2.1946601902157408 3.4609797168090117
-2.8778450707095717 2.180870998737867 3.693698150339732
-2.938604917998352 2.0657601945072113 3.9125634540092253
-2.9574027440174198 1.8544133967928789 4.098219423971559
-2.9287747927656866 1.5572050934572583 4.27988328354416
-2.847426515870526 1.1080459013777149 4.456614809489487
-2.6732757523283155 0.5869909726803008 4.622321913262054
-2.404529647912229 0.018341144828922684 4.803600976056966
-2.0201866396450585 -0.58667886559052 4.992240498571529
-1.5131438421793875 -1.143646476776342 5.199413508586639
-0.8896723967570811 -1.5817185765950899 5.458284608884292
-0.19384361521828508 -1.8612094251053894 5.7885004593203915
0.5399299451089804 -2.0070443298389926 6.177435724414133
1.2912523048190345 -2.038292768753745 6.595101333333162
2.064996771457417 -1.9713218789973008 7.022687180874836
2.870126169228031 -1.8039012376850745 7.447551517890339
3.6901958848028427 -1.5489024626361028 7.834982260029275
4.5301081709549536 -1.2275617286660743 8.144710136157098
5.384693426356726 -0.8474654779868938 8.348201502269799
6.228953476379465 -0.4082083794456763 8.437429678855082
7.0333994198293 0.07836556540401118 8.409330747282747
7.76817844051521 0.5870963013727605 8.289887350905397
8.401855824866596 1.0956514462255964 8.114987167344557
7.152036315379543 0.19265930612534754 -20.621998287672984
7.209523419631316 0.1480587789627449 -19.919319594961006
7.244960636580449 0.08537377939618587 -19.216685286865715
7.250177121420793 0.01864667985924652 -18.53964038042083
7.211277336177125 -0.04204244415744641 -17.8926187881835
7.124008182974099 -0.0878462117829121 -17.265336181224136
6.984087369523778 -0.11292794040977705 -16.651399025609493
6.784648754009753 -0.115616394120645 -16.05179812680996
6.516481143919959 -0.09771139062091458 -15.468848142066193
6.174822251419247 -0.061943472991355976 -14.90655071627739
5.760570990407983 -0.011062180481965694 -14.364994970240701
5.273652588512821 0.05287020307028438 -13.837598483051062
4.712020156159816 0.12956856821720764 -13.31697822092951
4.071964561851554 0.21922767611963487 -12.799060757451137
3.3629864032863512 0.3181648996077471 -12.28604778895439
2.6140707677011865 0.41773034526043384 -11.782797739722774
1.8621769446273562 0.5073599626045159 -11.288804135225721
1.1414759648052892 0.5776652546056524 -10.800097922215734
0.4775453427405403 0.6223268593240712 -10.312156926925288
-0.11678336204388096 0.6366270189993526 -9.820941379385225
-0.6375290725123903 0.6178722396857618 -9.323016724432096
-1.0885691934405262 0.5697661277974504 -8.81301876121056
-1.4777236526249844 0.49790388602553537 -8.282093761902717
-1.8099346801352638 0.40754980105107413 -7.721678743741869
-2.0878497903594075 0.30530746827060384 -7.120538382368291
-2.3118875605265163 0.1974063245327406 -6.464607720885323
-2.47879017642542 0.09162508558741475 -5.7457216414241445
-2.582130765470389 -0.0008551591141230802 -4.971499289436259
-2.622284596454645 -0.06651238633456855 -4.170119824824754
-2.611482337281629 -0.09677443607672793 -3.3782294879266033
-2.5654847044681808 -0.09058067095685332 -2.6197235166053723
-2.4990222069884838 -0.04377852931202353 -1.905664972020396
-2.424797018696489 0.053491195395841504 -1.2324755984788343
-2.3560008248019404 0.20947059150039116 -0.5873771016060666
-2.3035694877131214 0.43435177586548684 0.04139945618125218
-2.2886631558404296 0.7117137046067588 0.6459587668991519
-2.3233159514028423 1.0172926868795489 1.1632744445759284
-2.3913802421217922 1.3485999844640821 1.6203252117668607
-2.4866604158635157 1.6807910819530458 2.046272118348579
-2.600625686232264 1.9572446945101714 2.433275919427872
-2.714753013372157 2.1392440735776233 2.751648829325972
-2.8027151060069357 2.2199564288033162 2.9971614927069026
-2.8651158368423073 2.2247763304983628 3.205346697729187
-2.9098526934383524 2.121813465210312 3.4183988106459533
-2.9279502422276287 1.9047999805334352 3.612373955923805
-2.905818732311919 1.5798189914021314 3.804385659148101
-2.8334245078947586 1.08631295937497 3.990666318574546
-2.6791749866238055 0.5076805322994871 4.153316532501362
-2.442569352464839 -0.10896685841862275 4.3172497020282705
-2.102486615797533 -0.7491626185473418 4.479522253755986
-1.645641411424319 -1.3417682597745713 4.6557504629910165
-1.0691355783217076 -1.8254067870761783 4.88075202696282
-0.41034428984026927 -2.156247573610581 5.179623591255241
0.30058909786361765 -2.350805471696309 5.547621173044549
1.0409268693618534 -2.420842529789185 5.960790886250634
1.804442198847621 -2.384352396753418 6.3926615374431135
2.5960507817460257 -2.2487935405242356 6.8201995965801165
3.4095371842637303 -2.0216925043098732 7.209474676645643
4.247297962230464 -1.710691943444078 7.524494099191187
5.09301758055526 -1.327630015150002 7.734846296623073
5.9221289191381175 -0.8805856414936711 7.834691377983181
6.71028065448378 -0.3851269411030167 7.824561500704246
7.432301453904897 0.13356418739295006 7.727124338052595
8.055917639201397 0.6515740898650786 7.573354933176202
7.186832671617043 0.23195413022659742 -20.723471139606545
7.237506388606995 0.18448629274449196 -20.02087617328107
7.2617901674127925 0.11922783329012006 -19.318432478377016
7.254742880715658 0.05003147571567004 -18.641331013875693
7.203740278002799 -0.012938047079590925 -17.99527554170346
7.10598888581277 -0.06045094705826378 -17.37143902535336
6.958641079001692 -0.08682787146758145 -16.763268830046282
6.755330560381997 -0.09037679867755861 -16.170457206224377
6.487061085786218 -0.0730548663149 -15.594301105088352
6.148742703559845 -0.03798098884722881 -15.037552699384436
5.740512376479469 0.011302357080716655 -14.49950863135209
5.261905521386746 0.07171363281991847 -13.972794555455748
4.709659741032806 0.14255519770061204 -13.448675407722133
4.078426404703886 0.22472282132397692 -12.9232203661119
3.376857467327465 0.31564258932465283 -12.399757554184266
2.6338866261757055 0.4079540112052685 -11.884661856305403
1.8869675245129134 0.4918855068504771 -11.379307247567985
1.1707611021692284 0.557973461558164 -10.881259552180657
0.5112359755487761 0.5992427506138515 -10.386829831852504
-0.07861594504451808 0.6103918154248001 -9.892091197733652
-0.5948601569378552 0.588671878935635 -9.393150159249886
-1.041728873537824 0.538283126072949 -8.884133342749928
-1.427654965834202 0.46567071296576956 -8.35566074767842
-1.7582533990831604 0.37678720816921685 -7.798516166476888
-2.0367105234968204 0.27855211767927573 -7.200713160393956
-2.263698415222358 0.17688751086573945 -6.547293771070122
-2.435560968630913 0.0787943729867468 -5.829232564651312
-2.544917758763403 -0.005465227675178055 -5.0534332570018385
-2.5909535668745907 -0.06268557480935347 -4.24754927645229
-2.5844152004393304 -0.08401579822796182 -3.4493751020263512
-2.540115190088407 -0.06975334207994807 -2.684618973506363
-2.473547583262935 -0.016486218491417 -1.9640726484922089
-2.3981054789637164 0.08587439560348369 -1.2844621160383511
-2.32709025643445 0.24457509600347227 -0.6326718953263212
-2.2709298296235922 0.46827700718985754 0.0027646517229663603
-2.252544378693738 0.7396301344102342 0.617823661074255
-2.2862425087591673 1.0378975554130327 1.1508363078197668
-2.356084987308957 1.3629450129757845 1.626681234762848
-2.455841793721579 1.6896833422674913 2.073776088825264
-2.576694286237792 1.9607262884940637 2.4806578863094098
-2.698998957254046 2.1385306231232155 2.8145809943052247
-2.7942638060401443 2.2151377615001064 3.0702510602124673
-2.8617362721488346 2.216597397625834 3.2828151736537916
[...]
CELL_DATA 87
SCALARS quad_param_group int 1
LOOKUP_TABLE default
3
1
3
3
2
2
3
3
3
2
2
2
2
2
2
0
0
3
3
3
1
1
3
1
1
0
0
1
3
3
1
3
1
3
1
0
1
1
1
2
0
1
3
1
3
2
2
3
3
3
1
2
3
3
3
1
1
2
2
3
0
0
0
0
3
3
1
1
3
2
3
3
0
0
3
2
2
3
2
0
0
0
0
0
2
1
1
SCALARS single_component_feature float 1
LOOKUP_TABLE default
0.14781474927667432
0.08044311210947017
0.09332164034059512
0.1419480571660432
-0.16147380052155985
-0.07984002646201946
0.1811177128699496
0.03886291337847727
0.084959021610678
-0.10862974006212722
0.01988364510780985
-0.10528308684923786
-0.02766820295451533
-0.160057155768131
-0.0652081987227404
-0.13203713809187145
-0.14243239711516947
0.031206394361977044
0.17893528301809022
0.26720118130257337
-0.05753689530677517
-0.21230845646618002
-0.1566309890544282
-0.05753033788921673
-0.010191742654887412
0.009146621779070024
0.07671890299407128
0.08517823951807241
-0.06236602079683137
0.16267907250313487
0.11770554648246459
-0.007686781951211932
0.035484287993659616
-0.10743472001153506
-0.1641680371236739
0.16004795804669675
0.18967817555674088
-0.018692013830723983
-0.017917799050754052
-0.05095506083859341
-0.06642021458926523
0.19774596072489392
0.10410765207331632
0.08545883631041164
0.26024900087237074
-0.2853467008572649
-0.27937095312647453
0.10056089704391938
0.012506460891822217
0.0012319974547983295
-0.09410271695186383
-0.050195802140198593
0.07013875085374857
0.09879391911684363
0.018731301800524826
0.15223831136890234
0.22247797165814104
0.04055907253964289
0.004097379154391316
0.07642518816634367
0.3671110344636227
0.28639537264215226
0.14216710857067258
0.05393678336059615
-0.00850985884094762
0.036777994280799836
0.017715460978079745
-0.019259507759545044
0.08275751581079893
-0.19588052183947613
0.015570636472214999
-0.12177551952266369
-0.21312725667040872
-0.17334421460377863
0.041016224958110345
-0.11546691278360631
-0.11213962219320125
0.03742872050570201
-0.18984561467392863
-0.004846241436846491
-0.16240565422979852
-0.1716186917320729
-0.23791664840768686
-0.20562327346665835
-0.11074410194916881
0.07054366744786958
0.024912894360099927
POINT_DATA 5568
SCALARS single_curvature float 1
LOOKUP_TABLE default
0.0723079181981527
0.1027811620340832
0.11080646369465404
0.12526089204196045
0.1345521726781539
0.14049753601349252
0.14069310225943565
0.13007323029514167
0.11060563496119842
0.08975188514875136
0.07102747787236216
0.05602064059132677
0.04245042808992993
0.030263385536346176
0.028117108963779978
0.039060619733832916
0.06418900981760084
0.09465932873594322
0.11786232219531756
0.1313026207638539
0.1348788101143594
0.1323297521708625
0.12737941164383784
0.12172308982788266
0.1153298459043743
0.10971467016808152
0.10428020617678586
0.09790979532761887
0.09648505599329986
0.0962424305957425
0.09822173901382594
0.10001598429318462
0.11901661849767256
0.13539736000662725
0.13763260065711072
0.15641829268711774
0.19019271467697607
0.32181197446313753
0.544098621541202
0.7463859461001461
0.8330406106436017
0.815968396196916
0.7209842761434084
0.515205051311273
0.28732329619167685
0.19919401376811688
0.18070768653245006
0.18812108613438572
0.21736828176381595
0.23171534887419795
0.22125871058504756
0.18801608729858585
0.14821968095921087
0.12374293611888558
0.11292322498427339
0.1154704702682958
0.12275036073043749
0.1335289350245618
0.13952888555199064
0.14069479388740427
0.10597334263248742
0.07125189137757057
0.03653044012265372
0.001808988867736866
0.05793671771342112
0.09031089232826664
0.1123649383645026
0.13608294518983632
0.15247109640872913
0.16306375692989952
0.16466032967107108
0.15490021996302134
0.13522881927675734
0.11107548119360039
0.08744097555893578
0.06614077542225195
0.046556306086144576
0.03470570079830188
0.03515478226411073
0.049140607474070716
0.0764057041984312
0.10570364908895948
0.12901223125439326
0.14403471267081638
0.14975895319086957
0.14812917614354737
0.14153597627432135
0.13254657541941384
0.12259371506491051
0.11248780263727055
0.10351105141790622
0.09823481459326361
0.10138739459971405
0.11242826468387679
0.12988751549600536
0.14445236700155403
0.17316764242611357
0.18893116284405792
0.1794873797013965
0.18243587070814637
0.21854588163763541
0.3950788178632116
0.6585285448390933
0.8254062191881597
0.8755966194878795
0.8411112917897293
0.7086839074523876
0.46877134945434296
0.25710645171958146
0.18195845711862732
0.17124098322692818
0.1884454713229752
0.22518037749238085
0.24415124559407433
0.2381180626178436
0.20686882811056376
0.16402212054544285
0.13584647004565034
0.12220610340658994
0.12297586421814437
0.12969660450581127
0.13766916517277344
0.14010507477683248
0.13946727688228955
0.10414168021200365
0.06881608354171775
0.03349048687143186
-0.00183510979885404
0.060651792004522594
0.09265962507433338
0.11215441518657557
0.13404602613920474
0.14907799174854047
0.15886834576461745
0.16028897447464144
0.15041067014356882
0.13071559253857395
0.10709147608896542
0.08430362849442107
0.06414367645412775
0.04558985974170093
0.03367499853721163
0.03361999643931
0.04702308088220947
0.0740139099875879
0.10356761958219689
0.1268876218941108
0.1416035341878681
0.14685513167685246
0.1449868136988987
0.1386847979296839
0.13037026919289765
0.1211914344905826
0.11204001886601128
0.10371337729353179
0.09810222935378705
0.10026357379295962
0.10896128552500257
0.12337642726725995
0.13511627954390598
0.16146379601749142
0.17722960358687623
0.17005928977717102
0.17700970139510924
0.21298927765422607
0.3800011736778889
0.6363986214243785
0.8107218062490728
0.8671020352290667
0.8354838108987751
0.7102798006879293
0.47673560544422894
0.262384860071998
0.18515872849199805
0.17311545818861004
0.18873500261282417
0.224025070930167
0.24199716390956447
0.2350020609916699
0.20326413827505097
0.16095334604893635
0.13349223075679623
0.12038429761464778
0.12147609941153342
0.12829007324998087
0.13680952573613547
0.1399652609151012
0.13971298512313704
0.10451108784180704
0.06930919056047705
0.03410729327914705
-0.0010946040021829473
0.07108255677054305
0.10171790034675371
0.11098636083652201
0.1262083627441491
0.13611315747672614
0.14250966915586036
0.14288017928543034
0.1323587160350178
0.11283142874762855
0.09163360002622263
0.07243248301029095
0.05685186749393975
0.042714198060128085
0.03055568492079402
0.028630321051706823
0.03983640027747601
0.06521455655820535
0.09560356739147911
0.1188332583969196
0.13240597494263037
0.1361299301326146
0.13362435466798897
0.12851891760756098
0.12259639795556783
0.11594916798067408
0.10999621350438804
0.10424413609198388
0.09790616732274526
0.0968210589235322
0.09746655991965524
0.10074263071090092
0.10339589878267787
0.12297628327727397
0.13924991100716827
0.14051988447437236
0.15845135153898554
0.19259035475804967
0.3276228643059886
0.5537593467534322
0.7533618592247776
0.8364667805937988
0.8176841628924326
0.719528349604891
0.5106893145487194
0.28442691051849
0.1976500433757373
0.1799212998858367
0.18833261013611435
0.21821577644522988
0.232905503222786
0.22277411852213033
0.1896504396697001
0.14956695481210225
0.12477368174426863
0.11370523923493331
0.11608889031539747
0.12331330611533059
0.1338532129239649
0.13956361901498937
0.1405938208167796
0.10582393082053468
0.07105404082428976
0.03628415082804484
0.001514260831799924
0.048987515645932685
0.08624674335790919
0.11126736106073008
0.16395779211138714
0.2030477280500872
0.22442623885205296
0.22627828622190732
0.2156881328041852
0.19574185207958356
0.16538094631017075
0.13150774885069905
0.09612448980913106
0.06677336288058612
0.05761036782066438
0.06775459993210872
0.0920106692479196
0.12000561975644497
0.14403192682850469
0.1656994433807924
0.1855344014732258
0.20069629422437327
0.204908726615525
0.19382121890328466
0.1713901967744095
0.1442415243171915
0.11193418172757712
0.09858520240608357
0.11036706356842009
0.14283077064880098
0.21618250351047505
0.28951106646159885
0.3522408827886986
0.4179967096767766
0.4191923121447287
0.3786284327957578
0.2950485879037841
0.3131970834962165
0.632729936496082
0.9251959904812902
0.9757341267367042
0.9791665693976029
0.9519765075481997
0.7454129457081262
0.382907889956998
0.1906162984752118
0.13270878264713168
0.133965796137496
0.15989187733221588
0.21583144038553045
0.26034314757131005
0.28085683635840186
0.2674669769742281
0.22116027068932292
0.1811559860577362
0.15868788143592602
0.15518280502993842
0.16156274491857034
0.15867860505599288
0.14508920568654463
0.13414722533210416
0.09575412513563537
0.05736102493916659
0.018967924742697803
-0.019425175453770982
0.046435564326947426
0.0826854884177606
0.11197595430057161
0.15730113932213685
0.18951719925970992
0.20778263853980367
0.20973609746374378
0.19993108715484142
0.1806681359363445
0.1521391238131235
0.12080992565234575
0.08866878032872166
0.060982397657404014
0.05044452086560813
0.05729726562183026
0.07825809449750913
0.1061717020557874
0.13186590722244712
0.15423269954369723
0.17267883344008403
0.18488732023804055
0.1872439956234196
0.1776226423173465
0.15973075411408555
0.13849789540070898
0.11413223574040567
0.10008886501187944
0.10401046962291727
0.12430215233120022
0.17252254088386765
0.22829312726018125
0.2794871543651463
0.34224177735663464
0.35619745749038934
0.3268552095254786
0.25767042979624816
0.28584027324707567
0.5851433900881078
0.8765095683983234
0.9532532103921019
0.961021692633617
0.9209043465976111
0.7193141792807518
0.4008592172880354
0.20743800650024513
0.1469495350223861
0.1466168368058036
0.17320048474756516
0.22522026224830255
0.2602425557495415
0.2703380871120768
0.24930591803125804
0.20255758662232096
0.16592178047833964
0.14609856541609625
0.1436394841816715
0.14981442272995066
0.15067457634471618
0.14293717740046355
0.13605947194014195
0.09885881062962601
0.06165814931911007
0.024457488008594125
-0.012743173301921817
0.07894607870317077
0.10852362181240709
0.10963635591870838
0.11995932293442574
0.12583042080302564
0.12903645316323697
0.12800488026831378
0.11675382373071495
0.09786134585267303
0.07919312896522873
0.06336468524896915
0.05163552019132098
0.04124529949252958
0.02895538386363917
0.02558348254550633
0.0350609139507245
0.05862575603305404
0.08940131523131692
0.1123797434419358
0.1251199830198554
0.12806043253514487
0.1254266202034153
0.12139974637662358
0.11712416539469848
0.11190577849279795
0.1079888498840601
0.1043595222327497
0.09801309560497316
0.094866896948713
0.08991837162753658
0.08478052669134661
0.08307752232371186
0.09964547855109851
0.11674579586825234
0.12411685809758617
0.14564641389130578
0.1768580912786269
0.2908850833441519
0.491400171296303
0.7072362726154166
0.8152035423332458
0.8082603222148613
0.7306067591420768
0.5425280924115908
0.3047870860685993
0.20806608567587206
0.18499548724002587
0.18625168259583005
0.21201164062922595
0.22463202952376396
0.21254364058026656
0.17881551626336167
0.14070555220501735
0.1179936452238161
0.1085947261264887
0.11209975712130617
0.11971726037299868
0.13182813090541629
0.1393886776472805
0.1412448951023708
0.1067837940757998
0.07232269304922881
0.03786159202265782
0.00340049099608683
0.05028800098026061
0.08382317957140249
0.11276471390671337
0.14242152878977934
0.16313643675382175
0.17608114854999055
0.17802647776632932
0.16850734036658355
0.14900130899609587
0.12339574450929928
0.09729510450358281
0.07257306717004622
0.05011353180053622
0.0384854972329271
0.040577756526543524
0.056430562401760184
0.08421044447240143
0.11261986336742956
0.1358071347514399
0.15180089524557072
0.15916276552477707
0.1584451086073299
0.15097693830436482
0.13973708993360237
0.1270787927837575
0.113637725872746
0.10272411255318722
0.09894843528874629
0.10568651578408807
0.12491726090269542
0.152369277653167
0.17667023021669764
0.21431927860959915
0.2303944826908491
0.21404499053283613
0.20124421962211964
0.23686720822556814
0.44647166848075315
0.7279977907557226
0.8696516090625876
0.9027100821705024
0.8610942210926317
0.7060084481829939
0.44586989829799645
0.24153215742843798
0.17198996818315593
0.16503596578433768
0.18643906863667828
0.22775146581001512
0.250293749791998
0.24773277537019966
0.21841203192581246
0.17402565752674873
0.1435455271088956
0.12821382124317213
0.12800463769657017
0.1344715502851992
0.14064858957557586
0.14064924047348154
0.13864163327922685
0.10288955742840453
0.0671374815775822
0.03138540572675988
-0.004366670124062444
0.05887951839041565
0.09112535707584545
0.11229585506870768
0.13537179903823654
0.1512849625227554
0.1616005706105129
0.16313963119774721
0.15334051228471862
0.13365862253315586
0.10968606073903653
0.0863437619411454
0.06543934148125091
0.04620854279173714
0.034335325246221904
0.0346073305497569
0.04838895396671284
0.07556501427035044
0.10495391027283248
0.12826802912048568
0.1431831474722405
0.14873923508738746
0.1470230196373542
0.14053075936145706
0.131779494195326
0.12210209985315854
0.11233551468512401
0.10358458297469951
0.09818396057910764
0.10098260112749372
0.11119159921852294
0.12757987708430582
0.14114006591971284
0.1689997520584392
0.18475766670877647
0.17610824288149518
0.18050964530253752
0.21659026629068487
0.38973871585994335
0.650780584535949
0.8202970445672954
0.872612384757628
0.8391014201712022
0.7092024397013916
0.47151591326200215
0.2589318596710415
0.18307492038913217
0.1719011887543429
0.18856542400152884
0.22479421998542362
0.24340886261728545
0.23703217119728612
0.20560572203893077
0.16294402174526001
0.13501908091003237
0.12156499768924192
0.12244669171624448
0.1291993591453347
0.13736421633850787
0.14005447909752303
0.13955399881758912
0.1042722262011123
0.06899045358463549
0.03370868096815867
-0.0015730916483181479
0.04717642248155822
0.08387697608088353
0.11158246980754195
0.16000384285380342
0.19475125719505185
0.2141350359287961
0.21603243153205756
0.205992170103068
0.18658646068482274
0.15743098214648465
0.12513276956361577
0.0916921436447858
0.06326246085275533
0.053147180087910764
0.061161555187733994
0.08330479323335242
0.11121643066421959
0.13628637078263667
0.15840452541320643
0.17736507861804193
0.19066821929828154
0.19373185790061373
0.18360775773017815
0.16410458460473087
0.14075678336023084
0.11358997913650608
0.0995130412790604
0.10599537505979464
0.13031934837240244
0.1869030256207874
0.24912665119124272
0.30533686573294566
0.37104885301980634
0.3819237910344242
0.3494707383595404
0.27160194728689124
0.29662228267077384
0.6084435678964475
0.8982286007251015
0.9636193037102075
0.9691737823646523
0.933282562633919
0.7270790029177162
0.3935667315051173
0.20101150529042766
0.1416597179385661
0.14211998658436353
0.16876491241664016
0.22253628162011818
0.26088932955647737
0.27454390714801485
0.25606057258405374
0.20926807953398166
0.17133607137252754
0.15052902649614305
0.14765265766408978
0.153860662200504
0.1534039752911372
0.14364510969391509
0.13539453475755864
0.09779117989498287
0.060187825032407105
0.02258447016983134
-0.015018884692744428
0.04790575530260731
0.08194766069556321
0.1128112001360149
0.14515674651785687
0.16780757149862147
0.18172040885251733
0.1837378258415059
0.17426234072869806
0.15484680922703759
0.12868334805683077
0.10158186144522258
0.07543864704696474
0.05187496407615359
0.04036517319096563
0.043213267839240815
0.05990706658474964
0.08778667963852331
0.11576833910709461
0.13886341337236635
0.15528474791034722
0.1634269961682862
0.16317773521465614
0.15533875078926992
0.14304747420648864
0.12907597079878272
0.11400323573771683
0.10231569794070025
0.0994376514704285
0.10801061213040239
0.13130596782715767
0.16336242418179972
0.19225184429087286
0.2343931622394022
0.25067782626153734
0.2315894217367572
0.2103324467540638
0.24533212376149882
0.4707511505506811
0.7576862987713392
0.887667111770406
0.9144175671756632
0.8708166765521893
0.7060537988631347
0.43677201794977555
0.23511835331381167
0.16763804512461067
0.16214213872846117
0.18501138752904284
0.2283244236002963
0.2526599388558852
0.251863660682001
0.2235993585294783
0.17861929010515112
0.14709846143682198
0.13101119443944062
0.13038701589643237
0.13676301962121218
0.14210683831755794
0.14094357777918406
0.1382495315250534
0.10228889502730819
0.06632825852956298
0.030367622031817768
-0.005593014465927443
0.04708351892678239
0.08373675002719427
0.1116254622116862
0.15970939542878718
0.19416841044219352
0.21342384160638136
0.21532708484937652
0.20531676006446786
0.1859329773378834
0.15685087605629747
0.12466079904423563
0.09136207975602645
0.06300961438350461
0.05284165689240968
0.06072097363947852
0.08272789453653161
0.11063841291106177
0.13577922892775574
0.157926463263667
0.17682870055981426
0.19000732841090137
0.1929912622872477
0.18292609949191227
0.16360973283910585
0.14050671880371599
0.11366631932854782
0.09957741879102124
0.10574959409529672
0.1295900749241774
0.18517384659187475
0.24666048727330564
0.30233544579347343
0.3678040802384574
0.37911322563460365
0.3470596113248392
0.26992385609185726
0.29533741691353577
0.6060192806563278
0.8959636517169133
0.9625732126428286
0.9683368137828263
0.9319177931127883
0.7260912204632236
0.3943558086576841
0.20172844164357648
0.14225928903105722
0.14264142498431898
0.16929768262875808
0.22288566700653203
0.260849114685126
0.2740825008528678
0.2552938507348207
0.20849528203673398
0.17070845260419393
0.15001313521546222
0.14718260312595
0.15338459207927146
0.15308128399334625
0.14355990524924148
0.13547242786911237
0.09791689587014114
0.060361363871169915
0.022805831872198687
-0.014749700126772541
0.04573862162104087
0.08094312002019603
0.11259943102855768
0.15145469515968407
0.17880805540224226
0.19492073608584887
0.19696609388464859
0.18743984126857566
0.16819673553003744
0.140827285507529
0.11151584794029523
0.08220991296870692
0.056357466668424935
0.045224887320485276
0.04997715460289388
0.0687387049053614
0.09668216925227538
0.12356603939915617
0.14635328103146047
0.16378840254993793
0.17390168277272078
0.17489504062589625
0.16618340878661775
0.15122654184996598
0.1338362376184559
0.11444952925861912
0.10123687933537347
0.10117843744903195
0.11490247958346556
0.14931804217161254
0.1928611677735302
0.2330358454032365
0.2863036010067945
0.30262160509989533
0.2780886731172198
0.2334324337694681
0.2659255055213576
0.5301965592036174
0.8229800902689999
0.9251766809000574
0.9401896393883988
0.8955040252323555
0.709667090555758
0.41734943234140237
0.22075578965587253
0.15731196623561544
0.15478022063393537
0.1801888971049374
0.2281010068092684
0.25730937599691245
0.26139217283399896
0.23624048521929122
0.19011760985779574
0.15606252866083814
0.13813860364322372
0.13656566033691128
0.14278627531934368
0.14601111775669987
0.14180277892846047
0.1372300569986141
0.10070832645442875
0.0641865959102434
0.027664865366058042
-0.00885686517812731
0.04892777497687581
0.0861767961949046
0.11126256150513206
0.16386885240182333
0.20284763884338472
0.22417310190301928
0.2260248951079293
0.2154511706625396
0.19552419999856713
0.16519710901614013
0.13136325046765512
0.0960251046631063
0.06669175028066587
0.05750038734824003
0.0675876624111986
0.09178807423913994
0.11977895550374858
0.14383114166210953
0.1655102999537142
0.1853228602951192
0.2004377069206275
0.2046223595612278
0.19356171636807876
0.17120859265915897
0.14415982115697434
0.11198929895153202
0.09860803474376409
0.11023853650373892
0.14247182749541534
0.21534985320279923
0.2883948856362493
0.3510008604648731
0.41685015007919884
0.4183750382992356
0.3780773935656233
0.294584202871921
0.31292745041539183
0.6324773816690601
0.9246777007763031
0.9754998249195371
0.9789668933069727
0.951547313949132
0.7448590717240625
0.38315315525832006
0.19087425448757955
0.13293644695920045
0.1341819292307644
0.1601389128354063
0.21603826994196548
0.2603859797074909
0.2807115470587758
0.26717917681096987
0.22084998641101414
0.18089541315208627
0.15846912095851348
0.15497853423093605
0.16135196072997396
0.15853295035172305
0.14504811449872804
0.13418103273006282
0.09580994035883365
0.057438847987604486
0.019067755616375318
-0.01930333675485385
0.046119672688949995
0.082104432573412
0.11217609986376495
0.15578219783983183
0.18666908578584687
0.20435058024092398
0.20633444852928495
0.19662822217429532