# vtk DataFile Version 3.0
vtk output
ASCII
DATASET POLYDATA
POINTS 5568 float
6.916761498306333 0.021318186495495654 -19.999320080398057
7.021953727728052 0.0006656576375988384 -19.293394469066435
7.13399243703525 -0.03863774636417773 -18.58499675302145
7.22256280610091 -0.08346447078999977 -17.903402559230194
7.264907985810421 -0.12498012560419022 -17.245650417158565
7.247309651966838 -0.156746760108202 -16.592768883679845
7.1559781689739035 -0.17189048284300734 -15.939859364624674
6.9802329221416075 -0.16882346541670157 -15.295487723754775
6.708920921079486 -0.14851599835703233 -14.667770331258188
6.339386928455168 -0.11128456323584268 -14.068688528966517
5.878152094704601 -0.054552479510704646 -13.503585640005241
5.327867130451431 0.026419948218922837 -12.971189090955543
4.694838250832687 0.1341485500226282 -12.472952900024483
3.9879148755047162 0.2642296143039817 -12.003603026745461
3.2230175864034885 0.406049137329193 -11.556944799381938
2.4293073528684967 0.5433414414358192 -11.127485075006057
1.6401813429275216 0.6610893116889288 -10.70315528763532
0.886060390121876 0.7507252688994963 -10.270742765038676
0.18954699381304707 0.8103433406862077 -9.820457396418645
-0.43754114819053735 0.8391492507659044 -9.347342881364783
-0.9906236570888524 0.8348042125743955 -8.85080926567616
-1.4707864413413496 0.7974045150798467 -8.328946428047423
-1.8813014042128016 0.7263065609770571 -7.7766689040195285
-2.222169615768877 0.6215970823757057 -7.190307885874052
-2.4925157483997613 0.4875259558783186 -6.56467829849306
-2.6919606721644382 0.33270634326421394 -5.892236530317921
-2.820594408762366 0.17054045427186343 -5.170027710480234
-2.8787251153289324 0.018120834544805647 -4.4092742176031745
-2.8751351449813853 -0.10999367634626367 -3.6395582120213366
-2.831830736109802 -0.20830627541641838 -2.888969488597966
-2.771270302412243 -0.26626748376193543 -2.1706320466655047
-2.703210399001187 -0.27441469782901645 -1.4983926689352884
-2.6353009209338842 -0.2251250633582287 -0.8669047439387554
-2.5793891235614996 -0.10395050722397357 -0.2653428601603868
-2.5502845140654893 0.10943201611568419 0.32383141960370043
-2.55850740017744 0.4080456375224332 0.871238302824719
-2.6021502242863517 0.7480469793008613 1.304443642679988
-2.663625949283755 1.1133078200835294 1.660487296465115
-2.7367211130464537 1.4810037620500998 1.9723932058348899
-2.8140194627655006 1.798344643303765 2.2512985216616452
-2.8831780651187295 2.0169909245238618 2.4857645707101557
-2.9302775961662935 2.1340144846378784 2.678082914325348
-2.962244485495452 2.1712671049199206 2.8637545802479787
-2.9860076039963803 2.0979873534196707 3.070323496915163
-2.99930193227484 1.8973142131951204 3.274802427229661
-2.98141791852042 1.5640235979364436 3.4847719692173666
-2.917147252225305 1.0409536104166535 3.6908868050799986
-2.788554905069355 0.40873288785494044 3.8567496944495425
-2.5947937404747354 -0.25591405279147095 4.006217852269112
-2.3114514603217002 -0.93392154383995 4.141960262503466
-1.916927877277063 -1.5680894307448567 4.283617672944029
-1.3975205524338443 -2.1050371693575904 4.468642996337107
-0.7848516841227783 -2.4935750133488312 4.728654680009484
-0.1034622471250648 -2.7428970900590257 5.067428839238571
0.6213872026792773 -2.856775112022895 5.468991214892448
1.370565546074229 -2.85452013453775 5.8999244040060725
2.1433941365420655 -2.754507592179415 6.325915818663633
2.9454423026956222 -2.5577147627774255 6.714963177623016
3.775948586814058 -2.254449341165397 7.036185393097899
4.605474727837941 -1.8629044383997468 7.255164109856631
5.411039277557846 -1.401784074671057 7.367812125014907
6.17534607872708 -0.8908576445870746 7.377522499453864
6.878649993431112 -0.35540433596122634 7.301360735014402
7.486524593523394 0.17805976518548683 7.1635182541314055
6.888935977293876 0.13634595834202975 -20.01662928570814
7.001638272224284 0.1251297641190842 -19.308994865809183
7.123297528508522 0.0975483527587735 -18.599687152380746
7.221616199417758 0.06341199960863375 -17.918257863882012
7.272328245956832 0.030126124780491023 -17.2612734894428
7.2604273285659495 0.003759064724039571 -16.608989174356207
7.1713988373062625 -0.008708164703912492 -15.956495559993522
6.994036559363474 -0.0053111348644716465 -15.311590184010448
6.716537892613466 0.012878996383399496 -14.682023517007014
6.336582002633246 0.04543631734494048 -14.080541577822988
5.862228072348906 0.09519915260490759 -13.513478143596583
5.297256511330582 0.16716136392846145 -12.98069942670458
4.649737664035986 0.2642139323069077 -12.485092943304366
3.9315949152306806 0.3822627460629023 -12.021233982985802
3.1594579524724637 0.5111984445873676 -11.580457828014227
2.3610895016748876 0.6356194787835816 -11.155218472420644
1.5681443500378363 0.7411431352856295 -10.732850518151508
0.8096442530989465 0.8195397309979817 -10.300102482593678
0.10773907635609048 0.8692118771029068 -9.847017321523182
-0.5251646158941915 0.8896603806572756 -9.36867074578894
-1.0835459632951743 0.8785080090068592 -8.864924723659334
-1.5675402544987824 0.8351523088746892 -8.334501078011474
-1.9794192892112266 0.757722433673748 -7.773056363737923
-2.3179457681306035 0.6451657799991886 -7.178381748895363
-2.5817192602840278 0.5012899280313053 -6.548013359974432
-2.7713700731199227 0.33527938212780595 -5.876497994563666
-2.888272118306389 0.1612104452659087 -5.160625951085335
-2.9339163230416165 -0.004178980767782031 -4.409682105039804
-2.9184775836595906 -0.1482318329587556 -3.650054117167049
-2.8651699077741575 -0.26741538647738605 -2.907349867757591
-2.7981290237938103 -0.3488335513712157 -2.194081142508541
-2.726609048394266 -0.38160681920892625 -1.5258661674332354
-2.657015206050037 -0.35894186621736807 -0.8978641152123292
-2.6002350549807014 -0.2656542325708667 -0.2994360232301879
-2.5722994244438024 -0.08062629098882798 0.29144679568556064
-2.583899613587893 0.19332265553268826 0.8449968619293384
-2.6320819585799002 0.5144906572111843 1.284542947113117
-2.6980144495844627 0.867733851461105 1.6452866908274901
-2.77442541926221 1.231984385758769 1.9592141676637853
-2.85293288193186 1.5564234094924114 2.236333305589179
-2.921333287777751 1.7923598553503086 2.4699179143364884
-2.9667495977211584 1.9306379037379644 2.6645299606197588
-2.996331572257282 1.989134179777814 2.8539910478570727
-3.0156925803490067 1.9398504255335522 3.061260697251073
-3.023340512754059 1.7721193954465109 3.266996591031778
-2.999174859989585 1.4771971399692236 3.484916665611215
-2.9291816099103136 0.9934636723627773 3.7029747520742715
-2.800342393304973 0.39434903826986556 3.879383668406482
-2.6129077370108917 -0.24506711621971522 4.038115569361899
-2.339326740095373 -0.9069520535362915 4.179681506308355
-1.9562057364666214 -1.5309040318034008 4.321823022257502
-1.4490170645816878 -2.059688584366806 4.502948479368976
-0.8496865444380107 -2.4404071689981444 4.755426054351409
-0.17857364015905197 -2.6846192658989643 5.08389629963441
0.5393013026226539 -2.795065025595052 5.474054868461463
1.2831552040620364 -2.7900847502618844 5.894680830634917
2.0498604713278823 -2.6875197850024337 6.312578025733905
2.8450748870129674 -2.4870967365106944 6.697369305928923
3.668151088026211 -2.1768402491381003 7.0183888841714
4.488816184664467 -1.7776639417283282 7.238091055913758
5.285209265309954 -1.3092675998270495 7.3510651079867975
6.041504085612622 -0.791213031170788 7.358631245800083
6.738098003893366 -0.2488635008994452 7.275183077587405
7.339163458208711 0.2904609648470342 7.123371807192351
6.960110570992123 -0.15788231222751326 -19.97235426010725
7.053708256187739 -0.19318605546413956 -19.268697474409404
7.150894800900148 -0.2507391650268641 -18.561096023142877
7.224358203991515 -0.3122573698708242 -17.878646763168305
7.253670929942509 -0.3666441963241342 -17.21928306541644
7.2271723934364385 -0.40685001213677485 -16.565285135557687
7.132242555369612 -0.4261707946632946 -15.911691647783138
6.9590106245370364 -0.4236169539732118 -15.268145187724384
6.6972399062403705 -0.4000339015985081 -14.643230735037243
6.343648951252324 -0.3556056862947239 -14.04770284154246
5.90236719730478 -0.28816601451509594 -13.485404316939656
5.374322095751055 -0.19333556479213304 -12.953321755457766
4.763153215777182 -0.06910654133099585 -12.450697302112133
4.073085104189574 0.07970157122169162 -11.972501056142823
3.3189771626268487 0.24165462165617757 -11.516413945822315
2.5321357648887264 0.3990693222892281 -11.080167735819538
1.7486332256828232 0.5358922247263115 -10.652611689420027
1.0010452654912578 0.6430020181865842 -10.220569005742817
0.31267804044422065 0.7180078259677004 -9.774489915700938
-0.3055532207851741 0.7596827663297447 -9.309357451777837
-0.8505245107728618 0.7657847125171805 -8.82387392150948
-1.3248096936965248 0.7375130311300696 -8.315136835712865
-1.7332515909223702 0.6761191374508094 -7.776888746567101
-2.077806692293164 0.5834498935325396 -7.203163673478458
-2.358487378411772 0.4644802530755879 -6.584504079488586
-2.5734006992759673 0.32700991807001584 -5.910043824895301
-2.720621408174904 0.18341908629604686 -5.177163365786079
-2.798539910694307 0.05132490669842535 -4.400097129982479
-2.81364415516164 -0.05181178295511968 -3.6134077592390987
-2.785979232012236 -0.11750961744998996 -2.848947245485722
-2.7354370651036835 -0.13883471484163734 -2.1210003397437633
-2.672628284119534 -0.1083235781993934 -1.4406259629540297
-2.6071496322627215 -0.016846904140909696 -0.8015197127782875
-2.5524175313451125 0.14908987596821077 -0.1928183545814094
-2.521351722214227 0.4082652751215136 0.39576934468044644
-2.524257716437551 0.7468081232520636 0.9351373983475317
-2.5608152560853528 1.1174226237548188 1.3593162923518374
-2.6153302365024325 1.502066281036241 1.7083554445693505
-2.683263927299459 1.8752220344553256 2.017172736583002
-2.758724773462787 2.18173569765598 2.2989080157480384
-2.8291810348997295 2.3749977146692127 2.535243676831663
-2.8791495730799928 2.4618482757898357 2.725834427903591
-2.9153653530074397 2.467867952366915 2.9096121430224975
[...]
CELL_DATA 87
SCALARS quad_param_group int 1
LOOKUP_TABLE default
3
1
3
3
2
2
3
3
3
2
2
2
2
2
2
0
0
3
3
3
1
1
3
1
1
0
0
1
3
3
1
3
1
3
1
0
1
1
1
2
0
1
3
1
3
2
2
3
3
3
1
2
3
3
3
1
1
2
2
3
0
0
0
0
3
3
1
1
3
2
3
3
0
0
3
2
2
3
2
0
0
0
0
0
2
1
1
SCALARS single_component_feature float 1
LOOKUP_TABLE default
0.011532178542762853
0.02943248906557407
-0.0163545180479018
-0.07023373720994544
0.01829886538355227
-0.047453060693114175
-0.024569401618969783
-0.04493553434268398
-0.013490770314899099
-0.022925951591018765
-0.024463509950604753
-0.19026110169974658
-0.0671801188273919
-0.04922717962504278
-0.07991779513811754
-0.0045067910770096725
-0.08406790915322057
-0.14067027193242398
-0.014973710711202473
0.0023924543838623608
0.060142950274810814
-0.04331883141816294
-0.1488281922351833
-0.10436919852164193
0.06865361965039322
-0.15573804222880075
-0.24688442992134263
-0.26584802399715357
-0.02457621360709967
0.1329075866246732
0.010074634611886055
-0.08448487673246322
0.01555741361327128
-0.10622875801202979
-0.1511790460473743
-0.07373064002183627
-0.009496955513362576
0.19335043815930242
0.13933496159986747
-0.03240468808924625
-0.025200761947099783
0.004004090700329865
-0.14993309858670478
-0.017533198539614925
0.03640454743207845
0.08366688094094779
0.17546856368892277
-0.010471263532067676
-0.021815608215359078
0.03339097202981689
-0.04909908618742055
-0.014631764357873903
-0.06068279142822005
0.00968628929539795
-0.055309634368754454
0.557850443428886
0.14734599471532958
0.18911676297977517
-0.0634679431311482
-0.001505649017082035
0.05662345923656807
0.08820165665764831
0.05907247440454394
0.038579091380982033
-0.0898216588903454
0.03848354840346134
-0.07828584139098388
-0.05502449345782631
0.12988968924685207
0.15970261408355516
-0.0795727424246034
-0.12810935398037537
0.26237821475566825
-0.051441924127567734
-0.03515708353870178
-0.06409242096921924
0.02867001336883883
0.0921781422005024
0.08544492371686407
0.12653817064859021
0.20887325390943334
0.1247139156015364
0.10162146671323959
-0.024379136779769592
0.15501340099656552
-0.162861941291352
-0.09387951800520933
POINT_DATA 5568
SCALARS single_curvature float 1
LOOKUP_TABLE default
0.04615242331387337
0.08156028553064579
0.11486394415706715
0.1510409567581825
0.1759313540378034
0.19011807596134334
0.19094062410733098
0.1803097972604622
0.16030155856601094
0.13328671949159637
0.10502649832072748
0.07719178543247261
0.05246814523179102
0.041371415172900994
0.045502673104768625
0.06356364927369909
0.091492152842152
0.11875993154181302
0.14179964347942486
0.1592315975007626
0.16908545302224906
0.1700282905049853
0.16215304044088402
0.14859045221129724
0.13237381305145066
0.11395663078989426
0.09977924314372243
0.09662572959953554
0.10642102859538559
0.13541314812524458
0.17442513439113375
0.21074198861546964
0.26114029892835006
0.2809045950678307
0.26245368449156375
0.22262632579659464
0.2333214904301063
0.4404230054334862
0.7438692127649656
0.8939261947711259
0.9251163364523944
0.89173188312659
0.746143756225281
0.4653988495907289
0.24462325233605783
0.17001461492343967
0.16047762713192648
0.18291431085796817
0.23061151008255534
0.2579930865202383
0.25969256696780374
0.23223074434540109
0.18534754337197784
0.15207320245401323
0.134843117576163
0.1335949424856243
0.13990631730683217
0.14474847342057312
0.14301923965397387
0.14070856154861172
0.10429137524796175
0.06787418894731179
0.03145700264666182
-0.004960183653988148
0.04591112963406076
0.0827296355093207
0.11828605164707633
0.1561457057235146
0.1813808006046723
0.19442026467207318
0.19325446640731425
0.18077419947400705
0.15969255460479562
0.13218962010562466
0.10364802839210704
0.0753586523055629
0.05052804637329594
0.03986659993658107
0.044752734140975255
0.06358522076086706
0.09145577425903198
0.1183196576576999
0.14143841441041147
0.15973025480503922
0.17094475492105365
0.17295666722209638
0.1656240454371564
0.1518269223392039
0.13429161263792488
0.11342219249585872
0.09645600963560007
0.09113611580293245
0.09946033729257027
0.13007307085013534
0.17232308720920586
0.2127583378661581
0.26870156695701763
0.29394837020740605
0.2808512413473783
0.23216516735037027
0.20925269739010682
0.36010356180750064
0.6639638412942882
0.8715400566326325
0.9218299302024392
0.9030015212294057
0.7963684111685136
0.5250285737073724
0.27243759334660933
0.18311218160644455
0.16410157859534905
0.18305846339433007
0.2343100541493324
0.26319411780715973
0.2656328135245638
0.23746493662813953
0.18838449360543258
0.15404886252540442
0.13627149351454904
0.13468576088928133
0.14099150364316299
0.14639129838877885
0.14570260923639128
0.14518784277159041
0.10842598947994644
0.07166413618830247
0.034902282896658504
-0.0018595703949854658
0.046923723835274656
0.08032764572986141
0.10998643240432246
0.1436383457708493
0.16790475159232443
0.1836569055687798
0.18737293175544376
0.17950203269601475
0.16111507112994328
0.1348762791974427
0.10707009911023545
0.07996960251305062
0.055616113774428204
0.04387625233941539
0.046824046009732424
0.06369049460027969
0.09157963008232776
0.11946540728826156
0.14234196601850332
0.1583515387972563
0.16605198033786162
0.16536235393356669
0.15669054717737899
0.1435290704232694
0.12930057583768176
0.11466460779325491
0.10472405828992006
0.10477834657548789
0.11642604361215472
0.14229358228576078
0.17611784987169457
0.20612627159013283
0.24821986954134562
0.2602198220403978
0.23474333211465892
0.2187388075011372
0.28790715543221235
0.57378431082169
0.8341020357386003
0.9160893626201363
0.9252145827852324
0.8609277823971666
0.6444812904693035
0.3785116503036641
0.20919265676892806
0.15548788308667802
0.15812821103239147
0.18396648567667992
0.22588139927509687
0.25057651574885553
0.25092537358502787
0.22443423657109576
0.1807792237881009
0.14913821066709373
0.132804786806238
0.13205923613848813
0.13831720389448932
0.1422168149253133
0.138812425526886
0.1337797119325636
0.09792407874976318
0.062068445566962754
0.02621281238416233
-0.009642820798638096
0.04930859164355424
0.07964611493741294
0.10244052718020365
0.13166902289206212
0.15446431483083284
0.17240011164779434
0.18088236031507832
0.1778125453329211
0.16227233685593745
0.1375113634733651
0.11060746394755515
0.08500302138641493
0.06192917333452547
0.049087148454524616
0.0497389954334548
0.06434839200632399
0.09187123667051088
0.1209078085028366
0.14332937312900126
0.15632752938307465
0.15981093589906248
0.156092214458655
0.14607228733534297
0.13382225586267793
0.12311097840053657
0.11524148571184534
0.11273737472988193
0.11806193078262786
0.13159306004073884
0.1500620592440662
0.1740075689982451
0.19294652184561314
0.22088090194155705
0.2206441231804547
0.19226527619196973
0.2321451891325473
0.42150965450120154
0.7662549935294092
0.9059986973334205
0.9283442316790272
0.9036031727339983
0.7378335945982637
0.43069212283507924
0.2529995221932487
0.16384602946488896
0.1415578563585118
0.16058742819552016
0.18796937031813113
0.21925479505459464
0.23823028289085707
0.23551637859457267
0.2105122954286454
0.17248978008118165
0.1439361408118848
0.12948587297656358
0.1296334116411963
0.13559339312594518
0.137453750981052
0.1307194722429857
0.12113827037018675
0.08644776259099628
0.051757254811805806
0.017066747032615334
-0.017623760746575137
0.04603483592265305
0.08196535679777547
0.11613266549059645
0.15294074018471834
0.17796662570996113
0.19173222582605925
0.19181452062550192
0.18049113413729662
0.1600795586428983
0.13287888885753088
0.10451121572862838
0.07650301944651981
0.05172618779875625
0.04079206962962619
0.04520922181300096
0.06356157225653458
0.09147668989278107
0.11859241537758643
0.14166435059402369
0.15942635001847652
0.16979690835096253
0.1711420563094127
0.16346920472179663
0.14981594757396652
0.13310411661992133
0.11375938962759992
0.09853138728888997
0.09456612280396602
0.10382917581524286
0.1334732462401175
0.1737221137781491
0.2115947325684098
0.2640749070952349
0.2858671642818389
0.26938222581996213
0.22518135954867025
0.2227465963758486
0.4086365551774368
0.7152502794927137
0.8863309564795501
0.9241803464053187
0.8966841498273076
0.7667421843941763
0.4878447342820773
0.2546654925758245
0.17458181800133865
0.16162400778614056
0.182873897444103
0.23194152566233886
0.259916204894638
0.26190842059443337
0.23418768496288184
0.1864858175830003
0.15281148385342916
0.13537193013770946
0.13399753564991004
0.14031056676008852
0.14536808498780399
0.14403585814941622
0.1424019022590677
0.10585294880177404
0.06930399534448037
0.0327550418871867
-0.0037939115701069726
0.048194886528726846
0.07968697093150352
0.10530015260263986
0.13631310206332956
0.15976743596326945
0.17692093225623817
0.1835324719142745
0.17853003863964764
0.1618437139839571
0.13646928069259662
0.10918275872250949
0.08293427904599567
0.0592414881799642
0.04684121397859548
0.04846376110412191
0.06401704482041941
0.0917268245963218
0.12028408114106956
0.1429205483786974
0.1572318093259169
0.1625018134537897
0.1600435214282765
0.1505609987994581
0.13790269594048707
0.12576473375021188
0.11515307108366539
0.10965457556904876
0.1129249240911435
0.1259358468142832
0.14768287473746597
0.1757295806338758
0.1991101550371973
0.23267389802229999
0.2371682552074087
0.20753911864120697
0.22284316822551667
0.3618879753227598
0.6998745170905906
0.8875476778700477
0.9272306215427505
0.9170460289785898
0.801372167377502
0.5174946165635437
0.2987825712283449
0.1798622060279567
0.145727951319613
0.15879176576485057
0.18612812420797617
0.22173767119026905
0.24316492836632034
0.24179908402795833
0.21622351698169046
0.1759107747633962
0.14606279169985895
0.1307925058981463
0.13057476322788952
0.13669017606517983
0.13944427016626482
0.1341227829619102
0.12630275626845755
0.09110723234307336
0.055911708417689165
0.020716184492304973
-0.014479339433079219
0.047224346269164746
0.08008804343015395
0.10866652154691823
0.14160123883774292
0.16566436680208765
0.1818230891431121
0.18633983045585018
0.17924992658745037
0.16132497204142304
0.13531583169051797
0.10764601834948201
0.08076735372606103
0.05656517625161969
0.04464475032144929
0.04724277961856062
0.06376002641810154
0.09161318132326747
0.11967821007660384
0.14249732565258608
0.15806939821813307
0.16512987984810573
0.16396762705469078
0.15507338307418445
0.14203891237633268
0.12837705833942717
0.11482968558948592
0.1060968846785854
0.10704260139812016
0.11912422609427298
0.14395726275480614
0.176245236312785
0.20445034410691923
0.24420542413489482
0.25410401184763126
0.2270348025997715
0.21897144170240143
0.3063551651584061
0.6105380604980895
0.8523595973413243
0.9202534355332934
0.9240083652036838
0.8480897283305777
0.6111899883405855
0.35548961152851766
0.20048351137141257
0.15234429938224156
0.15803190287851357
0.18446895198295515
0.22468612571720092
0.24853638022827496
0.24845020559641387
0.2222171557491982
0.17947042316218856
0.14830595874113914
0.13224693276778962
0.13164412290760044
0.1378726333533507
0.1414787526420908
0.13757144925378784
0.13176971261580459
0.09608505573683983
0.06040039885787507
0.024715741978910313
-0.010968914900054444
0.048079835171165444
0.0797127799949186
0.10564712151831232
0.1368655650225668
0.16038973055190026
0.17744391108970886
0.1838351938292555
0.17860987904657966
0.1617911828190018
0.13634756537014242
0.10901873172821673
0.08270007404484668
0.058945363520797635
0.04659615455307457
0.0483260477348201
0.06398467046568307
0.09171281959316037
0.12021644577778004
0.14287463877606732
0.1573275506761402
0.16279490147488906
0.16047771045309914
0.15105758286327017
0.13835625191049344
0.12605485984087975
0.11512828831752525
0.10928433657514712
0.11231119938634054
0.125240067427986
0.14733887274620838
0.1758476215836749
0.1997426372549257
0.23396243633248914
0.23901908223113227
0.20950529884230545
0.2221642217081547
0.3555201963268815
0.6911212256585842
0.884629108539966
0.9267685340681846
0.9181016269900564
0.8073493007867741
0.527639298242395
0.30448046589330285
0.18188943444024055
0.14632098191625117
0.15864686190427768
0.1859324120337851
0.22203748852196978
0.2437345700192552
0.24251371231706212
0.21687005951596972
0.17629626379443067
0.14630424433861508
0.13094544731951008
0.1306862386808125
0.13681626401790192
0.13966645035179617
0.13450113653865176
0.12689251877176172
0.09164227490767549
0.05639203104358925
0.02114178717950302
-0.014108456684583215
0.04682590549247404
0.08042376309139848
0.11045963781095954
0.14436464198634405
0.16869988837930322
0.18430433156006526
0.18773548184724323
0.17958869508413805
0.16103881042617452
0.1347199362646832
0.10686644498178523
0.07968918852720625
0.0552872146201157
0.0436112856620171
0.04668091658566709
0.06366943143997643
0.0915687962346053
0.11939177773227834
0.1422873545777218
0.15844750366892346
0.16637054742942492
0.16584658524053889
0.15725366839813668
0.14404888728220336
0.1296206485954766
0.11460175077465125
0.10423517493535159
0.10397233987898118
0.11545648234251589
0.1416737494824657
0.17603387203694768
0.2066781930044795
0.24959989793510134
0.2623524286686994
0.2374935873837083
0.2187918286261728
0.2816918910428494
0.5605341733659717
0.8269094068430789
0.9144080303018183
0.9254938649462112
0.8649616248845666
0.6558598528783623
0.3868501824531708
0.2124053174722503
0.15669392427167292
0.1582175403981936
0.1838075433054136
0.22631736320800191
0.2513024933568438
0.251799454114591
0.22521547091414035
0.18123938390176092
0.1494317531796176
0.1330037683615149
0.1322078921538411
0.13847469638566157
0.14247499198487876
0.13924507789472745
0.1344847726354206
0.09857012193631504
0.06265547123720946
0.026740820538103893
-0.009173830161001678
0.04716193324311616
0.08013176473711478
0.10892605506251198
0.142003177428693
0.1661076512835112
0.1821870885197079
0.18654562418311718
0.17930073893045684
0.16128401786319185
0.13522896060646128
0.10753179575678656
0.08060855988511477
0.056374693687662084
0.04449005075037879
0.047158080684467744
0.06374506896700642
0.09160617195374213
0.11963544577200515
0.14246639631792105
0.15812664841392904
0.16531531220551524
0.16424730241478447
0.15539709514117908
0.14233688274309217
0.128562442068868
0.11479854607790368
0.10582590814133047
0.10659552820456263
0.11859455131366907
0.14363809025531052
0.17623317053330295
0.20479641298235413
0.24501478864326942
0.2553269436467627
0.2285533076527581
0.21887894902541163
0.3025942773505135
0.6033510780234402
0.8489771524265987
0.9194960745388037
0.9242993548964107
0.8508134033181515
0.617909438750551
0.35998597819274525
0.2021669941068269
0.15293712108297736
0.15803316631516992
0.18436339501237192
0.2249189129765492
0.24893958091598964
0.2489415949664837
0.22265787864779318
0.17973093503530302
0.1484713003125015
0.13235700665974717
0.13172583235821467
0.13796071898937168
0.14162609914250873
0.13781967159863923
0.13217020247834943
0.09645114227477453
0.06073208207119962
0.02501302186762472
-0.010706038335950185
0.04722029192305409
0.08009079790698684
0.10868317479910072
0.14162705101235878
0.16569285308701442
0.1818464980315917
0.18635307602809187
0.17925320570906975
0.1613223487344666
0.13531025048210857
0.10763867384433921
0.08075713451908319
0.05655289431431173
0.044634768787105206
0.047237308770355736
0.06375904732424066
0.09161272516462572
0.11967545174160872
0.14249533504953354
0.158073099036896
0.16514184190331044
0.16398565674286847
0.15509424310804398
0.14205810874935992
0.12838901241619907
0.1148277086001018
0.10607948226146041
0.10701388730790476
0.11909025351322776
0.14393690457162736
0.17624466039369382
0.20447280199060933
0.24425766291157947
0.25418279484603035
0.22713225750255736
0.21896478079932702
0.30611182195879866
0.6100776861437314
0.8521455717273246
0.9202057472087644
0.9240278856162686
0.8482676263593049
0.6116236004824789
0.3557776455832729
0.20059111238344535
0.15238197085328634
0.15803172529998913
0.18446208079358645
0.22470103216298035
0.24856228604219943
0.24848181041576972
0.22224551039106905
0.17948718872751623
0.14831659475757367
0.13225400214374672
0.13164936757725887
0.13787829607920363
0.1414882418098966
0.13758744178812818
0.13179549084793873
0.09610861430205
0.060421737756161276
0.024734861210272546
-0.010952015335616183
0.05598516544866253
0.08416929277070163
0.09671906577818701
0.11964520779419079
0.13899539224680077
0.15776101786365915
0.17183302120421903
0.17556170773898436
0.16363999774788865
0.14116276421672153
0.11609755126253468
0.09412323872230495
0.07555056227422649
0.06104496963576061
0.05669299873935254
0.0667091951047711
0.09320433202162957
0.12460202196540629
0.1453678709700453
0.1507267843459993
0.14502097104938666
0.13504725071938395
0.12308079747852993
0.11353986821590278
0.10850824950113903
0.11106227549693799
0.11972307307895698
0.1312639481703703
0.1423702545842785
0.1440907804630482
0.15046836439018546
0.15354832995598014
0.16153828951856025
0.14607846101176133
0.16461191476221657
0.3422830857096717
0.678176522964796
0.8597640556350075
0.8898876402880415
0.8528747895764496
0.6642026072918591
0.33104313797816387
0.16874982792187085
0.12735901512442052
0.1197561446453094
0.1351421261028748
0.1726281578659466
0.19611195990213062
0.2101154094569098
0.2173006411385918
0.20718397564091426
0.1841227643849785
0.15631140725785164
0.13429327095110846
0.1246514480339269
0.12644252208155965
0.13100365332624708
0.12765240169468284
0.1143017319934389
0.10253110920660774
0.07075150081699558
0.038971892427383414
0.007192284037771252
-0.02458732435184091
0.049152641332763314
0.07963203805467392
0.10279374629951821
0.13225315296478962
0.15513932070019762
0.17298250875044793
0.18122718122514017
0.17790754378784707
0.16221953172656095
0.13737792649563052
0.1104228604654402
0.08473117132583555
0.061568576890689446
0.048783597143940066
0.0495654422134753
0.06430032415382368
0.0918499937908992
0.12082294378690212
0.14327522475950163
0.15645257371392504
0.16017538965681183
0.15662393758825918
0.14667315245700482
0.13436640106354353
0.12346955841459659
0.1152444600176805
0.11235338433270414
0.11741859690992602
0.13090280167452129
0.14981898040632774
0.17430459372603288
0.19381532299761398
0.2224711785260481
0.22283167218608152
0.19403790525281817
0.23056484103947295
0.4133693105220201
0.7586804728710782
0.9042413079867778
0.9285018502803273
0.9058474832522995
0.7472972448538788
0.4416924401184017
0.258558840640486
0.1657689452303046
0.14200676560657988
0.1603054477977621
0.18771845359425665
0.219565652638373
0.23886968695724525
0.23633973019080123
0.21126355233982663
0.17294139899702848
0.14421520857076056
0.1296530546432092
0.12975266068547195
0.1357358420299076
0.13771841390412215
0.13117308772296604
0.12181039532649977
0.08705118070248472
0.05229196607846966
0.017532751454454598
-0.01722646316956046
0.04827703944587778
0.07967140250445709
0.10505923925486486
0.13592831471362765
0.15933304558032213
0.17655500562584633
0.1833201922844266
0.17847376349246857
0.16188008861778433
0.13655427711765084
0.10929758062001373
0.08309867795016893
0.05945034027837343
0.04701434317557559
0.048561245454288346
0.06404041115457738
0.09173692305377529
0.12033189482952474
0.14295280951414188
0.15716382297244963
0.1622947247332848
0.15973721671200375
0.15021107688895458
0.13758334392781435
0.1255598902069151
0.11516882148704899
0.10991211722105507
0.1133521412173855
0.12641790986714257
0.1479155260842722
0.17563751767639035
0.19865821643946305
0.23176355660177356
0.23586642277043884
0.20618449168607228
0.22336209360595616
0.3664082039234211
0.7058739134795011
0.8894841472040024
0.9275138459807286
0.9162548378656917
0.7970325808975861
0.5103956223926506
0.2948462348693926
0.1784666990013007
0.1453276971894497
0.1589014526751146
0.1862673925789947
0.22152968983424284
0.24276651772795638
0.2412979584725461
0.21576976394063138
0.17564001580511218
0.145893417684139
0.13068576175819294
0.13049710828436847
0.1366019098008783
0.1392879531729473
0.1338563701622723
0.12588916741800413
0.09073233753043089
0.05557550764285765
0.020418677755284415
-0.014738152132288823
0.04981427741353322
0.07972918728845926
0.10138428337993938
0.1298988032602981
0.152401738443662
0.17060599809702728
0.17981353130026662