# vtk DataFile Version 3.0
vtk output
ASCII
DATASET POLYDATA
POINTS 5568 float
6.491013694959918 0.7807370889728127 -19.58087631708576
6.64437682105134 0.7148181671234107 -18.899032661343995
6.802124318368037 0.5833103574087307 -18.169318820341736
6.910762998493368 0.4236584255965352 -17.444090350229725
6.940604115161244 0.26298332383670886 -16.728458042377557
6.88105387296141 0.11574478413477204 -16.019471034807243
6.724646517333335 -0.0041524038043000144 -15.320969048813442
6.476381045658462 -0.09140441615037781 -14.65222882648988
6.146983153444608 -0.14765149528074106 -14.025166233536341
5.745309392128634 -0.18003894955428598 -13.439886525380084
5.2730727173167065 -0.19173312524340147 -12.892181309595676
4.725177474007273 -0.1752729122266307 -12.379187412464692
4.102678749953785 -0.12328527624914778 -11.902631540039447
3.4106279074968198 -0.03871363089633263 -11.450875191078035
2.67161565204863 0.06601946844455357 -11.013077412047314
1.9151165987287904 0.16966360866433267 -10.583142571953182
1.1680639656213319 0.2545802713018138 -10.151608086641208
0.45904597119375523 0.31184558719376765 -9.707069245918541
-0.18673429301487865 0.3405990619339191 -9.241740756387243
-0.75064706136521 0.33928872443677066 -8.756356672274071
-1.2196913338729343 0.30415265993573976 -8.261535083008901
-1.5931202290152575 0.2381853351594402 -7.7615954431289556
-1.8790025379590847 0.13988243998873512 -7.250280614593743
-2.084554222668188 0.004431181357133163 -6.721597208021093
-2.2173967909243895 -0.16897684601091023 -6.165241423499278
-2.286016212624742 -0.373552435086619 -5.565577761298609
-2.299986236866783 -0.5985086175932752 -4.9116452754411934
-2.2690495825758994 -0.8376748405358534 -4.1998668981749425
-2.2107143773082427 -1.0773370410373455 -3.427799729792757
-2.152701512267987 -1.285596333137214 -2.614028672383977
-2.1205741309189325 -1.4133899658268787 -1.8027512026346675
-2.1119258180693348 -1.4325047025666287 -1.0610981485949171
-2.1140140114485253 -1.3387901166648428 -0.4228911884808708
-2.1205417767498065 -1.121953890588849 0.10574995879214422
-2.1238720864420477 -0.7358456070500659 0.5678367450631645
-2.1070993911444127 -0.05775650997545534 1.011853213971052
-2.061474357434971 0.8824579871612268 1.4456233033219894
-2.008247894711655 1.9494417455544324 1.886103079343046
-1.9616991558506784 3.027440024523779 2.3751375083997974
-1.9528434068974598 3.9146103086243587 2.9087024288477084
-2.001991280133487 4.461531213312489 3.417241927667777
-2.069423478683218 4.6784218997025 3.805379099060006
-2.146216066805443 4.715319665965757 4.102167065067673
-2.239162516513258 4.571489482089161 4.383275694522283
-2.341931685619217 4.246782687017788 4.616837594870141
-2.431559207031951 3.770344889620761 4.795373550974506
-2.4902052534161006 3.1258647699536604 4.912122028963322
-2.465733865576284 2.373503911572455 4.953195071978256
-2.335581125902353 1.5550604280764082 4.951981628293238
-2.071520166851358 0.6953958612494145 4.916028615454036
-1.64817186181106 -0.0947815816269808 4.895502183348095
-1.0886953512414754 -0.7099224737139221 4.959957895858404
-0.47937459222149603 -1.1179810118912286 5.143851738820404
0.159058149009077 -1.3881593661686518 5.440518689432846
0.8285058954025392 -1.536927036205434 5.831560407724243
1.525367563135605 -1.5681774182687498 6.273721344482461
2.2595838439172864 -1.4876752970666312 6.720311200795981
3.036083785066914 -1.2879179314499687 7.123327220239139
3.842014451631518 -0.9555461849637056 7.449786256879495
4.636041486553731 -0.5076431647475281 7.6615368711699245
5.39698718180728 0.028910341699743936 7.742070357461406
6.109248345813793 0.6234657632804913 7.6877415860626
6.754784206174559 1.2502520337068705 7.517350626225045
7.299453927323912 1.8858376628237292 7.258188389200032
7.688727212467737 -1.4693914225248534 -20.680375825192442
7.697398774741853 -1.4272659769162968 -19.9200076414492
7.722197328347653 -1.3371181167634705 -19.221453399897626
7.766448078194614 -1.219674990649449 -18.57723268416039
7.816374365645617 -1.0913534164792282 -17.97480836969389
7.85398178775656 -0.9527751754896889 -17.37136020491333
7.856848406194752 -0.8065728350632797 -16.750988084251095
7.7921364755911275 -0.6567286436814253 -16.11082857049107
7.617175317334719 -0.5032901373410423 -15.45752686910556
7.309440787734481 -0.336951121765177 -14.819833763796415
6.8788559651523355 -0.14660043697083702 -14.21322739577771
6.339593851174463 0.06645112618140187 -13.636556071698886
5.705377410216323 0.2943012409139423 -13.088347359339936
4.9865769685978725 0.5280545846738994 -12.57418898570536
4.1855444954418575 0.7599286251284263 -12.099453207202062
3.3311081766330677 0.9814662940391721 -11.66209616325228
2.4701726872868686 1.1809589586426688 -11.245710847305292
1.6386013325573356 1.3496965864794022 -10.833432199777361
0.8548170682031399 1.4834670909668 -10.411917639072946
0.11588878570756544 1.5830822877076438 -9.966025575495436
-0.5943717295966584 1.6503542389740826 -9.474150578766281
-1.2876311855478666 1.681874743974698 -8.919437266371384
-1.964534102607874 1.6801771059490833 -8.291865449614473
-2.613702115043481 1.6561277706587254 -7.582600202923708
-3.2110119733426803 1.6228109332576095 -6.787581908267463
-3.72270723310468 1.588221534439474 -5.916843076261205
-4.1182244954778024 1.5679502157591108 -4.994548615394085
-4.37596815518041 1.5970013556418936 -4.067713172239262
-4.488885919708388 1.683167911552519 -3.2316523707659894
-4.4833957961513695 1.7867863303597271 -2.532826067667794
-4.390501862426679 1.868121386468212 -1.9313893151477526
-4.235784273453866 1.91731483863742 -1.3478663456176445
-4.047055348497196 1.9388519127377317 -0.7010575246899388
-3.8628259283151007 1.9295252842517723 0.09155489075320988
-3.7549768560874104 1.871461187811591 1.0684712009826507
-3.8090789716565476 1.6562643337190646 2.1190922601288764
-4.011893330981313 1.3888168589478034 2.8714610397291658
-4.241551504280656 1.1728902983209974 3.3465520464005842
-4.454030687424144 1.0172677753679604 3.613928524557575
-4.607940132025519 0.9293072015993364 3.737632863737073
-4.673177105015704 0.905851744436031 3.7710601268967867
-4.689781031301264 0.9130738180260007 3.788444273909178
-4.683509328050906 0.9220609330933961 3.8456107426887387
-4.6376458435932895 0.8918457279664511 3.972132114917494
-4.546129970568554 0.7754296794149116 4.159024257033621
-4.373865736675019 0.5300213609273191 4.438758708886316
-4.100862673119152 0.05375147504762051 4.8072029180852045
-3.7763972033621163 -0.5244144158643227 5.189935596089895
-3.4409209589776815 -1.076629402491 5.588096763489913
-3.071033555505986 -1.5937291240253924 6.00000739796364
-2.6559189763786017 -2.0755263275384914 6.410442782050708
-2.146084678042101 -2.5335484433253495 6.8151256602733765
-1.489843101661531 -2.9092080485749876 7.232817375774866
-0.7082183602136399 -3.129006040497579 7.6702127680448715
0.1335614626484899 -3.1842311976408624 8.112988770711855
0.990610292191239 -3.1255733150377907 8.543580792800341
1.8454728039401171 -2.9950631204791027 8.948476393265173
2.7054635974788352 -2.8097232361741895 9.321083481893888
3.5957215523123778 -2.568070875936166 9.635043291463855
4.514411811524169 -2.2833174521304174 9.868345145328824
5.435353881184607 -1.9554882275614944 10.039555239645221
6.336396085996024 -1.582649087811269 10.165470458607514
7.196712348034164 -1.1839043285420534 10.260971087292848
7.985529126898668 -0.7827774959361666 10.34233136695042
7.795607180357018 -1.6701854016694158 -20.778491501773633
7.790765934079008 -1.6178293941191162 -20.008582038572126
7.804242120248308 -1.5080132384990168 -19.308512263695654
7.843458835613143 -1.366466667897067 -18.665961826536115
7.8954870069580805 -1.2132738484241907 -18.067338098458915
7.9415117816852865 -1.0496512317050797 -17.466523632488062
7.957788609098086 -0.8795952896336989 -16.846358080654944
7.908273336181853 -0.707978382426774 -16.20277990006014
7.745817550395601 -0.5349069619534755 -15.542717519500362
7.445170660366176 -0.3497441275414659 -14.897277059055897
7.016878404752307 -0.14000791584636996 -14.283020747851532
6.476969664882205 0.09204962431364816 -13.698822567531973
5.840556216252122 0.3368980107808892 -13.142905131207698
5.118532981278241 0.5849204264938149 -12.622369479498117
4.311299492342519 0.8289032485430974 -12.143941502500946
3.447303255502648 1.061721352153348 -11.705754932911944
2.575159697845447 1.2722147559365253 -11.290641129933208
1.7313626099912791 1.4516790264000146 -10.881157885044194
0.9336330177157649 1.5956081182385233 -10.463413800535564
0.1767578583934427 1.7051629925143628 -10.020802720012478
-0.5588412931763088 1.782934119852492 -9.52868533661004
-1.286912449230637 1.8249999198616145 -8.967850934765197
-2.0081893452369113 1.8342892581420753 -8.327146491207584
-2.709669546974461 1.8233363690763773 -7.5964907608755725
-3.363023403799648 1.806548122341471 -6.771816812633488
-3.9278988659961214 1.7914532269077443 -5.866348893160016
-4.367682879190963 1.7936064180295117 -4.909253831491552
-4.657105813339997 1.8504942284390276 -3.953241327427113
-4.78689844975185 1.9675553068084453 -3.1033977980993876
-4.785660050960009 2.0974842160780236 -2.4085119402601034
-4.687800918198276 2.195089475615983 -1.821057923938754
-4.520916750136629 2.2499043381956967 -1.2484945519048147
-4.313840415442844 2.264909480672287 -0.598055634605795
-4.10785931638256 2.230896644907533 0.2274924514918365
-3.9853038857086496 2.1193129760238865 1.279212018866923
-4.049790516442778 1.7960529067073985 2.447443308099696
-4.2936745266613725 1.3984006484202005 3.3000573089682605
-4.573269317064854 1.0652142326954737 3.84038505877298
-4.834432165891914 0.8153604299222614 4.138296371413979
-5.022270242973075 0.6677942729927296 4.264621212059861
-5.098131447927983 0.6229223002941467 4.288427518914947
-5.111477795722134 0.6255604597981368 4.297039349951933
-5.102653137366721 0.6330828643950198 4.342724350341016
-5.048174495781502 0.6088561649055384 4.462437546100839
-4.940830111941515 0.5033877637080406 4.651390690624138
[...]
CELL_DATA 87
SCALARS quad_param_group int 1
LOOKUP_TABLE default
3
1
3
3
2
2
3
3
3
2
2
2
2
2
2
0
0
3
3
3
1
1
3
1
1
0
0
1
3
3
1
3
1
3
1
0
1
1
1
2
0
1
3
1
3
2
2
3
3
3
1
2
3
3
3
1
1
2
2
3
0
0
0
0
3
3
1
1
3
2
3
3
0
0
3
2
2
3
2
0
0
0
0
0
2
1
1
SCALARS single_component_feature float 1
LOOKUP_TABLE default
-0.12815744547275376
0.21780788035081766
0.24868067453265874
0.060593314049068765
-0.044851664999560725
-0.025889279713936453
-0.07114279272201221
-0.06706015566950904
-0.017965039224304362
0.06470175926159617
0.05796367668220332
0.021851608283064747
0.13159121006954458
-0.05073838386028189
0.03127728322468315
0.01814814955849961
-0.012751313765164569
-0.011128580098635904
0.06915415973612299
-0.15769781649321973
0.2659595472101774
0.030096372439108857
-0.0423285688319438
-0.14874119034283861
-0.2161305778085828
-0.05515318952573785
-0.17157707111123666
0.16672429241135658
0.11780212947791427
0.19804646546966975
-0.07031930793959237
-0.029212675878721207
-0.046443103605177886
-0.09822943128476111
-0.08080456829327429
0.00313724216665745
0.005347600254044099
0.13669892143464207
0.2479218581912547
-0.15726024498294008
-0.15709706800333229
-0.08730934733162896
-0.005040185345221555
0.21431754045852794
-0.09242344547217267
-0.05618993354583207
-0.11510103235955338
0.02951817363552287
-0.051654263809377175
-0.014055039029759827
-0.021380115157199245
0.09160937060742491
0.035438190835338466
0.0164736020663033
-0.06579716763473108
0.014491747635040374
-0.13413774195699174
-0.14174274134833925
0.026080601958790542
-0.08834419912333256
-0.062184837281304736
-0.05294035573325538
-0.007481323654196598
0.029933288511098784
-0.006793057272333876
0.001655821694384909
-0.004802192049156696
0.25127183965996286
0.01895555233015372
-0.03546883074631908
-0.020709421086033363
-0.038398451159076905
-0.0411216991743889
-0.043662093159796966
0.05294061928530999
-0.048108865566903795
-0.0278458014578532
-0.03986113668819341
0.07056730981850298
0.022104613091048865
-0.019032258281822673
0.09924529372541853
-0.05811124134793427
0.13108503349004968
-0.12532816368550534
0.0999837876204674
0.06652787885930107
POINT_DATA 5568
SCALARS single_curvature float 1
LOOKUP_TABLE default
0.08588885400510207
0.12830616121595742
0.15115180820448654
0.17476103712806787
0.18570513497809787
0.1856958094309602
0.1766598651084667
0.16398016292105833
0.14956430500781628
0.1306028777634563
0.10550350997483793
0.07457781320419235
0.048058757514914084
0.03891552103662762
0.04950885500986939
0.07813225850817018
0.11643790985522544
0.15683140040626384
0.19564466775382489
0.2265897802673824
0.23969672217233975
0.22851281132473172
0.19543583381685925
0.14952576781980909
0.10248830404558368
0.07337973650095148
0.07492733956645276
0.10536980550850338
0.16947187471019373
0.2690454325255683
0.34882390671567576
0.36387711160479363
0.3212255826264912
0.21823700884708863
0.10956549184329357
0.07597413255623792
0.14796388192109897
0.40833068160354
0.7043527827566664
0.8427947029090677
0.8724395695664604
0.8190729247613382
0.6428266058681956
0.40137823088542146
0.24429645217871904
0.1811463777266547
0.17690339833147084
0.21008927243794256
0.2737718368360013
0.3119910798208703
0.3169851342636435
0.2808937791558059
0.21663695779900863
0.17858513509683496
0.16242852581091796
0.16368969346539539
0.1729396332497137
0.1782005891613445
0.17631562699246614
0.17289544901298737
0.12778380961425242
0.08267217021551748
0.03756053081678254
-0.007551108581952404
0.06818340635670495
0.07843300633406526
0.070623227249892
0.08296211118419075
0.12229810271331734
0.17064939657309477
0.19848611649136108
0.19853008503078703
0.17346479625927944
0.1377256612781198
0.10875591920021326
0.08698992007675285
0.06730076010101792
0.05181831211964755
0.04394057345444684
0.046302676952889844
0.059379216222070784
0.07393924617403333
0.08213414390480951
0.08550620599117575
0.08804346560049595
0.09327759642002863
0.10362333942447094
0.12078874845057609
0.14812987587622167
0.18238954960716686
0.21676775407744986
0.22659350136420287
0.195030325615504
0.15161571648743152
0.11147623365560734
0.10797702554213033
0.18252793143771281
0.2754482694309703
0.43313602357307923
0.6765418412628761
0.9912210940755926
1.0
1.0
1.0
1.0
0.9617115532142603
0.5418881406874688
0.28873813506344653
0.12750612590229238
0.09562706417228237
0.07997555419440798
0.09516292502743455
0.13036323396643967
0.1618269721375551
0.1827337235493373
0.1793936203739394
0.1517246781322857
0.11546502464981792
0.09119016995246045
0.08414631261899062
0.08238070243849606
0.08211555363802964
0.07364995240140519
0.06103730144624885
0.04195104666294205
0.022864791879635242
0.0037785370963284368
-0.015307717686978368
0.08252906290799127
0.08979364571747306
0.07319212364646896
0.07915891125557005
0.11492531114545079
0.1672409625206621
0.1987155923297991
0.20010108287090175
0.17450954303961919
0.13796786751690462
0.10921942330467342
0.08826533277612567
0.06925241406578687
0.05326248742275629
0.043940588327452304
0.04454888426846064
0.05594113310532367
0.06931651563913266
0.07638350515072613
0.07883987875784493
0.0808685124278064
0.0860671178440007
0.09726741026759077
0.11638496063641457
0.14768057606247162
0.18941728532874474
0.23498626446411805
0.25279846349017204
0.2246255751594943
0.17864247570070335
0.12831869917348607
0.11308718202355938
0.17051420733640862
0.24409997178398699
0.37377176313235005
0.6031674817675393
0.9901094358405453
1.0
1.0
1.0
1.0
0.9728080311116735
0.47214595387340974
0.25787665661228804
0.11834149266086019
0.09207085242253353
0.07324871002755856
0.08789278330204946
0.12030866180306271
0.15274350054992591
0.17771082063147708
0.1764065123690802
0.14922026743438493
0.11150034927866001
0.08586026701186501
0.0779810007049687
0.07505340171610878
0.07437107281324254
0.06546597038100059
0.05261397228187831
0.035846929343544595
0.019079886405210883
0.002312843466877171
-0.014454199471456541
0.027892448384951304
0.05659064853749921
0.08909212323495089
0.12841313634248122
0.16112867773913866
0.18479654067782544
0.19346229534031745
0.18634300510761956
0.165087914846853
0.13531168892446901
0.10651969530174522
0.08059467344223772
0.05728879058626075
0.04475337973937123
0.04503086068696769
0.05787960200910623
0.08121003810820139
0.10412813410166805
0.12154281355890675
0.1331900343575052
0.13988431063411294
0.14287455278443803
0.1425822023347619
0.14101546750434915
0.1398570713667141
0.13565461805864507
0.12758621284809718
0.11661846204320148
0.10338604784082671
0.09830988673197345
0.10689036390848923
0.1259894999221444
0.20410486144041143
0.2957110866235599
0.3678193143583648
0.39000038054475783
0.34012452725364445
0.5287910399138784
0.8066657875298344
0.9101314707920373
0.9403698078511692
0.901083706671449
0.7082233005829391
0.4139559437391903
0.20413550389419766
0.14371467637732616
0.138712002781288
0.15952196877404934
0.20101338531094007
0.22648187063157824
0.23029609027559247
0.21001064074386205
0.17175178686743567
0.13957908633757596
0.12126806688344254
0.11869350863104389
0.12294326445689056
0.1261615285236124
0.12217383328131463
0.11627218518554462
0.08477901688152739
0.05328584857751016
0.02179268027349293
-0.009700488030524299
0.0620845705733405
0.10010359583565526
0.12881881144353946
0.15969260991162545
0.17891522697810783
0.18795646895214135
0.1856504014492247
0.17475944611914307
0.15701816017876297
0.13285381755953177
0.10557746246122525
0.07685168088492739
0.051429072486002696
0.04088903593926362
0.04702673748741193
0.06830667561769263
0.09979405922183146
0.13133113908467298
0.15925173379060636
0.18068338785204818
0.1913741939943211
0.18859984874221505
0.17290232992536955
0.14910048589484776
0.12253560013431246
0.0985092911784941
0.08862446148069915
0.0973308331328521
0.12669769453637839
0.18064770039149564
0.23738939243635357
0.27520947233866216
0.2876083216447223
0.25378936130432583
0.18515310256606543
0.14634683742116256
0.20420788564958003
0.4707606252172612
0.7667112704724031
0.8894043738336566
0.9119328212551683
0.8632999427242061
0.6920766538671087
0.4260884182443865
0.2400614115495822
0.17351708852024955
0.16941326188510417
0.19643202555418182
0.24658727321160195
0.2755239076710205
0.27662223730988406
0.2454103879846192
0.19371165506952134
0.15993626786362702
0.14370791898930166
0.14364795957223947
0.15123327450439022
0.15632654616194366
0.1546184133887862
0.1521033952685546
0.11260154821794677
0.07309970116733894
0.03359785411673111
-0.005903992933876723
0.05563856974628114
0.09228433694969922
0.1223461834662811
0.15500806846290288
0.17644708570035184
0.1878733875905222
0.18734852506904526
0.1770212121933397
0.1585915959535663
0.13333243621757668
0.10568932422919662
0.07746687311461203
0.052375175081270396
0.04149017631961176
0.04657613222714306
0.06626359221558081
0.09623405006732207
0.12601036880030908
0.15175614611522362
0.1711863207580166
0.1811591063056434
0.1797861454664824
0.1674229109063582
0.14817554666329766
0.12637623225450964
0.10508846986244874
0.09364773497319978
0.09770488316063657
0.11909303589326407
0.16193391336103513
0.21066462666652946
0.2483272303699568
0.2756772227118079
0.26176661663950807
0.21089875550540124
0.17476146722790198
0.22436583016359268
0.4835059069245182
0.7768510459199355
0.8969209510874666
0.9184573375944558
0.871309492059778
0.6995834450202777
0.42809356255471576
0.23610317375774684
0.1696714047870016
0.165586644218312
0.19133500966668057
0.23922606632132684
0.26684020855025264
0.26777071604758895
0.23821075761111837
0.1891930147003821
0.1560096710650428
0.139560034143154
0.13910666631910573
0.14617619109093333
0.15104109390419898
0.14909303865102086
0.14629227665582895
0.10817035747335824
0.07004843829088753
0.03192651910841682
-0.006195400074053892
0.07043856847414089
0.11013118746151336
0.13696128312111142
0.16542206679886232
0.18177185193665535
0.18770375167949468
0.18308019876561757
0.17150215473623875
0.15475714269683244
0.13216801861115973
0.10547531807319324
0.07605266711929763
0.050218637023815044
0.04014197157638891
0.04772233509092363
0.07126127240479734
0.10487687318127481
0.13901320934487582
0.1701484851739719
0.19448908226510697
0.2061104377184176
0.2010889159487177
0.18036759282722514
0.14991037700204374
0.11672141955951747
0.08979309774167035
0.08291888721522485
0.09836218188761116
0.13883260537101544
0.20796413950373524
0.2744306989073337
0.30847338415754705
0.30104464363554817
0.24263538786841624
0.15474485915245595
0.11461289961171987
0.18045298585500677
0.45080062035258817
0.7494959958098542
0.8768640006100731
0.9013453339397016
0.8509585507077442
0.6791130737722345
0.4208198006771523
0.24363808156392663
0.17754971448593584
0.17338526949091637
0.20226307252743786
0.25608059293432517
0.2873553071486515
0.2891487309732142
0.2559552529059157
0.20040366456272238
0.16557601215874265
0.14953214811485105
0.14996472186072812
0.158187690433422
0.16349076659951417
0.1619540149880122
0.15954176649151297
0.11818455392113339
0.07682734135075381
0.03547012878037423
-0.005887083790005354
0.06918958768742892
0.10863987048061523
0.13576221387667994
0.164591373775393
0.18137162455616015
0.18777110318849044
0.1834957065011694
0.17201701873569453
0.15511408705395663
0.13227611512258222
0.10548685837392766
0.07617232056946618
0.050398377720674535
0.04025099385775551
0.04760890546551264
0.07079328714484832
0.1040767236026478
0.13779739725828213
0.16841879015687872
0.19229901163753285
0.20378276695375122
0.19913411489930585
0.17922269793936416
0.1498226884548132
0.11765979385067522
0.09110697592537531
0.08371401299635725
0.0980961867924024
0.1368436170799574
0.20364906100835037
0.26872989546075354
0.3036378652915338
0.29916629307528897
0.24437068337981088
0.15895848962650172
0.11882966688265609
0.18367715000807616
0.4538922416728758
0.7523675421147122
0.8789589360737814
0.9031062266747574
0.8529724099559294
0.6813046610130202
0.42181288172169873
0.24322582747290206
0.1770236545678071
0.1728694448081224
0.20145182752483615
0.25466167878242124
0.28553573917956354
0.28718694381948806
0.2542761458215405
0.19933176166888833
0.16468532463892188
0.14862234855315987
0.14898269843153386
0.15711292599381002
0.16239215185222616
0.16084177538005237
0.15843669727882992
0.11736287888990754
0.07628906050098516
0.03521524211206278
-0.005858576276859595
0.052857561321327115
0.08888846005575746
0.11950144361210033
0.1529166349320645
0.17531589369357453
0.18777335561673325
0.18801951070039707
0.17794405949851075
0.15923423263046063
0.13352818094311622
0.10574470805303418
0.0777327071840999
0.052787088740503495
0.041755584565187104
0.04640034591350604
0.06543181257039625
0.09477358860828099
0.12384224105378086
0.1487159886301955
0.1673377505899315
0.1770043020924967
0.1761650349161966
0.16512176972678305
0.14771080045695936
0.12788946505365886
0.1078834567106402
0.09599057299398188
0.09818347558236423
0.11625779105318101
0.15446135814196274
0.19965570166297028
0.23652506770529144
0.2700630008675342
0.26506133887780464
0.22250949970923287
0.1878101323309769
0.23325761893282523
0.4880264242444263
0.7803914172233218
0.8996340213358435
0.9209101161325463
0.8744503276339607
0.7022114766901205
0.4284422164645703
0.23410408937503452
0.16783909883153766
0.16375001500190206
0.18898666438877038
0.23602672510589648
0.26318039375493707
0.2641258228364839
0.2353063326797433
0.18738042753825432
0.15440369385697134
0.13784038613058508
0.137213847557702
0.14405511285895198
0.14880733672383706
0.14673252025613365
0.14376291090384016
0.10622705479840816
0.06869119869297616
0.031155342587544155
-0.006380513517887848
0.027419534165727164
0.05567732990172731
0.08768158994736064
0.12697933855106547
0.16025132259210897
0.1845479893644866
0.19368826035088707
0.18674308248282884
0.16536637154231754
0.13539613703382444
0.10656951947074247
0.08075357839876658
0.05754036807385677
0.04492482715851735
0.04497648165158139
0.05751853800792159
0.0805480081384164
0.10318562555964027
0.12026832042878031
0.13160580308098846
0.138156007487016
0.14128245440593298
0.1414391774416337
0.1405778968629794
0.1403306934618529
0.13706555123849232
0.12962158176731606
0.11838564780627052
0.10364164410316648
0.09653914960801671
0.10336175180411387
0.12191918961499562
0.20146810346472627
0.2973435672545382
0.37673777298462247
0.40605312923187964
0.3453070939683051
0.5340947816243576
0.8095783420874056
0.9101577293186004
0.9418039546341498
0.902384303794923
0.7073429835013905
0.4122281159930968
0.20213899240493718
0.14223542988997123
0.13712010607889913
0.1577302867180352
0.1990586700632023
0.2245725259941868
0.2286678422078078
0.20886833180825162
0.17104734861712195
0.13885752588078557
0.1204267839643891
0.11774098363267654
0.12184214108519249
0.12496543281892475
0.12085410250236484
0.11475364458283537
0.08358503631327789
0.05241642804372042
0.021247819774162943
-0.00992078849539453
0.028285360549513135
0.05726278551516747
0.09002902141234291
0.12932517358988477
0.16168389416796158
0.1849511316546281
0.19331470354456365
0.18608481295513443
0.1649081635090263
0.13525713234527245
0.10648820618891054
0.08049335968595082
0.057128405476675664
0.04464425580195633
0.045066500495177
0.058112430075929415
0.08163629923887251
0.10473595732210807
0.12236605878454528
0.13421443744930264
0.14100178443387346
0.14390190504945438
0.14331646590572814
0.14129169202158698
0.1395460690129298
0.13474787407400016
0.1262998102901764
0.11553217534167734
0.1032766689388977
0.09951470987111154
0.10923927511456621
0.1287370343846009
0.20591423110615684
0.29467553791215173
0.3621366719975993
0.379940978199299
0.3365115079666188
0.5257978588715485
0.8050223317936575
0.9101481766122166
0.9395374648155347
0.9002535463979874
0.7087147722112075
0.41500931860564216
0.20539588474768808
0.14465456088827647
0.1397197255063277
0.16065914449898308
0.20226036430687944
0.22770602426301087
0.23134676256702227
0.21075139858130107
0.1722083480150393
0.14004367121292724
0.12180793321168087
0.11930418757268756
0.12364852041091128
0.12692707870369543
0.12301771777987547
0.11724181414356522
0.0855412132003315
0.0538406122570978
0.02214001131386409
-0.00956058962936962
0.03856885777531397
0.07115422130292656
0.10418251315230016
0.1412834674416591
0.16877260604682362
0.18670207207482292
0.1910491263740392
0.18237521309645263
0.16232292745243324
0.13447006832082056
0.1060911046988965
0.07913697952222011
0.05498524680136494
0.043200648417363555
0.04562472410211668
0.06144810216517184
0.0876871236994278
0.11344638895482656
0.13427170438681274
0.14911231164637626
0.15723560495320163
0.15864791357342808
0.1535780921799181
0.14475014808710987
0.13464877215417864
0.12206488921121432
0.1101235238878538
0.10408474126276657
0.10583940992517318
0.12125246480311604
0.14771497202057343
0.17577672619173962
0.23667401192392956
0.280919324547192
0.2891102370674289
0.26651909713893146
0.28156455482710363
0.5031137562949635
0.7920342054994801
0.908760722068336
0.9310477518148568
0.8886938422037607
0.7102387229303304
0.42538124468122157
0.221072982676179
0.15679871980072707
0.15249600832351093
0.17534206314871664
0.21894408611001845
0.244606822596766
0.2463952078084466
0.2216758685045469
0.17893668329650153
0.14664326551599516
0.12932892129878207
0.12776240629315283
0.13335678506994175
0.137411910128866
0.13449541151176858
0.13028683975920083
0.09576806135592157
0.061249282952642314
0.026730504549363057
-0.0077882738539162
0.03594425631985205
0.05647847261076362
0.0731604333109799
0.10335911456827569
0.14452332456133088
0.17941673521789367
0.19660762857668124
0.19266711543627374
0.1694717446143892
0.1366236254692065
0.10746795313466208
0.08342551111769647
0.06175961350879735
0.04784634332782144
0.044299494853534016
0.05209189970967204
0.07045536331330465
0.08903891947223781
0.1014616560457353
0.10851242133233435
0.11297809498435059
0.11763306794085604
0.12368050712337111
0.13259247054297715
0.14599663278452
0.15880358110498038
0.1659781947069813
0.15796574270246697
0.1235159414860796
0.09047274754386786
0.07447065709680523
0.09075513250573401
0.19043589463052898
0.3181264172966404
0.49155866068805393
0.6574819598104432
0.8364629000140154
0.9774737355122334
0.9935477654757768
0.9952641087360125
0.9914930250937344
0.9259332450066886
0.6705543299225287
0.37042056658124045
0.16688453541916645
0.11784499102313686
0.10961281540129393
0.1273693591527242
0.1669396404743302
0.1945250152367928
0.2047363258381737
0.19286960221729182
0.1610342624704561
0.12782623254022918
0.10712350241184597
0.10255013781576873
0.10412617634449572
0.10564524076404908
0.09942714894574824
0.08994442003186673
0.06410276756337195
0.038261115094877174
0.012419462626382397
-0.01342218984211238
0.06401740213004437
0.10243443243081284
0.13072771825959675
0.1610533956102315
0.17961219923294472
0.18793711444871194
0.18509667549997408
0.17404221907927905
0.15651975664625442
0.13270243124489442
0.10554901942464107
0.0766670859944647
0.05114741232737766
0.040712714326890484
0.04717531078297807
0.06895599415843255
0.10091755655467011
0.13302066279458177
0.1616412822434754
0.18371192017075264
0.19461916113182295
0.19137298647171902
0.17459053098524704
0.149331195519391
0.12128186802001875
0.09650960215943465
0.0872241441580035
0.09741569697910119
0.12926800799898358
0.18665135273928016
0.2457254027916939
0.2830874633996088
0.2909079341705588
0.2512974198363709
0.17775262138132666
0.13838762885316816
0.19836970530811768
0.4663948614902853
0.7631405891010395
0.8867988238752725
0.9097175925211576
0.8606644510845989
0.6894188995236222
0.42514828164358903
0.24105361069592476
0.17455243699094106
0.1704369940131527
0.1978626717704163
0.24878573454554848
0.2781955762526094
0.2794035691985558
0.24771560022051534
0.1951667584836645
0.16117927669754303
0.1450047609320436
0.1450606081030733
0.15279682022751903
0.15794833247826093
0.15629543571925691
0.15383373277020584
0.11391036775001234
0.07398700272981884
0.03406363770962534
-0.0058597273105681635
0.03533573661570638
0.06702170142221997
0.1003997071082142
0.13827650005459843
0.16702274573820544
0.18631388777373806
0.19168395318883988
0.18337251408739433
0.16301826250251228
0.134682061557586
0.10618794409038473
0.0794842548993306