# vtk DataFile Version 3.0
vtk output
ASCII
DATASET POLYDATA
POINTS 5568 float
7.2163473344740305 -0.03162340684254675 -19.85401600346269
7.312494488913927 -0.13133250496926552 -19.137245279596808
7.408974033721485 -0.2398306122834291 -18.434628467963485
7.469202046855469 -0.33078026114576714 -17.772583722052783
7.477587309080027 -0.39895261523381487 -17.1468944397184
7.433438459692818 -0.44372583039929636 -16.525545807224038
7.324365129340519 -0.4600974323948949 -15.890825517746409
7.13475285229199 -0.4520935622404356 -15.251165064705924
6.8509048023570145 -0.42510114424283524 -14.619168940277305
6.468918442328038 -0.381171729872515 -14.011021242587152
5.993136276774137 -0.31676469530510304 -13.437794710631199
5.423567022908496 -0.22243687466592843 -12.90614274051027
4.774080543556591 -0.09472984920398142 -12.428391757230164
4.064930280350508 0.0543266973967117 -11.99692914239424
3.30567114992295 0.21058651578416235 -11.593603182992297
2.511441724305372 0.3599786793747116 -11.200414151595401
1.7083582642081447 0.48834958898233594 -10.800810210481494
0.9279012876269104 0.5873105786700482 -10.37985393363202
0.19713482696618 0.6553869833600385 -9.927975912530071
-0.4710521293222365 0.6934091909234392 -9.44003927026113
-1.0739004165065424 0.7001218409331187 -8.910398230884079
-1.6109322660202008 0.6731645820412904 -8.336234341605033
-2.080840744566633 0.6128664049661962 -7.716596979663797
-2.47880532882129 0.52574449955862 -7.051194226635607
-2.7985923578069793 0.42308554484021116 -6.337706892917716
-3.0349725429866012 0.31614515794894166 -5.574335341760896
-3.189763271504601 0.2204785169619171 -4.7649345315514475
-3.2704219386726665 0.15775767609347727 -3.9242907958298
-3.2864181367945635 0.13846987762055388 -3.093414913191633
-3.254740155608372 0.14788216682369476 -2.3153057737921996
-3.1947893778380174 0.18368765646314672 -1.6148825237437112
-3.1184490018866713 0.26275036628755843 -0.9804447780851858
-3.028100754770001 0.39902233159135225 -0.3941480736181737
-2.9308248065937095 0.6023414573661695 0.1617384484537252
-2.8536160885906514 0.8884093141069886 0.7324511971164879
-2.8098065593331527 1.2318775051413358 1.3025635409527516
-2.8112136304156805 1.5645829380473457 1.7921432394905352
-2.8526323426403115 1.8663971223784772 2.213908123438095
-2.9311315322577376 2.12329140159498 2.5785059026816337
-3.0315522094406258 2.285107297718197 2.8854739958024966
-3.130425906093525 2.326830844078038 3.108641937919601
-3.199043057539802 2.290179235496168 3.255000768482498
-3.241474381049293 2.2120524905383103 3.3656306153227473
-3.2618687884517685 2.076714742101242 3.4728627439695443
-3.258309828053378 1.876511347836177 3.5791045120123224
-3.2069818697590877 1.605744089347757 3.693783712516486
-3.091211946442051 1.2152826903398495 3.8242484480298238
-2.9001934200042028 0.7451598738588268 3.9541581099458143
-2.6470067037040574 0.2279450198344931 4.105432414397487
-2.3156262545684414 -0.3278321204722614 4.25829273401182
-1.8928808046847276 -0.8515938194381398 4.424185320074869
-1.3744100771760754 -1.3048394185823204 4.628900943632871
-0.775741311668168 -1.6513239188197468 4.892479483327675
-0.11956306955806617 -1.8864002199667513 5.213180233057809
0.5755794439725257 -2.015305701700133 5.5739314223628496
1.3065520834508972 -2.0469245725339174 5.951881904388317
2.0752720464723904 -1.9812895651114784 6.3208337955195235
2.886356660981588 -1.8111456141792204 6.659689097380022
3.727752235612298 -1.5175620054298797 6.949863744621665
4.562513294586976 -1.1291257107587485 7.156439849440947
5.372960879194452 -0.6698506690129349 7.2742827502248915
6.143214381713982 -0.16169013521548614 7.307545613031852
6.858214436126416 0.37047409964299016 7.267569246788597
7.482467563876744 0.9002494142266502 7.174449506754797
7.289236045547097 -0.026146408934880076 -19.81929953860175
7.384416844373295 -0.1452189738045413 -19.098306275120756
7.478580371940225 -0.26982598406807073 -18.396207826723558
7.533224464931658 -0.3708323825689873 -17.738747254082345
7.534440155297712 -0.4443863057418764 -17.12104060032378
7.484538101074123 -0.49155743803726054 -16.507649503625686
7.37131100490433 -0.5078035113264306 -15.877578065227377
7.177822361502764 -0.49846631224694854 -15.238985580886803
6.88964723058403 -0.47007919918948465 -14.605537887443898
6.502644446630126 -0.42517421821680107 -13.994622605393882
6.020846783207844 -0.35991859532276427 -13.418955825008407
5.44372329027118 -0.2635848113753141 -12.8874248512122
4.787372365704868 -0.13241621546571936 -12.41533184284353
4.075564489968895 0.01957891840797729 -11.994346793978314
3.3163452725648144 0.17744883375914897 -11.602913843817626
2.521040744209291 0.3278500414660731 -11.219633900812928
1.7135721253987684 0.4569556672834486 -10.826707439820744
0.9254208757950494 0.556474154280864 -10.408680449481137
0.18470735068130295 0.6250981860844297 -9.955940646403107
-0.49534203373637786 0.6641507824798117 -9.463250088235654
-1.1123531427965887 0.6726913845975966 -8.923616807547658
-1.6653152104427065 0.647603017294529 -8.333989211290787
-2.1515202464897896 0.5892775059692122 -7.694617762827302
-2.5646171726761193 0.5058110195164609 -7.006338697575842
-2.8967953492200276 0.4103068355866582 -6.2680149721114615
-3.1416199095904216 0.3147121477186483 -5.47975066442969
-3.3015804769944492 0.2351613174172272 -4.647147347406818
-3.3862712604916583 0.1944862170835994 -3.7853740194260124
-3.4055017243164203 0.20164105150509457 -2.937988470114587
-3.3751078201448252 0.23587283897613695 -2.1522075207264244
-3.3141395595488476 0.29175522188294556 -1.4559250419480243
-3.2350219915314535 0.3888582344711862 -0.830497395414844
-3.1385398860117566 0.5429854105472376 -0.25470033951935767
-3.03031961019197 0.763174608874048 0.29077646659520884
-2.9405611175494277 1.0639856492888449 0.8580003704693815
-2.8833215903061022 1.4153587526671123 1.4355352542127529
-2.874140930209104 1.7433216488137213 1.9421936988245978
-2.911319723852559 2.0283133667178106 2.3844603190093374
-2.9925466732296124 2.259768756052998 2.766459365266064
-3.1007866824034203 2.389044194374406 3.086343024569611
-3.2114184292572086 2.394441660945072 3.3180354084336234
-3.2911803751159567 2.321268767996403 3.467361835041181
-3.3396143568596335 2.2116994623024953 3.5707585670644204
-3.3593574909206088 2.0605466031459527 3.659468058276568
-3.3512547497012215 1.8641375494146157 3.7451320112696256
-3.2920712451662695 1.6127280571414455 3.8405687934424715
-3.1647996421760185 1.2569153134958415 3.9563955413623693
-2.9598494861211937 0.8266896310209528 4.08010406590451
-2.6932521396982185 0.3457342250639182 4.233631572064089
-2.351089730649577 -0.17971197499838326 4.391881270183566
-1.9224266340115495 -0.6761153547799693 4.564081064249065
-1.4056871742636479 -1.1078532136503243 4.773199490016941
-0.812656615452181 -1.44256891942097 5.036456159859422
-0.16459396900114986 -1.6732007677789338 5.35088890714687
0.5220050693170862 -1.8052873038931319 5.6996210579516156
1.2478682824812304 -1.8449453518155061 6.062808599179941
2.0150259935739325 -1.7875101008455565 6.4162987304494905
2.8277243879868923 -1.6234688535088622 6.7418358551393265
3.670830189032643 -1.3311657948040185 7.024023555763837
4.505470233335028 -0.9422541803782842 7.22751763203073
5.315637928013613 -0.48224337457561606 7.346759321760519
6.086149987085539 0.026431838794604756 7.385770606267717
6.80319497100946 0.5589934003118227 7.353964439482909
7.430738436476604 1.0889378160444099 7.270100332768722
7.219348562398042 -0.03139788880527808 -19.852586536234778
7.3154549639413196 -0.1318995048174626 -19.135651247407495
7.411838299347769 -0.2410590198079591 -18.433062757277916
7.471835450915695 -0.3324232767653966 -17.771211158425718
7.479923804426872 -0.4008182614917397 -17.145854381462243
7.43553677523085 -0.4456907195335541 -16.524835955402366
7.3262920039000194 -0.4620571250250304 -15.890308136487132
7.136520278722996 -0.4539983650400515 -15.250692162590244
6.852494537965376 -0.426948653459717 -14.618636601797355
6.470302249843514 -0.3829791967490943 -14.010375221599393
5.994273185930653 -0.3185373336490046 -13.437048437141252
5.424394190825117 -0.22412724007120605 -12.905401654396323
4.774627052694402 -0.0962782136190101 -12.427884393857333
4.065369486650827 0.05289902519003506 -11.996855208935106
3.3061140507791165 0.20922490757779025 -11.594021430484517
2.5118419414761752 0.3586583772664791 -11.201241922161293
1.7085792317187511 0.4870593287538796 -10.80191337311263
0.9278068210485535 0.5860431485471088 -10.381077608961304
0.1966324256591382 0.6541420262469587 -9.929164043171234
-0.4720407689706837 0.6922064311549806 -9.441032120235871
-1.0754688826253194 0.6989936131987704 -8.910981551486438
-1.6131519505649745 0.6721120938511089 -8.336185126870795
-2.083725742759098 0.6118933286915997 -7.715741627751899
-2.482307314943733 0.524918655735923 -7.04940551377873
-2.8025988606060395 0.42254888896843545 -6.33490640777041
-3.0393223874333097 0.3160686795562129 -5.570522559615141
-3.194322877326516 0.221057638612041 -4.760180669814884
-3.2751449519887674 0.1592349977234498 -3.9186845786721407
-3.291272817400452 0.14102614615445652 -3.0871488903219597
-3.2596480272392374 0.1514550139023623 -2.3087399028263063
-3.1996562587800357 0.18808811431581418 -1.6084989349958265
-3.1232023283530306 0.2678956326707249 -0.9744447747343854
-3.032602639855951 0.4049024514022386 -0.388595584127176
-2.934878158984852 0.6089114747726685 0.1668462065490698
-2.857155985281807 0.895579316811322 0.7374064826820937
-2.8127981535929196 1.2393688042381272 1.3078193983190296
-2.8137733231451785 1.5718766620010254 1.7980896898342245
-2.8550166722349353 1.8729886557313709 2.220673509872123
-2.9336208263797636 2.1288132013347854 2.5859534002598314
-3.0343437186721887 2.2892586367896914 2.893393226870176
-3.1336491178488854 2.3294944615505337 3.116806958402749
-3.2026576416942767 2.2914387993304692 3.263187289688616
-3.2452965707884993 2.2121334634143226 3.3734646996397566
-3.2656566321966554 2.0762004527866016 3.479899033958839
[...]
CELL_DATA 87
SCALARS quad_param_group int 1
LOOKUP_TABLE default
3
1
3
3
2
2
3
3
3
2
2
2
2
2
2
0
0
3
3
3
1
1
3
1
1
0
0
1
3
3
1
3
1
3
1
0
1
1
1
2
0
1
3
1
3
2
2
3
3
3
1
2
3
3
3
1
1
2
2
3
0
0
0
0
3
3
1
1
3
2
3
3
0
0
3
2
2
3
2
0
0
0
0
0
2
1
1
SCALARS single_component_feature float 1
LOOKUP_TABLE default
0.07010021591236111
0.08824097204392627
0.07084717031810109
0.04068407184220962
0.043319568320815474
0.062128275622263265
0.05228207595108816
0.058890067665136686
-0.015006712407948618
-0.11843227753217239
-0.11919940579383573
-0.09256925304423522
-0.11889897368990865
0.13007503025313277
-0.0679674135913594
-0.05811037459752271
-0.042581747241328
0.030127291636032963
-0.07701629376336594
0.06830862610993821
0.08048231878398251
-0.006492093688409348
0.13052029487506883
-0.06420503987337432
0.11151111496609106
-0.049049871080950255
0.004437728867173953
-0.12324162970234664
0.16051041222144563
-0.12442214889480538
-0.06005958635692188
0.09729465863948544
-0.009356210535895894
0.036461908080402936
0.12280737051533955
-0.06998002509274223
0.028804977817171076
-0.041678163696883874
-0.07874093996696745
-0.15379129463397676
-0.16792923316580055
-0.14279566015157158
0.002051526706098334
-0.04316024475767119
0.03372291846923682
-0.10680424576484457
-0.1186124852615252
-0.018816922616246803
0.01748718013358835
-0.009072791090539926
-0.028074276284503166
-0.10016661533720372
-0.08009306869405508
-0.06832097554800662
-0.03179296110293493
0.1592979239706977
-0.19473125181859982
-0.08142931571130127
0.056000000722709914
0.15176638743624932
0.12307347905057614
0.12413674748905376
0.005689360888064446
-0.00026576624159554973
0.014917932224828505
-0.04243890406512315
0.04635811219747435
0.06552754297672282
-0.043999982469415534
-0.027919759910456914
0.06302421605591241
0.12227821094471888
0.2330371873084668
0.10249062780345938
-0.016000299475880313
0.003868576638428954
-0.005545698446423518
-0.053066968274067455
-0.06330719682408367
-0.08877060753652573
-0.0028141465836026888
-0.03685733423497434
0.035741766773042305
0.11701387729188736
-0.09406927311099927
0.036489381936663526
0.15584833220385655
POINT_DATA 5568
SCALARS single_curvature float 1
LOOKUP_TABLE default
0.0588584396902378
0.09557233074262622
0.13083134053934
0.155869689415589
0.16831400713904443
0.177897954554582
0.17972571369859427
0.17483732489717682
0.16354735093265152
0.14267976874998756
0.11600766598501785
0.08507940425206548
0.056422619835108094
0.04381666553412088
0.04808957022247265
0.06589446357938744
0.09024911758361295
0.11178219909957078
0.12744758789791455
0.13767579816697545
0.14324304578849711
0.14495898633550192
0.14169784127952653
0.1345548267677489
0.1257676549110042
0.11343822422073983
0.10410277568587764
0.10857188277828521
0.1269733746315563
0.15390911718972836
0.1737523536858182
0.1739932372259734
0.16891399411249283
0.16205829663035945
0.17798980253714436
0.280595182172049
0.6020688204351784
0.9077860338231235
0.9752997775498907
0.984757417637482
0.9744702565595958
0.8906365282019559
0.6294522193976431
0.37772212035869185
0.22904729898959875
0.14674776334619088
0.14276134884223854
0.15729825344664522
0.1957324849491586
0.22246394729028612
0.22057668371880748
0.19987203148119095
0.1698146075982937
0.1476019723879782
0.13820818628662557
0.1371295363640466
0.13663994849642605
0.13419075772794747
0.12695599187429674
0.12238236005803473
0.08983800015637168
0.057293640254708636
0.02474928035304559
-0.0077950795486174534
0.06358017513451798
0.10114756159153818
0.1373557519767397
0.15895394155607406
0.16770810055980398
0.1756480198163742
0.17724516492296358
0.17349622845054147
0.1642676087680082
0.14493250234929927
0.11864237906830115
0.08691754967169817
0.05729303023014258
0.04430863267004298
0.04871320481139664
0.06657297010448146
0.09002929901484202
0.11016761860056551
0.12420256715814662
0.1330247336524588
0.13790309581378413
0.13991905807353952
0.13767252739633673
0.13183627585357838
0.12439842573649817
0.1131214843842003
0.10521417106573809
0.11155175908965159
0.13214675977879442
0.1588721802438402
0.1737006888929501
0.16656105786182637
0.15260023767930142
0.1477373160249449
0.17934010455985128
0.3140001407769988
0.6514760002352754
0.9087556030173399
0.9702171109326468
0.9799406992104999
0.9633916635715315
0.8698121480803844
0.627715261270801
0.3876881184611133
0.244855127556908
0.14367993570436563
0.136845970509201
0.14839566024124476
0.18466871753942374
0.2123687997455513
0.21005234855726293
0.19147835626116044
0.16577091243855818
0.14646063821347088
0.1394817669720988
0.1385806490284368
0.13638650131780838
0.13218088003947204
0.12346030694646529
0.11843533668938123
0.08678490076309328
0.05513446483680533
0.023484028910517374
-0.00816640701577058
0.05904384059124074
0.09579036990898554
0.13108811099328457
0.15598862454706022
0.1682848046280136
0.17780343913777147
0.17962324380078967
0.17478217095073262
0.16357730040039556
0.14277263788923514
0.11611609908842635
0.08515428028532855
0.05645696932727012
0.043835896075369855
0.048114494504280896
0.06592182271483339
0.09023930859808303
0.11171382227923413
0.12731017007941908
0.1374782655492985
0.14301577699733628
0.14474461463546306
0.14152715519234146
0.13444020964857617
0.12571125491000373
0.1134262899592824
0.10414519080318996
0.1086894972979999
0.12718084933601176
0.154107728724949
0.17374757037156602
0.17367055269402795
0.16816197846175648
0.16130314812099353
0.17786291596575696
0.28190844257660375
0.604796808098417
0.9083942323645553
0.9753095088980777
0.9847010302931928
0.9742218990303088
0.8898881662256195
0.6289642556716545
0.3776879744138361
0.22944474735478845
0.14656724337786947
0.14251942517768826
0.1569419082099491
0.1952976877895201
0.22206236993597583
0.22015432012245148
0.19953330077587259
0.16965213754266367
0.1475572225544531
0.13825914336035633
0.13718638290489066
0.13662605454059293
0.13410421154612975
0.12681013298701083
0.12221925871891885
0.0897121515104806
0.05720504430204236
0.024697937093604114
-0.0078091701148341325
0.052287820246835905
0.08788267652548336
0.12164629394944472
0.15174605946874997
0.1697417676273953
0.1817406701646274
0.18378259318626455
0.17700466411571025
0.16235099336197226
0.13901873456410563
0.11174451696636904
0.08218496532933428
0.05517019625630074
0.04312752278408464
0.047158356898445886
0.06486097574042637
0.09069301514948508
0.11461573894887177
0.13313976826594257
0.14589958774621042
0.15273981349158783
0.15390794197915023
0.14878533752250495
0.1392688513509014
0.12799733805454708
0.11384719120835263
0.1027150786256987
0.10435507627128532
0.11929780188576375
0.14659396108180492
0.17414359718206732
0.18765092431205901
0.20240083307884402
0.20130201056849928
0.19540404520395946
0.23806728767618315
0.45682016698806066
0.8242511923965349
0.9547287245920391
0.9765760804239544
0.9719338808097483
0.9058395395835477
0.663953175544766
0.39504424268387145
0.22410644753037706
0.15494350146041344
0.15145762042138466
0.17016909710450348
0.21141007528425607
0.2373165343087027
0.2364542073529864
0.2127316913212187
0.1759267006792215
0.1491987515121258
0.13630091530758776
0.13509291902217818
0.1374207962560862
0.13785208040048688
0.13282190062518892
0.1288371139070688
0.09479752056386383
0.06075792722065884
0.026718333877453856
-0.007321259465751129
0.052811610570201416
0.08849376645293608
0.12238879066015966
0.15207048491006267
0.1695923982243018
0.18138714610232756
0.18341747102634723
0.17681086584146924
0.16245937915351108
0.13934685499404104
0.11212574255524356
0.0824400109541438
0.0552744893692117
0.04318392154479554
0.04723782600895249
0.06494986735486585
0.09064837695496286
0.11435012025715414
0.13260645602081897
0.14512578751783584
0.15184347196831155
0.15306400977587564
0.14811994147313137
0.13882984635645862
0.12779667962541036
0.11381477656974899
0.10281480268336976
0.10469718566636735
0.1199412531314409
0.14720452557816008
0.17409176510019192
0.18635811605877445
0.19915396606426394
0.1971574634307761
0.19290822574321667
0.24097176575218976
0.4718576943751599
0.8376501130983067
0.9587761865458496
0.9783332089637538
0.9731400649394305
0.9057159439767878
0.6602775491257348
0.3927665704119774
0.2239729544569846
0.1542115015442551
0.15076836816035571
0.1691231496961894
0.21012057208128998
0.2360620194643929
0.2350918490965483
0.2116180381022313
0.1754022195134958
0.14906930127594292
0.13646396888791007
0.13525917565672202
0.13733239097519268
0.13750420922070786
0.1322870980587609
0.128256657965713
0.09435317171844107
0.060449685471169134
0.0265461992238972
-0.007357287023374737
0.05693230061729071
0.09331107576539817
0.12815889781403994
0.1546438782424012
0.16864790504812652
0.17891638834304144
0.1808210575972204
0.17542559787096654
0.1632262782291642
0.14168818514098847
0.11485083668145496
0.08428456961279832
0.05606392906079486
0.04361683078695845
0.04782754315391227
0.06560575627378978
0.09035810378336097
0.11252256968431772
0.12893540184224145
0.1398175977908636
0.14570989777365073
0.14728517617087206
0.14354714161196058
0.13579319024830916
0.12637005683272443
0.11356031318350723
0.103670475155461
0.10734692587990044
0.12479395323144303
0.15182535338909772
0.17381868303967127
0.17751702204669698
0.17729488827588966
0.17094892986841775
0.18034233587565232
0.26714557836519337
0.5694079439632103
0.8975266942077584
0.9739486812193788
0.9846415754124577
0.9761237677022975
0.8976459421492471
0.6363548751754615
0.37980574527435595
0.2258708909126196
0.14883803170126347
0.145299318240181
0.16102361816022331
0.20026010930621618
0.22667428121229216
0.22502529644930186
0.20344984050842596
0.17152648001512588
0.1480669774569684
0.13767220204510502
0.1365385498889947
0.13680663904999327
0.1351344614560924
0.12852255707375038
0.12412582900650976
0.09118160367876095
0.05823737835101214
0.025293153023263334
-0.007651072304485473
0.05469553779216673
0.09069337960718497
0.12503922477502163
0.15324051384149215
0.1691154015144752
0.1801981951582298
0.1821781835677188
0.1761512497200481
0.16282633788916187
0.14046269237933678
0.11342339225072098
0.08331360593621172
0.05564075689808539
0.043383513476110434
0.04751387326713232
0.06525780900091738
0.09050402413914696
0.11346468372383774
0.1308281823260584
0.14255041892450002
0.14886424726866335
0.15025795137385065
0.14590317242142098
0.1373621266055543
0.12711576699774166
0.11369889409942455
0.1031920104528875
0.10591549597698251
0.12219894804064656
0.14935088816833147
0.17394067152884535
0.1820581121293926
0.18842284166216852
0.18385577462912905
0.18573251339700153
0.2523248056038317
0.5211502284795775
0.8734409579552885
0.9685694979630501
0.9825483687171692
0.9757638163662078
0.9034421044101834
0.6480612103679404
0.3856321077744858
0.22412438166814763
0.15164688670560567
0.14827285066735355
0.16539668968294224
0.20556611037092576
0.2316840628417442
0.23037031628621846
0.20777392947070578
0.17358428022507605
0.14860865589759278
0.13702990160861903
0.1358485525743619
0.13705877186572846
0.136350145345256
0.13048162141354613
0.1262855359283484
0.09284184076676699
0.05939814560518558
0.02595445044360417
-0.007489244717977239
0.056178578904129306
0.0924280825667044
0.12711007086109036
0.1541687900788748
0.16879501142297001
0.17933507136844823
0.18126687520524026
0.1756643636435796
0.16309514094903774
0.14128521934562555
0.11438119406620392
0.08396393537258844
0.05592234361855477
0.04353846130470126
0.047723174523147636
0.0654902448948337
0.09040467997756053
0.112828968810354
0.1295510459287849
0.1407055004995234
0.14673393899120946
0.14825047539585565
0.14431305355023766
0.13630427768366676
0.12661506745941745
0.1136072982342806
0.1035060673227236
0.10686585796289284
0.12392807191602108
0.15099885143662115
0.17385381700762798
0.17898833179333443
0.18086821328487346
0.17497311099450363
0.1818163657033111
0.2620281162208462
0.5544071342915057
0.8911495093351111
0.9726857704042221
0.9842068645772862
0.9762933185719046
0.8999227376450039
0.6398983035807536
0.38140072433867644
0.2250677413406641
0.14974669037015814
0.14630028055424538
0.16249178017812388
0.202040102950536
0.22834509144167592
0.22680141014754537
0.20488356017324394
0.1722101944747638
0.14824916682399275
0.1374585711076291
0.136306734836948
0.13688393510846442
0.13552819677356678
0.12916395554064
0.12483538348044787
0.0917275630012103
0.05861974252197272
0.02551192204273514
-0.007595898436502435
0.04557126872209987
0.07986662203347145
0.11098976961022297
0.14703147223183916
0.1737825688387195
0.18958525130166326
0.19156617464975156
0.18108145385375032
0.1600269546925142
0.1321053607485051
0.10374443543245193
0.07698892059645686
0.0533216611662784
0.042171609288528665
0.04565716615558443
0.0631815896810304
0.09190574173058051
0.12085886129107812
0.1456471383393228
0.16421377068890802
0.17408626418988682
0.17396177401305304
0.16443319685363678
0.1493878579226993
0.13226454430985296
0.11440101301311467
0.10188646733596289
0.09897452387776323
0.10821670144458877
0.13614089920144645
0.17598709707621255
0.2175221658202988
0.276584531545821
0.2994028625016755
0.27561072067831005
0.22432648504424454
0.2103165393690686
0.3793703449191018
0.680820362031575
0.8564350933486878
0.897590534777427
0.8626851707077604
0.7118508041552932
0.4360933366087227
0.22967812556000022
0.16449127874433647
0.1604003463434153
0.1865151631240333
0.2335616952380708
0.26044169195594113
0.2625123823610265
0.23448179882251965
0.18592487121032014
0.15127001253646566
0.13320072837390798
0.13233444991502682
0.14010967885047
0.14606879964863664
0.14448927032391726
0.14115314129514311
0.10415124939459808
0.06714935749405304
0.030147465593508005
-0.0068544263070370315
0.05671167680909619
0.09073748388480571
0.11783730081575305
0.14921211121071326
0.18465004525937947
0.2055640225960274
0.20629242400586603
0.1885568279775291
0.15576509749205122
0.11961114718129295
0.08937539239620196
0.06832981519802218
0.05154756301603697
0.04146524532893757
0.04371174103754495
0.06128225544533448
0.09608128398101153
0.1367889109416663
0.17724161224727616
0.21137895453443803
0.2294236605106765
0.22531260644854384
0.20311795303877714
0.17223140932325773
0.13902494837728238
0.11443621818824908
0.10494174924100254
0.09676303732579059
0.10025293936213443
0.12757701600352644
0.18070285920132045
0.28089151953215696
0.41209392278242946
0.45230850977663223
0.41803252673526986
0.319358398696866
0.17231504469316686
0.13370749268646187
0.23880344654359395
0.49663055973967296
0.6590963409554101
0.680778024141617
0.6244772179923377
0.42263121898966055
0.21110595785372457
0.1528554463892464
0.15248620601940507
0.19154429957126626
0.2532392456214904
0.2883460623090506
0.29804968917227204
0.2661585275989093
0.19919600498631881
0.15174588350865736
0.12898892074292154
0.13089952147279268
0.14883736129329672
0.1651268466176043
0.16748983787077634
0.1638646089255889
0.12101983063922452
0.07817505235286012
0.03533027406649575
-0.007514504219868656
0.05685793427832533
0.09088907184352109
0.11796439864704043
0.14927523176381258
0.18474157366975183
0.20568719644861
0.20640261671087065
0.1886118212829809
0.15573490831839354
0.11952131498391919
0.08927216490400955
0.06827061474042305
0.0515413820559542
0.0414642866243569
0.04370084235441606
0.06127469394181828
0.0961248568683259
0.13693505526007815
0.17752929740085627
0.21181141719022795
0.22992882057383984
0.22577544496095792
0.20345721481926124
0.17241472883158795
0.139058680443735
0.114425620485387
0.104969808985404
0.0967683695095681
0.10024041881602229
0.12754551578948228
0.18072630701776948
0.2813742549600222
0.4129863093246482
0.45316567214843906
0.4187962146396285
0.31976643796579346
0.17215684993587124
0.1331195169827652
0.23727406212256405
0.49443444832479455
0.6573524108205019
0.6793093794186027
0.6234224144473688
0.4222148832065891
0.21086058734999333
0.1526844112417723
0.15235004594827334
0.19149198698115003
0.25330544188171644
0.28849187636497475
0.2982569395795792
0.2663537207866302
0.19927063912317358
0.1517339797836694
0.12896396976064745
0.13090536315414866
0.1489177006775505
0.16528339589809843
0.1676646197326492
0.1640304802967096
0.12114107602952442
0.07825167176233924
0.03536226749515406
-0.007527136772031123
0.05209931406524426
0.08599571017175626
0.11397143624226176
0.147431597462458
0.18163665383914812
0.20144295433871587
0.20258424456944782
0.18669902418733902
0.15680027870220248
0.12266913429286114
0.0928886020115235
0.07037039992074526
0.051810015073056756
0.04152939368204463
0.04410609498627459
0.061594434059661377
0.09473669157043661
0.13213769167167136
0.1680659009173315
0.1976016385885575
0.21329018100019156
0.2104672161955956
0.19214491863209907
0.16612958435209724
0.13768937053018204
0.11466084868461103
0.10396225302413223
0.09669314252941383
0.10098582069049147
0.12881006791511118
0.1797314148785105
0.2646151435121637
0.38072832796111167
0.42098940176532595
0.3898259106700706
0.3021217900010168
0.17556711893045998
0.15665727763819653
0.299723492983171
0.5760126772370632
0.7192025739387521
0.7303386844684907
0.6583463845332355
0.4347465249477338
0.21878218644202596
0.15814512125501667
0.15659271663263516
0.19268462292034674
0.250423169206673
0.2829549968391607
0.2906055202969263
0.25924839953122464
0.19648492264119427
0.15202050847790646
0.1298785662161495
0.1308364812715063
0.14625146127528166
0.15996518536057525
0.16162448504110982
0.15824325522826102
0.11689318516190572
0.07554311509555042
0.034193045029195124
-0.007157025037160175
0.05680060145429773
0.09082964203391866
0.11791454948722384
0.14925044645224528
0.18470571485785905
0.20563895171070065
0.20635946040436973
0.18859028488362523
0.15574672745941767
0.11955648983670612
0.08931258510339145
0.06829379032446377
0.05154379220191249
0.041464656011322
0.04370510544658858
0.061277643609971885
0.09610776576561342
0.1368777615060311
0.17741651902594024
0.21164188049369145
0.22973079521620357
0.22559402478043378
0.2033242540311351
0.1723429226852784
0.13904551448464228
0.11442980106169291
0.10495883186497061
0.09676626391196691
0.10024526569504197
0.1275578242992424
0.18071716608009605
0.2811852079615067
0.41263709775914037
0.45283046161565943
0.418497607061749
0.3196072828857689
0.17221918538534192
0.13334926797161323
0.23787135560692652
0.49529340997734084
0.658035072593952
0.67988448015956
0.6238357641311908
0.4223782745751522
0.2109567839496142
0.1527514767098558
0.1524034579368782
0.19151259168294815
0.2532796295954874
0.288434864093265
0.2981758646255885
0.26627734291374433
0.1992414488937086
0.15173866694211297
0.1289737319200868
0.1309030487464698
0.1488862130626209
0.16522206353224794
0.16759616454785328
0.16396552610935827
0.1210936007336241
0.07822167535788993
0.03534974998215576
-0.007522175393578412
0.07598673899007659
0.11601471287465354
0.15442386232976957
0.16758922402796095
0.16716876938837438
0.170845206298835
0.17159325553538063
0.1703914411387884
0.165861808869682
0.15009206359768731
0.1247156614875249
0.0913176790382768
0.059593777290235524
0.04564948676394719
0.05030285399652071
0.06823441338028106
0.08965039801340946
0.1067752830460126
0.11738897505749592
0.12335772207399386
0.12688399633014
0.12949373912191178
0.12925020741341456
0.1260189144283041
0.12120870924705054
0.11212473486829186
0.10820649645145584
0.1191278345299924
0.14469509785102164
0.17095732100723
0.17398440871806722
0.15386001988063128
0.13460587979880514
0.14479461804473678
0.2103647937685484
0.38388805346086563
0.6536276356100734
0.827297517654479
0.9031800712048091
0.9267666408299706
0.8990891087109079
0.8414632241552591
0.7122484445164261
0.5239796905796242
0.34674695885234247
0.1578063477532148
0.12654064828922984
0.12839078056698405
0.15550686279771048
0.18642391558804391
0.18372656337615367
0.1708594701748398
0.15573531724616904
0.1434609972855083
0.14271088782578825
0.1424691073046516
0.13647455899949568
0.12829465599913692
0.11580447145841002
0.10947550182137651
0.07979196204161512
0.05010842226185373
0.020424882482092344
-0.009258657297669046
0.04851208344285745
0.08239114575503059
0.11128613306854823
0.1464479728823022
0.1789257910835698
0.19758959584904914
0.1990709863161137
0.18492481737036884
0.1578100582421213