# vtk DataFile Version 3.0
vtk output
ASCII
DATASET POLYDATA
POINTS 5568 float
6.913555645162291 -0.18140571583020232 -20.03853891860731
7.018999467829387 -0.20314281280682314 -19.34562684029216
7.125439583066977 -0.24362898610692363 -18.652782767094134
7.205925520732939 -0.2867598711822778 -17.984649311155327
7.238076833319803 -0.3229791164765132 -17.336603027970003
7.208496137012867 -0.34620503871508707 -16.691341915165623
7.104346366404113 -0.35063907601423533 -16.04515913369
6.91601008683404 -0.3351223448739844 -15.406445962216122
6.633127278676933 -0.30152538471023743 -14.783285365576738
6.253411156845555 -0.25187841978369463 -14.187879188275279
5.784409619267911 -0.18474861470761406 -13.62593166218675
5.230041123938378 -0.09590738061983178 -13.095081420579021
4.596706032602027 0.01743550670108744 -12.59488050917203
3.891942601373714 0.15190969543508964 -12.11982473199674
3.1295182568321636 0.29731980696330196 -11.664709311182596
2.337960553583432 0.43712502168873174 -11.225057784248618
1.551587432237967 0.5558153623205564 -10.789000806598661
0.8023493031001352 0.6448288682301332 -10.34370243701083
0.11424408784226758 0.7032550133198305 -9.880077617959916
-0.5005827174784603 0.7321701812960227 -9.39332279205439
-1.037971684032649 0.7311663680785974 -8.882284934300937
-1.4999632659652367 0.7010380503847136 -8.345035068257499
-1.8921293540799706 0.6407254349437439 -7.776460153386645
-2.216897952319916 0.5495850051518218 -7.172117840552233
-2.473633961953242 0.430924987365624 -6.526834867573988
-2.6598079617493573 0.2926371576067054 -5.835631622561401
-2.773633202246882 0.1478292216236745 -5.100157604137627
-2.816049898886278 0.012742400740849036 -4.333721126712377
-2.7975602458887576 -0.09692514357481588 -3.5641715643574825
-2.7410695610902343 -0.173910965336384 -2.8167195702317622
-2.67010211154001 -0.2090504853261273 -2.1005615285029435
-2.5961187402602754 -0.1946654826940446 -1.425833655481994
-2.5275150024324975 -0.12450973997387436 -0.7852565932829247
-2.4769350615800203 0.013434016178720379 -0.1674451002641748
-2.458072423728569 0.24185051299821153 0.4401674281849334
-2.4802197331834703 0.5532360690577474 0.9997076393271987
-2.539270653597261 0.8977950654670361 1.4270777096264873
-2.6149041378147126 1.2641844700290639 1.7677111734200084
-2.697315761513312 1.627389525068794 2.0562178184068243
-2.7772318060219 1.9315789655189577 2.307942881240205
-2.8447348057376023 2.134539580651994 2.5182630051216854
-2.8890232146310484 2.239680781179292 2.690639574330224
-2.917441433648065 2.271264008179473 2.8601692502365226
-2.937857361873151 2.1973850212094277 3.056613433861767
-2.947569497535329 1.9959557780442518 3.258314826821518
-2.926270812947956 1.6543764334609632 3.470891154093854
-2.8577505442048112 1.1215026099341716 3.6814805411351506
-2.725697242673379 0.47905364107267523 3.852330573248253
-2.530753570275053 -0.19967375619885108 4.005653196848778
-2.251111753796687 -0.8913930878077454 4.141849107372986
-1.865318154432075 -1.533331145960238 4.283182927672767
-1.3623344019234462 -2.077801913131265 4.464681392528431
-0.7696101234338104 -2.4827970234375765 4.715181659027422
-0.10980182157697416 -2.7560996412148415 5.040952965348276
0.5958885436635462 -2.8990378985432166 5.4316546419933385
1.3299836773020899 -2.9260330415730125 5.857346602578212
2.091535697794033 -2.854618116151373 6.2839665023377
2.8877310529103095 -2.685244109392054 6.680395695335141
3.71684537043643 -2.4048525463502655 7.016367238698874
4.547835231237898 -2.0323019906943154 7.25400921948391
5.35887341727054 -1.5896367101852373 7.384082917204954
6.131893586293251 -1.098472751132661 7.406717388937761
6.845793595634103 -0.584652126095404 7.33726360329628
7.4645769620233695 -0.0741749905460094 7.199048880894269
6.858814609285413 -0.5145771011521552 -20.169017739926915
6.9770074179367105 -0.5237755808827683 -19.506323938044872
7.08477170612866 -0.5483757810224301 -18.851676191821078
7.160665926662216 -0.5700623396261953 -18.218058150577853
7.1807543775140505 -0.5796239964759544 -17.59551864255353
7.130036620971029 -0.5723786892943075 -16.969389557985497
6.996539620803559 -0.5449834539736268 -16.3390880294904
6.772135936656445 -0.4965867297885721 -15.711658296500284
6.447448573800267 -0.43154669043258964 -15.09510096323801
6.022198661207936 -0.35680193646805214 -14.503909553594623
5.509833291545752 -0.2737906599490579 -13.94635638675457
4.919793688320665 -0.17931239867999332 -13.418871352011909
4.261531057587903 -0.06919013847656132 -12.9181210732515
3.5439158053449633 0.056523072648576714 -12.437571125124036
2.7759819830973473 0.18963848442332526 -11.970382249641423
1.9821640437358754 0.31438140560619887 -11.511209024126536
1.196181400160512 0.41503882665476577 -11.047611711270338
0.45157272196373655 0.483634959880492 -10.567591505372755
-0.22478266487982235 0.5223734462033924 -10.063567999599915
-0.8188849828447777 0.5376662353815804 -9.531047382970913
-1.3261465018695193 0.5340269771268926 -8.967741614288652
-1.749395527065861 0.5128874982573434 -8.372274704079802
-2.0979161144576577 0.47007934779588945 -7.740758778777114
-2.377771385836499 0.4012454711239908 -7.069760856685484
-2.5880388806744214 0.30643825260605595 -6.359692401150245
-2.7228278428344073 0.19233813467073058 -5.616595021841268
-2.7783795182345563 0.07216357478938151 -4.8536829915072115
-2.7595241912059203 -0.040500014156883146 -4.0859017519603915
-2.683242037939896 -0.12981584522368905 -3.3310173650809354
-2.5764710407534723 -0.18701979114513595 -2.60294881130044
-2.4679928903593162 -0.20249996691362956 -1.9001737996145034
-2.372869284698526 -0.17095416055647827 -1.226257769455211
-2.299720113420936 -0.09144787018786245 -0.5692567274474892
-2.2620971360732285 0.04236417503259189 0.08494668331936861
-2.2731510581028456 0.26114557347541784 0.744710170612525
-2.338731338849538 0.5640791755178113 1.3481825155519662
-2.445138874381174 0.890324950374149 1.772898142883463
-2.563918474335683 1.241848935572059 2.084268610221076
-2.6747874869005868 1.5905416716154974 2.3202413863751636
-2.762846389759453 1.8751607978431537 2.5059799803662477
-2.8253279437124754 2.066619655185073 2.659133344630604
-2.8606365929917317 2.1740063960694678 2.788468314132882
-2.8773053992799342 2.2226042748161645 2.925068721775048
-2.8831563313771027 2.1844829165853508 3.097325224676296
-2.8753536009720277 2.0344219151187914 3.2945078097767415
-2.834799147179021 1.736023451957443 3.5279501432464984
-2.7455588642057847 1.2433236928791938 3.7709579276918723
-2.6039803593837267 0.6296562536745232 3.972807906008436
-2.4165811894508815 -0.04307505197969719 4.152137694931152
-2.1628130078107914 -0.7437185565018835 4.29958570750599
-1.8176674983930803 -1.389488349388036 4.441137018016192
-1.3745944528260492 -1.9406759976921235 4.607851894746084
-0.8503014670962249 -2.37551168789992 4.8236687272218886
-0.2564818598388128 -2.7011757006371777 5.1026528528446935
0.39434411617954557 -2.9110863233574316 5.450212329196778
1.0850908123415928 -3.006529183480993 5.847808656597362
1.8108250308885472 -3.002401970593505 6.264177065328315
2.583419844704854 -2.8961146619817897 6.673583377069161
3.3988961123107764 -2.6620856271676843 7.0480191833010215
4.221173566754995 -2.3247077034210655 7.335559061244065
5.032937334136374 -1.9163897813480628 7.511324440383951
5.816376993103256 -1.4633403151368136 7.563651277953083
6.547480090657717 -0.992854225230792 7.499255278905644
7.184644300524739 -0.5303295891965122 7.336661935086461
6.951413782950885 0.04901097268670191 -19.948301583546254
7.047733137603438 0.01829459710812667 -19.233721864790805
7.15314710731004 -0.033683895799544665 -18.513615449515058
7.236928541754701 -0.09233103975424448 -17.820733941749126
7.2777510198856135 -0.14769341651986356 -17.15403310560941
7.263121093148899 -0.19258622445455556 -16.49407812305936
7.179299637835065 -0.2193847172280507 -15.83499832746191
7.015304293468751 -0.22657267815284346 -15.186370410053142
6.760039657133705 -0.21429903088104318 -14.55679563381788
6.410177468877189 -0.1814551604484095 -13.957252025372002
5.969754001910846 -0.1249164443910894 -13.391682020192176
5.439191811331525 -0.03983674076226314 -12.858336783564084
4.82271858056178 0.07569706722167932 -12.358476650792495
4.126711429361299 0.2161636561073081 -11.887157605661404
3.367951388597882 0.37002921962303836 -11.440255360059545
2.57767685542549 0.520213449482229 -11.01384611603424
1.7905315813942584 0.6513321307785611 -10.596373827382406
1.0373183023828558 0.7544097504023027 -10.174349447809782
0.34005709151898766 0.826396712214206 -9.737601846576096
-0.2903664422602126 0.8646896917936637 -9.280992583220144
-0.8501380164409943 0.865477814263586 -8.803795376051676
-1.340688263492501 0.8291078074787019 -8.303317655495217
-1.7645385520253352 0.756669951819664 -7.773627271057726
-2.1211012465527133 0.650154196114095 -7.2100374418024815
-2.4099295419265023 0.5150883745308237 -6.604336179003415
-2.6312906339078213 0.36000515264870847 -5.94463647703107
-2.78539163006918 0.1977413273257032 -5.2246127471768355
-2.8706758683052507 0.04647941496695562 -4.4559902233326385
-2.892834935261519 -0.07791533029777778 -3.67337552385414
-2.8716709262042515 -0.16909799502694872 -2.9099927152936496
-2.826838672856578 -0.2180846677185217 -2.1829755740116807
-2.7673766977279923 -0.21553007474759264 -1.5070592843180919
-2.70185407224739 -0.15170352772765605 -0.8776652732845596
-2.6427085851125933 -0.011058148338788543 -0.2840972347464229
-2.6042667386748493 0.2238654498570198 0.28996445558506123
-2.597763630921433 0.5416449877265361 0.8219179144112024
-2.623878547535645 0.9007151360692061 1.253214296438161
-2.66876872278299 1.2796723522059863 1.6166718079239306
-2.7304083179842147 1.6553588162313466 1.9455781135239165
-2.8041191797027736 1.9754023552708466 2.249292332389656
-2.875591163725973 2.1874135484288337 2.5052649218142413
-2.9271508878370303 2.2906661939378137 2.71251832870739
-2.9651954029756675 2.3085271436323165 2.9092961436073503
-2.9974438250751554 2.2055497366730985 3.125726763274141
[...]
CELL_DATA 87
SCALARS quad_param_group int 1
LOOKUP_TABLE default
3
1
3
3
2
2
3
3
3
2
2
2
2
2
2
0
0
3
3
3
1
1
3
1
1
0
0
1
3
3
1
3
1
3
1
0
1
1
1
2
0
1
3
1
3
2
2
3
3
3
1
2
3
3
3
1
1
2
2
3
0
0
0
0
3
3
1
1
3
2
3
3
0
0
3
2
2
3
2
0
0
0
0
0
2
1
1
SCALARS single_component_feature float 1
LOOKUP_TABLE default
0.016038203866491837
0.05758352073494913
-0.01269395849182417
0.08975071988172341
0.07407291850605666
0.16860001083201578
0.010121439772006607
0.010923009701823076
0.06909455432221932
0.07282446385292966
-0.12241836812499261
-0.06277897098343953
0.022397360546690753
-0.17089187980812343
-0.12912246878615774
0.110259476616945
-0.007400808204628101
-0.015952007929255982
-0.055039245365375966
0.0597942546763362
0.03172659972316633
-0.02732999732817726
-0.014968259391204948
-0.02063414645615941
-0.01554233620571091
-0.0018156519269841298
-0.007072400878216929
0.20355047843916108
-0.01862891961552432
-0.07302976123258108
0.0455963405290063
-0.005441429077016183
0.038401098692601034
-0.03244350706581871
-0.14434730253011002
-0.04179298655364739
-0.05272947846754055
-0.042602836879771615
-0.08274828088415886
-0.09094543828161464
-0.04574093528688922
0.11084347592137439
0.08156837094624371
0.0968177143227728
0.019833819485347917
0.08989254533193561
0.007247558026071625
-0.011420555752576424
-0.012015303478611725
-0.05576320158948523
0.05551845650978683
0.03144091053938172
-0.046382531408670394
-0.008269806664054975
-0.0005587801767593589
-0.09369954006357904
-0.018932246178145845
-0.019590443641690283
0.011362498293535986
-0.05536600253355675
0.010759869246782905
0.1299749391544349
-0.07029534452712698
-0.07607534201246974
0.0034105466332399713
-0.06323772997193466
0.030880528101370694
0.056273122839445015
-0.02477272336557182
0.10850975852791361
0.031514876632772616
-0.018542438963201256
0.12453023301059024
-0.06283294066655348
-0.008244610128716013
0.07120716528340651
-0.08808765695030535
-0.008018446696669436
-0.0653575049646303
-0.05274842018125086
0.09361504536714409
-0.0021372822663428617
0.23526048158288748
-0.11727451336874373
-0.04846961272830517
-0.05671567322587285
-0.1022763391908126
POINT_DATA 5568
SCALARS single_curvature float 1
LOOKUP_TABLE default
0.05042130070536965
0.08802185818116925
0.12239744555635815
0.15690827953955871
0.17818130643853797
0.18870424135404978
0.18669155192389544
0.1740028393996104
0.15283399930302488
0.12573895171879546
0.09838728328504762
0.07232156398667039
0.0501952291808357
0.04153296185551114
0.04748880851756666
0.06702752355075034
0.09573617524735958
0.12291461230505657
0.1444621924439032
0.15882638425267095
0.16505415016395508
0.1634879390716272
0.15535156401064887
0.14333285657154385
0.12950118829996
0.11348719373852759
0.10077288333295199
0.09781513640719125
0.10565878266868071
0.12871453254943752
0.16253505371916158
0.19725215971137058
0.2555254707824544
0.2873410530898725
0.2784354149114951
0.2401386541179457
0.2674442449654136
0.514209719487534
0.8074105711814916
0.922412422392358
0.9411967562633206
0.9016599585187941
0.7358674731483478
0.44373281149052674
0.23094914745785527
0.16089041491177822
0.15373729709760345
0.17701240189181025
0.22461040533620066
0.2541701044376581
0.25774387906760277
0.23309985335071376
0.1894596560775658
0.15651829664323447
0.1382039705930935
0.13508257203802554
0.14069794979350886
0.14621904347583192
0.14571246245171898
0.14531874917897522
0.10861387564562155
0.07190900211226789
0.03520412857891422
-0.0015007449544394424
0.06462914899434909
0.11003371960722326
0.14862217992041188
0.17947803670525705
0.19089381841501105
0.19022854655872445
0.17859664777953999
0.1588662878365544
0.13385903993010578
0.10586824379273012
0.07999480406467913
0.0573894605159403
0.041970420276366306
0.04018795602366125
0.05199338878133475
0.07646460175293342
0.10683421615005387
0.13320567691690668
0.1506552322812624
0.15794697373575603
0.15648663437697818
0.15004745236135894
0.14276667605894414
0.13527632855865174
0.12577965595870916
0.11185022816884135
0.09893653446305449
0.09449217864485143
0.09797723839269817
0.1130283323613399
0.1398775605596831
0.17480221379930455
0.26006391087953196
0.32902164726585126
0.3577645276708222
0.3155621914738303
0.32292857338800074
0.5744077768225262
0.8568191134700587
0.9555682326557223
0.9685508559007491
0.9413675412312694
0.8029010406316097
0.4838802650611852
0.24213184489239803
0.16207888400300285
0.14598865583648285
0.16401227737322505
0.21254186578491988
0.24712315256280543
0.2572093289299513
0.2405348942103085
0.2044063749528617
0.17261901720617068
0.15159025833637282
0.1425090273530295
0.14571088563227416
0.15380592858990266
0.15822892788938592
0.16696985338687653
0.12906518474121645
0.09116051609555637
0.05325584744989628
0.015351178804236199
0.04379558936772658
0.07593909203447108
0.10546720728725596
0.1407110243374241
0.16782021041968367
0.18610561921020338
0.1914853087153374
0.1847453335479536
0.16701856129184545
0.1406716133768666
0.11197144311372502
0.08321747550851137
0.05674091005143144
0.04322332125137284
0.04502630036039858
0.061036361114396205
0.08830781490367443
0.11615083005601427
0.14019065667923664
0.15887026771287827
0.16984230662349142
0.171479808525271
0.16330782835918747
0.14897995607668543
0.1324417637641112
0.11494255556271804
0.10284398591734246
0.10215721368051886
0.11537969876640523
0.14749695718932251
0.18696638817440006
0.21949128005524937
0.2571779309991653
0.261231138156533
0.2308841175346387
0.20494917517243913
0.2438957321909099
0.4816994704273138
0.7688230897892865
0.8887422005635013
0.9117398163897538
0.8630009755992796
0.6834420665832232
0.4158605770767528
0.22780914874958827
0.16590686180819483
0.16397139645682987
0.18832918073927338
0.23125501101552004
0.2545995151615202
0.2539232309095167
0.22524466960120282
0.17862861387216494
0.1465849859912278
0.13100621555614375
0.13152265383619308
0.13826412183008616
0.1418828685141909
0.13799122412522347
0.13241340911270416
0.09665109054817203
0.0608887719836399
0.02512645341910777
-0.010635865145424361
0.07934338148251874
0.13046614187681496
0.16945056483174448
0.19565040971804992
0.1985848518975825
0.18957710668393818
0.17157943242532817
0.14777179823864237
0.12066676732925241
0.09204490860870362
0.0668947023484181
0.04670265073010861
0.036469353705559635
0.0398112032287117
0.055913169879285594
0.0837282546678223
0.11495500661254678
0.14052921521436945
0.15451429240956321
0.15614008684710745
0.14871036300798837
0.13877404475786814
0.13275965033259762
0.12944556859882214
0.12342818487852465
0.11101736203121178
0.09876258824032397
0.09480246061193826
0.09790569800930331
0.11100491159648795
0.13310179669848388
0.165677476120842
0.2682803363574973
0.36180434633862346
0.4208643292786091
0.4170462619525322
0.41303052748587316
0.6515128515718791
0.8950985690485168
0.9708612504467787
0.9801221725810731
0.959767542747745
0.8428326390126266
0.5124456513516834
0.25762812159743304
0.17169573571265911
0.14779013600854238
0.15867967950009504
0.20199806508979828
0.23625682239924484
0.2514534408385579
0.24265158189129696
0.21479374301591173
0.1860186111378205
0.16400959652959
0.1499074117680313
0.1506445417334467
0.16045678317108225
0.16850056500167346
0.18474006290217954
0.14606840228750465
0.10739674167282975
0.06872508105815486
0.030053420443479972
0.0718035770902949
0.12019064753093117
0.15928906543680088
0.18794351468856485
0.19508607185342974
0.1900922528679849
0.17506794078534807
0.15309277651142714
0.12691785810945685
0.09860122657689036
0.07314534110467434
0.0517978873442196
0.03905777163918469
0.03992858838376318
0.05396779505518272
0.08022738029197223
0.11108858334162755
0.13708673733111906
0.15278463869687264
0.1571652404820529
0.15261102629887283
0.1443236508264018
0.13763232032206849
0.13223038613708277
0.1245158104051522
0.11137675872457042
0.09870261125861288
0.09433280593452337
0.09730643111562683
0.11092027531541872
0.1352845493759783
0.16926534284443737
0.2638609438902828
0.34595298516871087
0.3903274075439351
0.36675680532633675
0.3671012453459721
0.6131951473252683
0.8776446230736177
0.9643461235309861
0.9753259132918843
0.9520109813240528
0.8249134599654095
0.49896025882104766
0.24931127834217806
0.16602688576079747
0.1460049557878308
0.16069478278950813
0.20721376912517803
0.2421269001862499
0.2548426460019509
0.24202675571416765
0.20989604122144176
0.1794267502413852
0.15776912548274738
0.146144980326188
0.148142718977473
0.15715303845488876
0.16346099247868004
0.1760458762497745
0.13772878411157272
0.09941169197337094
0.061094599835169155
0.022777507696967375
0.1254279579349524
0.18801464899583864
0.21886256671818982
0.22797235739905747
0.20856761816449795
0.18169238806753102
0.1528322712116064
0.12434245875312025
0.09525707572075512
0.06509182505837659
0.04033889731493981
0.025868333120730013
0.026700895425055136
0.04145715216248549
0.06664287646574496
0.09903747556861915
0.13035264902611546
0.15234278402676404
0.1574915379405261
0.14655835216190477
0.12692951727789784
0.11107593501106434
0.10963916583286507
0.11719698227930947
0.11928013158587263
0.11017970213526519
0.10262127168921131
0.10449793338452734
0.11458396065199931
0.13312710912965922
0.14449978566618896
0.16448795385737539
0.2941517917856895
0.42844449740180357
0.5492624942402486
0.6440613211185034
0.6710627327229959
0.8351225072061012
0.9501395574766197
0.985485548914565
0.9886340320095371
0.9724460131347596
0.8843652284447654
0.5599481207783336
0.3138542926024153
0.22012288280625228
0.1764694925189703
0.1608109945211981
0.1756006818683043
0.19440096860265768
0.22055827521965496
0.23571860050707702
0.23321797142644565
0.21796170922603259
0.1978338185994417
0.17138938311354507
0.16463065691334444
0.17748327598128785
0.19337364577740848
0.22619997086920157
0.1863565769150238
0.14651318296084603
0.10666978900666826
0.0668263950524905
0.048853186118696705
0.0853275323558589
0.11880361868148118
0.15359418131845892
0.17614294373974146
0.1882706535685181
0.18773706833960171
0.17620478604277381
0.15569092024205286
0.1287386649890879
0.10112957339336485
0.07453107116538589
0.05148090917739486
0.041822423579576606
0.046927131635745634
0.06573863830431276
0.09416759426560563
0.12146811575692185
0.14355449318811683
0.15885931129654537
0.16612082721694657
0.1652385505325282
0.1570575944683038
0.14450182945420625
0.1300870337906785
0.11376841815537307
0.10115713679485218
0.09859374068934208
0.1073990369862931
0.13209656643846365
0.1670182617439858
0.20141127239873668
0.25553423682048515
0.2817211076278986
0.2679547607027573
0.23262643079505166
0.2625288858431556
0.5076001129403459
0.8000561780046886
0.9162240808770817
0.935884795252818
0.894428671812856
0.7253355112417909
0.4379458687212286
0.23004777549657118
0.161597170342685
0.15558583377736537
0.17924619604446196
0.2261083119083258
0.25454127152312134
0.2572179738747336
0.231645747872022
0.18724630709017953
0.15438432855069856
0.1365801918520196
0.13424320933246592
0.14012667117202374
0.1452595499615787
0.14404563226933537
0.14248114817291757
0.10596368484308809
0.0694462215132586
0.03292875818342912
-0.0035887051464003616
0.04905925101294538
0.08568618958594762
0.11928765510616572
0.15404409443210243
0.17642214134188075
0.1883325142647476
0.18759713715866688
0.17590604583549702
0.15530182754959665
0.1283299280112498
0.10075635371164887
0.07423065237100382
0.05130490453077442
0.04178154143428203
0.04700173069732113
0.065911862635269
0.09437926742787228
0.12166290305144163
0.14367702316877914
0.15885578446595938
0.16597869787735847
0.16500430749628506
0.15682825029649722
0.14434345818015662
0.1300069760622834
0.11372969635633443
0.10110360813803443
0.09848438446923878
0.10715476466962127
0.13162286013731858
0.1663935598935304
0.20083453417538408
0.25552306666670394
0.2824759107924702
0.2693569672532831
0.23363959171149118
0.2631959001429267
0.5085007823483318
0.8010711781833635
0.9170850377932246
0.9366269032069479
0.8954311744902883
0.7267724811912006
0.43872913415186987
0.23016135975478738
0.1614905538205196
0.15532656228502792
0.1789398352743396
0.22590915368948716
0.25449985776865974
0.257297490610237
0.2318480169115576
0.18754691179034974
0.15467082292011186
0.13679587866939966
0.13435366666500342
0.1402019215114795
0.14538757928353688
0.14426933176669296
0.14286076339039197
0.10631769427895461
0.06977462516751726
0.0332315560560799
-0.0033115130553574568
0.06955181077461205
0.11704854453251573
0.15606301062730282
0.18542412435860403
0.1938747417973103
0.19017752891239326
0.17614956325896114
0.15481812488566987
0.12897508102674918
0.10075600979975452
0.07518445007859666
0.053462659726353966
0.039916902282448825
0.03999221157894088
0.053363501234654956
0.0790977498982111
0.10982165475448005
0.13593924832889817
0.15217201456937507
0.1574320294722505
0.15380688861036584
0.14606693187806344
0.1391837795215125
0.13313801854765364
0.12488423351797547
0.11150912960469629
0.09874124194688016
0.09430929202175334
0.09736500775413169
0.1113117986001709
0.13641391847580975
0.17073938685299375
0.262612628833795
0.3408545086177425
0.38051350283005597
0.3510276343314364
0.35329580584245446
0.6012975744446077
0.8716212911209383
0.9619201333203424
0.9734834734755956
0.9490793742602857
0.8185952725795974
0.4944913479155895
0.24697046713262968
0.16461370622304625
0.1457975608402622
0.16156718315863558
0.20884327513823733
0.24376537862165265
0.2556878942790253
0.24166677464829533
0.20827256680962136
0.17735416381399974
0.15585859053988912
0.14501025359769162
0.14738527230614903
0.15612679127179738
0.16187171803807596
0.17329283952383645
0.13509610780326506
0.09689937608269367
0.058702644362122275
0.020505912641550883
0.07123216023750138
0.11939685291353466
0.158479801427591
0.18731482199067676
0.19478678020064555
0.1901172077733141
0.1753404421683464
0.15352392619904326
0.12743056823937815
0.09913835529418369
0.0736543068188956
0.05221337396279532
0.0392715666417575
0.03994335969206159
0.053815623146480245
0.07994476276382348
0.11077246546618942
0.13680119041042418
0.1526336749170358
0.15723473041491817
0.15291294201199834
0.14476187691996886
0.13802135071149924
0.13245697975169618
0.12460714096811772
0.11140910703844428
0.09870968167205689
0.09432112664463325
0.09730957279503703
0.1109989152326822
0.13554731484348717
0.16961929147533905
0.2635401697176717
0.34467637375730203
0.3878695833106297
0.36279637672068876
0.3636033615437145
0.610198406989869
0.8761561090866584
0.9637549835570203
0.9748793886321385
0.9512979332678512
0.8233565915829028
0.4978471645302981
0.24871029917222884
0.16565459818451528
0.14593644788025667
0.16090293191007007
0.207623860864449
0.24254822251267216
0.25506518786279275
0.24194383581042306
0.20949183225807053
0.178905807376866
0.1572865471414658
0.145857541669295
0.14795097703056248
0.15689451665002768
0.1630617940437395
0.1753547741301395
0.13706752082223816
0.09878026751433683
0.06049301420643549
0.022205760898534155
0.03860892176284187
0.05195675444000874
0.059419515744276064
0.08388944161286246
0.12139085969855866
0.16605566628925642
0.20235677128955365
0.22457750706037155
0.22606841431863306
0.2047563965920024
0.16939025930747179
0.12804278075004089
0.08771617807581947
0.05710699811101042
0.04389018765571898
0.04872463476678179
0.07111732300695911
0.10273040184754362
0.1323437920127355
0.15827841193756037
0.17686865441220395
0.18562752037029595
0.18093009172789895
0.16536564060903627
0.1431855329027713
0.12073028545190428
0.11167097897791181
0.12460524440093729
0.17162178356924518
0.25976292886262914
0.32641143947234397
0.3405355363233309
0.2995431876277858
0.20333542725613082
0.1399712509800852
0.12987871567928866
0.19248894514109358
0.3766572050856537
0.5828036858595054
0.696147995733485
0.7276291347934697
0.663308898217353
0.48821474352893807
0.32338486477522804
0.23198416779216183
0.20608812624862188
0.21711196997879667
0.23251843942850262
0.2421157390735662
0.2319715615570715
0.2183934108869588
0.18384128459652435
0.13917239105743515
0.11846680034685275
0.11721044286270514
0.12749992556525616
0.13518194660466792
0.13283451649501504
0.1207609067905656
0.11259074017768682
0.08088808846615146
0.049185436754616105
0.017482785043080748
-0.014219866668454609
0.03779253238956762
0.060755887926121355
0.0802523127877953
0.11281210468908232
0.14749010993716627
0.17876081459266663
0.19798287777271945
0.20341959296751635
0.19329065232903342
0.16870849010268404
0.13716289472743026
0.10310613043847003
0.0699478121230419
0.048062148435452694
0.04267661988483807
0.05290386326327936
0.0775320850271596
0.10710109151188991
0.134603307384642
0.1587225562201816
0.1755651621692642
0.18161061429178807
0.17440063661612212
0.15801324002721148
0.13779365453304956
0.11778066624929576
0.10711362437902273
0.11200523341809986
0.13833768236472493
0.19222628358358723
0.2433533324515846
0.26895728509218714
0.2697549498623298
0.22484892968706605
0.17446758724005706
0.15994505598597286
0.21321581138547974
0.43038824881528676
0.6878271366128309
0.8099959697041504
0.8389445897456835
0.777901430997727
0.5900559771430411
0.37026008873532884
0.22774526137583487
0.18168575683468938
0.1869183141329612
0.2091010430534397
0.23888027287808894
0.248100401646581
0.24080632919100933
0.20777200524425254
0.15987194603714602
0.13193385662217463
0.12240114423025887
0.12817638665514217
0.13590133371301202
0.1363513728972654
0.1273999063166924
0.11701863753573923
0.08305383472355342
0.04908903191136761
0.015124229099181805
-0.018840573713004002
0.052229841554941016
0.09103954639571402
0.12631012099699393
0.1604497727201071
0.180312596127893
0.18911056837815285
0.185535940804082
0.17164563134663155
0.14980352794608515
0.12256033561400552
0.09547286904732895
0.06996804497665415
0.048847468976031524
0.04125244058296855
0.04811931414047527
0.0684364038669551
0.09743464476420831
0.12448738578936729
0.14544224555360838
0.15877122416260495
0.16386307462062036
0.16155332895942096
0.1534866039757459
0.142078197211098
0.12888541103598183
0.11319728061883057
0.10038958579810546
0.09705525767847993
0.1039554793768874
0.1253820481883566
0.15805269425616075
0.19303937005665706
0.2557048256869115
0.29349758720414704
0.2900074647151483
0.24827856431096626
0.27269168152355183
0.5212023990723352
0.8149582400521246
0.9286364310237715
0.9464844959274054
0.9089933597423516
0.7469733153081738
0.44995867044466525
0.23208788057770666
0.16034698507351286
0.1519284574952287
0.17469106475894836
0.222930808520019
0.25360009531679223
0.2581487760939967
0.2345596147644523
0.1918219297283937
0.15886035897774403
0.1400304919528171
0.1360466308043582
0.14135267505404403
0.1472867967429194
0.14754213704481278
0.148454082670751
0.11155202915286361
0.07464997563497622
0.03774792211708883
0.0008458685992014381
0.04415703741481055
0.05168966366299164
0.05035104610503248
0.06696649387978146
0.10084384776951844
0.15341039460461747
0.20319978085880505
0.24020647069886042
0.2529402852704158
0.2355162947907064
0.19712546863822775
0.1491749904137587
0.10288788903052898
0.06722302735554436
0.04887413907124638
0.050775066434449206
0.0720722645166597
0.10343427928429413
0.13257419159343764
0.15626513701640302
0.17254150392335232
0.18195468927679595
0.18002891982567806
0.1671995535978119
0.1455754191087914
0.12195821310455308
0.11394765277316217
0.13387412244750485
0.2013373424188472
0.3225953479173502
0.4004863354647396
0.4042103108949087
0.3330902501422584
0.20700586442132088
0.13010208306197768
0.12131620342172164
0.18710314022929755
0.3345326875600955
0.5017523051396076
0.6022887777155653
0.6323982867265376
0.5733128328563082
0.41789506005315813
0.29130515305420157
0.23640724831492022
0.22680458875938136
0.2408760185429066
0.24952326990643786
0.24138497494633163
0.21525248192722274
0.19790926165699507
0.16421751397208734
0.12428588899898146
0.10986740951707498
0.11526940077846655
0.12803371173964412
0.13514676998030006
0.13169464365232983
0.11957739864348695
0.11633614489837141
0.08645859960440919
0.056581054310446965
0.026703509016484744
-0.0031740362774774766
0.03917062320955994
0.05157514799761909
0.05775471088910532
0.08115994890946476
0.11845254066316466
0.16440967748839339
0.2026157482693021