# vtk DataFile Version 3.0
vtk output
ASCII
DATASET POLYDATA
POINTS 5568 float
7.03909588201052 -0.05261376398886053 -20.024334135274085
7.142905615228177 -0.045993056382744806 -19.317346566150725
7.248307618208885 -0.06308547552938347 -18.607712448116022
7.328562769117569 -0.09099334334978496 -17.927680556972565
7.364868646292305 -0.12021860470551579 -17.273245718162133
7.34411618799792 -0.14458310413584624 -16.624744975394243
7.252155211613026 -0.15840042102215302 -15.97530697224398
7.075803646829836 -0.15940988815499407 -15.330925602286966
6.800528236501534 -0.14800883415523455 -14.700394662363962
6.423247831957337 -0.12393199789243792 -14.098652374031698
5.953813986063631 -0.08347047324975937 -13.53323492996689
5.399134861630019 -0.021137673030906606 -13.002241121481147
4.766831239420457 0.06684864758369699 -12.503569308053384
4.064842909473571 0.17805284705366028 -12.029843924695944
3.307323423133575 0.30220606980500125 -11.575061377970101
2.5215747129300823 0.42133756996663985 -11.136495814516156
1.7399104891566002 0.5189072251228667 -10.703072630652688
0.9935285823149077 0.5861515395529259 -10.262462626482261
0.3057554541962645 0.6221632084931731 -9.806590830666154
-0.31264944590438226 0.6269939553685434 -9.332537452566282
-0.8586338328934298 0.5997417976179048 -8.84066643382299
-1.3348250558874506 0.5430332085941888 -8.327063645418388
-1.7463441173737024 0.4578804704297763 -7.7833549602607635
-2.0955596898171707 0.34508988474952534 -7.202702993657631
-2.3833580555914424 0.20909889336105292 -6.5764296691458535
-2.610020963625903 0.05942538491036256 -5.894815494165319
-2.7748759708291395 -0.08776894356817044 -5.155895302420051
-2.8740614892192022 -0.2107290627503743 -4.3776204377704335
-2.9103382138124347 -0.2926941793685342 -3.59739650310311
-2.900952741071052 -0.33284777228401435 -2.8448310130987267
-2.8658723111220796 -0.3316899527539636 -2.1324607015495367
-2.8157016337252863 -0.2874757996513587 -1.4723425934587546
-2.7605045547735187 -0.1951617467510604 -0.8577285919747052
-2.714301399508757 -0.03957590985032722 -0.27253143366428034
-2.692068063953694 0.20096967039410757 0.3055269423072311
-2.7035334058131726 0.5172466873849002 0.8561997262250968
-2.751695122603666 0.8684690956919562 1.3119733798308983
-2.8223756216224394 1.2380000350950546 1.693870608077025
-2.9036474647812964 1.6047770400805719 2.0215710175532386
-2.984102269792339 1.9247946172784012 2.311373863238851
-3.051992274299978 2.1491919855682116 2.5514236717565253
-3.0932384578679337 2.2718785305030305 2.744428015191566
-3.1137110193862574 2.3125601382397565 2.9223713928224226
-3.1204518299566875 2.2527352592258323 3.115126160196327
-3.1127836003017384 2.071650239573296 3.314840523966524
-3.0727617454741942 1.740024356995242 3.5308177419189373
-2.9842166312098994 1.1983944248058394 3.747167529939815
-2.830048390586261 0.5330431831707689 3.9184453118077776
-2.6076454611334134 -0.17101762599469017 4.067303467585012
-2.3025137458859417 -0.8860564944354157 4.196216692658596
-1.8967073066478353 -1.5554883946924454 4.326184689482822
-1.3673292563411357 -2.135804941659395 4.495706982497466
-0.7381387276431949 -2.5698551001506678 4.737387022284236
-0.037338568989512044 -2.8549385656714366 5.055125395263846
0.7042950213027296 -2.994847517290208 5.431617953496433
1.468204943635561 -3.0131558398770073 5.837958937541729
2.2537054324938692 -2.928026848937362 6.244984691167548
3.0647253805755406 -2.74326532334512 6.622144902758589
3.9035829667460646 -2.452281656755824 6.93954814215472
4.7421350651297765 -2.071769688828291 7.161469635458019
5.55737380932592 -1.6190181067161729 7.281690617611843
6.330748040939639 -1.1132667633074735 7.302202587786255
7.040718148012085 -0.5785447168581213 7.2400300341314
7.6526711929505655 -0.04050819150283502 7.117249761073634
6.994126767700361 -0.05268873753935386 -20.008757477539866
7.096431695870816 -0.0604366372295147 -19.30284778058843
7.202016715327741 -0.09034053393795434 -18.59407767510072
7.283145345376416 -0.12848496272697008 -17.913358341830524
7.319727964413096 -0.16527330068198143 -17.257291326612783
7.298751603534225 -0.1943154494564696 -16.606740231028947
7.206422180565421 -0.20944533551758635 -15.955690451689163
7.030780831665018 -0.20878995877915157 -15.311463690276057
6.7589358028072395 -0.19295646203077985 -14.68267312265735
6.387905371975118 -0.16190023970636871 -14.082776978423832
5.925673684422185 -0.11248555235076513 -13.518084469873497
5.376985098143326 -0.03963095549148486 -12.986639112970538
4.748401218588945 0.059800077003662175 -12.48746410116723
4.04741142202994 0.18244917949452888 -12.014122976063657
3.2887468189494045 0.31776353980360184 -11.56122186897704
2.500905110340918 0.44826334607529994 -11.125425546406108
1.7171525171914819 0.5578888480567226 -10.695405820597045
0.9687375448742521 0.6378670632894385 -10.258466600141183
0.278789243535004 0.6867746795109217 -9.805836538093384
-0.3416514816156655 0.7042202576986013 -9.333703759881118
-0.8891451073845051 0.6886971630489687 -8.84188776094044
-1.3659299179411764 0.6419401541606415 -8.3271482738437
-1.7766075916253674 0.5645892611977604 -7.782311002445678
-2.1228594421219076 0.45745228133115684 -7.201497527196868
-2.404944584859577 0.32500629223668215 -6.57679138810209
-2.622564593092741 0.17622256775499887 -5.898856212887092
-2.775014168625187 0.025886097497516525 -5.1654139520661735
-2.8599398352881016 -0.1061478595121158 -4.392089207113721
-2.8823486906889895 -0.203507246631634 -3.6138095382224416
-2.86118179639515 -0.26282012724729487 -2.860161059862872
-2.816982991517151 -0.28050997129249766 -2.1440227748182488
-2.7601163297625457 -0.2518994632523897 -1.4776619722441615
-2.6999411800251476 -0.17058871481508475 -0.8547684089908248
-2.649810676281733 -0.021913704324112215 -0.261519018156561
-2.6242894154756478 0.2149746736050173 0.32104938127360805
-2.6334088280143786 0.5306501396594299 0.8687795855500584
-2.678329293211022 0.8823956253367855 1.313035449139032
-2.7437408205346445 1.2534397132079265 1.6823303574896409
-2.8205354113655488 1.6215409125015237 2.002590190996992
-2.899290244061914 1.9384514618123245 2.2881787819065047
-2.967958346594934 2.1556681881428945 2.52609542418448
-3.012223415273225 2.270207136640284 2.718241305659264
-3.0382755008420466 2.3037783624810264 2.8986079561214444
-3.0533530742471195 2.231648086668355 3.0971268528331892
-3.0560420211822703 2.032970633388245 3.2984584798513366
-3.027287094950979 1.6895504606413279 3.509511813122277
-2.9508937572984286 1.1445976444755015 3.717925856326637
-2.8079140600284886 0.4841069072782106 3.883776562946174
-2.5961606077468007 -0.21006845892938752 4.030228738889145
-2.297709887879249 -0.9136288832635797 4.16045633539216
-1.8935834225105437 -1.570612006773795 4.295358563084898
-1.365175219051486 -2.1342878757608066 4.4726873005351315
-0.7395900788499917 -2.5506655416404462 4.724368600238503
-0.044529936024472305 -2.82163694731697 5.053991383730501
0.691603896963854 -2.9512603628464484 5.444357338705597
1.4504928756962068 -2.9614866155726265 5.864057234278614
2.2321563824360786 -2.870682131762315 6.2814465845805
3.041187935193736 -2.6817659344473634 6.66489043783356
3.8785246177868635 -2.38743808369283 6.983997060812326
4.715673515308023 -2.004291234722348 7.204453378685488
5.52931316907307 -1.5499523282733592 7.321321379599706
6.301021552414989 -1.0439461024063288 7.337773751471196
7.010002187848079 -0.5108100838981661 7.2715922955667
7.622133712806521 0.023669321562220902 7.146181899010159
6.553487362643906 -0.053423381776651825 -19.856126292735247
6.643090409539848 -0.2038161684141208 -19.1455897695214
6.752276063953922 -0.3614899236836521 -18.433436193709035
6.843070155503884 -0.502541790819878 -17.73810400982955
6.882660375900698 -0.6154030986373834 -17.061499584464897
6.859396724495956 -0.6913191799131786 -16.38898240522287
6.763404249373101 -0.7194907848158587 -15.721902483202099
6.594640264805163 -0.7025600595208649 -15.078946777349053
6.355043765025811 -0.6441038430979312 -14.465241568514159
6.04107275701942 -0.546320843082581 -13.87888839999234
5.642934036584046 -0.41062063788097214 -13.315158392498148
5.145659540698113 -0.23469804873975691 -12.772784205405129
4.546323688822415 -0.021608214601723574 -12.262852138988556
3.8486273482247673 0.2157852760709941 -11.788856777382895
3.072371582845142 0.4635549262927129 -11.351045856840635
2.2569658321571286 0.7088632566883224 -10.939281771331993
1.444463461255678 0.940046906729584 -10.538941867566889
0.6665907003258419 1.148076828054882 -10.133279947577568
-0.0545827946291535 1.3263496876818228 -9.706754924268163
-0.7041943508682134 1.4699675263705356 -9.247060241628853
-1.2740690924177118 1.5713409326475536 -8.74922447610831
-1.7618107959218845 1.6230157945575954 -8.217726587305949
-2.1671080029420655 1.6217858433101429 -7.657968583959226
-2.48605208982315 1.5688695432185658 -7.073360563340064
-2.714498162861834 1.4697999030445044 -6.462162508148007
-2.848027401117527 1.3287781089757948 -5.8160682788902145
-2.8852248021028433 1.147058508613592 -5.125793716372692
-2.8338632013870657 0.9237859465742131 -4.381725443896512
-2.7168766258767523 0.6671923122809391 -3.5944785825404693
-2.5720519407692257 0.40569915008656804 -2.7967135606558857
-2.4299107716293227 0.188510772207314 -2.012174593754852
-2.300469639876788 0.052712796534501366 -1.2602167020842994
-2.186553895261074 0.0186742971991714 -0.539558287605978
-2.0949045705458547 0.09624061486466876 0.14285570568018024
-2.03610546397399 0.2971860197762616 0.7732846696228605
-2.0227864717606927 0.6072029195598555 1.2930324898245238
-2.0385191513368475 0.9655569617831493 1.6350745281638304
-2.0567595992662513 1.3573778095927513 1.8954933003367123
-2.0921564651197304 1.7419852378815335 2.1490568303081283
-2.155072658153765 2.0293479682737736 2.39506798092233
-2.2308149312066337 2.1829055555910593 2.6144043093397156
-2.3060142159318047 2.227473956240758 2.809579834383531
-2.3988071991773627 2.1834688157877364 3.0378615640992472
[...]
CELL_DATA 87
SCALARS quad_param_group int 1
LOOKUP_TABLE default
3
1
3
3
2
2
3
3
3
2
2
2
2
2
2
0
0
3
3
3
1
1
3
1
1
0
0
1
3
3
1
3
1
3
1
0
1
1
1
2
0
1
3
1
3
2
2
3
3
3
1
2
3
3
3
1
1
2
2
3
0
0
0
0
3
3
1
1
3
2
3
3
0
0
3
2
2
3
2
0
0
0
0
0
2
1
1
SCALARS single_component_feature float 1
LOOKUP_TABLE default
0.021041668536120724
0.011978898202600582
-0.07682457923265407
-0.08931043973159254
-0.052567508606765366
0.021928192428781326
-0.04097871704404797
-0.018646146571323734
0.013589072341443024
-0.007645561669463736
-0.026581277482222235
0.026722730953148956
0.05237224460160694
-0.10568129047281423
-0.0158371833981976
-0.10941401225017258
-0.052750486617758975
-0.05562472223957619
0.035455947657242984
-0.002833956522340697
-0.0037929151002720207
-0.018977567452662904
0.02488857672627843
-0.03466920247673858
-0.027156298872260256
-0.006456572693060954
-0.09836829448644667
-0.057869524496378236
0.06432278857201217
-0.014944750586234144
-0.0076590893000416035
-0.015436561545042035
0.11186240241857293
0.0047095908140904405
0.0024953629266285518
-0.010860837572715276
0.026376129020172678
0.061844662369722594
0.06872989288401178
0.07048432554864696
0.04489293522068969
0.014087288081971301
-0.03465291508701098
0.02241042585494847
0.026702580588021774
0.01178296670026796
0.003096986831909246
0.07764608763629989
0.07470002067648379
0.00980407769333005
0.010281072888620684
-0.030959848764784168
-0.036679638398331896
0.006622783612607132
-0.0059522669708341365
-0.14848592809361974
-0.0968696970134292
-0.09235120356656473
0.10384258710903929
0.16633335403399163
0.06503759462837047
0.033044979469950664
-0.030430565390023426
0.04258989954986259
0.024391677489824726
0.10379394375655832
-0.0011730839887826305
-0.038719418206534684
-0.013168635887968454
-0.03311166260122561
0.018033400240529927
0.004764778454446433
0.010712514133841125
-0.03972745389211191
0.07619786827796192
0.014450809418580755
0.02111627373289544
0.010150883000059677
-0.011521813697841669
0.007686770088652584
0.03070083269932626
0.015711403436161023
0.016304305836480983
0.025512111662478278
0.015266588067136013
-0.10488596119456134
-0.056894697697971904
POINT_DATA 5568
SCALARS single_curvature float 1
LOOKUP_TABLE default
0.049297191843578336
0.08319035628854403
0.11276323492820883
0.1459494366791637
0.17175958236111968
0.18785804131267353
0.19036763392186598
0.1800174231534971
0.15857260050987285
0.12979008812469506
0.1005065736049918
0.07328518806116548
0.05073706720841
0.04173767767886337
0.047190871611886155
0.06495244288191072
0.09080714550645365
0.11536988653183405
0.13551691771048965
0.1496784817259644
0.15624430817156232
0.15437636280277547
0.14529254768710656
0.13452075315121514
0.1258320647418939
0.11769131159667424
0.1113130336536338
0.1097510354735028
0.1146131315147868
0.13427684417701607
0.16324647417577534
0.18736917705052922
0.22175990635165294
0.23519420633915558
0.22401463775952923
0.1862413554921728
0.19641201748920822
0.39851224158635784
0.7446645867439788
0.908032636143002
0.9390558592333582
0.9151360858852534
0.775620590032634
0.46818992291636596
0.23543929232512512
0.15725156552498804
0.14382487806777516
0.16086384420668723
0.2054981145267334
0.23892799511219356
0.2499473417599863
0.232069206583569
0.19215239785488128
0.15801271057745897
0.13673861703052678
0.13194939361906668
0.13563602814364226
0.1399415595145803
0.1393629767449075
0.13896854253219773
0.10361561968771811
0.06826269684323849
0.03290977399875887
-0.0024431488457207495
0.04792648253676223
0.08205507322783002
0.11257751398802997
0.14660357188081638
0.17194017531654027
0.1875586912079698
0.18993436456725646
0.18001192113658024
0.15950687348762047
0.1316242709389357
0.10285381016178702
0.07548972008785956
0.05204293493226563
0.04202369293313128
0.046702203041654906
0.06438511770466707
0.09115032939759155
0.11699830035192255
0.1383568267284168
0.15365088971153
0.16120094703309645
0.16018064218484593
0.15139708649536976
0.1394355576358178
0.12784771295487604
0.1160140481356179
0.10710858365980043
0.10548463602567572
0.11288642152884218
0.13609489445294412
0.16851087594236894
0.19673047537531455
0.23627999025406526
0.2509013657097309
0.23518304081737956
0.19988032565650907
0.2200378552575682
0.44009830771595315
0.764106064032427
0.9071354435990604
0.9341840111677139
0.9026506095936616
0.7483482602587787
0.45096367827123435
0.23206588117718674
0.15931111025128517
0.1499491658771139
0.17015790693790922
0.21526415377025712
0.24580722315091996
0.25267291086544513
0.2308874234414628
0.18848833827141914
0.15490988714993795
0.1354682645093472
0.1322700837238151
0.1371049637959241
0.14152027847545046
0.14017129723382077
0.1384705258300953
0.10276192816809923
0.06705333050610315
0.031344732844107076
-0.004363864817889002
0.04857899759138206
0.08806071177952818
0.1262538537880185
0.1656831891504925
0.18541401796843476
0.1935073791911835
0.1900505357998661
0.18017461087887093
0.1658962967190972
0.14608935171594736
0.12275282960098646
0.09473534481198481
0.06409355272889175
0.044442929922743374
0.04144223095447442
0.05787000851474609
0.09174501279151019
0.12901723685762176
0.16247279699523462
0.19084580925827907
0.21191915750130433
0.2242566074057151
0.22297719561188226
0.2026588877131368
0.1653712697261896
0.11641521531537244
0.08077751964024603
0.07565736135065351
0.10094625276696853
0.15209247726895753
0.21324749465248577
0.28451973035361877
0.3913294897193328
0.4220741869060081
0.37444638767490324
0.3848371839919892
0.5135581847124135
0.7733066503601069
0.8691472305795117
0.8835395674889941
0.8323009582615677
0.615264870211581
0.42103385046661584
0.30980932155518587
0.2318541340868136
0.21894318167891197
0.245282611529919
0.28315361335211353
0.3171133129262231
0.3066206823734791
0.2675777217217205
0.20696790564344794
0.1479899790999547
0.12715573008577122
0.129617595184124
0.14335145814966124
0.1571785497131751
0.1596925071180174
0.14948642870248868
0.1343030067912724
0.09480050251680916
0.05529799824234591
0.015795493967882657
-0.023707010306580595
0.050777786899362014
0.09130738090405913
0.13013050695429648
0.16976259276010264
0.1888401875297652
0.19571370542327599
0.19090445350809718
0.18040665803622533
0.16643442856594648
0.14752040747862782
0.1249744204652576
0.09699493433638712
0.06564839263940876
0.04477316640656009
0.04073713094520875
0.0569164946018181
0.09144304293360106
0.13006970701842013
0.16517947573227681
0.1956276269738767
0.21913302244891378
0.23396008657933037
0.23406664906970917
0.2126681108566816
0.17215795469202588
0.11854113290383712
0.07948313245624514
0.07364376269123979
0.10029570379702116
0.15382482277021414
0.21804411291213274
0.29606793660882214
0.4140835891670646
0.44680323894358626
0.3988852505290502
0.4172765472906133
0.5587910817917954
0.8000933670290827
0.8766044885350813
0.8808148513893408
0.8108681428858098
0.5620646865389319
0.38465751217809013
0.2966061213251178
0.23488631575675414
0.23208703439753825
0.26331277848010876
0.3012917636066036
0.33125472316211546
0.31340567274024755
0.26754941096331475
0.20200073749379058
0.14219570031405568
0.12391583972537752
0.12974575117559095
0.14592446456317393
0.16064657667349053
0.16256236500594534
0.1509865161677065
0.13385121959013827
0.09377685348294044
0.053702487375742625
0.013628121268544804
-0.026446244838653016
0.04551971559808432
0.08311540278530852
0.1198290062687902
0.15855459918571083
0.17975927952707474
0.19020797107172357
0.1890545312305857
0.17994198847958776
0.16461732072406324
0.14285226474404225
0.1179887008653205
0.08999591701718486
0.06096576096794598
0.043815366729601506
0.042877920745569405
0.05973820930656146
0.09207243444982795
0.12650474340510137
0.15668294959896648
0.1811693326252246
0.19787592229499235
0.20575355385323363
0.20187294548409648
0.1835418771684886
0.15269558855306656
0.1134734358955698
0.08492673975003923
0.08115799418358684
0.10305630014652156
0.14826120925372122
0.20273063371044603
0.26148161050931507
0.3473654488820171
0.3736621418515897
0.33058460936774503
0.3262909676380076
0.42644078264131025
0.7072163944462501
0.8513319368172315
0.889517124067336
0.8687068775939087
0.7171129162723332
0.502655185862068
0.34016536038716366
0.22756409852765966
0.19618393943953952
0.21316487549979934
0.24910390684515737
0.28912536715009335
0.29189269104274607
0.2659930183258109
0.2156021990583375
0.15940691393343254
0.13400783287854096
0.13001335255460922
0.13899237642020923
0.15081842454050723
0.15430858327277563
0.14670125034489412
0.13528976490752703
0.09687391016067964
0.058458055413832255
0.020042200666984866
-0.018373654079862523
0.049440707804004606
0.08331483678234347
0.11279672977451267
0.1459007493325366
0.17175460502932322
0.18789564278095147
0.1904130159232391
0.1800171030326721
0.15847824442185116
0.12960781256780873
0.10027481879909844
0.07306798062173396
0.05060890176216109
0.04170912464987968
0.04723757570770921
0.06500638324574536
0.09077078778685778
0.11520717706882395
0.13523646527556143
0.1492895899969593
0.15576325452336376
0.15381823005511333
0.14471145989189052
0.13406061756230164
0.12565593485625812
0.11787091961940413
0.11173333156372804
0.11017443343623937
0.11478495279923251
0.13409887522955258
0.16272880292098896
0.18645214158542772
0.22035701382373657
0.2336845978805967
0.22295178800542076
0.18502177663466285
0.1942464256754419
0.39455889723976073
0.7426732994695914
0.90806574254989
0.939464583088186
0.9161936690815751
0.7780709713975531
0.4698545897689613
0.23581380756339376
0.15709060806624803
0.14326152741462764
0.1599822175792328
0.20455664454458442
0.23825386776144672
0.24967164497253133
0.23217186048565022
0.19250275764965102
0.15831674742024304
0.1368691374680792
0.13192651384254914
0.13549908113490663
0.13979039894857812
0.13928540459301733
0.1390178282816167
0.10369934556914481
0.06838086285667291
0.033062380144201015
-0.0022561025682708846
0.044798738175458444
0.0815822195632984
0.11740987616830426
0.15558452862744834
0.17755292156669097
0.189087162146339
0.18886592237838856
0.1799093369894191
0.1638899918190272
0.14110244327072274
0.11551607113077653
0.0875790931511812
0.05942411088865708
0.04351478788062377
0.04358075423397902
0.060623796830124886
0.0921023813223103
0.12509082560028198
0.15368379431997045
0.17638848645752134
0.1911818782451252
0.19712423375027793
0.19209278635802976
0.17471964892342404
0.14708618393399403
0.11272895963676609
0.0877218636359902
0.08453263339363923
0.10441560221077612
0.14624981711252488
0.19718278633703273
0.2501983776651819
0.3266397939237989
0.35066494580372687
0.3113295325005091
0.30051119247417896
0.38604195641369576
0.66832886445505
0.840786615030156
0.8927698918080345
0.8838999522863086
0.7619729437860613
0.5462483284643106
0.3570328043474463
0.22640404599240366
0.18682980695440699
0.19932916513829915
0.23352885668148748
0.27563324201867906
0.28423151012926795
0.26451341790922156
0.21920451553169074
0.16485853862878627
0.13751606549527187
0.13051697875235888
0.13723840730854223
0.14798294625540512
0.1518357193646254
0.14543254430945982
0.13580640233743232
0.09789737504727433
0.05998834775711634
0.022079320466958346
-0.015829706823199646
0.04492141532994534
0.08034807218234177
0.11411573553675385
0.15080263034117394
0.17426371762621565
0.18773858455121933
0.1889666887436396
0.17993289542451818
0.1622603459530226
0.1373854680285652
0.11042655131960114
0.08267153047747157
0.056373175318429225
0.04291716032846518
0.044932820993103854
0.06228429128605693
0.0919207045947859
0.12199235848163816
0.14751894507935903
0.16694362364217244
0.17837724964122417
0.1809871191807022
0.17401585789514973
0.15865085268462276
0.13752555580953302
0.1127220628619051
0.09463694889605577
0.09235353852585584
0.10758541455786853
0.14211849811698168
0.18566089993017043
0.22798786544526453
0.2875254552057836
0.30722948161543645
0.27694410527448066
0.25458757100093016
0.31166711043592976
0.5801299191163304
0.8152360453574717
0.899518787501895
0.9092053042503326
0.8355755628743374
0.6348732882811311
0.3938245585292168
0.22626164144973274
0.17203163729410256
0.17567278759735108
0.2050864464473234
0.2497267221433418
0.2685697652175227
0.2604627665829062
0.22511241468108834
0.1751771562442124
0.14462950111040937
0.13207706071504022
0.1345131981931272
0.14294940177393303
0.1472750938709208
0.1431044038127969
0.13687387975517473
0.09991699396414737
0.06296010817312
0.02600322238209264
-0.010953663408934722
0.04815656992922679
0.08223798802006278
0.11258955458369604
0.14646674499428275
0.17189088098454897
0.1876004605355996
0.19000709436730018
0.18001395520890273
0.1593449114648168
0.13130236949555232
0.1024398358775775
0.07510027879261195
0.051811556690603756
0.04197365297133378
0.04679045350585898
0.06448797172615978
0.09109316355524617
0.11671371271947782
0.13785601626758912
0.15294572216681754
0.16031533160274494
0.15913656175996826
0.15029107678181466
0.13853464694217987
0.12746086616136768
0.11629025609663822
0.10784216397530164
0.10623338638782034
0.11318895669650642
0.13577226520266908
0.16757978934326637
0.19506949781551158
0.23367690447282904
0.24807495874771637
0.23315858930226835
0.19733209299463703
0.21567580090506566
0.43260339912090934
0.7607890437332996
0.9073625501957981
0.9351402128589893
0.9050974786471544
0.7534755646753345
0.4540428917878901
0.2326053959196896
0.1588894872050149
0.14881216171604525
0.1684696993375258
0.2135111020743668
0.24458727546163125
0.25220135732582677
0.23111502164255654
0.18914994786328043
0.1554601813838878
0.13568536171429188
0.13220156102408046
0.13683489152985828
0.14123540210328261
0.14002565545998058
0.13855821817850658
0.10291328774410319
0.0672683573096998
0.0316234268752964
-0.0040215035591069925
0.04566856270136186
0.08054609981207288
0.1131715734191934
0.1489579189817093
0.1731301220208784
0.1874570440566445
0.1892156741658768
0.17996442859301323
0.1613420612753693
0.13539888005040474
0.10777768958161638
0.08014561602233186
0.0548350292750999
0.0426080729042422
0.04558502082952579
0.0630674932761428
0.09171352879452535
0.1202932779487856
0.1443134073477161
0.16220278393433704
0.17214358940185215
0.17331842033733458
0.1655667934344502
0.15132114275954164
0.1335538797277547
0.11346322809520877
0.09875564536978494
0.09679134561126848
0.10937894587613183
0.1399887847325471
0.17964665314051984
0.21684849963184705
0.26876065416850853
0.2864810316294991
0.26123478328419497
0.2337585106591562
0.27713711269470415
0.5313602939416946
0.7993578030504985
0.9027404109536771
0.9195844262120038
0.8642938006504013
0.6781747531055751
0.41374684987192584
0.22743681694355963
0.16643042485699952
0.16553188556450069
0.19195087243334724
0.23714390019299125
0.260519219947862
0.2579381560440967
0.22750164513368903
0.18009980636527356
0.14826958793994602
0.13313097493454845
0.13350378267005555
0.14070035958866822
0.14513718109798768
0.14201561107610078
0.13743105223165347
0.10093052075760123
0.06442998928354898
0.02792945780949674
-0.008571073664555506
0.04465339614310304
0.08052744414043875
0.11507482996640818
0.1523497045131216
0.17528342260072774
0.18809707916795582
0.18886532912656934
0.17991543603375465
0.1628747627656562
0.13875623287161062
0.11228126847815267
0.08445083676322244
0.05746875045630949
0.04313337722219221
0.044455056086431625
0.06170350521059146
0.09202176029700965
0.12314830951550101
0.1497644709936047
0.17033035268206717
0.18290771878962056
0.1866391905501056
0.18030785404650204
0.16419510224744496
0.14070818250948433
0.11249733673755082
0.09195153856567323
0.08938321781642868
0.10638217683400433
0.14361983044905854
0.18986948468353732
0.2359458530973761
0.30127964292746146
0.32248887457013586
0.2887718856649441
0.2703498350151716
0.3374946142985242
0.6133326233605761
0.8252321373945309
0.8970945752525571
0.9008352274392623
0.8116545239422915
0.603096867194123
0.38013772640190463
0.2259570093449795
0.17677700231452986
0.18361257067286577
0.21493469830234618
0.25889425980181113
0.2742525901142396
0.262073935128669
0.22317332799732492
0.1715515527578417
0.1420547212582406
0.13143351654383695
0.1353796169721802
0.1446689421751881
0.14886300095631536
0.14391375637741366
0.1364843899735625
0.09919303490194037
0.061901679830318246
0.024610324758696123
-0.012681030312926
0.05024365111353897
0.08402750728287618
0.11302480356777357
0.14568545738303962
0.17176705240961151
0.18812428580083612
0.1906670441026192
0.1800122862408175
0.157958777534012
0.12861357926630826
0.09901535952554925
0.07188892699198042
0.04991467692959051
0.041552915221319785
0.04748652128880015
0.06529307346770286
0.09056561707463273
0.11431698767485993
0.13371211854640505
0.14718617040045293
0.15317418873842015
0.1508306306498351
0.14162005954677218
0.13163708934892493
0.1247676898256682
0.11888738844279736
0.1140294224966964
0.11247876751761744
0.11572204179262287
0.13313682359509338
0.15992298497020305
0.18149046644390612
0.21282557305629055
0.22560644345977754
0.21729587174048684
0.17897947759500643
0.18319554052665168
0.37380373747920187
0.731736529842888
0.9080484264915198
0.9414587411241442
0.9214312747267323
0.7906038114334142
0.47875637246930164
0.23797894904764014
0.15634248688008803
0.14032382833726145
0.1553010962639338
0.19951135913898274
0.2346069198239465
0.2481539325782015
0.2326871445774288
0.1943713507810407
0.15996152989262058
0.13759392503391069
0.13182898664957848
0.1347796033312111
0.13898323538654941
0.13887054176268257
0.13928607776119847
0.10415275138392534
0.0690194250066522
0.033886098629379066
-0.0012472277478940696
0.055180798137843455
0.08886234367774427
0.11556436833051115
0.14594352446464484
0.17296640239581426
0.19004552982224757
0.1922323210460606
0.1798738721096345
0.15491816672752687
0.12307647128761322
0.09214003783702958
0.06548813729037103
0.04618706333368609
0.04066772416908837
0.04869972980213975
0.06666982389828317
0.08922875185156798
0.10928370438310953
0.1253775305336849
0.1359757799802399
0.13973716417398324
0.1358043881262577
0.12664084133677003
0.12057562514610234
0.12177306476176906
0.1254000872983735
0.12665092788600804
0.12494689395025284
0.12088566001995604
0.12805227321975812
0.14487131123463698
0.15502220737946268
0.17424649547616175
0.1850338536630963
0.18972627028535802
0.16954890503754433
0.15167332773866488
0.29362570097925866
0.6753626902827783
0.9006124593242004
0.945440418695185
0.9369328298874683
0.8355372291359848
0.5210385128581497
0.25351936979616246
0.15563062825154145
0.1276400807350413
0.1328512811024756
0.17406877516454314
0.21522298862141725
0.23935111854166058
0.23431140289348118
0.2035418691726841
0.16870557196493582
0.14198378767047085
0.13205338213000165
0.13155402580813216
0.134976899209386
0.1367873972769718
0.14076650952204542
0.10659105678775457
0.07241560405346373
0.03824015131917288
0.004064698584882037
0.05405939373920442
0.09602114922214922
0.13562009858817714
0.17545878745790955
0.19382665741807234
0.1991291699705614
0.19239476430558458
0.18085058260092476
0.16702478522708644
0.14914506209147693
0.1276379821045359
0.09976200729979093
0.06762590020022387
0.045220585248839304
0.039861601583022425
0.05568984832268081
0.09091848968415622
0.13119919582908832
0.16843242945186512
0.20166845537259134
0.22854382578167978
0.24680876710419342
0.2487223305931155
0.22578775119091488
0.1810812701500966
0.12183071280894614
0.07856613947279247
0.07181243027645975
0.09993080378056314
0.15580100618899723
0.22367675022970065
0.31089675907484904
0.44381924966337466
0.478657395503563
0.4322375543447955
0.4614281155249938
0.6168793896395687
0.8290158516142312
0.8850850033953283
0.8774442765583034
0.779557987689944
0.49490999796071905
0.3425665541790139
0.28148615686702877
0.23959167577255466
0.2505315127910716
0.28828147492959666
0.32554009631443653
0.34940842405920586
0.32138232538423067
0.26660870542237625
0.19502481540887842
0.13477010205861487
0.11998473508959216
0.13023123908384487
0.14959460778823294
0.16536122702114
0.16641504782338704
0.1530196721086334
0.13332477893648342
0.09248894790036259
0.05165311686424176
0.010817285828120929
-0.030018545207999903
0.0450722579665276
0.08035056655422818
0.11383223053796547
0.1502976539820985
0.17394304139648764
0.18764307091621552