# vtk DataFile Version 3.0
vtk output
ASCII
DATASET POLYDATA
POINTS 5568 float
6.662233209527426 0.3154256253566174 -20.27738757683394
6.738117537788355 0.24838514500629438 -19.57545295597564
6.827471185512606 0.16951178029283082 -18.85398429795497
6.904886040335551 0.08845326010045866 -18.14965589353063
6.944637930370531 0.013319562131806961 -17.462768888116912
6.9320394705016435 -0.04915566425540716 -16.780279587264804
6.856111634652057 -0.09465961350573869 -16.105509419671744
6.710894913724069 -0.1213040652861696 -15.448727155349859
6.491974544952682 -0.12853630927322846 -14.816177406860007
6.196689025359622 -0.11523758140780134 -14.209691146866417
5.821822512536771 -0.0796871712018066 -13.6256248886312
5.3603116561798965 -0.019622908219582687 -13.057918200345291
4.805021301937076 0.0658556386040183 -12.505157734858324
4.151434701266691 0.17322339610795612 -11.970871919840922
3.4129015699270813 0.29178518817299165 -11.465535713851466
2.6270705688757805 0.4067506377030112 -10.996792563237289
1.8368236369422504 0.506569136968281 -10.554360466953478
1.0775415095985221 0.5855089370095038 -10.119084767163113
0.3752788809960167 0.6424305083078157 -9.673148185844385
-0.25578792710100406 0.6760018987147703 -9.206459653981687
-0.812185996069838 0.6821958606797284 -8.715901637471482
-1.2969210594832719 0.6598780049118833 -8.197593212162264
-1.7130917475507972 0.6107591221527167 -7.644269756890035
-2.060952431972366 0.5362803311878963 -7.048169629704165
-2.3399122959765704 0.4375871912072431 -6.402587622477118
-2.54732320314422 0.3200646051453485 -5.701852049935034
-2.679218932797815 0.19269838936939804 -4.948195797183816
-2.7350131516529266 0.06502105328716754 -4.1599684348932815
-2.728500174711373 -0.05156145910639083 -3.3748923932564003
-2.6916859746885557 -0.14613855646234208 -2.617455771563719
-2.653106311570807 -0.19942376548392607 -1.8813884354541965
-2.6197860089470657 -0.19581992635873427 -1.179664281387732
-2.598019941595339 -0.11869430916276608 -0.5125259089737675
-2.596788749535005 0.05731734768113961 0.11687855332695529
-2.621530407617371 0.3461662994342909 0.7091079898484566
-2.6797971165575194 0.7110261111550209 1.2222473876962192
-2.760921419282951 1.0908849658601598 1.5768874097345433
-2.834653461339493 1.4729002362704486 1.8466733724004452
-2.8955914612976965 1.8337180474790151 2.086685105664793
-2.946572233274349 2.112957114919225 2.3113991518900106
-2.988250613786293 2.27745847333326 2.497445718389786
-3.007874286625702 2.353676117572583 2.65288610781996
-3.019270922049836 2.3609714520940557 2.837743783774924
-3.0340232841740438 2.2195661373598496 3.074376260316661
-3.0449758489763896 1.898854370053217 3.3036448163114938
-3.0294277373680933 1.4315999595590627 3.5120458957512177
-2.970177126241816 0.8048557643291627 3.693366530354287
-2.8435005143694645 0.1190285469175113 3.837497810654354
-2.6440723946821323 -0.5636560842011618 3.97228441033145
-2.3549973964793853 -1.2340275926058368 4.102698385806333
-1.9609551477378668 -1.856500069600022 4.244472111096331
-1.4344466159310096 -2.39026229905131 4.439837466898794
-0.8158648804479708 -2.767959548797698 4.723697247815445
-0.13320656733394376 -3.004220597459382 5.09499802593998
0.593744621160377 -3.095503232493913 5.53549613035137
1.3494476571240976 -3.053957361638167 6.001334366764317
2.1323604252802966 -2.9029024399555774 6.449115800778383
2.9437698071279814 -2.650880175483312 6.841594901626173
3.775650715677574 -2.2946748253225886 7.145513324667091
4.595763064052654 -1.8453155400104777 7.334332479775283
5.3746427802635175 -1.3226387703692124 7.408869494009705
6.091699793418016 -0.7532413564511827 7.379445878292256
6.730839281558336 -0.16757080536956515 7.269532204160643
7.262735287540708 0.4011678239835843 7.108527482694116
6.705240386745923 0.2573028630199493 -20.231734169834198
6.784960870030766 0.19663256298656395 -19.5295331006919
6.876930315775124 0.12286612703352387 -18.810319322355557
6.955124696990498 0.046511871430664084 -18.109635988741555
6.994425830797922 -0.024065242428055814 -17.42735652501474
6.980431496168039 -0.08215734141734844 -16.749585281695797
6.901813622232245 -0.12307703329436079 -16.078358058532412
6.751965913343594 -0.14504185712801698 -15.423775052591775
6.525557758244284 -0.14774583805582772 -14.792443177650432
6.219957509749409 -0.13027482456847858 -14.1877192404067
5.833292072686396 -0.09078248545878134 -13.607222627868788
5.35983991592861 -0.026633026336714286 -13.045494603617385
4.794295851826275 0.06331677090685732 -12.501421251930267
4.133832833084834 0.17541106536614454 -11.977117915253912
3.3921124181380122 0.2989263758852462 -11.480640077607061
2.6056257523557833 0.4187280199895437 -11.017763399793347
1.8159875884405332 0.5226285643789718 -10.578022577746376
1.0579788308852085 0.6044046441641431 -10.143240439176916
0.3571739444586145 0.6627620813916272 -9.69689980821218
-0.27267633683829906 0.6964247871439361 -9.229722880581464
-0.8280117123032797 0.7016384202601592 -8.73895029798527
-1.3116270387490143 0.6775335596445564 -8.220952551513738
-1.7267450545377556 0.6255710795509454 -7.668745553358905
-2.0737030845654525 0.547087457109345 -7.075087701422016
-2.3519338877051843 0.4437630928981158 -6.433237362653322
-2.559062947821448 0.32144488961512957 -5.736989301286919
-2.6916444104713615 0.18976103910334477 -4.987740157699836
-2.749103352510441 0.05948343060097305 -4.20287025335604
-2.7442733733717275 -0.05729315242520966 -3.4191532649597725
-2.707453862721036 -0.1503318662802806 -2.6619371873789146
-2.666039594265259 -0.20195291609748414 -1.9281302503214253
-2.6275105995736676 -0.19768076246185018 -1.2307214832367133
-2.598490581927147 -0.12226877975338797 -0.569048272183202
-2.588537872754668 0.047760682382849404 0.05594596557503195
-2.6044953473433257 0.3272635526273619 0.6471142592071921
-2.6544447120058736 0.6838484043362436 1.16458452182356
-2.7292299080213587 1.0589181024007555 1.5301825522447765
-2.800572422183701 1.4391177113023668 1.8122894488314345
-2.8629931635734986 1.8011495406150753 2.0628313119763106
-2.9177685626278502 2.0855054780915987 2.2958351854659482
-2.9635120554999186 2.256491138175262 2.4892150594467335
-2.987228238677085 2.3367672140797406 2.649930682748695
-3.002084564786199 2.346689946573739 2.8344295200616294
-3.0189020402411977 2.2141529563984537 3.0660253732778444
-3.030974394300299 1.910066927642128 3.2911834294858515
-3.0157461239497736 1.460891104672464 3.499158879304766
-2.9562922220382095 0.8467741084724435 3.6832820116336995
-2.8293377570050393 0.16601457708053213 3.829765764127104
-2.6301467633315543 -0.5164468364946253 3.9658986144785104
-2.3409648963883005 -1.1896696402501896 4.096548093788983
-1.945679177332784 -1.8150172508060596 4.238255256238925
-1.4190428071411136 -2.3501087126331037 4.432389551495624
-0.8000669670340551 -2.7302894567785048 4.713246932271394
-0.11662093041032207 -2.9691164125708687 5.08043384216757
0.6106196651784214 -3.0643266955131065 5.515874227722499
1.3657062934684672 -3.0293249572412604 5.9771433011713215
2.1474904023449515 -2.88669719291032 6.422201551641647
2.957938970932834 -2.6438936951627023 6.814488458109847
3.790159909052112 -2.296888536896723 7.121097373341751
4.612380663182074 -1.857625349730728 7.314551843320215
5.396018749054285 -1.345682691674377 7.395039229316266
6.12086276833835 -0.7865805431480086 7.3720117217335375
6.770255822229073 -0.2099146758339666 7.268205406737702
7.314239154206743 0.3522874056946199 7.1123364028569425
6.860092400931718 0.04802554234975836 -20.067354117815498
6.953715499667299 0.010265690457072353 -19.363553247799015
7.05507820169974 -0.04527826276311888 -18.65206992278977
7.1360591123457375 -0.10492464915142126 -17.964205967227223
7.173766954045061 -0.15937300300498067 -17.29819344912835
7.154829096248326 -0.2019522746857183 -16.63705939583852
7.066602530315392 -0.22656967604864353 -15.978166394394556
6.900013919420205 -0.2317638408080368 -15.33092222177207
6.646173850067236 -0.21807104196996513 -14.703129669538246
6.302354172780637 -0.18535220017585718 -14.10362455402625
5.871630502315604 -0.13136026985887692 -13.534747073199828
5.353347780589989 -0.05213533033475644 -12.993330370953869
4.749140303278812 0.05426974667394076 -12.479372335686737
4.062610794182444 0.1836190502062197 -11.990038230945169
3.308619194522336 0.32505383427947765 -11.524802970331987
2.519367743012002 0.462263251198214 -11.082722941474223
1.7317441638625453 0.5808362848921738 -10.652546060753222
0.9782410672420934 0.6728038350526873 -10.219497931490134
0.28264588756559816 0.7363206478757014 -9.771689469556616
-0.34284157413785354 0.770311959923198 -9.302751023546529
-0.8943707896695247 0.7720030890376287 -8.811196461696237
-1.3739922519902033 0.7414816864679733 -8.294286261483405
-1.7853925688105807 0.679316491535733 -7.7460069613236735
-2.1292201941005615 0.5864870058339221 -7.160916421685278
-2.4049547173214707 0.466604349732193 -6.532136376011179
-2.611158221983349 0.3271549877733726 -5.85161140429351
-2.746223455556071 0.18003924255168943 -5.117853957188471
-2.809636821011726 0.04045591725905209 -4.344882018680016
-2.810843434212521 -0.07701999461799984 -3.566018198362661
-2.774003690440666 -0.1645290722566256 -2.8095719347285737
-2.7224463833320884 -0.2102053085636756 -2.0837520717055282
-2.6653871453678306 -0.2035558391412316 -1.401419319416355
-2.610675736460547 -0.13414547460470783 -0.7585406334394247
-2.569881385303252 0.015023230965112211 -0.14809515785730953
-2.5547478604754077 0.262093412603119 0.44076974196802554
-2.5750204709433326 0.5901258920756586 0.9754161542503769
-2.626919159542184 0.9494603965855902 1.3829928603570563
-2.689687419253871 1.324479859870885 1.7119721005714978
-2.7577532247825762 1.6916057172500365 2.002311424880496
-2.826928803068661 1.9949648706775416 2.266550943801496
-2.88840689263311 2.1904490063720243 2.487636899380441
-2.928161281114049 2.2864235601292235 2.668552957806044
-2.955600878031292 2.305896211959734 2.8525967205403946
-2.9793393274779616 2.2030913253569357 3.067298300925716
[...]
CELL_DATA 87
SCALARS quad_param_group int 1
LOOKUP_TABLE default
3
1
3
3
2
2
3
3
3
2
2
2
2
2
2
0
0
3
3
3
1
1
3
1
1
0
0
1
3
3
1
3
1
3
1
0
1
1
1
2
0
1
3
1
3
2
2
3
3
3
1
2
3
3
3
1
1
2
2
3
0
0
0
0
3
3
1
1
3
2
3
3
0
0
3
2
2
3
2
0
0
0
0
0
2
1
1
SCALARS single_component_feature float 1
LOOKUP_TABLE default
0.03454352973948792
0.029090808468606913
0.009457693109748165
0.003946337231326508
-0.058352724746817436
-0.008997424115612829
-0.03935219559938164
0.09735355948444518
0.025286750040962563
-0.020850804409970093
0.06659529281377861
0.013684163050787445
0.05425461851762968
0.04589497410373416
0.01736605916005927
0.13103897038130816
0.11245809474871449
-0.06774783250885448
0.011247913952126959
0.0376737947360159
0.04086207830515626
0.010637480417682685
0.002125192720379615
-0.12804143076903166
0.05104681110797913
0.06112121469589062
0.004882198797032472
-0.05959631191609545
0.011750128999981027
-0.04705986742427984
0.012072734809548853
-0.002985583407551711
-0.025444961215655405
-0.07721437524575263
-0.07112675616348711
-0.022793940247601736
-0.019954855293232827
-0.04938532045289365
-0.037788462031845674
-0.05451515534020705
-0.01125899651032556
0.05746124065250658
-0.011122441363602114
0.04096219825034676
0.06292328211376727
-0.011604566729001026
0.060488783198566716
-0.023986537263868145
-0.018590540090288064
-0.010075283881248271
-0.028141503091510048
-0.04987193730956869
-0.00412082788724032
-0.08116965087995742
-0.057615201176926076
-0.03682501534148551
-0.0894939721189911
-0.01463786500323869
0.03013182793855785
0.03162713515497376
-0.035262733103977706
-0.0007334484414692477
-0.004438269639538729
0.01335908112028885
-0.026461344187023686
0.011943738026839772
0.021510457934766896
-0.012825322709498363
-0.017191900815882424
-0.03138970729125089
0.06561155713262026
0.016384164360378508
-0.04645630693666096
-0.060435637713795086
-0.04332640066983101
-0.005889271905657646
0.008030538127332093
0.06366851903657844
0.07488419152347531
0.07995284305163211
0.0560464820833199
-0.05551614047313808
-0.06760322228213667
-0.0684772719124614
0.08865075690082433
-0.007815051345757384
0.05551717296444339
POINT_DATA 5568
SCALARS single_curvature float 1
LOOKUP_TABLE default
0.03130809411665117
0.059896260973193144
0.08857616664885132
0.12363214155796627
0.14857904242820677
0.16488850615106673
0.17143283297227724
0.16800887884950833
0.15556775394524347
0.13742439681000815
0.11747927559561228
0.09691137177442148
0.07390937809997666
0.05372509986956277
0.04745210391031138
0.05639405477841061
0.08055587464512999
0.11194380838639595
0.13763583940293156
0.15556139593084334
0.1648094247071754
0.16547962937421226
0.15850286546399062
0.14567494550058324
0.12865413823204952
0.10573978417798138
0.08936889104365386
0.08772734767418641
0.10551980414598676
0.15187576742750092
0.20131047081585
0.24119199354050022
0.3112137744102346
0.32545288031602615
0.28068114278506007
0.28428857387786305
0.39146710559954456
0.7111891114376392
0.8819034579550353
0.9276422935638542
0.9184132657520205
0.801304362141019
0.559606320488707
0.32529054789664785
0.1917359168324653
0.15452022344002175
0.16064696426523506
0.19041546280277843
0.23626473922009444
0.2594320032835079
0.26181424268197223
0.23715904612610608
0.1898761836343668
0.15917350845341274
0.14320264630126156
0.14241782491747548
0.14957572482573656
0.15493606380792743
0.1530104797059031
0.14989515012387475
0.11051888217820881
0.07114261423254287
0.031766346286876926
-0.007609921658789015
0.03337728052408745
0.06286863772580716
0.0922781516213546
0.12744821401050133
0.15253502270146402
0.16881594318993615
0.17475485722710316
0.17037479880954018
0.1567199409036207
0.13705268948179544
0.11571642294799799
0.09399375352218424
0.07044894668452095
0.051611437509425755
0.04688272654942951
0.05715173610227672
0.08216855424755964
0.11298796999718867
0.13824449920431103
0.15600758031833287
0.16524060626278167
0.1658784513484143
0.15873648356018732
0.14578362623116894
0.12889932460321007
0.10691249637213183
0.09088903190321951
0.08910281894028632
0.10588700424171586
0.14958848152490392
0.19753719472209474
0.23667762730599817
0.3028855975748101
0.31678392718256126
0.2734492588448268
0.2687413067178457
0.3609305596703378
0.6735811156390987
0.867473111803287
0.9230219580116821
0.9187018116465421
0.8165569078110931
0.582673784248812
0.33924451035146064
0.19644082056673737
0.15537023075172304
0.16009071374717943
0.18912121170126822
0.23499945914682915
0.258735471602048
0.2609570157837911
0.23595473189141952
0.18895978800103044
0.15795381769343034
0.14181914482004673
0.14100263457989637
0.14805324847116214
0.15330089529280244
0.15132208703822259
0.14813037767550377
0.10921128716647062
0.07029219665743747
0.031373106148404314
-0.007545984360628838
0.041877193629955636
0.07473863594870983
0.10598047841954274
0.14124156434341428
0.16625533118378016
0.18182110014249506
0.18525663086526764
0.17743410973772683
0.1597942222949717
0.1351641898829235
0.10914241911515307
0.08342531689826245
0.0587075981810946
0.04488770597839634
0.04579442610086684
0.06095630751619053
0.08836614278483133
0.1169908297614893
0.14069922211014202
0.15785475727035592
0.16694233202921618
0.16736503180647663
0.15953564953624103
0.14623772405694274
0.13023019162646418
0.11168308766738935
0.09779672073978028
0.09583813954261003
0.10857346326503552
0.141831034676426
0.18284760119399815
0.21858872646482932
0.2714808378173152
0.2863123769819484
0.25652888537528407
0.23036584920223768
0.2795833196603938
0.5476189459503175
0.8132049083472708
0.9096410227809082
0.9227820748821869
0.8631310418720993
0.6671677869181298
0.39648719751135253
0.21684007355304843
0.16002992524665718
0.15903973999921056
0.18493570749014976
0.2305743122787557
0.25613292145357636
0.2576791350287078
0.2313333694916529
0.18534332862485384
0.15325639123869073
0.136599238955845
0.13564168206615868
0.14221489729362874
0.146963387031196
0.1447149780480821
0.14131633522318923
0.10419196253627007
0.0670675898493509
0.029943217162431743
-0.00718115552448742
0.044495721229285516
0.07833551384828027
0.109925807106163
0.145118360301478
0.16994407511962195
0.1851314412792359
0.18777380709605943
0.1789896011556426
0.16034650561712419
0.13448568382293938
0.10725035018765688
0.08046449270892823
0.05574926293113675
0.04335792213325578
0.04585859575743302
0.0624188458592362
0.09019430341485611
0.1181800930169292
0.1414615209774971
0.15844261257187336
0.16746411802681033
0.16779807024891225
0.15974968307462745
0.14638592207357737
0.13072700897815936
0.11317012050987305
0.10011504292468966
0.09822886139877336
0.1097444603918802
0.13984207922206598
0.1785042112140732
0.21307880658097159
0.26243902392769586
0.27812091203263933
0.25307600552553766
0.22370807571605084
0.2637314665750081
0.5166959030203387
0.7977526865108894
0.906691433458615
0.9245405647937363
0.8739676602030482
0.6905329511283747
0.41458533544256215
0.22364176838528818
0.16181058196696746
0.15901917834849782
0.18390125434113616
0.22936993752158477
0.25537731298818694
0.25670683484706813
0.2299589701768966
0.18424354306352153
0.15185871534947498
0.13507625571923695
0.13407314895693534
0.14048934349464878
0.1450745530667079
0.1427315832824225
0.13929752430958492
0.10271356965109465
0.06612961499260439
0.029545660334114127
-0.0070382943243761376
0.07796858486141944
0.12374583387625417
0.15698635676983516
0.1882666723851695
0.2057866961468291
0.21142910756378755
0.2027832933437558
0.18372675244751144
0.15747123898608645
0.12325183491771928
0.08634232753416801
0.05547044649442081
0.04018237534006059
0.04330030589003006
0.06300822548897667
0.08951110547843023
0.11275331447372455
0.13340491988653208
0.152199318697645
0.16727026778583706
0.17483152590174036
0.1732604822956839
0.1619732344465383
0.14889657897635275
0.13969158109122076
0.13393429931713066
0.135159047546212
0.13861349072069853
0.1378505604033855
0.12831745261867308
0.133012707626697
0.14839163719285267
0.16618071393912195
0.20239830495712588
0.22609625113948997
0.2222978426657433
0.21333737882417822
0.325111568107487
0.6223610638958481
0.869246581203262
0.9420786413790848
0.9427645204092034
0.88304610159471
0.6624827165097923
0.34224181014550037
0.19823113755609217
0.16740182012218074
0.17690513609246591
0.2169784048733483
0.2462199863934619
0.24430165748169347
0.2124337453107721
0.16979251365685866
0.1344567427575679
0.11711254245750444
0.11553627223880034
0.11966475990925454
0.12192416157787773
0.11815645961952212
0.11514705057740864
0.0852933937919294
0.05543973700645018
0.025586080220970947
-0.0042675765645082825
0.05093754679143101
0.08712853359771856
0.11934916272547007
0.15421026252840156
0.17829886740909692
0.192287657087793
0.19291750746004813
0.1818934715823227
0.1611034966016433
0.13265564714689995
0.10276578648666887
0.07358216323836987
0.04961042509342196
0.04056856801935182
0.04681207398282965
0.06667355469961715
0.09461257184015703
0.12108052941286723
0.14337576808699282
0.15994541406448853
0.1687694708952283
0.1688449937869256
0.1602377454403243
0.14677568226530505
0.132097556332508
0.11690379199550391
0.10614612210672898
0.10467710718389528
0.11327460492093683
0.13561486960446115
0.16815286688842582
0.19961747693705464
0.24116431021309434
0.259735302751789
0.245990790479595
0.2148670107184029
0.23738177223728235
0.45454339323014215
0.7619865472812196
0.9006399656464162
0.9291726734735556
0.8959092353640937
0.7430251554627457
0.4605168269023363
0.24169796695566717
0.16685504134518583
0.15945479091481893
0.18172762454791164
0.22660868889390567
0.2535631035279217
0.2543374107842818
0.22660590193911645
0.1815264741045914
0.14845729186423556
0.13142253955728267
0.13030561612137276
0.13631882941254594
0.1404870424666396
0.13789563914382402
0.1344230769430461
0.09915951512061837
0.06389595329819064
0.028632391475762922
-0.0066311703466648
0.0672044445297738
0.10918399331370184
0.14221793461583807
0.1753204843296822
0.1960567305359486
0.20557900444383445
0.20075569364890214
0.18466351189971356
0.16001059458462824
0.1272455034072367
0.09235231381839203
0.059072782082205906
0.0398457210580954
0.03844592555728322
0.05326396834089463
0.08000528319397382
0.1055543332238977
0.1284364847778184
0.14852616478741004
0.16415152258619709
0.17229015188440985
0.171478526750142
0.1613220995024242
0.14795235938477236
0.13635582702448387
0.12689089815500268
0.12302569026580105
0.12399317441692892
0.12621109932580746
0.1290743375278627
0.14493300554714633
0.1671917046386836
0.19318290723939904
0.22200749062899153
0.2328277874409173
0.2173889411559797
0.21560171996729424
0.36051794827067524
0.6785828516097644
0.8856509136242111
0.9392096167682719
0.9307329354092635
0.842478240877782
0.5830359165045407
0.29708565194739084
0.18375477036837015
0.16317073031792526
0.17810424983450307
0.22051456885360363
0.24911638993550225
0.24833948014483023
0.2181195361488007
0.17451937498379297
0.13997353974359827
0.12261345263231477
0.12121298275388628
0.12612453511672916
0.12916804456294947
0.12588549821599085
0.12258508569622431
0.09061188096404683
0.05863867623186936
0.02666547149969188
-0.005307733232485595
0.025222515585297783
0.044491921208983
0.057701303330077204
0.08108511936301104
0.10026379446084441
0.11278690986456248
0.12385953032077308
0.13110275594196188
0.13491459210353265
0.1368778504613202
0.1345244328204897
0.12817481597935035
0.11366418643439596
0.08548489686012165
0.06288033321558435
0.057928759094196855
0.07105163259529103
0.1023610858999641
0.13294242393060193
0.15231994372044652
0.16092020434477347
0.16116998176008399
0.15531641077053862
0.14468062534094572
0.12962282086333737
0.09831812195887865
0.08471652088079067
0.08577748499312346
0.10985460110429703
0.17723002462492604
0.2305029903296651
0.2733848669401861
0.38039258606576576
0.41210689600393824
0.4204243904308686
0.5736337569999966
0.8664213330644829
0.9833160821388401
0.9894508404263763
0.9868714536809345
0.9441000048178714
0.5674326423334478
0.3437095113675113
0.2134683704407583
0.15988808864334306
0.15659027349096163
0.17447848693555143
0.2088525909988472
0.25186738383916607
0.2665016728443909
0.2699017175236104
0.24835692104965004
0.1974161584962158
0.17013029518683193
0.1564287826315281
0.1556471694156938
0.16304893741281182
0.1686465965634738
0.16640328049953643
0.164329811265417
0.1213336901258344
0.07833756898625183
0.03534144784666923
-0.007654673292913333
0.034904400818600814
0.06503441693497773
0.09488831210676224
0.13011563345610658
0.1552596392130329
0.1714778105512779
0.17697130045849907
0.17192364027594245
0.15744848013059104
0.13675336928569323
0.11446819412490189
0.09195082447428636
0.0680699048442068
0.050188437949145966
0.0465436222140771
0.057747449670505865
0.08332527370909813
0.11373420452173844
0.13868803851943814
0.15633583025711012
0.16555179403777384
0.16616009532675666
0.15889626290653558
0.14586351938096284
0.1291026916315135
0.10777067559387131
0.09205460639793712
0.09018921805577193
0.10623600694451571
0.14801977289637994
0.19481507022853806
0.23338730491514853
0.29695093491079294
0.310765840217608
0.269268655189207
0.2593236095796538
0.34184822053979425
0.6477509539935166
0.8571855651509847
0.920035385772579
0.9191499192051269
0.8265917381827859
0.5989610345127703
0.3494676722738299
0.19995741766891711
0.156074573059709
0.15976973423699956
0.18825128345277825
0.23412593465401224
0.2582425698285944
0.26034508297934755
0.23509378575299605
0.18829726598327634
0.1570801894749795
0.1408357334845726
0.13999497613348916
0.14696388393361096
0.15212582079651965
0.1501038991418205
0.146863253884098
0.10827439078708712
0.06968552769007624
0.03109666459306537
-0.007492198503945502
0.05712518340355766
0.09553254903817533
0.12815935441038306
0.16250043111017637
0.18554900160227386
0.1980632615902825
0.1966768967106991
0.18363592427201647
0.16114200074135565
0.1307127703391706
0.09865130724761104
0.06746162256301484
0.044976040348131324
0.038966793028245836
0.048612550498633354
0.07146067558482852
0.09879560117936344
0.12386355644499669
0.1452785546236176
0.16147367006521687
0.1700662587998609
0.16984268945773334
0.16066962459235581
0.14718892581750512
0.13359300214282743
0.12060643221300688
0.11232055109688513
0.11155881095766784
0.11752088849434614
0.13241532899922268
0.15874216762063226
0.18691416389242244
0.22194209504599155
0.24407029015678833
0.24038817254860942
0.21362703159361923
0.22429282545194804
0.4105454161032412
0.7298839038500645
0.8954532169009448
0.9335140044112392
0.9120651327951816
0.7865358507335984
0.5063987133493749
0.26102095213455084
0.1725814525259726
0.16045539833505726
0.1800626808607232
0.22416454347961437
0.2518565307714243
0.25206610411750874
0.22338994242432955
0.17888672087645188
0.14521562736420318
0.1280064885210848
0.126780019404707
0.13238686412690798
0.13613755361738689
0.1332916104688849
0.12984191274236015
0.0958383303201651
0.061834747897970055
0.027831165475775008
-0.00617241694642004
0.022488410365498108
0.04606850620916692
0.06807758622025238
0.10150114592660112
0.12435284846890463
0.1395128770335197
0.14887042575630027
0.1509998393254438
0.14646261174551403
0.1382282813438805
0.12703814141265937
0.11356599488578384
0.09457819328077646
0.06790016455917487
0.05287566332008315
0.054376607538822924
0.07295907645096356
0.1064532275900874
0.13470830081974486
0.15349284481410513
0.16260021262825064
0.16323118545422838
0.1570027866923274
0.1451365071409354
0.12831146558323048
0.10031709195382302
0.08403605601229823
0.0837073549488555
0.10601968255626647
0.165549901228927
0.2197454998207998
0.262349973206615
0.3539035639404022
0.3747833518809732
0.3484676762981734
0.41772401640794316
0.632262233758108
0.9037169142432323
0.953549750629444
0.9602557947534107
0.9262448689868714
0.6921181344339075
0.4361775395555933
0.25830547209113114
0.1710234681099576
0.1530538586134973
0.1660980530504396
0.19906781117228564
0.2440015443908736
0.26327090705750233
0.26636223917881263
0.2435023601389401
0.19443408636414244
0.16550703562756847
0.15062530733556923
0.14993607282091312
0.15746233377285718
0.16320825177923756
0.1613561391500089
0.15878181047885873
0.1171529328431836
0.07552405520750846
0.03389517757183333
-0.007733700063841803
0.03992937224515073
0.0720500034053185
0.10298340794269088
0.1382684928345968
0.16337608057027503
0.1791787451241358
0.18319592963679487
0.1761129998649737
0.15927761800857776
0.13564160003372044
0.11058218000771548
0.08570139465039894
0.06109759996705008
0.046184850065499966
0.04587137379043978
0.05996695078884331
0.08698801495885136
0.1160978941330329
0.14013624419195836
0.15742475506153697
0.1665555797234888
0.16703783202687844
0.15936867795340612
0.1461306719799994
0.129885270172546
0.11058569847357018
0.09612718191828613
0.09415210500075902
0.10780381519434167
0.14342041661956237
0.1861278934651009
0.2226998193759247
0.2783729244287334
0.29272127463771536
0.259431464307361
0.23664306843803437
0.29370874408029907
0.5728896452848521
0.8250576004395515
0.9121154721343173
0.9215771825555451
0.8541777319876758
0.649023636100764
0.383214454899664
0.21195908537224287
0.15880812086260063
0.1591379021225165
0.18577173031927133
0.231509298627302
0.25670518087333155
0.2584095377047192
0.23236495009502667
0.1861623411263136
0.15430587582622238
0.13775152358204737
0.13682737182980814
0.14351455928782977
0.14838184635004584
0.14620079436913572
0.14283650782279966
0.10530777234175653
0.0677790368607134
0.030250301379670275
-0.007278434101372855
0.02513816660756661
0.05058461906045439
0.07561415163594969
0.10994583575475173
0.13384667658984822
0.14969411428246893
0.15811207367279725
0.1581222619745932
0.150404884642772
0.1381973994543858
0.12354076632822826
0.10728238385817354
0.08663403971762657
0.06201945139611545
0.050285598460764615
0.05457301876989629
0.07536037580274954
0.1084309035333217
0.13570356797474523
0.15418049738576972
0.16338868817561394
0.1640800988336669
0.15760813250702785
0.1453282874098478
0.12822375171610775
0.10209078809064509
0.08536946462496016
0.08447452404157753
0.10535476625029341
0.1603269109125091
0.213471692570183
0.2553441530562342
0.3389720806274366
0.35646776822785003
0.3192092136362514
0.36006300456258633
0.5309003075926528
0.8405530024709389
0.9293628019999883
0.9471048810225395
0.9213011303124545
0.7378123659906624
0.48072928806776843
0.2812709267312679
0.17771582793793347
0.152937724420365
0.16357259507514152
0.19553489616487027
0.240963947116516
0.2618466075104568
0.2647123846184143
0.24121183999668433
0.1928506843700865
0.16324413636375776
0.1479208183027827
0.14721517973544607
0.1546558919140288
0.16031340859715645
0.15848559186896183
0.15569179342871653
0.11483675629145912
0.07398171915420171
0.0331266820169443
-0.007728355120313113
0.027497313730180755
0.05425232036961999
0.08102573551344809
0.11572556580994477
0.14016984013927922
0.15631641405598626
0.16399847786612332
0.16255792126400076
0.15277730059078706
0.13797903239860299
0.12103510816962201
0.10292523627384029
0.08122114377096712
0.058371627294551726
0.0489272113170814
0.055159767997167805
0.07741428739644596
0.10986938959826802
0.13647166069154243
0.15472259017536177
0.16396578577700904
0.16466624981674177
0.15799776624962858
0.14546771529044278
0.1283193405423802
0.10352209421235326
0.0867802459595557
0.08553485227730764
0.10521948247152871
0.1567303780742684
0.20861747663324506
0.24977347129333252
0.32771310323224073
0.3434636852708019
0.3009306658845157
0.32468876347234205
0.4669939882456564
0.7885057362341299
0.9103250816696526
0.9384230181090528
0.9192958890947409
0.7662916188089143
0.5131548234871137
0.29876601257847496
0.18312356576844768
0.15333248934667995
0.16216038247698658
0.19328198344610983
0.23894746135487804
0.2608428704001398
0.26352216788770383
0.23955137659733028
0.19165499332533933
0.1615843640694056
0.14597669507267041
0.14524480178836535
0.1525865545069598
0.15814022575250025
0.15629017583424198
0.1533531876092649
0.11309048837281829
0.0728277891363717
0.0325650898999251
-0.007697609336521499
0.03828021849357113
0.06976226943093375
0.10039319214741725
0.13567935277242305
0.16083335712905716
0.17680492762274294
0.18130978861841243
0.1748721943875404