# vtk DataFile Version 3.0
vtk output
ASCII
DATASET POLYDATA
POINTS 5568 float
7.843903444169025 -0.004461379178597236 -21.13153293709573
8.152202163428438 0.037186856690820655 -19.78115093736613
8.31532196733618 0.07467348933615264 -18.994577003470678
8.463648038572593 0.10083936872112775 -18.203821730649143
8.563535917770823 0.12101902542608545 -17.42145463910183
8.590183557905947 0.140895235605026 -16.651645829843666
8.526234615316946 0.16299102492429868 -15.900891942136505
8.349343076191415 0.18715495461288906 -15.16370504316104
8.048564943571687 0.21937398985752218 -14.455090521212439
7.626850798463976 0.2672921331627676 -13.789777920495844
7.0930059990842045 0.33801047527652894 -13.179144859133121
6.465348896410538 0.43357915344767084 -12.630006885851932
5.764353112022043 0.5523418476217407 -12.142427364118701
5.006670633111008 0.690602722494196 -11.712804641348656
4.210409232964828 0.8411343746163411 -11.334925316865473
3.392903080097574 0.9941110005853249 -11.000286311424404
2.5672301670070676 1.1376277306817935 -10.693635414495954
1.7421390504543812 1.2608294785978422 -10.39583601555017
0.9268434222245145 1.3556340462585403 -10.086421161445832
0.129940404473893 1.4168546549141907 -9.74756677092243
-0.6408556544580774 1.4427844506595577 -9.364372509756338
-1.3743673274573052 1.4332593232126822 -8.923882726198384
-2.0581197160464635 1.3895138723052238 -8.417810150423005
-2.6792918778794212 1.3136835471135555 -7.844189793720955
-3.225367859106929 1.2084605105243962 -7.204474276555069
-3.6867431847916343 1.0757550723430098 -6.501119868369509
-4.055934333145105 0.9164601899497477 -5.7386258283028475
-4.326048337745138 0.7327186687888885 -4.92558028979768
-4.491128805420787 0.5351486603479361 -4.082767151156038
-4.553403029221329 0.32259304035753283 -3.2297300310758006
-4.52581364996693 0.10666917867810621 -2.3890028797412004
-4.429266877010826 -0.1114716674376594 -1.5663978930921227
-4.289946372058057 -0.315427962904599 -0.7517459283145355
-4.127119744703958 -0.5007561886196752 0.08707232830520373
-3.95779269628483 -0.6315073108113332 0.938961910648616
-3.8047729880706735 -0.6949016456735451 1.7726461149269896
-3.6770336071307828 -0.676253763091838 2.5818290930375487
-3.5812132061689366 -0.5595728224072741 3.3424511426844274
-3.5211980090831445 -0.3355523149505557 4.059639574941972
-3.502704110750597 -0.0011466629219366031 4.703307824526469
-3.530854823017684 0.4340971652473745 5.276940302658907
-3.5997099912349806 0.9943386660232232 5.78287603848513
-3.748297630110877 1.643586677617821 6.372044375351541
-3.9432780388997264 2.1524021602066408 6.939093605443246
-4.186343450417807 2.605128019474108 7.525864533734035
-4.255693570551508 2.685642708333854 7.999039004533011
-4.292196620630016 2.4412573583455535 8.305616730574402
-4.2942522920499275 1.8341313732728208 8.571033586049852
-4.2507551150343055 1.1366396628384277 8.773749346800642
-4.118119365659052 0.33793619805227315 8.906230716355852
-3.9012981864755285 -0.4782922314848963 8.977360320247595
-3.5942876642288533 -1.2708330968460921 9.017791389184438
-3.182854301705311 -2.0060712734324895 9.059421974782373
-2.6676844115560288 -2.637734416302749 9.140215547017261
-2.066849351312193 -3.142875660671299 9.286664885884795
-1.4122626748837894 -3.4976619735717995 9.516339886920187
-0.7188439969334856 -3.7200512837184605 9.828550933520653
-0.0489045699144528 -3.814540047182042 10.202281909517474
0.7213698893153315 -3.8151765977816448 10.641782740940032
1.5700670886217156 -3.7292585324807366 11.113356720032515
2.679485573640324 -3.4860113841125986 11.63884537207756
4.228481130858075 -2.924408378434853 12.145784830512792
5.609027972143583 -2.176501492206697 12.341425818422175
6.688166638437005 -1.401627748843676 12.310058015380545
7.415712203832559 0.16952195745476276 -19.77102016601156
7.588450907566433 0.11058159715248499 -18.868573537998003
7.683313183540544 0.06661698660928085 -18.222588964618893
7.75507924371986 0.015858324855224405 -17.59388469875259
7.789776029521791 -0.0325083592041683 -16.98431426971083
7.777665611217457 -0.07102357201057546 -16.385246796358253
7.7104686562810905 -0.09388184918239072 -15.789352098653781
7.573522517993323 -0.09687650233640589 -15.189320607026247
7.3617009648124245 -0.08132484008823292 -14.60290714688271
7.0758088817856315 -0.048987393008480644 -14.041340573452738
6.717457017773304 0.0010914144550310811 -13.510110180778995
6.290557684132577 0.06853917023295605 -13.01104269579007
5.79786252555653 0.15526250276045633 -12.542620247149673
5.238337622613528 0.26439506294841353 -12.104054095409195
4.617682543883766 0.39468047665355166 -11.69626941935271
3.9412053843430934 0.5416854606493996 -11.317088075693459
3.2236746604082565 0.6957474027332317 -10.959307288592997
2.4878648954621565 0.8434085151635599 -10.61364745053416
1.752242034095941 0.9721644474092398 -10.269473256362813
1.0332335903467516 1.0746285629371977 -9.91482226449592
0.34463565255554085 1.1482884504199282 -9.537902193073574
-0.3013892232878487 1.1935465327420438 -9.129804208589686
-0.8933338139192536 1.2126630160662673 -8.68694642531471
-1.4235928587110833 1.205856080308429 -8.208229341241497
-1.8870439107721275 1.1724749669240064 -7.696838252001532
-2.281019048836838 1.1117835386779717 -7.157169512188951
-2.606024446868659 1.0243399586261677 -6.587565996432442
-2.8603831166390568 0.9096847309664925 -5.983822674353379
-3.0402664743828614 0.7639845893971132 -5.341376324258119
-3.1473544413417702 0.5992734103023056 -4.667105103142805
-3.197807887994776 0.42200461512169396 -3.9630816154719226
-3.2041743664931324 0.24188654716971542 -3.2390983950494108
-3.1796870320882746 0.07052968954719616 -2.4869502957838825
-3.1299834270708193 -0.08225723848853492 -1.7166806471375722
-3.0640585187238094 -0.16086056981363098 -0.983528579007434
-2.992092150875017 -0.17774301689584546 -0.31100055858310904
-2.9201711618864454 -0.1317604357661114 0.3221657762911899
-2.862343921106758 -0.018951465393299657 0.9196297115948789
-2.828740822871384 0.20466312550099425 1.4868722233447538
-2.8172798047987264 0.5266999169264148 2.0029585294796597
-2.829657178939399 0.9583647380022867 2.4895889969308462
-2.9013465740743816 1.4589499240370147 2.987857734666483
-3.0039359923327535 1.913759292895591 3.457616780021693
-3.1476559295628217 2.2376867785501258 3.9008983820605336
-3.2916699482114624 2.420137925335935 4.252322053291922
-3.356867850639958 2.4693860424139076 4.609648674355444
-3.409595613950704 2.189944547506349 4.840439824621839
-3.4361712383928182 1.5543631600530534 5.048868978440872
-3.4029272361920295 0.8385529148418184 5.213006298218453
-3.271662344264023 0.04869500664591808 5.337944608637679
-3.04330932053842 -0.7381537496576123 5.439147139578144
-2.7202085763635457 -1.47325209658654 5.545317373594414
-2.30084846156604 -2.132407934895438 5.678750192469124
-1.7944445623023777 -2.6806710997869128 5.863866076485625
-1.217849329297486 -3.109368972588101 6.108767665222102
-0.590753946697203 -3.4090626591258943 6.417855756435112
0.08361359986285355 -3.596002588408293 6.787028391814231
0.7448749151129426 -3.657933139686557 7.194787987750666
1.520252710495317 -3.613454187637241 7.624652928982638
2.3803084637271343 -3.4690357691191243 8.050591784936936
3.468450790158556 -3.172854243385045 8.48778602674715
4.837636867359836 -2.631161535649707 8.868988298690471
6.032968395674885 -1.9811620899305833 9.024384378790877
7.01604122107887 -1.296084617859145 9.019437445646755
7.888663700490589 -0.022648436758922613 -21.273751867858156
8.213338713532846 0.03197222050999033 -19.870712074144055
8.384391847750466 0.07898739738562738 -19.06797499415352
8.541733650492613 0.11430294577212267 -18.258489720965883
8.649351518882877 0.142701179562831 -17.456186931957983
8.680614384146129 0.16955580735503972 -16.666860741092947
8.617129422951946 0.19695169058936224 -15.898683041284338
8.43576386376877 0.2242715078573101 -15.14628831110537
8.124878263000008 0.25841145966182355 -14.424121050614335
7.687523647351447 0.30812424151957546 -13.747203919216302
7.133221855906761 0.3812418725699355 -13.127623710339595
6.481994133364943 0.4801073312439937 -12.572855836135673
5.756531770694896 0.6026292443567391 -12.083183215453808
4.975727341882126 0.7442863493430067 -11.654648865283598
4.159185826633632 0.8971635074356242 -11.280158987469552
3.325594064803071 1.050858971409126 -10.950411505222494
2.487693464521592 1.1932776949586086 -10.64924834903167
1.6525581487701761 1.313872087573284 -10.356527403407137
0.8283690521296564 1.4050274527835882 -10.050781072970182
0.022832492272400917 1.4617742863863066 -9.71357652729945
-0.757048696160421 1.4824666173918588 -9.32966276049414
-1.5002399689320636 1.4668513519850874 -8.885599973235385
-2.1941913877659776 1.4160123540170728 -8.37251394923195
-2.825492513148003 1.3322857702990527 -7.788281109708074
-3.3807619191035667 1.2187487028091566 -7.134106665836041
-3.8495696865371403 1.0776326332395667 -6.41215858490891
-4.223488417567903 0.9099155788455171 -5.627612242552168
-4.495021693214179 0.7181085228472536 -4.790603512820778
-4.658061645139132 0.5146112817465709 -3.9250196869219165
-4.714956018658717 0.29663217986820156 -3.0517858014548933
-4.678381411216591 0.07633291412765453 -2.1956136376015065
-4.5701949302868154 -0.1461531097068656 -1.3616753872628617
-4.418094355499332 -0.35385303740890905 -0.5395478993712408
-4.2426374016795 -0.5428888774836859 0.3073211917405241
-4.061456172669499 -0.679610688847806 1.1727126599799487
-3.8989970374324203 -0.7484486023044375 2.024583214955194
-3.7647687007673487 -0.7331063683176002 2.8535879935543242
-3.6645682991726494 -0.6161444173507865 3.632479553985017
-3.601511647073837 -0.39229629262882404 4.36656506861587
-3.5822181552510535 -0.05665710879721203 5.024562238901602
-3.6121148316648855 0.3789990587351678 5.607840823347685
-3.680663573934525 0.9457133644317655 6.114613404748263
-3.834561308297728 1.6173585920364066 6.717094912026029
-4.035438545769286 2.1479545511026834 7.298128649865713
[...]
CELL_DATA 87
SCALARS quad_param_group int 1
LOOKUP_TABLE default
3
1
3
1
2
3
1
1
1
2
2
1
2
2
2
0
0
3
1
3
3
2
3
2
2
1
0
3
3
1
2
3
3
3
3
2
2
2
0
0
0
1
1
1
3
0
0
3
3
3
3
1
3
3
3
0
0
2
1
1
0
2
2
0
3
3
2
1
0
0
3
1
2
2
1
1
2
1
0
0
0
0
0
0
2
3
3
SCALARS single_component_feature float 1
LOOKUP_TABLE default
-0.2381932126657686
0.031118168123515227
-0.26634522816466255
-0.14395157296375474
0.04500136124261358
-0.3003344315767678
-0.08526195438737222
-0.05217646932381833
-0.22572192966539562
-0.3202649391738685
0.0684514884300535
0.32204204728396174
0.19378503300785527
0.24315640039565584
0.11329354143635266
0.3940241836639096
0.936851427943091
-0.347823851932914
-0.32099517265581873
-0.13398569332659022
0.08834569347719776
-0.06959713574526466
-0.0999582681784793
0.36170190567423566
-0.13168170433045134
0.7640374230029021
0.7815431817345162
0.9107705704367979
0.040852902502942406
-0.27358190648208014
-0.2768019869651137
-0.345056936684187
-0.33258292859082156
-0.16398079696888448
-0.010483861229128866
0.6218015104943957
0.04408410877280141
-0.24916146020113547
-0.15723795792098424
0.7221383767393047
1.013970379968138
-0.15113060040904544
-0.1398615354110975
0.24843603552059634
-0.0261588551722662
0.266868170720247
0.2270929718596627
-0.32277820675180136
-0.3539393781059143
-0.3562463201808109
-0.37981297927959734
-0.3369082412247878
-0.2709966355804515
-0.3691360878464226
-0.33854251893822346
0.11974335052505487
0.22655581588326115
-0.11378622255406595
0.18885662143552084
0.27709377602980323
-0.1259532900773559
-0.16159959553643996
0.36612136312573895
0.5096372766478086
-0.3706193405340563
-0.33363326238320207
-0.14085546017804404
0.1277079441611147
-0.21090353798754208
-0.07104044684782743
-0.21830339627034892
-0.24987853476936045
0.571900902619682
0.4992691589413324
-0.36858465533998747
-0.3472869971735968
-0.29054609248908536
-0.32149831573172893
-0.15797865226598046
-0.09495014759966153
-0.06409038675571357
0.12258427880406436
-0.13509162149365586
0.5148249770265281
-0.030661179285847932
-0.31308962886226266
-0.2526208254612106
POINT_DATA 5568
SCALARS single_curvature float 1
LOOKUP_TABLE default
0.04023480001910994
0.07077664759033467
0.09713537698698445
0.1382994596616174
0.17129335714898583
0.19062042573703245
0.19599453498255268
0.18632852465975863
0.16594095553535076
0.14162326746430612
0.11606322812574413
0.09221664143159988
0.07014956263331056
0.05127483306868797
0.04139267491758642
0.04224304779767862
0.05363318621867926
0.07307131206036749
0.09351575402013734
0.11132676301738516
0.12637332029503737
0.13743510860926933
0.1440293755687225
0.14657627571167392
0.1455788001541662
0.14165940686001677
0.1343189133316461
0.12221772464561362
0.10297550245835173
0.07958383234153843
0.06789585094999477
0.06691755225704812
0.08287018546279613
0.1174024063138211
0.15161629629267973
0.1928068250054077
0.22282011756367487
0.23756242240571931
0.20462666297358958
0.18634961533757094
0.15554401074393306
0.46043252041067984
0.7856679050397788
0.8074204139304144
0.8120360686002972
0.6489901485167333
0.22400588782049313
0.1542388842463096
0.15134691511011547
0.16536094801924744
0.1946727867217274
0.23320884273637996
0.2530643991969792
0.25656712990463704
0.22336253374298382
0.17221742800941345
0.12967095445383442
0.08914212268148076
0.0978523575081171
0.11987239659692597
0.10070289748830569
0.0815333983796854
0.062363899271065115
0.04319440016244483
0.06117058522955533
0.09418731124865909
0.11050643069366509
0.14216613506101186
0.1672394838964531
0.18309550005749048
0.19071153086790701
0.18741448525584517
0.17511511951446185
0.15835202921913702
0.13802543522940894
0.11694705382496018
0.0943551997896444
0.06969911799304085
0.04975548868245121
0.0398779647310647
0.04335144034761276
0.059745335331245666
0.08266228583287744
0.1066597118554878
0.128892353052232
0.14804966469204273
0.1632672964563285
0.1739726769288908
0.17998700501794276
0.1762203004452315
0.15902474086951027
0.13281531820534312
0.10100470697159279
0.07477630222886567
0.0800762946530839
0.09365607538489229
0.11952473413132716
0.15478489202405463
0.19856090558069267
0.23911555086333677
0.2590606441261516
0.24411906681782722
0.19168668084773288
0.2012160524956628
0.2725013116136839
0.48574308966914914
0.7944371158969482
0.791040998562086
0.7512033744462876
0.6227825501115207
0.18701738844224192
0.1521549553840246
0.16321852104488804
0.18790969603839072
0.21631195064443248
0.23954735787702525
0.24133490955669792
0.23261262967051494
0.20257849596663416
0.16408420188572348
0.13353007738078337
0.10033869184314902
0.10337435462492596
0.11582357788337715
0.09550831662443036
0.07519305536548358
0.0548777941065368
0.03456253284759002
0.0393705966902009
0.06960638903144589
0.09597141746100223
0.1377540082770281
0.17125059991159974
0.19068558406852026
0.19566513541092637
0.185278596711783
0.16426612392418724
0.13956660965563866
0.11387954692313465
0.09006800305518818
0.06825600682909182
0.05009448350535294
0.04114881856601595
0.04289329236373457
0.05484242528659922
0.07427727868995504
0.09430340562883739
0.11143669743244851
0.12576501585993416
0.13608237722907085
0.1419576342347865
0.1439072631232924
0.14251376263268217
0.13865494180553442
0.13220045719807133
0.12132572436095643
0.10312889209772776
0.07998541238854147
0.06703062336915129
0.0650973920881818
0.08028954311422894
0.11467186621047978
0.14794327654509423
0.18876345720952092
0.21940610186000584
0.237707171050732
0.2063824419985264
0.1864632022632378
0.15190695210563512
0.46127766182748664
0.7833746230421642
0.8074578291087859
0.813655065512072
0.6474590641007375
0.22881456993752802
0.15551257617029482
0.15104465798700284
0.16359935665477443
0.1924436823362594
0.23211060143822043
0.25378035145599154
0.25872396354133853
0.22574526816163967
0.17359640172348847
0.1298212569516041
0.08847949825256385
0.09734705833421062
0.1201515924774875
0.10107690863068114
0.08200222478387478
0.06292754093706843
0.04385285709026207
0.045563665303291506
0.07706781257534259
0.10128398187395687
0.13986708366811296
0.17076812381006257
0.189447548843
0.19601219695488734
0.18876959541883256
0.17076676031470425
0.14821199877246855
0.12356718288912395
0.09998988920834839
0.07733511463063318
0.05618134769308062
0.04296550093646139
0.040510908317914276
0.0496587097508995
0.0687291754334228
0.09042937581958241
0.11049890386497464
0.12801523533765763
0.14171688916533332
0.15095691639201217
0.15581153489969157
0.15651647337808794
0.15247032039527295
0.1419502427762928
0.1253981616283144
0.10233431591519275
0.07806296150969402
0.07130755145656924
0.0742216226166139
0.093020843509751
0.12796348234330962
0.16539067159373833
0.20733274083253855
0.2347570404048784
0.23775535546530108
0.19882034995782982
0.18747760441938774
0.17508155270119785
0.45929134171889724
0.7902390274630221
0.8040843815604076
0.8012991902031421
0.6488152636219002
0.20906724184803743
0.15132884067162128
0.15359542714768418
0.17209468419464696
0.20224063116865
0.23632538859445562
0.24997339595119913
0.24883465038986688
0.21564879912483545
0.1683510852315605
0.1299736468360884
0.09210819762451293
0.09967890887650822
0.11875405281472287
0.09923483524771823
0.07971561768071359
0.06019640011370894
0.0406771825467043
0.06252137641787711
0.09564478370701393
0.11136360704821782
0.14236962181333734
0.1668643570662959
0.18237730287622067
0.18996359982864863
0.18689796264258768
0.17512035827033295
0.158986627238337
0.13918265284476758
0.11843607005137859
0.0959152517282549
0.07102307142931436
0.0505427505109623
0.04000835349305395
0.042950588229511706
0.059012315000145484
0.08192420426995159
0.10620217765626466
0.1288059431778666
0.14842177452587707
0.16417650158868863
0.1754517916624759
0.18204660864001623
0.1783446659551422
0.16058639418732207
0.13353781455184227
0.10091771554531533
0.07450781437019796
0.0809264521161427
0.09557092108944662
0.12213942639511496
0.15739605959519748
0.20170117545323016
0.24194899939444145
0.26110704123486156
0.24527216890280626
0.1916936067059745
0.203456276145697
0.2863973234746573
0.4915350467018537
0.7955350850214414
0.790559827370238
0.7450041305290647
0.6191383339098064
0.18562573693356377
0.15258859282415796
0.16428723529874845
0.18932414402245215
0.21739813046722853
0.23964521647928552
0.24048910193966336
0.23123933978373734
0.20161856780344367
0.16389501935090234
0.13395744172161345
0.10112023198573558
0.10367005745882418
0.11553762772539038
0.09515048858687047
0.07476334944835057
0.05437621030983067
0.03398907117131077
0.03879918507690809
0.06865558190546045
0.0946053349924356
0.13704664865629806
0.1710821034636038
0.19060330595177338
0.19509233443104487
0.18384631361047662
0.16213002926174705
0.13704698888117361
0.11128326336547648
0.08757555379489193
0.06611743513433493
0.04882661718379983
0.04097291261456532
0.04374120563508319
0.05629875052161974
0.07567421283114238
0.09517686397615283
0.11149392250513121
0.12496929165797878
0.13441539322187238
0.13946403910620556
0.14074301950172569
0.13892923553049555
0.13515391653217615
0.12972910614051464
0.12027255811536605
0.10328427211087712
0.08043365766313838
0.06607423280673104
0.06310079411600653
0.07742115912028236
0.11160731666307713
0.14374705084229072
0.18404828720660033
0.2153752882962415
0.23796955892283964
0.20848551056410897
0.1868070412826994
0.14847853330851654
0.4623755195885869
0.7799897034453026
0.8069121031443456
0.8147884371977174
0.6447560834599287
0.2348059587866741
0.15727590426266883
0.15088957494899044
0.16162047298436336
0.18977723451551642
0.2306884704299326
0.2545203696840497
0.26123048296063395
0.2286634393055234
0.17539839940442728
0.1301534334423833
0.08782068713572051
0.09676679573236091
0.12045714187736932
0.10149140681547895
0.08252567175358859
0.06355993669169822
0.04459420162980786
0.05029665340446242
0.08234710507294023
0.10410937100539384
0.14067254446093758
0.16991770001563478
0.1879229928138953
0.19506575580651694
0.18928417007984616
0.1730063452510089
0.1519868271914837
0.12836250180441516
0.1053016232210142
0.08249736905570834
0.06005273454793971
0.04462927088747193
0.03987023233132595
0.04733159958789284
0.06581609580164771
0.08813399948441218
0.10957885434564243
0.12867005062904815
0.14412617933280436
0.15521018923456167
0.16177483788909774
0.16389737865222906
0.15985267727367264
0.14719537701280525
0.12760319792433233
0.10187539636850168
0.07700532855174799
0.0738685203969664
0.0798188423191598
0.10068040872678817
0.13579945853933878
0.17529171442733588
0.21723125487021366
0.24259379121681648
0.23867958817535526
0.19552364126832492
0.1898444668808122
0.1957803260416513
0.4617536390860226
0.7912750900064733
0.7998596861875078
0.7895868532845031
0.6440680403778327
0.20078601348907488
0.15066297002278609
0.15601769725856723
0.1769404909226991
0.20699444680524215
0.23779842128306472
0.24749875715906658
0.2436447129346842
0.21107422976840814
0.16651454208958333
0.13075978760133497
0.09450311299567289
0.10089349819345954
0.11790337327674823
0.09813945157609927
0.07837552987545031
0.05861160817480135
0.03884768647415239
0.053252795419538965
0.08559295218991997
0.10580570868613219
0.14109101172145525
0.16927310875114146
0.18678748947379076
0.1941731052626482
0.18917170036863568
0.17395007124124584
0.1539662563297659
0.13109517057794137
0.10846055050319321
0.0856473535921151
0.06252768456777881
0.04582862158559241
0.03968743897814853
0.04610109833368458
0.06411884354935177
0.08670592868551456
0.10890573645682158
0.12889106190867466
0.14537110616958868
0.15756442541531715
0.16519821463989245
0.16826690095394606
0.1642590870849621
0.15034878098363563
0.12895351890261117
0.10161329220230154
0.07638315007590142
0.07547371715756562
0.08336616902919958
0.10551279246535655
0.14070155379271312
0.18138471937000694
0.22313150272739785
0.24714966079303885
0.2396226966590812
0.19393217630110446
0.19199154635680754
0.21176023016867732
0.46522635424504855
0.7916576197796672
0.7970715066652572
0.7809199711107393
0.6396703804100645
0.19650006532375092
0.15070038191780835
0.15774077130738914
0.1798841429211432
0.20966899688304963
0.23845921233133927
0.24591609786122595
0.2406027285136518
0.20857918933177194
0.1656645777174465
0.1313911306601468
0.09602316259440162
0.10159387753811729
0.11736737683691648
0.09745585407175843
0.07754433130660038
0.05763280854144233
0.03772128577628428
0.040732461594828406
0.07140732402800297
0.09766113401433293
0.13852940085862547
0.17128347748401385
0.19055126670727832
0.1960957673717832
0.1867506163103458
0.1666523824020331
0.14252367348802622
0.11703974463209074
0.09319342923828146
0.07102473277019661
0.05183753584089575
0.04153141027179565
0.04197215317602479
0.053098484865588554
0.07252317706840261
0.0931476822238375
0.11125898939457625
0.12662690310434102
0.13802503897935228
0.14494803669740833
0.14777228730740014
0.14696532104919346
0.14302195695911216
0.1352794293064359
0.1226198127388212
0.1029010665548294
0.07939759273041523
0.06830096147803119
0.067774408556014
0.08407595261571263
0.1186707623041364
0.1533041945826971
0.19463959638456646
0.22435460882312347
0.23752284411819283
0.20384750493799764
0.18635581544491003
0.15742387139695624
0.46009822106470827
0.7865389648307404
0.807260343883509
0.8111055274062646
0.6494497506179238
0.22192329546431422
0.15373142557590297
0.15153322135036773
0.16617761976856163
0.19566573232190632
0.23367157366436148
0.25271705125933946
0.2555886403613442
0.2223177615631631
0.17163958633213486
0.12964029617477907
0.08946917697312175
0.09808280320097175
0.11974091610580087
0.10052804258083718
0.08131516905587349
0.062102295530909804
0.042889422005946115
0.03868767000296859
0.06831707336460398
0.09382271914353053
0.13660730703207163
0.17092595674705693
0.19047725611569835
0.1946735399444208
0.18293054618596805
0.16082649886097683
0.13555519084895834
0.10978230842908673
0.08616443664675068
0.06493616893938058
0.048158202788359784
0.040924853723931495
0.04426567910348602
0.05714685498428791
0.0764628279683683
0.09565088508909364
0.11149122046210638
0.12447414928333916
0.13342339960170424
0.13800783027797991
0.1389177762562045
0.1368843932335614
0.1331625133002837
0.128321024520848
0.11966453923082727
0.10335883550114844
0.08067698325865012
0.06555692655853812
0.062027037237715146
0.07585795425094383
0.1099217494699744
0.14139976927226072
0.1813645982674361
0.21305744941677815
0.2381610080750112
0.20970531016130184
0.18709967093905952
0.14688311067213955
0.46301853630835477
0.777689399277511
0.8062992567639443
0.8150706604383198
0.642769290537982
0.23840623583089043
0.1584181167429504
0.15090019562865165
0.16053305281301986
0.1882271904438988
0.22980728462792147
0.25489190314025245
0.2626498838113527
0.23039345993239368
0.17652406517170002
0.13042502257466074
0.08750666943408345
0.0964428892079857
0.12062078700014403
0.10171623527960746
0.0828116835590709
0.06390713183853433
0.045002580117997765
0.06480653139955951
0.09810737380578331
0.11286977732484246
0.142746516073176
0.1662257616210085
0.181110900331673
0.18859179314013372
0.18587047332503362
0.1749944038941186
0.15998793151100463
0.1411355281967843
0.12099930931752657
0.09862068927834335
0.07334036103833336
0.0519620076213972
0.04029737805526818
0.04231618561840342
0.057778304471315635
0.08063518705451364
0.1053713261177406
0.12859770943608004
0.14899487950855814
0.16567865254534164
0.17795748461119046
0.18559823456871316
0.18202426268903982
0.1633078726463596
0.1348191264405742
0.10078497551906446
0.07405714128443193
0.08241926117492575
0.09894090847715054
0.12675103911545435
0.1619911768907955
0.20719877704296547
0.2468524776780379
0.2646029053182468
0.2475551843720401
0.19205252105521192
0.20781780166773536
0.31296177815646914
0.503409216629519
0.7981038831554257
0.7904125346538055
0.7336346436376987
0.6124406356710349
0.18340077064130078
0.15344498082940725
0.16619038362105712
0.19175682015057868
0.21921375840507823
0.23975434552904912
0.23900788572611284
0.22889580791762076
0.20002394760047068
0.16362141593468885
0.1347218520778808
0.10247727575019165
0.10416674432184163
0.11503504130238162
0.09452346599597058
0.07401189068955955
0.053500315383148506
0.032988740076737466
0.08870716592074858
0.12423390169064069
0.13736507286680702
0.15611358980021062
0.1670939268318472
0.17034953165747554
0.168922608289626
0.16215467243489287
0.16099091906484891
0.16376920291267352
0.1614692298515112
0.15231419842138502
0.13322170965217667
0.10415031258163575
0.07440669014969559
0.04951116343474508
0.039596216847647525
0.04583624107038648
0.0634668777377358
0.09086979372085903
0.11995935672126237
0.1490605876889934
0.17760771604730888
0.20480701315526353
0.23078137089468556
0.23070773510318604
0.20160163219114044
0.15599139056909575
0.10161193887095989
0.07014894865950172
0.10360799851369802
0.14719288479232007
0.19514011254203725
0.22931649546592686
0.2847734335996422
0.3109303286579497
0.3053989110348473
0.3016173218470583
0.23808158195738216
0.3191453379516739
0.8504329726141292
0.8663721153444199
0.9344146673412428
0.9165621059520164
0.5511612095745104
0.500706864109894
0.16954716162579042
0.17207804140346455
0.19353732216512223
0.22003709927000079
0.23624855041812448
0.23612359439337863
0.21908782705464264
0.20232775605757783
0.18508524930946116
0.1639573137810598
0.1457731345174064
0.11952337889347035
0.1088998471808362
0.10780814203585018
0.08570560762935954
0.0636030732228689
0.04150053881637826
0.01939800440988762
0.07680326697614175
0.11105425600004738
0.1225972548787595
0.14625776812170363
0.1636268765353181
0.17397328668195863
0.17928939140353686
0.1769123253312388
0.17113091873636213
0.16361391415020027
0.15143928613289945
0.135697888665616
0.11455019385840116
0.08734827711229672
0.06149522115998422
0.043420272067321686
0.0399678670502273
0.051458484848405796
0.07284665477282906
0.09957012474946828
0.12596298621034843
0.1506416352320127
0.17276549346357653
0.19138752706374848
0.20625656062802705
0.20385016772959108
0.17992946128222442
0.14329880108018347
0.10053591663166848
0.07181406800515332
0.09168710781052355
0.11999182434560275
0.1559743702741105
0.1908904302004804
0.2410894423303092
0.2757973333649594
0.2841039911093914
0.26813619699091196
0.20399313147405435
0.2466551510566962
0.5363917151758935
0.6296989504521019
0.8380115416115341
0.8172116932115931
0.6519984600684989
0.5654348884490096
0.17422681974364146
0.16060218820288583
0.17830783013878385
0.20546960209232587
0.22835121895627614
0.23909098405828189
0.23001011862478712
0.21595960008452345
0.1920933578617261
0.1630765400210294
0.1396173707174872
0.1104239052061049
0.10670103803963366
0.11190024224485161
0.09065834759432913
0.06941645294380665
0.04817455829328417
0.026932663642761687
0.0813717289349053
0.11604809217466346
0.12753114325141468
0.14895581028187305
0.16375571041988166
0.17168507241687003
0.17510270941562742
0.1717971341288838
0.16798978965043446
0.1641318586585594
0.1553820890335793
0.1419233240561723
0.12147462151548878
0.09355055122454971
0.0661253117798559
0.04541603737778899
0.03957337471506199
0.04917480625312478
0.06938248917894327
0.09658219927588632
0.12410092603863743
0.15048856250953258
0.17497984298428126
0.19662215896919735
0.21525127224120122
0.21358319239955512
0.18762595131347634
0.14760694303944705
0.1007484017703294
0.07107097681633834
0.09597342364803316
0.1297630201579334
0.16984483830071948
0.20452183357973777
0.25674294742370285
0.28860358752639004
0.2921482671365085
0.2799038436508366
0.21424969766228225
0.2703402693002777
0.6599141312813979
0.7142634493610782
0.8704142864106145
0.8476540606600041
0.611094195407272
0.5421865562908459
0.17187115338251802
0.16455674248559485
0.1838800861796515
0.21106784614349833
0.23159879715776194
0.23822920340769715
0.22599513841507812
0.21073369111833462
0.1892568378252066
0.1632544136639275
0.14186871661747308
0.11382709826480357
0.1076088727364029
0.1104389685819068
0.0888791553644148
0.06731934214692281
0.04575952892943082
0.024199715711938824
0.06915916398027785
0.10279384949410014
0.11598584178395506
0.1436397128649372
0.16505089472902626
0.17855373754086923
0.18560812031973895
0.18334513937760574
0.1742541467574068