# vtk DataFile Version 3.0
vtk output
ASCII
DATASET POLYDATA
POINTS 5568 float
7.389721829250333 0.15885599249718058 -20.116316669571663
7.583570565173828 0.1569243531887564 -19.085926861557063
7.687697826013118 0.14060031706608578 -18.42169446178842
7.7837440841432075 0.11020166385335894 -17.770185497747644
7.850084318533796 0.0746763028823369 -17.132421555139484
7.8696513541326265 0.04119649061219902 -16.496282974033637
7.827510104929917 0.017344325388018465 -15.860282172244409
7.70437671427651 0.006994423345833264 -15.216449880403342
7.49067690195399 0.011084138525578028 -14.585236389534757
7.1862318774693685 0.030161835018120725 -13.983717251165704
6.797333431510884 0.06587706406785651 -13.42316362452379
6.334064066457252 0.11865711580423122 -12.909051964226238
5.806262095055014 0.1893448274370575 -12.43938022490963
5.21913062335783 0.27906785464193773 -12.009773042192453
4.580105556105895 0.38588577926753703 -11.614622115589496
3.8928247221964734 0.5056112375807724 -11.246149362883637
3.1696429931955477 0.6286986602792638 -10.895848736176402
2.428763514063295 0.7430560941925966 -10.55290485654495
1.6840276310442865 0.8392316191329929 -10.206608463909756
0.9483237235263932 0.9125456099462897 -9.848222249574059
0.2344721807984197 0.9627783432486732 -9.469701529340556
-0.4460239123793164 0.9917660110808203 -9.064087060215638
-1.079601967174205 1.0015617380990074 -8.626432571341516
-1.6565962371628027 0.9924987610393028 -8.15161851106309
-2.170142079144392 0.9643554352345263 -7.638436485893951
-2.614468366265389 0.917053229556338 -7.086842552703211
-2.9860913593900245 0.8521699354791706 -6.492839700122198
-3.279674906387829 0.7704958538398894 -5.85264389323524
-3.488555986603604 0.6696001231581185 -5.166369881367325
-3.6102944859649737 0.5556956245646304 -4.446276554138751
-3.65794221181044 0.434542668095392 -3.7017973657042353
-3.6447268390135834 0.3164060027304604 -2.951231104535389
-3.5799917904864587 0.2057414108408204 -2.1988154658562897
-3.472643847364726 0.09950900071668942 -1.4556059649132664
-3.334675658885791 0.036886766206686586 -0.7395758525332033
-3.1873924714072635 0.02019447275818604 -0.07617218318085783
-3.038779606332473 0.055881304277734314 0.5499132125604737
-2.90724483791908 0.14710843081159228 1.1421608328432016
-2.8045005792430766 0.3273670002321785 1.7143881134183176
-2.739960759130802 0.5901126261846474 2.2578809380990066
-2.7257855524518377 0.94219589037504 2.787237489965741
-2.810367415545564 1.3469624026752767 3.321129747090363
-2.9365575593105424 1.7347137696296624 3.8455616694289567
-3.149135364885686 2.033378916610473 4.317206279362476
-3.325013835128135 2.171735951233274 4.626437926247925
-3.4161642547368767 2.240793125987481 4.943782061450156
-3.4413188276596314 2.085225690874489 5.183318649735352
-3.4447636165292312 1.50444990770979 5.424649288497719
-3.405848162898934 0.8545819902758568 5.62439010221137
-3.257921181087463 0.08943884467996588 5.782996973303453
-3.0179980565361224 -0.6872896478468402 5.904209349490421
-2.6949588271223246 -1.4164766767023997 6.021355932739802
-2.2839605822124445 -2.076516625415341 6.156660547441384
-1.7879654433920835 -2.6307775767339145 6.335575137956032
-1.2184410577178597 -3.0672909227695366 6.567124486138312
-0.5918322676180835 -3.376748680457888 6.857283654911286
0.08474425765734428 -3.573748148638458 7.2083978299753655
0.7297925755304778 -3.6377826871335284 7.614163970178691
1.5023723437180212 -3.6000897395406515 8.029578388763682
2.344782533957173 -3.4731581282641755 8.442997987872891
3.4097164108528233 -3.2060746052575 8.881598141803925
4.793589903256814 -2.668167673285784 9.285811006893653
6.034111952581869 -1.9927703747150405 9.425710279853327
7.02271356324196 -1.2888645402267962 9.36374668763641
7.593597390936094 0.1333607823851677 -19.608177230014835
7.7686684155540044 0.011108087868566291 -18.78428784698321
7.86746172188191 -0.05664962063172671 -18.12772286491675
7.920019898683001 -0.12032547839619154 -17.490085985857966
7.920158917435979 -0.17143844147355236 -16.876638371606482
7.86663134839959 -0.20247392643743695 -16.28793028893276
7.75903348196585 -0.2114683971335739 -15.711232775755722
7.587953760540723 -0.19504152954755047 -15.141266699594881
7.35393444204436 -0.15636084124722105 -14.591416110555855
7.060197620811437 -0.09830790276110868 -14.06469527727093
6.702861840284813 -0.019116807150279178 -13.5584271179413
6.279771684324101 0.08046415234947644 -13.069304566732812
5.786595330378181 0.2033516145865174 -12.596478012334002
5.216356789769473 0.3543286572709646 -12.14416181002163
4.575085642999815 0.531437433983841 -11.722573841263475
3.8743685852501097 0.7278244635622315 -11.337637576358517
3.1328358717968854 0.9326912880379179 -10.981955389691064
2.377191979340427 1.1306869443562375 -10.645635711184886
1.631382497478111 1.3050528801072696 -10.314964820387521
0.9159060713332423 1.4444072966797776 -9.970780795696838
0.24436546598577114 1.5430240991875204 -9.594308129256149
-0.37102413994586736 1.5992453423989947 -9.172133701104903
-0.9225492588826589 1.6157066380109149 -8.701056463035375
-1.4045253162902536 1.592945083591644 -8.186058516780152
-1.8124061928523043 1.5304187786370407 -7.637064927320129
-2.1463468011083076 1.4269583749576185 -7.065578354028092
-2.410979763678985 1.2813748373376137 -6.475550510165035
-2.6090305239234826 1.0914224377526756 -5.864885316137984
-2.740059159902685 0.8539887618777867 -5.227441171732831
-2.812073459384089 0.5875229710320007 -4.56654442479044
-2.845592386862897 0.3010699018058158 -3.8788236759644037
-2.855173975936484 -0.0005061622517958941 -3.1584161127068064
-2.8664518264714856 -0.29243248097707897 -2.376469580584586
-2.886691341066294 -0.5426893038644611 -1.5267146178274893
-2.9183674939385176 -0.6671691124784754 -0.7146378326762983
-2.9558002859449792 -0.698486905556745 0.0382108976261919
-3.003317929645217 -0.6405205006417052 0.7557158349168648
-3.0658964176990695 -0.4835400595082965 1.4315375843707738
-3.1494571346877995 -0.17264564160906948 2.0550027011479575
-3.231922022538948 0.27295655479983943 2.579415777954506
-3.2989273084320003 0.869180226204848 3.0329401535526044
-3.347765314763805 1.5921028199677845 3.4847393587427202
-3.4250045867273706 2.249759929259292 3.910532764623196
-3.4697005868130835 2.684233235287092 4.35943904183695
-3.575185417484727 3.0452619547211373 4.879732914502343
-3.5899931065347874 3.064774104005618 5.360043007794827
-3.7077253673615207 2.477324462065975 5.603343746527144
-3.769326439118354 1.746116898031255 5.7705020357656505
-3.7433193046732702 0.9103796830145943 5.880466807727716
-3.640203782721998 0.06993196660328793 5.949273983460226
-3.434792374491817 -0.7455154662898377 6.006895013099527
-3.1164616634236815 -1.5087129436983333 6.073882456370471
-2.6857902422649707 -2.188553429958304 6.175766295589671
-2.160245463990072 -2.7503570214560598 6.339124212260618
-1.565868993347022 -3.1876899826346907 6.575988019787471
-0.9306278644036453 -3.487136476020768 6.892322281849077
-0.2544385757843056 -3.6678512510745893 7.2743827328623
0.4375456450958539 -3.7364420342580367 7.674613180512207
1.216108482873356 -3.6944677246690536 8.132446248497832
2.102540726126493 -3.5380740957630414 8.594399161279458
3.2369944814243232 -3.20759031290513 9.056350516400414
4.635416858048334 -2.653105038034377 9.43577485639995
5.811113826109189 -2.0159608886228155 9.628760783027476
6.818788086300804 -1.3324408690247656 9.713112751730366
7.63321116846421 0.1284069685339199 -19.509443852922335
7.805100718645403 -0.014548387820223802 -18.720822011710656
7.9029307494485845 -0.09230856889824694 -18.065281712015526
7.9471986266552275 -0.1624090395304684 -17.429806148066447
7.934779310142598 -0.2165432979316542 -16.82019974454458
7.867560737482897 -0.2471693823129108 -16.23945574058713
7.747696902040984 -0.25342545633962654 -15.672947154435542
7.56764057187135 -0.23206432363241766 -15.11597883504503
7.329801525097361 -0.1870545470825733 -14.58070617386543
7.037986125630249 -0.12188903383089728 -14.067567841748808
6.686383157713963 -0.034667673723785764 -13.5711850310672
6.270599209002288 0.07375372311866489 -13.086480572612526
5.7836468939027315 0.20676104113502397 -12.612646593209568
5.216193235137872 0.36989062720393007 -12.155457995275931
4.573942425377046 0.5611229823289646 -11.72826294133063
3.8699928958766368 0.7729565968765068 -11.339739257172624
3.124166250098187 0.9943044644258353 -10.982679475797298
2.364834955412029 1.209073439558837 -10.647333438382244
1.6180332316685333 1.3989112912502941 -10.319371034319694
0.9058602431420821 1.5510767244705876 -9.977635868418533
0.24202440590211294 1.6589124003001705 -9.601374121054615
-0.36142868488575897 1.720276153699436 -9.175887673261089
-0.8981411711817989 1.7380063699141033 -8.698031626701807
-1.3631515007341162 1.7126244169163332 -8.17449908883444
-1.752235592235475 1.643449623837228 -7.617262149900483
-2.066516697915746 1.5290607805067382 -7.0400911534191835
-2.3120693766177727 1.3677003003146653 -6.4484441232530205
-2.4930680911971432 1.1563802120510296 -5.840344498176161
-2.610075315295492 0.8915122203433679 -5.208315492139279
-2.6730053023980442 0.5940757998713359 -4.554577179008044
-2.7039958992185875 0.2737421860346997 -3.873508524866048
-2.718172867409459 -0.0662877653495545 -3.154358643659271
-2.7451801931621853 -0.39715520543260735 -2.3620989982311853
-2.7928125680631743 -0.6791419155583703 -1.486509564299755
-2.8601842774914283 -0.8172231883203682 -0.6501040325500145
-2.9363602902705206 -0.8518092401720146 0.12670432506217089
-3.0254315308875106 -0.7886614669787065 0.8696767712227103
-3.129697932376024 -0.6162743210227578 1.569589980618527
-3.2539228422419715 -0.2743371083259087 2.210258459055909
-3.3685642172768255 0.21505775874361305 2.7363747980931348
-3.4539416034228156 0.8708376755789828 3.1783657617181627
-3.4951821186982874 1.672889186115655 3.616090793212232
-3.5626866508787476 2.397231014303653 4.025511709990813
-3.5739771985431337 2.8651615855058132 4.47594761653898
[...]
CELL_DATA 87
SCALARS quad_param_group int 1
LOOKUP_TABLE default
3
1
3
1
2
3
1
1
1
2
2
1
2
2
2
0
0
3
1
3
3
2
3
2
2
1
0
3
3
1
2
3
3
3
3
2
2
2
0
0
0
1
1
1
3
0
0
3
3
3
3
1
3
3
3
0
0
2
1
1
0
2
2
0
3
3
2
1
0
0
3
1
2
2
1
1
2
1
0
0
0
0
0
0
2
3
3
SCALARS single_component_feature float 1
LOOKUP_TABLE default
0.02446048596026097
-0.04162028731856603
-0.05446002656886448
-0.028241844623136808
-0.002767545041154071
0.015323302802006694
-0.00015957417800777432
0.036915445054697765
0.013539264883851251
-0.05106228321433439
-0.03698592857363817
-0.055334868837202435
-0.027066537830289963
-0.031467096739938985
-0.0499415092013509
0.06618869996071707
0.05864403519496947
-0.01252590917935923
-0.011920978813787918
-0.017907694327650495
-0.018712111306490885
-0.013342701641469355
0.052941584877839176
-0.09836652146017776
-0.03788198901721181
-0.034135396149726036
0.05866303151106536
0.0940482143507479
0.028235835032332342
0.08198721442629608
-0.005809540206976006
0.02555220302550262
0.06884700832203194
0.07187418028922922
0.09002782174454871
-0.0010632834989676015
-0.012192231522633342
0.006096258750707663
0.003575902439232108
-0.011284167138443935
-0.01727664373726881
-0.010736974493435665
-0.03952684318098425
-0.009126799440495367
-0.029973872875851907
-0.05027246997184513
0.005734917149587224
0.02080987793129556
0.02345719397844473
-0.06021982548285967
0.009038030789524781
-0.03054820479313288
0.0060167542859256296
0.03455957193168857
-0.017182515329566127
0.06554131893256719
-0.060544461766280866
-0.015150436439675816
-0.005741775826857781
-0.01743586969865634
-0.006253882966058229
-0.03267878638761612
-0.008610249894664485
-0.020641722263921854
0.013514040722756061
-0.011566314171800235
-0.06757395607376405
0.0057314462549065415
0.10103784589434728
-0.025939307136487746
0.040030791066124054
-0.014809180640193941
-0.007132590856322323
-0.04308971578802878
-0.018926524102779854
-0.027616716032141414
-0.045017127017888
0.03541917054384503
0.03578235398477786
-0.013052581977781676
0.051811241276773445
0.1396037642878919
0.020303531986678815
-0.018659692844914394
-0.03416765331704638
0.006417779469542156
0.0019926017849851803
POINT_DATA 5568
SCALARS single_curvature float 1
LOOKUP_TABLE default
0.04847615478827924
0.0771283993228329
0.09340845107932445
0.1299101037755068
0.1629509530773497
0.18594357723800486
0.19758017184890664
0.1970317465343448
0.18484232427848038
0.16518847144365026
0.14061713005195997
0.11438687470631985
0.08821225531321678
0.06261070416154393
0.0442595463144452
0.03536629407590792
0.03694731929050011
0.04850728164308746
0.06535684470192749
0.08543478105744784
0.10689601240204778
0.12850372898028745
0.14780260473662488
0.16277242444200604
0.1727902925918801
0.17491747207758274
0.16489499237852834
0.14619940361104397
0.12320998453002584
0.10033749783461482
0.09277721833475291
0.09302566530058437
0.10389211294510786
0.12521136371861616
0.16347627429699546
0.20014968728931826
0.22559630253982285
0.2398059443529317
0.2026428028325891
0.22323678701095986
0.3319620524076719
0.47903839795476283
0.8426497576553886
0.8475284992183217
0.803400929870785
0.7252564376296915
0.21622590904732908
0.1519826855246739
0.15850866304404973
0.17587579865625377
0.2050269807348316
0.23250507548934682
0.23947718714386165
0.24146283244321073
0.21330144079734079
0.1734535710287903
0.1407289584623691
0.09899149306359269
0.10300145938817977
0.12443472748113657
0.10550865577957351
0.08658258407801045
0.06765651237644739
0.04873044067488433
0.09682046731480683
0.13821613135614383
0.14640142915631152
0.16660803156496676
0.17927023804680323
0.18216983977079582
0.1814449846901432
0.17085251575106328
0.15530277823579147
0.1406921300826999
0.12530700503514874
0.11151197266776926
0.09469232923504034
0.07334364102921287
0.05403777987952626
0.04665044557347262
0.05710851269083339
0.0843691551062684
0.11832697369051626
0.14764961013573302
0.16883558492890535
0.18082154188518168
0.1861827635436537
0.1866035913449922
0.18174621574443187
0.16543215066288772
0.1370826144196828
0.10197802042836088
0.0706523124644105
0.05821089025497221
0.08392332753034171
0.1136180195916588
0.14656302938604612
0.18180591133556187
0.21844189279557275
0.2625434642887064
0.28243565422421596
0.2543550842601655
0.19054217549620553
0.21599467260663166
0.22023186281819226
0.5215107485604473
0.682181601634555
0.6498496587803054
0.6311275503738235
0.3747347614588981
0.15986796119630017
0.15018386928443758
0.16583840809693756
0.20051661036365348
0.22850640858356194
0.2508762331512938
0.24976796025491702
0.22928110772285798
0.19658019137834132
0.1553260773634783
0.12461497497939937
0.10091681792511326
0.10162032007558283
0.10309363614526834
0.08106319424324213
0.05903275234121591
0.037002310439189695
0.01497186853716348
0.11105541338019094
0.15540814748599696
0.15932801777858766
0.17520529459656267
0.18340447180259625
0.1815216763341075
0.17785584497138687
0.16487782577070076
0.14862916712089586
0.13526338691284637
0.12187543510602099
0.11060239149840853
0.09558743070201407
0.0751219180457533
0.05565722551263931
0.04865425787730178
0.061077238546465115
0.09168023961286971
0.1291920803857938
0.1603434537929229
0.18130693320172886
0.19124456064100953
0.194045667467116
0.1919243258832535
0.18413408476163018
0.1637882598921509
0.13133203954951328
0.0928390373079973
0.06409581588913003
0.056904246451144516
0.08914912429829297
0.12349998524115025
0.15492804367447882
0.18754499783065587
0.22049954518291917
0.26406534371740875
0.2836053520828442
0.2568776446114491
0.19108322526897897
0.22824102546294012
0.22605916016944175
0.5309501439794712
0.6576983662778785
0.6116402737346711
0.5954183425014128
0.3145465552120999
0.15241195828959558
0.14968904202707875
0.16739580821251876
0.20537619435936932
0.23290393665218695
0.25447899932966006
0.2518812540238554
0.22829567330765158
0.19575426045204175
0.15406685786972
0.12370630548257032
0.10234475868793136
0.10120355665800992
0.09930617649412771
0.07675813793079123
0.054210099367454745
0.031662060804118264
0.009114022240781783
0.0827483258850881
0.12118884367551173
0.1334219967164428
0.15807229831195097
0.17530496782384528
0.18292712084300022
0.18508359633008714
0.17681081392794987
0.1619553428066627
0.14612936675107432
0.1287328852104314
0.11234268837192554
0.09363263559403859
0.07137599453084632
0.05224450104742339
0.04448445165817103
0.05297656012300178
0.07685363257544901
0.10715704784000961
0.13454491776624178
0.1558594946121137
0.16988706231887196
0.1779785962829624
0.181201186257129
0.1794672023167629
0.16732984782873486
0.1431879100665325
0.11161874915220187
0.0786942671289961
0.060761038212723335
0.07919218477156856
0.103416120673127
0.13625299159881177
0.17349230633104548
0.2132746603647497
0.25722042139020584
0.2774386831716127
0.2500267843517885
0.1894218424419136
0.20373875956393508
0.21746248107537805
0.5075767509341347
0.7131680989652139
0.6943840412153657
0.672802545963769
0.45056277701454667
0.16847804989887655
0.15062715897447723
0.16422784289445916
0.1954412363474382
0.22385746986529026
0.24712342076356672
0.24759673771017696
0.2308134595254558
0.1982993271035949
0.1574476085586475
0.12635668702241296
0.09978396938150645
0.10202967724601758
0.1072567030136928
0.08579574477948693
0.06433478654528105
0.04287382831107517
0.02141287007686929
0.0600982628319861
0.0933858262671304
0.11086425232948507
0.14323118143706107
0.16869844811930224
0.18444370768608473
0.1915528785313588
0.18727181140617638
0.1736988388684605
0.1558244728984848
0.13480834982019857
0.11358026757905641
0.09125727073957533
0.06732598442764609
0.04855247300105644
0.040172311310884896
0.04515646460782571
0.06287771818712115
0.08644715401943613
0.1101812475925565
0.13157389979705755
0.14931979360903702
0.16277560803149346
0.17164026558276435
0.17582581650783494
0.17118467952746058
0.1544899030462986
0.12944372477485946
0.09876639178607013
0.07323115261096243
0.07755914706013434
0.09017762910471172
0.11583266547108954
0.15189354902048477
0.19452651191930495
0.23606586114930966
0.25742596471667434
0.24254485281440738
0.19140144514804436
0.19589868749884679
0.23990980445826443
0.47800013018665594
0.7850241485816901
0.7839874099058166
0.7558058417269207
0.6136450713101074
0.18791057525601723
0.1513147802433741
0.16128634674483835
0.1858454934066549
0.21484231046381733
0.24000857479986196
0.2435727400818857
0.23508403310442405
0.2039723264396359
0.16373086790916982
0.13187647819117923
0.09868516411635694
0.1026569137843692
0.11552417842334407
0.09523175305557226
0.07493932768780044
0.054646902320028626
0.03435447695225681
0.05032523992068874
0.08042082923442771
0.09803687993367154
0.13404056177413434
0.16473340914136467
0.1854687277709624
0.19567196641094026
0.1939262999701815
0.18126744035743625
0.16216320962758501
0.13874877887773693
0.11417644079152181
0.0892908474741827
0.06423260125478295
0.045734970544633644
0.036995182445179686
0.03967829206294692
0.0532580305885049
0.07229634178211712
0.09355740843243647
0.11498105306147258
0.13529873933421405
0.15263996262263102
0.16558593728666174
0.17373805165480366
0.17377149715540818
0.1616824784263818
0.1409463797628191
0.11503867278213636
0.08999597286670896
0.08569738482716222
0.08992375767062322
0.10621310217311183
0.13401474103358943
0.17485151987971517
0.2133055668436243
0.23687392045210598
0.2400728873494664
0.1979119886141592
0.21043692108100515
0.29224699729519044
0.4707612158336085
0.8291885816367734
0.8328547067390676
0.7963605054413094
0.7025540785206557
0.2054188154639447
0.15174938624690618
0.15938457805971823
0.17917489274013332
0.2083366247988388
0.2350069162701629
0.2408243573243613
0.23912373769748804
0.2098181170825804
0.169870407967245
0.13744356300879365
0.0987300603783903
0.10292931375074998
0.1214642251578544
0.10206666620515396
0.08266910725245352
0.06327154829975308
0.04387398934705264
0.058270259827471894
0.09107169806933782
0.10879291773004561
0.14183063773745636
0.16809034227107683
0.1845966076693302
0.19217323536780034
0.1882720215828363
0.17482997679706286
0.15676666109915544
0.1353959370503081
0.11368085585107474
0.09098791216390405
0.06689045489596651
0.04815557883303721
0.039719203447527364
0.04436186646175916
0.06147431896764928
0.08437590452486991
0.1077448300219097
0.12914054433853722
0.14725936223283714
0.16127351005339802
0.17072773903972724
0.17550281398378997
0.17157495388000543
0.15558372248124416
0.131178729137575
0.10107582246964376
0.07525122656571742
0.07821318563761254
0.08960498889083766
0.11406772996330801
0.14937060608138705
0.19197869077862018
0.23312933883823894
0.25470669197977325
0.24203278525582325
0.19208658500477446
0.19692839331591908
0.24533745292868145
0.4757013706137252
0.7923777009179791
0.7923568112493589
0.763297698764875
0.6291569906136709
0.1901933021905735
0.15137789303112895
0.1610003519941998
0.18487428435104536
0.21390902914091503
0.23928422800728652
0.24317038079084924
0.235616539034268
0.20472527102853674
0.16453370191910704
0.1325982739471237
0.09865077639470181
0.10270610571752976
0.11638163354775814
0.09621495202162848
0.07604827049549882
0.055881588969369164
0.035714907443239505
0.04950589403510926
0.0763861567304236
0.08957099614423676
0.12493066081486452
0.16074950605283353
0.18652728038139002
0.19998344705496074
0.20098537528993585
0.18944738328791105
0.1691204026147568
0.1430302211346688
0.11457544564109597
0.08665313068634999
0.06034459156803441
0.04220102243195496
0.03313126397661988
0.03327449934657422
0.042158271957732925
0.056149456351613024
0.07470710301992951
0.09626445020986414
0.11962466812270109
0.1415546990660067
0.15918952487032326
0.17155629552969612
0.17621704269010324
0.16871357944235987
0.1526316384823525
0.13393966324988546
0.11542414089277808
0.10513427567378013
0.1005234603133073
0.10366504517565955
0.11446491309683976
0.14715515783538344
0.18141068046544565
0.21036102837553963
0.24055625422133556
0.2104165164845998
0.24382832200682542
0.39938078364941754
0.5124549587265567
0.8512264739812482
0.8579995836125041
0.7967895582164404
0.7279945575278
0.23419549967886344
0.15235114320885773
0.15742514101426328
0.17147209047121073
0.2004981789264908
0.2291283229674692
0.2376904946374883
0.2449609590873253
0.21858145323071235
0.1788137504530203
0.14567511649226272
0.09957922735535993
0.10302304485509226
0.12841519385408698
0.11015162391047088
0.09188805396685479
0.07362448402323869
0.0553609140796226
0.050950570515759575
0.08134162352561973
0.09911050263075266
0.1348896361595355
0.16509841622600327
0.18537210064252888
0.19528549175166304
0.19329979870064445
0.1805500036340269
0.16155866679801117
0.13837437007073325
0.11412823457064734
0.08949484404012033
0.0645448671281971
0.04601920313722748
0.03731165030192659
0.04021464074148851
0.054194351717323265
0.07366833134232871
0.09516621279656338
0.11658490562398265
0.13665020552595877
0.1536079516029398
0.16615425353043134
0.17392985525612412
0.17353241618373852
0.16101886350563588
0.13987298954899643
0.11342693554784748
0.08809065787900112
0.0845326348923303
0.08956445275237536
0.10687191796001709
0.13578191587057206
0.1769793376803222
0.21577054298214984
0.23903823783876763
0.24020367999346845
0.1970952576676212
0.20829356865012408
0.2855290022024558
0.47032026271409133
0.8257606561052633
0.8291483655997101
0.7937897022591475
0.696143521042205
0.20349050069524355
0.15170584310072127
0.15956282152372417
0.17982508346841977
0.20898120452322674
0.2354975178735037
0.24109075946213657
0.23869000363865955
0.20917836117382854
0.16920725259867786
0.1368379005261722
0.09869698465008807
0.10290989665414423
0.12088076983257932
0.10139264874654677
0.08190452766051422
0.062416406574481664
0.04292828548844911
0.10723716648400414
0.1507976743455099
0.15587021736220694
0.1728946706183425
0.18227886159653964
0.18168312534768188
0.17881181860290163
0.16648082565872044
0.15042121953136917
0.13671930452143957
0.12279678962221847
0.1108535562324707
0.0953621481338804
0.07466206140482634
0.05523859872391013
0.048131541728593005
0.06002721839921966
0.089736850758814
0.12630503717847508
0.15697676376011208
0.1780102920076899
0.18849984271142084
0.19197298259262088
0.19050938765471773
0.18348642329125817
0.16420378234314983
0.13283464998950786
0.09523428366464715
0.06575350910739038
0.057195093011377776
0.08776580321491534
0.12094590800824825
0.15288230164934857
0.1862402260916883
0.22021724182434824
0.2639856082900297
0.28362699770048666
0.25643058428018023
0.1910616724661351
0.2251153686098736
0.2244186798769283
0.5288734320550201
0.663747944747847
0.62131122819562
0.6044510747292616
0.3292653350765966
0.15431537923367034
0.14982699334684949
0.16698371134909323
0.2040927203981076
0.23174668393231784
0.2535258859444407
0.25131953479423397
0.22850936345157266
0.1958948893761283
0.15432638865128084
0.12387440627793467
0.10193592082342735
0.10131466657219575
0.10028424982252737
0.0778704178607764
0.05545658589902544
0.033042753937274474
0.010628921975523509
0.09183816300472629
0.13219386484340268
0.14184074780459113
0.16359946704357173
0.17785735904269748
0.1824250921369859
0.18271988188382277
0.17294956949470106
0.15764335018610037
0.14260160305595285
0.12651142907728866
0.11181347749286547
0.09433994274334769
0.07267505937531667
0.053428564100384934
0.045908751795586615
0.055676298570037024
0.08175327110643872
0.11443831874918134
0.14309256709650162
0.16433332040330118
0.17703585826520113
0.18333544995718332
0.18471033879235896
0.1809298551720733
0.1660710992216268
0.1391930291759499
0.10531593076701258
0.07326260212841515
0.05889738699985144
0.08213069383800384
0.10999640099553185
0.14314801413952385
0.17919258586937184
0.2170130439614842
0.2611468199521473
0.2811512642008015
0.2529769117414906
0.19013828411199504
0.21151320668038268
0.2186682922354121
0.5170963158290625
0.6922304648571668
0.6647621457683172
0.6450791126793038
0.3995464470809835
0.1627462150930208
0.1503453221000393
0.1652779322431729
0.19875846363864444
0.2269033914107514
0.24957574067588928
0.24901196780547127
0.22975441436988053
0.19707621325754468
0.15596740002378467
0.12512640340893733
0.10048209923891341
0.10176631736374016
0.10451478145361567
0.08267813216244332
0.060841482871270974
0.039004833580098625
0.017168184288926275
0.11204349110870927
0.1566012053474987
0.16022216442633871
0.17580415468184193
0.18369798610461907
0.1814814762815002
0.1776092220147171
0.16446273708717404
0.1481648470535124
0.13488632832350142
0.12163669287007188
0.11053652112661025
0.09564409011241802
0.07523905778436787
0.05576384227977674
0.04878794034329499
0.061347535716772116
0.09218158084897947
0.12993666757178063
0.1612109286249921
0.18215495342371926
0.19194922307118223
0.19457789424038766
0.19228898189304808
0.18430237926379023
0.16368366553119
0.1309479810269775
0.09222587894042784
0.06367637333671111
0.05683315779298849
0.08950208902168534
0.12414701398700541
0.15543441447435905
0.1878563081688685
0.2205429275805305
0.26404988554078157
0.2835626644810389
0.2569643553552205
0.19107142872514213
0.22902424355131953
0.22648235889138607
0.5314344515276017
0.6561842378616332
0.6091996147571428
0.5931392690528964
0.31089273512626797
0.1519294629083119
0.14965268922506936
0.16750183739391789
0.20570627201247016
0.23320112934856602
0.25472434667177324
0.25202615105553905
0.22824618294377466
0.19572705361550813
0.15400855928301707
0.1236713925648857
0.10245350598780278
0.10117496722495459
0.09905749180347102
0.07647522001668938
0.05389294822990774
0.0313106764431261
0.00872840465634446
0.08156352193241326
0.11975170071549242
0.13231124890797002
0.1573449861320817
0.17497312779357027
0.18299610699599053
0.18539655595408838
0.17731984914719723
0.16252428691118811
0.14659592863946663
0.1290263011941568
0.11240981950708474
0.093533338382291
0.071197704421517
0.05208196959378617
0.044290635723535886
0.05261406444634072
0.07619880434347125
0.10618436627402301
0.13340187108597518
0.154723842027426
0.16892713097678713
0.17726163874099374
0.18073693361144907
0.17927876283925703
0.16750344254595145
0.14372403008964074
0.11246352088128621
0.0794826566830279
0.06108432820752591
0.07886096880465654
0.10257811115337326
0.13529164333344934
0.17265155686181252
0.21266655634525042
0.25656175950777566
0.2768108602453239
0.24961719867286017
0.18935262268830635
0.20281229212671115
0.21753791055559918
0.5062025389772852
0.7161797666051214
0.6984920747607423
0.6766463943588081
0.45779329939772834
0.16928036238596217
0.1506629162091192
0.16408773720733724
0.1949957049592808
0.22344601829411453
0.24679403583444876
0.24740770560021166
0.23097210485236075
0.1984923026537997
0.15767338265340025
0.126548388212506
0.0997025174080137
0.10206359139404024
0.10763037043542467
0.08622090770163329
0.06481144496784191
0.043401982234050535
0.021992519500259156
0.08604768256927718
0.1251870343645058
0.1364965695715024
0.16008750274181385
0.17622923437100282
0.1827394097975557
0.18421873509580583
0.17540161051444883
0.16038099922251328
0.1448397137928738
0.12792136216801434
0.11215357652568006
0.09389998071495752
0.07186080532075177
0.05268643526281645
0.045013478138032616
0.05397183548369817
0.07865522189413048
0.10983377475708782
0.13768914911337438
0.15898054912118811
0.17252315358130726
0.1799504796188124
0.18248470274917264
0.17999439750518442
0.16685838910295256
0.14171468589407418
0.10929628865473681
0.07660474695766437
0.05996987702256942
0.08018777151769056
0.10578225510053448
0.13885462057358894
0.17570994231846856
0.21481423751167955
0.25886780418925154
0.2790049846486864
0.2511450770155364
0.18965519867338437
0.2064495923762594
0.21757528213010754
0.5112455301778213
0.7051411374447369
0.683251988121508
0.6623841199078992
0.4311478893927734
0.16631610158744314
0.15052652194500005
0.16461372390768594
0.19666442872949186
0.22498411766394072
0.24802764137266736
0.2481169621205946
0.23039783074574083
0.19780451114708558
0.15686062050728053
0.1258626179700035
0.100022648998961
0.10193468124467003
0.10623711814733407
0.08463606081335752
0.06303500347938097
0.041433946145404424
0.019832888811427876
0.10598491614775607
0.14928552642499246
0.15473508472822575
0.17213792746994316
0.1819125680633221