# vtk DataFile Version 3.0
vtk output
ASCII
DATASET POLYDATA
POINTS 5568 float
7.40000223162501 0.13752229421886109 -19.979324493469935
7.637204232769961 0.09453413272957199 -18.969413527645067
7.7447210352610725 0.060297780325177915 -18.307921616777627
7.826765276695301 0.018067094606664127 -17.657987324101093
7.871532788239765 -0.024020076256017882 -17.021840386276548
7.866247615244818 -0.05780556418515586 -16.39229790311214
7.799130811324675 -0.0779580148467787 -15.76471302895718
7.654425021337041 -0.07957169977648733 -15.137348350899721
7.427024895477461 -0.06289317683564676 -14.527856964691738
7.117641324333037 -0.028759058501796664 -13.94727383934511
6.728531062206059 0.024355575815568166 -13.403054885451697
6.267014780457791 0.09549431044155623 -12.89959675672599
5.740566310117064 0.1854446113565836 -12.435265065834443
5.151452304948349 0.2958074008895612 -12.007469409395418
4.505986590788729 0.42476962573484 -11.614201492648855
3.8098394222135417 0.5683979375741417 -11.251262139239653
3.078177714847122 0.7181419506319232 -10.90951287266504
2.3342669840397083 0.8606896637822758 -10.577496499902905
1.5961749636902307 0.9833209731253135 -10.243366854546343
0.8783346054325766 1.0785261612875305 -9.894891180998323
0.19227159707073593 1.143789588187236 -9.520200087162854
-0.4520343363678735 1.1795527684803715 -9.110742029171856
-1.0444700457927039 1.1876219803084542 -8.663086215551623
-1.5769024722666916 1.1677644705441974 -8.17630892946697
-2.0425213984709862 1.118352935669288 -7.654548770266759
-2.436481397460188 1.0379276273015416 -7.104100032356078
-2.7584955207107624 0.9286164449426471 -6.5247063901627
-3.0069911054071228 0.7912880754151115 -5.912375358142387
-3.178941604749339 0.6210988322561759 -5.260854560078206
-3.2776934465661793 0.431866421924779 -4.576216835907051
-3.3238726142917727 0.23433559959818906 -3.8565575885023313
-3.3309253101503984 0.047185580179449765 -3.1142529838348065
-3.312000334075283 -0.12186730264321396 -2.3426879439969417
-3.271580713230872 -0.2473422858578787 -1.5643590055693948
-3.2164940814515064 -0.29513397398847596 -0.8242723231252892
-3.1485059017456067 -0.28062261773170566 -0.1421347557610867
-3.0761996884825 -0.20482710664653225 0.499885258227438
-3.0146162397393925 -0.055985086428018915 1.1018838125468116
-2.9727781144004086 0.19539758306269717 1.666031106762719
-2.9494319534319273 0.5412659278951175 2.1686806191610186
-2.9457515717063667 0.9957449460411081 2.637218849460776
-2.995736653674275 1.5125046093201406 3.1248934522169374
-3.0693598357534797 1.9675264624012727 3.5389429007165503
-3.200665342884174 2.3363330991020055 4.038489951938528
-3.3618643116506806 2.564561274545876 4.48102669088653
-3.4246951003316566 2.567436007025018 4.868900229264976
-3.4780272977889997 2.2153632634045923 5.116969233271906
-3.4955159260247783 1.5710812602357596 5.344296679315051
-3.450446617566278 0.8360346911572486 5.52900267499261
-3.314391793488212 0.03875251246432321 5.675200859652253
-3.0851074861118883 -0.7518106881872655 5.7993717677427705
-2.7614216608477857 -1.4921191523908957 5.926086647456716
-2.3396826284956074 -2.1555664857540155 6.0779154055811695
-1.8312429496401919 -2.7071777402804855 6.278204017109892
-1.2557257725165583 -3.13947215581576 6.537101752361418
-0.6352964840175662 -3.4471870721199585 6.859801774665912
0.026716949493504227 -3.6518445423962698 7.246224492499641
0.6509642562709133 -3.7196964536669603 7.699686427649629
1.4161870663494658 -3.6853655646413 8.141096387643866
2.260679986641149 -3.556629595903482 8.572310313676127
3.3155290153229244 -3.2858611789787044 9.009042593716613
4.7051931506922315 -2.7562334980506917 9.405463014289692
5.9110944754845764 -2.1143289985624336 9.558745250820472
6.912676703995173 -1.4276906308273438 9.536718512738297
7.558290083465181 0.1664095569662787 -19.855239203759588
7.67787734549659 0.10856116426622742 -18.987438685332183
7.772213587820403 0.07153795821249803 -18.3272482939825
7.848736573644976 0.027978184374444402 -17.687227031270574
7.885536934748421 -0.012263543259043705 -17.07104810955643
7.873488547266013 -0.04298302739707738 -16.47095411778766
7.80685636382279 -0.0584278734100572 -15.87920405704475
7.670355160097822 -0.05650232008207339 -15.281383571744241
7.457421023793421 -0.03828602473894387 -14.69517542016682
7.1697981455867374 -0.0044941841794182286 -14.133199281242227
6.810206561116568 0.046555738500892806 -13.599613233243398
6.381369456061646 0.11591286059345687 -13.093671882170648
5.883629612606259 0.20620424895516293 -12.614299005087096
5.315439362344669 0.32106746432561606 -12.162553775755951
4.684657778722753 0.4585020521200375 -11.741832587513036
3.9992401627761804 0.611860275047069 -11.351393005921373
3.2732911863379304 0.7691478274177996 -10.98471108296437
2.5254065257176204 0.9173543937883216 -10.632798975134914
1.7720806353702254 1.04553955735274 -10.28392521709957
1.0304681783128364 1.147158658192479 -9.924873044672957
0.3160413994215828 1.219986214009378 -9.543148423728175
-0.356060156900336 1.2642603546406619 -9.128302704936067
-0.9719567418184311 1.2826848084464852 -8.675401283973796
-1.5234394098803903 1.2766632809119176 -8.18298031702968
-2.0059839951243092 1.2478355580791556 -7.6524562371413225
-2.418403163468099 1.1972201368726243 -7.084996033030144
-2.760285893260116 1.123130107374191 -6.478538349500614
-3.0283773521096746 1.023670930186484 -5.831768107059112
-3.2168871179846468 0.8997167519077093 -5.148672410980459
-3.3249461129729396 0.7574996293377229 -4.441163502699366
-3.361361523373466 0.5987279807819036 -3.7230513370093155
-3.339808872169264 0.4186477033658722 -2.999396167515936
-3.2769557196124914 0.23548908075760056 -2.2584164142360716
-3.183154242059655 0.03404196145413915 -1.479486313689961
-3.073751084921599 -0.10374957346928099 -0.7213938744714223
-2.974599513747453 -0.17853459574902703 -0.016602202306444713
-2.88846842568932 -0.1825532347421236 0.6533702592523737
-2.825839677976313 -0.1200294270248217 1.2915527158014606
-2.7971495022736828 0.064802152106996 1.9059581157017522
-2.8011784531115476 0.35724573024079953 2.478763059695975
-2.841213381524608 0.7593425090375856 3.0181545833222603
-2.94350774755725 1.2541038754048284 3.534860790026525
-3.105482388017261 1.7613254385378432 4.127718006024591
-3.27805811065969 2.070822699663672 4.528102805147768
-3.4212276871707394 2.251356474552186 4.817205284699169
-3.493120331593329 2.3756068745986987 5.173034369447777
-3.5409530605614337 2.191691770380312 5.40087400787241
-3.5733217510475033 1.5769126949795518 5.5985727088413455
-3.5534946956641607 0.8930509259169139 5.745000688056323
-3.4284814574429032 0.11052476592888216 5.842206422276836
-3.2043011097847134 -0.6803516662399468 5.9025969846752755
-2.886107915726931 -1.4245363865183418 5.961635323904857
-2.4721622850144342 -2.0985159828334288 6.0439170536291
-1.9666185880284228 -2.664334971611095 6.178923777503271
-1.382374491212659 -3.1084504291369663 6.376727491184279
-0.7382882075150937 -3.411924143743127 6.6443392317894325
-0.0398196699697545 -3.5838508429583618 6.973565514975924
0.6846706654393852 -3.647134871924807 7.3095297117460065
1.4732768651585613 -3.6007863292961764 7.725586563349552
2.352088226576771 -3.450235024656813 8.156448394934332
3.4940650391549877 -3.131695580349873 8.618625834191937
4.882750840042391 -2.5670135324716346 9.01174988737773
6.113505871301741 -1.8784013504413721 9.181112666097734
7.0968716926821696 -1.170824964570934 9.193446539582883
7.566334405703764 0.1678776320423464 -19.84893308459824
7.6804361087828354 0.1093436011732539 -18.9878344062606
7.774105086822847 0.07217873741414058 -18.327703351113716
7.850349670650133 0.028552069346396328 -17.688182939515777
7.886751608855132 -0.011597017087811225 -17.073008428481348
7.8743683717899895 -0.042163736102303936 -16.474389866125087
7.80776297926065 -0.05737589282868 -15.884431744387067
7.671672382968289 -0.05527508208147644 -15.288093094729359
7.45946186410374 -0.03698273038987416 -14.703054778668292
7.172925561611748 -0.0032084212883045637 -14.142012498336136
6.814803556392754 0.047738724128177895 -13.6089555907447
6.387589450415084 0.11700869983282469 -13.102875254474739
5.891273130218372 0.2073216054079166 -12.622721133780603
5.324116330629536 0.3224191456813514 -12.16973701867959
4.694054013788624 0.4602917631278398 -11.74759759939947
4.009157490070723 0.6141521273074235 -11.355740428623594
3.283482114546282 0.7718286961972887 -10.987776548011253
2.535388144980442 0.9203263006711098 -10.634842485679325
1.7812824787330577 1.048796640892418 -10.285211706175478
1.038451236868025 1.1507459298018934 -9.925617680241029
0.3225655047145337 1.22396423079826 -9.543534172433525
-0.3509683121038344 1.2686784087209815 -9.128413448112147
-0.968074225842004 1.2876372615580145 -8.675242406583115
-1.520540588075031 1.2823278566188765 -8.18252813713995
-2.0039653629833944 1.2545586902667178 -7.651542893832312
-2.417356546216839 1.2054811660617222 -7.083178587300744
-2.7602931780252504 1.1332157136867806 -6.475276290437405
-3.029426271593365 1.0357212074945223 -5.826661669823699
-3.2188179030938433 0.9141437516190073 -5.141841880225237
-3.327368398418162 0.7743196518430668 -4.433067488768001
-3.3632940493643506 0.6174912223963754 -3.7149838957275274
-3.3403065432574093 0.43775988042677144 -2.9922415672982763
-3.275250756677471 0.25387796156884757 -2.2527183218771656
-3.1786676725470047 0.048449780007286114 -1.4735012946961545
-3.066389071212028 -0.09408751246111774 -0.7141450082162891
-2.9655743491429174 -0.17354808323092277 -0.007872017672393872
-2.8786935364974595 -0.18170722429624725 0.6638051228843012
-2.815977631539412 -0.12361702879324807 1.3041969046081736
-2.787957062907454 0.05784165142734071 1.9214627139364837
-2.7934182561220844 0.3476273725212748 2.498195259850849
-2.8357351680969956 0.7472311451018234 3.0415399028270547
-2.940729268288599 1.2409651209924126 3.5598367944805265
-3.1077766096507675 1.7510500745243607 4.1628741781625616
-3.282277163606131 2.057805923695849 4.558670276394035
[...]
CELL_DATA 87
SCALARS quad_param_group int 1
LOOKUP_TABLE default
3
1
3
1
2
3
1
1
1
2
2
1
2
2
2
0
0
3
1
3
3
2
3
2
2
1
0
3
3
1
2
3
3
3
3
2
2
2
0
0
0
1
1
1
3
0
0
3
3
3
3
1
3
3
3
0
0
2
1
1
0
2
2
0
3
3
2
1
0
0
3
1
2
2
1
1
2
1
0
0
0
0
0
0
2
3
3
SCALARS single_component_feature float 1
LOOKUP_TABLE default
0.015239990496967845
-0.021766357305212012
-0.02364705113694343
-0.03695751615703978
0.020678644136516645
0.01798805904373609
0.035316633650583226
-0.021769414420585463
0.016117303235203037
0.07109143065623406
0.02287282011979122
0.04131827690047128
-0.005072046109644041
0.019532360071084488
-0.03311357587864349
-0.03871166535301433
-0.005429354660704315
0.015192779349111316
0.03350834470726616
0.017697384825919232
-0.03097638569818917
0.052346098055601614
0.031372735795989565
-0.0007244722603051909
-0.09482990056793043
0.01811097802867194
-0.0007026280177274274
-0.011014462227541034
-0.05087639967240358
0.06316497019845677
-0.032864501413681746
-0.03586457252563852
-0.010385956195216532
0.048750152532157726
0.005219405694179419
-0.022391853167165104
-0.012902545133926378
-0.00400243225280854
-0.03853831824514843
0.07228380428503599
0.06555014251013018
0.03738732164303017
0.0023876990568006858
0.020988851639706742
0.03748980594247952
0.05165617661181339
-0.031058112420592365
0.04053166463317867
0.0072030261149315725
-0.010707926302294522
-0.0046189176788861
0.037569129084843084
0.0721231968974875
0.03070201601294245
0.019623885466257755
0.11521742177574765
-0.021326984235267972
-0.05686638586589182
-0.012709789686225381
-0.010991680732190853
-0.007043986371336032
0.031035750957372658
0.01523912666810226
-0.03283469652645314
0.03933682198985315
0.011195946781555242
-0.03252767217161664
-0.07264489517666539
-0.052537780864165044
0.011775323253321552
0.0018216272819602244
-0.03949970621456459
-0.032945650278443823
-0.03585730316324526
0.01159860438854186
-0.015136530337444592
-0.02494470795470322
-0.03807513686156338
-0.054096990294573856
-0.016403837927535542
-0.05777463684964963
-0.02468035587233539
0.033059571291853086
-0.02017326975159773
0.0004040347036076766
-0.0029530670986384275
-0.07074788745314495
POINT_DATA 5568
SCALARS single_curvature float 1
LOOKUP_TABLE default
0.07718513907595043
0.10881540737093245
0.10804515431879406
0.13977108656906304
0.16747955878007598
0.1854381043543198
0.19420970669788834
0.19107745337646495
0.1779207248794018
0.1594778083764849
0.13689399665714508
0.1135919360211503
0.08961242614876504
0.06422095673090984
0.04590864413835823
0.0389347178519274
0.04561131526653397
0.06495744857253465
0.08819634197154289
0.11087777936333605
0.13154224895550243
0.14990903974051992
0.16465279753980372
0.17494232902004248
0.18013995705236033
0.17427147373311747
0.15354816790346243
0.12557100388567713
0.09419755036872259
0.07600580841970327
0.08634530528156292
0.10332671030152873
0.1280348446580867
0.15980686819682882
0.19610596330104083
0.23558810320599874
0.25606685163371784
0.23357405019237473
0.1875175345301566
0.1921985507356099
0.23662991601754935
0.539999324392617
0.7639549083983805
0.7576839388921006
0.7261794014208282
0.511248763388881
0.17122411540496107
0.14521423962153318
0.15717790821887492
0.18330238314409222
0.21159902150730928
0.23328762369695008
0.23230635892967424
0.23563018027453275
0.21373327786602905
0.17864171019525635
0.15265051918354947
0.10794029253562615
0.10644044712198968
0.11977201049531698
0.09831370630799315
0.07685540212066931
0.05539709793334548
0.03393879374602164
0.04102749256355013
0.07546661373549435
0.10977962794525442
0.1447138824706716
0.16883527323529562
0.18319439483441965
0.18898778218589687
0.18403110646107648
0.17025810545216158
0.15281775359846705
0.13326677118041352
0.11382543919515092
0.09292928223782279
0.07060657627612137
0.05174046379348246
0.041422829817463445
0.04320892506316338
0.0571135868263637
0.07898675932892962
0.10311264096210507
0.12554153950115998
0.1435225653945406
0.15662447815762154
0.1649031943611914
0.16891232542307624
0.16745406458279366
0.1588029323235861
0.14301709230302342
0.11736961864425287
0.08830592233517377
0.08011352522744583
0.08065471904827641
0.10246367114149059
0.13523430939549136
0.18619043274988678
0.22853608590826097
0.2504665137975042
0.2540859948565515
0.2026651840900804
0.2219663210392054
0.2699204510922518
0.391546194921057
0.8632478711714859
0.8647759187201021
0.8456342316169778
0.8000615971428735
0.2164491907921915
0.15997609146511874
0.16566807303042996
0.18604259600191822
0.215897132830268
0.24651452049035347
0.257327104281219
0.23811839162610798
0.206675072592086
0.16000895131989695
0.12016995349796981
0.09826911963934189
0.09802011296427049
0.11196634386141288
0.09351644344247736
0.07506654302354185
0.05661664260460633
0.038166742185670816
0.042472645836901655
0.07704945639801844
0.10989014920649416
0.14497896655782722
0.16890082386818592
0.1830597000038038
0.18868817738140714
0.18363812546376043
0.1698393853665521
0.15246000746661575
0.13307586754262077
0.11383755300353726
0.09309882738149249
0.07092742641510562
0.052072441808344284
0.041605187749663756
0.043151947022526664
0.056786934381608964
0.0785532420485667
0.10273636443205633
0.12525386326572335
0.1432295695410861
0.15625219743106092
0.1644230139473791
0.16835069453152665
0.1670795239991109
0.15907856719663413
0.14416325047053222
0.11901544354499155
0.09022032302550227
0.08106626928189475
0.08060177966160982
0.10208620418195019
0.13412189858946774
0.18574692128026443
0.22812516710781008
0.25002032497091137
0.2550692591557524
0.2034476808078046
0.22596629518741654
0.27317474963645033
0.3869781638961782
0.8704112347435452
0.8714906356293048
0.8534901946044435
0.8127848314726049
0.21868660966741038
0.16070234244645334
0.16602671940609992
0.18609425572890315
0.2160075891956391
0.24707111895466857
0.2584693002153954
0.23856069089244622
0.2077510628323904
0.16057752050810958
0.12009987276999957
0.09894987137779669
0.09764949237126927
0.11159753422571726
0.0932876464400524
0.07497775865438754
0.05666787086872267
0.03835798308305781
0.055505072025987395
0.09106455838487064
0.11075343656310102
0.14689651094222955
0.16935633023521787
0.1820467506435343
0.1864683477209517
0.1807591679034524
0.1667961329496771
0.14987698775231745
0.13170896275310362
0.11392374779698233
0.09429801618227879
0.07318378656804754
0.05449265435270308
0.043027287427825495
0.042906933628912236
0.05465347759452561
0.07558409791507799
0.1001233777965829
0.12326464753579267
0.1412394057300497
0.15371159207412843
0.16110685720440818
0.16440978631422856
0.16436120076590507
0.1610293548892497
0.1526750090465916
0.13145633989809904
0.10581120667738377
0.08988993958899265
0.08219648083619775
0.10103617076389615
0.12678016315673413
0.18284337468198802
0.22509537927340623
0.24647884821932256
0.2616091054005109
0.2082046626095671
0.2670939465960892
0.30444903933167355
0.3731181229371927
0.917731941016087
0.9143697042649345
0.9042646648270712
0.8867244722727384
0.23478014335491204
0.16575178089359055
0.16833805514479744
0.1862032452151224
0.21648492740329428
0.25066905080273477
0.26613316876506626
0.24279414765161753
0.21865032901384193
0.168137362135243
0.1233704548830411
0.10606508200504687
0.09517885668477431
0.10906908788000781
0.0917171460202979
0.07436520416058799
0.05701326230087808
0.03966132044116817
0.08421135151042372
0.11544244349065434
0.10784931766248486
0.13908590040190985
0.16726920479983984
0.18570514615376588
0.19487368787092657
0.1920043823724586
0.1789534944514623
0.16039387734163613
0.1374042265080083
0.11355853424411645
0.08913158985530038
0.06327625877923104
0.0451831858856827
0.038760683146361385
0.04618366648844802
0.06634904414862619
0.08965585501456001
0.11207761788847563
0.13247931613387345
0.15094943200856614
0.16594798560673177
0.17651104113367488
0.18180744320211994
0.1751751412818417
0.15283869441885564
0.12420200429172577
0.0927212376563188
0.07773451214779258
0.09062088934862317
0.10905651149938723
0.13359956852804214
0.16364159717327129
0.19765224048795077
0.23642475265790838
0.25632755166419563
0.23085626244857974
0.1886210922257973
0.1932466065035734
0.23576908319125356
0.5599712425846446
0.7561254029910369
0.7472594746333419
0.7155310807288771
0.4726874983166805
0.16420788909366552
0.14299730843234973
0.15573042839153242
0.18264205398583194
0.2106374368188688
0.23100588193984917
0.22829130779910983
0.23562550441801125
0.21812825927352522
0.18493871325185965
0.1611185725112513
0.11253946750034338
0.10786338676785509
0.12100343222354032
0.09905965564313908
0.07711587906273784
0.0551721024823366
0.03322832590193536
0.08072113164084072
0.11214918264418114
0.10794455507876576
0.13942362009424322
0.16737363688213847
0.18557497101402126
0.1945483909060735
0.1915492492067984
0.17844557784407764
0.15994274235164918
0.1371525975935762
0.1135750270952722
0.08936914916305612
0.06374361931742473
0.04553754176658609
0.038840424708580186
0.045893317219635396
0.0656528743859585
0.08893048617317457
0.11148214064256755
0.1320139577667974
0.150431445881323
0.165303514545845
0.1757320763209945
0.18098230794975256
0.1747315025263883
0.15318629778276135
0.1248326034529858
0.0933830377934768
0.0767894814150679
0.0884252676786358
0.1061818138100216
0.13082278227001923
0.16174409520455796
0.19688778722902828
0.2360184157692451
0.25621779276429285
0.23217051318876344
0.1878140724135501
0.19248759588105074
0.23597044536382253
0.550334443181681
0.7599182177036999
0.7523463635211123
0.7207006680455107
0.4914607912910983
0.16768965931351748
0.14409468257342217
0.1564519445126718
0.1829763487707336
0.21112329682129904
0.2321446211994785
0.23028622080428496
0.23563734758935895
0.21590204280482025
0.18176688493069187
0.1568705599428864
0.11019698435929869
0.10715339091076888
0.12039162042668634
0.09868948350890978
0.07698734659113322
0.055285209673356664
0.033583072755580104
0.10366418106799624
0.13384061611282091
0.10738462725409308
0.13729046487275798
0.16668837310878443
0.1863482898475337
0.19653638916076485
0.19436367592045706
0.18161331734364275
0.16277690558277103
0.1387451882247537
0.11346988489165759
0.08785199249567777
0.060738868094722065
0.04341192102821513
0.03854425419154755
0.048008746264103
0.07039650615929961
0.09371540156173817
0.11538279279548043
0.1350720106292953
0.1538799232860684
0.16958121791333255
0.18084562704273538
0.18629651682056877
0.17746688019005907
0.15109760874391556
0.12232409028497204
0.09131954077309423
0.08558111996004573
0.10487297023709011
0.1256602322526856
0.14922644472281107
0.17385287660613613
0.2017312992897602
0.23835231097638085
0.25625440285901396
0.22522215782184518
0.20362799758380656
0.2070663399564937
0.24407705891480916
0.6033455471516479
0.7354479282697042
0.7193911643115944
0.6877687007333313
0.3815311657712252
0.14515374967460948
0.13702301397472316
0.15163807897277817
0.18057456321026555
0.20765551038964142
0.22448814215900462
0.21718519711719253
0.23490625550697472
0.23124363748308258
0.20333169817514385
0.18540298388463008
0.1271333977421895
0.11193483698274548
0.12442031818455089
0.10111003089073592
0.07779974359692095
0.054489456303105976
0.031179169009291005
0.04102954769392301
0.07546889323638024
0.10977980551405218
0.1447143122225297
0.16883538003711818
0.18319417755798437
0.18898729795259667
0.18403047042439416
0.17025742708885844
0.15281717354320581
0.13326646133049672
0.11382545887111499
0.09292955783146223
0.07060709820498517
0.051741001175030006
0.04142312230133431
0.043208827750893776
0.05711305058559876
0.07898605185589427
0.10311202788824396
0.12554107053775623
0.14352208671314978
0.15662387028486588
0.164902411463392
0.1689114115781675
0.16745345775851972
0.1588033802327471
0.14301894214471825
0.11737226789184188
0.0883089537135306
0.08011499293231279
0.0806545572492028
0.10246299302559672
0.13523248694607964
0.1861897054423127
0.22853542153010853
0.25046579994036383
0.25408760384745943
0.2026664785774448
0.22197249707579686
0.2699255300060947
0.39153827431705385
0.8632595009467413
0.8647868815712088
0.8456470346901136
0.8000826774184832
0.2164528250819887
0.1599772744012967
0.16566866228115687
0.18604268717111497
0.2158973210020748
0.2465154347998887
0.25732897241635
0.23811907776976907
0.20667671446496855
0.1600097613018334
0.12016971909368512
0.09827014832282994
0.09801950612731863
0.11196574207348853
0.09351607020575921
0.07506639833802989
0.05661672647030057
0.03816705460257125
0.07831078490740952
0.1098763792105666
0.10801266806750734
0.13965987932752177
0.16744582475826006
0.18548222994200342
0.19431854078102984
0.19122883608761335
0.17808895046746448
0.15962669292335863
0.13697672810944492
0.11358653091736398
0.08953469294351903
0.06406857550320433
0.04578916598561049
0.038903204594634984
0.04569974494495306
0.06517774161990837
0.0884299757314276
0.11107029897717212
0.13169244623619733
0.15007508634013186
0.16485971052951384
0.17519380655888026
0.1804088197999534
0.17441908878161702
0.1534319352171377
0.12532496595490486
0.09392222248459156
0.0762355578526248
0.08699086891357612
0.10422862085407888
0.12891906927562585
0.1604250489365371
0.1963555808009998
0.23572712529383646
0.2561192821654854
0.23311995417026732
0.18755817996775898
0.19224067925692337
0.23637324296347142
0.5433512764805657
0.7626436960223831
0.7559601648105392
0.7244036205296104
0.5048658405433262
0.1700983460507942
0.14485698759181023
0.15694737786701127
0.18320000690672417
0.21144941363798153
0.2329249523505456
0.23166340654795478
0.23563405975487486
0.2144127568265232
0.17962544464997865
0.15398325686770334
0.1086449746014161
0.10666671249316201
0.11996923820125935
0.09843341508426759
0.07689759196727583
0.05536176885028407
0.03382594573329231
0.15418913462061926
0.18189191571031227
0.10658384926680256
0.13318258211833314
0.16517834476591928
0.18748190056310005
0.19987912302295877
0.19931842511651415
0.18737691332252
0.1680818776402816
0.14180728704792092
0.11326011864798714
0.0848544415406609
0.05489955357696016
0.04036828966864861
0.03971028328527111
0.05434497561008299
0.08198033857908801
0.10443155104240359
0.12393335788126929
0.14183765521779618
0.16181738849999697
0.1793284292959884
0.19205026770408648
0.19712036528464524
0.18212062691314745
0.14867880667435393
0.1259104967063146
0.09877602183475542
0.11663024540732361
0.14724640986867968
0.1671875901242914
0.18706381403906758
0.19576140175126422
0.21003468835299913
0.24059911125608735
0.2513112674474294
0.22443546842739215
0.31850934929748204
0.3144101027576365
0.3387178510134622
0.658725049011843
0.6565059870096319
0.6310272545090606
0.600793969386239
0.24219128060697948
0.11645921456853589
0.12275004698627058
0.14085104972864718
0.17400659470753765
0.19817592821998406
0.20664462287469396
0.18909770895028596
0.22438539317482384
0.26231385577745303
0.2478621782670301
0.2439860268965448
0.1717662761369628
0.12338893182797621
0.13338583441024426
0.1063372950635981
0.07928875571695193
0.052240216370305764
0.025191677023659598
0.08707782339088954
0.11814903305168092
0.10777398584288866
0.13881228759931372
0.16718350687069472
0.1858085207612108
0.19513438698982338
0.19237058260180223
0.1793633338300033
0.16075878265590343
0.13760827055185246
0.11354513009664186
0.08893835114355426
0.06289519475777154
0.04490081104213227
0.038704864633613084
0.04643086534092057
0.06692790912250025
0.09025219962846574
0.11256598881667418
0.13286139263876343
0.15137661374753014
0.1664789412985204
0.17715045006180402
0.18248052834036416
0.1755318988352329
0.15256063528227531
0.1237554676073396
0.0922794215896256
0.07862973436769331
0.09252117205793656
0.11145185807102719
0.13589325619520398
0.1651875799354434
0.1982739063267922
0.23674478237015756
0.25638899096603024
0.22983621857946362
0.1896945161904196
0.1942452496654731
0.23596601011766638
0.567461616572344
0.7531000373636278
0.7431679881913191
0.7114053729188283
0.4578324768368585
0.16135578510215115
0.14210176571554206
0.15513446590958907
0.1823585887898935
0.21022665091517068
0.23006313072917672
0.22665264650761074
0.23559644837293078
0.22000502087243556
0.18759291445803652
0.16465288945930157
0.1145386600619487
0.10845117639274846
0.12150612727372777
0.09936314015597075
0.07722015303821374
0.05507716592045672
0.03293417880269971
0.11185624067242443
0.1416079918940498
0.10721868086962438
0.13657422661672786
0.166444008258402
0.18658094427360047
0.19716705421309222
0.19527449703699923
0.18265324938042993
0.16371872734174592
0.13928080396485115
0.11343405355210348
0.0873347433299105
0.05970536963677174
0.042762558572950485
0.03856130428718959
0.04887600930787844
0.07217885810417356
0.0954347197104899
0.11677013432817665
0.13616472133885407
0.15513588184623753
0.17113219749496092
0.18266812031901192
0.1881328253169329
0.1783444741617364
0.1504790201733981
0.1222357766633954
0.09167867605858658
0.08988441452695993
0.1115625334384528
0.13273501413763228
0.15574881654662903
0.17791393652815884
0.2033298728011632
0.23899063054408842
0.25589370398138317
0.22386468580433766
0.21534346210555574
0.21784460674317604
0.2525705470774824
0.6167077621703173
0.7257014339244215
0.7067239034831181
0.6752579942405861
0.34957018110050725
0.13755938904723497
0.13458179531030667
0.14989009858000213
0.17961286170235363
0.20627350342045458
0.2216691908831638
0.2125330383901627
0.23413185412314036
0.23677487426259167
0.2110784990854704
0.19556355374116555
0.13384001286453928
0.11370675948122187
0.12586387180019815
0.10196710580338163
0.07807033980656511
0.05417357380974859
0.03027680781293207
0.052115266841073864
0.08527511461893511
0.10890191964472228
0.14242138732105478
0.1682396071702821
0.1843008676671566
0.19149934349242023
0.18737075358758354
0.17385134307847544
0.15591284272552888
0.13493487597165493
0.11371885035901214
0.09142631398812247
0.06774005118185071
0.048929886677809835
0.04002916366167272
0.04397961370136114
0.06030814869998189
0.08298331314019416
0.10653013271848324
0.1281679599843855
0.1462554878403139
0.1600784456117472
0.16929314205405518
0.17394192328709285
0.17066569001041423
0.15637474021066178
0.13371160084143238
0.10442264909778166
0.07677715323711476
0.07710137789715592
0.08611167859117795
0.11011345996703717
0.14580167110219072
0.19043852771560085
0.23197905576864863
0.25377771023763157
0.24489068789275212
0.19468208340884294
0.20040236458228664
0.24989787498638605
0.4530400826273971
0.806099310962571
0.8075482091529524
0.780046596406508
0.6714899625832594
0.1965114613424196
0.15341165949800262
0.16215853090754515
0.18520222636932795
0.2144535076908627
0.2410685558396106
0.24659886428344682
0.23585549340104603
0.20344613946792875
0.16165420590487936
0.12779836616443666
0.09709629242776366
0.1015498359207501
0.11536089845897274
0.09561516704603579
0.07586943563309884
0.056123704220161885
0.036377972807224934
0.08272102927197134
0.11403590974408565
0.10788950295729763
0.13922948267481966
0.16731378452606016
0.18565014817517958
0.19473585906427315
0.19181130011931868
0.17873782513957184
0.16020217187565677
0.13729721417395924
0.11356555322039083
0.08923271958090342
0.06347536506095251
0.04533306473123322
0.03879313407022786
0.046058245235265895
0.06605060677654548
0.08934602761128146
0.11182346844857567
0.13228063160521267
0.1507279646438409
0.16567252767002363
0.17617848424913987
0.18145586772509467
0.1749869610631871
0.15298592944228723
0.12445945942438093
0.09298688554964747
0.0773109077564977
0.08966684642755343
0.10782286457890668
0.13241136712277524
0.16283328499667205
0.19732677245548247
0.23625348451683598
0.25628541164959484
0.23140820896525785
0.18821105946498218
0.19286256242353222
0.23579757881307664
0.5559254574339135
0.7577266242697646
0.7494140654560455
0.7177148993472029
0.4806113728845747
0.16569357703886456
0.14346495281031954
0.15603909101959101
0.1827862813636145
0.21084684684841212
0.23149337563250563
0.2291432096835704
0.2356333570741682
0.21716871655797093
0.183575235350588
0.1592961482546991
0.1115262214762448
0.10755945386616063
0.1207421561648844
0.09890168048717099
0.07706120480945758
0.05522072913174417
0.033380253454030756
0.05161255103264396
0.08688534231652666
0.11048838366289479
0.14633515344024264
0.16922625717408787