# vtk DataFile Version 3.0
vtk output
ASCII
DATASET POLYDATA
POINTS 5568 float
7.37512494217345 0.24695940463655164 -19.639955744734852
7.535302844812954 0.20643055279886746 -18.76713578412571
7.631675118693993 0.16784054784266006 -18.119609805181575
7.711265610172627 0.11886753430574426 -17.502281041500538
7.7570251238934995 0.06983900049461109 -16.910454015061
7.758377132359304 0.028234563003688838 -16.32741716156532
7.704193724254273 0.0025532342685881844 -15.743251236464108
7.58273598243367 0.0002231991987338153 -15.149429570253384
7.387018351553431 0.018735142008029296 -14.562399691285128
7.113761930718918 0.05318340474916763 -13.993479455922252
6.761396268113986 0.1027773398439471 -13.45052949734213
6.332648193702434 0.16611807011037233 -12.938594020030992
5.828569609849799 0.24562492496764637 -12.458227665601871
5.247397898375292 0.3460165430503637 -12.01302976636354
4.598242051833035 0.46601671971036374 -11.608940302403262
3.8939268879896316 0.6001098405392217 -11.24559567377993
3.1540301484839572 0.7373836813978982 -10.912805572680998
2.4002538628870904 0.864929464208682 -10.597262892346977
1.6499610216527762 0.9714978786033257 -10.285213438334981
0.9176263009070945 1.051125880485891 -9.962223053470888
0.21475340437781043 1.1026320452714127 -9.613790987024391
-0.44614366820671547 1.127639428782525 -9.22796275853457
-1.052356605115067 1.1290869439395863 -8.798578286187064
-1.595271219485074 1.1089005331375772 -8.324005536189462
-2.069186928116544 1.0682079950970438 -7.80642315270365
-2.471781308539039 1.0068959906543082 -7.248103703127472
-2.802933994096925 0.9246256656510236 -6.647095669473258
-3.0603931289704955 0.8211890975751641 -5.998881913725018
-3.23808319089074 0.6928379552911601 -5.302105169794431
-3.341114213225209 0.5647612394895068 -4.572795275852327
-3.374006407274052 0.4310514690558117 -3.828699419494505
-3.3500704627133384 0.28949314145814764 -3.080714111569729
-3.284909100671542 0.14750807233786742 -2.31883589247778
-3.185529856238293 -0.002317632018189242 -1.530554363698461
-3.071335520608167 -0.10092822302378932 -0.7597449407413341
-2.9665581247329627 -0.14065315682834037 -0.042715095074850384
-2.876899854011228 -0.10636270222368346 0.6335497287836913
-2.8151085848378243 -0.006742591955915964 1.2751827112295522
-2.79250573380804 0.2345407579067681 1.879951488464336
-2.799803579964446 0.587352725880978 2.422570315224653
-2.835328344986233 1.0547382960286613 2.9213922289257197
-2.9283549071387776 1.5626557501694018 3.391861402373126
-3.0513338176970994 2.0391457098524706 3.8306781163049632
-3.205428177791813 2.392170955696759 4.310027041009856
-3.3623080743700395 2.6072911325555346 4.745793270221853
-3.3943740471965222 2.6027013185980272 5.066267705421568
-3.443417228381928 2.2333218409497158 5.316898114348849
-3.485551997183928 1.5221291995054729 5.514711479846263
-3.4688445323247414 0.7454087149641674 5.651507508132334
-3.357541706740801 -0.06975253179219898 5.743283569202605
-3.1512203000163734 -0.8675615340884457 5.811312485864696
-2.8471094815595097 -1.6145808539119373 5.880263470697052
-2.441547629251974 -2.2791977855136936 5.978019990622054
-1.9471511457229882 -2.8215727129585817 6.135268143583286
-1.3842680011422286 -3.2393939780636356 6.361203284345745
-0.7746046499764668 -3.5265389519735866 6.6607872299783955
-0.11847015845465769 -3.7065319337890257 7.034749274801928
0.5149283467471693 -3.7510547465118185 7.488398477998002
1.2879988766996404 -3.685208030636483 7.952038648025746
2.160121494323057 -3.525548996291297 8.420266309910962
3.308609525750799 -3.1990534092886103 8.923734413781043
4.711235226977982 -2.623764014951392 9.346524772093279
5.8918130821483645 -1.9571293368236369 9.516004767327654
6.871238220742286 -1.2437498076550473 9.50312534989894
7.415307783039373 0.20344053716868674 -19.768569599093794
7.587011083019899 0.1590108373994405 -18.86215899411529
7.685915540407857 0.12184221602202339 -18.208677151406693
7.765588390727077 0.07559426235392497 -17.57872296927751
7.809465209595031 0.029942961908608026 -16.970974328805994
7.806660434714469 -0.007670918627046101 -16.372806445204443
7.746862725407206 -0.030054377981716864 -15.77603068031054
7.6166483566623135 -0.03141616798517106 -15.1728010054631
7.409592485471318 -0.013431707263395199 -14.580141994789784
7.1243696677268105 0.020811204910592716 -14.00953869620383
6.761192372766495 0.07158034252890913 -13.468058636414185
6.323978672861427 0.13804935915590866 -12.95951755302249
5.8153110899593 0.2222595211893218 -12.48360770227436
5.23452637670103 0.32791837222953796 -12.041838469867665
4.589806615374821 0.4534659441365807 -11.637594246308007
3.891223219571863 0.5935818325244913 -11.269441800165572
3.1561791629964384 0.7377724729986485 -10.928150975384506
2.406209006920827 0.8730084654061376 -10.601698039415021
1.6587087656107258 0.9877130843127185 -10.277201438004589
0.9286372309221478 1.0754147206112266 -9.941021291248953
0.228219610797865 1.134397712715437 -9.579701813156355
-0.4302458955476809 1.165725945850952 -9.182445909173296
-1.0345356637298082 1.1719978617553322 -8.744023861504635
-1.5762242742879111 1.1544755811707654 -8.263019841011843
-2.049505826609257 1.1136510440656058 -7.742005279281005
-2.4515660273568263 1.0492443637547169 -7.184159194203108
-2.78218645487524 0.9613005380634924 -6.58800518609849
-3.0391281494065803 0.8495781283018408 -5.949791400777385
-3.217200911940375 0.710924916395733 -5.267884492736567
-3.3199474985593946 0.5640853891424868 -4.554992772778519
-3.3569595851501512 0.40906017409652234 -3.822678413696434
-3.341575401314515 0.2485304447184771 -3.081106013689694
-3.28891793383892 0.09195517355847471 -2.3210139206819544
-3.2062480902815156 -0.060728974358248394 -1.5378059933435047
-3.108848021877216 -0.1528197059457561 -0.7783589769600364
-3.015038155413732 -0.18443006867839923 -0.07359097795458192
-2.930722626667288 -0.1461165435622126 0.5918699279714729
-2.868902334563937 -0.04030355920825236 1.2215986769953644
-2.840070156020939 0.19311222936348116 1.816773955023761
-2.838560996823783 0.5326601976258492 2.3536188723320177
-2.864426092999113 0.9840176937673832 2.8511697041041977
-2.9478353341869616 1.4915391247649528 3.3342338896070123
-3.0639322810898975 1.9674257280923446 3.7923256628427677
-3.2158162512408888 2.316023693949425 4.261470004096464
-3.3713884165145154 2.527843185990296 4.669425431377963
-3.4177114251881813 2.5475534948420187 5.010251023844686
-3.4676148904260464 2.222453841727122 5.255444248475438
-3.501306879063343 1.5474880239300703 5.461149165395189
-3.476539335686244 0.7996380464400794 5.612386308696364
-3.3562491973886193 -0.004368837849604401 5.719394022370874
-3.140751052169737 -0.7985590536845991 5.800662821613332
-2.829117902946812 -1.542861558489161 5.882847783716216
-2.418020551813599 -2.2085334215507695 5.991812545661148
-1.9181266241310373 -2.757383896111036 6.156120073755967
-1.3482405619587956 -3.1836274452756124 6.385413409048271
-0.7296955592153784 -3.4790014026845424 6.685082387767206
-0.0646570149664425 -3.6638485611410028 7.053908607822937
0.5810811565827815 -3.7177827465861957 7.484942672182889
1.3547099616178135 -3.6638707133556694 7.93381442388007
2.220638760624224 -3.5141385905599205 8.385285925456609
3.3428694423621295 -3.2041339412105216 8.863238748850659
4.739429049294063 -2.6428933685089575 9.273571604812087
5.935722120118275 -1.9787905049925405 9.438771389757981
6.9215641167870885 -1.2735727150868366 9.428129236105873
7.4034467019261205 0.21628633915455373 -19.730605649159802
7.571713683786001 0.17302070911262937 -18.8341797512097
7.6698685387064875 0.1354310205610749 -18.18245968430546
7.749518159411598 0.08837241450261261 -17.556248088257153
7.793956852274163 0.04171404440394122 -16.953226348675834
7.792389900782348 0.0029110241318979213 -16.359552341393
7.7342613119235235 -0.020453736573635938 -15.766518609630326
7.606647568036075 -0.02210315389543827 -15.166080988807119
7.402957643425926 -0.003962393613702694 -14.57509826547826
7.121285904434819 0.030340677030592345 -14.005004997858551
6.761315817905485 0.08076096054003942 -13.463101304350126
6.326612924120802 0.14630386514365068 -12.953565718083533
5.819307127188968 0.22912405404803388 -12.476346121403953
5.238412227145473 0.33322863504424316 -12.033568626593262
4.592389082169686 0.45713994854087714 -11.629372784657093
3.8921250100646354 0.5954774925674611 -11.262643562488625
3.1556645867131383 0.7376230388354847 -10.923869767797571
2.4045912563608716 0.8705833615162812 -10.600649180785702
1.6562899399690105 0.9828792092500216 -10.27984249575866
0.9255746100527376 1.0681903634727092 -9.947574362505673
0.22445462538916527 1.1249603541361404 -9.59007810238382
-0.4347121739732501 1.1544186163009431 -9.196212158686281
-1.0395606701614837 1.1592638835297984 -8.760469678641456
-1.5816080804555317 1.1409540842120491 -8.28137028420307
-2.055076473158248 1.1001685985902794 -7.761370497128603
-2.45729345671948 1.0366753419353838 -7.203385910589948
-2.7880681748133167 0.9504036371919045 -6.605806410885743
-3.045158126455347 0.8411187252931842 -5.964662475578709
-3.223114841385387 0.7054913562410354 -5.278406702457995
-3.3259373394802685 0.5641676349908226 -4.560750205025745
-3.361733966186416 0.41542739180885097 -3.8250418215020296
-3.343830183948159 0.26050342257123626 -3.0816408643778237
-3.2874852763739244 0.10824481149802398 -2.3210702281714557
-3.199900346669148 -0.04359172681960069 -1.5364007777850452
-3.0975775490728044 -0.13759215935662755 -0.7736410771762605
-3.0005533683259045 -0.17158101695709804 -0.0652843958535001
-2.9146694313061765 -0.1344479096247091 0.6033509599594152
-2.85285778184278 -0.03045248607213577 1.2365718164972277
-2.825852735621323 0.20527144549169213 1.8345621572676152
-2.8269259921468204 0.5487027369690374 2.373090699505056
-2.855623501035046 1.004748133816823 2.870999891261499
-2.9418784228472683 1.512368005334502 3.350315305079042
-3.0600127169421087 1.9884084983158337 3.8026592692659564
-3.2125473069507824 2.3383102926562653 4.274803759116203
[...]
CELL_DATA 87
SCALARS quad_param_group int 1
LOOKUP_TABLE default
3
1
3
1
2
3
1
1
1
2
2
1
2
2
2
0
0
3
1
3
3
2
3
2
2
1
0
3
3
1
2
3
3
3
3
2
2
2
0
0
0
1
1
1
3
0
0
3
3
3
3
1
3
3
3
0
0
2
1
1
0
2
2
0
3
3
2
1
0
0
3
1
2
2
1
1
2
1
0
0
0
0
0
0
2
3
3
SCALARS single_component_feature float 1
LOOKUP_TABLE default
-0.019153296971586846
-0.010607843223855346
-0.013130271152472797
-0.016914850067305268
-0.0071714234475964605
0.013293069703033816
0.014336732711526353
-0.017572925952347385
0.006033311968022814
-0.017947677761175736
-0.06546928918689894
0.028627643638301576
0.02176512483173318
-0.014819667121516113
-0.0065910698388081685
-0.020228361921204807
0.06443010322141923
0.027123061595971824
0.00793016661028155
-0.0235797050121754
0.0005932042715943511
-0.03034607776424581
-0.022080246585385124
0.04439675325155186
-0.05649433958384574
-0.004605952376746325
-0.03891690213434086
-0.014032735745039207
-0.02091602841953631
0.04362621843395169
-0.02178531969546785
0.009261553360366187
0.040854952362383
-0.051236224891049245
-0.047059676108382804
0.0264255339940285
0.021957310570847217
0.0545123423761975
0.06917134026533832
0.08291486858262964
0.007644206988034821
-0.0015835116423796505
0.01878701060531815
-0.0202418133216706
-0.03387481200178581
0.027509507977887628
-0.014315166037550744
0.03005883346406736
0.016792386644150233
0.006400311071968284
0.019091990593845767
0.03922958963675653
-0.03784881384739525
0.024810340952557804
-0.00840813356697606
-0.0752334242302348
0.03420067103821159
-0.020760192012157296
-0.009037133252694986
-0.025284422277627477
0.06491887065822308
-0.006432304866913927
-0.02503390720384964
0.022189395781217917
-0.005768118767384908
0.013754502677740435
-0.009760951245752228
-0.05718051403713591
0.0407770769808189
-0.005165315526183805
-0.005739330218618527
0.02584401364695081
-0.08096325486303732
-0.04737231568705961
0.01628332792670228
-0.021421381706176752
0.03350625954098648
0.01886963701753778
0.04404079155172206
-0.03265494149005604
-0.03637531439109874
0.04235759420013335
-0.024425249076650925
0.10273022219837845
-0.052026513674587854
-0.025672024861093733
-0.0038110881353331932
POINT_DATA 5568
SCALARS single_curvature float 1
LOOKUP_TABLE default
0.05272479920143967
0.08541940144955452
0.10820531791120955
0.14238857601194976
0.168470437140541
0.18463199991706425
0.19111578571980797
0.18888826619322305
0.17866870003198085
0.16451603006552543
0.14665193133218732
0.12701597127783368
0.10440412082164689
0.07834998250828544
0.055895508191455584
0.04381953943031366
0.046315462114622015
0.0629199055652921
0.08745752110592463
0.11313958396146138
0.13644568605417842
0.15489954895139818
0.1671718430942194
0.1732999517406214
0.17426290986615414
0.16548349300400958
0.1519163674467425
0.13271497900662652
0.10677189066615939
0.08358395690082164
0.07374529224684313
0.07564333724217702
0.10000293618924337
0.1315217990303274
0.19734479128381008
0.24635487425071445
0.26602657218735776
0.2604877818429963
0.19705858679093027
0.20453472255743693
0.24527789736675482
0.670408180698001
0.8060481650723295
0.7990326025273125
0.7730135003537119
0.4350299358779931
0.17470647278899376
0.15107922894186238
0.1677980394324032
0.2011214419866031
0.23579848798003072
0.2638267512448674
0.2633279943115129
0.25680881308528186
0.2226192242696128
0.17503382552791996
0.14066616043473304
0.09815425709843309
0.10179833864865384
0.12042435906351139
0.10238710500171758
0.08434985093992377
0.06631259687812996
0.04827534281633615
0.054735329264728246
0.087493185594095
0.10823976338338683
0.14208117000272147
0.1682371116038827
0.18456070400697647
0.19156284612180893
0.18862115673683066
0.17694173874521502
0.16102528071193065
0.14160986513824952
0.12106784679433513
0.09842944848723532
0.0732348990644155
0.05241303168862453
0.04195756080115852
0.04541539779251487
0.06223696957338456
0.08602238319647337
0.11062108984440051
0.13301354177188093
0.15127705171654354
0.16432673949350213
0.17196357786938204
0.17468996017649557
0.1679620320540848
0.15342159311056996
0.1319040728850828
0.1038498831017656
0.07866084926061005
0.0742664602832871
0.08021366950299003
0.10479850596316187
0.13878429564706943
0.19465763520543242
0.240474568336544
0.26112699081351465
0.2525511365592894
0.19468457712238355
0.2001721272217287
0.24397368963259952
0.5774480431235716
0.7856518900101764
0.7815190876218558
0.7526292320722395
0.515695786157098
0.18116109985906503
0.1512520689346928
0.1647821043816968
0.1937615045755524
0.22583677608864897
0.25262584062259125
0.25407841041414697
0.2472216828835043
0.21435673409185702
0.17005935994234722
0.13674627115480598
0.09804120705424908
0.10209079500572338
0.11859477918022822
0.099652852211528
0.08071092524282779
0.06176899827412757
0.04282707130542736
0.0540601722695462
0.08680439513417657
0.10819306800885725
0.1421674455585355
0.16829688103219198
0.1845703448210625
0.19142269012304844
0.18869643270998987
0.177444171549772
0.16204630500948242
0.143092872691675
0.1228242325358603
0.10019687851081112
0.07474703750663254
0.05343836628707933
0.04250405638988517
0.04568008995459027
0.06243866464132642
0.08644554109612863
0.11135723348450074
0.13400925811069542
0.15232069604139825
0.16513866678073164
0.172331860169435
0.17454544175722464
0.16718857906141052
0.15295044342374117
0.13211662313746222
0.10464533770834376
0.07991363362686717
0.07387253504791191
0.07859539444268271
0.10314594727079149
0.13653514261273186
0.19541472907198684
0.24222888487727554
0.26261054345577456
0.2549441352723712
0.19534799697794275
0.2013123607576638
0.2441558796488019
0.6044519015408488
0.7895000781753383
0.7844133909494839
0.7561422069445488
0.4905834020992959
0.17917363800498448
0.15120830663461202
0.16567792775174495
0.19592041267031632
0.22874892442804223
0.2558935081754292
0.2567674591308123
0.25003777240649894
0.21676107288182792
0.17149109676003194
0.13786225561623555
0.09802338361355305
0.10198553279026186
0.11912694099206418
0.10045888584913658
0.08179083070620898
0.06312277556328137
0.04445472042035377
0.05317226057884149
0.08588817339050703
0.10817825534938953
0.14230360588949617
0.16840053314009557
0.18460233624448635
0.19122493641871527
0.18881488933617957
0.17820957716504784
0.16359306918114783
0.14532644829286226
0.12545868073089725
0.10284283182676933
0.07701239524659732
0.054980982402532325
0.04332897635257554
0.046078818854460475
0.06274113367153449
0.08708121179568211
0.11247321672330574
0.13553063897666595
0.15392704334875454
0.16640095410744962
0.17292591137389088
0.1743579424271483
0.1660940008202552
0.1522858654896167
0.13247828845268128
0.10594632085369365
0.08211609687750959
0.07366636571417218
0.07659716443311666
0.1010445956030649
0.13332633307472244
0.19660763203777556
0.2448321467476759
0.2647776212254527
0.2584550246683372
0.19639999510976952
0.20325952909033806
0.24475796452500392
0.6458355894917166
0.7988116942462307
0.7924428444569824
0.7654694710505534
0.45491566668787226
0.17632199264229415
0.15113148058448478
0.16701359370186736
0.19918107284212874
0.2331627766407761
0.26085690403586037
0.26086676253430213
0.25428729617249907
0.220426710391996
0.1737006975641413
0.13960520196060097
0.09807832779508287
0.10185738957298396
0.11993787270604866
0.10166993976058507
0.08340200681512147
0.06513407386965787
0.04686614092419428
0.055750152754709334
0.0885200669381269
0.1083428829640095
0.14196835331316543
0.1681664880777504
0.18456118391018497
0.19176329398800662
0.18852299520537236
0.17626738578436243
0.1596475265328041
0.13959752819027543
0.11867518580043189
0.09601729811405928
0.07117256906348803
0.051020263510227974
0.041217576419114214
0.04505631239475864
0.0619621311522982
0.08544674414443104
0.1096283923020127
0.13168106790984704
0.14989077926726915
0.16325950243084603
0.17149875311702445
0.17491322873899512
0.16907244445783304
0.15409998763986912
0.13165336667443683
0.10286608731111309
0.07724806087661346
0.07514916266963538
0.08279951427429796
0.10738297211878213
0.1419910518376147
0.19367615044587197
0.2380611645679048
0.2590547359268208
0.2492210370265374
0.19382145128208222
0.19884111696048334
0.24405148463012613
0.5420201319949951
0.7837718022230793
0.7810088622540766
0.7516191068371281
0.5514299946449202
0.18398500465715462
0.15130300860607374
0.1635559124901479
0.1908393628447466
0.22190779988483456
0.24822637047569795
0.2504703860951522
0.24341659753535386
0.21114660342279715
0.16817701518053374
0.1353004636380933
0.09814033404024636
0.10225989991725529
0.11788087409085779
0.09855638735639147
0.07923190062192514
0.05990741388745882
0.0405829271529925
0.06335990607050272
0.09605985147979829
0.10946972282177593
0.14135238780663142
0.1679328057213079
0.184803702599061
0.19310874750069165
0.18802198028135705
0.17250635937547718
0.15179216465985135
0.12785738865478663
0.10448929123880328
0.08160243910476789
0.058882905991253696
0.04285299967782263
0.03693503786545812
0.04296309127388992
0.06032688358728676
0.08205034877426254
0.10397987744108504
0.12435044699120576
0.14253290740943717
0.15789947381369854
0.16969561041810682
0.17695211328664145
0.17699368132155258
0.15897345745552316
0.13120308122213908
0.09975212945775679
0.07518139134622312
0.08792128215780615
0.10630118384212811
0.129623169442783
0.16451879110178966
0.18911265627117982
0.22324625384195382
0.24546071513951412
0.22762362077147813
0.1891525184847391
0.197817544460457
0.2562072584517955
0.3880504105724051
0.8472782998776961
0.850526574735443
0.8261129424179054
0.7750682448057692
0.20393497311842623
0.1514606746388787
0.15621343087310952
0.17393200282347743
0.19943773121759995
0.22328324082364123
0.2302959308933067
0.22228245619344789
0.19467598527641827
0.1596745164418751
0.12956881831361325
0.10081571812602327
0.10389031542060727
0.11391947853423849
0.09207814956214007
0.07023682059004165
0.04839549161794322
0.0265541626458448
0.06379471359410281
0.09648515457205552
0.10953612701101663
0.14132143930842134
0.16792662115142132
0.18482363770851057
0.1931812893853793
0.18799937206037046
0.17232677007923725
0.15140908701106548
0.1272723101581934
0.10377159561169376
0.08086757749650154
0.05825797781699457
0.04244355492929147
0.036722984166940024
0.04285877774965187
0.06024362411774453
0.08187906240822526
0.10370470109503685
0.1240055601471936
0.14220085021220624
0.15767457485125333
0.16965145149326577
0.1770920169154933
0.17745371932530019
0.1592567273109899
0.13123219018378876
0.09972686518203036
0.075312284019226
0.08885910503331684
0.10780100198765652
0.13100467156454695
0.16582596905410713
0.18894394371668657
0.22247711705684695
0.24470961966060287
0.2264385068098639
0.1889163218826719
0.19815722389602686
0.25756860436077333
0.3833123761615979
0.8527500810900741
0.8560936572708813
0.8322199343361137
0.7855057938616147
0.20511479784254805
0.15146479783601882
0.15584145536866065
0.17309419552088887
0.19833486197573805
0.22206917064423276
0.22932672287842742
0.22131068612023386
0.19400519116959947
0.15941245176369553
0.12945673167461225
0.10105912458401947
0.10400248795338785
0.11373192058611652
0.09175072487972796
0.06976952917333941
0.047788333466950855
0.0258071377605623
0.05303443965467913
0.08574444484998225
0.10818326415035052
0.14232821703833642
0.1684203922480871
0.18461019413261123
0.19119221486969445
0.18883619757018244
0.17834406401113267
0.16386379452683386
0.1457158006283675
0.1259165916713023
0.10330213259575369
0.0774058208021635
0.0552496889313117
0.043472997760084724
0.046148330366617786
0.06279370217810602
0.08719182078466492
0.11266864208921076
0.13579849072634642
0.1542112383706269
0.16662573708128336
0.17303415543282796
0.17432880805830794
0.16591169066982905
0.15217543679349538
0.13254617346958023
0.10618489136575128
0.08253570967451389
0.07367487019544772
0.07629988524403333
0.10072346844658614
0.13278863066091287
0.19682193360299297
0.24528114915414073
0.26514731101533584
0.25905596523652996
0.19659063708965166
0.2036252656220144
0.24489898064017648
0.6530686932646741
0.800818156450649
0.794249634759648
0.7675434550230589
0.4489740035746367
0.17584165842099286
0.15111666455591796
0.1672446714482256
0.19975062063313181
0.23393571303602115
0.2617273710230534
0.2615875055813465
0.25502818687540757
0.22106972797054608
0.1740909275943051
0.13991512781554008
0.09809740682096044
0.10183874132757
0.12008037362511455
0.10188071414653709
0.08368105466795962
0.06548139518938216
0.0472817357108047
0.06042994744656458
0.0931808479317664
0.10901463075674378
0.14156622169004646
0.16798738857440468
0.1846807164983471
0.19261056580375385
0.18818590764557905
0.17378911182829837
0.15450614758853903
0.13196761503525142
0.10950149469100359
0.08671886120420526
0.06323817181383531
0.045721888137816566
0.03842803856509899
0.043695748621507075
0.06090645536233895
0.08324764902469951
0.10592974068387831
0.12682892872960988
0.1449613822075234
0.15959781008568638
0.1701360188563639
0.17608012709060628
0.1739369730041648
0.15708985985522894
0.13114595327700332
0.10028947324750075
0.0748262409620064
0.08208268959172273
0.09657486671096215
0.12058780429935562
0.1558520743492537
0.190467087769611
0.22857119420887137
0.2505309700724247
0.2356404887442733
0.19077490656735566
0.19661395179955604
0.2490439755933961
0.42966628499227466
0.8128411408594012
0.8147710813867705
0.7872036282867894
0.697610320027494
0.19619383704293647
0.151425475083532
0.15881377716470835
0.17982797778591575
0.20722574173002975
0.23188453210732848
0.23719717016404493
0.22937920203855633
0.1998632775259749
0.1620242280968473
0.13089968927239315
0.09942381536847593
0.10318857695937243
0.11526469175307233
0.09436457246542004
0.07346445317776776
0.05256433389011547
0.03166421460246319
0.0529582622650116
0.08566477077651911
0.10818719503797454
0.14234236680222928
0.16843195588399645
0.18461498657056116
0.19117381345008688
0.18884842919474448
0.1784208324230366
0.16401819296928674
0.14593764548523225
0.1261773258679137
0.10356357827032416
0.07762979349457196
0.055402766126045576
0.04355508743442069
0.046187937031177226
0.06282363397281854
0.08725481721002205
0.11278010901383104
0.1359514564160205
0.1543737159462417
0.16675443394047215
0.17309643962509397
0.17431266494002265
0.16580892601962346
0.15211322374515956
0.13258547007923133
0.10632230802995729
0.08277919097182297
0.07368527089379924
0.07613695216641345
0.10054621040408196
0.132485104970743
0.19694487188112325
0.2455363449580327
0.26535689963089204
0.2593969347122982
0.19670029203254158
0.20383698293719152
0.24498376572086406
0.6571860115218117
0.8020071375674581
0.7953283810788825
0.76877944442849
0.4456258139652273
0.17557014033409785
0.15110802636484189
0.16737609421512192
0.20007529385425976
0.23437659276733797
0.2622240521725754
0.26199899674143806
0.2554502707513896
0.22143651556247054
0.17431381300156143
0.1400923911990474
0.09810948938624843
0.10182860148185024
0.12016171742585233
0.10200076693231552
0.08383981643877872
0.06567886594524192
0.04751791545170511
0.059802702415167455
0.09116913820973675
0.11730589716911642
0.14581564458643803
0.17212652287981955
0.18796710153319232
0.19095743042260652
0.19116851039466712
0.18910333687264108
0.18468527114579064
0.1744409613357177
0.1586984708299636
0.1357483999714331
0.105306814552608
0.07488254436288468
0.05423081614313432
0.05123958255457433
0.06653071044948561
0.09518596320025019
0.12777295155641116
0.15759758530643345
0.17827185654078834
0.18655007995633427
0.1840800274123535
0.17427325600652405
0.15782474840606037
0.1470806999980516
0.13952476346650705
0.12856961481534254
0.12324319670126713
0.09254995694157714
0.07874402266553242
0.09886914528636215
0.11051028313779909
0.2170509639032318
0.27445119271015195
0.2867258709944735
0.29642067581473164
0.21897466950869746
0.24480476086335337
0.2712605556397336
0.9477182162005547
0.9535357491695842
0.9477020034112957
0.9415305576044458
0.2027283302519879
0.15092108242300392
0.1484377625625121
0.1824082291559035
0.24292490498116637
0.2944302211489517
0.33083136257431656
0.3203965253161784
0.3063885890640779
0.2657683788564419
0.20063078205848991
0.16112516171964128
0.1046905282197107
0.10327350106794993
0.13144328217624182
0.11729461286468111
0.1031459435531204
0.08899727424155969
0.07484860492999898
0.06995853959121778
0.10246822400391356
0.11040289824302593
0.14087901273637893
0.16786299719866987
0.1851280609464353
0.19417510997139575
0.18770670830557556
0.16999347427710176
0.14635737508013585
0.11943495414191237
0.094049164522239
0.07085201551039061
0.049755399149512
0.03692396116470052
0.033889930803957115
0.041459149253945685
0.05910480404567224
0.07955861887210952
0.100072774764358
0.11958067673725867
0.13810009014165467
0.15510328364461243
0.16955905216418984
0.1794030925996364
0.18421347610420952
0.16339744044779664
0.1321883755433643
0.10061879487920013
0.07877912681388786
0.10381001287988813
0.1304043474575034
0.1516815272563601
0.1852752499744614
0.1873821314654968
0.21196213477623466
0.23390325751326613
0.20941114193600516
0.18548325201294533
0.2075125061622598
0.28654484019114335
0.3486450819020891
0.9245501988161797
0.9274056439077524
0.9116509408380267
0.9003883029513475
0.22320111170330692
0.15152284283309006
0.15083286345461447
0.1618854862667781
0.18366136158228108
0.20601478199059628
0.21662909351456025
0.20952419074230172
0.18705561333443732
0.15807231799768925
0.13026549098114212
0.1055311949100352
0.10582783366216288
0.11132245937968957
0.08730584505210695
0.06328923072452433
0.03927261639694171
0.015256002069359093
0.0669596032865498
0.09956748264866686
0.11000121660605838
0.14109685733678745
0.16789037002306179
0.1849766644587588
0.19369964413309146
0.1878439346382075
0.1710843318556707
0.14873681530258567
0.12315538189257881
0.09869036223218429
0.07564773493110608
0.053823312384177945
0.03955322834975318
0.03523347657785672
0.04212428854879005
0.05965141753673036
0.08066676671338283
0.10178466846565061
0.1216355556847907
0.13996432050087992
0.15621803379196544
0.1694819421507101
0.17819903531588388
0.18086606292983412
0.16135321862506993
0.13159723517041216
0.09991194211326829
0.07674975087946459
0.09616821696782846
0.11910846852531635
0.14136443163893242
0.17557527769156842
0.18794812550050052
0.21699597544607335
0.23920832490727137
0.21776932394212242
0.18718748106904884
0.20189413238082146
0.2700679578135816
0.35843700541291057
0.892038824106076
0.8954624556853604
0.8757698567042387
0.8523451251036613
0.2140438240940873
0.1514923941557304
0.15321498563515987
0.16720529188220312
0.1906075669663189
0.2135913798561728
0.2225935585012902
0.21480769776884623
0.18984797177254709
0.15816880924288376
0.12930739073709013
0.10311685792382898
0.1048836463168756
0.1124415313614426
0.08943072433237415
0.0664199173033057
0.043409110274237245
0.020398303245168795
0.05364434979367663
0.0863771168764656
0.10817766444604637
0.14222714916088036
0.16834098757816177
0.18458191841038044
0.19133246216366503
0.1887484670732522
0.17778414063521583
0.16273459907962934
0.1440887081203666
0.12400039775038414
0.10137892348055036
0.07575882298866228
0.05412638070900662
0.042871574579874255
0.0458578537330121
0.06257371110659335
0.08672919631940475
0.11185371658936456
0.13468435564120557
0.15303180762333682
0.16569567926667209
0.1725909834800121
0.17445748533138491
0.16669023138316985
0.15264753994839655
0.13227189788684396
0.10521073363468736
0.08085084582660916
0.07372527530576549
0.07764127515677588
0.10215316097811526
0.13507821727426977
0.1959388550798501
0.24339532824421636
0.2635865705524708
0.2565230086009026
0.1958086227336465
0.2021478553796005
0.24437888307705935
0.6228461022473639
0.7931635282664593
0.7874785248434524
0.7597343931065235
0.47435207307058713
0.1778816983975322
0.15117573418165703
0.16627550649999315
0.19737279341647468
0.23071262717765856
0.25810013025087525
0.25858773582171596
0.25193185857837697
0.21838985759571705
0.17246944455514335
0.13863126369643
0.0980361500845608
0.10192392448591318
0.11948710701745825
0.10099924712441646
0.08251138723137467
0.06402352733833289
0.0455356674452911
0.055931437681287756
0.08870266334520313
0.10836421338058658
0.14194976296981834
0.16815570233117993
0.18456270870193195