# vtk DataFile Version 3.0
vtk output
ASCII
DATASET POLYDATA
POINTS 5568 float
7.468427775043949 0.21823149469916964 -19.853795621309285
7.674124731697232 0.1935378596309182 -18.950743392243215
7.79541326015171 0.1547227751725128 -18.305844947396178
7.8881353422093206 0.10345083523551422 -17.67470375365987
7.937179649893587 0.04970303393004347 -17.056675480553462
7.931310648893718 0.0008444412641487042 -16.441654944479282
7.860134462077376 -0.03625171680128912 -15.823613348105143
7.706744167080455 -0.05568854678397511 -15.198859370416312
7.46901439204812 -0.05740319472925934 -14.591753393110816
7.1521076063075855 -0.041199574148244926 -14.016258243355534
6.760665464791664 -0.0041730584782660105 -13.477176954682857
6.30042738177858 0.05408096145622618 -12.974727453813115
5.774781146329347 0.13555857867143442 -12.506035257017299
5.1844375394977495 0.24309487096429994 -12.070507756713036
4.537848669402474 0.37384877099708685 -11.669031423764137
3.843110188731093 0.5212540838693358 -11.29802336398997
3.1142448277554253 0.6745372965579639 -10.948510708972572
2.3706586770823415 0.8210110789816034 -10.610410511567157
1.6282509695318246 0.9494627238944718 -10.272083714704811
0.9017199388748712 1.0534592275441164 -9.920940212296399
0.20435983798709723 1.13081524526804 -9.544113410669908
-0.4512009307909616 1.1819026012596179 -9.131703598728901
-1.0521567036029895 1.2083404021649093 -8.679560698688908
-1.5897991804602567 1.2096766323443127 -8.186779860232507
-2.057968319393096 1.1848982910747208 -7.656821192212115
-2.453004398228652 1.1334792705096295 -7.09441005072875
-2.7749331225586933 1.0552618442166428 -6.498554244150485
-3.0216279680219498 0.9486053714396202 -5.866465102923375
-3.1893198673973613 0.8114933451277673 -5.198102886990813
-3.2789519838344403 0.6482110319424912 -4.504174590922798
-3.308556256602155 0.46841031502604047 -3.7906841956778146
-3.2956063356957555 0.28424274353866696 -3.067636692091324
-3.256122931498717 0.10200832772803137 -2.322330803518123
-3.1973356384541347 -0.07751090132164848 -1.5401071904952486
-3.1263728457798803 -0.17553620032735018 -0.7908780612816221
-3.0545905713760773 -0.21056663413271473 -0.10097523468078384
-2.9882211579497513 -0.1781092866181596 0.5511531677073139
-2.9396677212591804 -0.07232144518589304 1.16776946640152
-2.919262611184769 0.14918109160564588 1.7521638989200206
-2.9212816643443356 0.47407393558222743 2.2777691937472175
-2.947864373202657 0.9037517037882707 2.7667410947998587
-3.0314046748856804 1.3955671104144 3.2461590384855787
-3.1252840553626022 1.8400115113284494 3.668017895758334
-3.2429229537730584 2.2138047351263457 4.115139309748647
-3.399343653068559 2.4648091211355876 4.559594160051165
-3.479945786415554 2.532659114530602 4.98560701627563
-3.552861902563767 2.2180380492262133 5.229768095380554
-3.588438356006897 1.575284943216479 5.443947706779018
-3.5600385805811303 0.8594231999143072 5.612590218460348
-3.4268939308033435 0.06547819976928415 5.740907856249648
-3.191472835196705 -0.7286359329324159 5.842212610348715
-2.856114776679487 -1.4728039153646766 5.945128381340524
-2.4208598570642885 -2.140674379886533 6.0726269747322394
-1.89633413193476 -2.6964764363427816 6.2498695788302525
-1.3045001139455825 -3.1321729490781323 6.484005420687878
-0.6630821069242269 -3.438923980384899 6.781751361239711
0.02178321415989204 -3.6298779281200004 7.139827261689609
0.689746630361336 -3.6956732335393965 7.537289115968124
1.4681536192914386 -3.6566415575729385 7.9606385670848905
2.320599938003155 -3.519885564317745 8.379784593280323
3.391662261602237 -3.2325979553493753 8.81552063357079
4.777008790629842 -2.6854935452968225 9.211090069446831
5.99628693568847 -2.009564378038708 9.373301597301719
6.985781531332667 -1.3002315909973117 9.36012844761917
7.453939749452932 -0.08954072906571267 -20.18668206140963
7.566622644220692 -0.2345436868599966 -19.058311287178096
7.599315473850119 -0.257649086557445 -18.334599839055425
7.6322231521795825 -0.26970031575783415 -17.63274699069453
7.646585234942858 -0.2665469159482445 -16.967100787677555
7.630566612714787 -0.24188803283313146 -16.338296881830058
7.577675522935944 -0.19560689371066525 -15.739496997395685
7.475801498935386 -0.1310331698913391 -15.151867425548035
7.307282469311446 -0.04959575982715733 -14.57094051310162
7.060491173832588 0.04506833815370247 -14.001857642627769
6.7310685857676615 0.14972155683346422 -13.45592787870818
6.323504211046147 0.26198221042483416 -12.942503385429298
5.846016651094174 0.38162400836874544 -12.464914379714099
5.2991340489282095 0.5098258913621805 -12.019938265253945
4.684551362786645 0.6480253345950928 -11.604975046163648
4.003591145298466 0.7963379743020094 -11.219748884902486
3.273048193945196 0.9475748680801406 -10.859283905107898
2.5207769230465082 1.0868120684009372 -10.511911165820043
1.769571690227242 1.1993545936527636 -10.165267157978812
1.037984372636715 1.275742665850093 -9.806478311668405
0.33856369910494066 1.3128723098029773 -9.425898808673793
-0.3186429617499992 1.3110601580190853 -9.016045141380106
-0.9260633077815463 1.2742818961356825 -8.573100219044502
-1.4772632737468148 1.2059489054100552 -8.09507048351015
-1.9670906467575668 1.1081803348306178 -7.583580902170186
-2.39309224201448 0.9805929180800985 -7.0411529831426805
-2.753430023768705 0.8263647434507794 -6.467010012908223
-3.0451309205552057 0.6503909426842296 -5.8582255039083675
-3.2628722209464085 0.4487820721478062 -5.206134326081117
-3.4109088568736565 0.2552800739682527 -4.51171634283893
-3.4974995156680557 0.06770015461203507 -3.772823629242603
-3.5218807570091326 -0.11660526974010899 -2.9972508172399053
-3.493012127184599 -0.2650098313458599 -2.1908416363157084
-3.4190997584836995 -0.34311861389933707 -1.4254982890644472
-3.3211109639012486 -0.379989684567599 -0.6888859828253204
-3.2098522394340097 -0.3554852770069731 0.0040509757160835935
-3.091594005552678 -0.2743221582643035 0.6594845997924346
-2.9828526309735124 -0.1339050491133573 1.2727238475692058
-2.8902401572991763 0.09925983991364243 1.8560589144778987
-2.8277665036921644 0.419207365013855 2.403557725266583
-2.7975275821191055 0.860725916900587 2.926792411485308
-2.823250207134971 1.4253089047479555 3.4991302976542684
-2.9855457671888654 2.0180831794149423 4.227996634189895
-3.253904644093652 2.267046210221838 4.7389156546488
-3.391896385956815 2.3588217790283363 4.924918233221341
-3.4169906068685143 2.3706331221927988 5.131688345442998
-3.4046857918272755 2.205937868074651 5.358780737280879
-3.3885874872719284 1.6092161300854757 5.576608031300109
-3.3333233564095712 0.9032407542001788 5.745084362563741
-3.2078231512574096 0.1229312132012319 5.862250541471413
-3.0094058165951423 -0.6539457137731872 5.9479470203371525
-2.736053083819243 -1.3864762084490128 6.032459820656673
-2.3750129950513865 -2.052554402776972 6.140552060272849
-1.9270092561887027 -2.6144410659957398 6.300407429182195
-1.3926176405390884 -3.0552730184669814 6.531885708839546
-0.8023620797651552 -3.3576382225271137 6.8385067279079355
-0.15495823278177867 -3.548729214293541 7.216162873035016
0.4876415552125192 -3.6141307201306683 7.6419593356160584
1.2498972861656148 -3.5740565928328936 8.09950816876838
2.129915155049864 -3.4333104653977453 8.573058610965507
3.288217000972917 -3.133519272755227 9.060774520232332
4.690860057489527 -2.6002829286018057 9.4540109057953
5.896270383429324 -1.990264138848805 9.605808103530427
6.906578767282937 -1.3431725369783711 9.616233521672095
7.466233323898802 0.1716143000619507 -19.904216779464555
7.6589871861955405 0.1302779757743841 -18.97028621989716
7.767288819763063 0.09378398187865468 -18.31462949314035
7.851251715111342 0.04824948644253172 -17.673600933073605
7.895164531592005 0.0029041250575016914 -17.048950843984343
7.887777977936433 -0.034879049785258125 -16.432422349447226
7.819491906437529 -0.05913878819785403 -15.818068406194952
7.674334087738268 -0.0654579212571415 -15.19993236544398
7.447734609690272 -0.054238242088687945 -14.597834301864644
7.14211761200995 -0.025957881702290037 -14.024192132053393
6.760637258657791 0.021397641473300078 -13.484680448106957
6.3088064748454125 0.08787987064506075 -12.980921470275028
5.790764427742121 0.17518495383030272 -12.51105010816091
5.207202408388986 0.2858774118654657 -12.074147690977457
4.565564575908332 0.4177590992908111 -11.670642510733412
3.8729433191072005 0.5652969290301035 -11.297488540696223
3.143829874064455 0.7182700149259198 -10.946324456907393
2.3989388025651373 0.8636527281942168 -10.60682882598332
1.6552240034702446 0.9897025026223606 -10.267256865633334
0.9279861224612568 1.0895198227519933 -9.914985891416721
0.2304295940572174 1.1607733561847522 -9.537653405437405
-0.4251842769514923 1.2038281015174817 -9.125754515517185
-1.0268374928121515 1.2206837268314183 -8.675215580739856
-1.5661888006112403 1.2114945841949065 -8.184974022933234
-2.037259886388379 1.1757367104372578 -7.658207804229908
-2.4365803695338264 1.1129247803275966 -7.099320213736212
-2.763945174177774 1.0233803880847494 -6.507329491138366
-3.0171658707836513 0.906407477390962 -5.8793575646958605
-3.1922263496036942 0.7597323610324616 -5.214008347250192
-3.290568554639688 0.5919987374840021 -4.520335905581571
-3.32864404801083 0.4110929989004867 -3.8032741001489905
-3.3211910965516096 0.22690993216855104 -3.07251163568797
-3.2832748706441732 0.04967571399112222 -2.31827951405897
-3.222214856926153 -0.11406334974082147 -1.539393455966719
-3.147160374457336 -0.20270445405846638 -0.7924543283230551
-3.0694784172846488 -0.22874229349105765 -0.1025528706961808
-2.9953747572864518 -0.18900427220339988 0.5496149721068303
-2.9378147467925055 -0.07809297357365437 1.165260575336028
-2.906570403823885 0.14497516101906488 1.7490000872216993
-2.898952820207598 0.46890895087911405 2.277520026901687
-2.917104558401872 0.9001626281154295 2.7713657068608284
-2.9924450398217384 1.402397551553875 3.264064002274772
-3.0954195106012867 1.8677039486296265 3.7267385266454873
-3.23435331029171 2.2204893298025223 4.1800315365121525
[...]
CELL_DATA 87
SCALARS quad_param_group int 1
LOOKUP_TABLE default
3
1
3
1
2
3
1
1
1
2
2
1
2
2
2
0
0
3
1
3
3
2
3
2
2
1
0
3
3
1
2
3
3
3
3
2
2
2
0
0
0
1
1
1
3
0
0
3
3
3
3
1
3
3
3
0
0
2
1
1
0
2
2
0
3
3
2
1
0
0
3
1
2
2
1
1
2
1
0
0
0
0
0
0
2
3
3
SCALARS single_component_feature float 1
LOOKUP_TABLE default
0.007845632588443303
-0.027244744522477313
0.002530614489464839
-0.062120768834288485
-0.014241706512095498
0.005016044785475336
0.03543715112435311
0.0012121166663489058
0.0014100825332040035
0.0036734684266309867
0.008518500114937579
-0.000807156282094261
-0.037262290386393275
-0.0346084951555645
0.021881032446192286
0.016734553728829805
0.013439375017664235
0.031752109965226885
0.010538856685747298
0.015598710155939777
0.0010193816469862092
0.013850061888755566
-0.03228031468437676
-0.04091331742916849
0.03306033610360101
0.017941205408557273
-0.03147994728043491
0.03762211964196048
-0.009584053640707007
-0.013314646061818845
0.02925691713828155
0.025471494948483688
0.021720586427943223
-0.026299547484439124
-0.009545107420339984
-0.0016737495240838687
0.004765877415466744
-0.008006284531008325
0.014450395771062947
0.005838106320032045
-0.02532170710277309
0.020545313955719402
-0.0589241233619017
-0.014986240403853306
0.011028563659694797
0.06891197059065196
0.030134797676980594
0.03426073778341411
0.01000697974330114
-0.003453792158807265
0.013440929057010272
0.017084483319173983
-0.03325123072991445
0.001979341992333364
0.0242089298948706
0.014744439183802988
-0.025798023475481262
-0.004750690291941771
-0.015258743388393555
0.008594918438432955
-0.029427216053976017
-0.025885387083978403
0.010634943652701175
-0.034403206860166506
0.010072627377640024
-0.025586147596734797
-0.006982441796895195
-0.00025753996047231387
0.00665391132148882
0.045027079170767606
-0.009528206040122719
0.005202924562708343
0.008281507251179637
0.09957917508853831
0.0163818249749741
-0.03529090580324941
0.02066209829215849
-0.019355188013229767
0.04124035116892825
-0.0881617453863512
-0.08151331731353109
0.008073266571421914
-0.06980524722842754
-0.031282613497756524
0.04213288521986992
0.02771211357618457
0.011424998333711805
POINT_DATA 5568
SCALARS single_curvature float 1
LOOKUP_TABLE default
0.07232308799223428
0.10823507114222394
0.12354305523583188
0.15335305265950902
0.1762096742613342
0.18956475958786548
0.19432720190632768
0.18773059769379877
0.1727908904974491
0.1543862600865366
0.13327448777505535
0.1117174390524166
0.08896716647369296
0.0646834961332477
0.045539088826711115
0.03694726559203368
0.04178596805245201
0.05915990718062875
0.08297041130710185
0.1077264287090311
0.13047716385296382
0.14979764857126276
0.16458112731908375
0.17452431685214312
0.17917437181992085
0.17596675654210706
0.15943298716478221
0.13265848297347205
0.09895161663349271
0.06636535058138653
0.07173544061453418
0.0838990115160825
0.11266132688086451
0.15492305940410436
0.19819967812634257
0.24376617928141286
0.2642118800455383
0.2520908892513069
0.19176581922166183
0.1670953340279463
0.20813365426551858
0.3967906442635921
0.7552034999733025
0.76519444539999
0.7370708347767037
0.6275832956534366
0.19158822098703832
0.15655478840470202
0.1653737474099736
0.18647042353867133
0.21121122420301047
0.2325650244117144
0.23561733852647213
0.22880985292130976
0.20072458387701816
0.1640242002681887
0.13299415687571062
0.09885959072046893
0.10303334585236414
0.11749865454298371
0.0971534584459652
0.07680826234894668
0.056463066251928165
0.03611787015490965
0.07805315622137851
0.10232604646211858
0.07459525765835623
0.10603375979179079
0.1376610603527471
0.16164096711973436
0.17920791096933975
0.187825321657553
0.18243989320426726
0.16756565688350644
0.1460436709216227
0.12350416834297188
0.10014155779382906
0.07564872621901565
0.057556640454954094
0.049391998399496435
0.05357149235319268
0.0700391800547953
0.08987663049403136
0.10808231716505454
0.12400785823027693
0.137079396020449
0.14762039284606784
0.15503131873728315
0.16039456376683045
0.15785798517821142
0.14678273924371893
0.13147818811437592
0.11446467816023108
0.11271783690246467
0.10592632307631088
0.1139515723886882
0.12359698938711766
0.1303542102973465
0.16871907880870582
0.19483730629596277
0.21994028633375143
0.20795516322040175
0.18481125718715763
0.3200530452824023
0.5644257482171701
0.8883453637311297
0.9472621229885713
0.9349643781933566
0.8777544106131882
0.534126391395584
0.19606993583892585
0.1352625840487936
0.14502908101083745
0.17732997700244987
0.22231499309152042
0.2628752100873931
0.2701585495410268
0.26031492340298745
0.2190988927526923
0.166452512454658
0.13170434858619376
0.09846480611679617
0.10210903874703899
0.11288910313716993
0.09310324073235779
0.07331737832754565
0.0535315159227335
0.03374565351792136
0.06142676471084214
0.09520411974453036
0.11338818996865198
0.14549018219352092
0.17075007968497016
0.18630195253852405
0.19297584133866133
0.18817536241479824
0.1742154934348443
0.1560054300136299
0.13469159865423064
0.11300923476551426
0.09029326607098814
0.06614225302756477
0.04728785704022354
0.03880256170901813
0.04348957975525991
0.0606551767279534
0.0838189264539933
0.10762491206032519
0.12947018249063263
0.14800715046053478
0.16230691983596054
0.1719509387998996
0.17671005235065845
0.17299435225158868
0.15681290217713037
0.13165546493816505
0.10039070495201932
0.07234539607084092
0.07605499992520993
0.08765195866432551
0.11346384158182415
0.15105449565725435
0.1938969893695459
0.2364548348735406
0.2576815887928168
0.24524653431669358
0.1916386766868458
0.18605436690524868
0.23222588869470942
0.44792376586493543
0.78071845995045
0.7840558501940125
0.7552118760013347
0.6303580676168099
0.1906138973617827
0.15303093838667964
0.16241295390532834
0.185373469064094
0.21300964057176425
0.23707974817025707
0.24070438559394702
0.23343031817910384
0.2034627461659074
0.1644040630827982
0.13275166492711413
0.0987084585224835
0.1028056104087818
0.11677522000534105
0.09656083783517846
0.07634645566501588
0.0561320734948533
0.03591769132469072
0.14952911310445963
0.1758836047144885
0.09433130624951203
0.09682413388783169
0.11302969334294695
0.13130374528102054
0.15384945740712885
0.18191047005394556
0.19219329744316563
0.1855755862808468
0.16579169943533018
0.142132769637793
0.11645505338701079
0.08921425364572867
0.07021650614002989
0.06185819847421084
0.06597202479380446
0.08248718647138821
0.0991244467883068
0.11057074030550106
0.1183791095828927
0.12340638001990187
0.12780808531318466
0.13169395745400755
0.13772603212727327
0.14444162552303774
0.14381214610329915
0.14042124572519618
0.13860486975198344
0.16567614927186616
0.15163344746931273
0.15498280581240856
0.1494083787234357
0.1152041870203946
0.13962527509858982
0.14941010009334157
0.1773775718334007
0.16837160995939662
0.15924627529104796
0.38863748514847035
0.9999903769608232
0.9999999999522192
0.9999999999556584
0.9999999999404142
0.9999943472253613
0.2815154332819729
0.2370458442985563
0.12126062666482237
0.1250454615606108
0.1641933215045706
0.2314847322927303
0.29388708376815936
0.30632995909731436
0.29380944300126743
0.2379758325010164
0.16858750068996314
0.13085210708778713
0.09919393508173045
0.10238764597436756
0.10875241222271888
0.08906674836292844
0.069381084503138
0.04969542064334756
0.03000975678355712
0.05940060474919826
0.08698861371124102
0.08477436080467282
0.1213984655966494
0.15212861032923425
0.17351112752646458
0.18646390118417663
0.18856436371493634
0.17880256802514954
0.16200656672390706
0.14038408239146477
0.1182506319510438
0.09534344089702479
0.07123224965935263
0.05298808252070582
0.044741046700365675
0.049076365881517904
0.06575225788729556
0.0869759438370311
0.1076709288787502
0.12633896111752102
0.142004065403724
0.1543935084737911
0.1628892106386546
0.16799074572381067
0.1640796874727834
0.15017812898562308
0.13045732087192036
0.10726080205432871
0.09403913142568045
0.09191111231253342
0.10155894411434717
0.11801855938040509
0.13903217493455494
0.17985951205676518
0.21300708721916864
0.23654278507176785
0.22397610180944785
0.19115333682308366
0.2639344752252552
0.34437727926189965
0.6660193430816151
0.8638349185044668
0.8487387632726325
0.8142861016440549
0.6037723130847527
0.1911838881859551
0.14253044952620167
0.15273712872768871
0.18123561827717538
0.21841648470450692
0.25151439122699226
0.2571072593765579
0.24836953012432048
0.21221088706332653
0.16557751793221576
0.13210724228613124
0.0984553749839521
0.10229907986493085
0.11455218639231171
0.09463359111297129
0.07471499583363087
0.05479640055429044
0.03487780527495002
0.06591637133459557
0.10068984579724599
0.11810142202999406
0.14917115342828963
0.17333970742042495
0.18787894581958103
0.1936507973573609
0.18798658949513303
0.17354756680843259
0.15523146553466455
0.13400583987966874
0.11238302493497475
0.08965662571491191
0.06545047908338139
0.04646617013253317
0.037932886361772174
0.04268830150365979
0.05994818233897172
0.0834126294362131
0.10766547274661542
0.12994075942003652
0.14885212052372515
0.1633856171799299
0.17317355248140112
0.17788168197180837
0.1743781143466148
0.15800862870933524
0.13208685296772155
0.09966417023546904
0.06947538302369824
0.0739762632169888
0.08584216870672708
0.11304401124317157
0.15286343512965642
0.19591983740630223
0.23988478429925295
0.26074863932901515
0.2484418944817379
0.19128547479204014
0.1762370021192569
0.22001225225204016
0.42263603119506366
0.7687906542166386
0.7753222840826254
0.7467800252882122
0.629589011553856
0.19100499453943265
0.15466921020033228
0.16380493988530917
0.18589924818388034
0.21217358386943483
0.23496472435530869
0.23831862599366563
0.23126276669485735
0.20218021222885454
0.16422682396493474
0.13286244433332256
0.09877457444727122
0.10290784977800177
0.11711230962955581
0.09683925988586645
0.07656621014217709
0.056293160398487724
0.03602011065479836
0.16008789772382234
0.20638261375204497
0.17810545029947994
0.1916419530814472
0.19877034640351618
0.1997052606592144
0.19596647946325418
0.18302277028142627
0.16558766074063147
0.14801894327686585
0.12876549521723066
0.10779398324648526
0.08420305267852708
0.058441020189700155
0.03709389725870277
0.027738655428838643
0.03369719547238668
0.05251685982849171
0.07985893791229653
0.10909921178661608
0.13560592068023652
0.15790541065394462
0.17420747858353666
0.1851726638136211
0.18925816697430278
0.191603270978282
0.17628158456711857
0.14272036672386487
0.10479584295089966
0.06409265219495607
0.07580190746586676
0.08997830720996954
0.12612167334018257
0.1745279809531226
0.21877567522284308
0.2795867301006347
0.2957976256383005
0.2881856184332668
0.33091557557821283
0.2792401898567463
0.29287112070306326
0.3820175583199322
0.6326526247102178
0.6546040929859095
0.6355243570901601
0.5693694265548792
0.20416139490788926
0.1756765821991648
0.1796250335361515
0.19054044859275454
0.20128411335503657
0.20967740687182174
0.2101575878611761
0.2057341430700868
0.18679435207774583
0.16201958683549272
0.13466495884042684
0.1003031453347323
0.10482299060489117
0.12143814185927605
0.10002494146258759
0.07861174106589912
0.05719854066921065
0.035785340272522184
0.059554388562733124
0.09280645275345042
0.11091800881670952
0.14353810021928262
0.16935225198365822
0.18542951834221222
0.19258707684116833
0.18826176441173065
0.1745710814687185
0.1564280671934326
0.13507191640499638
0.11335724485813829
0.09064277317030138
0.06651600035937379
0.047726425802403966
0.03926527238638587
0.04391778861141822
0.06103563073483311
0.08404115312590234
0.1076083484281119
0.12922091825881513
0.1475536602246148
0.1617241160812938
0.17128895235783081
0.17607509782796243
0.1722653988493751
0.15620010210456675
0.13145345776277642
0.10081114178393619
0.07391315230566678
0.07719313788389627
0.08864486596951485
0.11371537403172456
0.15009567994713444
0.19281667126444066
0.23462836728025116
0.2560458146302669
0.24355536395533176
0.19189987502004188
0.1916693253834004
0.23913488603011257
0.46210822355329145
0.7870298620593903
0.7886477667406866
0.7596604116269865
0.6303549454942565
0.19045345108886336
0.15216920054101876
0.16166945486391268
0.18508539112245617
0.21344960226231904
0.23820441471651693
0.24197488501280057
0.23458508882705034
0.2041446032147269
0.16449778459245684
0.1326946803503397
0.09867655593732003
0.10275434744916233
0.11659723448686111
0.09641226160764718
0.07622728872843325
0.056042315849219315
0.03585734297000538
0.05981182770905602
0.09314257774680192
0.11128743083484757
0.14383107456701508
0.16956313944196846
0.1855620769282871
0.19264680547989713
0.18824939999568183
0.1745176358552076
0.1563640757490777
0.1350140813812545
0.11330429324526002
0.09058977597639283
0.0664595870259262
0.04766046163753137
0.03919574186802209
0.04385336020988159
0.06097827205107929
0.08400749332763427
0.10761061583547082
0.1292583240498425
0.1476219754861329
0.1618120812754829
0.1713889311451373
0.1761710186630002
0.17237460480436484
0.15629114836542193
0.13148260173121892
0.10074653029674469
0.07367589664963584
0.07702080492735591
0.08849444558624091
0.11367637927491338
0.15023958677935795
0.19297918275871323
0.23490288544220023
0.2562917853295297
0.24380910508467654
0.19186050487338177
0.19081257217656916
0.23808192740568798
0.45994732313026654
0.7860830690216193
0.7879594710328476
0.7589931993939721
0.6303744354005878
0.19047543603257666
0.15229824824212784
0.16178130522013967
0.18512904987965692
0.21338370265993883
0.23803543531476293
0.24178391189361917
0.23441148944088377
0.20404216049069826
0.16448372665138752
0.1327031593970221
0.09868120754987866
0.10276191419887883
0.11662392157260418
0.09643460709899544
0.0762452926253867
0.05605597815177797
0.035866663678169236
0.06334240717767613
0.09757704126404539
0.11554680340821619
0.14718300161066603
0.17194844899321365
0.18703814098390914
0.1932955952088688
0.18809276035683006
0.17390798228398668
0.1556458634067879
0.13437122164027157
0.11271645490686663
0.08999692140985256
0.06582207936474771
0.04690919673054003
0.03840223645989208
0.043120156685708046
0.06032841747675407
0.08363004501856208
0.10764204972585073
0.1296864666159595
0.14839731685477767
0.1628061934922111
0.1725172593969111
0.17725293336581163
0.1736291471292731
0.15735619121160035
0.13184561282423404
0.10004559603620693
0.07101116842717814
0.07508771578174363
0.08680915441941264
0.11326172887198885
0.15188612383492076
0.19482940207680347
0.2380342190053031
0.25909464410393385
0.24671464940583754
0.19143599955711577
0.1813922672311206
0.2264586467521199
0.43604385161177295
0.7752378224927249
0.7800553798371729
0.7513438304695248
0.6301262707236168
0.19077946311573624
0.15378206256101265
0.16305459685384935
0.18561803334188443
0.2126262874868508
0.2361063920082845
0.2396058627625252
0.23243212851141484
0.20287255372339894
0.16432265479277106
0.13280204896860678
0.09873788101343647
0.10285170566364975
0.11692996244035272
0.09668913595830533
0.07644830947625794
0.05620748299421055
0.03596665651216316
0.07401076183551164
0.11019355961807172
0.12484707830391974
0.15434473951541275
0.17687909814285901
0.1899482352930823
0.19447365926412682
0.18766330912781246
0.17261153276553431
0.15419086338463217
0.1331082725978354
0.11156656523166068
0.08880875371902174
0.06450437610445293
0.045320000523510214
0.03671365139421789
0.041573017844207485
0.05897512125162864
0.0828684782493015
0.1077432263636592
0.13060475817950967
0.15001981276754325
0.16486019363543764
0.17483894524607935
0.17947518730387493
0.17634631008239116
0.15978134733323393
0.13280702586002294
0.09880180614354767
0.06565460847146934
0.07122616845254008
0.08345905167475591
0.11258726218829324
0.15541256485959026
0.198737991787085
0.2446850933533109
0.2650306383267766
0.25296027699461626
0.19216230165085302
0.16540676440928118
0.20578609775198317
0.39124712442544
0.7519806419680798
0.7627512362056039
0.7347411066929252
0.626943377512968
0.19174811627902688
0.15700615724098838
0.1657442099283854
0.1866019614249271
0.21098074739288494
0.23199569445988452
0.2349773328963848
0.22822888310120648
0.20037915117675886
0.16397589406666013
0.13302638988893997
0.09888136840682815
0.1030646409401332
0.11759094088719847
0.09722771806451176
0.07686449524182505
0.05650127241913834
0.03613804959645163
0.05740971026299918
0.08986381947286957
0.10718209926547487
0.14055403381985984
0.16718184976883602
0.18404617627166103
0.19195046534360236
0.18837559469517248
0.1751173599663553
0.1570915944218971
0.13567663223901189
0.11391147855523151
0.09119384558557009
0.0670973751317498
0.04840154094910896
0.039975581515950306
0.04457761973144547
0.06162538260841835
0.08439036747945446
0.10758965780727922
0.1288398426472575
0.14685238605635695
0.1608177105377847
0.17025750474168813
0.17508502448273494
0.1711566838766546
0.15529103020126245
0.13118010838738006
0.10149913833020179
0.0763687208110277
0.07897842192563737
0.09020458642532919
0.11413732418887
0.1486292819570053
0.19115306602296708
0.23182296159933702
0.253529828210436
0.24097091115591404
0.19226994320230117
0.20062856362293016
0.2501577802178323
0.4847514875193988
0.7966724519287127
0.7956610230259075
0.7664600114145603
0.6297563373111233
0.1902721861931792
0.1508599628936332
0.1605242976374906
0.1846318833825674
0.2141185682242625
0.23993034123559692
0.24392711802356618
0.23636017634388656
0.20519084076175687
0.16464088755556663
0.1326097094403572
0.09863186814547349
0.10267976659273655
0.11632575294035419
0.09618360142201206
0.07604144990366993
0.0558992983853278
0.03575714686698567
0.09851321993317143
0.12169116328255514
0.07534893030714457
0.09828958003931078
0.12777422328706517
0.15205708790322536
0.17251721297996117
0.1866724537603324
0.1852673941627233
0.1723361516725231
0.15109254080459947
0.12821944283635509
0.10433804500585525
0.07930525890940113
0.06114293072747982
0.05298270844735916
0.05709911176520322
0.07349953370438667
0.09234267010905982
0.10860784306364517
0.12229230846579653
0.13318726757977176
0.14211621188571202
0.14859265401687358
0.15415387846015385
0.15353903230284976
0.14513024955675885
0.13327214700404044
0.12085896801723163
0.1277518850539331
0.11775732010071364
0.12448366538924809
0.1292717778110858
0.12447786626489911
0.16014297253063403
0.18112316076588247
0.20726449363529345
0.19599918207721093
0.17803269570590458
0.3534075569257083
0.8425774750882888
0.9866552683588217
0.9922485917187546
0.9898081750271657
0.9418634643871924
0.45269283443054137
0.2031177271149385
0.13033459417822182
0.1390893169957242
0.1739247065450015
0.22513925905988807
0.27171195442378204
0.2803898897238433
0.26972536446456813
0.22446396116265985
0.16710050570188306
0.13143420258849323
0.09857781224963308
0.10207412511703896
0.11164680668760359
0.09192058737832591
0.07219436806904823
0.05246814875977056
0.03274192945049288
0.09293982811717139
0.11626592955899745
0.07466964227432993
0.09992658589591162
0.1302275574097284
0.154591581274566
0.1743685662270998
0.18702496044395356
0.1845176699785584
0.17103449141963184
0.14970007348296616
0.12691617474237255
0.10318545084606762
0.07831620604994025
0.060188037304863544
0.05203153048051312
0.0561604003467031
0.07257132072954808
0.09167165187643599
0.10845194545981063
0.12273932949547861
0.13422411552509875
0.1435944578634316
0.15032594956870998
0.1558350984457582
0.15464307335124017
0.14549312641402784
0.13272096098556366
0.11910554557809219
0.12373231179145834
0.11452815199278338
0.12160237880878305
0.12764109080092578
0.12594298012443067
0.16240723627770612
0.18472002026369372
0.2106019569318397
0.1991284539044026
0.1799255644004372
0.345601650227263
0.7709468978210042
0.9721852792266652
0.9847984493790456
0.9802956302708077
0.9246909619198025
0.4758531146770452
0.20093681091636678
0.13157686818489536
0.1406567789488192
0.1748589918221002
0.22440628280236144
0.2693645257795788
0.27766553456492865
0.26721522723687197
0.22303791588912375
0.16693128064423782
0.13150302182343188
0.09853956050826337
0.10207419772795079
0.11197232075531656
0.09223334991435585
0.07249437907339513
0.05275540823243442
0.03301643739147371
0.11435917128598862
0.155811899675354
0.151213631772163
0.1735745178193722
0.18900190630001862
0.19615016689498893