# vtk DataFile Version 3.0
vtk output
ASCII
DATASET POLYDATA
POINTS 5568 float
7.502768670401122 0.278962880460382 -19.91307510614076
7.6314186185733295 0.21988903177123165 -18.996180099108734
7.697458224406993 0.17446636884355815 -18.33212778185213
7.754534698233314 0.11928549677729874 -17.691677636409374
7.786404156611397 0.06350723105556269 -17.074717073830453
7.779967020487846 0.014753105892400899 -16.47048330174063
7.723109511549306 -0.021319752960128772 -15.869247929498135
7.598843454273086 -0.039915367662471196 -15.263813739122593
7.399708017419708 -0.04084215160684763 -14.67197011258047
7.12363161646602 -0.024366513422407855 -14.10387189929811
6.769982392349357 0.012743355350360582 -13.562737482085975
6.341099009347598 0.07096338213314875 -13.049716126653902
5.839743520712783 0.15128863632504055 -12.564348263076262
5.263531902622254 0.2568816253924675 -12.10700255298265
4.618855430429587 0.3862599578727013 -11.681669944003456
3.914819465451333 0.534474836482256 -11.290479977148529
3.1707095126843607 0.6909750637282216 -10.928291522175236
2.411260425637301 0.8421934755130565 -10.585124269757376
1.658532202185226 0.975883958824488 -10.247789991222772
0.9296550154633523 1.0850805950356295 -9.90148662829903
0.2351823303798235 1.1674064337958927 -9.53256965229898
-0.41486130198197413 1.2226013700864644 -9.13008591271702
-1.0122648420647362 1.2513740296100195 -8.688033934311951
-1.551416892330061 1.2524072313489487 -8.205688116460756
-2.026978750393663 1.2238092065905928 -7.685944492260073
-2.4348324984913416 1.1643568290301656 -7.132305459329461
-2.7731841662606147 1.0747085994025543 -6.542514768406006
-3.0387528592636266 0.9543973728084899 -5.911053843115095
-3.2259521693481146 0.8023918639850193 -5.235259006935684
-3.334214521350081 0.6204952531724092 -4.520381605068484
-3.381280226484645 0.4205101450290776 -3.7717561525559375
-3.3800934085146133 0.2144284408661404 -3.0030883365761625
-3.3458552369008947 0.014158020257570791 -2.2112943026242244
-3.2872254607493767 -0.19686024444910935 -1.38226529208622
-3.213605642724292 -0.2966055698065 -0.6176478729665787
-3.1286956869582805 -0.33226220400984874 0.080764131710504
-3.0449566305367872 -0.29370033485911146 0.7297188438685853
-2.973499909703869 -0.17707814684379514 1.3360613280983717
-2.9249694928647654 0.05880215781135223 1.9037679349461691
-2.8996820105052854 0.40264592837166896 2.4148814016990148
-2.902354963723806 0.8659164245178865 2.8885336537538984
-2.9608596377732908 1.445050000960316 3.3847073849900196
-3.065760369887096 1.9587348414257184 3.832849932770345
-3.229573029492817 2.3072627705271516 4.270566058602647
-3.3818219995874577 2.503857873775461 4.570770804715627
-3.4250614227391623 2.537141281751262 4.802487401991061
-3.488342031517658 2.2895434919693147 5.044295801386687
-3.5198810668476184 1.6571026038016587 5.260656272983706
-3.491171336867812 0.9473598241424749 5.441545909761046
-3.355127586719158 0.15113786393507078 5.58820740728798
-3.1167486195382517 -0.6472191692780263 5.711342090227319
-2.7796296636046236 -1.4020576087507433 5.837772886001417
-2.3462444987036326 -2.0792205216958313 5.9930511132147934
-1.8306835912006225 -2.643876338596109 6.201711167001719
-1.2502375328140887 -3.0902634390333894 6.4693907257470435
-0.6237273983967312 -3.4078295450753253 6.799748050843251
0.04828054147738492 -3.6159331910721706 7.1855599142647195
0.7103105352366745 -3.7036507933956977 7.601817796444639
1.488995611388876 -3.688975483054456 8.044593385799445
2.359058416232299 -3.56998870887126 8.481680000502308
3.4756589932535293 -3.275783808910968 8.919279002412345
4.845635436684766 -2.702384275075822 9.292149866774546
6.038729987563135 -2.0074701035718467 9.459200351424059
7.021902415067726 -1.2797229169274706 9.469138595477336
7.550740055236091 0.44432704046162386 -19.893737980276022
7.609264286691633 0.3732834279138978 -19.012817019199076
7.629458554890796 0.3147983788386756 -18.3417271821374
7.657983713732082 0.24381965403321426 -17.706675113466932
7.677860630149532 0.1698547571815267 -17.102786470406635
7.673509045297837 0.10075600007554149 -16.514360397381907
7.629168969648903 0.04225096592839986 -15.926608710842782
7.52595528119505 0.0005526964860460212 -15.332138785880995
7.35410941614535 -0.023093708142111855 -14.749015464739099
7.107645526326853 -0.028372953330428618 -14.185700112691956
6.782319658876475 -0.010136626699033664 -13.64189018628249
6.376736601394309 0.03280211480429737 -13.11715705805144
5.891399847837452 0.10079353195130228 -12.612039831024275
5.320007866037461 0.19795349143406005 -12.128682747123323
4.668111778556285 0.3234006513233725 -11.675987379989829
3.947942340180948 0.47238890682123547 -11.26257694021561
3.1846126594637294 0.6336454851172202 -10.887113750904838
2.4071512183566908 0.7931142428875646 -10.54009316354409
1.6434990567707137 0.9381586291456376 -10.206368531139159
0.9126914660148246 1.0619112833624929 -9.868242447557838
0.22188260167738727 1.1619912813630195 -9.510101594299586
-0.42149383244590277 1.2373516914571951 -9.1189445916271
-1.0134818550591242 1.2869399753069635 -8.686370193442428
-1.551650115651594 1.3072671897595525 -8.212227499081727
-2.0313624537147033 1.2944125221386051 -7.69926791275997
-2.4476110280674 1.2461686365589382 -7.150049180565505
-2.7967708563110723 1.1633046647308296 -6.5606632470543
-3.074266516070078 1.0450443505210245 -5.922218643114871
-3.2726608968353053 0.892078559321158 -5.231138228356921
-3.388480802349368 0.6943657082387275 -4.488536696180059
-3.4421204379572536 0.4697229201967713 -3.7007451441600283
-3.4458359912122627 0.2343771507518554 -2.8869859916048943
-3.415577292176359 3.7554254488897376e-05 -2.051159015068447
-3.361881558112023 -0.2870418161174769 -1.1508243662738882
-3.292711489130194 -0.4072461700450635 -0.36159373141569506
-3.2020433842058798 -0.4609457602735713 0.34808179925389815
-3.110740563085608 -0.42828646379971863 0.9929788692917147
-3.0271527926114667 -0.3075084508597665 1.5883483927987623
-2.9633123888906683 -0.05611688757382649 2.1371173377473083
-2.9213324600926143 0.3147670558551561 2.626074026874615
-2.9092194128757836 0.8208443192420335 3.0730288618121175
-2.9501096325806753 1.5015211825219044 3.5668493491368323
-3.052536916503267 2.068828703103943 3.973708185852645
-3.2351940368022594 2.424932980082488 4.388541416384283
-3.3852917691517916 2.6090379235168415 4.607604026793885
-3.4065508618810916 2.624104010643687 4.709742874336492
-3.48551525842151 2.4082716278970993 4.95690170176566
-3.527068623963072 1.7750717101094875 5.175134707951921
-3.5056354439300383 1.06981628629487 5.371810684852816
-3.363508008258607 0.2660774482834136 5.54557919178048
-3.1100660437066505 -0.5438468913453574 5.701915517138959
-2.7515970776022756 -1.3172186847433878 5.865015896847803
-2.297503391746278 -2.008488650551059 6.063051791432451
-1.7694706867995253 -2.5842680023925784 6.3187871826228355
-1.1856085028196932 -3.044035786032164 6.631844434822205
-0.5621575262690113 -3.3776356985242475 7.002792539948497
0.10525105060685613 -3.6083305168240436 7.419533011540366
0.7679501609309518 -3.7246606138840592 7.852508577875364
1.5527202480477897 -3.7417312868803676 8.311121564842066
2.4382107348971807 -3.6467862933484123 8.756216259578512
3.5892488439800116 -3.3471687897752265 9.181469717423292
4.936184658295154 -2.7360072601983845 9.52661153603407
6.101550033466098 -1.996879589183063 9.703073742448588
7.072120476734004 -1.226135909762143 9.736000969214958
7.390577385480163 -0.10777637366452478 -19.958299087164168
7.701331350674439 -0.13696011675078534 -18.935456084494763
7.876693678999878 -0.15251934018966107 -18.274698172594384
8.002743461067848 -0.1703679856553616 -17.615171666336604
8.063827918341085 -0.18229052003634108 -16.963857450484102
8.05227603896492 -0.1815786069537422 -16.318722289786663
7.964546199033329 -0.16316575152324228 -15.680944517993682
7.787770034134948 -0.1253716393217592 -15.043855642112911
7.519557701647049 -0.07027548992131404 -14.425229743952453
7.1679563386255065 8.081393090478284e-05 -13.840427253349445
6.742326653312127 0.08359082955968176 -13.30156444286502
6.2545580407865495 0.1788278599938108 -12.812907718630434
5.712466548791013 0.2885921339622907 -12.37080991165606
5.122815937152306 0.4139335261190574 -11.971110234990652
4.4934620914715175 0.5523143597923779 -11.606620037309398
3.8259225437739355 0.698683525693697 -11.265209990347188
3.1257621816109182 0.8443466343430837 -10.93316164203977
2.407459503709614 0.9768685839577138 -10.598934724680577
1.6793328162151986 1.084603034343882 -10.253122337056613
0.95376301610641 1.1599084545571312 -9.88710211089724
0.24893255297727057 1.2002619834244261 -9.491710815620749
-0.41891181864402516 1.2072797322509161 -9.060952063423395
-1.0310613263719919 1.1863174809381098 -8.594895825444045
-1.574087443647693 1.1414767082275572 -8.09167166690825
-2.040973101706638 1.0756752667369311 -7.554707704431618
-2.429907340083252 0.989896719016216 -6.989751135475207
-2.743596611202641 0.8844217261709166 -6.398346224921155
-2.982018472134547 0.7594024381201081 -5.78266605587461
-3.143938742639739 0.6096647059460742 -5.1416940967318485
-3.235428179667593 0.4627461643025426 -4.489227170453098
-3.2682928366059003 0.3161375357429236 -3.8274208322732712
-3.2568045039939872 0.17275822297653814 -3.1579258729537094
-3.2142948294939266 0.045237636881139326 -2.4622486752025576
-3.1458172846805743 -0.013603567224558272 -1.776090732480569
-3.062349633528483 -0.06808766651833231 -1.0658996664285212
-2.990367753286757 -0.0627922524407461 -0.39175423215477767
-2.924414917149412 -0.01026457017503675 0.2673156001170567
-2.8819082052073797 0.09660210307778698 0.9010248418849813
-2.8700719264887358 0.29658628046861885 1.518425005726022
-2.8841819297725273 0.5812152552223764 2.0901148504015135
-2.9211949547471083 0.955887706992256 2.6365404352540693
-3.0168398320369825 1.3380445389767197 3.146803666785736
-3.1312244560189155 1.7448504763711243 3.7071064552514095
-3.251273134674606 2.078536253781628 4.204165745547333
[...]
CELL_DATA 87
SCALARS quad_param_group int 1
LOOKUP_TABLE default
3
1
3
1
2
3
1
1
1
2
2
1
2
2
2
0
0
3
1
3
3
2
3
2
2
1
0
3
3
1
2
3
3
3
3
2
2
2
0
0
0
1
1
1
3
0
0
3
3
3
3
1
3
3
3
0
0
2
1
1
0
2
2
0
3
3
2
1
0
0
3
1
2
2
1
1
2
1
0
0
0
0
0
0
2
3
3
SCALARS single_component_feature float 1
LOOKUP_TABLE default
-0.014238300141154384
-0.03241359819301155
0.028268499470202314
0.05381189446494282
-0.01478130882177335
-0.012241764783939024
-0.02506327707635167
0.012398288050497783
0.007984318271522763
0.010043684265044496
-0.03538022008874176
-0.004626542585468289
-0.0042865980274422455
-0.06313500541896767
-0.018024719892829125
-0.025549706225347024
0.1215834394622765
0.01597243929618566
-0.007614667338685838
0.0027971637722110938
-0.04123731444637092
-0.02368878744603094
-0.008448457644312318
0.019739127302289272
0.059295332173812776
-0.012830093849711233
-0.030305523338245058
0.023883355961102762
0.017594964788789212
0.010780765647713127
0.03787045128897683
-0.0030826530974976344
-0.0367120613366449
0.02497770064185437
0.007672277780311147
-0.03304716116340256
-0.01877028646523944
-0.018402191798747206
0.011549947953586704
-0.0032821307044115303
0.012256518554635033
-0.057442554073044994
-0.015493241368157579
-0.04818906139094768
-0.033004496699175455
-0.004230093193584663
-0.04578264952347715
0.004155796238212551
0.03385567576365638
0.016002191277985557
-0.014761080607009255
0.019215706057266795
0.013610345478726554
0.01767191615921262
0.017125101518582916
0.02952522313063846
0.002173243758129658
0.02437760586602822
-0.05242936266694484
0.020776801899491843
-0.025442963913018576
0.012541176890011968
-0.02718887425033678
0.0182767952384454
0.013206228421775955
0.023312557026393628
0.020789395479750766
-0.002109053038732586
-0.021807701411784855
0.04332360073750572
0.0003406003193202091
-0.030783024320117182
0.012771737324357324
0.016601482478112745
0.06282617944856064
0.03503011476241299
-0.005046396799784341
-0.029908607800582167
-0.07116976814080107
-0.012889130133066022
0.0075384218554438165
0.006577183455345026
0.018880031422944494
0.02656623200949175
-0.002210158855116703
-0.003312053305122581
-0.005188871788628655
POINT_DATA 5568
SCALARS single_curvature float 1
LOOKUP_TABLE default
0.04477746955003701
0.07115319067517151
0.08568080436532827
0.12132513228754542
0.1545872946241448
0.17840958547188995
0.19130119605772442
0.19041493759641642
0.17804671284600623
0.1598022993826904
0.13853124291859184
0.11791207674774601
0.09680389572640001
0.07331660627556316
0.05202673956250943
0.0404849243775379
0.04253972865881044
0.05860429396360738
0.08349407927919462
0.10796096602279105
0.12950973520747136
0.14710604994537352
0.160602994818103
0.1703285318532257
0.17514387974186846
0.17173589592364574
0.15412194007687383
0.12822486815995818
0.09706677202743208
0.06560354034461506
0.0824934270619535
0.09544796224381305
0.1271956120158735
0.1738425760038362
0.21243358365667633
0.2588136467446225
0.27790897864729913
0.2566388785635202
0.20665881397618302
0.23494275665422631
0.30314254446404154
0.7861283636225944
0.8883182201618466
0.883222922593646
0.8585417660055065
0.497738157757687
0.19599012590449033
0.1487417801876475
0.15918628862091544
0.178795553062201
0.20273196338758945
0.2253295169860694
0.2268007492844429
0.2183194434258994
0.19202578531727946
0.15802430867230363
0.13368090997448512
0.10690431955086513
0.10916830163764167
0.11815473184847755
0.09448019403070379
0.07080565621293003
0.04713111839515627
0.023456580577382508
0.036468461063572453
0.05390376315569853
0.06542952274649196
0.09428320311287725
0.1351066341887215
0.16874427710016213
0.18897621783697233
0.1925030418054825
0.1820409936017316
0.16385634636038734
0.14263592934327038
0.12315510504240153
0.10390013836845247
0.08152790246117562
0.0575381165630223
0.042220190685358795
0.041130994000684984
0.05554218566898608
0.08251276376778441
0.10838342584979381
0.1301857888729361
0.14719778141226225
0.16009083369067087
0.17017959928375953
0.174947608478779
0.17222343608066285
0.1526782616205205
0.12499557351191506
0.0927832714027587
0.06345231815000192
0.09714071250114781
0.11265667895715498
0.1535613833721802
0.20574372251790998
0.24008762415859394
0.29119118778227054
0.305396112571576
0.2721384907902229
0.22166343400843372
0.28218404370938605
0.41589583856453943
0.9997262579692219
0.99978962276143
0.9997647099523981
0.9996579507517146
0.3308852262621841
0.20418349325086804
0.14596417077066892
0.15678322295386152
0.17092054281261104
0.18851847564064617
0.20754534640745756
0.20602489044905137
0.19659266005347967
0.17609749247589526
0.15008447403625363
0.13498441773053307
0.11754599504569989
0.11795936456804887
0.12095751675978876
0.09315221621329639
0.06534691566680402
0.03754161512031165
0.00973631457381928
0.08449114557972322
0.12831255573851422
0.15459610799996817
0.17728771471168253
0.18993924821568428
0.19327035020661854
0.19168772306257917
0.18315595833573373
0.16870285064273205
0.15150162757820665
0.12968615245867535
0.10510413645191287
0.0789583318431738
0.05544643580568399
0.042339802188457926
0.040331497679520524
0.0500642757818957
0.06717618079419534
0.08555778948673405
0.10671377645905449
0.12796406168612304
0.147416476175804
0.16275945304802075
0.17194003038436403
0.17666780214531494
0.17246452237607385
0.16038866535863983
0.13948737293717384
0.11234567931672289
0.11125170769704333
0.08607430697791611
0.09520763831667398
0.1047155085639295
0.10399761671452226
0.15499035453087837
0.1822857762442019
0.2055883452615707
0.20873254880824485
0.1588072855873813
0.12193957712703396
0.14786798798675785
0.17741776680681084
0.8242914458578008
0.8374454706350904
0.8272476719323255
0.816239384680186
0.1805666078551481
0.1576504856803811
0.164537718293431
0.19602443678720632
0.23515493689239667
0.26590606699573455
0.27477596623472883
0.26976627269245534
0.2300158912041392
0.1781096726477833
0.1303096437091982
0.08289036419870331
0.09114077644059178
0.11416378269778962
0.1017459611185843
0.08932813953937899
0.07691031796017367
0.06449249638096835
0.10332562070642752
0.1552918418287101
0.19059126252189657
0.20328871793016454
0.2042938648618013
0.19713046082562038
0.18876684736063276
0.17747053997736695
0.1632435858170869
0.14739795543289336
0.12506088183790504
0.09733347388988975
0.06877964824576757
0.04864582793633624
0.04089081568605287
0.044857510894955765
0.05818623255800589
0.07226325107383368
0.08639782282861418
0.1056726660998587
0.12699511204893768
0.1478824467435243
0.16461565287233568
0.17373316690546967
0.17834746084507472
0.1754404444075173
0.16780453790658173
0.15065274654923638
0.1270697300373888
0.15729810936452007
0.1449276253641389
0.15301559822010702
0.14919361697860764
0.10721940376996027
0.12812450859463073
0.14033838623740683
0.16220596292834225
0.1811991887873462
0.1445161104927031
0.12027073259979965
0.1329329851906831
0.10956101068793374
0.8870548263032263
0.893192715811218
0.8926175480090507
0.8950071022803764
0.17318864572477644
0.16442665452581048
0.1680406111939282
0.20482502485921952
0.2524979229335541
0.28769740825820106
0.30109468476286505
0.2989034031366334
0.2518255965831187
0.19055477827557704
0.12774978774016701
0.06989302676379812
0.08228787639546573
0.11317557318669147
0.10864864634330446
0.10412171949991744
0.09959479265653043
0.09506786581314342
0.044348685841695705
0.07046954205920364
0.08489029719178887
0.12051909372472518
0.1540418396622018
0.1781490053246103
0.19125058764532196
0.19048677963627894
0.1781666827311477
0.15991952427261055
0.13865170505062793
0.1180713635042957
0.09702188391195721
0.07356426254204554
0.052182866700210495
0.04052501514388296
0.04248341464039658
0.05850275120493345
0.08346465276760083
0.10797413315351488
0.12952962619070696
0.1471066763937943
0.1605839488880684
0.1703193698306795
0.17513422372871268
0.17174616758192918
0.1540716279866121
0.12811859991431088
0.09692363708826968
0.06540009787039419
0.08280984495551506
0.09583364285770388
0.1278589700865958
0.17478998843748286
0.2132407427603503
0.2597949612769054
0.27877185114425374
0.2571554227478837
0.20716671000168713
0.23637554889965984
0.3056455561464137
0.7992635981084861
0.8940498387174162
0.8890048890216093
0.8650949639133504
0.49248538893267263
0.1962177773409448
0.14864868823248206
0.15911662554872125
0.1785627434082328
0.20230629355686544
0.22479699949196505
0.22617673859797333
0.21766177836841688
0.1915428397031299
0.1577792406929213
0.13371966166169483
0.10722131776299604
0.10942232582407546
0.11822847088919136
0.0944247903432237
0.07062110979725603
0.04681742925128836
0.02301374870532069
0.04643476435822643
0.07374074444230375
0.08867084217620698
0.12427403392338013
0.1565728970997354
0.1793524554697798
0.19147721340095497
0.19014591467612324
0.17760545593116314
0.15937350904386255
0.13808965361340075
0.11732515128063144
0.09599942145742967
0.07240597128439884
0.05145704146405087
0.04034339084488309
0.04275375880465654
0.0589813302265701
0.08360203346904233
0.10791214653951128
0.12943672023271255
0.14710483199000132
0.1606749680880693
0.17036471652670296
0.1751814360276994
0.1717009328550396
0.15431145001855895
0.1286215933274239
0.0976020037742034
0.06646702632158541
0.0814360602984065
0.09414004725121836
0.12486455977986621
0.17036341207957784
0.2094778935628088
0.25520061241769504
0.2747166600749355
0.25471221657059534
0.20476091767184665
0.2296645321340949
0.29421777792487364
0.7373003438981849
0.8680599540296892
0.8629832185441522
0.8359109923597616
0.5170156512524386
0.1951611957163012
0.14908904408588053
0.15944153579956893
0.17964978854151967
0.2042966714943212
0.22728695088995848
0.22909553877613945
0.22074054561958067
0.19380414046580507
0.15892893542964923
0.13353813026670275
0.10573980267067153
0.10823904486376608
0.1178888049890765
0.09469218513724001
0.07149556528540352
0.048298945433567025
0.025102325581730534
0.03835482330663348
0.05950417988758911
0.0721059365247396
0.10505990421754191
0.14328330165037065
0.1728843193083275
0.1900722479633105
0.1917381795527633
0.180432498005323
0.16218585417296075
0.14095937128521677
0.12105784835096403
0.10108136310292455
0.07823462389734495
0.05523459810133966
0.04141539899514899
0.04157556738771077
0.056682573663318886
0.08290613085081229
0.10821613597402867
0.12990950087649425
0.14714286094300555
0.16026656101459893
0.17020070648402735
0.17499584011349203
0.17199453626727082
0.1532078264447749
0.12622630554445402
0.09439662585797126
0.06355739265733708
0.09060141608765578
0.10502328207070845
0.14225757720871868
0.1928053013211819
0.22876177888644883
0.2782327043626232
0.2946434670586965
0.266319373831495
0.2160972366399765
0.2632650865575714
0.361673393467156
0.9786975085526474
0.9860306605668607
0.9847960406904697
0.9798636520760818
0.39470803140373156
0.20071954228945774
0.14700039577800778
0.15777454561119678
0.1741222487060327
0.19425078121658476
0.21471852039291803
0.21438903402099083
0.2052960115836792
0.18247168912937436
0.1532252739570234
0.13445236856319212
0.11323867854933428
0.11433390090749093
0.11974023625464998
0.09355824971823386
0.06737626318181773
0.04119427664540161
0.015012290108985485
0.07034988374493095
0.10823734145859797
0.12939459393909536
0.15820058088765582
0.17844761634072845
0.1889971689394597
0.1923544617074846
0.1862233253883835
0.17216669960308595
0.15438957282418753
0.13283838355130573
0.10994519956227855
0.08574096717371402
0.06149793800710974
0.04516990225494559
0.03951283420156018
0.04640255262186988
0.06391811617503002
0.08486322442528892
0.10723926720051005
0.12854350341694581
0.1472229528477026
0.16180675566704109
0.1711333976909706
0.17591754857291084
0.17174851834813126
0.15739146176501273
0.13446889963931533
0.10555763978124458
0.08895332946115594
0.07912364444190323
0.08931071924523759
0.10720121218976938
0.12828282989607306
0.17490051060370604
0.21045454024296023
0.23329413715213765
0.22781170541930926
0.1778893862850463
0.1636730924965866
0.20126198762363745
0.30762399769796755
0.7898803481299308
0.7971126231971427
0.7761045125110034
0.7266318158086548
0.18583838440669376
0.1539704901024064
0.16252697676527286
0.18987927534008117
0.22337806570465826
0.25115873105266723
0.25722734502588407
0.25073883947771924
0.2159080762819707
0.17045786768628685
0.1316775828197669
0.09160252924835723
0.09741856359234224
0.11525915101872014
0.09836853167464758
0.08147791233057503
0.06458729298650247
0.04769667364242991
0.06609140484536569
0.10220620593078197
0.1220797108888563
0.15249420437663738
0.17489015372155084
0.18754084134760607
0.1923716316902196
0.18700455834386673
0.1731374098703593
0.15523866096923605
0.1337493060471734
0.11128267925672465
0.08761559772131164
0.06336191924585623
0.0461636701397617
0.03950818329874018
0.04559024511958213
0.06301234958729833
0.08465085781985168
0.1073711966205353
0.12870330069783828
0.1471845682173203
0.16157188776545706
0.1709521014646668
0.17574789189139362
0.17166046203118435
0.15671972442898657
0.13327060863546206
0.10392573295148881
0.08370272488716173
0.07843764023526183
0.08899479581490705
0.10920540647123156
0.13565780756783077
0.18079943324824554
0.218435236330819
0.24092524921245076
0.2329858394774351
0.18309160536507163
0.17553450413253274
0.2168085832103063
0.35823032018304724
0.7855701156621999
0.7904038955344657
0.766136818828829
0.6948519397840812
0.18739857868135523
0.15301942009768327
0.16197700328036724
0.18809911813154848
0.2200115458265324
0.2469461158797246
0.2522413002266914
0.2453788445571068
0.211947848043177
0.1683531394207854
0.13203028133678488
0.0940913621465596
0.09926473129206444
0.11564399798171052
0.09756736173421467
0.07949072548671882
0.061414089239222966
0.043337452991727116
0.06809299745360721
0.10504150936977327
0.12550532869536504
0.15517777584957002
0.17656958147896462
0.18823497436229272
0.19237293144856904
0.18664413762935175
0.1726841999832211
0.15484006207532128
0.13332255373936497
0.11065932757358163
0.0867424097934684
0.06248458335650257
0.04569061496349837
0.03949994122023954
0.045959042292513456
0.06343451048550819
0.08475085904173918
0.10731035281100328
0.12862878186186158
0.14720159343062825
0.16167978181429826
0.1710343351754766
0.17582495830739472
0.1716963567949793
0.1570254564479539
0.13382020060711022
0.10467451224786994
0.08609824521451076
0.07870712579008557
0.08908723644152375
0.10821622477463054
0.13220392848630086
0.17802925843121412
0.2147066823399127
0.23737249471954439
0.23058579893262798
0.18067932160804143
0.16999659763277633
0.20952350510897916
0.3335632419588711
0.7870491991424905
0.793037206255585
0.7702730378544713
0.7100528576567526
0.18666529262821807
0.15345916257274697
0.1622333959195655
0.18893304964437327
0.22158617471786057
0.24891638680854206
0.2545720062194753
0.2478819601666381
0.21379660277001425
0.1693334849494259
0.13186706684584615
0.09292714961445347
0.09839815001014458
0.11545991763916477
0.0979335169096714
0.08040711618017804
0.06288071545068467
0.04535431472119131
0.036365883078415435
0.05226703340888716
0.06340639264915356
0.09031864469600377
0.13169708811567707
0.16698734010209806
0.18847502405078745
0.1927804395622382
0.18268623471653833
0.1645412610378024
0.1433177487018832
0.12399182940605372
0.105017309902967
0.0828415801744837
0.05850164073151637
0.04259124987176719
0.04100743034348477
0.05513198395366095
0.08235767786038747
0.10845039196675627
0.13029866334507773
0.1472269783024753
0.16003217695461983
0.17018607004403122
0.17493981212688556
0.1723252358372005
0.15248156954437228
0.12452341695107182
0.09217272414930598
0.06348216966519835
0.09979571452105118
0.1157737065849132
0.1581484713255515
0.2109724097594983
0.24470078068801512
0.29635507990462395
0.30958441202933923
0.27431290915423784
0.22371403681913088
0.2897426758543584
0.44190987893478817
0.9999905608034451
0.9999923117951615
0.9999913069397883
0.9999867330892069
0.3075930332083081
0.20564598817241334
0.14558194422786505
0.15637438050414557
0.16962447551318383
0.18621645377886295
0.20466435867319832
0.20267158604253585
0.193121467961787
0.17355759199100745
0.14884777795246767
0.13520375823361577
0.11928281987438799
0.11944853282921955
0.12148150819839736
0.09303886498374692
0.06459622176909648
0.036153578554446036
0.0077109353397955965
0.05355615245001407
0.08431070263507653
0.1009165141471484
0.13527598343680716
0.16385594181123944
0.1827275510588057
0.1920033519371488
0.1890505552694786
0.17592141888277266
0.15777105425750684
0.13642566291795197
0.11506937426885017
0.09288988104507231
0.06894365701769874
0.049351034840567444
0.0398913660628058
0.04367203776107157
0.060463232003895785
0.08400848546322486
0.10771928567571679
0.12915964414153455
0.14711556949744053
0.16097725160447557
0.17053876433965107
0.17535462301508853
0.17161249278611815
0.1551055527149307
0.13022810874502527
0.09978020425247151
0.0713642204734268
0.07887374119436875
0.09068376569479171
0.11747760273994938
0.15716524484982555
0.1983927956313507
0.24136783087169045
0.26227611950904095
0.2469798040293798
0.19709643482192127
0.20939933725619791
0.2631447890318186
0.5628557059412563
0.810569060368557
0.8079957821200349
0.777645688164905
0.5888565169630261
0.19210995476364268
0.15048317749469828
0.16040423187150862
0.18287916282307304
0.21025188357442004
0.234736565371756
0.23784450783561936
0.23000721366587126
0.2006177112261788
0.16242661221301904
0.13298657220126966
0.10131696028559833
0.10476443646022794
0.11694872548624385
0.09561989350921143
0.07429106153217901
0.052962229555146595
0.031633397578114175
0.0538913788516709
0.08479616809565399
0.10148202860391917
0.13575714010480872
0.1641702404723626
0.18287000603053083
0.1920214799422657
0.18899914188725853
0.1758462481440069
0.157700773535636
0.13635217462820587
0.11496808317697679
0.09274962720966728
0.06878998514293318
0.049259725238603454
0.039874623840373796
0.043716915942196934
0.060530696277260654
0.08402637126785659
0.10771040315764481
0.12914731629808748
0.14711660635366633
0.16099175915226574
0.1705478635924749
0.17536347080648573
0.17161037375518698
0.15514386243808478
0.13030352729204114
0.09988277148098242
0.07163571398503234
0.07880747068102859
0.09057994390116643
0.11719740109652138
0.1565791399658103
0.19790543314270606
0.2407491354295062
0.26171177620265274
0.24662100268999454
0.1967392052515467
0.20849037107908508
0.2618357230316032
0.5559114951111983
0.808842857127973
0.8064447703569266
0.7761223863617872
0.5919623147932251
0.19197760704516864
0.15054790414370967
0.16044687977739533
0.18302212845814192
0.21051698124226625
0.2350681831950856
0.23823455376870928
0.23042165624244804
0.20092271409878845
0.16258434636896976
0.13296160011677116
0.10112037406798181
0.10461195830203864
0.11690947253102102
0.09566569070776104
0.07442190888450106
0.05317812706124109
0.03193434523798111
0.05457878454975665
0.05636385405436275
0.06482815201412462
0.07068807362109908
0.09818604103262352
0.14838924193340014
0.1822511010056249
0.1944830536242603
0.18853658318834515
0.17117090430923435
0.1497722446392614
0.1315080552890748
0.11487081059249163
0.09456534973687188
0.06857422681510089
0.04758405469237147
0.04169079925937705
0.053107775536981504
0.08117351309404298
0.10910700490872458
0.13140399245334553
0.1477014605997824
0.15983088469919532
0.1706577175373129
0.1751746682544975
0.1734337073852653
0.15096775066677412
0.12061954372965611
0.08737678155921624
0.0630569967466927
0.12239935331460693
0.1431447568550975
0.19900425772677863
0.25971615256294334
0.2884051975381886
0.34223887309736606
0.3441855343727209
0.28988889030954323
0.23742548407624967
0.3579851493936524
0.7523286886672993
0.7435922785272601
0.7191468182167378
0.6594104930153213
0.14979425280116043
0.19093306382215203
0.22143828337785346
0.14311536041296058
0.15226287614057257
0.1575102015117417
0.16523995659890114
0.17840634500544703
0.17228464308233862
0.16225603249674378
0.15104034007325012
0.13834259051072256
0.13752780897846192
0.13535315347680524
0.13403525151419318
0.127295450487314
0.09336982530950506
0.05944420013169613
0.025518574953887194
-0.008407050223921742
0.04201149312933394
0.0665936645825383
0.08039909549013599
0.11567358279661916
0.15073587500384125