# vtk DataFile Version 3.0
vtk output
ASCII
DATASET POLYDATA
POINTS 5568 float
7.322886332976042 -0.024451925513653994 -20.025975157677856
7.545944929743428 -0.06759340024521282 -18.95893681916532
7.656972414040561 -0.06447699505081428 -18.308930626856586
7.760230380227056 -0.06904249276028329 -17.673767930933067
7.8325955527374695 -0.07636917573302103 -17.051742269100217
7.8581209091666215 -0.08219369679918127 -16.433130116652173
7.821756515905727 -0.08085682660727878 -15.816256532715611
7.704046367465676 -0.06935825542307458 -15.192997641226903
7.497197596847671 -0.04613296838718533 -14.583958423603162
7.203169028074349 -0.01051696632420724 -14.002846740115979
6.8275092159408715 0.04062862348320579 -13.456180688529999
6.377812369210625 0.10882969214783061 -12.946091181554788
5.860010508022727 0.19664525595909188 -12.470729661305283
5.2746247243480715 0.3063487888544081 -12.02882340866654
4.627822592246476 0.4359102106670558 -11.621630057789176
3.92673508995967 0.5794625599810881 -11.24766720279102
3.1857836718720747 0.7259228715162761 -10.90172089291582
2.423933105456217 0.8621742126389688 -10.573627229008984
1.6594516409929885 0.9771717767671678 -10.248190488186468
0.9101561555688207 1.0646186414410643 -9.90976868499917
0.19227318750787914 1.1229600898788255 -9.544149529043365
-0.4782929905664828 1.1536100724615357 -9.141487868455904
-1.0885510065394572 1.1597088392108288 -8.698487860450156
-1.6320314330803432 1.1421365016300449 -8.21413685547196
-2.104591418040078 1.1007319261887987 -7.688687355543529
-2.5042191050794695 1.0341373904216797 -7.12217299320043
-2.82955269747859 0.940350106743217 -6.5124781704362436
-3.076446453358408 0.8193848918956663 -5.860530583092674
-3.24054219926201 0.678480116540159 -5.1757124516819415
-3.3200479455455043 0.5129814036886073 -4.468909892223394
-3.3284374641975036 0.33580200599649535 -3.7511437177618525
-3.2820704404695857 0.15486050674020116 -3.0314765814294127
-3.20048360132523 -0.02199863671972624 -2.2961185370669615
-3.0978299606236908 -0.1939929155378801 -1.522782894938932
-2.990782668234197 -0.28590840916648397 -0.7729612678647674
-2.8939100761402496 -0.3140780506815975 -0.07080860380702991
-2.814786948232305 -0.2716853451836805 0.593584027590899
-2.763476175042386 -0.15505110989533794 1.2191844813062782
-2.752277671104804 0.07379899346705501 1.8129684775667183
-2.782277786326781 0.4102956542243201 2.3493382827340334
-2.8662786223883163 0.8475029584367608 2.843465062178221
-3.0431298169939236 1.330929293265557 3.301734309710239
-3.2009625501873438 1.8251386220258574 3.7389155752658056
-3.456455695114106 2.2017661936596244 4.202491792231738
-3.6319519892654064 2.424965469859229 4.5787001678264065
-3.6845012364921828 2.4923028360917456 4.976973056864972
-3.7147810445171774 2.2292056082234017 5.220053993767133
-3.707014134161382 1.5763018539429572 5.430654562309268
-3.630981803103132 0.8277655279631356 5.586851806351784
-3.469742479611356 0.020356011895211745 5.693088129176789
-3.216936119170419 -0.7771674147461819 5.773331986135428
-2.8663935009645387 -1.5224851414840823 5.8554114956653915
-2.41071806183331 -2.1837939742016257 5.9669356509561915
-1.8569982323458798 -2.7180890409952303 6.140312320234323
-1.2248740526282909 -3.11472464838305 6.392337227100109
-0.548644114789914 -3.3588894971435153 6.729096653887064
0.15482799290414406 -3.483443603725157 7.13415410813751
0.8349941588332574 -3.5086449341041837 7.570027300514459
1.5971983049601062 -3.459079440247601 8.030720728727651
2.4257484423465403 -3.341405704839811 8.482808305474185
3.4727187485495037 -3.101407768337266 8.945369382299202
4.86650081225647 -2.6242487216202894 9.354387925597875
6.0813599014048725 -2.0226988862045054 9.500731148913136
7.050923003998879 -1.3929121874913146 9.48236212178513
7.359393635905438 0.020154191574848157 -20.000897203977594
7.5727824664156556 -0.024705196571239083 -18.964817438568797
7.681490885062296 -0.03140714161415756 -18.31224171956523
7.778705755536251 -0.045721676033008044 -17.67464677578039
7.8431288188431685 -0.061739221176472264 -17.051443290828885
7.860012299307532 -0.07440762132761189 -16.43344706048219
7.81581551323384 -0.07808160393668756 -15.817851290507724
7.692064209232803 -0.06957486803560184 -15.196796996231738
7.4814911499016405 -0.04786928122202799 -14.59016586218337
7.185846000273359 -0.012671159886188998 -14.011185172637092
6.809890342341499 0.03875956410664921 -13.466289704123808
6.360659705272594 0.10752370693576518 -12.957657562635575
5.8437168072775005 0.19591990054369182 -12.483558584769279
5.259624049587143 0.3062638144289373 -12.042769363091445
4.614754285522765 0.43656089515714874 -11.636276031387133
3.9161072323702326 0.5811550766660278 -11.262259507764773
3.1781863959172805 0.7292502861581688 -10.91477502130466
2.420581873176016 0.8677119938651163 -10.583590910481197
1.6613490908667492 0.9852550445036903 -10.254381212745121
0.9177139498219734 1.075372777985854 -9.912274107192928
0.2050934117182166 1.1362914989780655 -9.543594433570213
-0.4616053315297074 1.1691502555416062 -9.138631455926518
-1.0697327285295848 1.1768409816454408 -8.693894905436364
-1.6123694884840263 1.1601337402251581 -8.208337005740153
-2.0849137968981655 1.1188356435161253 -7.682926521020351
-2.484997522691039 1.0518159978033355 -7.118794090137933
-2.8115316111781694 0.9577287794187995 -6.514143336475795
-3.0608728066440527 0.836524383690617 -5.868920226055024
-3.2287007691302985 0.692958304194472 -5.189543671311103
-3.314124049917235 0.5263518790960089 -4.486222236203947
-3.331151689438907 0.3481163221279062 -3.7683346580636883
-3.295382286477999 0.16639853127218676 -3.0451027856833437
-3.225112476001828 -0.009889986388254418 -2.3040945173670435
-3.1328947801428013 -0.17780074645995553 -1.5299352179920431
-3.0336017759768477 -0.26771345937577934 -0.7812326399011317
-2.940964629718767 -0.2942246387262009 -0.08225193873545056
-2.8621824728019685 -0.25161931128642095 0.5790132336090961
-2.808151420080174 -0.1358313271886547 1.2019283920564712
-2.7904472567763356 0.09169230741972498 1.7929703595892146
-2.809525535040277 0.4246903572947107 2.3274578337368768
-2.875457813728771 0.86010588149109 2.8215993496302274
-3.025256701556175 1.3483841482175585 3.289073754446192
-3.170075188308158 1.837309285714175 3.737462614225895
-3.396912466850963 2.2043964575475252 4.198390150108971
-3.5667710368165952 2.4235501359848524 4.5742220430351255
-3.6227955360833484 2.4869880046076065 4.965000689569762
-3.65828334739258 2.2209794423443396 5.206892446538581
-3.6586743022764714 1.573633942935979 5.41857319403514
-3.593512720247317 0.8343885112581786 5.577967766629869
-3.440009700715731 0.031372393013155975 5.6892509486364276
-3.1938834154244433 -0.7641593381354418 5.774004476536965
-2.8509705182248797 -1.5083462919180572 5.860363661117011
-2.4050741298210947 -2.1710413689573955 5.974832837476799
-1.8636826457387026 -2.7110039759220315 6.148098363991591
-1.2458207013995013 -3.1178325741269473 6.395163068106959
-0.582306354325002 -3.377806301919026 6.721988782712612
0.11353232353842069 -3.519522472502272 7.115642120040659
0.7888421054942137 -3.5552496451356244 7.543048759701568
1.55415025809973 -3.5083398854764543 7.996027803859387
2.390220611758061 -3.385599576645472 8.442709026129448
3.4480190515577336 -3.132960182132206 8.901308223377969
4.8403794925790145 -2.638799254783996 9.30668231560694
6.055393761740271 -2.022204656463005 9.45644277105191
7.031081756397172 -1.3759520524150408 9.440721184427712
7.790436358123367 0.5468198336405979 -19.704801120092093
7.9043649673415946 0.4869436882711732 -18.998463719561798
7.986450720508876 0.35973307862054726 -18.303485718713265
8.011734817835052 0.22538584915352602 -17.62116225378907
7.981152991544406 0.10313027009204676 -16.96721981544206
7.894828002643572 0.00810221420550672 -16.341790139463516
7.75650610981766 -0.05536111018054592 -15.73071135824958
7.560376304938999 -0.08205033062966444 -15.12987574051411
7.305363500871196 -0.0780749575518549 -14.549194362594626
6.990552536956543 -0.047724955208420114 -13.994556774108702
6.611084534036593 0.0070406647486173785 -13.470230075490216
6.167290541989109 0.08237056828480607 -12.97859214713204
5.66038254600475 0.1775325070902351 -12.519231491152645
5.09138430820142 0.2953275601339784 -12.091478342082889
4.469013442398593 0.43417281925354195 -11.693143380727316
3.7986191633207946 0.5909151704059111 -11.31842903839504
3.095240913347986 0.7582340679497087 -10.952633634198493
2.384968575871542 0.9228009669792621 -10.584571874469388
1.6835602691006495 1.0703201900227293 -10.21031441699062
1.0021946812228006 1.1916955695407552 -9.824151547080804
0.34786900653850816 1.2826427193086571 -9.418744181209801
-0.2754221989854584 1.3412957746496645 -8.986006898541184
-0.8592750516593761 1.367707372453289 -8.520298330874835
-1.3921552402770514 1.3612255584425674 -8.020266547346548
-1.8645152436314065 1.321184079785418 -7.4953157349179484
-2.2700406035196825 1.2491952006217695 -6.958708969663851
-2.610597126186143 1.1515925301764103 -6.41107018432828
-2.8879972415587374 1.027475359851351 -5.840596060857762
-3.099420541812897 0.8527124295532221 -5.220502554565616
-3.254140292774741 0.6722549091832115 -4.553546540258879
-3.3748467236770083 0.4795336876603965 -3.8268313824694653
-3.468903024057293 0.28566814947321767 -3.0494084628912983
-3.5382337819193785 0.1136522132548147 -2.226273859891789
-3.5683587589622174 -0.008345521237919484 -1.4308468526091556
-3.558743182862614 -0.07558970354857195 -0.6894480224906756
-3.5143905677700147 -0.08317875077439364 -0.025629195378896186
-3.439576684502202 -0.038171834641358406 0.5992868944461592
-3.3541394816677617 0.06799246327778022 1.191946690127498
-3.2610811908516397 0.2819458638512004 1.7558737357327279
-3.1536867103194752 0.5818839381017546 2.2806759262567584
-3.0048416298216276 1.0199017783913282 2.8025335589361102
-2.8046297379784315 1.6309969913391738 3.449533040895865
-2.7944444351484203 2.0789437003175335 4.060664976505652
[...]
CELL_DATA 87
SCALARS quad_param_group int 1
LOOKUP_TABLE default
3
1
3
1
2
3
1
1
1
2
2
1
2
2
2
0
0
3
1
3
3
2
3
2
2
1
0
3
3
1
2
3
3
3
3
2
2
2
0
0
0
1
1
1
3
0
0
3
3
3
3
1
3
3
3
0
0
2
1
1
0
2
2
0
3
3
2
1
0
0
3
1
2
2
1
1
2
1
0
0
0
0
0
0
2
3
3
SCALARS single_component_feature float 1
LOOKUP_TABLE default
-0.017099651216677378
-0.012712773610572804
0.03908321003218339
-0.006485414536964236
0.0227073177059735
0.027732955126890224
0.033992531341872786
-0.026677766439050062
-0.04547408838516942
-0.022502897164290415
-0.008976742515708978
-0.025004555209055257
-0.02674516805398016
0.019000317854978098
-0.024336404728132893
0.012806506570110994
0.01583309444907058
-0.00028781816298952857
-0.03883022802944333
0.001174067428957433
-0.0007286497904913022
0.03083805494572463
-0.00684909719800629
-0.04148508581553381
0.002435657628419012
0.00016205973323780987
-0.0017532230227268637
-0.07738646602631069
-0.021319215304662312
-0.004367270195172083
-0.004629588104990562
0.05295073909845899
0.026330500257117605
-0.007686581061991729
-0.03839197537581663
0.01646961276154173
0.007116168686054629
-0.04268303428659209
-0.03625939424278188
0.03144449438819159
0.06051380983401858
-0.010837155070445265
-0.01598689376859718
-0.011551772037765612
-0.0028785369786992615
-0.007202225580001221
-8.438382523102972e-06
0.006491497321314413
0.02648246257784093
0.0025727984592641695
-0.016056843818653844
-0.04795302467505007
-0.04206850791507973
0.023927057890229093
-0.023980813311935092
0.05624705662928399
0.019472111598357135
0.018182649405035382
0.004421774038937655
-0.033460945512946386
0.0034392033194132407
0.029509623241691388
0.013550563232193317
-0.0063567044786578
0.004153174604872405
-0.015569204269855856
0.080313280525585
0.0014502737995890948
0.04537290718413914
-0.03202939332261133
0.059535695142092504
0.011314117112894508
0.005556779421987564
0.007114233763927895
0.005917717826677951
0.02917686410818291
-0.0017336909127824494
-0.002920913371961764
-0.017310580323735343
-0.031930316772988146
0.017385132425957375
-0.032838678969493815
-0.0070173383658601735
0.015707616476288606
-0.03985650976022073
0.034473125465267256
0.01586276266315048
POINT_DATA 5568
SCALARS single_curvature float 1
LOOKUP_TABLE default
0.06042849575724129
0.09069435948215533
0.09531076648741843
0.13831695707121458
0.17288615029090348
0.19521793984432118
0.20374530284939962
0.19809290125819037
0.18119349376942412
0.1598426452807419
0.13716828000018405
0.1153818599376259
0.09434245427549949
0.07263890183357587
0.053883492585522205
0.04437496722526543
0.04727103844441373
0.06289084706590199
0.0868869224611537
0.11218928501486154
0.1354921516158909
0.15464269697159388
0.16868338195487365
0.17694674381738243
0.1785469621084764
0.1754591407579484
0.16247606970389153
0.1418380236878139
0.11360960247879313
0.08033100480319964
0.08062660962768954
0.08664285918782612
0.11275863243906555
0.15541558336607159
0.1968263861762498
0.24354548297719944
0.26551282491686695
0.2688415130774683
0.21202248370765528
0.22327138431606552
0.2567137004805345
0.46748258912006485
0.8173827351090712
0.8141470169648698
0.7927856232225039
0.6713710606015504
0.18684016394202263
0.14640723751699614
0.15858829487620046
0.19279018648891622
0.2285805725796222
0.2569866144141889
0.2548010429644685
0.22810000613466536
0.18224881234060858
0.13296836788048538
0.10361220894781706
0.08394050336358638
0.10306101067991838
0.1257233033902957
0.1057618159560137
0.0858003285217317
0.0658388410874497
0.045877353653167696
0.057218425284921604
0.08810125801247924
0.09839730372651374
0.13907303696640363
0.17149783613409958
0.19237403389942295
0.200691447643027
0.19554690769276176
0.17956214767169076
0.15906563458130385
0.1367262876369836
0.11495142878825006
0.09348348108258975
0.07117197733288369
0.05240146810480433
0.043166720560978596
0.04650649603625095
0.06249025151417666
0.08620842816535637
0.11099848981017243
0.13379734274605326
0.15268988559624674
0.16676335627852917
0.17537387183969336
0.17777807063968765
0.17447948193075857
0.16069148858241283
0.13903018910392864
0.11029997803333444
0.07893773471486172
0.07986505686114898
0.08713901084583725
0.11273168682401886
0.1534271976270064
0.19516778512513192
0.24067975756680104
0.2626670830053312
0.26180706064786047
0.19776777758513928
0.2088346363123065
0.2405466387941587
0.45839668818868495
0.8097250658575532
0.8067421124488017
0.7856810015249517
0.6612904221225906
0.18785650897968975
0.14771751190996701
0.159197690164389
0.19093130485014875
0.2252142365299755
0.2530583610522583
0.2523804452012081
0.23032437087043803
0.1881447357684265
0.14097416043276428
0.11093131541303951
0.08770545698484462
0.10291176054200506
0.12325297174704052
0.10325182188916007
0.08325067203127963
0.06324952217339919
0.04324837231551874
0.09884262187273987
0.13738835049762507
0.13937649788137832
0.15266071588561342
0.1629337103287608
0.16659360812595325
0.17101044622990227
0.1685264303231298
0.16149932801517147
0.1501043708993309
0.13133465003767725
0.10965489166799412
0.08316279872808477
0.0537347874883152
0.03623805897385667
0.030240199970420573
0.038667085310081804
0.05901607716971093
0.07850329814491298
0.09785731485597021
0.11555774904928018
0.1314352943867765
0.1442135237047116
0.1551315873359662
0.167897035386898
0.16276489543481784
0.1422513756785168
0.11265661333871986
0.07908695022149395
0.06902989908622235
0.07916905716390367
0.10593805220796233
0.13184534866965691
0.15409645038040204
0.19836080168633463
0.22020223953642473
0.2350088705319332
0.20320412140760555
0.22272031586916025
0.23088685007080212
0.4431608725009479
0.6703206128119027
0.8143098141544636
0.8140252025899916
0.7037136080949018
0.5209589955699925
0.19221326820103768
0.16063365547629205
0.166566491163588
0.16074853325823213
0.16752124934496057
0.18039464901707652
0.19927277611464977
0.2453245209388168
0.25292570943818926
0.23764292105616933
0.2013387325274921
0.1309575352600862
0.1030376481507983
0.09875535374439964
0.07809537853988237
0.05743540333536509
0.03677542813084782
0.016115452926330542
0.05571634430044916
0.08751048496272787
0.10330148322148326
0.14029961909603003
0.16970163378328285
0.1884744462451254
0.19646306285056717
0.19197974745335858
0.1772647699444515
0.1579654361924353
0.1360946412509702
0.1143351235596934
0.09225679895402826
0.069071337189603
0.05030275732867354
0.04145719101125226
0.04542595147992202
0.061937755680774094
0.08524678136319642
0.10932192100773004
0.13142255334530292
0.14994764956638057
0.16403148302588624
0.17309684890725413
0.17666606457957623
0.17307468020526146
0.15819440268593846
0.13515689353945068
0.10575125239206513
0.07710382799064154
0.07896393903907431
0.08814525965664617
0.11308094422097012
0.15105941760064676
0.1932406455877058
0.23676284903103706
0.25863878563931714
0.25188352624059307
0.19007857539294284
0.19914076087193242
0.23515518124001675
0.4602663887401993
0.8003610820665565
0.7984275241320686
0.7751401328659114
0.6463573591848513
0.1891634062851233
0.149540530675018
0.1600691245081688
0.1880665904732733
0.21993932413461054
0.24672944522604331
0.24825959070071651
0.2331345938464022
0.1963739762703065
0.15247772150666114
0.12148715862920414
0.09306985136137841
0.1027774318442872
0.11984891755877089
0.09977660290567944
0.07970428825258799
0.05963197359949654
0.03955965894640509
0.0830972892769254
0.11931823270593075
0.1273181514565774
0.14779743029527606
0.16409538959804737
0.1729228769106135
0.17884181532281312
0.17628326188897703
0.16689698989467558
0.15287838553990318
0.13307136296556016
0.11136863849988017
0.08643051672843494
0.05905327544646099
0.04079984463409785
0.03378137590004875
0.04065528222891562
0.05977734465260784
0.08083409642552694
0.10177189902156077
0.12089712723046937
0.1377041824272632
0.15123997280785015
0.1618047653000419
0.17116089933655068
0.16641050036502616
0.14737794255860967
0.11934383610947784
0.08720381497450992
0.07086336060870674
0.07772997135648488
0.0975836493945388
0.12165956279163083
0.148505909137684
0.19227257994608804
0.22291606665026623
0.2418933557031105
0.214999414161375
0.2079134941369021
0.1962942494411719
0.3306295678188015
0.5665562408141352
0.787145699681453
0.7946067888896902
0.7244319426870591
0.5684155183855385
0.1926170724459767
0.1572002515773466
0.16421395731281183
0.17157972706133315
0.18846048308221292
0.20703550445572821
0.21964923014444107
0.24189211874229513
0.2330622325777012
0.20730396281058977
0.17246030530030165
0.11778720456184678
0.10280246540128841
0.10555274297603566
0.08507137608867214
0.06459000920130863
0.04410864231394511
0.023627275426581593
0.08854146826349522
0.1255000578228734
0.1311913209249096
0.1492701398035422
0.16359403999107253
0.17078116919505879
0.1762601625244832
0.1738059541571827
0.1652012421176112
0.1520193823190183
0.1325412645457999
0.11084614501871885
0.08542386532330767
0.05734298335198021
0.03928281167455805
0.03257823283078936
0.03993782630979654
0.05950401320775157
0.08010362965184278
0.10054077643680805
0.11920847085868723
0.13572569609726456
0.14906395046357018
0.15977576345058958
0.17017034385909335
0.16527642218293792
0.1457178213244615
0.11710246165546562
0.08452673897529549
0.07017803532649088
0.0780164429541293
0.09994078817805548
0.12437638476537964
0.1496640365407214
0.19361509644012004
0.22162459843969795
0.23956947430860245
0.21082352017895137
0.21240356936616675
0.20322596101929125
0.3609793694458219
0.5955398783780027
0.7925081962053447
0.7989635691442506
0.7169649173409046
0.5540296245659273
0.19268794498110403
0.1583281585560345
0.16493374355223794
0.16833922404704912
0.18218278539865185
0.19901217055559642
0.21357418273407888
0.24295296318779544
0.23917438066103197
0.21669927718294602
0.18133748961916127
0.1218951257668996
0.10286499494343207
0.10337330956753818
0.08282936767633525
0.062285425785132326
0.0417414838939294
0.02119754200272647
0.09458447990151748
0.132433941565581
0.13581027845502874
0.15113452519509066
0.1631509680670449
0.1683585026911086
0.17326205787595844
0.17083704415272052
0.1631362482448259
0.15095865759425486
0.13187739087691377
0.11019102687495827
0.08417381478581175
0.055277013043577676
0.03750569311044515
0.031191304197724205
0.039145441095643316
0.05921225168203105
0.0792117820766394
0.09904321500568218
0.11716583085889068
0.13332728231147042
0.14637620652803054
0.15722351285080585
0.1689222423151279
0.1638811791391607
0.14375492758623132
0.11454149670027348
0.08142110153422986
0.06947751986739603
0.07856794238308137
0.10313885377435517
0.12827103958392744
0.15179778736040783
0.19593943116922227
0.2205757317406267
0.236936710937939
0.20636041813668404
0.21813218604704446
0.2170071529071135
0.4046817274800162
0.6358150121589936
0.8031494602054984
0.8063842176463849
0.7089424397925568
0.5358707943838991
0.19253674913109542
0.15964191777279496
0.16583278526591716
0.16419175833583066
0.17415752670678525
0.18879185452348135
0.20575451809190762
0.2442440971825637
0.2467606919388927
0.22830643744349902
0.1923828808624891
0.1269315639895574
0.10295563623809073
0.10077463617195709
0.08016188929352647
0.059549142415095846
0.038936395536665225
0.018323648658234604
0.07407266021779152
0.10308166027078328
0.09143728224039141
0.13702127851093993
0.1762566204059384
0.2016628907111227
0.21059412679550918
0.20373001712097744
0.18478615098105547
0.1615432630808852
0.138124553081984
0.11631064279423557
0.0962011834844739
0.07580033645239356
0.05711619268487723
0.04701134484691791
0.04893825391228874
0.06378713917838509
0.08836716699750043
0.11481165842894342
0.13924822819105614
0.15895856374190553
0.1728568304523059
0.18028823722024315
0.18018228514446305
0.1775609251272899
0.16642437128502274
0.14815546510990718
0.12109818887264774
0.08364629730158103
0.08263007327963671
0.08614643911861344
0.11352818133239463
0.1605680382265686
0.2012055715638054
0.24997674001909426
0.27158346272528344
0.28352891683753223
0.24483546058736427
0.25352732353345064
0.3016733618198558
0.49573341334680976
0.8355787215795021
0.8328812040924913
0.8071857263804635
0.6920275633789842
0.18438520168625228
0.14349388329377802
0.15727421865344524
0.19637165181211688
0.23489873718247997
0.2640048222428591
0.25867534047137436
0.222530207594862
0.16910622275824091
0.11588403069332559
0.08808100059864805
0.0758505900285753
0.10361777829254284
0.13131990410121064
0.1114021226976455
0.09148434129408037
0.07156655989051523
0.0516487784869501
0.12140783003406863
0.1484011282384919
0.09415872947321173
0.1362229358667007
0.18408358643951928
0.21496913303619025
0.22454195322414935
0.21500731815064794
0.19192326470128773
0.16488802365413593
0.1399650207243767
0.11808777227646854
0.09977219083692476
0.08181711567957106
0.06337460294711417
0.052107212019633094
0.052137734953739814
0.06556941985591214
0.09124286179778122
0.12001470123968898
0.14679896210298893
0.16758842189428125
0.18094123616075242
0.18646373076390166
0.18320466621878137
0.18148516754488492
0.1742420523526809
0.16102629526407297
0.136527590435756
0.09125480493454803
0.0879027861906573
0.08744187573875314
0.1175699377225714
0.17320571847770924
0.2121235495467632
0.26256922441790137
0.2818940621603523
0.30502536586832535
0.30018538795723526
0.2968062254243982
0.39408418458130656
0.557788120237308
0.8688196407935795
0.8690944168220803
0.8304197356436509
0.7267330999172683
0.17887749907443717
0.13770989332114034
0.15478463299865108
0.20142588752749574
0.2431770637348163
0.2716714182014602
0.26078601527032896
0.2089743308426545
0.1425976400318426
0.08517286705368018
0.06067204836111435
0.06160608389842093
0.10653848833467168
0.14307574333557893
0.12298132056292406
0.10288689779026919
0.08279247501761432
0.06269805224495945
0.06692386139405476
0.09646462704442338
0.09247346230825139
0.13752234036814598
0.17473168417803767
0.198817478278839
0.20758113726971628
0.2012610402213353
0.1832154889219638
0.16080142980005233
0.13770922975998678
0.11590768703049496
0.09539396771139852
0.07442964318719156
0.055708680112608204
0.04586348698341629
0.04821279630043154
0.06339368084286595
0.08772248759474262
0.11366527902888471
0.13760221493562236
0.1570692248867534
0.171041313428154
0.17884759519510443
0.17947697386845565
0.17665175703618455
0.16469638980971396
0.14537370625078636
0.11779339910293533
0.08215686976649277
0.08170150157199345
0.08626636095414707
0.11307900657463382
0.15819447841722079
0.19917787129039866
0.24715427226933942
0.2689752513618103
0.27730593296004674
0.23067410274260097
0.24092171827514336
0.2811597863483011
0.48257762515513664
0.8275423756160166
0.8244588301910889
0.8011081541938465
0.6832588045261172
0.1854918384524103
0.14477077306760894
0.15784391532378478
0.19489236830705636
0.23232009591812397
0.26120958170790093
0.25722492461718
0.2250775571857033
0.17487802778861924
0.12325309491308453
0.09476382281461204
0.0793455795994473
0.10332843407499327
0.1288466659492814
0.10891817181076688
0.08898967767225235
0.06906118353373783
0.049132689395223306
0.05587225721965843
0.0872976037101854
0.10129416109753334
0.13978854249407316
0.17039534327862968
0.1900140071376507
0.19813867037887714
0.1933997228978829
0.17818108493081944
0.1584051438472859
0.13634792662429643
0.11458241975073681
0.09274852234223574
0.06991415667557535
0.05114125316711644
0.042139923808533715
0.0458572169333586
0.06215618875219782
0.08563116499069531
0.10999054615533553
0.13236803322952684
0.1510402655634548
0.1651251112929842
0.17401392934301566
0.1771137755754982
0.17363843145556282
0.15918769669187527
0.13668948167779293
0.10754898533877637
0.0778168494837545
0.07929855646218067
0.08769973451493321
0.11288467827535142
0.1519396495466863
0.1939485461670395
0.23830470458977307
0.2602443099128749
0.2558234238230611
0.19073492734835726
0.20085129672138524
0.23417969538670066
0.45689708024251446
0.8038662242286605
0.8014112485989666
0.7794143140513041
0.652416380407806
0.18866077258348746
0.14881702951153758
0.15971969290531499
0.18924379846964776
0.22211835102116756
0.2493656205688125
0.2500032441522258
0.23205837671169097
0.19310153878995914
0.14785871452900912
0.11724335782306064
0.09092289696713336
0.1028217940572086
0.12119616456927144
0.10115407744430055
0.08111199031932965
0.06106990319435876
0.041027816069387865
0.07098691261238531
0.10020591083095012
0.09172373797456793
0.13720968523677635
0.17563533199550896
0.20051631568985515
0.20938183997999987
0.20273847909828674
0.18415585534553544
0.16124586072606104
0.13795837856307178
0.11614949730513453
0.09587823505772261
0.07525238657749284
0.056552518994523564
0.04655168246746046
0.04864786137296646
0.06362905560959697
0.08810893626160107
0.11435165224892435
0.1385869799111853
0.15819993089000037
0.17212993265999688
0.17971381945142736
0.1799010233546613
0.177197936949264
0.16573078805974994
0.1470358783849918
0.11976670793462944
0.08304140400940706
0.08224799293699281
0.08617702596341435
0.11332796105359058
0.15959441730946353
0.20037217804760057
0.24884342395107545
0.2705472089378138
0.2810776417150758
0.23921010434444645
0.24859813114223817
0.293349080166186
0.49035728443424464
0.8323579681989159
0.8294827271508901
0.8047882331375397
0.6885577050007204
0.18483502833882015
0.14400666695091963
0.15750192556500148
0.19579412297843454
0.23389788190457522
0.26293343561057037
0.258138135024752
0.2235730615557218
0.17142702219775008
0.11882112696861394
0.09074128660865567
0.07724387064392386
0.10349175751308841
0.13032246635896805
0.11040210961752435
0.09048175287608065
0.07056139613463695
0.050641039393193255
0.07420274480559955
0.10320337648701426
0.0914290785077421
0.1370140459744302
0.17628192739643378
0.20170924326493578
0.21064308767449727
0.20377001280057205
0.1848115625221598
0.1615552455183435
0.13813123918659106
0.11631712427580104
0.09621417652025707
0.07582236956320364
0.05713888484547533
0.04702984869915496
0.04894993987774044
0.06379351642646584
0.0883775644866354
0.1148302034767733
0.13927490752598284
0.1589891620376954
0.17288609061994487
0.1803112929047071
0.1801935751352377
0.17757550686369974
0.16645233597082965
0.14820068939660738
0.12115201136838613
0.08367088296898782
0.08264573768714704
0.08614569015535478
0.11353679962299561
0.16060786420783196
0.20123970386252754
0.25002243183870154
0.27162492143781786
0.28362632345117994
0.24506040744615448
0.25372233342632833
0.30201073471449524
0.49595224160875195
0.8357082099647437
0.8330184215690225
0.8072812148440859
0.6921660791700621
0.18436691184317866
0.1434732021919269
0.15726506397222118
0.1963944842413099
0.23493814005990576
0.2640466134776087
0.2586957485846212
0.2224875901377375
0.16901253109427578
0.11576620503869611
0.08797437660610101
0.07579470232958088
0.10362316102546652
0.13136025668396653
0.11144252823858646
0.09152479979320638
0.0716070713478263
0.05168934290244623
0.07880458819553006
0.11447160953120161
0.12438039730045607
0.14673248710208506
0.16455052573380347
0.17461152205561226
0.18084076153067402
0.1781597509817093
0.16816747913135732
0.15351579775260052
0.13346065313776062
0.11175195737344287
0.08717368705739792
0.060326750215178776
0.041952337168031234
0.034702074177694824
0.04121390401505199
0.060000251678169504
0.08138007808606106
0.10269507184937339
0.12216873387582153
0.1391914262821338
0.1528531564396553
0.16328796985559066
0.17188431578362354
0.16725282045172285
0.1486468496864363
0.12109768030738777
0.08928079974334122
0.07144048359893629
0.07761057072691824
0.09597286787836207
0.11989274634276208
0.14796637140855914
0.1915794466194947
0.22411013006460162
0.2437259468279648
0.21847539662270501
0.20475339556042052
0.19369620979855431
0.31136456826092396
0.5475253368958053
0.785095031255231
0.7923024499023686
0.7303893240351165
0.5788892248393157
0.19245829256361946
0.15632816615372003
0.1636840522484503
0.17390892509315078
0.19296840252116218
0.21280024997567096
0.2239728170312017
0.24106761770798646
0.22853176363855374
0.20034338998586657
0.16591598476538988
0.11472304276753727
0.10276352286962574
0.107213611198085
0.08678179654322526
0.06634998188836554
0.04591816723350581
0.02548635257864608
0.06983534288705211
0.09913938308315924
0.09188521337102701
0.13728961066690423
0.17539099844477224