# vtk DataFile Version 3.0
vtk output
ASCII
DATASET POLYDATA
POINTS 5568 float
7.457607447340398 0.15906068998929085 -19.916811704434306
7.712950768202178 0.06920202844044365 -18.945279326052063
7.829344952422308 0.021271205318044488 -18.295518889059817
7.913807171198304 -0.02372262942471981 -17.649304542049016
7.951218218220054 -0.059079648949735684 -17.013861998503494
7.931138104496299 -0.08125896279590711 -16.39016650150467
7.84693272122897 -0.08839038143460895 -15.77447104402024
7.685560967073242 -0.07842142643077538 -15.164528147335126
7.446348212658396 -0.05341518016860805 -14.57828069312275
7.131980864625016 -0.01415128511500166 -14.023169563330725
6.744855869489386 0.041049289866248555 -13.502296535692173
6.291411585487303 0.11208751008482667 -13.016301930657576
5.77858502184189 0.20001121242402448 -12.562161053769902
5.2085120553437205 0.30637729445636236 -12.13583765244612
4.585673985409223 0.4297149906416458 -11.7342732552465
3.9114294136947816 0.5658539578798125 -11.35357952476542
3.1954807436742962 0.7046655978744594 -10.990776785416639
2.454358884166613 0.8336253347974137 -10.638739584185313
1.704982460589365 0.9423857913046539 -10.285640128553329
0.9664814361848555 1.0249342917333357 -9.918153844943141
0.25709175477440294 1.0803942957065436 -9.523665831793474
-0.4063816718546802 1.1114188448185025 -9.093425232523298
-1.0094784025643087 1.1226280980413712 -8.624973321781104
-1.544134116773586 1.1161814730102424 -8.11784684503941
-2.0070010487583274 1.092420738948273 -7.574717544875237
-2.3978533739176977 1.049129588967953 -6.99774612508975
-2.7178756520381335 0.9820652717022573 -6.386637645334584
-2.9654911108601647 0.8869021697646733 -5.743411600045828
-3.1380982044545065 0.7643268058504481 -5.07724287305771
-3.239119323344539 0.6151854422095544 -4.3991643200659
-3.2810077810729976 0.44637206714555366 -3.715300054852193
-3.278105821855593 0.25904840957123587 -3.0252762146897907
-3.247995299920968 0.06563083978766787 -2.3081497328175185
-3.1997526364748214 -0.1347301111141365 -1.5255040367190436
-3.1369844872176054 -0.2328095618123295 -0.7640434884500663
-3.07112593083674 -0.2622078379303778 -0.05093687181991868
-3.0085102845927 -0.21494337013514167 0.6233292520458436
-2.959340983937804 -0.09181687216261368 1.2507559860007842
-2.9302347618262066 0.1420975787286642 1.8326105145784508
-2.917395394190709 0.4638456563141423 2.346293996445169
-2.9290305073056464 0.8689437735058123 2.8142942452332353
-2.9878328422517937 1.3345136837113993 3.2501794234454398
-3.0848362821780158 1.8479450753902495 3.7724643368833704
-3.208794775911234 2.2256684935801943 4.285244931502193
-3.3550388317082507 2.409347845290131 4.6537354059236025
-3.4114238938356194 2.44273106943376 4.942158463461444
-3.4601332731822025 2.1697040024517373 5.177538766182588
-3.48214924699005 1.5450852030533055 5.386307959420982
-3.4481449540139293 0.8427896603522577 5.549791262583011
-3.3178215896018006 0.0638572122944927 5.67399539208441
-3.0937275408099465 -0.7161522176942668 5.77244361049275
-2.7783799015201174 -1.4482310312409996 5.874743105918204
-2.3685371975082514 -2.1076287623156498 6.004397193166599
-1.872618634789744 -2.658078903133109 6.1853855583867166
-1.3082762275794355 -3.0883037775196147 6.42520160820106
-0.6954005295253977 -3.387855765066302 6.730491245665602
-0.03764114123645501 -3.576687925682943 7.1010440951244576
0.5915619131790828 -3.6321171122084097 7.541186466834081
1.3575451275941741 -3.5848791121719086 7.98511454466025
2.221256111092843 -3.447385849766856 8.435442493566695
3.317244295620944 -3.1571615093414587 8.897436401856735
4.6775355470907565 -2.6278432855988068 9.294383355096157
5.878085640312057 -1.9852598022843697 9.462182174380676
6.878616276225999 -1.3053997213669042 9.458942805331825
7.439207654773078 0.18246262503437138 -19.88911420713553
7.8811675933289145 -0.015929199458938614 -18.842128540749222
8.032197582534945 -0.09400505300250649 -18.21653806169006
8.128128179819308 -0.1443977215557719 -17.569250100530393
8.155542512099467 -0.16500950114797136 -16.914856197040574
8.105788094339312 -0.16167581529334055 -16.273861771481744
7.9785477294115035 -0.14153298111246676 -15.64818641120116
7.76730787007957 -0.10685738949898958 -15.047467408322266
7.484015773619019 -0.06326246478440703 -14.490730232905417
7.134787908076078 -0.011260987864032318 -13.975444913797007
6.721764171565466 0.051143688186414155 -13.497738796952516
6.25412924514262 0.12387719534515443 -13.05441518281776
5.744924170914112 0.20677792483143329 -12.63850927462647
5.199356354480925 0.2994377489522272 -12.238808701167866
4.615220669702465 0.40150262548691074 -11.844196474753597
3.98106723390357 0.5107804632507179 -11.447624522208853
3.295165300787044 0.6164836398619776 -11.058108881567419
2.562860253486108 0.7071968094869667 -10.676400354069578
1.7994410541856538 0.7762940184018309 -10.290589739029663
1.0325099117135437 0.820672847706681 -9.885797909336562
0.29301016210973196 0.8436715100221064 -9.448374195003566
-0.39042352404338443 0.8540474770022835 -8.971199648720177
-0.996731388822819 0.8625496298591135 -8.45576404242968
-1.5188922539909848 0.8753123265713916 -7.902662855818239
-1.960298751817255 0.8941054355344309 -7.312548376926329
-2.3281103966092633 0.9127691577253102 -6.681485241217104
-2.6261409957256614 0.9151810670573239 -6.011968846991537
-2.853934383269139 0.8860430330293151 -5.320660621232241
-3.0133160649652297 0.8318336677268179 -4.644494348744183
-3.1109896204382954 0.7306010060615016 -4.0017787174236465
-3.1521292729849386 0.5906816247340111 -3.3989817277952756
-3.153446192965608 0.3974111668176791 -2.8099848529667604
-3.1391327591949287 0.16182498036538678 -2.184430742365244
-3.1255040078852114 -0.15231135539081236 -1.379585037630831
-3.098494654498276 -0.28555939692175875 -0.5775802021815521
-3.070118200863465 -0.33455804506366643 0.1952596137882805
-3.0463661103139854 -0.2768804868707671 0.9264116050831334
-3.0290468473052776 -0.12899611447829615 1.5854770242103884
-3.017739459288023 0.12990811408273265 2.1642677670025856
-3.0034605400653325 0.4473722307706328 2.6397387670055315
-3.009600376293741 0.7907223280848465 3.042739608195398
-3.042151822197577 1.1633818354178018 3.343536282190843
-3.109535705507442 1.7764169510848613 3.9694337230647996
-3.160531662820353 2.251067425688072 4.640159393833503
-3.2900147221714926 2.380801409983717 4.995512713442225
-3.325870415139476 2.382040790335396 5.12967145910587
-3.3695948572339782 2.113515783056348 5.357025472718269
-3.3875715021569226 1.506421747878192 5.551133665628509
-3.3545845426041723 0.831058931514362 5.702498392747877
-3.2269208895774892 0.08073060761317219 5.822858483440909
-3.009835316285559 -0.6749915268501884 5.922912340802522
-2.708319931982801 -1.385078220628515 6.033749543281615
-2.318084320498688 -2.0261588047341217 6.179216345283028
-1.8477223384482442 -2.5614034954625797 6.3788242583415595
-1.316911604374827 -2.9762466036836885 6.633643176158932
-0.7433663815798093 -3.2613843472574673 6.952079772391217
-0.1286085038574195 -3.445433512847362 7.342276836409613
0.43154495011606575 -3.4769375041711053 7.878173880116191
1.1776655277680068 -3.410251646837703 8.354406171552709
2.054839281101845 -3.273022931243422 8.852853710822423
3.165210791712178 -2.9823623646960913 9.351621357408202
4.456909666648784 -2.4878067854120687 9.752782489334438
5.620751770028059 -1.8887074435262026 9.939384850686501
6.638084289249723 -1.2452825881183185 9.947326507611471
7.460388453067139 0.15552364384384706 -19.920997996117894
7.690019391737083 0.08072213477292822 -18.95833295600658
7.801169479912201 0.037381256686272256 -18.304559902467233
7.883905437585343 -0.006800084044030957 -17.65848792884853
7.922805424380908 -0.04435243778748339 -17.025837245706114
7.907131083236289 -0.07033118465654813 -16.404531811801363
7.82928908417989 -0.08152584713472341 -15.79001319576404
7.6753045062647605 -0.07526422592049353 -15.178270267806152
7.442644257183654 -0.053071977025926864 -14.587136844552978
7.13344049536601 -0.015737723647637147 -14.02560745970829
6.750117661065012 0.03838174122058814 -13.497875341818204
6.298729927905533 0.1091789904408138 -13.005179721386623
5.785312622362248 0.19788539479821782 -12.545093550542878
5.211479306892908 0.30637630567670826 -12.114665233146493
4.582639384652978 0.43302347289903453 -11.71203666121845
3.9020806915769843 0.5733391917632716 -11.333733406042708
3.1813213834177363 0.7172639243772334 -10.974918942797808
2.4386405215084848 0.8520445868063263 -10.62725957676551
1.6911627313153015 0.9667377612895641 -10.278939526154778
0.9567215037277977 1.054918638565609 -9.916882256441381
0.2516796876717763 1.115137977882211 -9.528648244766298
-0.40890010933616106 1.1491933778147188 -9.105270596851845
-1.0115842777124189 1.1608034084324337 -8.643706882834541
-1.5482467650053313 1.1515033736522353 -8.14326112213639
-2.0145875284631853 1.121409263188632 -7.60677136050911
-2.409229363628722 1.0689424135666943 -7.037192436517997
-2.7328365715969998 0.9916210254094057 -6.433951435755919
-2.9836126200447755 0.8866368238021964 -5.797187601282587
-3.1583759884039715 0.7535926842512056 -5.131947498918059
-3.2599342203018855 0.5969181418845981 -4.448241130858811
-3.301914987611763 0.42352150612645756 -3.75166603694568
-3.298322864450864 0.23729881841297243 -3.0455306517902248
-3.2656641213011595 0.05060163415717761 -2.3134705375054994
-3.212312319690653 -0.13344054742957076 -1.5330252266670286
-3.1442922908864803 -0.22638700144975787 -0.7773516385578936
-3.0730123603231916 -0.2529541513775156 -0.07283540777489816
-3.0047746368033588 -0.20719143172042898 0.5932568660169767
-2.9509239708745745 -0.08767460169714184 1.2161560269148333
-2.919136937343767 0.14252973795443535 1.798584915265701
-2.9065235570346557 0.4649229902228466 2.3182022610458572
-2.919054727234058 0.879800212302924 2.796452675802337
-2.9823471849941394 1.3604391064825836 3.25501818371454
-3.0833020970109337 1.8597302897911012 3.762605769699709
-3.2167920520640996 2.2244047307935526 4.254196008266526
[...]
CELL_DATA 87
SCALARS quad_param_group int 1
LOOKUP_TABLE default
3
1
3
1
2
3
1
1
1
2
2
1
2
2
2
0
0
3
1
3
3
2
3
2
2
1
0
3
3
1
2
3
3
3
3
2
2
2
0
0
0
1
1
1
3
0
0
3
3
3
3
1
3
3
3
0
0
2
1
1
0
2
2
0
3
3
2
1
0
0
3
1
2
2
1
1
2
1
0
0
0
0
0
0
2
3
3
SCALARS single_component_feature float 1
LOOKUP_TABLE default
-0.010355316855055884
-0.03548849244798467
-0.00655660526635682
-0.01736103995490649
0.002191197572338613
-0.01423463166905723
0.008523934489697522
0.007633332116928116
0.010823200503716844
0.00024985002348657664
0.05212516804153356
-0.02578441332999929
0.000879708638607821
0.004599052824921103
0.03874504604789081
0.0017334111221831566
-0.011645282995775351
0.015816915511469038
0.020903515198596363
-0.015460433265272924
-0.00018407121520389556
-0.02601414143547834
-0.010782022073892575
-0.0042666761077097045
-0.007373489213832594
-0.018453603823553207
-0.013271081480596521
-0.005580697527252959
-0.010992657521615191
0.007340772124597876
0.001128572789249816
0.004865285694409763
-0.02670027096983618
0.011271031252122456
0.023859121451625494
0.0280446267349476
0.015407560231378428
-0.010511771824447465
0.021108081317631627
0.0472327641136502
0.08446460782949597
-0.023115736453654844
-0.008897017924182331
-0.02051170810450764
0.008585243054193833
-0.04741198017929598
-0.05145212629072894
-0.011322453108989113
0.012208030255786373
0.00962470393181862
-0.012014261600551995
0.008448117209185136
0.005881608003866095
-0.024824630159513555
0.022911269914739137
-0.02848515205479421
0.03082612289329409
-0.010729054749481652
0.00644899039029815
-0.0142951975699111
0.005565195050684257
-0.014822596929801785
-0.025095761346202367
-0.03525062505697438
0.003609701501275967
0.017863793427528696
-0.03421166753372604
0.0055254484236711456
-0.0188789256783062
-0.05249489718482733
0.004339594642805533
0.01921904444165649
-0.002216521948828848
0.03669390894279743
0.024351443797843944
0.03183820030172919
0.03195143959202228
0.020738441606888064
0.0008414363175267524
-0.0009914959136140475
0.011562430014048955
0.030525082322279316
-0.01731433540080784
-0.05757839521659479
0.0058876614626109085
0.005259903140401015
0.01327767311369226
POINT_DATA 5568
SCALARS single_curvature float 1
LOOKUP_TABLE default
0.09378681305273347
0.1312877338452516
0.1275878337629353
0.15755381721982278
0.17917600223198832
0.19088234824841713
0.19500750530541827
0.18752391781590863
0.17072001259610664
0.14928662664928627
0.12500548068556566
0.10192956836197113
0.08133833702980975
0.062045987433554876
0.047203792955962665
0.0408101726338697
0.04500744521615232
0.060141976035238374
0.08242083722036503
0.10639426929941126
0.1279869155667707
0.14538374873651677
0.15784938804653093
0.16530429600121496
0.16828374621573475
0.16582550029120982
0.1546092542921376
0.13509109847379455
0.10502635905957469
0.07272198214092283
0.08364652114235073
0.09293934168081043
0.12373311544060442
0.16742583389206583
0.20104912354425455
0.24229263656312644
0.26069853189857495
0.25777561046156916
0.2007087193754729
0.19173392689818264
0.30915821415299855
0.6161682912033845
0.8211921711747983
0.8259915041487663
0.7724142946267495
0.5492882155637244
0.1917963135928239
0.15124350037283574
0.16126902544839267
0.18566416910819594
0.21607019327578653
0.24336089998175947
0.24727902145852262
0.24828457105513008
0.21991591180482364
0.17541818357955233
0.14367407629397788
0.10127790481650087
0.10133526935353573
0.11699108645219267
0.09636956906190812
0.07574805167162357
0.055126534281339026
0.03450501689105448
0.19396780853354897
0.24096274388207045
0.177923204955938
0.194463142720402
0.20439268437515573
0.20516482386770477
0.20142269362957166
0.18505676530104967
0.1593165787826761
0.12873962298967592
0.09655481727616375
0.07011336155100813
0.05571852426428307
0.04918686336356916
0.04508459496058776
0.04397971948226137
0.046899176247730545
0.058192241611612155
0.08046001364138843
0.10809148503078443
0.13186786040270396
0.14729870346365245
0.15364322767367075
0.1536851521375079
0.1491504130985124
0.15411749583976866
0.1627817423619013
0.16907938836485228
0.15115283133239937
0.11031155342456012
0.13086197510397904
0.1210975119740729
0.1543534514692517
0.20653721122964
0.22178632883157617
0.26588247244843577
0.2764476335170478
0.3255062143970076
0.2659006155027038
0.23810584715348462
0.5714811811663809
0.9772740899296568
0.9844969586211111
0.9855112700276508
0.966058175303847
0.3577337672224946
0.19550628708824933
0.15097199175707057
0.16221481213169883
0.18781112465101818
0.22152088675901385
0.25339798988551543
0.2570517938097567
0.2777604953625559
0.2640882398335075
0.21072010616523965
0.17981761846791988
0.11830622858031609
0.09940508422119264
0.11895745024393393
0.0971928596973217
0.07542826915070948
0.05366367860409725
0.03189908805748502
0.07993089762969462
0.11573909319338867
0.12026295468683112
0.1517353409165832
0.17512902191014446
0.18859783043964146
0.19398806139424474
0.18783651464179893
0.17229104972956205
0.1521148938713553
0.128916250518581
0.10633401927802312
0.08493502921830405
0.06384580559835026
0.047539163496893515
0.0403841085853547
0.04474344595256531
0.06056446448073912
0.08301335681723758
0.10668913192189176
0.12815711125108192
0.14583398454973365
0.1589561052702455
0.16723787257488956
0.1709798276575089
0.1679055692582517
0.15473852907124
0.13303663267022847
0.10274672834265491
0.07272736123839244
0.08093123061070762
0.09136671026258138
0.12006033458227561
0.16086706473128173
0.19770080891636363
0.23884443093174662
0.2584039805927146
0.25137516077600586
0.19603281352397467
0.19153076657019522
0.281680691529245
0.5587754413765078
0.806248868840427
0.8097742334309916
0.7647055604742296
0.5793008509804354
0.19125607162085922
0.15129300709855376
0.16115802695089676
0.18535074399932103
0.21525467124217457
0.24184744019404392
0.24576877697445806
0.24355073744625466
0.21391862049563043
0.17095905865772354
0.1391307853295572
0.09991937894341509
0.10180310869322366
0.11676958932114745
0.09631872445611293
0.07586785959107842
0.0554169947260439
0.03496612986100939
0.12064875878821718
0.1611166786869228
0.1415912414587416
0.16820428573763246
0.18650654682189693
0.19502517995825747
0.19686105304770166
0.1869025583503166
0.16771164696435392
0.14387847748830287
0.11752776739784895
0.09352713991276139
0.07451391510407596
0.05862634622816094
0.04659605278122282
0.04163726891726206
0.045514959445672014
0.05945977791521078
0.08155088622569198
0.10626712777170413
0.1282447062529872
0.14511097142670973
0.1561562764410738
0.16186016618578034
0.16316196081503023
0.16215921231960162
0.15523550740355052
0.14099795593866674
0.11237855222575394
0.07614305362152629
0.09127953009047862
0.09721068124476774
0.13077244674845742
0.17909570612423456
0.20709104685654392
0.24871915404392891
0.26501407110613157
0.2717745949300234
0.21325529796055287
0.1975312076207052
0.3705374905442708
0.7336226730946782
0.8619647123626205
0.8675202597223182
0.8040974377683744
0.49369174325226506
0.1928061351825507
0.15115687265802316
0.16149386442780353
0.1862488600097421
0.21757974148030956
0.2461560457787214
0.25004389332492905
0.25705115659771416
0.23184957066859196
0.1846484819742046
0.15309303032359486
0.10478711108047209
0.10058714397109603
0.11745186363111661
0.09651344844873168
0.07557503326634675
0.05463661808396182
0.03369820290157689
0.051927671530960395
0.08365795478987181
0.10527169001411969
0.1384579610089624
0.16566988365974267
0.1832609779059028
0.1916132398857889
0.18848577651200013
0.175740097372556
0.15834912081620345
0.13754364841466196
0.11607423162715667
0.09294012311308814
0.0678478583214347
0.04833391420089207
0.039473446238895996
0.04417856134096794
0.06169249356595477
0.08472521023984189
0.10801549815685527
0.1294275553420537
0.14771751313663506
0.16201357380412304
0.1718435712451863
0.17694242226749818
0.172851136910847
0.1561288722834684
0.13116216917415513
0.10128621755138902
0.0769149444155817
0.07786626073522149
0.08919543129741356
0.1120085489840623
0.14524674362698092
0.18982910037508408
0.23098793557682062
0.2532746760217421
0.239291880154573
0.1920814851722395
0.2006016596938535
0.23720372233159576
0.45283316000760293
0.7916470254309436
0.7902100353566369
0.7661908340227663
0.6466185095941758
0.19003062567740825
0.15141213331470052
0.16092882741399858
0.18463719567411496
0.21338437787267933
0.23837008888007274
0.2422650547377042
0.23313626100202173
0.20214080961147024
0.1629100312589456
0.13094207823666162
0.09855957626488797
0.10303876326532034
0.11633518430907579
0.09627289822254909
0.07621061213602238
0.056148326049495684
0.03608603996296898
0.10849657916273482
0.1476670006728764
0.13529492275622101
0.16347188088840633
0.1832586531191155
0.19318877779626623
0.19603864270262866
0.18718680111647576
0.16907159267776434
0.1463226987018555
0.12090756830645023
0.09732170993778543
0.0775900366089286
0.06016852196331525
0.04686571398848498
0.04126192035151878
0.045285631535609744
0.059749304835382586
0.08190459619657083
0.10625931730105963
0.128040863564514
0.1451458274912769
0.15685697993119863
0.163377082582354
0.16547046064470775
0.16376452503538366
0.15481135284097378
0.13801921415555876
0.10856771658850659
0.07403545028630323
0.08742702729736651
0.09505766084028852
0.12758332725679336
0.1739585466506782
0.20441726587637885
0.24583971000695617
0.2630762721537388
0.2651499140817121
0.20708141271006117
0.19415600757257861
0.34158857882304194
0.679961634076555
0.8418096135930244
0.8472849445403874
0.7869463930974215
0.5184763239572148
0.19235328517273598
0.15119470775439675
0.16139017748271284
0.18598680181252247
0.21690518339144008
0.24490813138650996
0.24881345548627473
0.25315076410594395
0.22641605569818618
0.18039978914391724
0.1487550510780246
0.10307379405781446
0.10090224065611905
0.11723785774307006
0.09644115946563937
0.07564446118820868
0.05484776291077799
0.0340510646333473
0.04176422413037538
0.07042198813841528
0.09741323300008667
0.1292679489379767
0.15875147835457964
0.17935325892467943
0.18987917113054967
0.18888958020274907
0.17808434144876276
0.16262022796862882
0.14346581349079446
0.12277903098087493
0.09849395454955766
0.07062721088753411
0.04893940848277185
0.03888818914287387
0.043822588847823564
0.06265626825929821
0.08628257925278875
0.10956340657931232
0.13113174685865098
0.14982354284314756
0.16465150162946643
0.17527649411261134
0.181016515907814
0.17648431634522718
0.15792827415285104
0.13190900637867828
0.10276655933845125
0.08284181691573589
0.0779677377540651
0.08868303492205673
0.10670345158862501
0.13370022116716104
0.18402460953474115
0.2253683299029475
0.2497225013561194
0.23248460202110577
0.19554404984289556
0.21614273652877183
0.2237308614275318
0.40257667978846084
0.796604601353197
0.7903194693436949
0.7788900604693885
0.6927196268105604
0.18915898623768101
0.15150152176462786
0.16078364224923167
0.1841266267812447
0.21203689414462668
0.23586130908002365
0.2397090856007046
0.22640123797719974
0.1959775400739411
0.1595998959811522
0.12758177025408737
0.09930970328984558
0.1040655332514067
0.116086239919125
0.09630028834426195
0.0765143367693989
0.05672838519453584
0.03694243361967278
0.04201923007293254
0.07111439894539466
0.09832654866866382
0.1305227364578157
0.15972589385380073
0.17990423587307053
0.19012348146820787
0.18883633573552772
0.1777625999852331
0.16203180255274763
0.14264912668936008
0.12185350504955718
0.09772512349346743
0.07024192769316208
0.04885214145428822
0.0389661038918201
0.04386920332436994
0.062512798551692
0.08604695077166843
0.10931530550754795
0.13085210237813732
0.14949018424722713
0.16426024933733363
0.1747903734277158
0.18045702958847407
0.1759738589365529
0.15764141527597114
0.13171602605585667
0.10245872597583813
0.08188975787424782
0.07784601684584004
0.08869812672156131
0.10740959852412749
0.13532093144692872
0.18484476890302332
0.22615522073111502
0.2502128895966355
0.23335614554199213
0.19473164361140644
0.21349314589966167
0.22456708721759353
0.40820664077531726
0.7952057118628525
0.789639470429953
0.77668714912129
0.6864056082713652
0.18928080980892792
0.15148883829017531
0.16080309100567544
0.18419816990582855
0.21222607840234145
0.23621363499705914
0.2400694246352797
0.2272935701298027
0.19670612384564098
0.15991984628686
0.12790608159561342
0.09911263617834379
0.10391460213410583
0.11611794053478333
0.0962934242153061
0.07646890789582886
0.05664439157635162
0.036819875256874385
0.04321229580473601
0.07073489218930465
0.09534877563808351
0.1261045934639012
0.15623584739288945
0.17792941585391436
0.18924803981587687
0.18902150839903467
0.17890280466340938
0.1641208947663126
0.14555000449482386
0.125142311125376
0.10046035188946754
0.07161398999953277
0.04916865922973444
0.038694472100697305
0.04370837165631989
0.06303907755933065
0.0869163240108585
0.11025016337722579
0.1319138122898938
0.15073933485032878
0.16569059617189613
0.17653470958583928
0.18243940243495227
0.177798537257638
0.15871389136582184
0.13252134686717978
0.10368668993237747
0.08545400657418638
0.07844955799650648
0.08874921416393762
0.10496607449388315
0.1295482968093817
0.18190302804827746
0.2233421485922466
0.2484712668942951
0.23035375354613977
0.19813919569270244
0.22368671948053476
0.22332615163292696
0.3903272218699795
0.8011992331603075
0.7930337524642684
0.785072900686781
0.7087362675940012
0.18884559944210466
0.15153439492851764
0.16073482390601604
0.18394227976062483
0.21154895133079465
0.23495251379562318
0.23877756518767138
0.22419191019090481
0.1943163726447277
0.1590044024355646
0.12697915828662537
0.0999557384925972
0.10446493323024707
0.11600938829283959
0.0963225053114299
0.0766356223300202
0.056948739348610514
0.03726185636720082
0.05741538753640438
0.09006918664488187
0.1082659420483821
0.14136896754089845
0.16778213179703091
0.18445279887464294
0.19214284354588976
0.18835055895768296
0.17499545882085338
0.15699913277641667
0.13567413990843677
0.11396083258546875
0.09119699721064363
0.06697651265285934
0.048154160336103626
0.039666199439202215
0.044297674449224826
0.06142253150110028
0.08430212690622149
0.10764098987500284
0.1290377248951488
0.14719644947551352
0.1612746483639356
0.1708053553623508
0.1756509077423568
0.17174120321295194
0.1557005874620895
0.13125925154431886
0.10121243697136305
0.07553959477879446
0.07820236243917496
0.08952718106182951
0.11373812036606745
0.1487641041038008
0.19159296133592857
0.23272192351834806
0.25439229667086044
0.24168402433358444
0.19209348592012865
0.19736815457705886
0.24463046686414072
0.4728441484858803
0.7926068385084731
0.7924823320157065
0.7639609644116825
0.631982761287456
0.1903003949970563
0.15138518346837926
0.16097668920963426
0.18479465155505256
0.21379853128587123
0.2391407123095016
0.24304549672728745
0.23535916343503546
0.2044604298586894
0.16438026007509765
0.13243645745642335
0.09863008357537653
0.10274593876730023
0.11642249917970832
0.09627459458254102
0.07612668998537372
0.05597878538820643
0.03583088079103913
0.1677858898779664
0.17914215311120907
0.11125317797304979
0.10236903322621208
0.1162898949575865
0.15291212720935587
0.178071696969357
0.189831964799086
0.19048601101590107
0.18665678071609138
0.1773484213433887
0.1614581126070898
0.13128009879392147
0.08999326438179199
0.057126566651712264
0.03990897598490874
0.046190948806602655
0.07336384752824557
0.10442201102264285
0.13317967777364217
0.15871279634941102
0.17764420898931738
0.188191219149316
0.19700966460379932
0.20119451799729848
0.19757828913494152
0.1771799004539247
0.15438997631708629
0.13064052319501904
0.14810070556951235
0.16446020462757913
0.1642038389050316
0.14773984922420197
0.12146316303613083
0.1465236651617312
0.1898514961458648
0.23090401842876124
0.21072753339089606
0.3992196586963323
0.522299424987579
0.5515067769813742
0.5925600637853795
0.9456392113019328
0.9262611291760681
0.917840914045842
0.9113643197019955
0.1834649172037497
0.15211033378574934
0.160113798008184
0.1806738170019478
0.20289051622798576
0.2188845729661236
0.22185841597252082
0.20725398493282307
0.20859275478203979
0.19435499009631718
0.16317527189207387
0.13552567109761918
0.1139124398307714
0.11582194237282302
0.09773069906803188
0.07963945576324073
0.06154821245844959
0.043456969153658445
0.1542777357551937
0.19800310078497974
0.158619583834148
0.1806977360882956
0.19503679000957833
0.19985558519591695
0.19903013726977636
0.1860846332569144
0.1639143366542659
0.13704757459832703
0.1080753862236287
0.08294433696391958
0.06598158149244586
0.05434320315254541
0.0458812255204811
0.042693418505263155
0.04614955887858599
0.05878950430886477
0.08085410520778448
0.10676546425276312
0.12945105052383005
0.14566143166691295
0.1546830844558419
0.15793499403086883
0.15677533282221978
0.15813080115264008
0.1576216711055025
0.15176821376696306
0.12700209711845084
0.0873077764282895
0.10599312274719067
0.10581954336752412
0.14045557783809656
0.19234884604615388
0.21409856200367502
0.25658421480245097
0.27030418774337195
0.29312999998106376
0.2340463573588798
0.21206107304200927
0.45850903519051195
0.8731619736713706
0.9253754701356857
0.9293563927512892
0.8739281160594048
0.42820476661916074
0.19404458193468166
0.1510628050092519
0.1618021352081399
0.18696504244230305
0.2194046094460875
0.24952094607651298
0.2533288430203821
0.2672108346286034
0.2469008601526716
0.19668352489629348
0.1654052945430468
0.11039650284993659
0.09989586464624836
0.11809551033192886
0.09677368229151777
0.07545185425110668
0.054130026210695584
0.03280819817028449
0.055570265357179356
0.08792545860070976
0.10726846155204157
0.14042117206644553
0.167097465776608
0.18406651057427334
0.1919711479797409
0.18839500029960485
0.17523837110074358
0.157439222518122
0.13628349097889986
0.11464951096889753
0.0917646309315895
0.06726024382261275
0.048212231579344164
0.03960303360962229
0.04425858431928731
0.0615088505745942
0.08443664194465711
0.10775740717979174
0.12915739856656688
0.14735905335693936
0.16151068341351774
0.17114131483770528
0.17607201337494524
0.1721008235524901
0.15583260529141935
0.13120922638110225
0.10121413392932316
0.07596048384574892
0.07807338449937169
0.0894107871431286
0.11317280445069133
0.14762537916587695
0.19102162709445705
0.23215876009371184
0.2540283080407629
0.24089104713065995
0.19203464137946213
0.1983391615526949
0.24206074998717403
0.4661228780689088
0.7921597021731207
0.7916207423063969
0.7645829840651042
0.6367538170110849
0.19021273573756786
0.15139389953512486
0.16096098060824382
0.1847435137727465
0.21366410567629154
0.23889061465804462
0.2427924570502584
0.23463112117924687
0.20368742447313998
0.16388149706868235
0.1319294181316213
0.09859209619976529
0.10283979915918603
0.11639360325545633
0.09627351950159324
0.07615343574773015
0.05603335199386705
0.03591326824000396
0.046194368681033646
0.0767668985362048
0.10191739883617446
0.1348982948862217
0.16304312206781468
0.18177827662859805
0.19095489017715325
0.18864614625148535
0.17664684118077534
0.1599969845901953
0.13982703589034895
0.11865756434383312
0.09507567383946376
0.06891574575301691
0.04856031629018935
0.03924267006753301
0.04403686139425178
0.062043671563976575
0.08528512882135403
0.10854490125112991
0.12999749215860326
0.14844538664048
0.16297637582808086
0.1731415607729273
0.17851724703873073
0.17423220053021868
0.15674438396083418
0.13126611098777452
0.10164291286498404
0.07892569083950812
0.07769418984848829
0.08889465118816213
0.10992196203358888
0.14085971230518338
0.18763030070759446
0.228844599675236
0.25190659013423405
0.23653134610467652
0.19276493333941971
0.2056071245828195
0.23007456253254494
0.43096264927340683
0.7921269260585128
0.7889319614642024
0.7701411137841091
0.6644640233172305
0.18969771666541307
0.15144588258453298
0.16087170055271602
0.18444253965492405
0.21287140767358012
0.2374152505469461
0.2412949788282633
0.23047402702378023
0.19953394400356553
0.16137339719393623
0.12938114718398616
0.09866642970703152
0.10341636136653892
0.11623406873518086
0.09627741203667317
0.07632075533816549
0.0563640986396578
0.036407441941150115
0.12131980901512263
0.13602467018334358
0.09742382667710994
0.10291076654068579
0.12704453416909994
0.16077999238408622