# vtk DataFile Version 3.0
vtk output
ASCII
DATASET POLYDATA
POINTS 5568 float
8.784381504259818 0.07410783160955257 -19.275574374259012
8.852110087611166 0.2207005108041516 -18.350833620588045
8.850400926861912 0.30858133119011993 -17.64841478767346
8.795933426184982 0.37870230055548004 -16.979227089282478
8.681525594368491 0.4403643524243999 -16.345662978322835
8.498042265494826 0.5012367895710264 -15.740811283716093
8.236961448711138 0.5643203121496181 -15.15799807672793
7.883636863212783 0.631085490955832 -14.587629243733401
7.432021596605839 0.7054874797611378 -14.033993681395005
6.885606251916725 0.7916258448354202 -13.506487544380654
6.25462083636886 0.8903504314231225 -13.016000225032764
5.556165444604177 0.9989454447100147 -12.568096782960973
4.8081309691574665 1.1141805664316944 -12.161895672048743
4.027333071926223 1.2329761477003702 -11.794145593550388
3.230965657915844 1.3499004546202549 -11.457388796120672
2.433810904395621 1.4597826097841171 -11.139068585485735
1.6483389527393348 1.5580499979148372 -10.81806765372918
0.889498154415069 1.636625111749182 -10.475264238240204
0.1660152194999982 1.6863897310168445 -10.098859127243841
-0.515189253810837 1.7018839602779627 -9.678471334630924
-1.1476882629902903 1.6814109946129001 -9.206634126515409
-1.7223125560317998 1.6253504929742992 -8.678596787205661
-2.2295776611431593 1.5363758503446656 -8.09554272554976
-2.662190274073662 1.4146922457748978 -7.4639400070616935
-3.0135209367546567 1.260116787878894 -6.7960345096051515
-3.2800084416446436 1.073441424708299 -6.108754357240515
-3.4635585282491648 0.8589724720362311 -5.412132210241403
-3.567266921512928 0.6176673202699411 -4.709278896590961
-3.5934689437583938 0.33974194731239693 -3.991666528799906
-3.553041727076936 0.05394248716598293 -3.269726893027203
-3.476385921936642 -0.22512720884826426 -2.5408287324377183
-3.381915063590356 -0.47318481967013193 -1.813456798780193
-3.2881304264503597 -0.6638307734651806 -1.064721149331112
-3.2009404366734553 -0.7903526879805411 -0.294784129158961
-3.120149834365901 -0.773308590712455 0.4175034547147425
-3.0439859754610863 -0.6649602968670925 1.0480453354923724
-2.9704430922691936 -0.4865768694001431 1.6227965563298292
-2.9066484924458327 -0.23678278718161494 2.149708795238344
-2.8602506894355377 0.09527092522839536 2.631758526917159
-2.830676675084283 0.4971874392939142 3.0583736150261145
-2.82053463591654 0.9821516929073246 3.4837569307275507
-2.904410104271495 1.5048637552144812 4.051179237592832
-3.0433020911770696 1.8864190610083598 4.621501307855002
-3.2156462688531615 2.05306213500127 5.093229343299145
-3.3699388780730914 2.0820350263636396 5.377897586395616
-3.4392438257826434 1.9879161919591932 5.640581343478831
-3.466302817282686 1.672931918054121 5.846498862413595
-3.4397375083983848 1.0228379689628213 6.018068641538149
-3.35895504605668 0.3255302716154175 6.147006511183999
-3.1843755510119505 -0.44420367416503526 6.231286987456684
-2.9232259184266622 -1.2133816381098304 6.282043892385026
-2.5772398454246344 -1.9404493177492097 6.329606371326228
-2.1415387399994943 -2.5998272628174597 6.400679727716993
-1.6204010030085398 -3.1593556611000655 6.521739720545524
-1.0260166321709092 -3.6156708752188633 6.699737618634136
-0.3825814421796562 -3.9434434923224075 6.947927525090787
0.30230447479690703 -4.153406188589979 7.268229486030275
0.9530123457347238 -4.225431568034355 7.654800649071154
1.7292135106833566 -4.18849275145193 8.078666991004036
2.6153643867395107 -4.038446724583924 8.540848524165884
3.8057443075937702 -3.7059884925964175 9.071625047616905
5.336031366743688 -3.08215443565187 9.577132564967718
6.651856681818826 -2.336453387722981 9.82191190081621
7.731066074040487 -1.5411326534501697 9.874708738139512
9.126997127420964 0.05454839541584512 -19.106070891674086
9.164841162041586 0.2529334001356491 -18.17879251663245
9.134966629869542 0.3749858851522896 -17.45922717700297
9.043880384360014 0.4761746346576971 -16.776423216033468
8.886241218262603 0.5662127458534274 -16.132786489144756
8.652785593054821 0.653109264251027 -15.521674196801733
8.334491872771876 0.7393281954379637 -14.936711342190641
7.916518446908409 0.825704680017231 -14.368630549713648
7.392401188409207 0.9174898514261577 -13.819384550948737
6.767116181658441 1.0199637956208336 -13.298430249994233
6.054536582950062 1.133449018901861 -12.81797966102576
5.276458826520013 1.254198430911643 -12.383966751390158
4.455547263888931 1.3774513780981892 -11.994868703015829
3.6137247418446705 1.4985942877880865 -11.646059655274465
2.77078580067963 1.6114671691783358 -11.327492779568367
1.9431445440980437 1.7112568848715672 -11.023801170756037
1.1416964888909047 1.7951373700674622 -10.710619088968805
0.3785713806939538 1.8565068940629965 -10.366761366896357
-0.34080445813808125 1.8869705390282325 -9.980342360312589
-1.0123364538085364 1.8812925249757833 -9.541125699619538
-1.631372703471261 1.837638447061921 -9.042225657567503
-2.1891246845556056 1.7560545220861403 -8.479451945284747
-2.675938686118743 1.639070584890629 -7.85500158966224
-3.0839504719397413 1.4866992479052117 -7.177515312801974
-3.40580248441396 1.2988208099261143 -6.462246781870433
-3.6377676603050326 1.0768176944737111 -5.730421420828657
-3.7825724097117264 0.8264642653078755 -4.995933631946416
-3.8450552692706546 0.5493577003128155 -4.26402454749661
-3.8292120625076267 0.23350203382786705 -3.5243905737956225
-3.749211661546012 -0.08646754114764421 -2.7887555666238026
-3.640006173512815 -0.3935146712723065 -2.052995223362048
-3.5215417163660554 -0.6592449823324602 -1.325161572568851
-3.412960114840429 -0.854179486977783 -0.5782510446580263
-3.319282899386623 -0.9730780235331091 0.19005196404545932
-3.2373004737196243 -0.9304457573176499 0.8959414094490006
-3.161726839579874 -0.7889684373348916 1.5157310632200853
-3.088594099508434 -0.5753760054988422 2.076269211069836
-3.0236064054009026 -0.2885136898358245 2.5868041326673614
-2.9742653671310793 0.07385653395096614 3.047765616404515
-2.9400969797021226 0.4984589492617315 3.451358165986411
-2.92368006989813 0.9985884108914349 3.8598728626538645
-3.0109610316246385 1.5254348468730168 4.445876856304307
-3.158965365050517 1.8843397224318856 5.042623974933415
-3.339587469619471 2.010024481798779 5.525107195618576
-3.497541347352966 2.001087330901567 5.796883921156446
-3.57030533177873 1.8700582865823074 6.045274828771203
-3.591171465885136 1.5433256642109094 6.243234775118969
-3.5514185071701525 0.8873830430880097 6.403762889794342
-3.458707916090001 0.1934772937956073 6.522711258683899
-3.2729040536764424 -0.5715447872923134 6.596423866919229
-3.0027504947974553 -1.3359988709924062 6.635137309597504
-2.650054249150941 -2.0600020544928475 6.66952283914888
-2.2094530381970667 -2.717883650217999 6.727188218957691
-1.6841653680587576 -3.278523171229248 6.8347790094690675
-1.0850693644473948 -3.740397389063875 6.998423357815224
-0.43745999945310987 -4.074214263727381 7.233416087695826
0.25003833027500855 -4.289212100746557 7.54300065292563
0.8978164966410979 -4.362857456517011 7.9251767608804204
1.6744203863415423 -4.32651974159138 8.347218778272206
2.5678619326614176 -4.173179231638878 8.817647264840192
3.785117241128164 -3.8292202605657595 9.371215498697026
5.353516580476143 -3.1836293701847236 9.907116330759454
6.696358830344266 -2.4148430047132803 10.175223436608421
7.798718814714458 -1.5921364600000132 10.244786332658402
7.416814792543108 0.15218026039042093 -19.952155664290167
7.607912047246938 0.09537337795178055 -19.00120186531023
7.713798076180505 0.05555550963139544 -18.341060484920853
7.798506867349738 0.008645026470901554 -17.695197516656084
7.845681692446275 -0.036477549456160975 -17.066503366343913
7.843909814590623 -0.07243264490650284 -16.447544896873488
7.7838263713068025 -0.09358142193053426 -15.832445307274075
7.649740361347811 -0.09609290443832114 -15.214363648129053
7.435837252247059 -0.08070933709093234 -14.61162253026438
7.143228431576021 -0.04840908921251497 -14.036133167557738
6.774257859204493 0.002385807929541156 -13.49387807168443
6.334103150840455 0.0715992975832615 -12.987004723140604
5.826935397331966 0.16091476226665707 -12.514029678102874
5.2529696965332535 0.27295071258682324 -12.07386018670639
4.618808186099619 0.4059555207491496 -11.666896623040012
3.9307224147975566 0.5549250978177838 -11.290652410984544
3.2033993742208233 0.7097386517710484 -10.937531366925457
2.458280223392348 0.8570439557518402 -10.59742445523357
1.7130197802415315 0.9847490932387912 -10.258527495144337
0.983444027546524 1.0856610654039607 -9.908082477085319
0.2829378659512558 1.1573277383732286 -9.533737392484419
-0.3762867755200172 1.2000787815932603 -9.125939405653027
-0.9824406407721741 1.2160426903368753 -8.68040760015542
-1.5272306322126856 1.20564602219529 -8.19572097307212
-2.004714008602803 1.168585785001149 -7.674629094081653
-2.4114763013808065 1.1043659424667989 -7.121006201500325
-2.747106748524305 1.0134408464257085 -6.53357695986314
-3.0091965030845356 0.8955530051995662 -5.909273943872816
-3.193364225318814 0.7485457547301485 -5.246296017791506
-3.3010235120972418 0.5825921663029389 -4.55297025310961
-3.3474176677963388 0.4045046317303249 -3.8340225757324826
-3.345850303630869 0.2225583540906235 -3.099016772636803
-3.3107587196499924 0.04828001835161369 -2.3400501327880625
-3.2495381240268504 -0.10911327788748962 -1.562348379487267
-3.172654991861484 -0.1971440017433184 -0.8149502671919711
-3.0919367923697245 -0.2238809770117137 -0.12225802217969839
-3.013903952397264 -0.18580546546620064 0.5335547833616598
-2.9520471088938676 -0.07750016744358768 1.1528828300191636
-2.9159785227554593 0.1424530919028862 1.7407997174360743
-2.9044069246121267 0.46324572339489073 2.2750743609706907
-2.919429394609707 0.8934717881281418 2.774083708465978
-2.990358756991851 1.4001934577306483 3.2707957547494377
-3.096753449479742 1.8793784130419535 3.7507631259680165
-3.2452410986249176 2.2298965187861643 4.207499630292123
-3.3993303672475554 2.445759305657891 4.586940876590598
[...]
CELL_DATA 87
SCALARS quad_param_group int 1
LOOKUP_TABLE default
3
1
3
1
2
3
1
1
1
2
2
1
2
2
2
0
0
3
1
3
3
2
3
2
2
1
0
3
3
1
2
3
3
3
3
2
2
2
0
0
0
1
1
1
3
0
0
3
3
3
3
1
3
3
3
0
0
2
1
1
0
2
2
0
3
3
2
1
0
0
3
1
2
2
1
1
2
1
0
0
0
0
0
0
2
3
3
SCALARS single_component_feature float 1
LOOKUP_TABLE default
0.1242388338513607
0.15650565533091265
-0.00455573348682047
0.05995069561759216
-0.1358339926669932
-0.17350954986164496
0.1395653435854395
0.0999511760083806
-0.05928412354950732
-0.04457296590975162
-0.21836421059269367
-0.29423776279871683
-0.27422954676622385
-0.020837876804534965
-0.18858831563742295
-0.30793618461342825
-0.31915947702678993
-0.08216073959249567
-0.19505726063032625
0.1039377740268227
0.19388950670287486
-0.030121180771949762
-0.002311147791376124
0.27652402036848006
0.18730238803871038
-0.40411718772706734
-0.3194918910439173
0.3093780904532673
0.20694500932647628
-0.00023920841389818426
0.10257156954819323
0.016830213514856786
0.03216894523661343
0.07325866341122908
0.017880553396190144
-0.32347218115599197
-0.2925555296398404
0.0013156692635465095
-0.01403155911843253
0.43066814818783644
0.48890305835866
0.12385426138385122
0.07292367775549305
0.2623142332414531
0.187423405241419
0.11897858461339603
0.21957517072113458
-0.03639275878074466
-0.012269010289322466
0.04371622037191908
0.0038993897247005666
-0.07891070973306599
-0.09172608878481257
-0.05520141517964203
0.024963022853084285
0.16073232004603447
0.23464290718664063
0.17447135116826604
0.25557840107828805
0.24401413562120813
-0.3607207027640999
-0.3708664196549143
-0.3103594656801506
-0.2878812641733836
-0.07348004657542398
-0.008855133332385315
0.1075322497618931
0.17301702657595086
0.08484494401154542
0.07364741464617626
0.05884695465633596
-0.017303667532846838
-0.2235087421546813
-0.26401373331906064
-0.10567341843923046
-0.05593992180665938
0.03339699878596083
0.07320402377006409
0.03362943638748653
-0.062249113337886255
0.016689772195328998
0.05034285828422935
-0.011845557321558009
0.2467519575200248
0.22677124007368388
-0.11902565572898849
-0.0766568217143308
POINT_DATA 5568
SCALARS single_curvature float 1
LOOKUP_TABLE default
0.10827650695404069
0.15362791675383206
0.16371308191734033
0.1786126290808619
0.18135674697984486
0.1718220212233604
0.1552110660065424
0.13479653414216033
0.1135534294836345
0.09352765630765911
0.07365921164720216
0.05403963642902887
0.03788716399632744
0.0346153206467452
0.04338110828074021
0.06392394890298829
0.09121948559586217
0.11418303098381921
0.13215060429768907
0.14458274727836462
0.152637617603546
0.1566025844472686
0.15707107009414725
0.15514419128039703
0.1504894687598543
0.1381616362779247
0.11457844181057525
0.09177638000510435
0.08178448090237957
0.0815525896887375
0.1364086510414734
0.18329952398113336
0.21365539051405597
0.2466330181735769
0.2451127615025936
0.24806327939096168
0.22813392908470712
0.2104903482033209
0.21173239796287185
0.3085264194007357
0.5506623223648129
0.7751236052403163
0.85460573103002
0.8251476994382911
0.702087705860124
0.4227309134438613
0.172894879892484
0.14073950691923692
0.1513497715722877
0.17251884971054246
0.1963305570212097
0.22471848661291446
0.23546426292417788
0.24407089458135683
0.22117606725858258
0.18033853311638307
0.14083898560048366
0.09098227601801005
0.09067591294886275
0.10293324497655648
0.08673898690981825
0.07054472884308002
0.054350470776341794
0.038156212709603565
0.11649907588917639
0.1629095188150961
0.17038134658077547
0.1800105805429113
0.176918494222625
0.16216895955959662
0.1418256099732079
0.1198439202374896
0.09922984419826004
0.08062701143961075
0.062225581444743515
0.04425843856004881
0.03443054654200926
0.03820733585223504
0.053771020156589494
0.07997609905736232
0.10678405962430369
0.12718700445717362
0.14137765279804843
0.1492955427275944
0.15301853341959792
0.1533260049572904
0.1511232142293464
0.14750993590278827
0.1417083781725676
0.1284887543284559
0.10440288885398089
0.08498770237081257
0.08282291539883546
0.09066556800183588
0.1586738212119155
0.2117121582822745
0.2403172741875118
0.26951525408864396
0.25517305990095795
0.2475558261081831
0.21746488348791423
0.20637798789846484
0.2221726033661983
0.3412018695562863
0.6306913484001225
0.8130984093334651
0.8669072536892073
0.8322404493856866
0.6713156172738447
0.383165259380938
0.1683977224376366
0.13780634686916235
0.14851340890934134
0.16895491153744402
0.19134053221224442
0.2204425527190488
0.23307772103883662
0.24641264092483192
0.22569328441866793
0.18505118545562732
0.14379879873004522
0.08948566381638527
0.08807166391095331
0.09976373872472036
0.08441554835672586
0.06906735798873137
0.05371916762073688
0.03837097725274238
0.0560133730814725
0.08818001266389089
0.10618297131333258
0.1397431679831516
0.16671726443862675
0.18414797136897848
0.19273864326699883
0.18971939846719346
0.17695780056809812
0.15930746108014004
0.13807315602022752
0.11632509954043874
0.09354339259545355
0.06925870045875039
0.049777598509621226
0.04027782844954267
0.043781972106346094
0.059840600401731274
0.08236094792755139
0.10583106969770198
0.1275407901291884
0.14612113472673324
0.16068858015674467
0.17068973134918905
0.17596179164831466
0.1725229216933022
0.15701550555909677
0.13292261398132665
0.10277559988562264
0.07646085159342335
0.0775815066801666
0.0874369524891176
0.1110087149892345
0.14579877057164692
0.1896923982940126
0.2319863937105611
0.25505332466512454
0.2444395920104851
0.1936026999226165
0.1957231271653514
0.239582446654717
0.4633372517393239
0.7924259862022132
0.7936022985473147
0.7664042177653212
0.6385774882370369
0.1909637161229813
0.151744122263641
0.16129320097223152
0.1852177826148243
0.2144357268718872
0.23970766181718356
0.2433781861710778
0.2353599670620036
0.20420598995955333
0.16408795073515967
0.13245135285250054
0.09899692425945002
0.10321911387896739
0.11697194789438198
0.09664247768848504
0.0763130074825881
0.055983537276691156
0.035654067070794215
0.08519858732033127
0.1253806072531187
0.1397078004375809
0.16495110847396185
0.1805657807302144
0.18425658441567913
0.17885034087333432
0.1650167192029792
0.14536887653507422
0.12435280210484524
0.1025914011866615
0.08150070660797401
0.05954937937763126
0.041785983467633674
0.03576900531999478
0.04175465601509041
0.0607771312853775
0.08604465851110554
0.10903380063141213
0.12869626353034058
0.14464103395979339
0.156260199187207
0.16337633983273492
0.16654547474214926
0.16587989695728034
0.15693945142221463
0.1362011084678991
0.11019703727487294
0.08645513005713228
0.07095865164445592
0.09848751144954855
0.12869584177039253
0.15930393372593388
0.19638187043438188
0.21938036630749366
0.24323813917895598
0.24481365416548126
0.2197836831032587
0.19146943597740995
0.23849311338569779
0.36959295358453437
0.6413166804532479
0.8163340996104532
0.800458664787995
0.7364425191428053
0.5213471407068883
0.1819539227410536
0.14640912059510797
0.1566070154255086
0.17918491395808717
0.20576324255748812
0.23264292957303068
0.23975361460045233
0.23959265571616306
0.2124726013463153
0.17167490428028734
0.13591866330259653
0.09453658335089943
0.0964725556449119
0.10964848280693257
0.09155699645979407
0.07346551011265556
0.05537402376551706
0.03728253741837856
0.02233831998620216
0.0400352553032908
0.0568085535823567
0.0867900484592319
0.11949710538047353
0.14848330564520268
0.1757683894279706
0.19587419090438532
0.20964533345594422
0.21604917221675923
0.21037060876333982
0.19536204693919876
0.1727206849290339
0.14404021924761157
0.11379595696404572
0.08409230481990809
0.05905427849483245
0.04482354389220597
0.04405236325641612
0.056944857495100164
0.07982611987649307
0.10585186510007659
0.13174079212248171
0.1546007970922944
0.17242611834999114
0.18287920174703
0.18311533137308356
0.17298540435403953
0.1561533987084758
0.133876411394662
0.10608048164985523
0.07948066662856558
0.07083481651310225
0.07824295430133528
0.13420358203694135
0.19835866584333187
0.2584401544680651
0.3311404649231331
0.3019311825198857
0.2580639574498811
0.2241030254644026
0.24039103908651666
0.8574258997823716
0.8734304538798325
0.8720081174073607
0.8486669176801696
0.2080816369371178
0.1610195042858843
0.16877540937023458
0.19517424214316476
0.2291686039547803
0.25097762018134645
0.24842684867563133
0.2277533633584961
0.1893087999670291
0.15282131126491424
0.13091327692552204
0.11153012632772195
0.12043648961919029
0.1339816094642197
0.10773798274285887
0.08149435602149804
0.05525072930013722
0.029007102578776395
0.030390663969883262
0.04580373270653509
0.05372719645421733
0.07725491870010291
0.1067895567939696
0.13412590782867093
0.16210146397817926
0.18612188765828225
0.20743513865552257
0.2231932015267313
0.2256304156169811
0.21584947468299467
0.1951753211578491
0.16573715379305787
0.13318172805741066
0.10034680757938927
0.07006644184552802
0.04834659774451159
0.04053298692720354
0.04748891326083701
0.06722482909744329
0.09334957894533186
0.12063835562543433
0.1456520250586152
0.16589009923092393
0.17977982678467205
0.1848730488962621
0.18020664646098092
0.17019185138277504
0.15250721697967737
0.12583123288415332
0.09230854118202718
0.07429295358236888
0.0726226082203127
0.12214836097776219
0.1877641298046039
0.2560398362866823
0.35898021250044093
0.33839566249986763
0.29099153225465485
0.24698746925413242
0.20939853236297956
0.8853521875108762
0.900217194906256
0.9004907910590519
0.8877675965342927
0.21250216660092258
0.16320947700700425
0.17038028991298587
0.19741105083011373
0.23259427273229302
0.2533840211079961
0.24926379249796995
0.22589657201778915
0.1856434421164009
0.15079624069219813
0.13208452080379302
0.11614645786130523
0.1263804006416269
0.139462996843016
0.11109397027742152
0.08272494371182704
0.05435591714623256
0.025986890580638078
0.11248469258363271
0.1584718121482892
0.16735674365411451
0.17972972929804373
0.17961011385122047
0.16744866343413328
0.1488952984200974
0.1276018302362052
0.10656809010459706
0.08716703456827515
0.06795730586426425
0.048960569129707115
0.03580420232797196
0.035936154703574204
0.0480069503297516
0.07147818517893621
0.09866085982487735
0.12049421409118052
0.13675761407097903
0.14710140097725144
0.15310941425088825
0.15530438914224984
0.15443904308089085
0.15163684111487022
0.14636791203801902
0.1335534318271228
0.1096544875300637
0.08835023804716466
0.08204339027077308
0.08563850318092354
0.14682453302711182
0.19682428722349574
0.22646635850746266
0.2577817502790026
0.2501802957913533
0.2480786834672698
0.22324044754761402
0.20858726216865198
0.2168363941225243
0.3246120419406754
0.5907785404633702
0.7955713465952449
0.861364158559836
0.8293735724934514
0.6889212486285711
0.40307397342598655
0.17075124405237543
0.13935156183771355
0.15001793823352608
0.17084293879967838
0.19397982720961818
0.2227108241144295
0.2343492108588194
0.2451753144561352
0.2233101781308984
0.1825485785697074
0.14220627444906375
0.09024932587544103
0.08941521733704974
0.10141171304920972
0.08562747757328526
0.0698432420973608
0.05405900662143634
0.03827477114551188
0.10052838826606517
0.14438180954259244
0.15621027405960133
0.1751230446701189
0.1826514424591229
0.17776934939787373
0.16485083063159192
0.14636448807969654
0.12520043193774677
0.10443800945202263
0.08367080484229249
0.06337442384220178
0.043267863532039604
0.03444517287175013
0.03775008181348386
0.05309137436251538
0.07938078739515454
0.10377667541798584
0.12407607671037138
0.13956186020247002
0.15076661336273792
0.15761408449286382
0.16041672046753488
0.1601532937740679
0.15673886122754213
0.1454303218026179
0.12263383131153
0.09798885344584435
0.08237313991068156
0.07616322355128621
0.12077380391760899
0.16202366500009335
0.19304568375317765
0.22814222241243892
0.23613772586887413
0.24711255752546543
0.23518778407662944
0.21346472810166184
0.2034196999546953
0.2817391026708642
0.4821879590186667
0.7333927331428132
0.8412172332333991
0.8162365120900226
0.7181809538987791
0.45703733059941115
0.17631077108624033
0.14291398831464758
0.15340031325541967
0.1751085272270189
0.19997863707229405
0.22780933077912766
0.23716006295331238
0.24234970948102819
0.2178390749193957
0.17694662807902592
0.13882106292223115
0.09223041152749813
0.09276603225473748
0.10540564420218052
0.08852965721633875
0.07165367023049699
0.05477768324465522
0.037901696258813455
0.03091978019873859
0.05604505825438944
0.07743606406796245
0.11531958858298277
0.14799712698153933
0.17377495559307027
0.19296345159137093
0.20054506694759622
0.19769963540619429
0.18753714848821174
0.170100957964775
0.1492769587377296
0.1258008928469888
0.09964150073278544
0.07427667584499659
0.05355228400888423
0.043917463361064
0.04705740662832675
0.06157249355891114
0.08406255159278832
0.10826448568113896
0.13124323422954132
0.151570598109064
0.16762024749269472
0.1785473193394668
0.18087169412804907
0.17136538404571502
0.15183005610594036
0.12439650261289728
0.09640083994495242
0.07894319190778619
0.07188627288472178
0.08306052015239876
0.1086641910433982
0.1647370794376377
0.21906598984542483
0.25900201461474004
0.2780039282505045
0.22877983294459436
0.20411104441182243
0.20370310852744858
0.3409164684584064
0.8050761961774906
0.8169493490265701
0.8061743934698296
0.7373161042452806
0.19836608323206506
0.15589942233527657
0.16476103920744836
0.18976479598995522
0.22108330718524746
0.24493523619267868
0.24587631927404582
0.2320023893746213
0.1976392829779485
0.15865187384325388
0.13083106088142604
0.10360488661184981
0.10978205356237991
0.12369539143926421
0.1011499965903279
0.0786046017413916
0.05605920689245529
0.033513812043518984
0.037372212883762856
0.0643056511751809
0.08479549196333697
0.1218005070490588
0.15339133385564957
0.17738186296398376
0.19402115590080493
0.1987662087364815
0.19296737160818134
0.1803663374961867
0.16154070682891322
0.14026007140413319
0.11692676970999076
0.0912712763011769
0.06706326890553477
0.04898738052440721
0.042798199992239785
0.049451961198977365
0.06665688233124617
0.08992432188608641
0.11369903121329128
0.13566543694688743
0.1545550495207986
0.16902430735812976
0.1784382089049684
0.17916149480587898
0.16792839065588877
0.14695585624526422
0.11823680179588093
0.0900301483372546
0.07697516008614681
0.07429922372875285
0.08913893499595599
0.11776880114844707
0.17128132344887612
0.22275710159893866
0.25833297498532154
0.2684269555376891
0.21655370206428223
0.19792688127668032
0.2072036354576881
0.3688507561114011
0.798733048593113
0.8083658071963451
0.7942412472275672
0.7117594703352412
0.19640676196648443
0.15482007330215117
0.16387662175257536
0.18859654967426837
0.21936452411519203
0.24360227236219095
0.24525878467803325
0.23288152989937883
0.19935924895109786
0.1600156595390814
0.13113796351692988
0.10228544757436359
0.10793654630580662
0.12183924327030618
0.09992131167398616
0.07800338007766613
0.05608544848134611
0.03416751688502609
0.040608923914551565
0.05423436447031691
0.05210689209805313
0.06923178289800917
0.0935098515909145
0.11727073248255555
0.14387877252049266
0.17030374210653243
0.1988584677124579
0.22539530632738025
0.23857101242006684
0.23684136028683475
0.22021765195416254
0.19077693267961648
0.15558300909514503
0.11903438768000948
0.08392417168960943
0.05464117938759969
0.03939227257194657
0.03978032937874239
0.0546142050801674
0.07960112983343647
0.10745628810599643
0.13390854792223986
0.15600123356862608
0.17317665812185806
0.1836946773178976
0.18585895323731674
0.18481459709425635
0.17359900063874092
0.14951565083509175
0.11048008297032968
0.08196205259890502
0.0699593130410337
0.11082453643524663
0.1752180839153908
0.2517188699904894
0.3937939779126767
0.3810992561895501
0.3328616698090277
0.2802551594146531
0.18162693308375313
0.9139011202863249
0.9264340353695674
0.927595555295788
0.9217687183410226
0.21739184638589604
0.1655136098154401
0.17196681165665892
0.1996987547836185
0.23617633839958543
0.25574874406163367
0.2498936723040179
0.22392440401467062
0.18170799906951474
0.14917402577584474
0.13455414355639095
0.12232809529026582
0.1341160493810033
0.14638720938837074
0.11517875847073039
0.08397030755309004
0.05276185663544969
0.021553405717809337
0.05405583078081638
0.06592544030806446
0.05042444137765797
0.05971832607531828
0.07534755873935992
0.09193874408671225
0.11332657716421941
0.1391909267016126
0.17454069237698125
0.21579326849785785
0.2471688098398598
0.2619344324674895
0.2561693638648875
0.22972447926960435
0.19095309846549738
0.1477818714358702
0.10519711709801989
0.06673497673822743
0.04154722976825468
0.03307214130332766
0.04009179189836134
0.06039663981184708
0.08704890631377393
0.11356044253549334
0.13650583871007402
0.15702780771833258
0.17509906682550716
0.18869943474085382
0.20399780907774828
0.2054400506740973
0.18605153891747067
0.1416520802356325
0.09704038306813678
0.06899499747706064
0.0963186621123996
0.15481284078055566
0.24157535003372826
0.4576761454232126
0.45281450130551715
0.40833305228920563
0.3474812793973212
0.14764618089592174
0.9471988684153171
0.9558636434483789
0.9573109195344178
0.9560773992252312
0.22461144916632714
0.1686336238987639
0.17384908265557414
0.20263200852341973
0.2409791425097409
0.2585009813375856
0.2500491565336708
0.22124676812278088
0.17621224044567074
0.1484887927853158
0.14162305152664695
0.1346668362221469
0.14897908080819078
0.15919449603178928
0.12228231254208276
0.08537012905237623
0.048457945562669705
0.011545762072963178
0.0511373525772717
0.06338205554691145
0.05092629858885455
0.06195751284539652
0.07966798387795015
0.09812063960524009
0.12106062989155258
0.14751627386046773
0.18174519797316555
0.21968689665780308
0.2464405306645071
0.25665371043863394
0.24759962539106134
0.21996962717986712
0.18198653771673257
0.14059491505704969
0.10000101824311627
0.06360529553132269
0.040717090968305746
0.03428236746641982
0.04317478196392725
0.06493110361996134
0.09211295335464366
0.11885018257243606
0.14181191670324314
0.16171509351538946
0.17803203455255112
0.18869571158193385
0.1996067266907801
0.19755613640417383
0.17695738026542257
0.13373482552378715
0.09317167526102453
0.06918194587234605
0.09983579782105198
0.16005671527769053
0.2445402132717665
0.44016961963807955
0.4338314370365104
0.3879247902545004
0.32856321019564927
0.15552155588011585
0.9401493587450481
0.9497259009808331
0.9511722438519769
0.9492253612541041
0.22284457772699318
0.16790700889678953
0.17344987356849292
0.20197271148143042
0.23986714876113144
0.25792735482359136
0.25011881549022164
0.22186932827893177
0.1775145882749294
0.14841310473932298
0.13939013858869245
0.1311682240286073
0.14483084878349226
0.1556743383632389
0.12038781084210487
0.08510128332097083
0.049814755799836796
0.01452822827870276
0.04833656235603056
0.07834170457884619
0.09733384837112209
0.13247117075494072
0.16160243752919998
0.1819726579171229
0.19399456733346132
0.1941062595750609
0.18396073953094183
0.1680785449002059
0.14759454284433532
0.12591895127343428
0.1028993820952973
0.07804047805235863
0.056263328508435066
0.04308629919987032
0.04260940776829905
0.0549083596375303
0.0757320145438468
0.09941875589612195
0.12212162071593721
0.14218519974347074
0.15857055497630643
0.17040296866882612
0.17734889330794085
0.17555655316118873
0.16170560300104062
0.13873242758928483
0.10873792414126497
0.08116699393204943
0.07621150352704652
0.08088575073933627
0.10120037379202174
0.13391906808032275
0.18212425508425223
0.2283942708842801
0.25665485640401536
0.2537242385269699
0.20078321610568448
0.1937061391819648
0.22187722227683063
0.42175436175616304
0.7929048586945721
0.7978955281964115
0.7767936763090416
0.6687851544876949
0.1931963456217477
0.15301942633740404
0.1623752698491116
0.18662744017698807
0.21648494702683152
0.24133902022253162
0.24417836775476084
0.2343368505659039
0.2022055524382527
0.16236881422589977
0.1318348853572951
0.10028350122678577
0.10508649786997445
0.11892098734295423
0.09796526982434794
0.07700955230574166
0.05605383478713538
0.0350981172685291
0.0338909667059414
0.048607770822528165
0.05301274745049816
0.07422951329358284
0.10209667791875934
0.12837280168845314
0.15611365300310712
0.18121063205366775
0.2052021256070007
0.2246793328427467