# vtk DataFile Version 3.0
vtk output
ASCII
DATASET POLYDATA
POINTS 5568 float
8.49239421540981 0.25779708574006616 -20.849578340625406
8.556595810629734 0.14464839925747977 -19.67838747031824
8.461275727743029 0.07605493025748553 -19.00861522989214
8.31238005090345 0.008193192580897249 -18.341177100526735
8.110841513516723 -0.04878214809762174 -17.690408793094306
7.85609474316542 -0.08587207871702979 -17.0700253833015
7.557413980079606 -0.09812677715138367 -16.483664728901935
7.225673260974972 -0.08226471780311731 -15.936880474363917
6.866560165148982 -0.0424617599928033 -15.43207835603795
6.481558148542092 0.013403199187655625 -14.965995146059974
6.071432669614583 0.07944124580908568 -14.531531217664767
5.635312204593207 0.1491335703259947 -14.119354402409957
5.173349456054184 0.21831744166838937 -13.718978664129125
4.6781446350544105 0.2862264961153843 -13.314613701046337
4.139245163413146 0.3541598184268324 -12.89352514263482
3.540735887168953 0.4235313944121114 -12.45064927098142
2.889849681853289 0.48996650866106145 -11.993721876447443
2.209578762930121 0.5460463587931187 -11.526802100459259
1.5229232095284297 0.5859891152581502 -11.04992030621779
0.8521728063774668 0.6060869638284264 -10.562921998634609
0.21765250622116616 0.604952654456287 -10.063905676993711
-0.36235407001691655 0.5833076653108102 -9.550258579161776
-0.8706787787077835 0.5447086791180566 -9.021903370766635
-1.2995207154707282 0.49235931767991536 -8.47605159646422
-1.6470357816442793 0.4297684014795284 -7.912664023787684
-1.9174004692692725 0.36152812941949913 -7.333721198441675
-2.1229588116526688 0.29198775849423125 -6.737381985355367
-2.2765468696692395 0.22444682978366676 -6.120079673767784
-2.38660172361777 0.1597484234187836 -5.4747770019211215
-2.4582229264349817 0.1023209288764757 -4.7904902293502705
-2.494480768468507 0.05107251106673147 -4.0624248456326635
-2.4861980565335253 -0.008153077651449875 -3.2900527413228176
-2.4325976966131773 -0.04706462951644524 -2.4773808661519188
-2.3336444930759708 -0.03245010976794942 -1.6829011978916246
-2.212194202010345 -0.011113565990178789 -0.8817915670851472
-2.085710643261266 0.07903728941148655 -0.09086263245544479
-1.9653420742244203 0.24511342733261823 0.6797154300785896
-1.869157274517175 0.5111100307341904 1.4070870317590682
-1.8126355394510425 0.8547071288179655 2.089963193258744
-1.8042755682350744 1.2953315032192427 2.7278948636652953
-1.8449946323081992 1.8365331944281527 3.317390937465711
-1.9827754437908836 2.37090131496172 3.8924306674468907
-2.1697775046096894 2.893023191169406 4.595781242362272
-2.4538480947558026 3.2519718589611446 5.163475041073888
-2.785393997019727 3.5178424803802684 5.885989205108465
-2.9786110295041706 3.464218904361878 6.38327466521611
-3.1281472404299637 2.925517162704829 6.638756291621683
-3.1674791799129864 2.278502926050302 6.8746272647086135
-3.131033697734866 1.5611574015533338 7.065988892555842
-2.9748514114210574 0.7666925693442248 7.213812816524476
-2.711841008490372 -0.024114629798558274 7.331623625771762
-2.3562457868651343 -0.7545292110659299 7.448637407094203
-1.9110806654093278 -1.4046273100128968 7.58060050054634
-1.3900708855833128 -1.9462610654065555 7.743340120119313
-0.8086065604061333 -2.380413780070594 7.93578317049352
-0.16740294589148552 -2.7086549609906174 8.164298717404625
0.5382891722270052 -2.928916557011319 8.433812963248533
1.2932658061667501 -3.0542013947815168 8.724613545702113
2.092721845054692 -3.089000080753106 9.076632920148272
2.9848038615972774 -3.0265523254050026 9.479264271409754
4.176508445837251 -2.820516752957674 9.957145964541192
5.670393171834133 -2.3803147056896146 10.4701344930235
7.098157869823154 -1.738777680863894 10.812049235696664
8.315502240989359 -0.9927151727851402 10.917821448886482
8.034235433886403 0.20945767394626447 -20.438631662841964
8.155921288745137 0.12629412360613468 -19.372175378092514
8.149092335108268 0.07316096976117778 -18.713622519133256
8.104312194132293 0.017454771062491298 -18.06534345016736
8.01503631839197 -0.03158509664702591 -17.4352569365985
7.875231155357993 -0.06599311136678283 -16.82673586889825
7.68485616886966 -0.08070326071110137 -16.237904707519007
7.441492403511114 -0.0721131743789733 -15.667830010610494
7.145909729794596 -0.04251603373184108 -15.125777010516645
6.79981951708517 0.003525832529680424 -14.615606646537918
6.405050092685676 0.06344159074926467 -14.136458624116452
5.963907451470508 0.1334259150265292 -13.684510189265483
5.478915314153136 0.21166040648292056 -13.253605971615707
4.946790396842103 0.29864483251997 -12.834708761314086
4.365139312593079 0.3943506527009651 -12.421268600023911
3.7279234680750593 0.49763095177127836 -12.00978243511279
3.0454557632454264 0.6017905851061847 -11.601089858852644
2.339732067460701 0.6969166743026394 -11.19269171602055
1.6309755510745914 0.7744640978441654 -10.779135231051596
0.9381903584162159 0.8291309937048451 -10.35439099041526
0.27838203046672194 0.8589713616651298 -9.91174515635766
-0.332860215202442 0.8644562690759788 -9.4454925809757
-0.8805943818704605 0.8484725234424937 -8.953840762161557
-1.356667864901161 0.8130572714238071 -8.434964323224754
-1.757395731683146 0.7601422324061535 -7.890407413638245
-2.083746499343232 0.6921713366361695 -7.323212897298134
-2.342737974456398 0.6118191027633103 -6.731704591727814
-2.540682031907415 0.5207771040976581 -6.112348164467694
-2.680381433269631 0.4184564793621383 -5.460505160797586
-2.765349786893768 0.3118133859701212 -4.774217081239812
-2.8040642612419715 0.20317271028743816 -4.053054554977514
-2.79736084839431 0.08826079934733065 -3.300339839886302
-2.7513599517384835 -0.011653830772967694 -2.5151444557397444
-2.6693501720145694 -0.0730379837157637 -1.7330150334562608
-2.568352481192059 -0.09964241158140699 -0.9588122818549953
-2.4633697186608017 -0.06151473448102691 -0.21580126131919297
-2.3630437500710175 0.04679273226453056 0.4988797446746852
-2.2831394013538486 0.2404966348083192 1.1728229108792179
-2.2360319807744364 0.5280393411013647 1.8096946910711966
-2.225817932806201 0.9142177980316113 2.39804582684006
-2.2540846309298135 1.4051402783233515 2.944856263509313
-2.3613340512259904 1.9269624632557116 3.4849155735684336
-2.5104891575363433 2.4276095166561986 4.083658040724353
-2.7307386989740166 2.7789165277725667 4.598645348271594
-2.9743827959799973 3.0192210421440016 5.150694144253275
-3.1047233991677547 3.017525652752332 5.583880240191314
-3.204539688629057 2.6107587574043105 5.832421867350294
-3.2368431566033045 1.9705583707568222 6.058857822216381
-3.201303913153383 1.2549736736409878 6.240008593259428
-3.0562326572842093 0.46224971047735586 6.377950055810737
-2.8094118146764133 -0.32805869253931863 6.486749259902031
-2.469314106956034 -1.0631222607234525 6.59554317059878
-2.0363086111689617 -1.7206969933965692 6.723484779009184
-1.5216887381094852 -2.2691047634956196 6.890860930623326
-0.9416673694352446 -2.704297125816196 7.101473861381877
-0.30635255560759167 -3.0221346135810014 7.361381934030864
0.38482370481946127 -3.2289176965584527 7.671653334946198
1.0947074149385143 -3.3268222586580163 8.012043933009712
1.8816403599284524 -3.328722230000879 8.398364098472697
2.7578476378682626 -3.2327361930022023 8.813316660269093
3.9028090450160517 -2.988632147532923 9.276959691187294
5.3476826201406 -2.5018683542346856 9.735972538554547
6.676414737962891 -1.8517892776677995 9.993344063676728
7.790021823811907 -1.1291466735952862 10.046118586404742
7.535371742339814 0.15682356894348878 -19.9911746130694
7.714196752584164 0.1034177917124399 -19.02840820274355
7.80263206541442 0.06588687605117033 -18.368746635117187
7.866904468712103 0.02160036586406531 -17.72389642062462
7.892264223669039 -0.020571009323086885 -17.09719694900474
7.868051306870328 -0.05323316500505882 -16.482461007504444
7.786109246722918 -0.07094958741913154 -15.874073532586307
7.6323844050363405 -0.07000180329392126 -15.265595412340373
7.401964052743455 -0.0511647270053602 -14.673652603161328
7.096067394611001 -0.015677218021859854 -14.109041693226823
6.71708139618536 0.03753229042897678 -13.577059090247554
6.2700538631251 0.10787026670551288 -13.079295416510636
5.759278518918453 0.1964464603188587 -12.613818166473347
5.185011983042051 0.3054364365880877 -12.17859242456491
4.553107681691089 0.43318192633648656 -11.77303113446985
3.8685996016891746 0.5751547667335369 -11.394311722860483
3.145616712726083 0.7218233747504146 -11.035485163048419
2.4055369939657143 0.8604219374246379 -10.68709168455893
1.6661134534936286 0.9793914914461523 -10.338101390777545
0.9433096820348162 1.0718333760219336 -9.976660982252202
0.25073992857424776 1.1353918806297927 -9.591285473298349
-0.39907047834726406 1.1704294388629415 -9.173086266963326
-0.9940376460076422 1.1792023548951602 -8.71830248575144
-1.525965027095513 1.16235585669707 -8.225736581615624
-1.9892218789307559 1.1198882252784705 -7.6982733630566464
-2.380986814347503 1.0517086455295905 -7.14002095227664
-2.70189829682044 0.9586356526067581 -6.549894374147871
-2.9508203976146823 0.8406589718420865 -5.924872026806305
-3.1244709880617956 0.6956034348447637 -5.262615287457224
-3.22474409834446 0.5337012664461979 -4.570203222692838
-3.26642620988091 0.3613915148720899 -3.8514752399164447
-3.261379932345366 0.18580821330206582 -3.115117854835635
-3.2231537978133966 0.020229772156289433 -2.3537411124032372
-3.1586038722196776 -0.12419417996533005 -1.5763872202815377
-3.078714539314262 -0.20136417639753745 -0.8273056067882797
-2.9953183550731852 -0.21598058879463372 -0.13119324702085344
-2.9148748402939066 -0.16510107917568184 0.5283279824030767
-2.850913517612615 -0.04234292346552351 1.150336884662544
-2.813240795000193 0.189008003620064 1.740181483970368
-2.801252382085052 0.5199476373935993 2.2771490457888635
-2.8170372330069484 0.9590299326636201 2.7794510057703175
-2.8927165710555127 1.4680311152750214 3.2834723591795076
-3.005016970736329 1.9464699423457752 3.779768141610552
-3.162497500071757 2.290515217275882 4.243178111560052
[...]
CELL_DATA 87
SCALARS quad_param_group int 1
LOOKUP_TABLE default
3
1
3
1
2
3
1
1
1
2
2
1
2
2
2
0
0
3
1
3
3
2
3
2
2
1
0
3
3
1
2
3
3
3
3
2
2
2
0
0
0
1
1
1
3
0
0
3
3
3
3
1
3
3
3
0
0
2
1
1
0
2
2
0
3
3
2
1
0
0
3
1
2
2
1
1
2
1
0
0
0
0
0
0
2
3
3
SCALARS single_component_feature float 1
LOOKUP_TABLE default
0.16557830215225428
0.09172634504069024
0.01131304415379419
0.16474843169398512
-0.12912305010251518
-0.014775839194515016
0.21050316236482963
0.09230503706839278
0.09864069303698185
-0.07440206980394475
-0.05685964494719423
-0.03132310578350165
-0.017343294864847744
-0.18659945994127408
-0.07804151523461962
0.04805594834135973
0.1668847536963305
0.061897063189045906
0.007061191751076057
0.2627588937369032
0.0002351669525563274
-0.22031798461711882
-0.09365704578528296
0.008828740999446623
0.0037250056077124533
0.2392710010560238
0.25262935868296593
0.2195199274701838
0.005269568210534814
0.018648003802180405
0.11682718432518636
0.031785452988997036
0.0845599544472059
-0.037671333272411636
-0.09664959049522043
0.10531276870440721
0.014808141177701527
-0.1329039656678448
-0.19762713809809912
-0.09819183923092041
-0.09790086133946202
0.27330240633687564
0.13935411599045608
0.13142199877741254
0.285417592715936
-0.20179221287500765
-0.2659452952264088
0.15024628657319766
0.0670748541790822
-0.048474928522324545
-0.023111270774020344
-0.03839951046924887
-0.008937894327873223
0.12820671395464747
0.06524168661863877
-0.26370066882191806
0.18323051559863693
0.03163097551102717
0.10103798612919866
0.12942800888575157
0.05145088981287209
-0.016579269868780118
-0.04869027466558058
-0.06163184464851839
0.02948191382842968
-0.0014735876681935267
0.02509331464022505
0.04659985687655191
-0.009771558743540545
-0.23531301340994148
0.1445795915008954
-0.0472037839770241
-0.21956269162277714
-0.12068797814807856
0.012682743680717186
-0.03800998139669493
-0.13256432904655102
0.028942177788805423
-0.20340956499765012
-0.1061132085011793
-0.20723212491372112
-0.22911349092095962
-0.14168186025030977
-0.1950582663855519
-0.10057645404523632
0.039530514542380324
-0.01842448198662082
POINT_DATA 5568
SCALARS single_curvature float 1
LOOKUP_TABLE default
0.17969154069196291
0.21366872365076145
0.12728299946223098
0.1337300856603199
0.13790302204068133
0.13504880151380452
0.1292262279378088
0.1183043134153725
0.10127484131901779
0.08015913276371196
0.05925061531816162
0.04410121752568595
0.03482588158676007
0.02914330151095788
0.02767195054908943
0.029011891740967348
0.035871816091745896
0.051903901118949276
0.07565788873121354
0.10458824171073483
0.1344006171010692
0.1588721189745396
0.17012087562446374
0.1654512900688943
0.14859539415687054
0.1253121046608532
0.10211199122228827
0.08675621627175828
0.07724649731404393
0.08231167146868712
0.0727562146979027
0.08108589375190778
0.09384926020021868
0.11137692091013775
0.14388606772925577
0.16475926482468656
0.17889546595275269
0.17220130921586851
0.1593533165608415
0.19475402826120333
0.19917246748971631
0.4341709559588553
0.6233590246124394
0.6125683120885067
0.6081437298144422
0.42031943949622774
0.1901051538331503
0.16434087230007804
0.16838792885115939
0.18093502502482312
0.1983318136123471
0.21212030636311613
0.21544218360789472
0.19740848052992813
0.17493934333888328
0.14421985358507758
0.10920240856439786
0.08618588460767042
0.07983380585388573
0.09291824053345656
0.0779249816771783
0.06293172282090005
0.0479384639646218
0.03294520510834355
0.12690601558408957
0.16188172229547237
0.12423506751680999
0.1406992803178042
0.1527473056914847
0.15738058021180631
0.15756159177442472
0.15096279806066226
0.1366250495718521
0.11732976380282076
0.0958817394430397
0.07685137381183771
0.06051897202946651
0.04578696719513558
0.036429199596109414
0.03363710557029969
0.039797126791119325
0.05649112720744909
0.07974450702575293
0.1060486779008515
0.13200038297947375
0.1535491074667486
0.16602085290273055
0.16769256661692006
0.16064144407455758
0.14607277998565096
0.1261444248748126
0.10684996498060527
0.08840361189889187
0.07977291893126488
0.07357786324832727
0.08358652772735937
0.10130953546865812
0.12751057044615866
0.16442657305999278
0.1921184967985127
0.20860662267339525
0.19633650899035435
0.16873211935426669
0.19025054666234759
0.2084584146191424
0.45141758427555884
0.6956963786028811
0.6891938794495723
0.6733641711629141
0.49931709842549143
0.1852672887019554
0.15857411758703077
0.16517576367488104
0.18266701129335847
0.2051865907989414
0.22420980480188787
0.22797006516823046
0.2142584969290475
0.1864397407435939
0.15064057977677134
0.11650800799727172
0.08881103002861108
0.08808180228895111
0.10227571893718608
0.08526637611990984
0.0682570333026336
0.05124769048535735
0.03423834766808111
0.0659754099452794
0.0992060063244908
0.11105820037347813
0.1420936096882378
0.16652592428772373
0.18153626930054678
0.18821231305169178
0.18407152007378885
0.17058854368085138
0.15241105541030547
0.13101346965841582
0.10952601069318516
0.08746983219407455
0.06436746726553239
0.04670399861306321
0.0389528275254859
0.04379103635627391
0.06085131751732669
0.08374936596641648
0.1074343918958826
0.12936520824512523
0.14790824926344665
0.16177630103107984
0.1703488312325793
0.17377394242011202
0.16863012728155027
0.15220155538034122
0.12843799195143737
0.09977637815327824
0.07597665211056992
0.07759888870562279
0.08882005755785777
0.11238097247876187
0.14669235237578435
0.18835770987606082
0.22746593048093094
0.2482651053675829
0.23528437223879983
0.18795548223616879
0.1946033826511322
0.23853911909658357
0.4717389176092884
0.7809455489248875
0.7804791835339584
0.7528049579823392
0.6131607935369616
0.1893784781929237
0.1522674034173831
0.1615111078291055
0.1845513393516705
0.21278173225757557
0.23740576540720165
0.24132017939063918
0.23304430679150498
0.20234537546236747
0.1625766471727299
0.13029940007606378
0.09707765970289443
0.10065122890976082
0.11453792313592123
0.09480419961568451
0.07507047609544779
0.05533675257521106
0.03560302905497434
0.17916671673510876
0.21316754050784675
0.12730192884920005
0.13383374283658564
0.13806997618646477
0.1352847067141207
0.1295302734809321
0.11867159534187276
0.10168528017433046
0.08058745739281568
0.05965800400893747
0.044451763619947106
0.035089342888531196
0.029309244929450456
0.027761106414415475
0.029061071526624446
0.03591660848695902
0.0519572037852301
0.07570460113235074
0.10460495970486393
0.13437405656930348
0.15881236461794587
0.1700732262152432
0.16547103355230625
0.14872014946736348
0.1255300431508442
0.10236647511543055
0.08697049447709436
0.07736864400163947
0.08228907158826267
0.07272357643067628
0.08107409160454598
0.09388980959105543
0.11151653727074069
0.1441073561863087
0.16504151617558188
0.17919754372566246
0.1724222856136166
0.1594353240667139
0.19469129317215614
0.1992261465022236
0.43438537383821907
0.6241281408578244
0.6133441693326793
0.6087968802785323
0.42102366087371607
0.1899788708021623
0.1642764033382281
0.16835271755309322
0.18095441368826654
0.19840762746378546
0.21225452840868997
0.21558274204434905
0.19759230812312228
0.175049510468738
0.14426636037430143
0.10925463206805161
0.08618902417695513
0.07990909063410699
0.09301328932362053
0.07800004888629034
0.06298680844896014
0.04797356801162994
0.032960327574299744
0.040212325984888005
0.06592522935134414
0.08569658433036469
0.13033207569518787
0.17537727346625864
0.20834423108423583
0.22714256321909668
0.22725627902395032
0.2152785630411145
0.19849875933258396
0.17704663514407964
0.15301656907913488
0.1244742044793152
0.0915287119611758
0.06268782177812614
0.04714103081775841
0.049133764229923174
0.0658018108228361
0.08832834927138929
0.10844448863399749
0.12449045373368528
0.13848932013900056
0.1540100021467672
0.17244702520367827
0.19088313371610466
0.1995745465046894
0.18874243853630665
0.15841160596288997
0.11379936440079066
0.06806511786493827
0.08691139172252796
0.09735079282307131
0.13024815206658283
0.17117453161669036
0.2323702312528076
0.3057229489212315
0.3405373199363548
0.3416620743564764
0.2842673331320921
0.2783653208545103
0.41907595797652164
0.5667428713585368
0.901232242787033
0.9014501474861648
0.8548775846539027
0.7876079968334123
0.20542395656309875
0.14140311071081238
0.1547762354826615
0.18777152077909437
0.22591857109441246
0.25930083246666047
0.26251588594097075
0.262798639106708
0.2325708321143053
0.1898419284648257
0.16305013415101288
0.12160564011728434
0.13055896707666298
0.14086956294909658
0.11519901153888146
0.08952846012866633
0.0638579087184512
0.03818735730823608
0.04848615586457386
0.08059767845524497
0.10546960815125307
0.14110207033238503
0.1698547571479265
0.18842307949023196
0.19725211103199608
0.19371474914846862
0.18034389452533642
0.16239531962648932
0.14100716837758537
0.11894840425321106
0.09541703853730872
0.07005861571197503
0.04997237311680968
0.040643963965192834
0.0449760670197137
0.06205740251998693
0.08487324552657902
0.10779075153957232
0.12850225148858227
0.1461284408036327
0.16040227980251326
0.17106339724963412
0.17764233115338066
0.17536884774889197
0.16004106408248933
0.13490426888237828
0.10302684034469355
0.07458275173119222
0.07914850155380189
0.09055572982232563
0.1160158733991282
0.15240201926483463
0.19636770629446826
0.2403025129270722
0.26300805012613154
0.2512641083476551
0.1984082719509784
0.20114902794949455
0.25650791847178966
0.4812026608394783
0.8080001425452327
0.8085321810749079
0.7776456962789657
0.652036063565437
0.19167324468838853
0.1502265683178235
0.16028888590184975
0.18515840888217247
0.21524820383593077
0.24162186890181594
0.24550465828795554
0.23901872680252376
0.20798075599228208
0.16729450257521564
0.13582218918365951
0.10083346226829352
0.10549847536472473
0.1189728685830449
0.09824364936820172
0.07751443015335854
0.056785210938515365
0.03605599172367219
0.20484350254344375
0.2372202876028521
0.12461759240149929
0.12745774479093014
0.12909432601413856
0.12309101040792923
0.11357172775909001
0.09873677875064196
0.07923480112523784
0.05874886025813851
0.04121705694827001
0.029817458588433172
0.02512804535376289
0.022928038523547106
0.023422289538373033
0.026465852423016318
0.03343688954596989
0.0489945410360465
0.07313458013080874
0.10368337942756706
0.1358053973996253
0.16206727489802053
0.1727510512517288
0.16469911398953072
0.1426028257584946
0.11464753037124736
0.08949987562577111
0.07606858729795038
0.0710107293417602
0.08333051914727396
0.07678284366275422
0.08393838873643485
0.0940031409035446
0.10623530645911315
0.13227131372989565
0.15028757172760554
0.16353072719893966
0.1616434157342467
0.15545307113902804
0.19813164702157493
0.1972371560219379
0.4215993515213295
0.5831199670195586
0.574178296957019
0.5760866686947218
0.3887458347353755
0.1997990929052627
0.1678149265850181
0.17026259397785187
0.17989029453804575
0.19428594932151091
0.2049510660005619
0.2078861157816152
0.1877078068709539
0.16960812194302594
0.14251266379198857
0.10732381289496493
0.08683533721000157
0.07632275722960946
0.08810971196081305
0.07410673526594735
0.06010375857108166
0.04610078187621597
0.032097805181350275
0.127351914279551
0.16232937606260328
0.12429618304359882
0.14066452727806616
0.15263473703144106
0.15719990349942425
0.15733430633381368
0.15071110795057527
0.13636113834101576
0.1170541601640216
0.0956062125117821
0.07659881517876418
0.06031498276546776
0.04565075265265308
0.036356268650213214
0.03359931291383608
0.039767042119584824
0.05645686538055652
0.0797134829941309
0.10603764334153258
0.132019320159708
0.1535905061917918
0.16605197540644626
0.16767275372014942
0.160543659336093
0.14590539110082046
0.12595145133162416
0.1066894808070905
0.08831660573153033
0.07979674628256947
0.0735549687798432
0.08355215801042311
0.10123427571093718
0.12737007529394173
0.16425954921972247
0.19188588101364779
0.20835034995269014
0.1961082478149173
0.16863761225202123
0.19026934342124846
0.20833769421911555
0.45129031803227754
0.6950997911594654
0.688547017828308
0.6728081956846996
0.49858082343759275
0.18526345863154364
0.15861947442661675
0.16520153110399513
0.1826534162743326
0.205132228563025
0.224114437834532
0.22787230427959618
0.21412359872192419
0.18633668336722975
0.1505722741627043
0.11642975811727288
0.08877158103815058
0.08800483597427962
0.10219529352972832
0.08520359661562413
0.06821189970151993
0.051220202787415736
0.03422850587331154
0.13221678134330397
0.16720300341970645
0.1249280591195162
0.14026181843096788
0.1513947139490082
0.1552226402894655
0.15484645702878722
0.1479474340525228
0.13345555954621113
0.11401645985530226
0.09257071443547274
0.07382105180999732
0.058076337557448975
0.044160313171163625
0.03556052578853394
0.03318670468286327
0.03943676388071151
0.05607959021734016
0.07937235471275227
0.10591619616092128
0.13222662046899464
0.1540443421526354
0.16639359324680955
0.16745675397639198
0.15947323440975794
0.14407267431467935
0.12383841101826883
0.10493148425871036
0.08736137079153455
0.0800538286071536
0.07331319509057355
0.08318269289723158
0.10041885290026938
0.12583605576069096
0.16243661046046304
0.1893585925784976
0.20557007103953556
0.1936534568538141
0.16763021692162666
0.190501601507212
0.20707947382910882
0.44989707533040163
0.6885963793549434
0.6814985773996911
0.6667558259282245
0.4906268980103895
0.18525569745019077
0.15911593830719034
0.1654830426878658
0.18250457327542402
0.2045375470986974
0.22307052738321065
0.22680105559101113
0.21264861019751427
0.18522103366945952
0.14984266406488855
0.1155944291877178
0.08835928483962108
0.0871749988902283
0.10132212742180964
0.08452173974331481
0.06772135206481998
0.05092096438632515
0.03412057670783032
0.031924806527603836
0.06084400963416781
0.09331568509963463
0.13657480785866027
0.17465582685723946
0.20112995090710775
0.21504941808885644
0.21308787577048433
0.20015474499677458
0.18272307471088095
0.16132000183899914
0.13817212713663088
0.11178867757359963
0.08204827053498528
0.05701084483110169
0.04426987401719232
0.04738413164439032
0.06434219235999432
0.08700313764542923
0.10834356266097563
0.12647527494762095
0.14212856455628886
0.15717245157038767
0.17219004763747497
0.18537101066630488
0.18916575882874184
0.17625930310011292
0.1482299384600112
0.10938959511463847
0.07122875828964903
0.0830244720959402
0.09433613670027534
0.12393597672867357
0.16368540362130973
0.21497975294421345
0.2724341575675841
0.30063389686009556
0.29428600502393415
0.23492851440788665
0.23153463045660674
0.3201262296058011
0.5132175405533984
0.8625907827621702
0.8635635240924189
0.8263243702630206
0.7334792663698945
0.19799675211990508
0.14559330441373836
0.1574426791522512
0.18653230732105247
0.22085134733195455
0.2510323931112149
0.25467828087878835
0.2520383045717336
0.2210512090787078
0.17891835966747316
0.14965598724562645
0.11094758146434183
0.11785349365216567
0.12991219610146776
0.10671787153163148
0.0835235469617952
0.060329222391958925
0.03713489782212265
0.02879198793754383
0.0587228666899216
0.09657145095912233
0.13819666046407275
0.17367235785741922
0.19788446897782935
0.2102796589516291
0.20779918253897953
0.19468845046321182
0.17709348680703357
0.15569980668961073
0.13285053636559654
0.10724186371659228
0.07868594504429648
0.05501838543626013
0.04324769754344811
0.04672471226761623
0.06374218827732968
0.08644581429391637
0.10822393303826912
0.12708269388076573
0.14329823890603494
0.15814107434824737
0.17194228887814086
0.18327336059750454
0.18535904568939723
0.1717557234240924
0.1445380686072286
0.10768120414368491
0.07223252400045839
0.08183978765443674
0.09326339379022226
0.12168844612546895
0.16066344943642127
0.20946583103058436
0.26255753483263666
0.2889651894234812
0.28068778105368447
0.2222428258665966
0.22023414073788342
0.29777406519465616
0.5020163905617068
0.847899367674187
0.8489515743566649
0.813564251226109
0.7113031295397172
0.19597835926226903
0.14695061794693234
0.15828712482859433
0.18613036112398804
0.21920979478924202
0.24830191029202867
0.252042030685593
0.24832399987257897
0.21722039130678122
0.17542256412967827
0.14545701827224186
0.10777999076581184
0.11404460068854734
0.12658093042104096
0.10413826663612506
0.08169560285120916
0.05925293906629327
0.03681027528137737
0.038495589227838904
0.06979704064523504
0.10187268122497652
0.1401397761983245
0.17159493391079222
0.19240825388830032
0.2026245797778202
0.19947994842703376
0.1861908463257606
0.16837896453333953
0.14699168344204436
0.12460640250459418
0.10021764089687149
0.0735393025442945
0.0519957744074879
0.04168974536963794
0.045689704098276114
0.0627598452850931
0.08552922307777117
0.10798385115601154
0.12794922121339325
0.14501047882326523
0.15952178561962677
0.17145341908250217
0.17995237812799478
0.17943496975716722
0.1647934436037621
0.13881712561777904
0.1049476421625086
0.07367093941875497
0.08017985416013605
0.09163839484047487
0.1182837831188331
0.15580583369684947
0.2014942805026306
0.2488184145344659
0.2728830507338741
0.2622940466161032
0.20668031529752998
0.20731209282848517
0.27079307588512724
0.48848010784457474
0.8243748989385954
0.8252553886506843
0.792524576496109
0.6761051467484249
0.19328014215340966
0.14893562818369482
0.15950605356988265
0.18554176728362637
0.21680915311531276
0.24426833210374604
0.24810880807243293
0.24273529869621135
0.21160701950577032
0.17043052705571005
0.1395201319172051
0.10344442731587258
0.1087552527307984
0.12189848877829876
0.10051104225597052
0.07912359573364228
0.057736149211314036
0.036348702688985796
0.046873390140197015
0.07886375222330869
0.1049098858817192
0.140969084291828
0.17014435141980824
0.1890622992271547
0.19810538820946152
0.19462780952928052
0.18126855451800938
0.16334134032766928
0.14195358917904297
0.11984255778658968
0.09617440524249324
0.07060566376229338
0.05028920287418021
0.04080780780064581
0.04508884685339577
0.062169671399131064
0.08497805313309323
0.10782249830644605
0.1284167915271309
0.14595446858086092
0.16026623822387062
0.17112738162587401
0.17800845230282344
0.17601085947356307
0.1607901993446445
0.13552144327343332
0.10333229216910506
0.0744425284563318
0.07930613843786259
0.0907248964494716
0.11637019873548642
0.15294214285142949
0.19716095610583384
0.24160443783530816
0.2645129758620267
0.25292976924399985
0.19960241736173723
0.201996095846716
0.2585690633837821
0.4822614218552837
0.8105890427881011
0.8111889598771732
0.7800071778488631
0.6558151073781334
0.19191525364939876
0.15002606340084235
0.16016779948758453
0.18521798264898223
0.2154906183758066
0.24203402063025037
0.2459113937938376
0.23959959832849606
0.20854163172743362
0.16777470348551077
0.13638696961492802
0.10122752523257603
0.105994708473203
0.1194211244248913
0.0985911200763644
0.0777611157278375
0.0569311113793106
0.0361011070307837
0.04431845849275398
0.06683498213057355
0.07958635603513829
0.12248590531245572
0.17253542829035848
0.21115408215171827
0.23516714070878864
0.2383140228525894
0.22811910133076357
0.21235029129769162
0.19083144274842256
0.16586597736228192
0.13534415909308573
0.09970050992001077
0.06761475649190216
0.049529749051543455
0.0504101389066802
0.06664176677167542
0.08899752447071663
0.10804647060755317
0.12220489441391764
0.13462885134114924
0.15040070954836626
0.1718070832563796
0.19492413800133107
0.20803564331258767
0.19919273348753516
0.16683622230688103
0.1169409907420103
0.06488510139324463
0.09128744739499937
0.09984275246142575
0.13534239057298703
0.17536707883076172
0.25104189056188575
0.34520747585940925
0.3887135960849226
0.3992019997243031
0.3501387212767859
0.3427972030729789
0.6277792142500479
0.7075157302212328
0.9411788536573458
0.9407166185370005
0.8631838474078692
0.8141118045240515
0.2160062533811795
0.13709772014238258
0.15193461284773946
0.1890453187632026
0.23112778373564224
0.2675103556494935
0.27004319313780883
0.2724372370438695
0.24342505904092346
0.20073224038693846
0.17697020386005943
0.13365715392780653
0.1450235512057703
0.15320593622849862
0.12473995039347796
0.0962739645584573
0.06780797872343663
0.03934199288841597
0.0325682682773396
0.061275021810165364
0.09269251539539419
0.13621200266102487
0.1748139259507068
0.2017480125906279
0.21598644705581072