# vtk DataFile Version 3.0
vtk output
ASCII
DATASET POLYDATA
POINTS 5568 float
7.13995169510025 0.5611859314731522 -20.144886899889254
7.318564787840998 0.5798801737172874 -19.26910623716337
7.448244583212867 0.5722555233936008 -18.614958274683786
7.562479443765602 0.5465411247284857 -17.97429971368838
7.63958677563689 0.5112988394520962 -17.348267888046
7.662631761970769 0.47643162963131885 -16.73204029448192
7.622500501016413 0.44842850894985525 -16.116511584958598
7.500433166461716 0.4326155342860145 -15.496827745694713
7.292659331759775 0.4289786246098287 -14.894174792492114
7.004222206269632 0.43634906858439654 -14.320365588687334
6.640217004882936 0.4559277893896497 -13.779020921180672
6.207007267374891 0.4866612264659402 -13.26938067330019
5.708653677976162 0.5297537675751306 -12.788135404595875
5.1428539680067615 0.5883835941029814 -12.332756255974205
4.513310056201819 0.6642324726959332 -11.905844923731266
3.826399255193925 0.7558475706293213 -11.50733895669653
3.098121567538236 0.8556174025617151 -11.131609774389918
2.3527451311845735 0.9513782378132829 -10.769804072600376
1.6090239438992775 1.03193492484836 -10.411309790797212
0.8826580391270057 1.0908596610432784 -10.045174231263426
0.18670565925667715 1.125635410031925 -9.659557681329364
-0.4672149892372708 1.1370974015702071 -9.24457319673872
-1.065946031445111 1.1280656183090578 -8.795033159443106
-1.5998042085042 1.0993457332228438 -8.30885543175773
-2.0619035134256927 1.0503665597072736 -7.789595655888753
-2.449404146022518 0.9797175354543914 -7.241728410716883
-2.763964100719149 0.8855988489689361 -6.663436814991473
-3.004388473427555 0.7647531349478588 -6.050321051327661
-3.165911150439185 0.6107824723257148 -5.397532536529786
-3.2493580094862717 0.43773106688405167 -4.716283069915193
-3.2677464210140204 0.2472920568932173 -4.015351112945408
-3.2295605903902733 0.033750807086372236 -3.299320674118421
-3.1520055812549597 -0.18131703590386422 -2.5578277233885722
-3.046487272099551 -0.40419987940246865 -1.774254897689648
-2.927866202779938 -0.5670172073230704 -1.018605720257896
-2.818206392726208 -0.6777739205040831 -0.3149451966162088
-2.724715403388194 -0.7341872486977438 0.36251678532057585
-2.6668295164281357 -0.7349430881559873 1.0215009963525774
-2.6599928843693883 -0.6134153452498898 1.6555313211581388
-2.6973765229710427 -0.3802097875274233 2.232967678265224
-2.7738442330530098 -0.019895286165208026 2.768535151015771
-2.8937402524458555 0.4394052504019386 3.265295739820935
-3.0357408943447357 0.9247938047040136 3.660434792784041
-3.154956685446754 1.3979974989284525 4.007285519033485
-3.2939612225245885 1.8841633394327513 4.428765528181982
-3.3322651045303213 2.242258156451359 5.028138653648138
-3.364389301636153 2.1283108217268514 5.336984060033816
-3.4016173741286027 1.5817168501748489 5.628376381869124
-3.4120430781741535 0.9142442398676728 5.870136335630686
-3.331559309838222 0.11554663702555612 6.051300687276543
-3.1619495676597027 -0.7042513662895747 6.1789533798338105
-2.9013693081468936 -1.4828338311010008 6.287117785475509
-2.54279048735613 -2.1934113492554324 6.400163557597194
-2.0870782978723534 -2.7990980460317534 6.545029103513949
-1.5418566065363952 -3.273040493884696 6.746043278665885
-0.9316493101821277 -3.601682702593334 7.013674433027466
-0.26479739350089215 -3.8015772297250425 7.35484133574381
0.3829492914972509 -3.8539225375772532 7.763104754298482
1.1441153295601734 -3.7890991293601988 8.194250752925303
1.9608115063249851 -3.6325079287367887 8.623609043472328
2.9840954029616586 -3.3334890156779045 9.085181024689831
4.321299850720553 -2.7790495236498653 9.52323201106101
5.523561870016863 -2.093026267859641 9.702482912389483
6.484415937405852 -1.3717158805743845 9.66632550647205
7.94601508376453 -0.4593336252198954 -19.607910818322537
8.145803604976132 -0.6207128242179711 -18.536474423905492
8.207249245003403 -0.6978349356699343 -17.86121476171723
8.236143306572066 -0.7663285222087098 -17.203486668035204
8.224946799951033 -0.8169214261369221 -16.569089698834794
8.170468796225423 -0.8460753870286988 -15.947266561015553
8.063574601220768 -0.8497826655718878 -15.336347259072152
7.893386618872679 -0.826702848640785 -14.726215070581631
7.65110790078841 -0.7781321235448002 -14.1288855534676
7.331890468415503 -0.7041061133507842 -13.555433504694031
6.933983375122337 -0.6023504900578505 -13.015429965359154
6.460919288604008 -0.4715226209297688 -12.515527022313469
5.917425230749052 -0.3094543453699974 -12.057198855159799
5.308603431435567 -0.11502415523717671 -11.64171301450943
4.6472166714289544 0.1040294174595433 -11.26629552792554
3.941187503875085 0.33694429440771023 -10.924519884381416
3.203906635514947 0.5701278405071932 -10.60476137562329
2.45252934435943 0.7890260331780448 -10.294168656584544
1.7027013100725128 0.9805002778880657 -9.97910763063521
0.9699229347489615 1.1364732509686077 -9.64440885237639
0.2673142319352587 1.254851524506725 -9.277443443887776
-0.3925005736454268 1.3353762287475777 -8.869704121222231
-1.0002956238156646 1.3794183516367495 -8.418853308386925
-1.550368432355378 1.3869200623217455 -7.92511763827266
-2.0385923228614886 1.35796995708587 -7.390665012814986
-2.4610344037645238 1.2933921245356044 -6.819243026465935
-2.814482204554577 1.1972017924831684 -6.211023148095139
-3.09512366577265 1.0737174765034139 -5.565270285751909
-3.299686091483706 0.9265315856712133 -4.884010113976092
-3.4311510657459787 0.7613443749268303 -4.171128107190452
-3.509485463478589 0.5932582196914054 -3.423797605982823
-3.5550580183816063 0.4521461737642682 -2.6564121630754958
-3.578166410137051 0.3358899857057649 -1.8643254593025271
-3.5776573456381717 0.2732631659486062 -1.0835203975621708
-3.5591414914059163 0.3009528724984124 -0.3347941299305536
-3.5186673074682218 0.40826427779498164 0.35649934312846954
-3.460600631693941 0.5991127234711074 0.998991237264888
-3.3889745968948577 0.888196265683292 1.5884241756315496
-3.3055739701655793 1.280678762073208 2.1318045075530945
-3.215369090576078 1.7641034843221246 2.6193796352210175
-3.1324741586639546 2.3269471069080785 3.0752352658015942
-3.128342393644082 2.9156566204228547 3.583940661400462
-3.181322015322955 3.3848422188616927 4.221060245466786
-3.40245846724248 3.561769628222418 4.928215517987685
-3.619255670237495 3.4763076851603536 5.3515857883764815
-3.7438025351389075 3.2095128215266193 5.6227817707418435
-3.8513117336419582 2.495355151389063 5.779185929295015
-3.85315502049291 1.6967220990456222 5.8732702513228725
-3.74669791520639 0.8902325612294981 5.930618732235496
-3.5380749095190036 0.0986696275639285 5.9766787900901335
-3.2247026412221764 -0.6580254217066225 6.032130915363378
-2.8103621793160247 -1.3546579943009056 6.118281211801275
-2.2971849833746982 -1.9678366692433422 6.258041127812738
-1.704528716512813 -2.461202011197834 6.476951600065349
-1.0689991490798452 -2.8459823472171566 6.762341871267519
-0.40668127598922155 -3.117973508693452 7.112600726367591
0.2844482156284832 -3.2955223841748906 7.507597000764977
0.968713839956746 -3.381356902041334 7.904794278287381
1.7649036005183825 -3.3804369618857324 8.336045579087754
2.688519175442458 -3.2720911202568383 8.769987591773056
3.884249005660415 -2.9957874541557126 9.194833816130329
5.355797212447202 -2.4663277000032524 9.525467838380562
6.593556281094416 -1.841644249548282 9.656826061073401
7.639987192733855 -1.1836510520425607 9.691363054521485
7.958083615571763 -0.474613034883027 -19.599871112002603
8.158230233645087 -0.6389947880282583 -18.525147481273788
8.218651814425062 -0.71718197412002 -17.84946136786025
8.246262036377274 -0.7863325087413828 -17.191369402417642
8.233736476508124 -0.8371638414537204 -16.556750344924712
8.178084369316114 -0.866235164808944 -15.93476997854826
8.070177536381717 -0.8695781975726555 -15.32385869215085
7.8992552271269565 -0.8459133566745738 -14.713824535758027
7.656439230777703 -0.796551965139925 -14.116533476465728
7.3367267607845426 -0.7215072358127292 -13.54303733573008
6.9382557621832035 -0.6184848343905438 -13.002991620057747
6.464504282102795 -0.48610205291660646 -12.503156796708744
5.920198929962923 -0.322171694931735 -12.045080860564276
5.3105537667286855 -0.1256081831939766 -11.630094311174707
4.64849340583246 0.09569056318894661 -11.255354889124845
3.9419880425544247 0.33080825843883327 -10.914348688889321
3.2044037455221086 0.5660565469180054 -10.59536142858616
2.452792761722879 0.7868493805195155 -10.285480043325668
1.7027568978924512 0.980020309404943 -9.971023043719056
0.969795869589644 1.1374693688784567 -9.636757026998266
0.2670259626892162 1.2571138038175416 -9.270039817323395
-0.3929172308111397 1.3386809917594715 -8.862384733916729
-1.0008712509635669 1.3835243801077957 -8.411497551507264
-1.5511990670903202 1.3915748188999344 -7.917638950411689
-2.0398230606118375 1.362930502540491 -7.382953047084174
-2.462800325323736 1.2984466447928869 -6.811172328437392
-2.816846403865242 1.2022252359163004 -6.20249546668145
-3.0981085235996004 1.0787008776697722 -5.556241624858484
-3.3033345341394975 0.9316177588518346 -4.874536894439305
-3.4355392962076037 0.7665479115730451 -4.161154811747607
-3.5148015940433934 0.5987989399272006 -3.4130754299181936
-3.56166417902651 0.4587721368231398 -2.6447749237565503
-3.586310520436612 0.34398965254550945 -1.851713271541275
-3.5873366229183734 0.283679817486018 -1.0706222884976029
-3.570277441442723 0.3141790006156472 -0.32155336057175166
-3.530793209412994 0.4247966576173807 0.37010483533434146
-3.4731910334642775 0.619514903929514 1.012754213255266
-3.4012482164899493 0.9133886365320982 1.6020579015866931
-3.316550715405177 1.310603311219309 2.144843708333233
-3.2242090852247856 1.798625727065882 2.631646076891947
-3.138703469160917 2.3652240889361966 3.08667079709514
-3.132592143010131 2.956151655999599 3.595699574700654
-3.184109203082968 3.4252626959581627 4.237120513302159
-3.4075806264271735 3.5976477058065157 4.952325949002145
-3.6271298874796636 3.5041201782535443 5.3791345676581415
[...]
CELL_DATA 87
SCALARS quad_param_group int 1
LOOKUP_TABLE default
3
1
3
1
2
3
1
1
1
2
2
1
2
2
2
0
0
3
1
3
3
2
3
2
2
1
0
3
3
1
2
3
3
3
3
2
2
2
0
0
0
1
1
1
3
0
0
3
3
3
3
1
3
3
3
0
0
2
1
1
0
2
2
0
3
3
2
1
0
0
3
1
2
2
1
1
2
1
0
0
0
0
0
0
2
3
3
SCALARS single_component_feature float 1
LOOKUP_TABLE default
-0.06173227192695513
0.09126432945591316
0.09355502318565499
0.027034281526172453
-0.005482108713503131
0.03399053628774582
-0.010768200728814757
0.05331530911826643
0.054905857901531116
-0.028940605174222825
-0.07336159051769599
0.0912014022850661
-0.08489786804443676
0.1570838418920979
0.036864108864947946
-0.11559214366288262
-0.09549237118622392
0.12888173158131838
0.04395794297406259
-0.09598709388791296
0.13519086225624033
0.10093253266174398
0.19597847382024178
0.07415506904671096
-0.0628397178321019
-0.020780866212735928
0.07590055367029797
0.16903259490443653
0.16453707486533278
-0.1294950074693485
-0.12365944549816867
0.09053818187769247
-0.04250180966534439
0.1393103870262966
0.2746816949736572
-0.06846607472213587
0.05779552675882228
-0.11654383667758006
-0.10409751211538987
0.03769967352175288
-0.043964800717196294
-0.19238290304258923
0.059787442612998995
-0.0009380128185357064
-0.15682312404876575
0.00010962539462002971
-0.015381901993603715
0.01679372435674957
0.02039815847387621
-0.03297238211800989
-6.114596201663158e-05
-0.019812997369954788
0.04454783723724244
-0.0326995415349073
0.022323239992195494
-0.11766066608432252
-0.24412220715431956
-0.16847118008819714
0.0043519836424466135
-0.015443404258279059
0.07695872432529605
-0.01686919363932999
-0.07956121858146302
-0.06921842988472528
0.09490803938973948
-0.003543414113743127
0.02666903364666439
0.19721536344447446
-0.12333721261237082
-0.11910593691329226
0.06361539126376013
0.1533830878773576
-0.15165430267193827
0.07957346553249783
0.026754607375728868
0.033193963097022175
-0.018028974282238184
-0.15500841149088476
-0.08554898027226569
-0.16176517028373144
-0.19288537233640152
-0.11236362995159938
-0.0743690082725042
0.23524125747059085
-0.18360629125276762
0.16116784533389072
0.18343855686225172
POINT_DATA 5568
SCALARS single_curvature float 1
LOOKUP_TABLE default
0.05274539573675324
0.08773295906693762
0.11261886678761082
0.14908327244780678
0.1791021233188002
0.1952986247986735
0.2013662676472993
0.19249272823601557
0.17387193289802766
0.15249729153699973
0.13103496156861316
0.11144504903026319
0.09162344371387088
0.06919131731956729
0.04868590214085818
0.03687543519957072
0.03792911243510469
0.052415347347071414
0.07550085891754524
0.10105480378401278
0.12569478122893785
0.14779163140956295
0.16524475927040297
0.1773081905486557
0.18412243983032076
0.18078130685442195
0.1662673010553811
0.14508272486925725
0.11347681813532381
0.08117743277823872
0.07261689706445154
0.06750108690559037
0.08032562308594332
0.10889099111961717
0.1656963777019663
0.2274595144399892
0.2748742147243284
0.29197424723639936
0.2735718771530363
0.21650223912304348
0.16739046526632492
0.22535469789950127
0.8875538222195268
0.9101626990785824
0.9131732625101042
0.9003283909817152
0.2613367762764385
0.1603663963680355
0.1603912137721501
0.17710872452091528
0.21520379511736407
0.2540521834983616
0.2700361057090634
0.2776154104698541
0.2423152432025625
0.1916924665973286
0.14896390697949194
0.10000690016281472
0.10239002235546897
0.12580306448502399
0.10713130762669265
0.08845955076836132
0.06978779391002998
0.05111603705169865
0.10333006782888729
0.1342251928450778
0.11472538680597968
0.1372614603873927
0.1552310010318243
0.17060806636127668
0.17893439040756895
0.18109941029296217
0.17415238380489406
0.16011533863432809
0.13865157834630204
0.11411130008271664
0.08811685355374299
0.06310218246772079
0.04774000449268798
0.04453720615295984
0.054267151230238994
0.07444921200160377
0.09700506861690274
0.11755789478836313
0.134735489324004
0.1475355888890688
0.1566847934442209
0.16220582595901623
0.1637239718759307
0.15863532143564069
0.14105792762753974
0.11796789196845923
0.09187722207609245
0.07980622142465356
0.09736859746279966
0.12481098330847473
0.1628290479907442
0.20242687021276107
0.22091286663499898
0.22843778153611968
0.21182674952077396
0.1825719259025806
0.19320061885200032
0.2807735546842354
0.5400968931366078
0.7470746206052945
0.7598438357500399
0.715440831098375
0.5294544566167713
0.22771945266573534
0.1696550748186875
0.16599643791239782
0.1762416369752898
0.20072780499174292
0.21221041530285686
0.21829008534650146
0.2054591414714914
0.17853652313773685
0.15362631412765831
0.1276851153051333
0.11036567580622511
0.09604999603041929
0.10263578138262662
0.10316170906336318
0.08132418464958266
0.05948666023580214
0.03764913582202162
0.015811611408241097
0.10461939515029597
0.13549224092610646
0.11500642055657746
0.1372425007288815
0.15497373238430157
0.17029335017823563
0.1786119396500399
0.18090278098672602
0.17409654456670542
0.1601459339301237
0.13867868959266508
0.11407669057843654
0.08801827526809904
0.06300451441831195
0.047734324423381304
0.04466399777934123
0.05451730936957826
0.07476715674911849
0.097318175309803
0.11780907151707075
0.13489023793741062
0.14756440848085292
0.1565932207847292
0.16201262665634913
0.1634440015797512
0.1583198592814463
0.14071093649713604
0.11776423841205105
0.0917990254281449
0.08010310100498966
0.0979702802600143
0.12562049361250124
0.1638470428976726
0.20334164171492622
0.22127980411868944
0.22806302038119156
0.21064449955251469
0.18153062499663156
0.193458511847378
0.2811683767150609
0.540734999838129
0.7431907902404533
0.754247281018567
0.7091302449958977
0.520402555572557
0.22479674548180079
0.17015761915015976
0.16667853562069138
0.17681221517244297
0.20114898010095494
0.21215397871047337
0.21777766276296462
0.20455629560092226
0.17722427436811683
0.15244206204368493
0.12683123260617163
0.10985787175441704
0.09597464489291686
0.10262388237841198
0.10284998161454233
0.08097855134997844
0.05910712108541456
0.03723569082085068
0.015364260556286799
0.06962232803437768
0.10164120938377208
0.10920194769665947
0.13962903833283652
0.16376241220811988
0.18019113126755748
0.18821463558345547
0.18631857228909504
0.17497265085045477
0.15820935721097593
0.13681352999323027
0.11418006654723366
0.09035281056356395
0.06577857764110732
0.04797111578431694
0.04106428860486804
0.04723145589784646
0.06531605546187347
0.08807048417583647
0.11052633728230193
0.13059794958672666
0.14709251260825787
0.15967053793723282
0.16800323385741614
0.1718755985979944
0.1676800503423069
0.15117878111576577
0.12627899980925128
0.0971643722849999
0.07505108776929915
0.08270024112741628
0.100247800628447
0.12954333760394293
0.16747294449819525
0.2027906410370627
0.23359482436603987
0.2431060628031473
0.22084883565372468
0.1875411873095453
0.23406932509024986
0.36885308302377123
0.6517956922013637
0.7913912102496095
0.7707174643197259
0.6954763801933386
0.44088105394146854
0.17492238531729276
0.15251111543115126
0.16374295540702802
0.18915670514437638
0.21341734554387062
0.2329228171093055
0.2316716740599584
0.2179266952833076
0.18895196119364874
0.15317502187757254
0.12573419952290465
0.09795974334266817
0.10276522885703528
0.11238106341299806
0.091658224125849
0.07093538483869993
0.05021254555155087
0.02948970626440181
0.05622257697724351
0.08916577732941114
0.10872129481213237
0.14225806687404616
0.1689685533801264
0.18552404945204845
0.1930242681551239
0.1887272563101209
0.17485476524261212
0.15650330241500285
0.13510936038288787
0.1135496580502492
0.0910723194560616
0.06707985543878016
0.0481694124698998
0.03942216685844827
0.043728583814861936
0.06058967095196102
0.08347254554088329
0.10700582037880556
0.1286776331668117
0.14715968578644031
0.16150788271443745
0.1712308105323792
0.17622785792135195
0.17240114457906625
0.15657087720342455
0.13239219355592788
0.10215601245587047
0.0756170306660536
0.07750185953378755
0.08744849086569044
0.1107964575282199
0.1454387781840939
0.1894761562238622
0.23265128221688303
0.25668857655995075
0.24649848388325132
0.19519550703070662
0.19030756066849078
0.22391320622139513
0.43747383676981566
0.799334901753031
0.8039679886214076
0.7820086335839751
0.6701779779409467
0.19451227801122395
0.15154293312060996
0.160618563844001
0.18399802975897686
0.21394587327299
0.2405332234466128
0.24549864166845756
0.23930351834573346
0.208033407024948
0.16693533115952025
0.13406544726217318
0.09878120281408043
0.10269050546731262
0.11726231551727405
0.09722443105701134
0.07718654659674863
0.05714866213648592
0.037110777676223214
0.07293759820010523
0.10478858457697347
0.10953722913496478
0.13919429236835063
0.16272120051525768
0.1790881478031168
0.1871921955478736
0.18578213527852294
0.17495237273770303
0.15851158092414322
0.13711201616736726
0.1142571619259715
0.09016183458652163
0.06549487070300848
0.0479370342726257
0.04142832859705831
0.04798963855338443
0.06632128352697382
0.08904962633230407
0.11128447787520752
0.1310252821491327
0.14710471452393653
0.15930680091508978
0.1673389298103472
0.17096437316797122
0.16668223541127092
0.15004760043064935
0.12512747594824244
0.0962892979360558
0.07519654561972558
0.08402791223870087
0.10300839766292179
0.13347982172860484
0.1719625693013004
0.205380711871957
0.23351817086041413
0.2399638488146851
0.21581095510375922
0.1876647531566713
0.24266805791767448
0.4000197672069471
0.6862457982742668
0.7960538588471777
0.7715819862616545
0.683350450280601
0.4009682344920662
0.1722937507173926
0.15330049757656597
0.16471130418297367
0.1903461222357238
0.21330727090118676
0.23131309700584474
0.22875699004816286
0.21345718428720195
0.18495884722758954
0.1502946539510877
0.12398883189873318
0.09777170341614579
0.10276966566898989
0.11134945063863189
0.09049054058274093
0.06963163052684998
0.04877272047095903
0.027913810415068074
0.05452464735264758
0.0876384666797781
0.10882704429999399
0.14277851651202808
0.16986432034527052
0.18641603019207612
0.1938090547089627
0.189103088682593
0.1748033026747385
0.15618174816456268
0.13478545021026275
0.1134056508098651
0.09116187326935853
0.06728687551201691
0.048208213278980186
0.03916574707918641
0.04316748300849536
0.05981895326905346
0.08272298695098113
0.10643803813879153
0.12837820651751092
0.1471905664975792
0.1618284013007511
0.17177490130521172
0.1769499318250004
0.17317734895403297
0.15746304261490449
0.13348698222081692
0.10309392863763722
0.07589933016844956
0.07681853764765256
0.08541721894775692
0.10775528321588924
0.14180017430357866
0.18719729705569155
0.23232281984730752
0.2587056678419422
0.2508645591917751
0.1992772372748458
0.18473262225667084
0.20497756795567382
0.40207389972289675
0.8074235618060159
0.8162537187756869
0.8001783749239206
0.7073065793230929
0.19889503460448366
0.1518238007380849
0.160328550157366
0.18323293896892778
0.21403975237348502
0.24178429620196368
0.2477748944938694
0.24284333723879398
0.21119319496849054
0.16921405944796156
0.1354425446071072
0.09890620200555154
0.10267055364908081
0.11806230654349209
0.09814327060117614
0.07822423465886019
0.05830519871654424
0.038386162774228294
0.0826787722759699
0.1141214970198125
0.11084077777475365
0.13821889320215966
0.15997293743331803
0.17610223229321992
0.1843699629080099
0.18425412360547855
0.17480962566336972
0.15923095233524148
0.13781573046418485
0.11436348714128343
0.08956458658430211
0.0646984152540789
0.04785566852301401
0.042458506578950984
0.05010539161738199
0.06909691675656363
0.09175750136302359
0.11339686106021554
0.13224051468129844
0.14718563588491534
0.15834890521269024
0.16554069445660366
0.16846935886516892
0.16393324760982492
0.14694861165431267
0.12224785367830823
0.09424565089413868
0.07609247186781186
0.08808599713028284
0.11061244823779667
0.14409263224908703
0.18369603149654676
0.21187893688027426
0.2327155514921971
0.23086753996528783
0.20294264274831622
0.18899746720103633
0.26213274493119604
0.47403925663146346
0.7482963188073103
0.804456852816402
0.7723040731987395
0.6485734374979487
0.31480029461041953
0.16775206866436895
0.15645974647540256
0.1679322037834955
0.19376472314159396
0.21298735092040355
0.2268736128060657
0.22075011219758753
0.2012711144321494
0.17405708451793295
0.14242849951480596
0.11922638839731393
0.09722561629096593
0.10275907908984107
0.1085174058171471
0.0873000503218019
0.06608269482645669
0.04486533933111149
0.023647983835766287
0.08350943261976246
0.11492241871390545
0.11097059566580467
0.13815362777623916
0.1597564633888021
0.17586183605103123
0.1841390565432092
0.1841259318815897
0.17479216026755492
0.15928218043535816
0.13786535487307314
0.11436516468242065
0.08951112526321053
0.06463234872252151
0.04784976494802572
0.042544372316462284
0.05027993265691256
0.06932408209685098
0.09197945649963693
0.11357103927366789
0.13234229836061429
0.14719530920559626
0.1582734556902224
0.16539574467114626
0.16826637811907874
0.16370850831400566
0.14669645551102897
0.122032191944237
0.09410316325229044
0.07619783689824329
0.08844280543124024
0.11123089914108344
0.1449397697189689
0.18460466582933263
0.21236237974363284
0.2326092196995202
0.23009726200238517
0.20196070416421813
0.18914883112956474
0.26342500034862826
0.47903574247336045
0.7512346306111207
0.8044276620285158
0.7717508664261397
0.6451436519137532
0.30922339144420347
0.16755497629871516
0.15677819474422783
0.16823056719809076
0.1940520425025587
0.21295949049992402
0.2265102973928297
0.2200973164876545
0.20028452261090715
0.17317328254313905
0.14179065779028083
0.11884075863692815
0.0971790993341337
0.10275667094570153
0.1082868957820311
0.08704132172666286
0.06579574767129462
0.04455017361592638
0.023304599560558137
0.05043944976078136
0.08417777804558092
0.10960699222072225
0.14476349613046063
0.17303943031747387
0.18952879653273355
0.19650836680508985
0.19036072647830773
0.17455997560848388
0.15498644573730924
0.13357583362100806
0.11282393554012778
0.09141031306778098
0.06798666719443475
0.04835659814096858
0.03830972090581953
0.04126127491840558
0.05716984011822078
0.0801449330260256
0.1044982253345312
0.1273779831776741
0.14734092819579292
0.16297808536322922
0.17368763239113136
0.17946350245694154
0.17586393462241734
0.16056145118857149
0.13742771432104203
0.10654441044806827
0.07726083024669063
0.07482235219723934
0.07863011302883978
0.09748280654805049
0.12946086045831157
0.17932308032889777
0.23089996128348497
0.26518439670716
0.26591656641691297
0.2209898881267464
0.17275276092017866
0.15658174266627786
0.2971897621378113
0.8417120165498682
0.861836255602493
0.8586184531257997
0.81318274698626
0.21677440244518464
0.15370780997232752
0.1597780706058202
0.18078211040522305
0.21439394268701528
0.24611582916445832
0.2556523309420917
0.25512319377705833
0.22216236929835753
0.17712753337743442
0.14021650420257012
0.09931917164212326
0.10258731239242996
0.1208198319512453
0.10132489337555937
0.08182995479987346
0.06233501622418754
0.04284007764850162
0.056108793538469676
0.09157191990586423
0.11414153827039807
0.15082817221500763
0.18134029666230908
0.19738208772330074
0.2030789076863729
0.1932056286712955
0.17355521506690746
0.15151928868636694
0.13003025856728384
0.11085858156468717
0.09162598102912908
0.06959606888282324
0.04882265488110288
0.03640441499473529
0.036786967574673625
0.05074624133821386
0.0738607745808838
0.0998544715374382
0.12513796673695937
0.1480089339999856
0.1661095243285604
0.17864557726237326
0.18581304173723076
0.18254607487345967
0.16832346129907486
0.14791806171403005
0.11609408267056048
0.08298422389668142
0.07226089496293694
0.06400954816050729
0.07487847935006917
0.10240859989756503
0.16125159240166026
0.22603482905467276
0.27760121404762755
0.30053246512028875
0.2931825544562656
0.2497633703025183
0.19575562957667694
0.23180661376784573
0.8895786653515259
0.91226119724948
0.9160304542543938
0.9070117074696841
0.2812696480155581
0.16356764101023696
0.16104390806640326
0.17604236738309637
0.21555638735691712
0.25690231254407625
0.27517660723974946
0.2856618628796878
0.24955463165775374
0.19693852371424284
0.15210153677992644
0.1002365690473037
0.10230980098971476
0.1275661605933623
0.10920287878262792
0.09083959697189356
0.0724763151611592
0.05411303335042483
0.10329469993883922
0.1341904541175069
0.1147177324534621
0.1372620415269137
0.15523811589784278
0.17061674024182802
0.17894325861769314
0.18110480225724523
0.17415389167972398
0.16011446129043452
0.13865079603504857
0.11411221997216818
0.08811954411902626
0.06310486336563569
0.04774016199563328
0.04453372409450383
0.05426027610437957
0.07444046862555653
0.09699646078699709
0.11755099423289493
0.13473124445067375
0.14753480913780012
0.15668732294508117
0.16221114607694984
0.16373167321068963
0.1586439944667465
0.1410674738352909
0.11797356765844187
0.09187946574789184
0.07979816907915735
0.0973521178214663
0.12478865377383767
0.16280088146852856
0.20240137115174897
0.2209024872479806
0.22844789157842532
0.21185919256320337
0.18260080639149506
0.19319349679186457
0.2807616964985311
0.5400746605245343
0.7471766268844341
0.7599933754541641
0.7156102022418154
0.5297019029967951
0.22780247484781774
0.16964178899254026
0.16597783476920835
0.17622605555085205
0.20071622646448092
0.21221194729966028
0.21830417131678836
0.20548397758430198
0.17857267891676895
0.15365893427925512
0.12770863787797393
0.11037967684823294
0.09605205897483422
0.10263610103877077
0.1031702943744086
0.08133370701267018
0.059497119650931754
0.03766053228919333
0.01582394492745491
0.0601450310196002
0.09609557835511325
0.11585665727095373
0.1526599225521295
0.1835990384730744
0.19946347055639888
0.2047698062908088
0.1938902025152322
0.17320551760723113
0.15050352300618075
0.1289836058861365
0.11022869650458976
0.09159075155780727
0.06998366495522415
0.04896923226553302
0.03595836546442268
0.03567750331556951
0.04910398751325838
0.07223944693659337
0.09867602396481072
0.12460749263672238
0.14825511250494344
0.16699954487688398
0.18000037447485712
0.18751005397602985
0.18430721353876603
0.17037866407185936
0.15077360605521703
0.11874717830748467
0.08496821164213808
0.07211545724989928
0.060821775853645406
0.06988498488140606
0.09648796546544743
0.1571077121458866
0.22452437160992303
0.27988726154313087
0.3085591560932409
0.31252860964110374
0.28031871053608953
0.22312377282607407
0.240698351755077
0.881827039650896
0.9073529922463456
0.9119790147303211
0.9053854301674491
0.3031816720006969
0.16708602623022586
0.1618846693135099
0.1751040814054646
0.21594354499086318
0.25974623924000806
0.28029001861844616
0.29366517726203456
0.2567757009467335
0.2021816930546086
0.15523079212238874
0.10045907250901685
0.10222731533781104
0.12931045909929034
0.111260906897492
0.09321135469569367
0.07516180249389533
0.05711225029209699
0.14116524940947414
0.1718808185027658
0.12429490697777083
0.13830147929083975
0.14920217757641738
0.16241418250198586
0.170012581724277
0.17519923448055277
0.17181489934411756
0.1599538372281458
0.13838171529576293
0.11227004253821624
0.08482027694368248
0.06023287712904404
0.047586114835288795
0.048153695943523776
0.06130190568452002
0.08328372762807558
0.10578542657240456
0.124734196105635
0.13933400776142577
0.14868016587495025
0.15442998380461714
0.15700351110545085
0.1559673763094447
0.14977289750866588
0.13149671259915008
0.11395896603775207
0.09177232128908835
0.09045629875519323
0.11512166562729893
0.14490245093683693
0.18581827134921272
0.218064711823115
0.22303099670454593
0.21288010901176205
0.17784208724507497
0.1593732557100236
0.19869687293831698
0.2721765424423401
0.47348475319584776
0.562673096224501
0.5302359101978568
0.48244669244726834
0.3076677226679898
0.1912412825409338
0.19302941355926959
0.18778611837416423
0.19429973192897546
0.21214601104142664
0.20995193763049466
0.20385355061662944
0.180571795526406
0.14452763271265803
0.12268206021698803
0.1055526353590429
0.09776993878870939
0.09369252169369323
0.10209117975893742
0.09504247683493347
0.07238672225966201
0.04973096768439056
0.027075213109119103
0.004419458533847648
0.07433993281159393
0.10612476538990835
0.10969736116042138
0.13902771524647115
0.16229896417157827
0.17863674244977407
0.18677074710124117
0.185558414267303