# vtk DataFile Version 3.0
vtk output
ASCII
DATASET POLYDATA
POINTS 5568 float
7.361761424901182 0.2586141361550563 -19.9544493640534
7.585676972479412 0.17017866133220755 -18.965060135654532
7.6986782315503826 0.12619027355207094 -18.305370655628256
7.786841758907974 0.07557326696197508 -17.65984894490352
7.834510948637492 0.027247519437050803 -17.032437233646036
7.830788060099971 -0.012401951539303603 -16.41481314895514
7.765126223754487 -0.037872492438815124 -15.801166566574002
7.623582055999691 -0.0449517405639656 -15.184785559038009
7.399956665881406 -0.03413912571834786 -14.58172754877397
7.093963983713341 -0.006485905366603952 -14.003293226445066
6.707033166868905 0.03924035003033367 -13.456437264880186
6.244572883059147 0.10325639901690555 -12.94510121278124
5.711685099204541 0.187263335356606 -12.469799535188836
5.111343241036229 0.29399589907495777 -12.031546339428932
4.453293261099187 0.4213447129638367 -11.631134293994489
3.7464891349644116 0.5635745763012917 -11.264557949578458
3.006222623063521 0.7103575474498773 -10.921191511439162
2.2527412881340263 0.8483402409913519 -10.588726438671904
1.5027510791171634 0.9651189753179509 -10.254700994017831
0.771623571036514 1.053585155404996 -9.905830271199754
0.07225569097677265 1.1118688212636993 -9.529672110338689
-0.5831626689430751 1.1411022577110836 -9.116649756307426
-1.183128479176842 1.1446555859471539 -8.662621713114266
-1.7191177682327545 1.1238014865365598 -8.16696290806952
-2.184192518994532 1.0783375849809007 -7.63324608925684
-2.574361979469686 1.0073372567217838 -7.066894062223533
-2.8894274248352265 0.910711446783208 -6.468138560806784
-3.127145637935159 0.787420308136167 -5.835020340842991
-3.283499999641757 0.6348411135820061 -5.166450713182135
-3.3606730326556016 0.4617622646084087 -4.471107546787224
-3.3770046643766953 0.2768364370218481 -3.754433108090196
-3.3482536583313913 0.09024242601232535 -3.025934461345659
-3.291111545988096 -0.08581239802408563 -2.27233855106112
-3.2137045974430927 -0.2532097482650475 -1.484502052270824
-3.127759552971771 -0.32936091331105805 -0.736998033651061
-3.0446132131905608 -0.33916218650392344 -0.05420907431515942
-2.969760662081839 -0.2821305046377054 0.5869279064164166
-2.915566871975183 -0.15848144831304484 1.188946231659843
-2.890422724232057 0.08482877764463073 1.759229357907103
-2.888036093166661 0.43072253033531593 2.271752875316799
-2.908293669332002 0.8907580983205233 2.749849360396141
-2.9756331210210654 1.4413807957191875 3.228499182499164
-3.0782145100790776 1.9621340481673195 3.697374170309988
-3.2384415857466884 2.3874020294323057 4.228755046696771
-3.4031615477891983 2.6326320041394893 4.635102101053377
-3.4682460056354683 2.694510680317365 4.990588231961888
-3.5134762255025453 2.447637038863108 5.228058969363134
-3.5367591421734086 1.8425842551335838 5.453187759825298
-3.507340949742161 1.138420758427943 5.630727691290357
-3.383974299361883 0.3470212838024107 5.760662589548839
-3.16664277892519 -0.4476953077649882 5.857188642348418
-2.8557455024944916 -1.1975488705951536 5.9490334312687185
-2.4485927872176227 -1.876925729769577 6.058989769241335
-1.951899109094777 -2.449546072764477 6.212239597491521
-1.3799108162505829 -2.9053810268902827 6.420653133367079
-0.7504020056844964 -3.2306285960246837 6.69130345925866
-0.06692382550453524 -3.4325725364545017 7.022142284974502
0.621101237592586 -3.5109917573409506 7.376702778299273
1.3927113062485805 -3.4759671158396706 7.781432448470132
2.222914049851487 -3.336933990290895 8.186238878143959
3.26167925316163 -3.0491079400652863 8.616515939857274
4.595434613377032 -2.5123224735406735 9.014677786132445
5.7785652312153974 -1.8571811997356913 9.188130080549168
6.752549807674921 -1.1707396207685448 9.180299751057222
7.841481088889429 -0.24786073774427506 -19.832807797354224
7.906775396245053 -0.1695312351675047 -19.00614606724114
7.969476919346365 -0.17373853061780473 -18.33831485796391
8.018936200395602 -0.18818133793956093 -17.68965849768198
8.037866433461572 -0.20409577996242229 -17.05892259768959
8.01379538964662 -0.21070211331029776 -16.44176101502798
7.942197634132805 -0.20247204096255086 -15.831782864425376
7.801648921441872 -0.1774413371013418 -15.220665758519921
7.588114869031189 -0.13671609295662837 -14.631904426648429
7.307699226395178 -0.0802061814981219 -14.07848762860196
6.966216348812967 -0.00506421059338201 -13.563293817200256
6.568863373085125 0.08746083137108597 -13.082786616519005
6.117883591439319 0.1985450248811837 -12.628888441412327
5.606182564369481 0.32985201879497567 -12.193138348119037
5.031269158011901 0.48038512680166445 -11.773459591206322
4.391770425219707 0.6475128424421327 -11.371195565243005
3.7004295769991984 0.8224381572110785 -10.987516223215804
2.9822828055121837 0.992460623221977 -10.618865099857343
2.2572293258309593 1.1470690353564315 -10.255848530984704
1.541482015455225 1.2791092237739687 -9.888176064846263
0.8490370797865495 1.3842283720075592 -9.504877506931773
0.19154216173082406 1.4599486918596605 -9.097539428176207
-0.4188248486991516 1.504043105854394 -8.662439500228302
-0.9752124576582915 1.513955496826272 -8.196460590164065
-1.4757782547793803 1.4890973030889834 -7.70043930939552
-1.919595420085076 1.4306020163490842 -7.174058959875316
-2.305880135683454 1.341241558448068 -6.611786076540793
-2.632368736455284 1.2235677083146492 -6.007014032377085
-2.8943091166774972 1.075890798999331 -5.354091121595354
-3.0912317640449243 0.9160695908495764 -4.6596522048863465
-3.229252524805496 0.7456787164951446 -3.925684996354113
-3.313475863901313 0.5688909647081257 -3.1628735658576255
-3.3499162008691425 0.39756845791248263 -2.3819104391180117
-3.3411528899739222 0.2798379338943943 -1.6390967038858268
-3.29642612855185 0.1663059237099065 -0.8974432721582487
-3.2256457439953348 0.09985619375530447 -0.17925101919401387
-3.1364610062524623 0.09087118043570343 0.5169975445474803
-3.045222547559938 0.1653129800525464 1.1842535078491392
-2.9659323957484434 0.3188351128170276 1.8251470509074552
-2.916661606434118 0.5646497176800331 2.430492141979503
-2.9087136383133188 0.9040454171476706 3.0035135187468267
-2.996752547616871 1.2736996215554879 3.591758280441401
-3.1245188005404976 1.6055013959105942 4.137908759821423
-3.233596978270485 1.724124010246851 4.376406508248622
-3.3526472702492587 1.818982225546234 4.652083736331433
-3.421147196475824 1.834687874091676 5.079476450248591
-3.4955891666682573 1.440757615747632 5.3237207847865236
-3.52104757548311 0.701955698222036 5.498672024428654
-3.467874085192401 -0.04788254819708171 5.634152040302029
-3.3069643748745743 -0.8376802974117026 5.745044977612325
-3.0445095842512253 -1.6123001990029735 5.8474130505679165
-2.6853998684579485 -2.324639089897212 5.9711661934600615
-2.2250250571219174 -2.951293906208328 6.142291382739627
-1.6758761732868972 -3.4567102905355047 6.390457810342262
-1.0639704311295106 -3.829536564208479 6.720380384222822
-0.4226007691232554 -4.0676856472023575 7.1340551595013375
0.23686920668272293 -4.220320052915996 7.620360333681108
0.8298716861815357 -4.240526810577326 8.228968230137733
1.6189905499784993 -4.185022968039127 8.761049943435271
2.585576113009777 -4.053629712839604 9.294282630332575
3.8744651223980666 -3.756757228863231 9.805662874998362
5.477055721309541 -3.1861631043323744 10.187134680149958
6.818749514185017 -2.5031249250191094 10.29483026902656
7.886967859222878 -1.775800048866352 10.286844788171376
8.453425409754818 -0.8939347805863114 -19.67763828584437
8.34819943635163 -0.6252083895680534 -18.96842488355105
8.346713200204888 -0.5780431617843604 -18.281125902456562
8.347041783484167 -0.5462617435031822 -17.622224527329717
8.32918048611587 -0.5206460920757442 -16.98289695294792
8.278926391148442 -0.48499515324604814 -16.362801111045208
8.199448832411623 -0.43381940784845624 -15.75475036760297
8.059631012232446 -0.3679391366843428 -15.14799870546142
7.8579848820802365 -0.2898593818063287 -14.575180052990515
7.607815720033109 -0.19832754109197548 -14.050676550430266
7.319065266846102 -0.08846278837482928 -13.571665238691324
6.995925510725839 0.03709542672573053 -13.125709646382035
6.636969708441422 0.17959577268340543 -12.694573521895062
6.22436554516889 0.3403889776068738 -12.258517218300742
5.742371084113313 0.5201704455484877 -11.811370989338124
5.178135641774465 0.7197927910881353 -11.360654951639093
4.54154364170271 0.9316777036954915 -10.922761266460165
3.8628933868327566 1.1435599702917358 -10.505532834755165
3.1652401329434103 1.347413055361098 -10.103280613149607
2.4653570167074585 1.536093022226752 -9.70948636666125
1.7782297751154728 1.7019961318449788 -9.315018563372355
1.1146162791595535 1.8378905781936452 -8.912853474988113
0.4876340540045119 1.934098685794127 -8.499616402894778
-0.09814707441618231 1.983279990851409 -8.068615110965878
-0.6485820392221545 1.9845400170823073 -7.616324700144892
-1.16795362320448 1.9413906835130614 -7.134248999037795
-1.6550523134858712 1.8598152853629235 -6.608864347774847
-2.107667842222973 1.7466666501596104 -6.0266537611119695
-2.519725625959813 1.6011541768403907 -5.375180084041094
-2.8866037124601487 1.453652998228681 -4.657133869820004
-3.1962092925665346 1.2974286775098602 -3.87459361007794
-3.438692773881944 1.129400162491034 -3.043781009307862
-3.601851364165546 0.9612163068523567 -2.211217359745162
-3.6746941349831816 0.9011753504249854 -1.5129544916115583
-3.6822394703137395 0.739010265953213 -0.7728631493871962
-3.627856034221503 0.5948521080597875 -0.0016132092046194924
-3.5176970131190637 0.4925654235159878 0.778197975450211
-3.3727867722956457 0.49696824832176506 1.5432210786061504
-3.212654473517575 0.5277980527095258 2.3109718632767167
-3.0927829954218558 0.6434845348559358 3.085862008357448
-3.0453436318794522 0.8425485017062266 3.833602637974011
-3.172705300780877 1.0116526316474177 4.645396946955786
-3.3499693822668393 1.1380658075520482 5.363246748286822
-3.4220906739630452 1.0899437938867935 5.4296627692823165
-3.502743364791207 1.065406960966948 5.597014262198656
[...]
CELL_DATA 87
SCALARS quad_param_group int 1
LOOKUP_TABLE default
3
1
3
1
2
3
1
1
1
2
2
1
2
2
2
0
0
3
1
3
3
2
3
2
2
1
0
3
3
1
2
3
3
3
3
2
2
2
0
0
0
1
1
1
3
0
0
3
3
3
3
1
3
3
3
0
0
2
1
1
0
2
2
0
3
3
2
1
0
0
3
1
2
2
1
1
2
1
0
0
0
0
0
0
2
3
3
SCALARS single_component_feature float 1
LOOKUP_TABLE default
0.02207986386513612
-0.0803318679257257
-0.21097124413637597
-0.12211952165245747
-0.011046319438642566
-0.011639490309121623
0.028014603259513673
0.07967665285373338
0.15962577592712734
-0.05742988869777439
-0.0754710259122593
-0.05750761559719042
-0.15970238401622028
0.005627488879833893
-0.0650545186079154
-0.04882855096071903
-0.1196393013539607
-0.03509117150674289
0.057626646951761375
0.06142781425864136
-0.12188068361775414
0.032311241287753825
0.06311385591537644
0.0407839521284194
0.09199438815026618
0.006236126138058712
0.03204922428640866
-0.024992688058331693
-0.027814719909193403
-0.07698152593277763
-0.06065537635624378
-0.007831823429607813
0.036093531570844134
0.07628897762474018
0.08263143132300346
-0.02594170920432831
0.048233122576942
-0.012395727537153796
-0.10689276683246768
0.03217056482137467
0.04061513397551454
-0.028646049170953036
-0.09628404569111758
-0.13060896294911595
-0.03147000236720283
0.11398592470850455
0.16783701557829245
0.06316247934028496
0.08006831933702496
-0.04090879968913904
-0.07735038198387245
-0.07867490511808506
-0.0007222724078140771
0.07698132526801658
0.003225945980054809
-0.2470873610431828
0.10927483144098434
0.14600676612363217
-0.0050726054086969695
0.08934741545183154
0.2605344125632809
0.17813984754010292
0.012312407961056232
-0.053721900418789756
0.012742496775101246
0.06697836691661199
0.004720689284829972
-0.06147203169955771
0.010047608259837727
0.011283765672104033
0.015180104415822494
-0.009952744890961289
0.090763724670343
0.06996227135886568
0.002901382400194861
0.0059139884731192124
-0.01390177491721805
-0.020696664069154075
-0.09004993559850251
0.002536798850118871
0.053836065179789956
-0.03393366672105304
0.05553668982557332
0.01664505442122291
0.03466541810565213
-0.12130942780542414
-0.08910805875389888
POINT_DATA 5568
SCALARS single_curvature float 1
LOOKUP_TABLE default
0.07063479077130823
0.10435958703733045
0.1137571368462786
0.14640652859089515
0.17168997271783362
0.1872149506028879
0.19295171241151687
0.18829336082550463
0.17488036635949364
0.15724924061077408
0.1364009927554414
0.11469319258721873
0.09116769721945539
0.06597279026669607
0.04726542332412369
0.039873357403114845
0.04626827969366061
0.06526394376249367
0.08887600643150757
0.11224007232090394
0.13374217826911608
0.15201611855235195
0.16617646921547047
0.17594834076862959
0.18067801280242787
0.17656807375571826
0.15933680718140106
0.13294275629642935
0.10040235324821543
0.06946452774097758
0.07967424136202686
0.09453209420871839
0.12317550569202346
0.16301270495821982
0.2049998449533052
0.24627451838354328
0.2644764978014536
0.24937170707962306
0.190976785707043
0.17861851001538723
0.22760597195880405
0.5033529606936717
0.822569675483107
0.8285780795861356
0.8046799919222173
0.6611115344400051
0.19602199174759416
0.15201016160735079
0.15826995592664617
0.1798727977266972
0.20818298415656128
0.23531030692615384
0.24504705557027892
0.23678761873330087
0.20962691072167497
0.17187825877798452
0.1356873883783297
0.10400903072414946
0.10520969303636167
0.11797979139561798
0.0978923604403387
0.0778049294850594
0.057717498529780115
0.037630067574500825
0.07498934923895197
0.10388564784518027
0.09042800326966204
0.124362970953471
0.15428276115841266
0.17437163949825998
0.18848215288083944
0.18702732447184786
0.1729642305908132
0.152950499445195
0.12973075248976124
0.10852492933041671
0.08966916848252
0.07046542287246402
0.05284238992853435
0.04078008590412376
0.03885078364790784
0.04866527063129925
0.06797241710984911
0.091237526256255
0.11246169619579183
0.13009972619324686
0.14329240039203184
0.15093077261697332
0.15509992622885319
0.1515067752067435
0.14023586158997517
0.12354474350383546
0.10349973766538793
0.09857410307524175
0.08687645642136838
0.08929948739456087
0.1008559826223423
0.11863880703791015
0.14957181027191718
0.18351330886551082
0.2109422966972779
0.21147899508005166
0.1946651516579347
0.49477793927856334
0.5154278432227706
0.5862393845765499
0.7876228958550804
0.6221167561588512
0.5908978515165711
0.5142944469884096
0.1807176157633485
0.15745766308014014
0.17472853869534724
0.2029807148260011
0.23117176308982967
0.2476386399196287
0.23122889024175192
0.22839297203411799
0.21339766116137948
0.17339478917023227
0.15707747731509447
0.11417735562730862
0.10040761152866048
0.11307579156473391
0.09193816257309154
0.07080053358144917
0.049662904589806794
0.028525275598164423
0.1468211970515365
0.16915053372825628
0.06561872646285002
0.09593608154567065
0.13086384911742505
0.1556619341290526
0.1787688861556273
0.17939804052763492
0.1620546769877178
0.13789232320351144
0.11279271127206703
0.09533160874038306
0.08609374613857683
0.07742161808275734
0.06531207979313462
0.0498318903303733
0.03786441923001164
0.03626908575634912
0.04770252948715039
0.06960609922311062
0.09173925428505693
0.10906346649330503
0.11970316309520457
0.12211770529101022
0.12241435673886372
0.11810726923588102
0.11330500097804248
0.10800286956063858
0.10350733174455848
0.1381376973585851
0.16022351548382446
0.16103655326235825
0.16238099574510959
0.1478552183326535
0.11172942024691654
0.12269622317243943
0.14198237571165503
0.1553435175585424
0.1766396746550166
0.999999999907953
0.9999999999509638
0.9999999999497577
0.9999999999668815
0.6110475124998719
0.37603640939490574
0.3748752421384101
0.19297939665493802
0.1889789166852248
0.2050116266132644
0.22631162161505994
0.2423205147599201
0.23939554911825947
0.2027750047126229
0.18859042226360892
0.22589402335342065
0.19977555411682651
0.1971628432072648
0.16595928322691805
0.10389856689909911
0.11149329359524388
0.08939725885562612
0.06730122411600836
0.045205189376390606
0.02310915463677285
0.09670701512561422
0.12349663690429533
0.08154898883644938
0.11518699673891424
0.14686356070976564
0.16862496231149934
0.18587183322967396
0.18536282986253272
0.17057800717615795
0.1493567947842368
0.12534366310209374
0.10491156648321147
0.08867043024305662
0.0725342132650209
0.056286512687047194
0.04261935687043519
0.03730577917000685
0.043321908963603384
0.06025802697308422
0.08338299438117928
0.10473006485653762
0.12217884813536539
0.1347014284728229
0.14093239161257082
0.14422406966762177
0.1405337028853243
0.13155945457294518
0.11878839879153076
0.10403964526572482
0.11118673992067563
0.1071373962520969
0.10758191182724512
0.11450964282024793
0.12251396601955963
0.13293562912768012
0.16014898540368105
0.18676805750703016
0.19410423588272435
0.19288294610136356
0.9208218083714846
0.9235613110110796
0.9298044219263257
0.9624418307227998
0.5308900303009991
0.5053362452203277
0.4609161209659276
0.1817090020986767
0.1653021022008267
0.18375564738420888
0.211669335123473
0.23725011410552665
0.24789656929331516
0.2227617375192652
0.21883316856366059
0.21945826119112113
0.18312512942204243
0.17325622743657357
0.1305886531339673
0.10143918158983163
0.11220381195303249
0.09059056651286584
0.0689773210726992
0.04736407563253256
0.025750830192365917
0.05450895604691769
0.08678253544373603
0.10612207379078996
0.139390999652572
0.1662078159905765
0.1832666761160999
0.1917955870928444
0.1882913421384167
0.1748241132821484
0.15651313121168928
0.13485342122121122
0.11311736309301523
0.09084596942864435
0.06732736186097904
0.04863039895486204
0.039671237540668584
0.043399239961479236
0.05949618560739258
0.08194864530402496
0.10528700203956298
0.12663623793518933
0.14470729394545145
0.1586774734344673
0.16798767270093262
0.17279629487611928
0.16899796085775692
0.153696575245002
0.130367532505523
0.10160746760300951
0.07843415765127118
0.07788341846057352
0.08759185269832516
0.10994489158212906
0.14287638126229443
0.18540027311560464
0.22612756181745403
0.2491349293612567
0.23807851801005453
0.19266507719573434
0.21012382785038464
0.25781727595460013
0.4651051760474041
0.778248177362168
0.7730191500607654
0.7415675179216998
0.614061822264256
0.18799971117996417
0.15144121225307014
0.1625267194103986
0.18732789137786793
0.21657863562144059
0.24096790377393398
0.241950321551674
0.23512644132466956
0.20410215343741148
0.16315288372917075
0.13342430021625004
0.09801870311784132
0.10182725155150098
0.11578890970921502
0.09553591343472867
0.07528291716024232
0.05502992088575598
0.03477692461126963
0.054385998787817455
0.08663236246620887
0.105985450622786
0.1392641558135659
0.16610822487172203
0.1831941271016584
0.19177242838843855
0.18828793174837904
0.17481847434619072
0.15649453457579562
0.13482057378512496
0.11308552606704808
0.0908387359368638
0.06735257518566846
0.048658488155581665
0.03967155157956992
0.04335144457938666
0.05939557275760208
0.08182543942209367
0.10516335342128036
0.12651023432191702
0.14457745176387546
0.15854303766233482
0.16784284588806805
0.17265054076857128
0.16885636783445843
0.15358979477679627
0.13031676982652016
0.10162789652633733
0.0785997625955048
0.07787074821837499
0.08749605757407435
0.10974189457107293
0.14254822464809996
0.18505965735360325
0.22575961004730233
0.2488375590831896
0.23786429394021616
0.1926930063521139
0.21093533379043422
0.2585558154495327
0.46463855041675567
0.7774928345860007
0.7719175833394665
0.7403497503485829
0.6131956557237235
0.18788383223343774
0.15145153316141882
0.16261303218502982
0.18746329725461797
0.21672261860291
0.24105593448619872
0.24188167224944412
0.23509767451047114
0.20409595854266988
0.16311416169218923
0.13350515213238026
0.09802094244015881
0.10178627953972025
0.11575635801128101
0.09549752660004193
0.07523869518880286
0.05497986377756378
0.034721032366324706
0.07460905706939808
0.10858118899445447
0.11512240366280807
0.14764789973165496
0.17265482428342105
0.18790059527016545
0.1931308778042731
0.18825586391659577
0.17483871755194444
0.15732042962146012
0.1366201619396259
0.11493403348188483
0.09120810093248212
0.06574229547844156
0.04706183846772759
0.03995291815662546
0.04682080110656536
0.06632302338968965
0.09012352386326299
0.1134924990947309
0.13502529017550222
0.15333193940681403
0.16751173927063687
0.17734084738842462
0.18202880190623438
0.1778455653449574
0.1602732761713078
0.1333465351667678
0.10017940420794416
0.06792467440310498
0.08018336340662927
0.09606248685299539
0.12588404186010008
0.16694387506880531
0.20860032714579932
0.2497628100216048
0.26693208933769647
0.2512109346948226
0.1906375169884557
0.17479982696260946
0.223574185134616
0.5117600170180667
0.8302912037181218
0.8372669936309771
0.8147977449024754
0.6691215551800127
0.19778327110452765
0.15234566440291955
0.15762784025340112
0.1785709827100911
0.20662043021562274
0.23415399479512952
0.24544338106255684
0.2371439536512482
0.21174336797377222
0.17486633635477936
0.13759523457996217
0.10638481712486085
0.10606626516294465
0.11846385602678565
0.09835899971922982
0.07825414341167398
0.05814928710411815
0.03804443079656232
0.11270315857334232
0.14868019436877683
0.12688171801614678
0.1582183290179296
0.18081069181662632
0.1935841762654763
0.1943476993933073
0.1874809132721525
0.17387032208048217
0.1572242344044991
0.1378287354853999
0.11651675623270266
0.09133738819840992
0.06393622656075514
0.045791524779865284
0.041157808134602444
0.052062299484807374
0.07573767347956864
0.10098315785317225
0.12439675615326727
0.14620696019244292
0.16471569913166703
0.17885271980291
0.18883083142835239
0.19279201585921116
0.18772095997548865
0.16728930094551017
0.13602773224788223
0.0983903226933551
0.05644866267065956
0.08737806777317081
0.11320977573739387
0.15351191475383844
0.2043567803657116
0.2402180018704237
0.277604231919074
0.2838782565337115
0.2633529264871646
0.1865481984784975
0.15039464465066546
0.19450067782442998
0.5897281914413174
0.8861102789424623
0.896638088468136
0.8849486636071564
0.7294972272489347
0.21726624096777003
0.15804823397305098
0.15364369838900369
0.16799012404590127
0.192724343048638
0.22262461872882905
0.2467637143226752
0.24078249993648182
0.24091863787899923
0.2155551825626041
0.17090180399736668
0.14114719329587339
0.11749956600031956
0.12440771709934845
0.10300749695753728
0.0816072768157261
0.06020705667391493
0.03880683653210376
0.1729635545954876
0.2115017041264874
0.144258300207897
0.17357153127693556
0.1924778440935583
0.20135229149058453
0.19511112236208286
0.18489638201184888
0.17053752956192142
0.1548883503450408
0.13749893234971464
0.11728425799985881
0.09077551189560297
0.06214177559207526
0.045606319736993736
0.0447718466936444
0.06156077933808681
0.09044801096779279
0.11744137835604629
0.1408971214214448
0.16302364111691448
0.1813843819548849
0.19459713249163535
0.20349837652373115
0.20504949111845872
0.19766379730585415
0.17340647225929692
0.13691162656138214
0.0973233850844858
0.06358112111387032
0.12454117470409454
0.16826706796420518
0.22300300339028584
0.27015212518385734
0.28648338553793945
0.308663066608484
0.29331635143472473
0.2632615516265384
0.17331358301118197
0.12344465658021121
0.15832620259436808
0.6882210389992678
0.9269691955688546
0.9389585220194775
0.9358066153075038
0.7760127705094699
0.2617532634013866
0.17509415158947642
0.15301847696991663
0.1554945145872975
0.17232902116402
0.20167282779054815
0.24133914357414757
0.23915307043581419
0.30054725395200765
0.3067195197175418
0.2629143970887598
0.23520385172843372
0.1542840630748882
0.14347902804001567
0.11251015221647122
0.08154127639292677
0.05057240056938232
0.019603524745837875
0.06409939780426763
0.09413893222427891
0.0955285549695403
0.12936932056413786
0.15828466257948742
0.17740348762793004
0.1897152597984994
0.18764427107629106
0.17385653831024567
0.15444781950804806
0.13171630827732553
0.1102381388734439
0.09012963040622361
0.06938712268889076
0.05123855576486068
0.040160897871645396
0.04010469865579591
0.052011332359620056
0.07247434045475978
0.09577306147596724
0.1169994915465094
0.13477118990144143
0.14827087644773432
0.1565593952210646
0.1610558615205073
0.1574520689319314
0.14486656130867695
0.12597743747365522
0.10299961393005577
0.09177218807966789
0.08065225593434015
0.084925684607744
0.0996369261100975
0.12256177433006887
0.16040090210116434
0.19731505045189493
0.22412919470394177
0.22057352404180686
0.19443504054201197
0.3385139386115778
0.37249316966496815
0.4878330729543264
0.749201130446102
0.6763894424316511
0.6412284503394464
0.5463430938183406
0.18178346576716087
0.1544245017000915
0.17025625782128978
0.19790306783238693
0.2269066845261214
0.24627331151143936
0.23532213437002547
0.23169368698504786
0.2093155986177798
0.16808438990806643
0.14758111931784254
0.10636868387947636
0.10026134250734886
0.11376484830046671
0.09293240435260758
0.07209996040474845
0.05126751645688932
0.030435072509030187
0.07258283612418592
0.10172279275160302
0.09149973616993141
0.12542772305001992
0.15513647500109654
0.1750223900868304
0.18875546458265208
0.1871753525727005
0.1731775653187115
0.1532956859450439
0.1301767979328143
0.10890457931649315
0.08977242182992921
0.07023329711248134
0.05248451436756506
0.04062641710523237
0.03909422820238708
0.04935294434726178
0.06891483273522221
0.09218864146127297
0.11340947109570615
0.131074447640809
0.14433603109866497
0.15211991482099024
0.1563678180381842
0.15277653410049893
0.14122916540177255
0.12407316312372023
0.10340520325032088
0.09712186378403617
0.08519772336964072
0.08796673842925962
0.1001564630332861
0.11904324831127966
0.15177399841354378
0.186397014066904
0.2137626064635601
0.21343339345058787
0.1946730977254939
0.45389353839260216
0.47761414252953877
0.5578632158617641
0.7747674894613741
0.6338574242916999
0.6014697588691549
0.5209595929661796
0.180841145633037
0.15673306769996737
0.17374752485386835
0.20191756026171848
0.2303187950162697
0.24742087819569847
0.23213590625948197
0.22920766429780084
0.21254997682399301
0.17222838307138605
0.1550550406076711
0.11241254826663365
0.10034162018292889
0.11320802934290579
0.09213353358385752
0.07105903782480925
0.04998454206576099
0.02891004630671272
0.06413382164579248
0.09416950035606217
0.09551104720310079
0.12935237968270896
0.15827117188982665
0.17739334655407085
0.18971130820462884
0.18764251939131968
0.1738539887864318
0.15444328662493323
0.13171006534374427
0.11023264964096746
0.09012818182240892
0.06939071606063932
0.051243643522965975
0.040162556243934465
0.04009999524691527
0.05199953821371047
0.07245881742225654
0.09575745039411641
0.11698379856634909
0.13475501778661642
0.14825374005905786
0.15654020734941657
0.1610357520791641
0.15743208218956808
0.14485108186930812
0.1259694401314922
0.10300154086171275
0.09179508234381833
0.08066634243300473
0.08493254356212412
0.09963235066860283
0.12253999674651163
0.1603622609962083
0.19726740317445732
0.22408501574522577
0.22054313665841535
0.1944368428488399
0.3389014263984138
0.37284200553510544
0.4880306103003583
0.7492458475692945
0.6762110305492446
0.6410562295298492
0.5462318431683623
0.18177771914960072
0.15443312279593796
0.17027076621411855
0.19792055974523745
0.22692218709132234
0.24627939203097537
0.23530905918520945
0.23168470838651573
0.20932943766503403
0.16810112490280948
0.14761265790506028
0.10639259873919137
0.10026104399340963
0.11376221181776676
0.0929287102812153
0.07209520874466384
0.05126170720811238
0.030428205671560918
0.11726355683278131
0.14215519045401842
0.07425525086542022
0.10695807284474465
0.14010551118882061
0.16324614238308868
0.18312279596533837
0.18324750059031855
0.16755537599634737
0.1451434858156698
0.12055513092865651
0.10115042412468721
0.08763194111197516
0.07451343557484096
0.05987471292144219
0.0451079805512585
0.036846316794183806
0.03952968479705554
0.05414758739677544
0.07696084317923656
0.0985677124213725
0.11592240579865153
0.12772781821244025
0.13247206559452004
0.1346780236002394
0.13079069863471762
0.12371877874011795
0.11428530010145783
0.10409410613465558
0.12261934854529868
0.1292462525703355
0.12924450767473442
0.13318858599874434
0.13194862004306485
0.12159187692806014
0.1419595332616019
0.16614865604805068
0.17769156979023618
0.18809181543445033
0.9998388560898654
0.9998636396309926
0.9998662915545469
0.9999216078951536
0.5130696275070615
0.4406720787685105
0.41986058912292945
0.18524799093629324
0.17441265237640108
0.19254603052565927
0.2185854010102691
0.24069766582174373
0.24571402424006542
0.2144754708756493
0.20702907325351466
0.22289350706740738
0.19071332839555066
0.18500855243756859
0.14590703064589503
0.10260529852659735
0.11175152006529844
0.08984273483044651
0.06793394959559458
0.04602516436074265
0.024116379125890722
0.06084600542860198
0.09386599301954429
0.10996581904946605
0.14293966538704567
0.16898718181754618
0.1852795266568611
0.19241094920894505
0.1883379979760767
0.17491495075537666
0.1569568638165067
0.13570209981582068
0.11395996685942367
0.09102820917055601
0.06663190488273153
0.047894040764949984
0.03972025508784833
0.04479587956348167
0.062365477410691844
0.08542573618280737
0.10877671220953393
0.13019823696027463
0.14837488108611466
0.16245751530853164
0.17202967640672306
0.17683090406176993
0.17289572674141598
0.1566185273640333
0.1317294768002121
0.10101368288151756
0.07384637378769524
0.07854220391983881
0.09072127556380832
0.11617167365567367
0.15259815757381678
0.19513954294714886
0.23638690194151368
0.25718421825045873
0.24394875326845641
0.19184961773123413
0.1915136964230263
0.24046902843104148
0.4819578778380447
0.8004448374007672
0.8024647873815012
0.7746356910386213
0.6381432593895975
0.19165524492651698
0.15144792233430268
0.16024369569484836
0.18354314713902092
0.2124321617228981
0.2382967705601841
0.2436931847476982
0.2359190089108907
0.20555066425377447
0.1658655088562198
0.13281473077885364
0.09948635130978717
0.10324900596442903
0.11679337299705293
0.09666961821273135
0.07654586342840976
0.05642210864408817
0.03629835385976658
0.06757789215181513
0.09723829605748764
0.09381691653784306
0.12770570978465792
0.1569582259852869
0.1764038223300588
0.18932008535247746