# vtk DataFile Version 3.0
vtk output
ASCII
DATASET POLYDATA
POINTS 5568 float
7.73213166538515 0.8709653305095163 -19.88403450225925
7.881993501192136 0.840971314830408 -18.897045212613484
7.98546942732838 0.7804432044939881 -18.183329103530667
8.066680148063417 0.7088724638000765 -17.46999695090129
8.105717244524623 0.6351558386601666 -16.771242761131322
8.090698628417439 0.5663774534068559 -16.084861182403287
8.012607822226501 0.5096663721088855 -15.417280920309546
7.8583344758865366 0.46833815079556324 -14.763062522738592
7.6277504638680975 0.4414087519698235 -14.145720477015976
7.3315740848277215 0.42932385165269227 -13.577672697596464
6.976254699119076 0.4357297661242858 -13.057251142786285
6.565362929668063 0.461001434350276 -12.577551456789017
6.098599111062683 0.5065424831490396 -12.130454614206197
5.570043939205204 0.5743462479560388 -11.71226559818358
4.980676385760014 0.6617027373894995 -11.32169603794994
4.329554078779382 0.7640447655063097 -10.956069199892417
3.6289529486211944 0.871370511214946 -10.611056597351466
2.8992283101440885 0.9720093237661461 -10.279704360936892
2.1571026652067053 1.0564575987238505 -9.951991525497116
1.4197504391764446 1.1181551192307801 -9.616113803693453
0.7032299708448286 1.1540203582639885 -9.259630051133628
0.020487186710831606 1.163521235415365 -8.873351303516964
-0.6154427621973217 1.1468277209583435 -8.453219228622102
-1.194171355180774 1.1022714771371054 -7.995960691217251
-1.7072768886100054 1.0298960874894902 -7.503354148638225
-2.148607458457679 0.93261619704563 -6.97925780407438
-2.516815445280854 0.813324310989211 -6.422775088284055
-2.810593908233624 0.6743015807631385 -5.833363134692838
-3.0276813749986227 0.5177055043379335 -5.213492395151447
-3.1728792771697645 0.34582095395111556 -4.5626302660928975
-3.261119366225409 0.16272913881353626 -3.8797293575067417
-3.3054403958789833 -0.028738217677584166 -3.167064565963553
-3.317194208961162 -0.21139316333425853 -2.416148589730776
-3.2992315966392183 -0.3767308134999126 -1.6305878261200626
-3.2592341903358206 -0.46707210465564286 -0.8575792792618253
-3.2080431050128695 -0.479880564967659 -0.1228861765285637
-3.151912429939494 -0.4127180593522858 0.5830707006122261
-3.1036057083562922 -0.24921798614332688 1.2402120859025785
-3.0738611121807398 0.00785750392119608 1.8320203599953415
-3.0617618154653123 0.3619723171080821 2.3315514514627935
-3.048262965872246 0.8142593183050435 2.759001995765509
-2.9998046082163183 1.4427561249685974 3.1695733541112
-3.0536297592826656 2.030750158219953 3.704247043236304
-3.2478611379545974 2.426315967033652 4.313614927599545
-3.441685663029363 2.5061279864952146 4.7705489757141795
-3.595331314385457 2.4859958705507696 5.232041609892668
-3.6754122930401403 2.1565939844642794 5.469088055060351
-3.6954454484136656 1.5212067842876174 5.656043908425887
-3.6356883521306087 0.8274154166219414 5.806586702639045
-3.4614770916672057 0.05974310367033431 5.9262971989220325
-3.1819244689993273 -0.6963560870415534 6.026299989980845
-2.8101745222861556 -1.3850079172152454 6.1356492613721905
-2.351936617855586 -1.9944794284073484 6.270271443443223
-1.81065455239724 -2.495435320180243 6.452966051239562
-1.1960085681615242 -2.8788958849714725 6.6942171144075635
-0.527399216998758 -3.13083962535178 6.999545897979368
0.18397118689410408 -3.271291419401478 7.367466653554019
0.831001839279866 -3.269611176879045 7.818325810482025
1.6355561931127423 -3.184890541175365 8.221537947588564
2.5303931734174077 -3.0265313203404465 8.60796791539285
3.6396057015759755 -2.7110144944620247 9.004609249078397
5.047232390483259 -2.1080847418506377 9.361928547941675
6.2630570987819745 -1.3552666257264385 9.499687982231924
7.284142001972815 -0.5282108329358592 9.47891386541763
7.484269617260978 0.20099490810069992 -19.925064928424014
7.668147768070221 0.15292718948226625 -18.97341237498873
7.770327481715788 0.11580716095155426 -18.308804747012044
7.850197033379843 0.07105707410487633 -17.658280628483194
7.891495583632239 0.027528528918583026 -17.025499699782518
7.882914678445254 -0.0074480901860650775 -16.403415390325
7.815220326269216 -0.02827402580688059 -15.786940089122789
7.673030667534841 -0.03126610020547284 -15.169155295059156
7.451023601914009 -0.017065065956589943 -14.568164300849894
7.151038011059226 0.013613323897524926 -13.995738674772229
6.775839791013785 0.06251274190040562 -13.457429506154035
6.330713713229302 0.12956634141407405 -12.954860714468687
5.819800454332202 0.2163315091786659 -12.486148722192073
5.243285516099109 0.32522740975609643 -12.050021446195442
4.607688269545181 0.4543104920962828 -11.646578519659446
3.919065946088238 0.5985821325421681 -11.273040472950012
3.1919595539816767 0.7480801085677377 -10.921613263599042
2.447640366823518 0.8897280261720002 -10.582113428830183
1.7035165858811379 1.0117120153576586 -10.242869209760428
0.9752969708267295 1.1069460026720506 -9.891299010758216
0.27635479898286486 1.1729741395320343 -9.515257419965868
-0.38115686823036243 1.2100904905150784 -9.10543917520275
-0.9854900874129645 1.2203273434710997 -8.657814312260863
-1.5283236247027818 1.203974874562938 -8.171100624306025
-2.003597937367573 1.1607627395391449 -7.64825371999445
-2.4077576868385218 1.0904597532670277 -7.093483864474207
-2.7404209599072766 0.9937825116941863 -6.505810632162328
-2.999432069110502 0.8706691739707484 -5.882490672165652
-3.1808017880651667 0.7190533808601943 -5.221819790001531
-3.286409722989544 0.5490611449959044 -4.531439888167222
-3.3318909899391267 0.36752283179439826 -3.815349118950021
-3.3306263169207835 0.1828322330319944 -3.082564678257037
-3.2969757388797483 0.007456024553600893 -2.324689365885416
-3.2379833781313696 -0.14945925316799655 -1.5467965502059726
-3.1635928740662087 -0.23407755442344538 -0.7990437775462746
-3.0851353915665767 -0.2552114380415585 -0.1059893707027989
-3.00882960726321 -0.21034598843289526 0.5499712374080437
-2.947909992429289 -0.09353115923479793 1.1680678983531987
-2.9119700451619637 0.13263660686267634 1.7521138862197057
-2.8997624500242813 0.4582938029938073 2.279802303248564
-2.911851213701946 0.8916746884596738 2.770809859546287
-2.97471603860417 1.4062765259248349 3.2626634740084084
-3.0785995542587 1.8892205070797554 3.74892524944548
-3.230765036992488 2.235990952759657 4.215692806597862
-3.3868769869772786 2.4343627401418253 4.595025127027663
-3.4581478385383564 2.4822298513182637 4.9703413464716295
-3.510919400783215 2.20368284185601 5.20892627952107
-3.5343708488101293 1.5715265761592603 5.421837517853384
-3.4981085391242495 0.8594298579292106 5.589108525671304
-3.3636143920387656 0.07031045198127661 5.714461175714467
-3.1328497746258703 -0.7172334380706274 5.812365277472442
-2.8081081900144382 -1.454536641157284 5.911811928620881
-2.3871708659283835 -2.1173688996062525 6.035638495078547
-1.878014689078606 -2.6701801903430855 6.20947245103239
-1.2969378225442652 -3.103082348812422 6.443469976431823
-0.6646168759654381 -3.4049401942681303 6.743554085319252
0.014048293556477853 -3.5923042975319364 7.1063331310080535
0.6748719029609794 -3.6531890589461637 7.513266797986923
1.4515612674330907 -3.61071478955784 7.942162567384026
2.312524536066852 -3.4716312090957575 8.370018982776065
3.4040406611055083 -3.179766515516173 8.813499206597742
4.794457948421503 -2.631616086362718 9.205848708239754
6.010361745830375 -1.9642533266323219 9.364117984131658
7.00608259786343 -1.2600606261814933 9.355364830244628
7.190509677577053 -0.5930373867435295 -19.97369316984534
7.413950302757861 -0.662017954288611 -19.060660019712607
7.514500566926662 -0.6734290843456521 -18.451193996350547
7.592609892172278 -0.6893434365421948 -17.870434293583934
7.636115893972874 -0.7007055074646068 -17.310390065745302
7.634388947640133 -0.699732066036025 -16.758742967989658
7.578002148231247 -0.6816606744860642 -16.198028042949595
7.448941507678965 -0.6419818411647521 -15.61939895394183
7.2357564073089256 -0.5802315093965986 -15.034362082564822
6.929525049661183 -0.49787589041667724 -14.453500355370016
6.528071632895718 -0.39575706334157024 -13.89079196609118
6.038498738105243 -0.2752532023298166 -13.358189028663976
5.470557128257585 -0.13530422691433408 -12.861519604095202
4.832448871545941 0.026550133952815164 -12.402460704092993
4.137757222342746 0.20905211771201493 -11.982603145652478
3.4013232927863792 0.4063139500921339 -11.598807387419592
2.640144484668198 0.6084328444669371 -11.238857062214025
1.8763305320363672 0.8005987118663854 -10.888640132053734
1.1279060867353805 0.9681648440806705 -10.534625833156998
0.4085076317873857 1.1036146088359848 -10.163370510929536
-0.27191101095617165 1.2054891435063555 -9.76301625709711
-0.9023829230120696 1.2752094592031162 -9.323902646895057
-1.4728528819151117 1.3171205042431637 -8.84160191196334
-1.9771982163165245 1.3338337948805536 -8.31688618159689
-2.411603897063552 1.324740269593884 -7.75406914982125
-2.774829815532821 1.2859878729144811 -7.158181177848104
-3.0672500926915953 1.2157774177994296 -6.5285928239275615
-3.2855585867450734 1.1112601909988578 -5.8599990320656445
-3.423418244031396 0.9651021275755942 -5.145442661195613
-3.4800641388800235 0.7967558618740295 -4.402840221707959
-3.472662031072718 0.6164115131594751 -3.6426624963045433
-3.415780713399278 0.439116405510672 -2.881875701489815
-3.3274871779081865 0.27168987672012035 -2.1122518796802856
-3.2199618529615304 0.12413475423206546 -1.340617410875546
-3.105836605119136 0.04588970094489736 -0.6200692685899758
-2.996783576087228 0.015416643798907784 0.02705753867244065
-2.898379899540451 0.03580940742381474 0.6279259303511961
-2.823440943030628 0.10152865737383965 1.2044986911913784
-2.780308378484628 0.2925533351898877 1.7806807700680585
-2.767908571837391 0.5854798420398112 2.345030389162993
-2.81252478736071 0.9991980810416409 2.9213884467093
-3.0144138040358492 1.415303483062638 3.5484435391558935
-3.1699910320408677 1.7917094908718783 3.9863390137137547
-3.279695365251266 2.084895344409072 4.310414298858966
[...]
CELL_DATA 87
SCALARS quad_param_group int 1
LOOKUP_TABLE default
3
1
3
1
2
3
1
1
1
2
2
1
2
2
2
0
0
3
1
3
3
2
3
2
2
1
0
3
3
1
2
3
3
3
3
2
2
2
0
0
0
1
1
1
3
0
0
3
3
3
3
1
3
3
3
0
0
2
1
1
0
2
2
0
3
3
2
1
0
0
3
1
2
2
1
1
2
1
0
0
0
0
0
0
2
3
3
SCALARS single_component_feature float 1
LOOKUP_TABLE default
-0.05982258330968255
-0.004276124725174434
0.061556157574317295
0.07620142394388671
0.11691665551959857
0.12769690797161323
0.01294769174274887
0.03789521807962065
0.03776968266895874
0.07139824196495112
-0.0695121692593318
-0.05117295443291461
0.03444192176276883
-0.11354976421021472
-0.068003859048208
0.10859675453261618
-0.12543282285914747
0.017980594006102628
-0.014262506547413373
-0.011449663607656323
0.009631526016594002
0.015588084381844863
-0.036236920802123054
0.015759793576036595
-0.07465391834725103
-0.09038188945940392
-0.08618756963616825
0.2565354716300513
-0.08147515115282368
-0.036110780284124816
0.007645304158594143
0.01576801833698798
-0.030585827329024682
-0.04034641883312345
-0.14148431840945963
0.025505429557442717
-0.026912574901114584
-0.049551308073253274
-0.0035818650738962225
0.00971607910805538
0.05906776686987347
0.05372719456894074
0.054431755778404006
0.06374304421436922
-0.03843776752294001
0.05755471932052359
-0.017273330144653466
-0.009014320323533082
-0.037038684851442086
-0.04403054354097423
0.014737760240208593
0.05775180964941294
-0.003555476292633662
-0.026935013448631077
-0.022532040944143468
-0.1622270461023262
-0.0006948051293831567
-0.06810169506524157
-0.00991733785734079
-0.16163683115993366
0.019842263356214418
0.12202645088363341
-0.027081867699711288
-0.054944131305837945
-0.00872355950177042
-0.08131770802399016
0.058032231650564155
0.06153746473344501
-0.03483863069209945
0.10433814359134042
0.035424528147303604
0.0015672796081280527
0.13039228638190453
0.026839813599676125
0.012103293981150624
0.03800960171870113
-0.04479333989161903
-0.03154548745581566
-0.013529306742499313
-0.06803460648518447
0.042294228953608945
0.08677781248944358
0.17977765882412855
-0.0851910599191639
-0.09165085566889784
0.054421485632444366
-0.03591311465493355
POINT_DATA 5568
SCALARS single_curvature float 1
LOOKUP_TABLE default
0.05856326508734269
0.08700093758816436
0.09726667266842219
0.12838523265814072
0.1560409379186418
0.17694234832449846
0.18943406108581706
0.1905002597200606
0.18040924812393674
0.16560799934570367
0.14589302868037876
0.12498077018577881
0.10279020644059206
0.07818908853875423
0.056588627289411025
0.042665122573892565
0.04107677734328533
0.051329396608924674
0.07002093874400095
0.0930372799532026
0.11581171069246389
0.13700613058055747
0.1555306255604487
0.16893658850134535
0.17710291064405556
0.17625971855700304
0.16176053066780624
0.137016915513036
0.10707182996133967
0.08096186725707052
0.08255904262686975
0.09752230853897995
0.12233444299390044
0.16402765819526766
0.19913750543456074
0.2495457675068006
0.28345551221410015
0.2769570108502669
0.2705052237824035
0.2900924532627696
0.4727412796813204
0.5205516697502304
0.787322169542909
0.7778494563826037
0.6593513182741693
0.6166517895198297
0.2082679817850115
0.16935820156870918
0.17511658603311722
0.1955491690348181
0.21861139021875037
0.23559082028962003
0.2336238934100433
0.2414277875940612
0.2196170874083946
0.17819768719103318
0.15074985360987544
0.10014912543792127
0.0968471949768908
0.11128267348907069
0.0918431066730983
0.0724035398571259
0.05296397304115351
0.033524406225181116
0.05659735942136003
0.08903552634826496
0.10779955394977894
0.14074454354236574
0.1671884286786574
0.1841167232518664
0.19211083242520352
0.1885956317177662
0.17538118668339708
0.1574960571692784
0.1361827190161912
0.11446903931443726
0.09177832569180032
0.06763783281570566
0.0486652200095447
0.03983149127205934
0.044016397708395966
0.06061279185888222
0.08322644652230654
0.10657654965020469
0.12809748522517844
0.14648788522303716
0.16087686416649963
0.17065326621516197
0.1756927401927494
0.17200244269857096
0.15612956630221375
0.13170862169541261
0.10162810396387688
0.07575721666818681
0.07855190827840314
0.09018237066026859
0.11465107640493737
0.150443780832724
0.19245667001202318
0.23414945905094534
0.2564092035735265
0.24305921979215073
0.19616539696736443
0.2036542064532847
0.2646633822797953
0.4778739567717434
0.7915970971910493
0.7903474171268214
0.754942642952033
0.6282366827153523
0.19130315541165127
0.15249309820655585
0.16197431833315287
0.18562530666064972
0.21428633079404696
0.2391230032629002
0.24259406014857687
0.23600451348883836
0.2051248150389346
0.16473821200533365
0.13310072633430275
0.09805308804962631
0.10220940728797875
0.11604912490951194
0.09594843792843977
0.07584775094736759
0.05574706396629542
0.035646376985223244
0.09784282064698493
0.13585176057024234
0.12216965534997438
0.1569257218989789
0.1804580969124336
0.19046439129782605
0.191993984854581
0.18293489759970175
0.16678949165021079
0.14670443272978578
0.12473240813562644
0.10290996886903886
0.08001784786543677
0.05640731979740469
0.04156562313110541
0.038717211458994254
0.04944873089049099
0.07313873932116036
0.09876716118784198
0.12163086997144633
0.14076570616817818
0.15486286568270388
0.16378795739603133
0.16919509156458032
0.17102067518130148
0.16478303803910524
0.1481938709815919
0.12503173470685117
0.09553313395282151
0.07036474506289823
0.07432125250273323
0.08014352583833759
0.10235533057855141
0.12903922224051123
0.1811078924695583
0.21603799304082408
0.23171244443168187
0.2513189910719255
0.23388119729561463
0.19544879173928018
0.18484313203866015
0.6204603653055818
0.8699468707102126
0.8830852427944205
0.8824778438273416
0.677589921991046
0.18153634154768522
0.13855629984057174
0.1474677733884297
0.17276576938298252
0.206169054825874
0.2384218786416044
0.24871723740579213
0.2340352068091738
0.21466373952933085
0.17894625802309197
0.1431146130412276
0.11909433334338185
0.11098177005941069
0.12228141780390907
0.10117945881142963
0.0800774998189502
0.05897554082647076
0.037873581833991324
0.11037993461564932
0.14975240730428743
0.12567608375908312
0.16074344836663554
0.18336525677217008
0.19150263166079537
0.19149631474775697
0.1812519014986542
0.16460123099488344
0.1442228518378761
0.12224166288960132
0.10048530058648694
0.07759686633497674
0.05413467093793104
0.040296933829195025
0.03874234100278608
0.050866633435547336
0.07601869621409563
0.10211374363923517
0.12474430835010715
0.14321593368395438
0.15623815950180478
0.1639094632412102
0.16837922271182285
0.16959424904074608
0.1629234874922902
0.146297915626248
0.12352204269824832
0.09425212624598203
0.06929399898805202
0.07346466759835577
0.07770001912637176
0.09909274264351858
0.12376405530028252
0.17834212129335017
0.2123780471070477
0.22757247903574696
0.2542411315432194
0.2563510688268097
0.2628333239449474
0.26207324033957924
0.7017195992012262
0.9029269795371292
0.9051970387206407
0.9031818960105747
0.6951697039725646
0.18074896697637288
0.13635203410790148
0.14451937093716521
0.1698496090607762
0.20398408460151216
0.23754686987214704
0.24937316403062287
0.23485082648778877
0.2204978212969623
0.18623159898837793
0.1496255575409228
0.12626527763474013
0.11320261501815573
0.12376193047877224
0.10241002758349486
0.08105812468821749
0.05970622179294012
0.03835431889766275
0.1505257443651556
0.1938786621725198
0.13609710296391864
0.17175544584897925
0.19126578926953217
0.19359471215657525
0.18925806831105882
0.1759092533787458
0.15816635051328803
0.13729577311397073
0.11548217259199123
0.09403668482989135
0.07124377828039676
0.04840160249381348
0.0374060677464466
0.03934259976675849
0.055183669958401946
0.08399896858412204
0.11107055859521979
0.13281533479860824
0.1492050770532149
0.15906324491398152
0.16325336607779858
0.16525053330479142
0.16500374381995014
0.1573853439593655
0.14086449021230046
0.11932171351496089
0.09085651881065904
0.06657244223141036
0.07124755119753412
0.07049327275825448
0.08895319094639285
0.10939509007157996
0.1714382146366859
0.20421776155199264
0.21953066460066803
0.2565766208366691
0.32361070842855233
0.49734141703985724
0.497883177847562
0.8562056043421497
0.9597426167285908
0.9425360893091178
0.9416821107930737
0.755039995337832
0.18078170030199636
0.13173246539045028
0.13697265548214066
0.1617790596830465
0.19730024422655573
0.23380761991883964
0.24983592882003103
0.23898691449237033
0.24090318126718413
0.2112762158072776
0.1728743942361359
0.14842467608183116
0.11977071276384868
0.12808092521365913
0.10599340219845135
0.08390587918324358
0.0618183561680358
0.03973083315282802
0.16250035603194493
0.2069399183674908
0.13903806160395896
0.17476649604805192
0.19329967835847797
0.19394409260549464
0.18846360044140514
0.17435163432604628
0.15639807669969538
0.13546857321602848
0.11373859552105835
0.09240176415098612
0.06965500426540937
0.04706783998919796
0.03682627052230377
0.03965770150496838
0.05644000733433342
0.08608319674708255
0.11334075986332356
0.13479294139193676
0.15057632240353439
0.15956166247197254
0.1628411648320512
0.16422411011570312
0.1636510345351706
0.15584334286138382
0.13939641035569797
0.11821334990638471
0.0899997430356888
0.06591434647617626
0.07070034019238967
0.0684855549033816
0.08600658440146507
0.10594923427163803
0.1700815395733732
0.20282788303655658
0.2184635041570906
0.2558682001165462
0.3421793083931297
0.5680914801400236
0.5663472561579456
0.883701626838832
0.9689030298188862
0.9484305448598038
0.9481258437142321
0.7727635052844977
0.18127472050794458
0.13084165792747826
0.13514058781213117
0.15966560029560373
0.19539643971877838
0.23251095557558174
0.24962787736042785
0.24032001501423658
0.24692223242901082
0.21864745103875302
0.17986251055556504
0.1546361598254834
0.12159167201482662
0.12927881999608176
0.10698820780538142
0.08469759561468107
0.062406983423980725
0.04011637123328038
0.0642082909681732
0.09801394595686436
0.1113510046675629
0.14482001375803305
0.17067393169131137
0.18602582197119197
0.19242181953216403
0.18744274774628328
0.17336631186194373
0.15475826870368148
0.1331605241099756
0.11134408537892686
0.08856383875112729
0.06455522692269472
0.04657853886386604
0.039329283779016254
0.045265662554761325
0.06377911199371997
0.08734203199223063
0.1106541537449233
0.1316460813723503
0.14900731049620997
0.16200910603503704
0.1706320760695094
0.17476574307497933
0.17031639922508252
0.154164059290636
0.12998884931444438
0.09998640621733836
0.07425833123546545
0.07738669478621572
0.08770121553211885
0.11179117440246844
0.14534209113563826
0.18978951629217292
0.22930195191291766
0.24908000239783287
0.24097257155169885
0.18539958941813572
0.18025014450847715
0.19317441819637496
0.4746267440032558
0.7986285962863915
0.803178388027599
0.7907492876960447
0.6367217822264785
0.18769670024668705
0.14819101852848593
0.15801447094084503
0.18233283000735237
0.21245352101047135
0.23945628125955082
0.2446888752083594
0.2347181108764229
0.20455848556036163
0.16506539245635832
0.1322306317027652
0.10119773331290786
0.10428715675775513
0.117616105794353
0.09727466313380972
0.07693322047326645
0.056591777812723176
0.0362503351521799
0.07977434644809714
0.11567334852389091
0.11675168556693391
0.15092305081380944
0.1757136103832715
0.18848736112146258
0.192440474402595
0.18534800630847223
0.1701378483018672
0.1506712479953649
0.12880934589622128
0.1069424678980529
0.08408011750048007
0.06026558644547534
0.04384971677998205
0.03887642246756017
0.04730416843997364
0.06852607992825593
0.09325489997170378
0.11639944270140544
0.13650513157454874
0.152253535978808
0.16318579018638724
0.17014412779827845
0.1730427107950947
0.16760882365700558
0.15116941320440597
0.12745893770008018
0.09766445787550149
0.07219596971503259
0.07577122537205722
0.08392683032752539
0.10720890120933309
0.13727892336506375
0.1855002690957842
0.2223589978399036
0.2395175424996102
0.24527903312802996
0.20181540512038712
0.16660296166751665
0.1375206071514455
0.5146521497605658
0.8224660064278982
0.8374977698477347
0.8412746751952667
0.6543765336931964
0.18382139120239283
0.1427883610258331
0.152468009917684
0.17745730964526238
0.20942328755427572
0.239288212460601
0.24710919964411052
0.2337326067134417
0.20774092525809235
0.16997053204122387
0.13552086248802106
0.10899006830995102
0.10758265700630584
0.11996434520442599
0.09924670273615509
0.07852906026788418
0.05781141779961328
0.03709377533134238
0.07968619243340154
0.11557432040563223
0.11672372428579383
0.15089175513322112
0.17568832100884643
0.18847591941607544
0.19244164741933745
0.18535974043402415
0.1701549206012958
0.15069209850316
0.12883112491364365
0.10696423654753372
0.08410216567822304
0.06028662419469004
0.043862611159872084
0.0388779442463557
0.047293304762709175
0.06850183096128054
0.09322536539934476
0.11637108217145489
0.1364815854403482
0.1522384476385079
0.163181257196539
0.17014791652900763
0.1730524607183269
0.16762317860895215
0.15118487405475378
0.12747175708013642
0.09767595835549199
0.07220601422882282
0.07577913407764593
0.08394636873624346
0.10723330966808375
0.13732128648127553
0.18552291168495308
0.22239343150422966
0.2395623595827896
0.24524704434646788
0.20166923456879804
0.16664998733127934
0.13758537050995745
0.5142800961407409
0.8222839695548991
0.837262708485993
0.8410342284195729
0.6542705558354543
0.18383702765895216
0.14281310102198255
0.15249526130009194
0.17748207154661708
0.20943959625369998
0.23929098223687534
0.2470988710873555
0.2337343888544123
0.20771366813984854
0.16993342139214535
0.13549149018102222
0.10894259870067423
0.10756529685379579
0.11995228976471034
0.09923661755222259
0.07852094533973483
0.05780527312724708
0.037089600914759324
0.10615776246726912
0.14507845283269546
0.12451275456158914
0.15948284468071858
0.18241484332103805
0.19117821298767576
0.19167791057856473
0.18181897631843227
0.16532762468170994
0.1450382076919813
0.12305545969492503
0.1012744403307129
0.07838297785023855
0.054869504396764475
0.040700670876383856
0.03872374368125055
0.05039424065380055
0.07507327092690134
0.10102246102226156
0.1237344858327505
0.14242878606972895
0.15580769946903372
0.16389071474291086
0.16866559114434768
0.1700761334597299
0.1635419921732028
0.14692378731329345
0.12401753995893278
0.09466890482789289
0.06963983290710293
0.07374213942767394
0.07851007370537462
0.10018493859328624
0.1255018792259501
0.17924632992735687
0.21354987832236247
0.22886740026530944
0.25339218243863615
0.24884180607175863
0.2396930084600992
0.2364150122573929
0.6767259623240225
0.8930105809458436
0.8985690773249168
0.8968217132190772
0.689140837221973
0.1809569241727912
0.1370412131228503
0.1454733108694791
0.17080621451269304
0.20471439745548362
0.23786199839445504
0.2491867037756707
0.23453347646535788
0.21847160128070697
0.18371526379886816
0.14735605109842473
0.12385166469848824
0.11246508938156044
0.1232723341544162
0.10200335611290658
0.08073437807139695
0.05946540002988733
0.03819642198837771
0.061145330446157796
0.0889532000082789
0.09556545106630168
0.1263529835614261
0.15412669904393458
0.17555319158315405
0.18870675294055977
0.19052765618017842
0.18102013107126275
0.1668747376436927
0.147559859119757
0.12687437916824
0.10480885511788016
0.08011825113240777
0.058154448753065406
0.04336274298630617
0.04075465225611939
0.04988665611902528
0.0677653824046344
0.09064541205707738
0.11357010464909208
0.13516915681389646
0.15434932738848373
0.16835947906525314
0.17709025829574104
0.1767984376622422
0.16261377531327945
0.13789298207788608
0.10803450643559777
0.08191985807298731
0.08329198976467866
0.09870308517757782
0.12345384923400267
0.1659443188223627
0.1999963095526929
0.25214893885121903
0.28859129162979374
0.2833864965980571
0.2827467585525171
0.30163458094355466
0.4928342557771843
0.5234119085715911
0.7854525801985426
0.7757457746716347
0.6474953371227077
0.6164421942805092
0.21204542655227843
0.17271274427123065
0.17741381955682617
0.19713227311461518
0.21910139106861284
0.23460361837940513
0.23173820271465356
0.24231454756745202
0.22330861729580115
0.18201662623774198
0.15533189360383315
0.1019160177558477
0.09615525828929973
0.11049449961636253
0.09115139394890162
0.07180828828144072
0.05246518261397981
0.033122076946518905
0.05643416811196629
0.08545164505229158
0.09881840218602085
0.13023048699017264
0.15775949090712935
0.17815108418755213
0.19001847433518257
0.19039652605616078
0.179792027125581
0.1644346099414184
0.14439497070312726
0.12330412849603183
0.10101218603867863
0.07648830227593076
0.05523523189732387
0.04209447264481508
0.04141425780128031
0.05266519099515001
0.0720522337022192
0.0951692936042388
0.1177928478044023
0.13860447284257857
0.1565254634002468
0.16938274351661717
0.1770480056176791
0.17572507895499387
0.1609639127836539
0.13622046305064092
0.10621415895693836
0.08011799713857795
0.08191244847777823
0.0964437730500418
0.12128254481934182
0.16220435129402452
0.19829484125704766
0.24719615220574262
0.2789560382818315
0.27092583657699404
0.2589270401928574
0.2786244801271609
0.45016790228349013
0.5161201974408979
0.7882677797404538
0.7792320988996158
0.6712429766294445
0.6172051076154897
0.20509597705504767
0.16645715348134046
0.17305903091009595
0.19409313483833115
0.2181054964061334
0.23638146332572924
0.2352307839597602
0.24058881637199941
0.2164906200169909
0.1750367224860109
0.1469131236446111
0.09883881079777987
0.09753079678157267
0.11199690364750414
0.0924664159942312
0.07293592834095824
0.053405440687685296
0.03387495303441235
0.07738157206827379
0.11298269776158457
0.11598545795755039
0.15006429650526049
0.17501759363389574
0.18816905012836338
0.19246809774346121
0.18566651916972635
0.17060460441499414
0.15124390065100413
0.12940894968413963
0.10754271180893456
0.08468853145364215
0.06084638668482958
0.04420745351331018
0.038920980294677304
0.04700743295324353
0.0678601485648519
0.09244150193120317
0.11561712360967082
0.13585394469769563
0.1518337892383024
0.1630559548229478
0.17024348054112262
0.1733070283868634
0.16800111955458547
0.1515933585743458
0.12781129964013865
0.0979815266721222
0.07247352692663434
0.07598960428255461
0.08446227064978691
0.10787527530487499
0.1384381792346298
0.18611972486102318
0.22330868588660027
0.24076293336553045
0.2444170336886149
0.19793825677184193
0.16786958365284207
0.14024372443941815
0.5050979848900983
0.8177240702389597
0.8312796547581002
0.8345923964888927
0.6515262709326316
0.18426548276119853
0.14347787675783258
0.15322025162622335
0.17813778881183878
0.20986810435876402
0.23935732911547616
0.24681820287712566
0.23379418843821992
0.20703064426485973
0.16899340033025886
0.13475809230140248
0.10771167875175279
0.107107846453865
0.11963361329190099
0.09896989338069774
0.07830617346949449
0.05764245355829124
0.036978733647087994
0.07296696424382565
0.09816340734699498
0.08830672681412795
0.11757926929073312
0.14561096896128417
0.16884117058690237
0.18445573658533684
0.18942536898601808
0.18262927740766197
0.1718839975270131
0.15490867994087323
0.13565274036838115
0.11432590901653081
0.08918619169963402
0.06586382874003592
0.04731372057493499
0.04006007020272818
0.044095633181754454
0.05791015450716639
0.07981402779701897
0.10318180561874492
0.1262961784743942
0.14815637830909312
0.16473516786162268
0.1760337070990895
0.17840335617845987
0.16592286701915598
0.14162098382750996
0.1123994624944484
0.08641294851610523
0.08671805919746743
0.10371262960175737
0.12780895620548136
0.17304430953448235
0.20281913436247445
0.2635185272617733
0.3127097086711139
0.30646780406283564
0.3275697719237288
0.33801280476449747
0.5252743686379747
0.5093874678199622
0.7647343885576715
0.7566924494571062
0.6127094933023103
0.6195336260548036
0.2320101746766397
0.18910419623003802
0.18758535847165722
0.20357806065921252
0.2202747141747364
0.2288341754048296
0.22212442932631973
0.2451703245140005
0.24088254055051178
0.20136329319830334
0.17818360013042223
0.11275970274128667
0.09406264845756956
0.10706669337915008
0.08809006749392728
0.06911344160870449
0.05013681572348169
0.031160189838258898
0.060735484086416394
0.08864003041025283
0.09582772299875764
0.12666690912709294
0.15442385882278992
0.17577177492252788
0.18882498836023226