# vtk DataFile Version 3.0
vtk output
ASCII
DATASET POLYDATA
POINTS 5568 float
6.964653612062672 0.2140148742317562 -20.279838631656407
7.115599830654772 0.19005362389893954 -19.335168008676895
7.235884889629787 0.14247066043892742 -18.621878430688913
7.355782518147389 0.07062137285069223 -17.90004803441395
7.444125305093744 -0.010986306014156719 -17.177770317266198
7.4820852430297276 -0.09468263562079059 -16.45507687507067
7.453109084111617 -0.1720708711775892 -15.739570500156924
7.348663471207857 -0.23436186359727423 -15.041517793117354
7.167495855004141 -0.2760250666128576 -14.374034384153578
6.906996892821399 -0.29572714041834997 -13.744888190440726
6.571969728964277 -0.2908575771042155 -13.161138252749748
6.1728551231833375 -0.26053943566179527 -12.624405532094801
5.717917342406065 -0.2032738955460548 -12.128803917223497
5.204903999961548 -0.11625124208672373 -11.66449903915318
4.631681657111711 0.0014072626696060297 -11.225763612952875
3.992621784628448 0.14757199166716584 -10.811925040891833
3.300552437142821 0.3128069981970304 -10.42162628241878
2.5819055522542778 0.4813549360895655 -10.048735486566713
1.8574098119322913 0.6372052652185335 -9.684597549669073
1.1435252438363737 0.770208466967429 -9.316867866679432
0.45485929614890996 0.8758917684834772 -8.932772670868637
-0.1954962970513623 0.9535185900751187 -8.521566163170014
-0.7944171531011809 1.0056177101827457 -8.078202989063389
-1.332118024879859 1.0320458085822732 -7.601334353752759
-1.7991954744528247 1.0305971647528775 -7.0938105093656265
-2.1899523089996213 0.9989676847235461 -6.562240976310805
-2.505694652086341 0.9369073059215733 -6.005649932045657
-2.747264461739506 0.8413235961997247 -5.41917553675486
-2.911390816087967 0.6995270061914751 -4.793632931463163
-3.0015383563897937 0.524411289528353 -4.132567706959071
-3.0336345607900173 0.3187850882175348 -3.4403068440929183
-3.021179196712922 0.09988797865187429 -2.732403230961748
-2.9819292964373116 -0.12111695472876824 -1.99745232968612
-2.9231847867979917 -0.36265955931193106 -1.1960115692076858
-2.857569057571039 -0.45571668640759666 -0.4645557003791424
-2.783576847907392 -0.48293889423193065 0.20778195341586503
-2.7094133487876935 -0.44664485356679173 0.8490749444193345
-2.6487919936437407 -0.30852816548706363 1.4477310520856823
-2.603054087738576 -0.07611009714733386 2.007252898962527
-2.5790565160056325 0.26805354288835037 2.4912655180152345
-2.5761586503076606 0.7492058912732338 2.940655204121415
-2.6225213965231045 1.2901200201438607 3.3452787756046742
-2.6781786869593196 1.8843459921899406 3.724922663900511
-2.820980506797475 2.5050845754298154 4.346128696275676
-3.0395090496483537 2.9553975254840226 4.960915243824968
-3.1486968255368906 2.9865026849194187 5.5967824862362825
-3.261977182088932 2.5249279783349468 5.908832162101609
-3.3483098706910797 1.630964889082864 6.081261539149242
-3.3567770965613404 0.7507834121646293 6.176282735161813
-3.2570293746023053 -0.13237100640637545 6.228162324414705
-3.043375885421079 -0.9813937214101489 6.256848040038409
-2.718469048807956 -1.7612238207674897 6.288343023940418
-2.284276308860525 -2.458251439302728 6.343536476337745
-1.7486367503578475 -3.041989809033786 6.449738033438167
-1.1310400891738608 -3.4929834812804863 6.627729591189286
-0.4620102759563729 -3.8058483824202547 6.881545277526346
0.2483908526008617 -3.993195893278722 7.202701577326516
0.9942915916342074 -4.079093142011853 7.524782896631373
1.7443487391497503 -4.0505146349559 7.91132932134659
2.504661475541699 -3.9055160677786986 8.289971864231342
3.4828518779576894 -3.614699204736227 8.71488546843213
4.767184424133681 -3.074906181351455 9.098201895641937
5.881612647875473 -2.424676047185459 9.249245823125143
6.767471065055918 -1.727704632003217 9.217754080937361
8.198357895980006 0.05479998027094571 -19.413187715314006
8.43842083001789 -0.03280564642240827 -18.4545180908258
8.515859730701742 -0.051845587738803225 -17.866254689797135
8.544407664875601 -0.05763718872202918 -17.32068025851157
8.528333693222033 -0.04948337311498477 -16.81277638033461
8.464752362467598 -0.020190475039013882 -16.324943490508325
8.350988181285569 0.03417423288030675 -15.835777113446744
8.159155248694443 0.11488424657571747 -15.317238737973799
7.877001005386059 0.21323003552843722 -14.794014863875859
7.5122853105278535 0.3241014803737722 -14.285470699354985
7.065334122238113 0.44700765483782295 -13.797295540521477
6.535044880635478 0.5794901303696167 -13.332347244901028
5.9203036850287525 0.7220910086070804 -12.894521120783137
5.2266550767728015 0.8754266668837987 -12.494316197568468
4.476553204549735 1.0324885177931378 -12.139464000882974
3.697742515978799 1.1836617836182692 -11.822815316207276
2.907363801656266 1.3189337667689014 -11.52597651499051
2.1174990044290976 1.4294916311593928 -11.232382712303503
1.340106940677575 1.5093223173772459 -10.925908532901017
0.5891042594892536 1.5557899789609635 -10.593487439996071
-0.12481492157534524 1.569459305762385 -10.223872908330732
-0.79124728088123 1.5522165450024767 -9.809672589223924
-1.4009236223143438 1.5055319049955287 -9.348033798578186
-1.9478921987998792 1.4304140580566782 -8.837965122476795
-2.4309752810889456 1.3291214354040484 -8.283047068388823
-2.8500113890307337 1.2038592996868018 -7.6843585859897034
-3.202438894364176 1.0569635006517952 -7.041157334691302
-3.481600552222188 0.8934792204873644 -6.353816754225713
-3.6824126940536743 0.7278255836690775 -5.631410489678979
-3.803936803386638 0.5662553391885589 -4.888180760130019
-3.8614020610973836 0.42107571365331575 -4.127263121944668
-3.86811050427042 0.28846216020751947 -3.3490912287233243
-3.833802125421581 0.1816503234450958 -2.5496084236889573
-3.7659833962607103 0.141823384894269 -1.7939735065400302
-3.6718724800302915 0.07090768342061407 -1.0261643357063956
-3.5815643987573655 0.05742786740277452 -0.30983309035228623
-3.4983311526497185 0.11099858603859672 0.3587420759339691
-3.4344226929780977 0.18751832683323116 1.0008267677254348
-3.4121686120890384 0.3985158667781198 1.621355567181597
-3.418221295570131 0.6921079609006277 2.2266505378496677
-3.458038793390555 1.0595058684174807 2.802801813923142
-3.571719242538865 1.5265863848056587 3.4681656905776204
-3.7704566167086173 1.8653697129226876 4.15979208910792
-3.919021716952744 1.9445418330123576 4.4492156245234495
-4.002420952000876 1.9519245080002006 4.596652717813473
-4.025617507529722 2.0074802587328024 4.712866545761153
-4.019839806439478 1.9133349999674596 4.868155377749754
-3.979609873057535 1.5577367570403196 5.12269220859959
-3.8932458657431046 1.0324251593002591 5.382091160728011
-3.7171235294695224 0.35035445421068734 5.608919204372843
-3.4683974313230777 -0.3691199436692675 5.803874112455161
-3.1484575664921572 -1.065302551622123 5.999031461089404
-2.747492764585801 -1.6990382632983596 6.220574319355218
-2.274040379955132 -2.226431295620699 6.492054225169978
-1.7437318424447938 -2.6485208605813853 6.807862198836841
-1.164131371546493 -2.9470853456259896 7.176518484281615
-0.5320052573701837 -3.1447836916054306 7.601748281392297
0.03437743226102474 -3.1839511644804186 8.137098628381267
0.8471165123924076 -3.128064204088525 8.636996550348135
1.8612200443719906 -3.004483554026516 9.151496022880298
3.1283070851948995 -2.717468085318404 9.632181332465418
4.679939845018409 -2.168340928828931 10.044706212208432
6.054486681028648 -1.4922445870909191 10.218107319727833
7.223002830198306 -0.7994122349394056 10.24822659741746
7.6504602402455095 0.1255085514385479 -19.79807411928792
7.85027971905901 0.06653109282108845 -18.84696143436111
7.945903282179398 0.03544734830947359 -18.204851574838067
8.011897776777468 0.00262037999265248 -17.585593505463173
8.037633208046698 -0.025185518204602627 -16.990094374381652
8.014282549968435 -0.04071923739861821 -16.408286812277744
7.934703954055465 -0.03917287327299752 -15.82982498149067
7.780467691825552 -0.017992658753620903 -15.24185553841501
7.544182924439035 0.020133936481598398 -14.663781902930209
7.228475805782834 0.0735215123832785 -14.109062323096094
6.835104089638234 0.14331742158248037 -13.58361008583945
6.367743955643694 0.2289024537218527 -13.089915929479561
5.82950093541746 0.3316745283197503 -12.628063643362964
5.222234855128681 0.453740486324709 -12.200026278671817
4.556581384846983 0.5920310062063281 -11.808041058240214
3.844121853094354 0.7403764697113194 -11.44838062459983
3.100218856467608 0.8887137836720851 -11.11042304040709
2.3440775048805085 1.024887123985773 -10.782150505009907
1.591844856357181 1.1383981106698342 -10.450637502652835
0.858729589245358 1.223252760068028 -10.103131733075525
0.15730727071483575 1.2778091728013552 -9.727735646324273
-0.5007398828856146 1.3028253576530084 -9.31563194034713
-1.1043465970765614 1.3003257269204769 -8.863110834320436
-1.6459210885145583 1.2709260985635111 -8.369087611657921
-2.12080472433011 1.214999280323617 -7.836710346316425
-2.526446266960742 1.1327472978122448 -7.269392921790009
-2.861940778898996 1.0251036245140606 -6.666195475888507
-3.1239360406076497 0.8930386455866877 -6.024990321210668
-3.3080268182548536 0.7382123321090652 -5.346478458432313
-3.4152325829738537 0.5703714307659322 -4.640566191335113
-3.461158776921984 0.3979850940032098 -3.9114934939265225
-3.459210491417744 0.22671202086902265 -3.1665293143850817
-3.4227860608539675 0.0689605122207319 -2.398390112379326
-3.3593038918688425 -0.05715280599342709 -1.6280406479816638
-3.2780283657074984 -0.1380227806447306 -0.8766924832228071
-3.1950825552587645 -0.15771883704102896 -0.18013231147297792
-3.1159232869010016 -0.11191329069392576 0.4762071999747962
-3.0535743075410213 -0.0077799724828891 1.0979438438952245
-3.0206817591826116 0.2128481822325164 1.690575511504946
-3.012949250325221 0.5288051390770407 2.238638511382317
-3.0334224215932233 0.9438449237625606 2.753636560072627
-3.11474623311052 1.4402708950123244 3.291337908656599
-3.242788176677339 1.8788269837530605 3.818968542553293
-3.392028853022799 2.140630931269148 4.224502036608842
[...]
CELL_DATA 87
SCALARS quad_param_group int 1
LOOKUP_TABLE default
3
1
3
1
2
3
1
1
1
2
2
1
2
2
2
0
0
3
1
3
3
2
3
2
2
1
0
3
3
1
2
3
3
3
3
2
2
2
0
0
0
1
1
1
3
0
0
3
3
3
3
1
3
3
3
0
0
2
1
1
0
2
2
0
3
3
2
1
0
0
3
1
2
2
1
1
2
1
0
0
0
0
0
0
2
3
3
SCALARS single_component_feature float 1
LOOKUP_TABLE default
-0.06391797286517367
0.09362524816255383
0.023659079929861392
-0.012304172187612067
-0.11521078255907599
-0.07992682195643279
0.017286841267544206
-0.011379752348447963
0.04902110201750242
-0.018007119182595337
0.01428020268389401
-0.09606381470430758
-0.05507232270073348
-0.049246913454483565
-0.04583903554028482
-0.0005150610603405353
-0.06127788480694524
-0.022115013112493483
0.06920092259263215
-0.04271191795655929
0.11147476847875776
-0.012093283847479035
-0.01733029877819192
-1.1210980943400506e-05
-0.05644546872092861
-0.003894833482020174
-0.07962437645825873
0.007973164050827757
0.06107813463864435
0.09186226176929857
-0.0282190415555683
-0.04534002470118369
-0.06180280486290987
-0.058415466146197276
-0.039167013262917744
-0.020317863781204426
0.018137558286337035
0.07675403733855225
0.09478857598750345
-0.06634854607976866
-0.03666106636485682
-0.09471256158057519
0.019190391280850032
0.08146985470733065
-0.0010109506562514525
-0.05211194325505792
-0.10280397908018232
0.06219803505072926
-0.03325800137093748
-0.014887923865077056
-0.00099378605607741
-0.005821900499591859
0.03217050548002609
0.08959883885038025
-0.029830984971273327
0.18041018219247215
0.09043196100249162
0.025486173977398607
0.06489415566404619
0.014175722223157154
0.1738311898574586
0.13002529618190425
0.030412306936885486
-0.0551474467707711
-0.018368128371686596
-0.02436236219842541
0.0037800634817920648
0.12348087875643321
0.01674509333659654
-0.045856723833920074
-0.022845782370015173
-0.05614750803917369
0.11815724798850852
0.10782480622403523
0.01766212387657128
-0.04545411166767207
-0.031859558503503665
-0.04713157992104634
0.0028274671560990575
-0.00961892974055509
-0.03828684098114061
0.01735085314060468
-0.09304685016857545
0.050157452348403665
-0.05554527207959868
-0.044071406721861585
-0.058988080757199794
POINT_DATA 5568
SCALARS single_curvature float 1
LOOKUP_TABLE default
0.04506536948940534
0.06872314590206098
0.08222818166830369
0.11026588863311516
0.13843606594900837
0.1629499501136319
0.17995958023203504
0.1871194135769116
0.18370823035262027
0.17012472247518473
0.1497005244614468
0.1286048944709126
0.10667605793679044
0.08222238719056928
0.059318065773072484
0.04292177526235225
0.03918632758363562
0.050210517614317725
0.07156344222584046
0.09673729179366487
0.12288580093212434
0.14822006713709443
0.17087022223668635
0.18894749860752388
0.2013151355888821
0.19770770134628476
0.17790445106800337
0.14660013921250925
0.10451498605475627
0.06675416652354135
0.09986012258973957
0.11476804451037101
0.14229457454595515
0.20683464596245843
0.21289964405356582
0.27041630896910224
0.2985446619774699
0.27575678386709906
0.23389604897026178
0.19041175536984548
0.18776706502520807
0.38231478670843533
0.6638980745960817
0.6733641381567933
0.6552974858027889
0.5090065348236403
0.17685738483973423
0.15450805374907062
0.1707212730944602
0.1959800048893597
0.2248336832451256
0.24605829558949624
0.25067555984789036
0.22872960480669255
0.20453435067930076
0.17639600398541594
0.1405109126147369
0.12286609817137549
0.12088541458596327
0.1328918635926815
0.11388531514213761
0.09487876669159373
0.07587221824104985
0.056865669790505974
0.1745706714162176
0.22820118875970002
0.19330338783175882
0.20489148090317647
0.2117171434155284
0.20315571464536866
0.19184210700909016
0.1750535111395092
0.15217490235483827
0.1326978061548729
0.11470259704491356
0.0958233029718391
0.07538529245567158
0.056847745583805454
0.04616791525523663
0.04759818083772922
0.06111557216193271
0.0810685580226689
0.10207123856094329
0.1213193231353068
0.13525478157146073
0.1434673285101035
0.14682115727472225
0.14688560662440595
0.14564078680314352
0.14326569433572048
0.13477370297198563
0.11928691205098588
0.10239621994160393
0.10031652001823291
0.08827880428839542
0.09401720593800188
0.11359550138610602
0.09971208199228784
0.1644440609096207
0.18406609030897453
0.19026865494436154
0.1950945033326617
0.17551556047959296
0.5416348476632125
0.8136223590638229
0.9800867099261217
0.9957561019859894
0.9908934398282703
0.9742859689946621
0.7736193171826383
0.21667254716697204
0.15520030288396466
0.14552677146933027
0.1606388372908478
0.1875137900041176
0.21976681040110174
0.2239180030136912
0.24620202386488135
0.23883730000352096
0.19501310633023528
0.16995862214881804
0.10660755802646925
0.08874767450279407
0.09612163439964266
0.07464551895857982
0.05316940351751698
0.031693288076454135
0.010217172635391292
0.07983008621442515
0.11705216238667024
0.125117797370542
0.15582452819948872
0.1793509260238829
0.19114260864277619
0.19440290161138193
0.18663016791353765
0.17006504493353655
0.15104512309048337
0.13003653241692725
0.10862997850222539
0.08604383906297146
0.06272563213375981
0.04598878625894551
0.04031638789750194
0.04768552463185374
0.06622993225938342
0.08890152483035242
0.11133265756097463
0.13087843829020257
0.14642516839111466
0.15755222819321413
0.16432229544113724
0.16705940677435482
0.16335307171939575
0.14909094181440913
0.12711430997744266
0.1008939192965568
0.08057683822631076
0.07338046939251476
0.0833071193228829
0.10647503071517782
0.12955557216626212
0.18434209315322414
0.2196463290094768
0.23783377367585123
0.22962852305137033
0.1887381318818644
0.2310365940443055
0.3146119760841621
0.5346753420352272
0.8390485655439024
0.8306687934480474
0.7943734523863181
0.6747640489354951
0.19542907869807047
0.15046942118752604
0.1567863290507913
0.17941155869198835
0.20828644424640388
0.2353472267622641
0.23917128104066795
0.23908046296321447
0.2117044668656247
0.16923930780390598
0.13896903680775952
0.09725829732819859
0.09796381799042533
0.11088481216673476
0.0903407174637375
0.06979662276074022
0.04925252805774295
0.028708433354745683
0.04966467961175231
0.08036355132124748
0.1015627207776241
0.13495076028202876
0.16220996734298762
0.1808293706806489
0.19052351429162895
0.18875303504849328
0.17710057729097148
0.15967726890823924
0.13823762438366757
0.11643532100526588
0.09374890271454377
0.06940131795084996
0.04969186673063535
0.039759748970273366
0.042861348725958405
0.05897459178551348
0.08180789854035853
0.10558807030193701
0.12793028940934092
0.1474389174802661
0.16306371504414782
0.1740642847365768
0.18010575916289717
0.1761868996809022
0.15941835821183684
0.13377196301424094
0.10157238813130619
0.07304538226515844
0.08146164980284326
0.09349076747153966
0.11850781731324429
0.15988071178715063
0.1957907169437849
0.24001660488931872
0.26318840763814505
0.2485072758910871
0.19557521996083968
0.18732055586222218
0.2224381478684837
0.4514103034469677
0.768830246530466
0.7718841431652514
0.7455199723343479
0.6062760563860228
0.18776974100383326
0.15201635329089977
0.16309607345388666
0.18737200064237464
0.21643068301170815
0.2409741155878499
0.24496199356709952
0.23393130669111137
0.2024062239693101
0.16384193559637875
0.13106864666564014
0.10086525033714135
0.10557000152732851
0.11943475037228868
0.09948755349968458
0.07954035662708048
0.05959315975447638
0.039645962881872276
0.060611844108534485
0.0794928424629783
0.07298174047400605
0.09126325747231813
0.11678467366150358
0.14346590185907568
0.16529421697987803
0.18053235123869732
0.18571662141330864
0.177394384619497
0.15991695352125881
0.14111014117844756
0.12088768818103494
0.09714531633383472
0.07277337981992851
0.05021370814892263
0.039323805850369986
0.04437403984572255
0.06191517773366015
0.08740952526914866
0.11696886557117048
0.14814432012072437
0.17839375882366248
0.20474703951198614
0.22532451716909244
0.2227842822516804
0.2005038406858374
0.16307936599508727
0.10984230111253543
0.06780808220444866
0.12769324111986355
0.14524281206032683
0.17478350894519926
0.2562529651194687
0.2303867577413842
0.3009649497130569
0.33108289070172764
0.30136812179970457
0.27359611896802044
0.20525372309695453
0.18226131495229647
0.328836608118935
0.5604792239566854
0.57168895258158
0.5598410994749818
0.42415899966002507
0.16540177431709707
0.15528000895231467
0.17538008557940224
0.200931073570215
0.22934052383470596
0.2476704296349604
0.25332776789334555
0.22790054365957924
0.22442205419856157
0.21304065085064797
0.17494932877577332
0.1631659159704351
0.1424169141879598
0.1476868018182559
0.12957739603237103
0.11146799024648618
0.09335858446060133
0.07524917867471648
0.049668564431593704
0.07162978765343994
0.07871383804268044
0.10379003655724212
0.13142711263860066
0.1569611795042082
0.17573778816512017
0.18555553957555992
0.18483438406165906
0.17276308174091384
0.15305770730712645
0.13250494492315187
0.11100773953105374
0.08671607985610544
0.06319338385971958
0.04480094263205949
0.038849839264717696
0.04807009537477944
0.068452803924675
0.09387207017478709
0.12113259191405798
0.1482907027540606
0.17324968593528864
0.19377348889516727
0.20849403256540286
0.205137099688549
0.1845115430718327
0.1513538391257723
0.10591752150305417
0.06631695285459223
0.1075297135385678
0.12328718405965242
0.15151263730186326
0.2219964729414856
0.21831759080226343
0.2799671815180011
0.3090368048491384
0.28400483984522656
0.24772595855822468
0.19601635261706862
0.1857064726582886
0.36539546298908565
0.6309204508221348
0.6412280742738522
0.6252426718777366
0.48098236035279013
0.1733436294047308
0.15498070156211588
0.17252558330386222
0.19791545551073358
0.22664536260151366
0.24692157633707953
0.25182251387728044
0.22803980006476993
0.20909479476728032
0.1854615604157292
0.14877352340321273
0.13363186212336098
0.12685549948409963
0.13735533147695186
0.11864274484151785
0.09993015820608384
0.08121757157064982
0.06250498493521581
0.07340861902826849
0.10937151306627539
0.12033913942105465
0.15190157077131075
0.17630667534380284
0.18948457218704634
0.1939545968738851
0.18720416709160612
0.17144037829174424
0.15263481299734005
0.131486362650439
0.10996012090088016
0.08731369806455681
0.06373749432247292
0.046452719615390436
0.04004993170976469
0.046704788689164986
0.06490624776136637
0.08765555103455212
0.11034298805636211
0.130390545904211
0.1466313960216736
0.15853090085861365
0.16601018684957822
0.1692684374871635
0.1654997805955306
0.15076923674816836
0.12815851839697465
0.10093594773483253
0.07909067724285056
0.0745103746295661
0.0848136854138361
0.10831057794206905
0.1347130386214387
0.18633283330491834
0.22318468524363289
0.24233265510072355
0.23293903159908372
0.18946343059377474
0.21961511264087172
0.2923823489793907
0.5164240114745073
0.8263560803539014
0.8206013849683005
0.7865390690069238
0.6629743222587026
0.19402121415696338
0.15065451026138033
0.1579241887988368
0.18092631009538984
0.20986276472125925
0.23646724006351105
0.2403035048561742
0.2381596353506897
0.20958564556432546
0.16762852036934597
0.13690083060448208
0.0973019152504621
0.09914820228655037
0.11235109211388793
0.09190762566331766
0.07146415921274739
0.05102069276217712
0.03057722631160685
0.05022001334398137
0.08106902954511913
0.10206078377154752
0.13544878833204402
0.16264754426586486
0.1811210814143162
0.19066260403613736
0.18873251373550085
0.17694301745651914
0.15946703378586105
0.1380271866194161
0.11622628975214408
0.09353552755331374
0.0692023485894797
0.049564265564072826
0.03974532080476527
0.04296300533667358
0.05915275197522263
0.08199168990665677
0.10574041595029637
0.12801196958604974
0.1474175234928139
0.16292253649808106
0.17380733071417995
0.1797527025482665
0.17583499871708938
0.15912671041934878
0.13357741441578894
0.1015412233061604
0.07321130899548671
0.08120623895617819
0.09318213146375239
0.11815211932291134
0.15907103890207136
0.19549063126138755
0.23948221707109646
0.2625402002577881
0.24801762250071882
0.19524369446118883
0.18787201031402992
0.22392644931306288
0.4531047572783949
0.7706466771389835
0.7735016180306695
0.7469474673915283
0.6080678664035593
0.18796190700622728
0.15196699834731178
0.16294000961241153
0.18718626809786348
0.21624455244125385
0.24085078903968773
0.24483157435346542
0.23405666726667115
0.20254884470873027
0.16385158190076937
0.13113987256865853
0.10065937682755514
0.10534523538406787
0.1192065636755738
0.09924321796639177
0.07927987225720973
0.05931652654802769
0.03935318083884565
0.10914140353086432
0.15180717952008677
0.14656428854497294
0.1723794542211313
0.19139328324959495
0.19689147037569604
0.19509105423284517
0.1835188519927468
0.16411194374599591
0.1445322614757977
0.12432622874310387
0.10359235511052733
0.08145235636363278
0.05949515098211568
0.04497059321846304
0.04207832591759992
0.052065876896348645
0.071582665640916
0.09379462235131046
0.11514359424925275
0.13267237716068364
0.14549595946101404
0.15365470742645246
0.15776904608876452
0.1587001019308477
0.1553429206363712
0.14304577147847378
0.1235229765381925
0.1010410391936547
0.0870633137536862
0.07107177208379044
0.07948737315779497
0.10134901564474855
0.11098957217858017
0.17663095306492257
0.2059522094226738
0.22004784414410275
0.21667590174399348
0.1856842197994912
0.2989543385453692
0.4399442279545961
0.649858500869095
0.897828676153744
0.8783177798163999
0.8322419979295163
0.718483733779817
0.2015537915349942
0.150468796819889
0.15232866865559253
0.17300079626807952
0.20146659938059483
0.2303787072205469
0.23422534559129846
0.2424867410326674
0.2212529860009738
0.17747044386737257
0.14906142338922415
0.09896343318849062
0.09387932141589132
0.10525326621956096
0.08433357363454395
0.06341388104952694
0.04249418846450993
0.021574495879492922
0.04658578668159025
0.07637815247753114
0.09861967519564775
0.1319229317602314
0.1595168915466422
0.17900292278572538
0.18962259325759684
0.18884006809688833
0.1780436017496059
0.1609584797071381
0.13953378898443589
0.11773342836802594
0.0950813371366469
0.07065695156054727
0.05051567476570997
0.03988202402440181
0.04226130195626676
0.05788848604003185
0.08067314848074619
0.10464304131040802
0.12741955440129635
0.14756530302949983
0.16393387711762183
0.17565705818934615
0.18230461768748962
0.17838376606541767
0.16124831554800315
0.13499965503401976
0.10178109784006135
0.07205718217824997
0.08309046966960765
0.09544681500010349
0.1207531965179037
0.1649035110012377
0.1976477718325129
0.24332362846418978
0.26717936167830186
0.2515303746407992
0.1979501453999422
0.1845524759858233
0.21415195008207008
0.44139740825718154
0.7575656089784595
0.7617582160099168
0.7365168172674623
0.5952277703376067
0.18658441804245107
0.15232351049916912
0.1640474198283632
0.18849433313138955
0.21755143622248446
0.2417098541465035
0.2457448208436502
0.23317518893343878
0.20166040833501833
0.16395654513336694
0.13080720725183723
0.10228136069283661
0.10699278015981985
0.12085238884506354
0.10100560568245592
0.08115882251984831
0.061312039357240694
0.04146525619463308
0.07052019361801551
0.10590447673747651
0.11817204754801093
0.15008405163145913
0.1748698413208631
0.18867495020298863
0.1937060335913651
0.18744555105688823
0.17207105844602508
0.1533769546827943
0.1321716683564335
0.11059615090193936
0.08792798375777003
0.0642419062641682
0.04670073869149075
0.039949299404119586
0.04626019921829702
0.0642860523864789
0.08706570443369821
0.10987168736977909
0.13015516906620997
0.14672479959256074
0.15899246029952563
0.1668123382317625
0.1703260104916096
0.16653157717505215
0.15158363643104583
0.12867131066452148
0.10096720970687188
0.07841093603762214
0.07509431175737066
0.08557481587493893
0.10922690765909583
0.13718653390437519
0.18727841377937526
0.22486601017092914
0.24445648894873206
0.23450741809574305
0.18983254370058047
0.21485029891061871
0.28291809769168264
0.50855118913034
0.8204715556979769
0.8158654126064055
0.7827755039890039
0.6573355542256575
0.1933683057865675
0.15076013653268622
0.15846038601656312
0.18162629018739604
0.2105868939211869
0.23697748228561816
0.24082202286264698
0.23772189841411587
0.20864288279022927
0.16695178120521903
0.1360100521142855
0.0974017134118866
0.09973048079477932
0.11305016308123339
0.09265499843254499
0.07225983378385659
0.051864669135168184
0.03146950448647978
0.054697759996023505
0.07514673553449949
0.07582160925250139
0.09777698822677935
0.1245850989321638
0.15081802664080218
0.17113253312056745
0.18351503586659598
0.18551113338113798
0.17509074386117834
0.15629771399185002
0.1364500199616225
0.11548044201169116
0.09141137894535944
0.06742600544346912
0.04707433084737607
0.03886880034225205
0.04620800726143078
0.06539499282264226
0.09093835059474775
0.11927846308420428
0.14827605752801076
0.1756211208728907
0.19873551532768527
0.21601919827369906
0.21299031848183939
0.19158347355558314
0.15650662374866595
0.1075696602035628
0.06666468362173188
0.11627447378969889
0.1328651047187632
0.16173544057213513
0.23752725078930156
0.22381805266162544
0.2895930117057221
0.3193161343958671
0.29211203945663805
0.26043581156459694
0.20092232255471776
0.18417778411141889
0.3486164052582244
0.5981821649519483
0.6090377690741228
0.5950167560299267
0.45412052561409866
0.16974027721230706
0.15524918277625394
0.17402733484215213
0.19950712530918555
0.22809665534689644
0.2474579515517016
0.25268350888046254
0.22777855655304513
0.21528795857723707
0.19685001566451643
0.15945176717387616
0.1461735078775009
0.13353899050499826
0.14199544038863612
0.12356967142081238
0.10514390245298863
0.08671813348516488
0.06829236451734114
0.04299973390256724
0.06768697159720072
0.08454233139479188
0.11407398038874444
0.14239460919501123
0.16619277983871775
0.1821226043380021
0.1877768936767441
0.18289365551413647
0.1685344051341864
0.14779457380205596
0.12646567067821665
0.10433761046364312
0.07982505949901582
0.05733959391704862
0.04205753699891606
0.03953259869408631
0.05151901799760643
0.07330448267144296
0.09829849167146397
0.12381690562204341
0.1481453680195695
0.16954546639273577
0.1863228823963985
0.19747069107223839
0.1937565340773599
0.1744299439404873
0.14412904963215556
0.10384045458754962
0.06734604717311973
0.0960646022302113
0.1104935933260084
0.13761329905377068
0.19856884904751823
0.20992519877888705
0.2651507750936419
0.29263457638315044
0.2711353301619212
0.2259532324931803
0.18731790741122017
0.1895592553400345
0.3919617980724296
0.682184985968002
0.691022471659246
0.6717389728034899
0.5250278824024188
0.17877012690816718
0.1541675094257884
0.1695973677508123
0.19475875649565236
0.22367191408504394
0.24543762727534157
0.24991540483540453
0.22931117574584542
0.20276133466766214
0.17240121824149748
0.13699703386694928
0.11767195007588632
0.11785035580631395
0.1304848248133355
0.11131432201602325
0.09214381921871098
0.07297331642139872
0.053802813624086454
0.04199120856633707
0.06739441074721736
0.08624709239666112
0.11667429627933079
0.14503195506577596
0.1682961844468906
0.18347484104381442
0.18812699768581767
0.18228344644582992
0.1674382286888777
0.1465225651515681
0.12506578009196503
0.1028218763159898
0.07828453430289833
0.056106021655394835
0.04155923833459609
0.03982468254291296
0.052428611850105424
0.074457015055987
0.09931738584882724
0.12441526168182342
0.1480825262454822
0.16866957244923977
0.1846109112761396
0.1949863388655345
0.1912141081497143
0.17221066976713073
0.14256277430265207
0.10343506507254797
0.06786192348256381
0.09372618323566904
0.10783624322539555
0.13468135269092282
0.19317103229222526
0.20797467381931106
0.26169128913630374
0.2887028501940998
0.26807353691776875
0.22072896714820073
0.1854500250623533
0.1912002543389753
0.3985372240251964
0.6942077309754622
0.702553138853352
0.6824368527156741
0.5357660346545087
0.18001844702229408
0.15391619181895325
0.16881081709600435
0.1938959271287171
0.2228439909525488
0.2449725476420654
0.24936539556995727
0.22977202394843085
0.20190164779971032
0.17017968453873
0.1351054111509271
0.11455841447874797
0.11594927703233586
0.12892254250129803
0.10964409402195908
0.09036564554262014
0.07108719706328119
0.051808748583942243
0.0415844555001573
0.06742091601994685
0.08731970011268833
0.11823013410631877
0.14658530089602462
0.16951338678821062