# vtk DataFile Version 3.0
vtk output
ASCII
DATASET POLYDATA
POINTS 5568 float
7.862655184718301 -0.035306993337611225 -19.428041897073747
7.9762206240570315 -0.007768707857099027 -18.66834428698696
8.068885364589583 -0.015513509366081795 -18.030094873453553
8.139031536766321 -0.03515483496033134 -17.429001061059733
8.174498574283282 -0.05758290655117737 -16.85778499074254
8.167995776975769 -0.07743474329909274 -16.29740691450813
8.110821832574459 -0.08839290497951101 -15.733957165255125
7.98183597654186 -0.08737161827333285 -15.151248527256758
7.767431891182563 -0.07564387931063243 -14.571760620591041
7.4651314515791185 -0.05573874838868058 -14.013685371489359
7.079052002696841 -0.0280152092390914 -13.48712942131013
6.617052714127265 0.008043739896701346 -12.995018648715174
6.084117092694915 0.05856464855419704 -12.536365276916538
5.482815146957531 0.13130174008281525 -12.11093693047343
4.822083494268015 0.22823780008741795 -11.720935527183837
4.1117356633348825 0.34370157312182614 -11.362745866546726
3.3641382179809973 0.4657500087788916 -11.028191036004948
2.5986799145361257 0.5792820383042272 -10.708460764555852
1.8342327292645106 0.6710465532613702 -10.392435190352527
1.0893600359964715 0.7348663390898096 -10.065553794324995
0.37748169670861964 0.7714997408945043 -9.713906881412438
-0.288686225209409 0.7841943031748947 -9.325777872228059
-0.8991443560151487 0.7775801216504865 -8.895579002891733
-1.4491963938914894 0.7531510493209945 -8.422538277835068
-1.9360384900464758 0.7100618497455955 -7.907257536144566
-2.3594802887916746 0.645957681387037 -7.349666104163993
-2.7204582093993652 0.5619717952123502 -6.744320074145545
-3.0156030354348853 0.45988484975446126 -6.083893979692235
-3.2361272714971054 0.34027411204569236 -5.3681585776893455
-3.377694127267078 0.20606446877158208 -4.60606031575964
-3.4551587180333323 0.06514872981671385 -3.8054230853523405
-3.482722764937558 -0.06810117185334569 -2.9886199693330338
-3.4691153732679583 -0.1995894702814166 -2.1662453397422308
-3.417813565461828 -0.298396754243672 -1.3874862326839656
-3.3483547087640075 -0.381333392210842 -0.6537972604429231
-3.269886929047128 -0.41886410899154763 0.019661160077023787
-3.1938016397563125 -0.3985743710274555 0.6445061489246869
-3.1369062530440734 -0.3352305263767421 1.250625260267869
-3.113519620430715 -0.12355457221141883 1.8342379512579285
-3.1124858313485437 0.20938648914905114 2.3854986878761206
-3.1333129443674785 0.6732115907179137 2.906153961547004
-3.1889680472999236 1.234069991559049 3.4103112546470378
-3.3019265723231457 1.8443387093972488 3.924947259578027
-3.394625183117525 2.2310610024597803 4.3404448128289985
-3.4891059865276093 2.554991902966061 4.779886604271793
-3.4997544440149038 2.710871174533792 5.1831146512344635
-3.520350996635923 2.4418577567253195 5.425816169899459
-3.5276110747670604 1.8015209198317188 5.645894594544795
-3.482988077764682 1.0683487566987135 5.7959265323183065
-3.3571328873177113 0.26802092020307755 5.890758183744901
-3.1425841186282075 -0.5353542154234533 5.956502922138275
-2.829426689071547 -1.301852900708473 6.0214735999740885
-2.412923644008313 -2.0027522354308522 6.11046920188693
-1.9016021290242278 -2.601984604390111 6.249578039472366
-1.3172848355412548 -3.0872182186321706 6.445955907829274
-0.6864437389636439 -3.4490907055872606 6.705188994529715
-0.009001246395487716 -3.7118063602908737 7.018300479549933
0.6838460462481022 -3.86894582449142 7.368211488192765
1.4754902636569356 -3.9207659575174105 7.770145572484729
2.3353477960863707 -3.8750429474001113 8.179566824635051
3.4009917411757553 -3.7173657572081584 8.602391897685278
4.832975917423702 -3.301151820360351 9.028519827682782
6.1606708003130795 -2.6916485195477384 9.249396591106562
7.246948069768411 -2.0086042347446056 9.300115715250731
7.405558095011898 0.17713235472208297 -20.003263894511594
7.604217361191739 0.1145849670487238 -19.0233067207228
7.707745916610097 0.07496019732302418 -18.358847835078244
7.789000255904109 0.028562473611235602 -17.706096416630142
7.831392785914929 -0.015740791097859502 -17.069451440008113
7.823030136801695 -0.050245320598761335 -16.443337110543524
7.754586821268619 -0.06956202983752574 -15.823068112341709
7.61139955965035 -0.06987641185472562 -15.203019514355871
7.388950317979097 -0.05169993554249568 -14.600090276588821
7.088903418980726 -0.015566890421082905 -14.024957360818684
6.713428539272549 0.04039893418255117 -13.483085025293454
6.267538228459213 0.1159706423297106 -12.976664621495596
5.755661665295691 0.21200080276682048 -12.504276542063293
5.178239902121677 0.3301292440636091 -12.064751601208451
4.541974798572051 0.4678877932680723 -11.658004644585434
3.853010341917053 0.6203308767103419 -11.28135417531789
3.1263815393857617 0.7777918256172017 -10.926730075987246
2.383687299639479 0.9273709378751522 -10.58343957603232
1.6421628367267909 1.057266560213853 -10.239573384957204
0.9169723114973447 1.1602192502227155 -9.882777053379721
0.22126456195416044 1.2333508378997144 -9.50120376950918
-0.43294479786577367 1.2765872530912525 -9.0859096304869
-1.0337662163966657 1.2917336959240395 -8.633101799730639
-1.5725322856603827 1.2790713716723674 -8.141583685245255
-2.0429080698586946 1.2383940557136826 -7.614759130891846
-2.4410648295080577 1.1695282351931149 -7.057505806452117
-2.7665303761678546 1.0729615728554305 -6.469473873989973
-3.0172861596352223 0.9481822659959456 -5.848324464485759
-3.1898808061340573 0.792356846296055 -5.191659212192583
-3.2868268309485655 0.6173644270260261 -4.50771230777957
-3.3239421316086712 0.43012291288644156 -3.800379542249225
-3.314506163724247 0.2385860785848334 -3.0773291125278224
-3.273926291362806 0.057430246833447524 -2.327791844824487
-3.210118015660041 -0.10761051574660457 -1.5502527029991557
-3.1319741622488664 -0.19199121362237137 -0.8025119024060064
-3.0511649130694516 -0.21135043721956226 -0.11002649257903274
-2.973102146155251 -0.1646086841325277 0.5464420604538194
-2.9104581666866234 -0.04356602935792764 1.163372101821272
-2.8720816119580164 0.18211878354656905 1.7468806594448556
-2.8582207209949306 0.5042283557574287 2.273694472370488
-2.8713639036377723 0.9315922038586715 2.7662889864505495
-2.9450253290360062 1.431131680627653 3.2647312720104082
-3.0517039325982993 1.8880013537126645 3.74304935797122
-3.209721528566762 2.225046862675768 4.206695501574314
-3.3720351512550986 2.41774777965591 4.574035483903723
-3.44589672483244 2.4561333221814823 4.941455739297378
-3.5012934650437213 2.1801739364452106 5.17973653722511
-3.5274613677170352 1.5494482455405492 5.393910634118726
-3.494541917304078 0.8387439599660278 5.565258798698073
-3.362268328178667 0.04917388797193345 5.695715267416617
-3.1333524242927133 -0.7391122982195122 5.7982737145917085
-2.8109568317523665 -1.4768004187061077 5.901992270501587
-2.3925050973414086 -2.139117911572262 6.0300519986389185
-1.8862462821840436 -2.6900261141852835 6.208301672644676
-1.3081837330320392 -3.119887962088056 6.44738235159922
-0.678208178717781 -3.417473172953376 6.753382546781439
-0.0013734555389801617 -3.597857552409603 7.123620076431593
0.6573175175934182 -3.6500564008795737 7.536046646981269
1.4302509516738082 -3.597097211240406 7.9717565159511405
2.289198919989071 -3.4454196412757536 8.406448267088395
3.384149088018887 -3.1346754537618056 8.857681819815866
4.767884746977927 -2.5711652150518494 9.248344518958778
5.968167996635235 -1.9025012208473124 9.399387354075207
6.948932707125596 -1.2054024940452603 9.383012442060483
7.149770828054102 0.29601143196448576 -20.32515275780131
7.404563023721609 0.17236861629865693 -19.2051616586048
7.514441805864884 0.11425343918934874 -18.525155889774116
7.60225818911672 0.05190169361618858 -17.842160565229896
7.648773193552439 -0.005628903537920026 -17.167110936410953
7.639297836737531 -0.04898073168298071 -16.502520447241384
7.564193126584095 -0.07330057928221369 -15.849210825177508
7.412778013180346 -0.07440015262753259 -15.207738735650732
7.185754172366678 -0.05250806014869527 -14.591466625220077
6.886919351608688 -0.007119107935424057 -14.006475519858238
6.517051351454761 0.06487852232506702 -13.455376194775829
6.079375807034227 0.16282386670997498 -12.939941903509343
5.578070272457622 0.2845585908482835 -12.458741242106239
5.0126711718282335 0.42827843120477377 -12.010361177984972
4.388867795970055 0.5890457354468833 -11.593528723891634
3.7108342123584723 0.7623540230284113 -11.206023170482448
2.9949406584671405 0.9397859426888595 -10.839728109893999
2.263848303584188 1.109681744099972 -10.482798462394673
1.53383228251946 1.2610844663658298 -10.12279767308825
0.8183242207826887 1.3861409800674376 -9.748590644766777
0.1305125609249007 1.479896304306381 -9.349558819929722
-0.517803289244633 1.5403878310965888 -8.918432920791453
-1.1136722017246299 1.5678049307736748 -8.452529612411498
-1.6463559745483685 1.5617490285636717 -7.95039055034842
-2.107705768228826 1.5224035946534487 -7.416940479208272
-2.49206439098555 1.450894451778951 -6.85969949165679
-2.7984215762644347 1.3474943938962185 -6.280854206347064
-3.0257435185843042 1.210619056069854 -5.6802561773910005
-3.1734219733529327 1.035572122058863 -5.053685395898416
-3.2473425759100563 0.8391245980466322 -4.4092663563977235
-3.263715774663045 0.627641273184443 -3.748742326335182
-3.2350358768572076 0.4051982300539594 -3.071955256953311
-3.180094381222567 0.1973542075590536 -2.3592432647505603
-3.1090009420647355 -0.005750983862489734 -1.5800693999041173
-3.0259246509867483 -0.09094848799740092 -0.8243770335085198
-2.943763822525041 -0.09992554548018147 -0.1209026376759873
-2.8645457769015508 -0.03777369429266622 0.5540150772654989
-2.7983965440682463 0.11685421084903455 1.1791072237893943
-2.7515538166021045 0.35053000528158385 1.7627996320423223
-2.7307473991419853 0.6667180161587609 2.276282289942913
-2.739800439797909 1.0743596792113503 2.753557724500938
-2.8231202243951383 1.5416077001620683 3.2493512564117606
-2.9266135458580735 1.9234241839551447 3.7094258952637436
[...]
CELL_DATA 87
SCALARS quad_param_group int 1
LOOKUP_TABLE default
3
1
3
1
2
3
1
1
1
2
2
1
2
2
2
0
0
3
1
3
3
2
3
2
2
1
0
3
3
1
2
3
3
3
3
2
2
2
0
0
0
1
1
1
3
0
0
3
3
3
3
1
3
3
3
0
0
2
1
1
0
2
2
0
3
3
2
1
0
0
3
1
2
2
1
1
2
1
0
0
0
0
0
0
2
3
3
SCALARS single_component_feature float 1
LOOKUP_TABLE default
0.04765114671497066
-0.007148917759823757
-0.037814522588158955
-0.054181798302105316
0.023383504479325648
0.012367924744859086
0.01790433035113581
-0.0833202985436566
-0.10102435088862172
-0.003437146602463071
-0.040088874709991416
0.05661618455228622
0.05011297032448349
-0.10898902830459095
-0.014248051533447
-0.09400370490373965
-0.06982521781573242
-0.031500957767760907
-0.05530304616159579
0.00973233128967522
-0.017920745649094634
-0.005715483676410976
0.006558854938146776
-0.003799158727015684
-0.06267102309402707
0.024751268467852847
-0.02308899749837938
-0.04057760005260742
0.05521000823939964
-0.02629558078134512
-0.003503816291001326
0.029663346502387118
0.100458396694316
0.05146704782293306
0.010058596787840143
0.02457247205330078
-0.02804098245400173
0.024703497824326154
0.06260473413654383
0.014569086346474677
-0.02918032030669601
-0.0014600104929018212
-0.034253847131900494
0.011564878026883425
0.06294428328354625
-0.05511981337263888
-0.0774736394628144
0.02145125569544218
0.04824191513994472
0.014191978117979683
0.026735992986123988
-0.027706049484725728
-0.042443374597535485
0.010820535752789288
0.005905884789552822
-0.06082747168078996
-0.09408178571207246
-0.1098268689248269
0.14164663194579669
0.14355192625265878
-0.048516106066191875
-0.032467576773612165
-0.02609968314483491
0.05436185666790605
0.014958909830260209
0.06904020673460527
0.04799521677360489
0.0038938899976826494
-0.021694396223962645
-0.029564051181420137
0.02046208428982318
0.01185212822959602
0.1696247888901687
0.08068138957893986
0.07051737338832334
0.011562336915570869
0.02239894963344992
-0.020422139519192032
-0.02628804297054374
-0.01696387815508078
-0.0009732760917513378
0.031635989519892306
0.0764489502247061
0.0190547777512356
-0.04037623516176611
-0.05095614044268001
-0.054735821683231226
POINT_DATA 5568
SCALARS single_curvature float 1
LOOKUP_TABLE default
0.06249263693945185
0.09578992227590398
0.11309119152427306
0.14435925640112204
0.17207972841044772
0.19231031623587763
0.20282921728283104
0.19928632109088446
0.18286941520336214
0.16065727057963528
0.13727703802756552
0.11466184874965885
0.09181354718414278
0.06855556000683652
0.04971185628964248
0.04144370105132425
0.04588489763412508
0.06267875453146304
0.08580903701745224
0.10870634501540771
0.12888779242017384
0.1435908483311269
0.15219776975877614
0.15618743420351475
0.1562637026547032
0.1513916992622575
0.13715659218580833
0.11693602560420265
0.09357863590246494
0.07843471120920718
0.06449417316174787
0.07013185087656118
0.09262447196635629
0.10493369952018682
0.1895910523406627
0.23683128343236107
0.25939442875249663
0.2631907764696842
0.19075313200806696
0.1905196392731659
0.18217864170408463
0.3529798397843207
0.8054456172351928
0.8069747925849616
0.8038981328225546
0.7279219525097137
0.187953326523577
0.14920774475851917
0.15139627700681868
0.17290146839409085
0.19917770338405202
0.22126782039509937
0.2222866994539117
0.21006389354494856
0.18661686763721316
0.15303703001236377
0.12582187043332752
0.10050838196781456
0.09927097375837837
0.11056124625581866
0.09108619597079498
0.0716111456857713
0.05213609540074762
0.032661045115723944
0.060769125315591734
0.09345031263160344
0.10811407739065025
0.14139171729053926
0.1674915341843611
0.18353631350100677
0.1907638153930771
0.18682635287943664
0.17376229053208525
0.15622923674654834
0.13509158779283606
0.11347866068056196
0.0908141540649131
0.06660568147095634
0.04791042852956782
0.039430945579983195
0.044070456613569946
0.06119869299295639
0.08403263479011228
0.10748760902512747
0.12911575570325431
0.14781303249536829
0.16273602212772795
0.17315681575395703
0.17877640476851187
0.17502412876969087
0.15875383167589616
0.13364756345056342
0.10259869715483924
0.0753032368260405
0.08118291365012219
0.09334091040005767
0.11778031304178706
0.1562137786727992
0.19211252550868657
0.23229454434762323
0.2537856974852428
0.23931945341938068
0.19404255712797713
0.1990841049924392
0.26243103940139717
0.4936839239308506
0.7929757839176654
0.7930839848567109
0.7570883859584013
0.6169372932461437
0.19105270384757156
0.15186894946288698
0.16244546112523042
0.18656261131097654
0.2159589775323059
0.24169317259930162
0.24584613349525675
0.23894431314292033
0.2072355681177827
0.16622068404137155
0.13367050642668563
0.09855954165217598
0.1033127358704915
0.11741575756847529
0.09725735373505197
0.07709894990162865
0.056940546068205325
0.036782142234782
0.07447904714901571
0.10674535174957435
0.10602761169309405
0.1399344925634712
0.16517644635200981
0.17921755633916026
0.18502760672444588
0.1808332427783188
0.16913315937464546
0.15366640035789877
0.13347004157119416
0.1124145853354474
0.0900556519860342
0.06549931441372835
0.04703019977696972
0.038337987547706794
0.0430257418536238
0.06041045258829752
0.08315957994373248
0.1071937638539813
0.12995830280840068
0.1511512737253926
0.1700059595138429
0.18476370979962167
0.1941503977534035
0.1909193511684831
0.17307050057280304
0.14439244421275593
0.10943919174800523
0.07672135814539013
0.09545379888272124
0.11109835222042576
0.13484809815240745
0.18540492302662284
0.19277836614508265
0.22892824093288228
0.2501189535102384
0.22953154746537993
0.2105871105073016
0.21358725803882786
0.3538255797751989
0.5646685953716178
0.7948786842062087
0.796589732578855
0.7214790759308906
0.5664251621125495
0.19534924915439356
0.15457238102307586
0.16872474213714453
0.19389054459999894
0.22461530916909997
0.2513381437359617
0.25593149550627176
0.2509153588870863
0.21652811616035159
0.17254797055716128
0.13780174070769974
0.09878509308623953
0.10622552880927352
0.12197841021145024
0.10208743405332701
0.08219645789520379
0.06230548173708056
0.04241450557895733
0.08239211806663829
0.1144200162760097
0.10508945410703047
0.13918200634640396
0.16399691782231385
0.17709771599760687
0.1822925346283533
0.17796694391346574
0.1668505354137432
0.15230723250208406
0.13250585791770994
0.11173871018217273
0.08959726080763084
0.0649138731031387
0.04661066155300468
0.03777706721685727
0.04247283632189737
0.06001224998201439
0.08273290993261846
0.10714882494547855
0.1306089040527353
0.1532058810931389
0.17428092102387185
0.19159242582797287
0.20317839636730578
0.20019350893284
0.18136769546619547
0.15049814497790379
0.11372801335753306
0.07890146396985183
0.10440142055766534
0.12181461202647229
0.14454929285849913
0.20024281301920546
0.19261994208054856
0.22664916173417413
0.2477659455980854
0.2254232349398592
0.22521706233512534
0.22550768396052645
0.40945838586971733
0.5960039511462405
0.794603746979743
0.7979574718864991
0.6968541732097729
0.5431611244100135
0.19851626412229784
0.1564854076586564
0.1720531794690773
0.19766752662919368
0.22893970842049183
0.25584757742633085
0.26025637889141334
0.25570084002777
0.220435895545997
0.17527810654896442
0.1396735094533244
0.09926534275712677
0.10800542419523604
0.1246597767706308
0.10506587918428041
0.08547198159793003
0.06587808401157964
0.04628418642522926
0.05439306579177595
0.08744110112346236
0.11067429338440339
0.14296223345151104
0.1699618732156079
0.18826388984100545
0.19721755388103854
0.19352191258343945
0.17873732743760004
0.1587423687291212
0.13643327993445983
0.11425697886587977
0.0914303201790841
0.0677023324763933
0.04888664434216192
0.04055096854046544
0.04509795652595951
0.062019550082148
0.08499149409542564
0.10805749467927162
0.1287837510561502
0.14517937483162427
0.15647448508523268
0.16312007485397725
0.16546939653802373
0.16112335318651655
0.14610770553099386
0.12394014072041329
0.09717629245919716
0.07641834953456983
0.06976300710964049
0.07828427430672227
0.10203520460029267
0.12627417032947527
0.19067691953861723
0.23486673532320965
0.2568685464010812
0.2517588274980396
0.18972425093968884
0.19255746370480603
0.2049440928327659
0.4147116032403249
0.795321327317497
0.7958367484515624
0.7833428862743396
0.6763196679023873
0.1886697017492362
0.1501026588817511
0.15623188495125276
0.17901743705859452
0.2067696432862955
0.23074251332726528
0.23348429250645897
0.22377444804891616
0.19615693722465283
0.15899189897229704
0.12925239802239782
0.09931268397145612
0.10090902023398253
0.11341815804296344
0.09343997288599414
0.07346178772902483
0.05348360257205552
0.03350541741508621
0.054950045014004203
0.0878726746383389
0.10969136638553563
0.14237649832645122
0.16904866997115373
0.18651063730296294
0.1948079529279849
0.1910292465991566
0.17690784354840636
0.15784512651222743
0.13598325864073504
0.11400987389284731
0.09122472268207375
0.06730861724076877
0.04852490947920454
0.04014508308365605
0.04473064512336205
0.06172093574600203
0.08463591709456438
0.10781992461868867
0.128844261717213
0.14604857965256554
0.15862035736503985
0.16656912001591212
0.1700435427189005
0.1659203465986259
0.15048776596288932
0.12732596592214293
0.0989966150807993
0.07579417343138158
0.07354133723114119
0.08338506631212086
0.10751838414742505
0.137041323988581
0.1912363690226639
0.23399052953040744
0.2557833466539227
0.24698611713844204
0.19024165786028252
0.19428119656484308
0.2215318293817867
0.4435281762462944
0.7934388970298288
0.7936091242165371
0.7743608336841926
0.6539726249356576
0.18932831058350713
0.1506487168309356
0.15846203862795988
0.18176265216377524
0.2101394547089628
0.2348313418009951
0.23818724865838758
0.22956251515419562
0.20030862489734166
0.1616607238315842
0.1308487153507318
0.09893189931724501
0.10172556956321904
0.11480334915565697
0.09470417167163958
0.07460499418762219
0.0545058167036048
0.03440663921958741
0.05433388232732559
0.08732071246869191
0.11017677910660734
0.14266774177081457
0.16950428459458944
0.18738519982462495
0.19600787468715153
0.19227171402499632
0.1778230285366679
0.15829779268290492
0.13621443519264814
0.11413891285879993
0.09133046374714579
0.06750687280057477
0.048705523002373664
0.04034896417826154
0.044915874966123474
0.061870803397612716
0.08481333051980781
0.10793483452194924
0.12880544885368983
0.14560021385211477
0.15752585746934483
0.1648116404780685
0.16771301621751056
0.16347904423625334
0.14826099123741443
0.12560787580035732
0.09806461399591679
0.07608086357074662
0.07158421502467148
0.08076381994915179
0.10472187292183757
0.13160651533090847
0.1909567715062758
0.23443487992211492
0.25632920487259586
0.24934778693900805
0.18986929984689374
0.19334646176871623
0.21264119640284368
0.4290438694141773
0.7942033806022306
0.7945252620224883
0.7788975599922193
0.6650910680532607
0.18897004331925282
0.150362370444729
0.15733902251430354
0.18038577712004575
0.20845268590152266
0.23279447957292332
0.235855855539746
0.22669324803557064
0.19824005614714318
0.16032501388220088
0.13004489322937968
0.09910882663152473
0.10130862432879384
0.11409959222469175
0.09405306389755644
0.07400653557042113
0.05396000724328581
0.0339134789161505
0.0964943370823082
0.12806755888799226
0.10367133485425066
0.13785771810297992
0.16198168986487657
0.17365744505475555
0.1780110926970607
0.17347448312170888
0.16315927747494152
0.1499337421999868
0.13063903596650703
0.1103635132342468
0.0886946257009789
0.06389092388152533
0.04596040922527142
0.036829281734091675
0.041510235168211965
0.0593494216753942
0.08204146261322025
0.10725231039441713
0.13209316937765228
0.1573077676185978
0.1825501574224491
0.2048306212895616
0.2206045570725659
0.2179947313764997
0.19719030335556126
0.16187077756447985
0.12235623346634468
0.08538214877082398
0.12271364646195768
0.14312561698603693
0.1629871370527418
0.22515304009064188
0.19126523894701217
0.22159776208599455
0.24273741298804938
0.2197727747968991
0.26079964990651133
0.25454480322898393
0.5011866173785032
0.6369142859112674
0.7868418188748323
0.7943137991735489
0.64452060725309
0.5065733214134227
0.20578350670461232
0.16082963982621903
0.1778770780969393
0.2041065950158955
0.2360328165697306
0.2626696178397261
0.266046781898802
0.2612156839672669
0.22517393650410863
0.17863261924038545
0.14208487162341893
0.10054056141617705
0.11155506382816686
0.12986376569186447
0.11100855248193911
0.09215333927201375
0.07329812606208838
0.05444291285216302
0.1048456625253146
0.13612425332854305
0.10293746878607746
0.13705233396590574
0.16080638676458997
0.17178216377898595
0.17578490196424942
0.17113745354521095
0.16116667466236478
0.1485312851038074
0.12941919376244282
0.10942776073248961
0.08809467026399152
0.06328638809814983
0.04562824603734141
0.03628957477625785
0.04094427726495522
0.05897632063505201
0.0816626144977255
0.10742297802168176
0.1331858616308697
0.16006178814902014
0.18797173244428203
0.21353317353406825
0.2319773168517727
0.22954757085366564
0.20738507142013335
0.168989060319714
0.12808421317362412
0.09057645421894832
0.13496560626177787
0.1571277159071461
0.1746680359168891
0.2393024763203936
0.18973814290462715
0.21787731845948335
0.2391349484172608
0.21721806434295504
0.28790148300059315
0.2772436469191397
0.545021109497089
0.6517081279662833
0.7750244683494069
0.7858099435190573
0.609309330161314
0.4862834104457429
0.2112441382591514
0.16408981245654586
0.18132205758844863
0.20781291852294742
0.23991863755582044
0.26602243406089565
0.26836397477119317
0.26266366871555813
0.226538916584448
0.17959303208775418
0.14283851736770253
0.10144984571020264
0.11392797274684381
0.1332831761578336
0.1149788809063335
0.09667458565483339
0.07837029040333328
0.06006599515183317
0.059366275134557445
0.09209489710636293
0.1083983957374479
0.14157465570008204
0.16778218024180197
0.18408876463342738
0.19151013740675518
0.18760359866177598
0.1743499351960069
0.15653836229670934
0.1352700594882562
0.11358869340007578
0.09089669041052867
0.0667396898202664
0.04802438722091002
0.03956598967538214
0.044196649358304224
0.061297077994777904
0.08414462351910929
0.10754206769005938
0.12904804971315098
0.14745555868658292
0.16192247700772708
0.17185648834092285
0.17705293155870191
0.17323245135805965
0.1571313419288042
0.13241358845856707
0.10187242386597006
0.0753266669881016
0.07964708261414091
0.09136941357611626
0.11579118883732158
0.15258597662541878
0.19196521696103033
0.23263752545828503
0.2541793706177753
0.24069432177967767
0.19296756286513433
0.1979514593234897
0.2534878959815446
0.48432849468909905
0.7928589919770369
0.7929157890572326
0.7606021351467193
0.6237002645462089
0.19066746657703515
0.15160989193761987
0.1616857706483592
0.18565683849526046
0.2148687044919501
0.2404284498112753
0.24445974454267602
0.23725532580817238
0.20596837807963633
0.16537644745075158
0.13313872643366317
0.09859920304088564
0.10299592353134543
0.11690239969872863
0.09674058624945012
0.0765787728001716
0.05641695935089308
0.03625514590161456
0.07556918101145485
0.10780308118518213
0.1058904208241363
0.13982921622029562
0.16501035858874372
0.17891511620937806
0.1846336407282147
0.18042063561498903
0.16880756448083692
0.1534767967982844
0.1333399487144835
0.1123250173846089
0.08999412263839532
0.06541763573718294
0.046969678550299626
0.038258964928595506
0.04294855788190643
0.060354079099753474
0.08309863451299979
0.10718293551832782
0.13004052672379354
0.1514256601002013
0.17058375008506954
0.1856862295424207
0.19537105335243546
0.19217559797782333
0.17419665733150153
0.14522653293195797
0.1100087814394371
0.0769595740897119
0.09663732303158931
0.11253156977805688
0.13616748553568417
0.18750095999497776
0.1927802501101516
0.22863377353586042
0.24981059169755276
0.22891617126127423
0.21238037179382763
0.21506225712706645
0.3614677904220159
0.5693420063622738
0.7949469174392253
0.7968559457815855
0.7182962064973902
0.5630502395349329
0.19575140258150298
0.15481709101186916
0.1691888789085616
0.19442153487990077
0.22522957253870085
0.25199261256302447
0.2565777951290974
0.25165059326701006
0.21711982864812743
0.17295883535877904
0.13807957876268073
0.09883854032525467
0.10646337532259217
0.12234055602616267
0.10248500935451406
0.08262946268286545
0.06277391601121683
0.04291836933956822
0.06759907893263649
0.10098694215080076
0.11407645228295613
0.14492288254702523
0.17290589254468694
0.1938679697824956
0.20500194811971648
0.20150068692966167
0.18442073085481342
0.16133613496328914
0.13753394804036193
0.11476154442131715
0.09192996715494302
0.06886396461076444
0.050023688600260366
0.04177055017980472
0.046165429932456585
0.06292023548782473
0.08612153836276888
0.10898876272944609
0.12900856490173046
0.14311799046712856
0.1507738909806296
0.15385118956045277
0.15315410544238103
0.14807542021818168
0.13408214969858373
0.11450129197961025
0.0923587710547353
0.07934779562446002
0.06519125100676232
0.0698042293596233
0.091714194575082
0.09963744258705078
0.18936578588121505
0.23766382784682738
0.260469904117977
0.2676635386280365
0.19148521961265938
0.1905467525183803
0.1776147018087313
0.33173428106898295
0.8115422375087579
0.813301903210722
0.8123247201351094
0.7473154816481296
0.1879275453594318
0.1489716639684181
0.14964546063804549
0.1706247720090205
0.1963280264417379
0.21762972608179235
0.21790013362674857
0.20475089218651757
0.1830109055672785
0.1508482234777677
0.12460023063034485
0.10104219756735403
0.09870827466039692
0.10956324925078877
0.09035850468671106
0.07115376012263334
0.05194901555855563
0.03274427099447792
0.06382487189702818
0.09714679247479521
0.11335660392297622
0.14451109607198626
0.17230398216371204
0.19273470610451415
0.20342069244094435
0.19989017048124869
0.18329442481936717
0.1608454549207485
0.1373506408155979
0.11469194515507174
0.09184689701202998
0.06864067612614505
0.04979720615385241
0.04153369199542733
0.04596255759492288
0.06274525886121841
0.08589433777603998
0.10878164086581082
0.12891655224693507
0.1434548745600607
0.15179842400494784
0.1555340570302907
0.15539458776320894
0.15046649963517786
0.13630024650714714
0.11625946015089303
0.09323881504004351
0.07867795233029165
0.06446920728354678
0.06982208058963275
0.09216032049126258
0.10325925944667812
0.18951468144587227
0.23705032591394
0.259678264296154
0.264407861526128
0.19094471473915278
0.19047204855205885
0.1807452134732331
0.3470290798499301
0.8069895171727853
0.8085981166546942
0.8061550961588465
0.7332474809385433
0.18793391678905058
0.14913819585381138
0.15091331333957683
0.17227700846210697
0.19839716385328343
0.22027538727623408
0.22109415710288766
0.20861548112821016
0.18562940541805192
0.1524343666512694
0.12548364926405672
0.100651205672536
0.09911464237279888
0.11028445921581564
0.09087906677493796
0.07147367433406027
0.05206828189318258
0.03266288945230489
0.10851753007962682
0.13965933646643086
0.10263219295718452
0.13668814801870874
0.1602891789152391
0.17099252823725408
0.17487643715675152
0.17018361448841465
0.16033418189195037
0.14791148636323587
0.12885080418933056
0.10898363703048268
0.087812562281886
0.06301958718773576
0.04549442948912689
0.03605631301484498
0.04069517997731016
0.05881545405417409
0.08150182352895598
0.10752453355318675
0.1337213580213707
0.16136155527218238
0.19050511206581153
0.21760524442930035
0.23726927745984783
0.23490614147316002
0.21209235502512067
0.17221462122744874
0.13074436997546338
0.09311097019008607
0.14064699298172365
0.16358536004232013
0.1799640524954699
0.24542299190990363
0.18888671654654918
0.21605180230367185
0.23739067048100707
0.21626152874521345
0.30128758279853624
0.28867380912608226
0.5611543853880101
0.6559536901950107
0.7674721762166075
0.7799915287459416
0.593063449819136
0.4774024853887319
0.21395556689881107
0.16570891130746718
0.18284284001425885
0.2094237647287334
0.24155365583500468
0.26733031598597307
0.2691144932262152
0.262856539587076
0.2267692856077131
0.17974438534580128
0.14298401355031387
0.10186476845924766
0.11504145147628328
0.1348800110691259
0.11684278927879226
0.09880556748845862
0.08076834569812498
0.06273112390779134
0.06367752483155516
0.09626627535268299
0.10759007937832533
0.14104652320102914
0.16694229403905494
0.18249728575925017
0.18936703318385176