# vtk DataFile Version 3.0
vtk output
ASCII
DATASET POLYDATA
POINTS 5568 float
7.480577319069748 0.135197325912295 -19.846740913195763
7.6581233350009645 0.08555422894410826 -18.928617168135073
7.76058066582499 0.04777297537319841 -18.269420604798388
7.84107236130664 0.0024430925553321006 -17.625584659456653
7.883338990295148 -0.041465429029567645 -17.0000155533254
7.875941401536572 -0.0763509875325251 -16.38506982474841
7.809524253166096 -0.09628488547156268 -15.774902432714933
7.66881467971111 -0.09701536584312491 -15.162403014901598
7.447919596371217 -0.07937473977811282 -14.565329336566107
7.147544892677046 -0.04447291771986711 -13.995047923641948
6.77013698065069 0.00889445833269261 -13.457577753482209
6.321143812366245 0.08047778327188518 -12.955074757621674
5.805121389437948 0.1719210829353408 -12.486151549889652
5.222725544144135 0.2859563832898145 -12.050039052451694
4.581146360600778 0.4208798094446672 -11.647377641896167
3.887183908951025 0.5717500994885072 -11.275697297468161
3.1557972204535774 0.7284706787017874 -10.92693261146478
2.408118804569626 0.8777247653618699 -10.590359518435845
1.6617238037547581 1.0074004109361696 -10.253819499687626
0.9324438956954082 1.1103159586830114 -9.904540364209298
0.23334095951653933 1.1839787655164085 -9.53039288354999
-0.42359615995269095 1.228547949795775 -9.121985370144582
-1.0269596775188954 1.245930098204958 -8.675045935750829
-1.568565171716388 1.2363556789420331 -8.18834489570741
-2.04234548366283 1.1992099969161452 -7.6648927779715414
-2.4449964489998655 1.1335805096860792 -7.108866315791038
-2.7762031278339436 1.039673458440037 -6.519402263533456
-3.033409829305109 0.9171687515877646 -5.894093249226288
-3.21216022132329 0.7647471154142949 -5.232082515769288
-3.313962265285185 0.5919335942020633 -4.541332935730934
-3.354233499818743 0.40617075810394065 -3.826092901988659
-3.345270790980177 0.2135504342183156 -3.0939902755554534
-3.3017714769295052 0.029417873157735724 -2.336724519399918
-3.2312544118886564 -0.13149840678084035 -1.5644118564983636
-3.1449904446522448 -0.2287224475999875 -0.8179524738722718
-3.0562376186152744 -0.2620567957998809 -0.12587981197688347
-2.970741228527889 -0.22871441143497245 0.5305423526778292
-2.901873255716627 -0.12402124055267359 1.1524359837662932
-2.8597337874843345 0.0949598548874125 1.7440230760438569
-2.8432102920712126 0.4167370525915248 2.2831965266320724
-2.854802598299158 0.8487674845012168 2.7860971371629364
-2.9213865667329815 1.359288980139144 3.2835966021632568
-3.0266456980465004 1.8451484049158269 3.7631493910377536
-3.177684603490206 2.1939963790392305 4.211454872303511
-3.3386738420012003 2.4197280028379597 4.597257830825859
-3.4065935559006677 2.4789898468538656 4.961674515948681
-3.4638249681446376 2.2147548440022433 5.195364165381896
-3.4951440052110483 1.5951020922590824 5.4110954211997555
-3.46915367464806 0.8912280864866435 5.582664708951864
-3.3435644363232893 0.10317028899966818 5.711841371064826
-3.12023603780365 -0.6866898094239569 5.812294217487977
-2.8013763154985334 -1.42880792839831 5.913480626645154
-2.384683189617459 -2.0969195761462407 6.038925984148441
-1.879097798855936 -2.6549325899900746 6.214044525663423
-1.3025368322756181 -3.0938096645577944 6.4482752541966875
-0.6751986813371749 -3.4030686066652196 6.747746052684746
-0.0006241918521276979 -3.598115811442684 7.1096773353747045
0.6610478631521137 -3.666935162625672 7.515204884445106
1.4365333394160866 -3.6303307688750963 7.948054338292698
2.295514120010689 -3.4959667003713397 8.381391843174793
3.3842974738609026 -3.2100412089193515 8.832147969085593
4.778776165647528 -2.6718512793834126 9.235182969272744
6.002956602997236 -2.0147269807322883 9.400399346501132
7.006210264989015 -1.3225079528843802 9.397720389025142
7.461598065692946 0.15273671068591044 -19.947234586863342
7.650177707646261 0.10334774415150672 -18.990909227815205
7.75216562356544 0.0685237765467966 -18.329579131580562
7.831755436206762 0.026338348911080785 -17.68327110733952
7.873023307342274 -0.014379020267853836 -17.054853611700278
7.864745859430339 -0.04633232008676027 -16.436978715365314
7.79769953443067 -0.06410702758161453 -15.823692662751476
7.656263886731846 -0.06410301818116644 -15.207974247465245
7.434758034186826 -0.04685640911406121 -14.607485453553174
7.134433265437666 -0.01307490609675744 -14.034013745533462
6.757757267554601 0.038919744741185945 -13.493681375407789
6.310130578954568 0.10903088291436469 -12.988807059608922
5.796031976941772 0.19878325144566933 -12.517996512004595
5.2161470928589395 0.310545065631202 -12.080093716014646
4.577384265365747 0.4423802193089529 -11.675197732786673
3.8863108651152336 0.5892206056670886 -11.300437779978807
3.1575764607577 0.7411390281291577 -10.947741656975596
2.4125620077323515 0.8849790243679685 -10.606741687472097
1.6686946898210127 1.0087731834201357 -10.265726864858138
0.9415024504474203 1.1054148615306398 -9.912088387183207
0.24416682453445604 1.1725258544129773 -9.533702676940308
-0.4112060038499302 1.210515440966582 -9.121265801121181
-1.0129182198331577 1.2216256823530536 -8.670791457346528
-1.5528034554491281 1.2063461873928591 -8.18116245942246
-2.0250058258881625 1.1644589855098166 -7.655431264669432
-2.4261261445824256 1.0956000173516145 -7.097863397728359
-2.7558419881835348 1.0004023814071918 -6.507459112617547
-3.012004988087339 0.8786417959888216 -5.881188647585731
-3.190559493097496 0.7276666883352912 -5.216741086960565
-3.293227518866337 0.5584872363482976 -4.522481755711897
-3.3357888264989937 0.37805539440337027 -3.802848320580845
-3.331939655561108 0.1958266382255915 -3.0678136432882597
-3.296249708752455 0.023148703932754144 -2.308974827540648
-3.2360646128397836 -0.1320598733577721 -1.5303751859671986
-3.1612141580467323 -0.21322297536798307 -0.7845646176808476
-3.0826311545706986 -0.23228835450011337 -0.09505889244435706
-3.0066176850199477 -0.1867794984207613 0.5562468247436199
-2.946383843132698 -0.07139934063940923 1.1699721356124915
-2.9112998360976894 0.15357030538171715 1.7515986770696794
-2.9000792420687107 0.47747874096345055 2.2794272221696836
-2.9147841532280916 0.9095127697841359 2.77408004393223
-2.987270806159884 1.4160318870449262 3.2735831271909133
-3.095247873702772 1.8890754208778684 3.7571677242495336
-3.2439800159439542 2.2308966261901477 4.215772673366272
-3.396251131321404 2.4345485664820523 4.588257513446401
-3.461488848724735 2.4855078017344203 4.959387178491088
-3.5107614733155974 2.2080633774416474 5.199329419135485
-3.5326867766511683 1.5732147641907777 5.414072912210974
-3.496274442277577 0.8573694456850254 5.581959239586833
-3.3634864991904774 0.06582857604458503 5.70697711444758
-3.1356083059003423 -0.7243745505147339 5.804108023672715
-2.813921953887514 -1.4654740469048566 5.9022259108432085
-2.3954585034658695 -2.1324171140531547 6.024673029665003
-1.8883860904901257 -2.6891525095300786 6.197413372592192
-1.3092523818044381 -3.1254878453365635 6.430743700253945
-0.678982968860486 -3.4304037497692024 6.730571200274747
-0.0022782278601521933 -3.620407620189673 7.093145304544614
0.6599761714469858 -3.6853729842619845 7.496466100494235
1.4344690891625196 -3.6454960699992185 7.926935292459597
2.2928406286971557 -3.5071044551857082 8.357478862771714
3.3834358464415564 -3.2160623326742708 8.803744979070071
4.771397728569767 -2.670700355919499 9.196930557988901
5.985553726312911 -2.008847417250331 9.355522165332335
6.9773048752353475 -1.3130028943504337 9.346451106565526
7.401224045654542 0.20853043169064825 -20.266910337393906
7.62692085413734 0.16029606261870225 -19.183766889794438
7.727418918600506 0.1349316483080642 -18.51552908842431
7.804131986973937 0.10281256753838883 -17.861201948369157
7.842201550587055 0.07232840619869044 -17.223546621821097
7.831097480098942 0.04978878106553883 -16.59619750993875
7.7620281171150864 0.038955522474018005 -15.972882488625654
7.6182690852621935 0.0413216136863577 -15.346862586622718
7.39481740651221 0.05729937813818593 -14.735439675850829
7.094652273848364 0.08748536935046414 -14.151727752077102
6.720285789911253 0.13509223086292205 -13.602190884267618
6.276958473261279 0.20051847733585593 -13.08969104882428
5.768905059911271 0.28490903557781994 -12.612819532932141
5.196892250953368 0.3894806079706231 -12.169174897938698
4.566917565202906 0.5115623287304321 -11.757118878892548
3.8847831287803736 0.6456846809863743 -11.37249144349394
3.164155378860356 0.7824443023504679 -11.007188501188383
2.4272094251572836 0.9091922960448215 -10.651980831435933
1.6909373961965628 1.014400148503367 -10.296577667939038
0.9699253108567015 1.0911705501830875 -9.928870187260111
0.27774539413467314 1.1374778360340345 -9.53674385291166
-0.37308799835636275 1.154523029168782 -9.111183925489286
-0.9699147836489935 1.1456392529628547 -8.64915189149982
-1.504603188194935 1.1121527723567768 -8.14991932307444
-1.971951490692824 1.0551205182957042 -7.616714913003585
-2.368272737091725 0.9759516458272973 -7.054120469002717
-2.6932638228141705 0.8766386038790749 -6.460683367044367
-2.9461116350093985 0.7572436628301851 -5.831330141607316
-3.1240451579456137 0.6108919203629922 -5.159064360423949
-3.229510188480188 0.4533300571731687 -4.453413391797336
-3.27944277606008 0.28992838018911005 -3.7193435403748647
-3.291890682683968 0.1405299933237732 -2.973746743859139
-3.28092095770108 0.0038578812390991646 -2.208315840672978
-3.2539226420441976 -0.13320990143666597 -1.4082345894556951
-3.2148365226830116 -0.16394082320237646 -0.6612320466908551
-3.168004113106235 -0.13809277166380593 0.02294099084842227
-3.1214789618600913 -0.054258288276754274 0.6604377625543918
-3.087978883270742 0.09481430497607157 1.2506374675518774
-3.0747594390552653 0.33878617768931507 1.802324034314014
-3.0799316884912735 0.6695736773448462 2.295528181575629
-3.104355980579699 1.1017641202495216 2.764605888205261
-3.195635420998673 1.5959300138260915 3.2708208507181773
-3.312346833870221 2.0297758428616044 3.768016438685416
-3.45404055565226 2.349854462362205 4.261099502435783
[...]
CELL_DATA 87
SCALARS quad_param_group int 1
LOOKUP_TABLE default
3
1
3
1
2
3
1
1
1
2
2
1
2
2
2
0
0
3
1
3
3
2
3
2
2
1
0
3
3
1
2
3
3
3
3
2
2
2
0
0
0
1
1
1
3
0
0
3
3
3
3
1
3
3
3
0
0
2
1
1
0
2
2
0
3
3
2
1
0
0
3
1
2
2
1
1
2
1
0
0
0
0
0
0
2
3
3
SCALARS single_component_feature float 1
LOOKUP_TABLE default
0.0050757801659194884
-0.001184249031372514
-0.021097736706301162
-0.00807080408210202
0.09174037383530367
-0.018194974425473773
0.07966726882798845
-0.125571903791991
-0.08157486941700581
0.017372461976913448
-0.02827387629439323
0.013891094198678983
-0.06483106032135996
0.027254924135413305
0.017538043080042733
-0.05842741551778321
-0.09693712520800478
0.06080417627277671
-0.029509309108800588
-0.011633271053475072
0.02656299677991853
-0.01821209304864589
-0.044323730334194816
0.09453214160499539
0.02239713546011063
-0.003322071191958688
0.07348002425072674
0.02252896993325496
-0.01966731923847151
0.06211171610806583
-0.0001785614305443578
-0.0013282416173569398
0.010793150953975032
0.06413499512513209
0.08402069608545885
0.061638834175451726
0.03860421459540618
0.02043624288937122
-0.030564052289317654
-0.024411781640623305
-0.06356039741656988
-0.019277513182906145
-0.007932535764033743
-0.04698459407073261
-0.018856502835790948
-0.025612700421087153
-0.08111447246874619
-0.07468856447365847
-0.026113347544798923
-0.009399017173112638
0.0355155047755265
0.043042576229333634
-0.007673968257273535
0.09091087716376388
0.06010087361111699
-0.006190727302919773
0.13074241058434405
0.10845141237912688
-0.06040035955079966
-0.0670468984977009
-0.05792107531174334
-0.06462672978058925
0.04495263851866517
0.0165847369244767
-0.011305697128900546
-0.0459206091352877
-0.025930158713762683
0.012642024043479277
0.0599347571470824
0.028065671596786496
-0.06443130053381463
-0.039214100868739096
0.01968673039900476
0.04059426614405175
-0.0367726489289524
0.0025281756469990122
-0.01415809770468833
-0.01696257694929497
-0.030819660611829232
-0.044820951808546644
-0.0314015253885563
0.027502638999645532
0.06174320215711312
0.026759522836959357
-0.0289295117057324
0.03224057382438404
-0.021203144157019252
POINT_DATA 5568
SCALARS single_curvature float 1
LOOKUP_TABLE default
0.055514049871222354
0.0886109863436562
0.10951507266769951
0.14321666567574817
0.1700597600440536
0.18689565685948759
0.1943014847609173
0.18998970554096023
0.17588803284757526
0.15720980004557153
0.13554511709122619
0.1138656202802849
0.09133231813944857
0.06723314741334574
0.04824339508796122
0.039535321205841516
0.04398699752736512
0.061104518459311814
0.08427637882357392
0.10795908600057932
0.12977723511939557
0.148311233116963
0.16263562436016346
0.17236102832457634
0.17728140008707247
0.1736733213989338
0.15803183551407238
0.1341713468688627
0.10425485327281454
0.07952754215290667
0.07807395751311318
0.08834908457616931
0.1122052695262821
0.14512073525009198
0.19193264076637068
0.23299953329525047
0.25557666829106235
0.24571330619880546
0.19527912985956433
0.2030856181556625
0.23717810361725394
0.4817621228435073
0.806832485700509
0.8062373771632497
0.7845324626749557
0.6500174236149902
0.193816385761845
0.1540970529752253
0.16331467242563338
0.18587148800354447
0.21354957087602067
0.23808509408178438
0.24178097680110536
0.2348650140115345
0.2048154636156168
0.16508161184217096
0.133130349857016
0.0982570657226764
0.10205575533899396
0.11538049393318793
0.09527093132549391
0.0751613687177999
0.05505180611010588
0.03494224350241186
0.058797516186693606
0.09149375127187526
0.10847207216667634
0.14140612165255811
0.1675907704619589
0.18407733524522735
0.1917274487788542
0.18794779516577925
0.17466762307773123
0.15673278980626223
0.13540400098794758
0.11364428970244868
0.09088676145029403
0.06677817603102397
0.04810577155240379
0.0397285232766753
0.044389421456284286
0.06145354325567348
0.08424134637066999
0.10750925495004916
0.1288070264509386
0.14685855712499987
0.16084478124015952
0.17028258494170936
0.1750687633615073
0.17112155591422176
0.15510150522124075
0.1306287831907359
0.10052685886278094
0.07443395847394674
0.07833854173638274
0.08988189840597864
0.11439054240331362
0.1501781629057287
0.19178019825859063
0.2329215794053596
0.25428247866885645
0.2411641735411529
0.1915110817533948
0.19571610964199151
0.2481228771026954
0.47445394566817395
0.7896148483170319
0.7898085678267409
0.758718598297424
0.6254162433297293
0.18954200592342474
0.1507545235395734
0.16044267301421097
0.1845688680663327
0.21392139917110636
0.23950700281359863
0.243461620870298
0.23583026286646916
0.20476042081528115
0.16446683795411168
0.1325292905874411
0.0987409753945177
0.10286187432457729
0.11668081075289112
0.0965104890155494
0.07634016727820768
0.05616984554086596
0.03599952380352424
0.07038062512748376
0.10180891181128207
0.1052602640877853
0.13589823123852673
0.16010910815533172
0.1755083325855335
0.1838413340837133
0.181566119922154
0.17076498768230372
0.1551319840608277
0.13487089713368364
0.11288303383343688
0.0894552504929618
0.06538527306241981
0.047725301909783704
0.04039096090755962
0.04566594016085526
0.06246415219728925
0.08399736775119263
0.10592477206784558
0.12559735240271883
0.14221999737681493
0.15529418806546683
0.16398461072471213
0.16839208287232416
0.16350760512126475
0.14630558215015
0.12096451893113473
0.09028785365153122
0.06048146592736116
0.08203930790161451
0.09615699238164635
0.12246585340608386
0.16642517683008373
0.1904055422672657
0.23189510177698092
0.24934001369094777
0.22925158595883888
0.1881703000962885
0.1822739859834869
0.31905258783834406
0.48085273655210703
0.745962471227725
0.749067512638947
0.6666230771259264
0.547609392601506
0.17716417839412646
0.14056644828801212
0.15157669491463202
0.18045807087812768
0.21503283687158156
0.24385892571567397
0.2486176365451295
0.238724961208358
0.2044551137763623
0.16246164695754622
0.1305900421416146
0.10030410691799027
0.10545574138037937
0.1208724104428526
0.10052014078046863
0.08016787111808465
0.05981560145570068
0.03946333179331671
0.06261428279793706
0.09487082830580253
0.10734333718880139
0.13945813302275206
0.16493947289134153
0.18104582172672135
0.18894824476817618
0.1857211405489032
0.17332132927910637
0.15619344360386317
0.13523403873134077
0.11339057866789053
0.09039357836356343
0.06628648817353626
0.047963952556679845
0.03994941502097504
0.04483187410594663
0.061820557553423354
0.08417983122967224
0.1069873924129856
0.12771762195488348
0.14525656275681947
0.1588988765555697
0.16804899058184994
0.17269613283905497
0.16839980931603818
0.15196626688846263
0.12697603397341511
0.0966653318075087
0.06913965591085387
0.07908622921304848
0.09180365756553802
0.11698888454124524
0.15581041595048703
0.19145744990783625
0.23269890051317815
0.2527132055907195
0.23653146692470076
0.18882787588702363
0.1892930005722167
0.2659391005163279
0.47087702295972006
0.7718636376116261
0.773026940307409
0.7283364528198432
0.5982558661232514
0.1850640161322274
0.1471546248835099
0.15732925254485444
0.18314124474567237
0.21431814961085524
0.24104190736713113
0.24527789744144327
0.2368616744911404
0.2046771369331462
0.16378155179997442
0.1318630049861193
0.09927768993542288
0.1037540178596984
0.11812154257441142
0.09788628681402188
0.07765103105363234
0.05741577529324281
0.03718051953285327
0.05224529078474408
0.09085714012761612
0.12579339938313422
0.17218955388696922
0.2100440107475976
0.23202412846873294
0.23455798840207284
0.21990645375183793
0.19232350421370567
0.16245276841332473
0.1361441483962602
0.11585381537915745
0.09687192479690178
0.0738080638366322
0.05065122646073442
0.037528468980829975
0.03856825729600565
0.05506773113504572
0.0828221848699211
0.11162784530625612
0.14084539352443226
0.16748773870762743
0.18875694598417894
0.2047531256174536
0.21244516106640046
0.21517904093915566
0.20441796767458398
0.1889436360744079
0.15846059252515654
0.1529347980395264
0.12865944577059157
0.11695982209627943
0.1307238303490528
0.12023321274363334
0.1811900668308962
0.22202032277100953
0.2604152386162992
0.3114739219550962
0.28114084453735166
0.3452362180375815
0.29642174702768087
0.5932820384733943
0.9401349207558367
0.9381046030874587
0.941488940699877
0.8724335212890296
0.2810450179960824
0.2067816676746847
0.20650994674002607
0.20414075310518956
0.2073932678713868
0.2161443469160779
0.21599955293703513
0.21896532550353073
0.2035736311806614
0.17259928399605676
0.14083222694629394
0.092078504652939
0.09148574954415271
0.09865827399630701
0.07950824494993725
0.06035821590356748
0.04120818685719771
0.02205815781082794
0.06859010898894041
0.10020254481609792
0.10571862440445243
0.13667734805305767
0.1611645536744207
0.17671994236705485
0.18496226171945318
0.18248545413231557
0.17133562180509937
0.15537312855107677
0.13495648841579205
0.11299912834495732
0.08966470372817989
0.06558256637898457
0.04777498103292247
0.04028992229030963
0.04548058893098522
0.06232662930765345
0.08404552310310655
0.106169947087507
0.12607626291843088
0.14289695045291775
0.15608825837197682
0.1648713705318054
0.16932969684171578
0.16456783902092073
0.14753512150903428
0.12218863880886566
0.09158665097896372
0.0622079830184443
0.08117517567472092
0.09508662489822844
0.12116610234663701
0.16408106869949735
0.1906895484547959
0.23211667000500014
0.25013637741279426
0.23067893812289308
0.18782862980410178
0.18326465224442953
0.30484076148816175
0.4764692883862809
0.7505300545489716
0.7532066525064266
0.6807338482618702
0.5587455195412746
0.178864812589287
0.142009370687651
0.15284264845288323
0.18105383993261945
0.21487768609720176
0.2432411882076703
0.24788451631286912
0.23831973956615743
0.20451182960371148
0.16275826291899062
0.1308749675873224
0.10007423685623806
0.10507504585957307
0.1202568523611215
0.0999299724821128
0.0796030926031041
0.05927621272409539
0.038949332845086684
0.04931027192997235
0.08715758035695409
0.1233035597231424
0.16771667079589966
0.2038239576522287
0.22505836148434352
0.22843903992222775
0.21556313166000637
0.19009674790843878
0.16187949677365873
0.13621479490673274
0.11570956579342258
0.09619989556206932
0.0729094614083251
0.05029457454679207
0.03774498562395373
0.03929484583691841
0.05601349906993729
0.08322748526180639
0.11141146780559019
0.13959936160588465
0.16497127245707022
0.1850413941026168
0.19993055037616803
0.20712106227475602
0.20883264434561885
0.19748839539106122
0.18156268348751767
0.15164003167751627
0.14370801208101303
0.11874261405391615
0.10975246256331445
0.12486364214377302
0.1203658191934825
0.18395977864643473
0.22480270704347893
0.26113852347126193
0.3033561853817831
0.27031162970689343
0.32709382587197156
0.281147158263884
0.5962290680367035
0.9367844961818258
0.9344443831271669
0.9374991277204711
0.8598253729829554
0.26523211142781955
0.19880716318566993
0.20017068416647668
0.2015914503570343
0.2083550351445995
0.2194173582368251
0.21983320094422992
0.2214415087711208
0.20396294451489988
0.17167682076299032
0.13983989219639628
0.09287134208635803
0.09288377837640638
0.10081855860350149
0.08152681497458265
0.06223507134566382
0.042943327716744986
0.023651584087826152
0.15573803696098407
0.1807156267904336
0.0907827856469906
0.11307521852480171
0.12982908055521084
0.14022049275427584
0.14990040595353635
0.1511136948586071
0.15005779752109957
0.1448276276322084
0.13015353375484884
0.10793616867352711
0.0823847672217097
0.060037397877001214
0.04739987536950101
0.04472285846997423
0.05157252177825176
0.064910042593408
0.07951693012610916
0.0944019249095046
0.10668186386657888
0.1186736052714664
0.13141529940657365
0.1408426892834493
0.14416766265987255
0.13837898484243344
0.11662245150852342
0.11230590526500354
0.09002294130628331
0.08571813494635934
0.16682263271934727
0.15971884538997866
0.17938572571885944
0.21081738239650116
0.16467535039628214
0.21183834182708453
0.21091178680199407
0.22247551650025418
0.2716627693238952
0.2454637224807644
0.9713934257485021
0.9695612801448525
0.9728950507544923
0.9738062274378105
0.28522841557384226
0.2664429361851675
0.13003071201807215
0.0980418485100356
0.11282373048723629
0.1601981286104404
0.21896009378960016
0.26193284705916237
0.2704042114143202
0.24965327297575263
0.20001678580593657
0.1514047491057549
0.12038416867262254
0.10868456883297631
0.11942500869149357
0.1430652080704888
0.12210806966269028
0.10115093125489175
0.08019379284709321
0.059236654439294684
0.11502894299181272
0.1426790865563678
0.09642196311569391
0.12147828149972731
0.14079638156764046
0.15314169174435774
0.162695989597276
0.16329520008413964
0.15879037202285887
0.14953357317128943
0.13250724061267738
0.11015176464738631
0.08517891595519199
0.061840342448412106
0.04719194974830285
0.04278904980676634
0.049344536901336264
0.06449599788417544
0.08203057970645974
0.09982336858283562
0.11494452711490392
0.12828122288809665
0.1402181164727744
0.14833428904792464
0.15196483946405479
0.1457245699620865
0.12544596347674078
0.11059400255404322
0.08186519971113235
0.06627834888696016
0.13340956956213898
0.13860239245095082
0.16458249478242767
0.2044041124508775
0.1785855852933078
0.22251779815656578
0.22805700085282693
0.22013342450786105
0.2320279284742242
0.20932750935173228
0.8282908822827775
0.8342009582246893
0.8802976999789661
0.8841766725273326
0.39301921153273167
0.35510963148328817
0.14732180230893077
0.11374964305759462
0.1274502063042051
0.16840284246480886
0.21770923326938443
0.255344722177141
0.2623588590566289
0.24588221003238322
0.20239145664189234
0.15606759231266104
0.12459149889443707
0.10517634314341692
0.11352260342162579
0.13384196729407227
0.11306154320348283
0.09228111911289338
0.07150069502230394
0.050720270931714495
0.04965447567189583
0.08354090825243186
0.11161209509011372
0.14688368248583947
0.17507343747209064
0.19260544091830212
0.19948973722712343
0.19404940832016565
0.1782749474479122
0.15810951361521663
0.13578478338558708
0.11427323142693067
0.09219711864320237
0.06814570919349353
0.04853571103785336
0.039176757137748694
0.04319752224269598
0.06037818619497373
0.08428769950981053
0.108773123339975
0.1316241978396766
0.1511504975875973
0.16620830230651457
0.1765689995942746
0.18177570797596396
0.1788908536864942
0.16399595958208762
0.14158512567294804
0.11199175147611007
0.09004546963781895
0.0786722425064097
0.08605181151795108
0.10854834845193109
0.13559268577683772
0.19184220348353676
0.23280238600091885
0.25774517175002637
0.25524454391189055
0.20558396199620896
0.22093937035665603
0.2273881608038183
0.503660536640803
0.8406868889126276
0.8388884336860581
0.8293787852149989
0.6971289635115309
0.2028421580220377
0.16085626232980346
0.1690676515955861
0.18844204610769463
0.21278875007564016
0.23522040258103794
0.23840002365329097
0.23289297710187107
0.20486598176612297
0.1662648985492801
0.13429674456394994
0.09731864384040435
0.10048671626476377
0.11285527163192198
0.09286953476852332
0.07288379790512466
0.052898061041725994
0.03291232417832733
0.0749509357299564
0.10592501769659213
0.10414114103267817
0.1340067722506837
0.15755108568178966
0.17256778536778217
0.1811121038193244
0.17930958252290038
0.1693520297114705
0.15452459727588408
0.13464793390629456
0.11258903462703582
0.08893725531679587
0.06490687101086827
0.04761145537554439
0.04064710752154579
0.046122378329050084
0.06278923947675594
0.08385987451562127
0.10529847380897528
0.12439836097684702
0.1405467521273956
0.15335511962997275
0.16184085817510432
0.16612861969538334
0.1609624480466821
0.1433477313460317
0.11825266837580822
0.08742044303399067
0.05696865270327601
0.08488907237559147
0.09922840337433048
0.1260407252009647
0.17212105242044812
0.1895830845756694
0.2312459566752256
0.24726524323164426
0.2262454974475993
0.19011472448916122
0.18114221723135712
0.3603932452961997
0.49765614072525255
0.7385958738166551
0.7426957154960454
0.6312372243757636
0.5206095952398648
0.17309312042563818
0.1370610201635572
0.14848712795030108
0.17899086099349332
0.21540618285459043
0.24536105208553888
0.2504022802849097
0.23970217698319546
0.2042973043523938
0.16172271581299882
0.12988299536340706
0.10087490580643425
0.10640030293958834
0.12239962476289859
0.10198633968876906
0.08157305461463954
0.061159769540510014
0.04074648446638049
0.05122466837662095
0.0848873095776662
0.11101180940845363
0.14583061596578326
0.17363193025931103
0.19096555344852661
0.1980031289329587
0.19289354827981048
0.17760064421169655
0.1578598451278675
0.13572200939231485
0.11416158809334878
0.09195389950228014
0.06788509417257986
0.048450180762924684
0.03927547657535168
0.043420777992668746
0.060589137237010156
0.08429218525285417
0.10855212559213612
0.13110945447802075
0.1503489227270541
0.16518992347291553
0.17536145401965433
0.18048395090143454
0.17738693721674093
0.16228063169369356
0.13943670388596927
0.10975940402757221
0.08701658406541042
0.07834882971072836
0.08659140282723692
0.10948156047127153
0.13821397255437207
0.19192002138084374
0.23290557579822882
0.25718188118406166
0.25249004582534496
0.20235508146492223
0.21551682235762354
0.2288143130992823
0.4967401187740912
0.8312943259215732
0.8297861573327534
0.8175185767592373
0.68403348914324
0.20019694020881296
0.15891673988572833
0.16742427744206204
0.1877128354009485
0.21300819717933386
0.23604088174821497
0.23936772707959392
0.2334614365057401
0.20485944002288645
0.16593329136582277
0.1339685535794944
0.09758260865187357
0.1009289192729776
0.11356605947254708
0.09354469106100675
0.07352332264946643
0.0535019542379261
0.03348058582638577
0.10130399087499867
0.12998854403449958
0.09873797216767562
0.1251290989484162
0.14563920089391877
0.15878989442279087
0.16813124184319048
0.1681812699181339
0.16211646946056102
0.1511896283535498
0.13326861474373822
0.11095770055358257
0.0863302533230492
0.06270394207931895
0.04724129767141761
0.042078179728862845
0.0483765892731709
0.06409896345181294
0.08275578271636037
0.10168891006202022
0.11800227682296564
0.13208436471117058
0.1440804057638665
0.15208707431986693
0.15588457280318482
0.14978354178452577
0.13024903045995437
0.11116271891005362
0.08093724441072409
0.059882545037838325
0.11689961951288866
0.12640173326648974
0.1536707487289755
0.19678474517888594
0.18288809144782275
0.2259084777773286
0.23465535065310014
0.22024681443528116
0.21628873062598722
0.19636102173346584
0.6835292501763885
0.7128541678594265
0.810332284954294
0.8157985733983336
0.45824344253832344
0.39976267465963417
0.15472557222301705
0.1205594590544742
0.13368127175450903
0.17166255096250999
0.21707677556749272
0.25243804839174844
0.25885665701645505
0.24414172870556172
0.20312124967229492
0.15786356115344186
0.1262499544524618
0.10382037661176892
0.1112714483499029
0.13024869519380347
0.10956636108363754
0.08888402697347161
0.06820169286330569
0.04751935875313976
0.04569956820088543
0.08022189420458212
0.11334512007888595
0.14993710019102746
0.1792605171535098
0.19736106740256754
0.20378592413287408
0.19735813219079226
0.1801822966655772
0.1587962580824686
0.1359409414150688
0.11457334591995304
0.09287922443245256
0.06889336575753317
0.048789171896718
0.03890831633558277
0.04256555117543425
0.05975756836915423
0.08424220262585638
0.10935908744740051
0.1330487703854993
0.15341400515422204
0.1691258149534339
0.18006256255685604
0.18552240881387813
0.18326990450413005
0.1689730349372993
0.1478328275979874
0.11843444152269715
0.09877068970721777
0.0803544090159939
0.08515884601118329
0.10651035161903158
0.12867521513797425
0.1913992177847715
0.23230511899631795
0.25912501781630576
0.26318315989702934
0.21559673691290035
0.23737261777154822
0.2278155265833793
0.5247200704413804
0.8656176446457567
0.8632119713494941
0.8593090790224353
0.7327661629120159
0.21077094614780778
0.16647223767631467
0.17379319827833034
0.19051739096661335
0.2121486902956909
0.23285193186644687
0.2356091643208846
0.23123619108147614
0.20485115802259324
0.1671908510683487
0.1352189731987194
0.09657722346408046
0.09924055325782538
0.11085679781551107
0.09097449961843554
0.07109220142136001
0.05120990322428448
0.03132760502720895
0.04958177202822262
0.0834788528682221
0.11164077724060166
0.14693406153415967
0.17514243315082567
0.1926838971068658
0.19956079211874928