# vtk DataFile Version 3.0
vtk output
ASCII
DATASET POLYDATA
POINTS 5568 float
9.145889379201188 0.1566483031901863 -24.36263430842186
8.029252339980767 0.1578756645067573 -22.497837501855457
7.536074371975225 0.17311602010528923 -21.704695289391662
7.04512808562851 0.18036301192614346 -20.90973892621021
6.540874149336622 0.18378470931297852 -20.1238077510878
6.028973991827908 0.18806129273604413 -19.343514595598187
5.515373192810636 0.19285254912023198 -18.563631619090916
5.001110608457825 0.19768107999854276 -17.78356629988121
4.48752507615585 0.20239607207759083 -17.002783667112674
3.9750707304757986 0.20778792961124115 -16.221881277955937
3.4637330775453052 0.2136516625899647 -15.440671852533262
2.953318405484498 0.22097113967933862 -14.659133310778799
2.443587617914578 0.23327919985231063 -13.877749270008923
1.935852922223042 0.25136686994928914 -13.095801059558477
1.4308307472223525 0.27672495877713255 -12.312163143013821
0.9303419434000344 0.31097093831232725 -11.52871178396052
0.4393150329192689 0.3494503922580618 -10.743935593295516
-0.04870739203231028 0.388410481344008 -9.95799641300294
-0.5481359805363575 0.4325707072405512 -9.176171142180614
-1.0692882375047272 0.4812928653569882 -8.403189887307418
-1.6123296889295016 0.5237637429457341 -7.644319755887297
-2.155129845820144 0.5409474140673933 -6.892787155779858
-2.638346066651965 0.5100083763857209 -6.12437475057343
-2.9956846642315926 0.41013033719609837 -5.319230100548866
-3.195014777390808 0.23719709903412683 -4.492526169895464
-3.253846752103412 0.01705859664807266 -3.6547380693854343
-3.2126823251273113 -0.2226750480603824 -2.822933605712307
-3.111586456381313 -0.46213191416208577 -1.9914690367043093
-2.9823404534149645 -0.6786079573784185 -1.1424589412563324
-2.846493920370245 -0.8546940810542146 -0.26951354470014466
-2.726269938360227 -0.9593243329255342 0.6201340814400069
-2.6404050548379576 -0.9512087357530483 1.5074998535715225
-2.589453332748951 -0.8023574470577671 2.3485039435150976
-2.565872211490381 -0.5171236306479601 3.073726329283861
-2.5654115023806003 -0.10442808939327136 3.660121130153136
-2.5788951632708796 0.4234765471459861 4.155832914326035
-2.5962864916818242 1.0479108004694095 4.5717472049674
-2.6118699086742154 1.7416868537202668 4.931267353459793
-2.6313155211463886 2.4782543418619927 5.270760013633342
-2.6968427292489494 3.2175710501687886 5.667306499057878
-2.8188786042251044 3.7580344742472 6.127753836982987
-2.994001815649543 4.012590811029554 6.612357800390319
-3.141594479707897 4.007152671084845 7.1085948605575
-3.270975424193446 3.6878520118494795 7.501417610644578
-3.354644779619344 3.121968694308257 7.835777267406947
-3.3750928332103975 2.391195373702815 8.10789542648426
-3.323262532116654 1.5555515592382783 8.313946713735096
-3.1949374965703465 0.6897851963307265 8.460003052661317
-2.9834147846701056 -0.1553869247768761 8.573096955095178
-2.6775263830687144 -0.954176022133312 8.672497481993227
-2.2719608877442914 -1.6813178656221281 8.775871901211293
-1.7659895136352004 -2.3052566510770283 8.906677526171688
-1.175184380825828 -2.7891894969989552 9.093103016551826
-0.5267200762132589 -3.1300253313373267 9.351376835305567
0.15631734202958225 -3.3479196358605954 9.678375750778406
0.8811440030080013 -3.461419627282967 10.070845399092077
1.6404885189550638 -3.47879794746244 10.509401287514558
2.432533425317552 -3.4141615883155554 10.961424456955813
3.242364686470765 -3.273826590516875 11.384140620927516
4.075340696475315 -3.057754708956468 11.752982355278453
4.93749384917973 -2.75726364066359 12.048039035737165
5.87675508638249 -2.342182802583914 12.262077300940064
6.8610926130422065 -1.8007154611368879 12.356524260575927
7.7808942476063105 -1.1782006015631834 12.325433108308397
9.115109523917432 0.08775750562144932 -22.49888009021838
8.442329681446886 0.11546309106647534 -21.27773154923529
7.924012055067966 0.14768392540003739 -20.524833175686485
7.404300058382675 0.17389127170091673 -19.773281616060842
6.87621160701851 0.19918943512971354 -19.028058250878672
6.344768511035807 0.22639753769597165 -18.28323280697501
5.81390422062425 0.25196564216216427 -17.536339546430252
5.2833918584207575 0.2740965393049835 -16.78866799101548
4.755511832862617 0.29287202699077886 -16.040435683518847
4.230291303831743 0.3123797071906599 -15.293302933158012
3.706714296428245 0.3328021031144261 -14.547810516303008
3.18504447303671 0.35419911557512307 -13.801040758519738
2.6665847039386117 0.38125202550200743 -13.050606955855601
2.1527537737520896 0.41402513295639276 -12.295764035491858
1.6422558135293253 0.4530269067664565 -11.537016124932116
1.136079848989895 0.5002725428254186 -10.776567624740101
0.6346771378758531 0.5545623175159656 -10.015998403168185
0.13066931286007222 0.6131852280705715 -9.25772968721321
-0.38410430508212823 0.6814755772040274 -8.50427274119641
-0.9170307230837077 0.7583341061542663 -7.7599109934967325
-1.4668996225665745 0.8254736845626169 -7.030512307644573
-1.9870669205111466 0.8360250330287935 -6.340096337812271
-2.4553236981725126 0.7937392546180135 -5.638430512244079
-2.8097884059153335 0.6714454545805989 -4.913291121111161
-2.992172303186184 0.4582600520864075 -4.1844039129934805
-3.044120812789242 0.19149224116909086 -3.443967946303192
-3.029688078079787 -0.080539757872504 -2.696888515436034
-2.9885328100792523 -0.32918128588776374 -1.9384347977040344
-2.943338385143508 -0.5144506278276557 -1.1639512127054026
-2.9034696797767623 -0.6122294880675515 -0.4044268658838517
-2.8725022798128004 -0.6110985050840678 0.3306218833140757
-2.8560604451918246 -0.4728210281182247 1.005883358581661
-2.8433739906738986 -0.21993570713535732 1.588718056857683
-2.8240913101738463 0.12484189632050863 2.0629072706944886
-2.800114213557757 0.5392009751251374 2.420642874403664
-2.7657126089571515 1.0194824909318991 2.7314582114039645
-2.715171600024066 1.5723904650893257 3.019860509967496
-2.644174212718209 2.2055054077224328 3.332505470604093
-2.5908332683015423 2.8543912665472773 3.711311970717772
-2.6475194079147784 3.279188346724102 4.10678123150454
-2.778387383338 3.4938743563764865 4.513524327275057
-2.9252576367166507 3.501392399130629 4.862455363389041
-3.0637298590058206 3.3556312791298164 5.212894394097247
-3.200465256920592 2.93377316873989 5.509450325644981
-3.3009224293130646 2.291802759396197 5.75391380383401
-3.3201260184315946 1.5122222416752789 5.9392287720473735
-3.237950327507064 0.6590558008253711 6.069769810692836
-3.0580181152149075 -0.19452636421123137 6.165392605681392
-2.7832629368153325 -0.9985237531975467 6.264003481901663
-2.4191447082647244 -1.714087266017252 6.3943009056122095
-1.981416136463788 -2.3254804133948657 6.5591775237111145
-1.4743124690135778 -2.8391745762589355 6.765033897713381
-0.9016340551611642 -3.2404102526690965 7.026574696889952
-0.27209519388409786 -3.5191847356309514 7.349052632293662
0.4015238912010094 -3.687263628319005 7.724023822388902
1.1207613645331675 -3.7508780435183904 8.135708841933761
1.875971731693486 -3.7248894286192407 8.565127880173902
2.6632080562949585 -3.615760161956983 8.98270691361281
3.471949809288094 -3.429346846661333 9.35926103974858
4.291678428007198 -3.1699589227561473 9.676169756123036
5.133827678516216 -2.8342609866474855 9.927673061732218
6.0208828141934045 -2.4037138501909947 10.111395351542871
6.9383720406387965 -1.8693131140480852 10.210983374784977
7.796175433019886 -1.2797201786688983 10.222476880787092
9.126719692099497 0.11374312961467609 -23.201888591197097
8.299622154680238 0.13301698537990775 -21.754158579249715
7.790863472204552 0.15886769482450394 -20.986388432003935
7.282100449047924 0.1779654325777267 -20.2188362574919
6.763092093953578 0.19506261214533313 -19.458582130223135
6.239098343941253 0.2136685378113331 -18.700635047470083
5.714807730423046 0.23144138255957503 -17.941513644428554
5.190473001718069 0.2470812808589336 -17.181815729735735
4.668018521232954 0.2605846917881544 -16.421480737432628
4.147642458730166 0.2748030458545751 -15.661789381451593
3.628710396464916 0.28977370568866095 -14.903019084971204
3.1113106855941277 0.30589880858639346 -14.143316148657677
2.596164994060841 0.3274265544314453 -13.381354082040993
2.084651440058158 0.3546936415096278 -12.616400244861492
1.5762341036682117 0.38857715800746095 -11.848359522498498
1.072217661901326 0.4309429173680597 -11.079318942788726
0.574755399332228 0.47929278057471075 -10.309731782854836
0.07682807276753195 0.5305248686001437 -9.541194883823804
-0.43208967133703785 0.5897444411817238 -8.777228767210522
-0.960494053735871 0.6560299056599037 -8.022272635505713
-1.5077260833310138 0.7139132517452413 -7.281930009214432
-2.0363694137222224 0.7269150498901676 -6.568793738985731
-2.5102330445732846 0.6888055758790473 -5.84237811612245
-2.8657802455023105 0.574742614853565 -5.087776152573879
-3.054340281822773 0.3762535366540224 -4.323225985717238
-3.108786674644127 0.1266497330983465 -3.5474649683046517
-3.0845448876310866 -0.13346528670837124 -2.76945427472946
-3.0213971272194833 -0.3786812860787976 -1.984367091390461
-2.945551093611221 -0.5752735993965179 -1.18295552398437
-2.871295395524941 -0.7010917617878011 -0.3829766253124569
-2.8088013161980894 -0.7373244689172552 0.40654647319316606
-2.7682839426285963 -0.6443958069873374 1.154590694925695
-2.7425169000269154 -0.4275467442771952 1.8248590133786922
-2.7218174068805228 -0.10427007995318754 2.3837888415581423
-2.706032503405059 0.3081633710419772 2.8192529541060805
-2.688421580349538 0.8044147412239164 3.194272586819009
-2.662089179932124 1.3823745884498368 3.5278388755097096
-2.622822462140615 2.03689263867469 3.857237058056761
-2.596354095352461 2.7168347579008403 4.2208833701729755
-2.655992552793807 3.246955722907074 4.6166401846667195
-2.7828754943100518 3.566591227357943 5.037587660371001
-2.9369081825691516 3.6543045633637403 5.425816994833406
-3.0767489624569144 3.558689211936648 5.821944341244503
-3.209580895777455 3.1789440439336394 6.152283946927761
-3.3033109631164836 2.5680631394124123 6.430253653504931
[...]
CELL_DATA 87
SCALARS quad_param_group int 1
LOOKUP_TABLE default
3
1
1
1
2
2
1
3
3
3
3
0
0
2
2
2
0
1
0
3
1
3
1
0
3
0
3
1
1
0
3
1
2
3
1
2
2
0
0
0
0
0
1
1
1
2
2
1
3
3
2
2
1
1
3
3
3
0
3
1
3
2
2
2
3
3
3
1
0
2
3
3
0
0
1
3
3
2
2
2
2
2
0
0
0
1
3
SCALARS single_component_feature float 1
LOOKUP_TABLE default
-0.10652219719789426
0.0817229244526895
0.01071682316767308
-0.06924419529068221
-0.020758949521178113
-0.09565546207648425
-0.09470907063541517
-0.1999930878179671
-0.2580303280370684
-0.1902465816679367
-0.21770682396075325
0.015956939035981325
0.03469508592895337
0.2909382784137381
-0.0820231753800142
0.10453549021467935
0.10228032204081845
-0.1984345092720738
-0.3200705985992611
-0.1303977691236826
0.18805207953488745
-0.006073714181336367
-0.05190044653134659
0.17458179853073685
0.008347972354367801
0.08573140460425425
0.1335254457812186
0.7612695260576128
0.20771118225891594
-0.21048791507403003
-0.13445757663718888
-0.12423214443287608
-0.1464158638565088
-0.016114791964261303
0.09973664006559704
-0.14694111219081696
-0.21139801409897827
-0.04766351073801292
0.055101400234845985
0.5398136565364506
0.8191824940524677
-0.14786526603791408
-0.02551591265730645
0.2727150528625316
-0.08942176693319885
0.27133554707098995
0.3151870646720805
-0.3406890199418459
-0.18577165961329653
-0.14976225780452118
-0.17137649175027225
-0.15184581697592894
-0.313094430274952
-0.24698240830061094
-0.20282574035789633
0.37821139623090694
-0.11893824033084437
-0.08939436344112178
0.08551899728486756
0.1582720081892412
-0.18827456224138295
-0.1772723411811988
-0.18408556544759913
-0.062397336897281906
-0.21124476874913814
-0.17963036705888144
0.018806342201211808
0.23942526099710723
0.0022287055563893488
0.10279925144411015
-0.1538130948110723
-0.06555011349672407
0.28648577082313414
0.3364607006383494
-0.17728694171891934
-0.18786580244746826
-0.06889706649383442
-0.11747686369395313
0.08716253614190285
-0.13505852557244427
0.029445225485574128
0.21489585234588357
0.0890970735429296
0.7178011718628057
0.08137464370804398
-0.11422216796394996
-0.06508533384462235
POINT_DATA 5568
SCALARS single_curvature float 1
LOOKUP_TABLE default
0.021487879972558882
0.024220498845433782
0.010395986207368983
0.008095048037223464
0.0036347269354599955
0.0012499106609302215
0.001099925314022085
0.0014696322141667664
0.0026341683279389786
0.004044448321603545
0.005982550548311564
0.008289952681083165
0.009692909560412325
0.008868292262239156
0.010314793139860237
0.014207353204096648
0.019030144040898048
0.025507750804964806
0.04503637274085514
0.08518491403785228
0.13512151837768235
0.1757919354188748
0.18610457962742497
0.15952458677191733
0.11407040214962437
0.07902054804992337
0.06802175883802174
0.08534414784314949
0.12438866491718951
0.17976502614949502
0.24405828673078253
0.2742204557626077
0.27594632684583553
0.24156524619508027
0.16835089223013863
0.1231164813063898
0.1617943877422818
0.32723080480521954
0.5153340685821166
0.681974761316454
0.6897424775545035
0.5994750930442121
0.4509130292021512
0.22666875519930885
0.1518037864068427
0.1328261544805449
0.1385540212225285
0.16230425255647027
0.20110020266720022
0.2343001500202454
0.24766740117005637
0.23616513926866056
0.20053339627088895
0.1553754324256826
0.1224642743744745
0.1066593026778428
0.10465050638140308
0.10962445438282863
0.11614947458569758
0.1221213278130614
0.0920833446385014
0.062045361463941406
0.03200737828938141
0.001969395114821415
0.046814628221860353
0.04785590250714145
0.006785932048903542
0.005949106649580777
0.004032533326961678
0.003507539210303026
0.0031184769975308104
0.002821533294820502
0.0037881961437373373
0.005811065686307671
0.007854077657357558
0.009925370049511086
0.010196917386047121
0.009322673630175913
0.011438626597203589
0.015041630467413657
0.01986077255641081
0.0369075102510979
0.05797234701676563
0.10379031793052287
0.17468527505803177
0.2108220397658279
0.21141083277693537
0.17475011173394064
0.12205754101546862
0.10216671875756687
0.12156349745432803
0.1829251704976191
0.24224881862513742
0.30190659965556593
0.3602120028775222
0.3429551655029505
0.2954301605497589
0.2098636879402357
0.12457226923273494
0.21597489582753288
0.39525388143891427
0.6493833407586859
0.7491132786166128
0.7628444634264051
0.6873861129534349
0.48187413450777977
0.33055586007639554
0.19048247777284794
0.1542387957592935
0.15389876896511392
0.16914250472450806
0.19119753316106247
0.2172547586874675
0.2319753812078366
0.2281332259637115
0.21231703862340967
0.17951385253917224
0.14354014368672133
0.12064470482411213
0.10945799410272418
0.1080582644366265
0.1081300962116063
0.10742143205399692
0.10664257147853273
0.07904639890241022
0.05145022632628771
0.023854053750165194
-0.003742118825957319
0.03917224018018946
0.04082193209352257
0.00767668887222344
0.00632169841453083
0.0034061167991256665
0.0022080132448384637
0.0022320017934344487
0.0022288887822889793
0.003229479362263455
0.004956337479766335
0.006963171600998217
0.009145813493694326
0.009812813697245314
0.008543415228639007
0.010386073901097323
0.014071521126736573
0.018980343805694883
0.03214674326295955
0.05259073057062851
0.0961589913261995
0.15864240549594197
0.19686338336400666
0.20137753170832676
0.16765596910738262
0.116898959162524
0.08997819921252022
0.0962396088821598
0.13939138391973085
0.19048975157991857
0.249712492413406
0.312588808231364
0.3167288114797333
0.290868748249449
0.22521306842333888
0.13404771546256175
0.15445818025473637
0.2776466026296389
0.5204305057965213
0.6685797068664165
0.7381122141448895
0.6959372484830653
0.5366755847313713
0.37658696383318735
0.20226644521569512
0.1512830627720197
0.14319436522954238
0.15471887740729126
0.17816102093196565
0.21016520359948077
0.23315367212834998
0.23642587777961463
0.22183299255488756
0.18727415052890498
0.1473455210890118
0.12066595886788849
0.10800133742584764
0.10663388384293508
0.10876295181034364
0.11088165489334965
0.11282555221969989
0.08427335938980206
0.05572116655990422
0.027168973730006388
-0.0013832190998914473
0.02741831776171542
0.029805864340644264
0.009367832142124659
0.007303982175690635
0.003301414468844862
0.0012941725225253495
0.0013335306691457153
0.001662907572747672
0.002770625600060114
0.004252891766524882
0.006212559891417574
0.008490807023006785
0.00966212830752354
0.008456726803608981
0.010019859213906109
0.013837894863347026
0.018714426074611705
0.027452462025993957
0.047261082725859965
0.08845936955158445
0.14220109284554866
0.18222192609800686
0.1907920525476166
0.16180512874181255
0.11425435455000335
0.08135317311643125
0.0752522254243214
0.09999840180642677
0.14275302649813487
0.19959302394931913
0.26415174749095977
0.2874042771729833
0.2814890282135378
0.2376976230312199
0.1540992877159651
0.1238976029388619
0.18563879676645487
0.37879666801495854
0.5636166382809147
0.7001953397051276
0.6932513352192023
0.5834969005710313
0.4284067208775314
0.21831470719980647
0.1508875989902153
0.13506792833054618
0.142592249398315
0.16652431404988255
0.20360756902306396
0.23406810033686934
0.24445721568184028
0.23183208910984973
0.19629772980060842
0.15261455838662413
0.12166916740193211
0.10694817863801778
0.10522766309012382
0.1093746024111007
0.1145367882939073
0.11928956157828206
0.08971053326400397
0.06013150494972587
0.030552476635447773
0.0009734483211696759
0.03489746927740349
0.03683565028342736
0.008190894146308365
0.006565427266865553
0.0032140211654193207
0.001699123018575122
0.0018600496860822983
0.0019904396062616855
0.0030244224241535713
0.00464198317023473
0.006630613611880857
0.008855502128550363
0.009717883916216247
0.008347187103051937
0.010075596205387255
0.013808521140345417
0.018719919645201116
0.03021529050718053
0.050402425221694566
0.09301786148344954
0.15196631189196186
0.19096210875170488
0.19712287496934822
0.16515220938609848
0.11549064816525753
0.0859820104375176
0.08706931041523035
0.12261347192950847
0.17031841479738596
0.22877139894420417
0.2927144120438631
0.3050678933943558
0.28764755631548516
0.23082905471467666
0.13864656456006091
0.1357610655288225
0.23332309162646822
0.4598713386381418
0.6278713825016704
0.7237252070093186
0.695909269186365
0.5571464252158287
0.39729768780460173
0.20825197631365647
0.1507442636112715
0.13946751636172489
0.14939213468365595
0.17316872182053228
0.2073924348204501
0.2335731218255409
0.23976537105280973
0.22587361881416054
0.19080440825161243
0.1493046835905759
0.12094178915892943
0.10751426908461713
0.1060538287401478
0.10901629741188884
0.11235186815347728
0.11543350839430375
0.08647047981463389
0.057507451234964035
0.02854442265529418
-0.0004186059243756757
0.023155839863664117
0.0257880825847364
0.010093644906128747
0.00783330347829939
0.0034991762582446424
0.0012241645055418113
0.0011303057563323876
0.0015173498259194432
0.002668271425610531
0.004096391695277989
0.006040634821238527
0.008340722883541948
0.009677398288134617
0.008730688195281328
0.010210158568604149
0.014080224172876306
0.018920792364766948
0.026057894783750188
0.04566732333138489
0.08611840488515539
0.1371464254500885
0.1776402942789997
0.18745504270473648
0.1601688480445188
0.11405344292540842
0.0795904110173834
0.0699641974306217
0.08936832853755032
0.1294954977645114
0.1853126222527262
0.24974301032494658
0.2780213781266957
0.27762448249531785
0.24055852826521515
0.16429755284255818
0.12297790808224475
0.16794885442620355
0.341438232334895
0.5291994967676114
0.6872651224885471
0.6908733893824536
0.5951937566501696
0.4445201405778437
0.22418352967257466
0.15146511074605515
0.13337679430718039
0.13962435292823136
0.16345457869123461
0.20179577791801012
0.23424735551583253
0.2467684329926303
0.23492581638135648
0.199299468831857
0.15455269398141602
0.12221216087526697
0.10673072797635796
0.10481343545409855
0.10955387480674177
0.11568546091656987
0.12130776421480259
0.091402211290232
0.061496658365661414
0.031591105441090825
0.0016855525165202362
0.023305378645549654
0.025928869288955075
0.010067385791003018
0.007811963761175637
0.003489187623658575
0.001223750769868703
0.0011347652976400945
0.001521919716116936
0.0026714673419045588
0.004101267139123921
0.006046051780326584
0.00834545530288567
0.009676300934374568
0.008719247644544525
0.010201630640806899
0.014069766577422814
0.018911804773195883
0.026106473711011557
0.045722969217819334
0.08620053275271194
0.13732429834037457
0.1778022818219048
0.18757327469380378
0.16022569358460167
0.11405474362860862
0.07964433552304145
0.07013979012221203
0.08972844856421917
0.12994972929481335
0.18580475669390936
0.25024484812690073
0.27835411877891886
0.2777683315358005
0.24046624673719513
0.1639397318689736
0.1229783535855927
0.16851406165697116
0.34270766091929616
0.530416350957903
0.6877269152055985
0.6909678603867444
0.594806392014994
0.44395633475655527
0.2239689556071498
0.15143838549774177
0.13342874664952742
0.13972171382667242
0.1635578590138628
0.20185771324359747
0.2342421581061667
0.24668869365818077
0.2348169379111655
0.19919195002037193
0.15448171971644598
0.12219098471922243
0.10673744138363647
0.10482783312020202
0.1095476408755388
0.11564481165656083
0.12123644696127163
0.09134248089154497
0.061448514821818304
0.03155454875209164
0.0016605826823649777
0.025499670765955877
0.02908060303881152
0.013014083724026869
0.010689498309182085
0.005624846377614218
0.0023108754362532995
0.0016843880058921017
0.0015843983503369308
0.0025458619847500965
0.003920619509703021
0.005814707831579396
0.008140924834657063
0.010040743013495976
0.010300379091481317
0.011503298733917727
0.015612736943357982
0.020227677554427816
0.021522348085266367
0.04037379648448217
0.07803077666024107
0.11917880439598606
0.16077006552928116
0.1750200104305306
0.15445966632950042
0.11654872311283959
0.07770575256603697
0.0566787029691096
0.05886273506794327
0.08817549017585935
0.13949695639369025
0.2009610280785435
0.2431935332161081
0.25992807550153413
0.24658872216092026
0.1983714975048208
0.13211639546130727
0.13000701160810166
0.23239125359283347
0.4070587043545508
0.6373609638905335
0.6766986684990485
0.6244165208176379
0.49827346016963997
0.24933303889850006
0.15700976225390662
0.13144315317428296
0.1327997202910893
0.15498083732361656
0.19618078098275227
0.23415366630165912
0.2541017877617617
0.24594384625592167
0.21101531811891439
0.16297135425718218
0.1252698097146583
0.10645497313631584
0.10343182931930325
0.11015824968847877
0.11993160048793282
0.12871802417936212
0.09758932677710583
0.06646062937484953
0.03533193197259324
0.0042032345703369445
0.042630160785661675
0.0467179911489783
0.014621597822562352
0.012290476464387776
0.007052094728992922
0.003180669578643088
0.002270043085244548
0.001890386882572617
0.0026660654177469963
0.004126087123831704
0.006003582430814258
0.008303417299985441
0.010433485121414392
0.011288486916417546
0.01238089662421016
0.016642965871984355
0.021095050132309896
0.02071617018518455
0.03915287593112154
0.07535192955212329
0.11156772386544153
0.15221884638833624
0.168604421498447
0.1515906549294387
0.11958925917704258
0.07953229397887863
0.0537620113293211
0.04884155953820114
0.07189885724129677
0.12048862768216739
0.17908645356774522
0.22555926252481934
0.24906862281967898
0.24696407663558126
0.212652048808684
0.1507689868194765
0.13305366982856606
0.20381827183771625
0.3595911740492267
0.6096455028260673
0.6654495135708798
0.6303665291271306
0.5194427219113024
0.264028375256725
0.16205336800489922
0.13327260153285547
0.13195930085966714
0.15244347417274445
0.19384815995214663
0.23341880317976585
0.2568988778968905
0.2511583389229305
0.21729757158473048
0.16805349833255284
0.12752222883878392
0.10666746041057819
0.10283762915166118
0.11042761447502532
0.12209052505000827
0.13245800853776066
0.1006979897541245
0.06893797097048834
0.03717795218685219
0.00541793340321603
0.0231885325616875
0.02668265921905875
0.01274181055888641
0.010417230037240672
0.00538702979393848
0.002168343230656606
0.0015905002711341665
0.0015404639410279046
0.0025379741067822646
0.003906251389154052
0.005804012696400531
0.008131985677465974
0.009987245035853186
0.010139241413430783
0.011363936726343431
0.01544897271149811
0.020089266746627234
0.02184910399224108
0.04077023270180109
0.07867823035886293
0.12069313692239032
0.16226374495969997
0.17613201222586866
0.15495763468406926
0.11611837410519678
0.0775695840027037
0.05744578113389998
0.060985243532614974
0.09134958892438343
0.1431087571868249
0.20498430477646404
0.24628036786062749
0.2617013012950071
0.2463398827744587
0.19565518130043502
0.1305827128250432
0.1317312811448455
0.24000737706395406
0.417187732261593
0.6419722437360649
0.678339326343905
0.6227475394318674
0.4940630424689169
0.2468899226901209
0.1562872214888029
0.13132189229874008
0.1331284359560537
0.1555435325002869
0.19661627726898276
0.23422494616177297
0.253541438195783
0.24500169417263534
0.20993937691571085
0.1621413947435011
0.12492737530349435
0.10644355827346147
0.1035436471630979
0.11010851000853975
0.11955479668171297
0.12806345586662113
0.097044313152558
0.06602517043849487
0.035006027724431746
0.003986885010368618
0.0302236995928071
0.03396122315351891
0.013507476573023744
0.011182038690335535
0.006059893874173085
0.002573903829490289
0.001859698399518239
0.00167110370060703
0.002569719618763173
0.003962221089171908
0.005850268943037147
0.008171216884958903
0.010147515861466743
0.01059729800751377
0.011762966521514498
0.01591770196218574
0.02048492948608076
0.021028944612728695
0.03975391896155505
0.07695948071286231
0.11656081739701739
0.1580980988529084
0.17302466102261768
0.1535677088984569
0.11740324434369047
0.07808674091343912
0.05549835581848993
0.05534273945963476
0.08273668611628048
0.13325322645079893
0.1939137461766117
0.2376753700927349
0.2566624515583755
0.2468972638618531
0.20306915382310797
0.13667503925499133
0.12914565053014732
0.22122651928483264
0.3907006071704786
0.6289645323067968
0.6735387613678442
0.6269401793551371
0.5054493996442289
0.25379965833267054
0.15841928026020294
0.1318071498911692
0.13234766383581487
0.1540646428220133
0.1954255920724238
0.2339869325584994
0.2550534978463068
0.24760779982345452
0.21295667406689328
0.16449847161512526
0.125919452381918
0.10649404189369259
0.10323756291492275
0.11024527484086345
0.12060592773222009
0.129888059035256
0.09856282605669676
0.06723759307813754
0.03591236009957831
0.00458712712101908
0.03983224979777248
0.041434482750312356
0.0076007124109197105
0.006288688586715155
0.003446245454341916
0.002300340328892457
0.0022953438557790314
0.0022701689263021387
0.00326637928993351
0.005012874619312149
0.0070226360137587325
0.00919775744252793
0.009833129779094165
0.008588285010032323
0.010450426473038966
0.014128597697929833
0.019034870258136487
0.032478852229372634
0.052966589210612834
0.09669606746932494
0.1597797005488061
0.19786308467992011
0.2020971294582643
0.16810502021028012
0.11718217171252035
0.09072295478445319
0.09788483300362057
0.14234036450065374
0.19402023902094415
0.25334304380249995
0.31598665415535515
0.31867645766921054
0.29133802137473064
0.22419175434434746
0.13335570138269856
0.15811100528307365
0.2856481143633859
0.5305664938273726
0.6751554775563644
0.7403730416761127
0.6957656710156487
0.5330202146672574
0.3731332733658898
0.20131429371812665
0.15142013245182523
0.1438786086379532
0.1556726291897859
0.17904174036320883
0.2106501288799481
0.2330772222933171
0.23584871557411524
0.2211485191017922
0.18669066424805736
0.14703487461429893
0.12063558462852021
0.10809177009543844
0.10673365217194881
0.10871916440658194
0.11063301241998615
0.11238340179792235
0.08390040646415553
0.05541741113038871
0.026934415796621897
-0.0015485795371449201
0.04206795205395762
0.04350259592500588
0.007342501776637957
0.0061784802963024315
0.003598573256360882
0.0026372600896178056
0.0025247443007409276
0.0024211710679027517
0.0034043299724177503
0.005224133990555171
0.007244055824712396
0.009391278217398573
0.009916307857725919
0.008768542390569855
0.01070132989712336
0.014354998373308649
0.01924696688450136
0.03369128029528109
0.05433798075092193
0.0986501259852836
0.16390716957038515
0.20147791868502243
0.20469707611677118
0.1697978919953134
0.11831537338649148
0.09358001892868933
0.10405281738895984
0.15324021730597498
0.20703764492246496
0.26664073137318817
0.32831849407723207
0.3256403049306714
0.2928493222823643
0.2203533100721186
0.13086462960101117
0.17230003340442024
0.3153595360993432
0.5663630320615043
0.6980005815215329
0.748015188536761
0.6946475736055272
0.5194016670554581
0.36081900878611567
0.1980156926898678
0.1520185799505271
0.14646882256066063
0.1592336103279703
0.18230213784768698
0.2124364955269477
0.2327894696829081
0.2337374570304232
0.21867566675616482
0.18461633339933073
0.1459617442605623
0.12056399871600873
0.10843723005393154
0.10709763257060186
0.1085587968038962
0.10973497990114237
0.11078376896759987
0.08255003267213085
0.05431629637666183
0.026082560081192807
-0.0021511762142762125
0.05399232455694405
0.0555671864101416
0.007717995690598563
0.00752612792626096
0.008419507330596083
0.007545910608869562
0.005990118229643402
0.004870839369973286
0.005950544513475731
0.009106434207707346
0.011232132833151392
0.012909518939192231
0.012530141621757925
0.0128781433339109
0.015861538191036587
0.019446771927205602
0.023375881299206043
0.054455991000107055
0.07783117251308301
0.13116051636041817
0.2299182171424392
0.25667091665834046
0.24536001712446528
0.21132668817238895
0.1553650483642081
0.1660843799511855
0.2325818163686711
0.3397753622912027
0.41656807828826925
0.45843444178348164
0.4871560177089574
0.4071295572156273
0.30377644065232917
0.2142999841167995
0.15976668602268218
0.5297067764670206
0.6860273147374552
0.8112778427529029
0.8315876328738557
0.6750506475964424
0.5305233394325638
0.3032908252450478
0.22316103089834177
0.169497417670626
0.17397259345058963
0.19833259982850393
0.22445386896186234
0.2386001610145347
0.24200101758418863
0.2267722372678202
0.19954642382886414
0.18296894054566432
0.15981561983401288
0.13806241084917784
0.12567336952404157
0.11666459962839741
0.11293733297110488
0.10578323031464937