# vtk DataFile Version 3.0
vtk output
ASCII
DATASET POLYDATA
POINTS 5568 float
9.125743796233591 0.1207643013546227 -23.318092301473648
8.27249813234791 0.1398652061486001 -21.830320227312804
7.766177851656597 0.1642919574726769 -21.059720368267858
7.259897142537082 0.18178768805089032 -20.289278177261977
6.743077752128752 0.19708307934782351 -19.52630528198741
6.220996012551763 0.213846122935081 -18.765988888229153
5.698417193704145 0.2299508588021175 -18.004692841486513
5.175703158465847 0.24418256971219582 -17.24286528919087
4.65471665109122 0.2565306185717513 -16.48039355105038
4.13569044927301 0.26962425811798646 -15.71848587504662
3.618080593874906 0.2834972002720949 -14.957358510173302
3.1019512616338982 0.2985818596874204 -14.195352008455577
2.5879584290066946 0.31905616847214846 -13.431304164548095
2.077469272694944 0.34527708267912827 -12.664484919465767
1.5700612569734609 0.37821084740704203 -11.89470300389157
1.0672072717956143 0.41972448861340717 -11.123976705678064
0.5713019436860078 0.4669801603929253 -10.35258816452138
0.07522932098600543 0.5167550474576511 -9.582064539598612
-0.43204654983824975 0.5742142019707966 -8.816106326930267
-0.9595019001876608 0.6385294066190086 -8.059400589890057
-1.5066347759572276 0.6948874892301964 -7.317659886456427
-2.0377068345783576 0.7087371922340063 -6.6015968576882695
-2.513960551788082 0.6720779658357955 -5.871879133922839
-2.871424665468629 0.5609990776377685 -5.112670356622022
-3.0617317305049023 0.36711771880754884 -4.34128439829474
-3.1156416307787405 0.1222322637567006 -3.5589737125187364
-3.0883868066381863 -0.13414277284806986 -2.7757022898153894
-3.020254593092059 -0.3773392425973096 -1.9868463540761097
-2.93810043568594 -0.574930166858132 -1.1814490217444211
-2.857026405491918 -0.7044545501511805 -0.37522612598920113
-2.7884059965570143 -0.7465423068146307 0.42273232276008743
-2.7436372146234422 -0.6618766497888278 1.1829958896678114
-2.7164782131985934 -0.45216793147689904 1.8682528950536619
-2.6973949628700327 -0.13426303993234856 2.443734321339092
-2.6860697451259545 0.2763948883330565 2.895901772313163
-2.6752560773533816 0.7742164413261003 3.2846578744419075
-2.6571171672301674 1.355198595483304 3.627570938557849
-2.626907598601133 2.0118304129463014 3.9605448673674526
-2.608057196210511 2.695057696693141 4.321712060258909
-2.6711579440466737 3.2412315167793784 4.717091723751694
-2.798718060613935 3.574668977653821 5.134683175129595
-2.9523843280696105 3.6772664036502056 5.524245226393556
-3.0908495330136887 3.592264458309409 5.9290837247522115
-3.221923130163171 3.219312422850428 6.266035547546018
-3.312994289527638 2.6125707845455235 6.549569846289722
-3.3309335584430935 1.8549044369328012 6.772332876818602
-3.2608620092009013 1.0094849581907668 6.934751791254556
-3.1029054330011476 0.15052887328424702 7.050574013879001
-2.8556647404122515 -0.6712490142570492 7.153180732604197
-2.5167549885076603 -1.4220607776661327 7.267637543541988
-2.0932478361254914 -2.0811514147634536 7.403739421259492
-1.5873216145534896 -2.639736492299583 7.575180125432807
-1.0075611664057362 -3.07407353152941 7.80215657908982
-0.3701216855934869 -3.377061030598824 8.095357187204554
0.30709806886433444 -3.5643889393326575 8.448626585307613
1.0284541005868666 -3.6476803499383923 8.851695014318011
1.7850533960429924 -3.639099025953624 9.284990108359912
2.5740937551542884 -3.548527905575461 9.717480451941595
3.3834000855042046 -3.3818932839716895 10.114001020700977
4.209217738322644 -3.141282262451937 10.453153301743422
5.060296272673586 -2.821112033939749 10.72317118696418
5.969907831059102 -2.3975688645569413 10.919712648222415
6.9160356594489025 -1.8603511570917224 11.017464405021231
7.799810262727357 -1.257041338426823 11.011242788176142
9.1064026327705 0.1427356907152361 -23.389694095101476
8.242624686625529 0.17088047922417832 -21.872381188641263
7.743395947577786 0.19205459590484544 -21.0978222219568
7.2430553379991744 0.20583110059763163 -20.32425645575057
6.732087189345808 0.21716552207198708 -19.558302494048927
6.215629111661069 0.2301040824024819 -18.795394089276385
5.698182614453352 0.24275597261761594 -18.031904838151625
5.1803704640474155 0.25397724671201205 -17.267972935060772
4.663999079750994 0.263799831267671 -16.503417813902534
4.149370356560487 0.27460604888796547 -15.73935443959046
3.6361754325933964 0.28655975163187986 -14.975854336325096
3.124491956383158 0.29993762881651764 -14.211476301378028
2.6151313532479863 0.31888315603816925 -13.44507123200306
2.10942649915697 0.34360423696942716 -12.675915686694248
1.60694671568334 0.3753031437635042 -11.903789497871264
1.110016531662384 0.41601606554914566 -11.130348794874852
0.6209297039375274 0.4618899968419417 -10.355895408938405
0.1315151802752394 0.5092639499525151 -9.58237137828241
-0.3703517723682717 0.5639726831650724 -8.81365549095327
-0.8958600912735037 0.6256616017622153 -8.056025061771741
-1.4450669794987148 0.6811457074917489 -7.316205823878957
-1.9842848569475615 0.6983514155494893 -6.603912678683514
-2.471531424603972 0.6674355910388792 -5.877509167818664
-2.8415384534698536 0.5685545668770241 -5.117528170849106
-3.0375408260275782 0.39129015396420097 -4.336491141877166
-3.084903366874178 0.16116446227250691 -3.5463577361116543
-3.046976077696117 -0.08169975392321166 -2.759445492633481
-2.9675053595463985 -0.31434042539283785 -1.9728931239071117
-2.874181837094343 -0.5065952494998502 -1.168836580872273
-2.78285047325081 -0.6313328162048982 -0.36329477550485345
-2.7060441091125726 -0.6731740845880014 0.43334994273926564
-2.65833981817101 -0.5961006393188035 1.197062194771779
-2.636238936426167 -0.3965163219746153 1.887873471981527
-2.6303917142148716 -0.09333097440568966 2.483532109750289
-2.6417950505173264 0.30607134131675745 2.966172848069821
-2.660620729375777 0.7972378919322278 3.3806837004473067
-2.673740973342081 1.3722680577619504 3.7400029665168946
-2.673019234963488 2.0205715041458494 4.080026921229869
-2.6788485634153805 2.6928443584717527 4.4397398376059805
-2.762930069532903 3.230911130048354 4.831809278678236
-2.8980547712273608 3.538731885517498 5.2066031442102965
-3.0390280833836383 3.6526320505241703 5.556177611899473
-3.1648319291554188 3.5880484670660864 5.967992872267297
-3.2868190366211216 3.2209184203216954 6.314297681874004
-3.365924586981383 2.6119843141313988 6.601337001165855
-3.3712501056492483 1.8484430723374756 6.823268700289276
-3.292860106012931 0.9970590306458854 6.980224063685783
-3.1314164106056204 0.1322765563699737 7.085174959221361
-2.8845862155120954 -0.6948184201931756 7.172479760654132
-2.5446364429509942 -1.4510847208428674 7.2693404808988955
-2.1188889964566164 -2.110815248232154 7.388270903245669
-1.6092219294318648 -2.6657217415095213 7.544460225135278
-1.025058284614639 -3.0908741357050404 7.757900027831137
-0.38187531838390343 -3.379370813401666 8.04349905029353
0.296637832571932 -3.551167442938434 8.39312001916856
1.0185517786101432 -3.6208011668265274 8.795753393962583
1.7739947090795227 -3.6024859811438676 9.22944475679944
2.5634481730430787 -3.5069750610310453 9.663469451373784
3.376779815687476 -3.3386106610048203 10.06167595623753
4.208742950150269 -3.0975963342831667 10.401089922119537
5.064390730346209 -2.778821599098072 10.66985083596045
5.975819041469925 -2.3576796654610064 10.865267535449995
6.921767540146311 -1.8222952867938764 10.965502583506812
7.801950468040771 -1.221480899205969 10.96233843068312
9.034068385083485 0.22490675157573317 -23.657478496230887
8.13018922800225 0.2882951506537124 -22.02666312667235
7.657064097075936 0.29733153602067414 -21.236694838302732
7.178608586762963 0.2972230542187617 -20.4509900622623
6.6891799446769 0.29377394574576987 -19.67344117546348
6.193429394184213 0.2924484636520457 -18.900451468480316
5.694907185312792 0.2922244150890744 -18.12845161592521
5.195190836395853 0.2922176053152061 -17.356382393970648
4.695879222570862 0.2926170908301985 -16.58380512938909
4.197518243939359 0.29488484316066954 -15.811464338483773
3.7006642420040468 0.2996720435468327 -15.038872686006732
3.2054399530769766 0.30667765850663387 -14.265411662463155
2.713226454132315 0.3199191838536226 -13.48997201218049
2.2252285101497833 0.3390475436081628 -12.711852514407697
1.7409890393553245 0.36614606509718717 -11.930728329174674
1.2659500398285943 0.40388838067086574 -11.146818541632774
0.8020146259490268 0.4446340492446372 -10.36047277365769
0.33714462344398405 0.4830791951196258 -9.575287705277438
-0.14475641136961215 0.5275439115855483 -8.795925342927232
-0.6630528251488031 0.579430094500567 -8.034753333234741
-1.2200587646102108 0.6316533041519405 -7.302048196377722
-1.7904393180094407 0.6615029896521675 -6.603263059737732
-2.3200535770819233 0.6522317222116013 -5.888130427207616
-2.7389538741765325 0.5993827804343618 -5.122702622718418
-2.957595258405867 0.48500741490977217 -4.301406487688412
-2.9803620648562963 0.30983577381247085 -3.4785071351286456
-2.902229984453384 0.1166957223041524 -2.6747578567816506
-2.7805107468719483 -0.07750146353009377 -1.894462658773773
-2.6453127079459158 -0.2502146456537135 -1.0938367441947956
-2.5154372314012736 -0.35724801159179487 -0.28948051693797283
-2.407966868664414 -0.3982076444971712 0.5030069224512408
-2.3491306810741306 -0.34972822497651745 1.2804918718668732
-2.3460810950238686 -0.18787951958718846 1.9940539425856698
-2.3922233523113245 0.06095078311804503 2.6760199237763636
-2.496497377893354 0.4242399736308038 3.2945745648147042
-2.6347214631570117 0.90234145808508 3.8238812191588702
-2.7692352492365764 1.4679520528377843 4.255270359750585
-2.8788394893852542 2.095460436700246 4.627111940941307
-2.9749007079611216 2.733749964301606 4.984744932187081
-3.1372757508577784 3.2468657505550222 5.3682282908445424
-3.293587272384484 3.4724786527425597 5.607584543724112
-3.3957023599487606 3.6211050128489304 5.834692031960861
-3.476639425675027 3.6328824418571686 6.285169164210086
-3.5652652284101958 3.285195038137472 6.668970129666621
[...]
CELL_DATA 87
SCALARS quad_param_group int 1
LOOKUP_TABLE default
3
1
1
1
2
2
1
3
3
3
3
0
0
2
2
2
0
1
0
3
1
3
1
0
3
0
3
1
1
0
3
1
2
3
1
2
2
0
0
0
0
0
1
1
1
2
2
1
3
3
2
2
1
1
3
3
3
0
3
1
3
2
2
2
3
3
3
1
0
2
3
3
0
0
1
3
3
2
2
2
2
2
0
0
0
1
3
SCALARS single_component_feature float 1
LOOKUP_TABLE default
0.0012640294547174163
0.010225183764894206
0.04373911154234476
0.05880653152665813
-0.0309269786546398
0.0012133401673453828
-0.05992593687053159
0.015385816421599332
0.009426629470029521
-0.051212101373310115
-0.006254808911903012
-0.021176450492128837
0.059049255990928765
-0.031115792134296445
0.04316149731103937
-0.03456071861179308
0.0487084040065877
-0.030028657493659235
0.006804210874943005
0.020315468229315244
-0.02503436897402003
-0.087414646269402
-0.0233895307063742
-0.019440862861178167
0.10898389004483193
-0.04497265604353614
-0.010388838538732112
0.10150174888886643
0.0346651124198266
-0.10300681734879576
0.07540825119462906
-0.014880734966628742
-0.026995655439688977
-0.0742408879374967
-0.007610775558072269
-0.030698312476899553
0.0011563616848683997
-0.017413060739607588
0.03133588004279373
-0.06733335409301404
-0.019915784310754428
0.012949496166654499
0.03697042820857713
0.006146119329912068
-0.005139221081115478
-0.057540632751279894
0.036109282046044924
-0.03110894552591693
-0.01075532658571955
0.00044403584019766726
-0.0041845070562149325
-0.023158598083216436
-0.031209387104085568
-0.048250378075570734
-0.004728422531384178
-0.011620495629982047
0.014050369074316341
0.07668662972488222
-0.05046789797695202
0.036041843644223165
0.04065016524990897
0.0524712372701742
-0.05471962801120169
0.030115058003185903
-0.024741221166018346
0.010643908292730972
-0.004322919482780296
0.06014778145741044
-0.004634660208271356
-0.029625442462661557
-0.022935831379359794
0.009161957646234582
-0.07773938120514032
-0.04195851352914372
0.03251765000378706
0.022355583381249072
0.0090458818234396
0.04206005396875649
0.004251900190633529
0.03803504134150405
0.06440016730598544
0.012640176923955602
-0.005686207089650088
-0.033925501191978145
0.03671940056749856
0.00033623653388343416
0.06028972190274107
POINT_DATA 5568
SCALARS single_curvature float 1
LOOKUP_TABLE default
0.03735704759705417
0.03912306247410516
0.007863537752105715
0.0063802028907698986
0.00328531947265227
0.0019614007379803694
0.0020786085586313287
0.0021459221719249194
0.0031876201646634694
0.004879829392978522
0.006878009096274341
0.009106225526121735
0.009842209355924681
0.008483581366223349
0.010308850088224556
0.014129294297005325
0.019199912750471705
0.03165371475234266
0.051791217170050606
0.09462541934542952
0.15583245245813634
0.19508115725484546
0.2005654016854518
0.16766574748506397
0.11693851104536568
0.08850268081216524
0.09249741929612915
0.13252437245470255
0.18246269013700703
0.24023565973279185
0.3028121578026485
0.3106834735313634
0.28861024936939644
0.22779616055599664
0.13668247331748093
0.14821767734169272
0.2644583860718877
0.5008613068951635
0.654868073841421
0.7339572926308198
0.6956677105185737
0.5438388452296209
0.38531769711750563
0.20467473926236976
0.15072123549987781
0.14145208048999117
0.15276135096226207
0.17678875214802628
0.21020117510316272
0.23478835535503345
0.23900581853046948
0.2242436643868833
0.18886037785067217
0.14765401324216682
0.12009708053537345
0.10721705376393524
0.10598454061790936
0.10861841839121407
0.11124944994175026
0.11367865216335932
0.08501496706733205
0.05635128197130479
0.027687596875277526
-0.0009760882207497379
0.034581326427621524
0.036479558487054316
0.008208599860966882
0.00641082894434399
0.0031032547501625703
0.001656085319992534
0.0019167413211312663
0.002160094323151531
0.003420998641509581
0.005135835933502152
0.007113503151805046
0.009565894139757338
0.010348488147743147
0.008690414582275928
0.010682985597810538
0.015349718133503462
0.021578503675244828
0.033180901167610244
0.05176509730251122
0.0917468027246688
0.15250485964709765
0.19685657370781723
0.2051843440748593
0.1741146407947993
0.12106261081117586
0.08842996573840113
0.08917495714458094
0.12572328338053781
0.1758775865041874
0.22525528748765353
0.28259912612487814
0.29603837389902726
0.2795785329469387
0.23132091634371385
0.14455947324120388
0.15340225849552538
0.28480251063187306
0.5069465411730593
0.6532649555420641
0.7374499287541009
0.6906586018790278
0.5440991248931181
0.39730920961449345
0.20775753987630008
0.1486048055756939
0.1387888385239154
0.1523573549695431
0.17948451819907166
0.2172597956918187
0.24520317185972004
0.24902191657560832
0.23147983703634073
0.19163691118809062
0.14529281274057018
0.11557057056477722
0.1029637057656931
0.10286018772325795
0.10701436231199699
0.11030166160167985
0.11338029398359921
0.08492220917423178
0.05646412436486435
0.028006039555496923
-0.0004520452538705061
0.03022951690412839
0.03261875137725583
0.010818109185773049
0.007749303492190698
0.003810569215137077
0.0020068282206079785
0.0019533113592333303
0.0025156754118522548
0.004431146456303178
0.006129769119615556
0.008017274596125007
0.011383272982235829
0.012617993519315848
0.011132014283631591
0.013880364969410232
0.02168874515852207
0.03244589361779699
0.04346080654157752
0.05619308732339059
0.08621532259649761
0.1448870715843452
0.2035167887692009
0.2221426056330383
0.19876238861301082
0.13693641124021025
0.08958596598158837
0.07856818836990859
0.10243986215005166
0.15531950206462933
0.17976547106799395
0.2193452561610203
0.24625310688216784
0.2450745974924214
0.23628397834532622
0.18119112298357637
0.18411597588108738
0.41106095302352663
0.5322577809687662
0.6454290345703405
0.7516931224244185
0.6474127245073326
0.5561984124762064
0.4445724971433884
0.22067448183710037
0.14361402930587014
0.13162124695648258
0.1519478965793059
0.18895066057364332
0.24196324242959724
0.28181230366137466
0.285180336916554
0.2579732225946276
0.2020480040179446
0.13734490571339322
0.09951122022537544
0.08800079713148352
0.0920286972502335
0.10174304378894775
0.10715867759992828
0.1125000824782748
0.08477356904600997
0.05704705561374514
0.029320542181480308
0.0015940287492154787
0.03343733505986991
0.03604405967039121
0.012137985422633626
0.008643785190083825
0.004744770592280347
0.0028181301283228505
0.0025929253018732897
0.0030432783166054298
0.004929525276028702
0.006586135701647647
0.008430752788979569
0.01223015905775911
0.013764909310588939
0.012723487232880129
0.01585795598170432
0.025071027417361242
0.037878067727665624
0.05008890215650157
0.06022051159729594
0.08624057044671896
0.14368980998544537
0.2062945629944549
0.22926742499260544
0.209542974907359
0.14402209180866316
0.09069820202051253
0.07475675309346627
0.09359140553217099
0.14865398566965143
0.1661519815917827
0.19954553223213428
0.22832262652028756
0.23036185080900032
0.23401308443979824
0.19371471146759203
0.19592427124717812
0.505317994039902
0.6330197471561061
0.7159386732921389
0.8117369717989545
0.6763021727514112
0.5650148466645089
0.46651915049977954
0.22705831580131045
0.14291745485079835
0.1299023836613885
0.15236629558486042
0.19285514632623843
0.25192942991628214
0.2966414130196543
0.3003037489867762
0.2692348478087067
0.2065614589630112
0.13424095845882375
0.09285872105459801
0.08183650694302239
0.0876297118246876
0.09976509369102264
0.10595537091863305
0.1122359235887122
0.08481786642661697
0.057399809264521734
0.029981752102426498
0.0025636949403312626
0.049107996581557754
0.05039902399995841
0.007974287157560225
0.006901030823536056
0.004576589089456618
0.0037997775239483255
0.003037703323318272
0.0024790904061773224
0.0027248671732240876
0.004232483892574532
0.006070652887759823
0.007640626887109449
0.008559368313249742
0.008362533416522926
0.009778904645155784
0.01061991449290687
0.012771046574498032
0.030355566057194014
0.05588268701704358
0.10912226222921481
0.1710055651531268
0.18928323695813437
0.18455538587612202
0.1460853600938917
0.10294973255796178
0.09009913214295827
0.10575586893567668
0.15805326036307699
0.2086850798306246
0.2977360674278087
0.37465689207010894
0.35884308987699765
0.3141999439592588
0.2082147172596135
0.10305469910156474
0.1264322301772064
0.20817911991575236
0.45146045673084845
0.6496588636503855
0.7146726098295868
0.6958221800620106
0.5551065966663384
0.3449646255330442
0.19503067649286426
0.16065785624159135
0.15315977692220334
0.15496559616806657
0.16659692714032015
0.18393625464501173
0.1963312543434824
0.20296404642214477
0.19857063797657026
0.17936428837468602
0.15690228555968258
0.1369223769561984
0.12323722354396068
0.11794690070314685
0.1150218580645762
0.11501833436457146
0.11494532877744698
0.08551150360328005
0.056077678429113126
0.026643853254946198
-0.0027899719192207295
0.03737372707433276
0.03913899357875817
0.00786245213010648
0.006380692378964697
0.003287018701186147
0.0019638360105125765
0.002079602397227758
0.0021459086729643754
0.003186359541539719
0.004878402619527087
0.006876687275457893
0.009103671027114124
0.009839502822399177
0.008482643907839397
0.01030702028696871
0.014122670951000374
0.01918690438804401
0.031646445126190616
0.05179269288841852
0.09464318504670832
0.1558526153750153
0.19507123211856722
0.20053934191765943
0.16762967978278215
0.11691543286586296
0.08850358155337612
0.09251675425132333
0.13256333753324498
0.18250100594681837
0.24032270695123145
0.30292841482120847
0.3107663661930986
0.2886600929037751
0.22777365866064797
0.13663469012513998
0.14818629431590916
0.2643497391185742
0.5008143661174314
0.6548710264488257
0.733933485537321
0.6956868961129032
0.5438420579590445
0.3852507874864949
0.20465778416186337
0.1507340853096049
0.1414679682621357
0.15276394592427195
0.17677331848698943
0.21016083403075198
0.23472890777618255
0.23894896903278276
0.22420271824548596
0.18884476951264492
0.14766764444473804
0.12012291359836892
0.10724138659694182
0.10600247558529213
0.1086277177583847
0.11125493829534804
0.11368041063296415
0.08501555116891554
0.05635069170486694
0.02768583224081833
-0.000979027223230275
0.05996454954507541
0.06083213011506113
0.008904689431807881
0.007413408150204491
0.005773417358049693
0.0055776208880603225
0.004473832320994542
0.0034223456366227058
0.002956459465068337
0.004207440484522743
0.005423634248312771
0.006777713653215894
0.008299671966860205
0.009148826589640493
0.010563714692925908
0.010965338660692759
0.014464813500651407
0.03806648520918332
0.0679665506999596
0.12792783870431917
0.18753167669526224
0.18543577373628384
0.17199715186717024
0.12969509731195242
0.0916543857148724
0.09293389121092749
0.11858751294533132
0.1817037039949108
0.23427199453317196
0.3457643106284666
0.4216853525812497
0.3844534354706268
0.3195274855319451
0.19102590451345455
0.08583523381821534
0.11823603425758827
0.1851447351543571
0.3936478594886892
0.6384698998119002
0.6940156850195702
0.6834753393662463
0.5674435548995218
0.3120676364943327
0.1883196131918744
0.17203131281475856
0.16576061195526523
0.15749720629013336
0.15683136598844813
0.15988732190756438
0.16181408469097971
0.17182944412570716
0.17688625115802872
0.1720064081032934
0.16612488180646548
0.15257608437041018
0.138529288757766
0.12966180231479332
0.12161502531206009
0.11888677160123413
0.11631790134566299
0.08615240200913725
0.05598690267261151
0.025821403336085777
-0.004344096000439959
0.03317866626870286
0.03515293165523236
0.008542130641999126
0.006537594351538888
0.0031093098051970538
0.001597215364385851
0.0018380929219157607
0.0021786395024701575
0.003563934563339838
0.00528588651421425
0.00725058488926643
0.009836987834245898
0.010663091677975266
0.008858830384158495
0.010955633448392843
0.01610848553642546
0.023022604711713246
0.03428720755638162
0.05197187464434301
0.09034003407563854
0.1508197339854262
0.19789178066069046
0.2078458502643304
0.17788232787771988
0.12347312882257504
0.08846596196079999
0.08735162558187179
0.12189494312954684
0.17226838661725097
0.2170625157666321
0.27139835264379225
0.28771167877916043
0.2742451575158695
0.23294108700358898
0.14852869208125347
0.15602473735170871
0.29767290793461776
0.5083748490559752
0.6512365878323844
0.7387297491191188
0.6860738139052924
0.5449529176584065
0.4043569629274957
0.20960855779579274
0.14753020617853918
0.13739127290739306
0.1521770388093262
0.18100683839260653
0.2212517527919905
0.2511036124127628
0.25474720152197855
0.23563581553252982
0.19324662720700617
0.1439774121535959
0.11300283098995813
0.1005593200938458
0.1011032629757928
0.10612702984892923
0.10977622346241048
0.11322002203245443
0.08487849165672147
0.05653696128098851
0.028195430905255545
-0.00014609947047741767
0.034812794202354565
0.03669925252757285
0.0081636900150788
0.006396513225132982
0.003107766023835762
0.001671030511090799
0.0019299704516114063
0.002157902054857581
0.0033994055944143817
0.005112764316663197
0.007092380429141389
0.009524329518829613
0.010301234579334809
0.008668242613170164
0.010645173009565356
0.015236597128578387
0.021360269842311284
0.033024865359202564
0.05174798505717505
0.0919814358671941
0.15278134307805943
0.19669699410809346
0.20477225561733775
0.17353469081656928
0.12069174502372527
0.08842945494894539
0.08946309902733621
0.1263218132650958
0.17644851265151157
0.22655378742723678
0.28436581706412195
0.2973374160841135
0.28039756354787104
0.23104340118971808
0.14390674402691767
0.152971778780811
0.2828921126524223
0.5065893482204327
0.6535031830041971
0.7372020688365176
0.6912485862106604
0.5440109649623963
0.3962276975721616
0.20747599704179434
0.14878065354631195
0.1390141625519648
0.1523887794000504
0.17924696255590652
0.21663704902574654
0.24428334028752233
0.2481327337715999
0.23083566967950397
0.19138834617010098
0.14549927442313595
0.11597054757254549
0.10333875777819881
0.10313484160152737
0.10715406097430304
0.11038430236642063
0.11340585818347472
0.08492961583511835
0.05645337348676198
0.02797713113840561
-0.0004991112099507616
0.056781231314336045
0.057775204827105485
0.008580570379917232
0.007259482337884821
0.0054154548381291304
0.005040507409146585
0.004032454165690968
0.0031193741278426053
0.0028662323913682705
0.004199458909612137
0.005608150231607547
0.00697548231516572
0.008281672375571127
0.008818615501054403
0.010190215285306507
0.01012801324162389
0.012857159403604405
0.03457886633364638
0.06322981863103225
0.12185857871755282
0.18236257769980332
0.18642007675467429
0.1755099605328839
0.13425711678934635
0.09489809357250811
0.09197185376282188
0.11471091432310668
0.17458251925913768
0.2264904654576474
0.332285746575525
0.41018474825219753
0.3791208309891458
0.3201115965077374
0.19608413189957308
0.08912371276644386
0.11930587626949687
0.18965750563953407
0.41106954214766317
0.642692013339012
0.7008030765854298
0.6884510594058748
0.5649190269582531
0.3216351550530814
0.19013223878656002
0.1684274251432378
0.16183344681665526
0.15671698268159923
0.15981578848833572
0.16709354133313747
0.17205850586285631
0.18095117990518356
0.18318712421170608
0.1740580329387088
0.1632782908101525
0.1478401978500901
0.1338570080654896
0.12605128791907647
0.1195537807888649
0.11767837215245382
0.11588452529982793
0.0859423207276263
0.05600011615542466
0.02605791158322303
-0.003884292988978605
0.039923413270625534
0.04157839092303266
0.007759820216358543
0.006480324299377477
0.003565303543305843
0.002355317921976362
0.0022353512737553166
0.0021530466056852056
0.0030092592144068753
0.004672135283513898
0.006683376072380802
0.008733878815787724
0.0094619021978545
0.008369946373691659
0.010070205600745214
0.01317931544019334
0.01733396348124907
0.03073965725102478
0.0521678680988573
0.0974327363453469
0.15897205027148203
0.19362874846267256
0.19671661926202078
0.1623757974596861
0.11354900863155351
0.08869555774801959
0.09542754998718357
0.13835700677913673
0.18826572586244722
0.2533684473924437
0.32016079401802566
0.3228885411933202
0.2957838294442964
0.22414293265342808
0.12926374116512754
0.14335438004881948
0.2490601403817933
0.4925265313204764
0.6547187854893048
0.7300469566816263
0.6976140864531626
0.5449018560222084
0.375508818867261
0.20222001998329267
0.15273100159681724
0.1439050112712468
0.1531814136602566
0.17447730508871584
0.20417281024491618
0.2259154307397504
0.23056039590889268
0.21817627860757663
0.18656140890611564
0.14970919328367024
0.12395483114031318
0.11085880171176368
0.1086765775771836
0.11002525886341985
0.11207908149047671
0.11394796295711429
0.0851087134462003
0.05626946393528631
0.027430214424372323
-0.0014090350865416656
0.04539806729084834
0.046832746244833696
0.007802046345179031
0.00673017147291486
0.004172768416614744
0.003215286327646367
0.0026349709596823765
0.002260212309715612
0.002747094444110846
0.004325576791443574
0.006307277892389947
0.008043876051068764
0.00884731841907141
0.008295802568598451
0.00979823479357782
0.011506680006005016
0.014174939632425365
0.02995692860891007
0.05389507164200382
0.10401846808153221
0.16597456979322436
0.19090644836613568
0.18924646861682098
0.15230241481652898
0.10703858718745399
0.08941398459346166
0.10156676556554159
0.15018984720332484
0.20040257848433388
0.2802078155197814
0.3540602846779012
0.3457378483916158
0.30811776872879637
0.2150724124345987
0.11328486231826146
0.13294775736090625
0.22250727089431985
0.46949154233748586
0.6521484060506764
0.7209517475128148
0.6976036750403464
0.5501719625878488
0.3567387487767796
0.1977121874335176
0.15729938507535707
0.14930241582023823
0.1541983197659427
0.1697630708421443
0.19199507690524273
0.2080689976319358
0.21381116024300265
0.2062360724470714
0.18213031239475025
0.1539803320532356
0.13174805432163822
0.11827036112774196
0.11420464134005927
0.11297848971621675
0.11381736463793483
0.11453113108720268
0.08533555683829014
0.05613998258937759
0.026944408340465048
-0.002251165908447497
0.03351700348883073
0.03612720872239156
0.012159541660260242
0.0086585528601066
0.004761329197688527
0.002832836943282937
0.0026048509941798284
0.0030530647434651474
0.0049376916294493565
0.0065935145026274145
0.008437434768893698
0.012243892654764967
0.01378380447048041
0.01274969916495296
0.015890556204892624
0.02512624102890055
0.03796626437061364
0.05020222097470671
0.060292286716515056
0.08625057184440574
0.1436782392503312
0.20633731776391034
0.2293783668097504
0.2097126869300673
0.1441349493608359
0.09071860896170784
0.0747004340746089
0.09345975918545918
0.1485614863929797
0.16596885046124704
0.19927167302477738
0.2280583433656986
0.2301301032643745
0.2339531619310676
0.19387902189546155
0.19608432178198923
0.5071184083929369
0.6354129706862478
0.7177262493896002
0.8131192782898944
0.6773211838271638
0.5651685273818179
0.4668729869854916
0.2271632548754949
0.1429138569905466
0.12988218629046916
0.15237595937133921
0.19291605130949235
0.2520831223132943
0.29687040683590815
0.30053977473628224
0.26941150394085456
0.2066326153043959
0.13419342340838694
0.09275501536497938
0.08174047098500274
0.08756141076361248
0.09973529839566879
0.10593706212577465
0.11223238022276298
0.08481918327686451
0.05740598633096604
0.029992789385067567
0.0025795924391690955
0.0491801492630302
0.050468398960415835
0.00797855955359758
0.0069043576975794645
0.004584416679457547
0.0038112021605595874
0.0030464210417279905
0.0024843229494927502
0.002725436922950614
0.004231581226023902
0.006066153741237438
0.007633278269136475
0.008554745918922479
0.008364773357667351
0.009779859208085622
0.010605045068337093
0.01275113087331396
0.030372021948281133
0.05592942468525785
0.10922800064590299
0.1711060505086837
0.18925324095904295
0.18446643702230053
0.14596814161208702
0.10287189210967519
0.09011390767022212
0.10583801353761894
0.15820626221117168
0.20884765802420355
0.2980720509924576
0.37503709389546397
0.3590780299737523
0.3142989068204084
0.20808137796794782
0.10286940459096104
0.1263175253695378
0.20793072936602777
0.4510970105805388
0.6496062441997357
0.7145497152431535
0.6957766974428115
0.555207011341428
0.34474033980248964
0.19498082479883283
0.16072552833150297
0.1532367336648245
0.1549810762599745
0.16653498521181428
0.18377972075784432
0.1961039427658065
0.20275528980177235
0.19842364610780455
0.1793119433465056
0.1569598362282142
0.13702311771155232