# vtk DataFile Version 3.0
vtk output
ASCII
DATASET POLYDATA
POINTS 5568 float
9.203283975873374 0.144441140096171 -23.635933411065075
8.17076591007427 0.15596714329552439 -21.888268233908814
7.6670113596215295 0.17293251822107464 -21.110312440186515
7.1638367169918595 0.18269252914723008 -20.331926780617465
6.649664646426172 0.1889895254313679 -19.55876837715895
6.130094117754168 0.1969762390418426 -18.787483271783827
5.609318010143438 0.2047557912638575 -18.01611452504631
5.088366753919841 0.21005329252155278 -17.24466791931271
4.5689541740900825 0.21309492883537084 -16.47320683632926
4.0515051813201115 0.2169408680479847 -15.702497610505933
3.5354138702321043 0.22251544382198193 -14.93280193017384
3.020514479506548 0.2311457541938021 -14.162193216375934
2.507398719539222 0.2468717968762771 -13.389532887949759
1.9978597091927095 0.2694067725454496 -12.614129295235102
1.4915115224942137 0.2991978307448323 -11.836054613871655
0.9899124500994947 0.33929561183885615 -11.057810113174815
0.4953997262581948 0.3866485645031175 -10.279238059564985
-0.0005211010287111129 0.4371603524668552 -9.502297628772487
-0.5090607102633873 0.49334005178782 -8.730788641771213
-1.0401722427615159 0.5532307038296869 -7.970768876315739
-1.5931754769253144 0.6004050867907426 -7.228572384718053
-2.1254229246826286 0.5947991236657126 -6.521305120351035
-2.5979027358620614 0.5387231803168095 -5.797100630122455
-2.942567008628792 0.4115384512557231 -5.039478984165562
-3.1093093429941856 0.2099958778565032 -4.267499572386089
-3.1462062552491266 -0.024416256314254287 -3.481332274841105
-3.117319390555458 -0.24989293395529033 -2.6849411841839905
-3.0598557706374194 -0.44814700596778617 -1.8777828936056387
-2.99262173714651 -0.5911848542325073 -1.059919549384334
-2.9307670364629272 -0.6541407839209126 -0.261776350257079
-2.8779419872857983 -0.6404716323011547 0.5058181285365658
-2.843753873676006 -0.5297319825941578 1.2171310180367847
-2.8249020381613157 -0.31750504791416867 1.8496397436693917
-2.8131465124659893 -0.018681282907709207 2.404778173176351
-2.814580405486022 0.366459958399899 2.8650431653852793
-2.825473482744903 0.8367433890670098 3.2658575434527632
-2.832323520840536 1.3885448120341848 3.616883392236005
-2.8265032308062166 2.014268935612768 3.9547342212781125
-2.8261851365515525 2.6572241738506523 4.31240953999292
-2.9084364193911982 3.103470683416311 4.667915604528985
-3.0162043444200046 3.420752749341065 5.051506464254397
-3.1487786995084632 3.536946030630634 5.433524936591587
-3.267250796780631 3.45741933349694 5.828115466919365
-3.368218024276384 3.1273440382575233 6.159415487727245
-3.431263206754892 2.5701550443473162 6.455226345177576
-3.425782226386966 1.844431211879734 6.699739288438203
-3.335936720618924 1.0100667556739897 6.882442693791707
-3.1616002864248895 0.1499730897469559 7.015688417729344
-2.897706226995072 -0.6785427984710213 7.13523644131151
-2.5406262203369714 -1.4323918423622453 7.271935586082675
-2.101835134727092 -2.088038163578248 7.432557840581399
-1.5856555224179982 -2.6446743450744807 7.626835329926964
-0.9975437325938042 -3.084834043298868 7.872438823729942
-0.3476953957682044 -3.3977053713971648 8.181212730087074
0.34558632934604416 -3.591780097584079 8.546238931128647
1.0788236433231804 -3.6786898969887303 8.955660210139184
1.84031647487309 -3.6765187281000693 9.391655239679167
2.6288098651532086 -3.5938945036792402 9.827319081086367
3.4383084245639193 -3.4350984161047413 10.231898489370023
4.2599427465416415 -3.202110214656126 10.58032622166424
5.106896950600717 -2.8884877602174965 10.861037474425066
6.012965280412394 -2.4709937869207335 11.068556360925733
6.956336950916889 -1.939464272976955 11.174191641408948
7.845143709444708 -1.3367161816368878 11.175018284105944
9.147539387425367 0.12448952699678162 -23.391575004578183
8.251350071278473 0.1408415025800695 -21.842723526774606
7.744939780350827 0.16371207705229585 -21.070673915253483
7.238828892421133 0.17963115261725693 -20.29854686603696
6.722072868754389 0.19305610957432964 -19.533308251119745
6.200043669721764 0.2079914281079263 -18.770486913991224
5.677387960611744 0.2223436904033416 -18.006869513051264
5.154611843265366 0.2346212430640521 -17.242827067238217
4.633545723226981 0.24486910989810098 -16.478298186679552
4.114463658709282 0.2558522866533089 -15.714388503787553
3.5967801432848687 0.2678172532941395 -14.951339486471518
3.080498591628629 0.281440588056956 -14.187400008473317
2.566242684621832 0.3008686992642716 -13.421413098134492
2.0554924668007835 0.32631041282300766 -12.65265890479453
1.5478359510401802 0.3585750865839081 -11.881016435297193
1.0446775711119822 0.3998129338458361 -11.108663724019621
0.5484081240928858 0.4472388440051693 -10.335769722544581
0.05167171385173486 0.49745402837389696 -9.563927437078387
-0.4564963985125502 0.5548773808610671 -8.79684517973743
-0.9850862041833186 0.618343127756392 -8.039394402875581
-1.5334888720402104 0.6724549569131552 -7.29734407914605
-2.0639851518468135 0.6809808132495914 -6.583162539201466
-2.5381076764248944 0.6387611331531409 -5.854528757514169
-2.890984038243635 0.5222950887959276 -5.095819775244357
-3.0746757627668044 0.3247310372143686 -4.325328692202066
-3.1249343572337898 0.08097708427516168 -3.5428897044087932
-3.09839065105468 -0.16891975233953796 -2.7567784258384505
-3.0341895735451097 -0.401720055664303 -1.9632854973392084
-2.9570487371733734 -0.5858820467642942 -1.1549331298872658
-2.8820351188298394 -0.6987338324267233 -0.3512172888921635
-2.8183845635902247 -0.7264049915431646 0.43870391492641714
-2.776679238487322 -0.6341514077040695 1.185852919299152
-2.7511635612243026 -0.422690336097821 1.856857420804917
-2.7326021433061083 -0.1081575351354983 2.4250557915309994
-2.7221964919904265 0.2970967197623203 2.8761137827733076
-2.713880365935785 0.7884635003869904 3.265232299459498
-2.6989215099550754 1.3624878298481709 3.6084901842174726
-2.6719176173391705 2.0119818987527984 3.9419697199536525
-2.655283370845951 2.6859411702343827 4.302404832894383
-2.72145239554846 3.2063552822812937 4.687664239296631
-2.842995039900432 3.5383940031651355 5.101048253998584
-2.9925533617948044 3.6432215873301046 5.4929221415592
-3.127186307007644 3.5574900040405066 5.894417431508203
-3.251282760373993 3.195232320867153 6.228880291146718
-3.33627154185781 2.601748841261628 6.515205728035289
-3.349487892979753 1.8530627937282405 6.743620120507671
-3.2752461944820856 1.0111810083821329 6.911771808937556
-3.1135009732446 0.15258668807101916 7.033155634267055
-2.862001173779804 -0.6703287003842135 7.141661267778082
-2.5186096335214003 -1.4213121114062668 7.2635971717434185
-2.0914868126740815 -2.0794214366377797 7.407720274787096
-1.583374014797561 -2.637879480842834 7.586556030178012
-1.0019575297619592 -3.074668367464417 7.8196822549384315
-0.3619602415356603 -3.3816988636401693 8.117633282743617
0.31921333781196226 -3.572382602280939 8.474275346330305
1.0435411917596422 -3.6580325489454286 8.879010583242637
1.801511194287734 -3.6521054893055473 9.312953200988197
2.590364276921334 -3.564078591850095 9.746088607048607
3.3992865153057084 -3.3996229936454774 10.144478509823978
4.223379250236699 -3.161002378707812 10.48596276818194
5.07291256732248 -2.842361393750873 10.75883590687998
5.981417126557875 -2.420115261406778 10.95829419101768
6.92685463310145 -1.884160074576914 11.0577967882568
7.81228434702875 -1.2807333633371312 11.05304735898466
9.207487706598055 0.14594570244613025 -23.654360615745954
8.164298790156336 0.1570786417070342 -21.891210796745195
7.660743481004794 0.17359787582777 -21.11280654283193
7.157789134123986 0.1828924961181679 -20.33394548415123
6.643810515492589 0.1886504078461992 -19.560185106124752
6.124424040697289 0.19611146654547543 -18.78825679004841
5.603788520125936 0.20339387197173825 -18.01629936509761
5.08297359723929 0.20816348277269878 -17.24429028449593
4.563684380370693 0.21066019960499402 -16.47230250410219
4.0463572333831195 0.21396646663349525 -15.701076686956501
3.5303849347783376 0.2190578732283186 -14.93087639383168
3.015589131528385 0.22731063998676518 -14.15976198161419
2.5025590048064923 0.24275673795882502 -13.386596100967584
1.993111119022803 0.2650719229537328 -12.610688958755295
1.4868614347129432 0.2946759725079446 -11.832127280249583
0.985379897335109 0.3346876045614752 -11.053436918332942
0.49099963235427624 0.38203507313206286 -10.274435228089827
-0.004859655282498432 0.4325692891021987 -9.497109314357573
-0.5134273281033006 0.48865499390442024 -8.725265783659509
-1.0447296237984893 0.5482755552467931 -7.965051583453954
-1.5980818608802858 0.5949261612238798 -7.222841944352785
-2.13046705473434 0.588257343159628 -6.516086634366436
-2.6028281812589302 0.5311383644113217 -5.792207860711487
-2.9468776608964595 0.4031455337411046 -5.034660641814849
-3.112345950932082 0.20129945742545227 -4.262554821423581
-3.1482357677019843 -0.03241207444790878 -3.476093119489304
-3.119170675198878 -0.2560529422757407 -2.6788925641880033
-3.062211667295523 -0.45171169653405974 -1.8706348321548476
-2.9957175757726144 -0.5916630242987947 -1.0519641743248553
-2.9348378630458507 -0.6508954529596968 -0.25411441832547443
-2.882810821566589 -0.6341569535357082 0.5119012797199681
-2.849175910048314 -0.5220563669570061 1.2205784072290544
-2.8308131533118543 -0.3097819732016893 1.8502404461908033
-2.8195627737764344 -0.012126434940806452 2.4044050876307836
-2.821884636162653 0.3715310791228005 2.865389933854781
-2.8342163755674745 0.8402779134163749 3.267114948021298
-2.842691707203571 1.3904596609507514 3.6187424517168965
-2.838445703561168 2.0144402157070385 3.956930691994077
-2.8393329613973215 2.655105356762229 4.314402309031788
-2.9227062607180168 3.0960362018335736 4.667745739777946
-3.0294636653755154 3.4122209211555266 5.0491399293584
-3.160785176847083 3.529267153994357 5.430453062749515
-3.2780606797068343 3.450198987941824 5.8245414000033895
-3.3773439874608 3.1224586282692157 6.155624712544617
-3.4387786478985327 2.567910418678717 6.452148147830836
[...]
CELL_DATA 87
SCALARS quad_param_group int 1
LOOKUP_TABLE default
3
1
1
1
2
2
1
3
3
3
3
0
0
2
2
2
0
1
0
3
1
3
1
0
3
0
3
1
1
0
3
1
2
3
1
2
2
0
0
0
0
0
1
1
1
2
2
1
3
3
2
2
1
1
3
3
3
0
3
1
3
2
2
2
3
3
3
1
0
2
3
3
0
0
1
3
3
2
2
2
2
2
0
0
0
1
3
SCALARS single_component_feature float 1
LOOKUP_TABLE default
-0.018563292999046743
-0.00473124228711802
-0.019606375712220042
0.01942820983344594
0.05852242823081455
-0.020095548679057954
0.006085819228864538
-0.004770316346814157
0.0032263763175580523
-0.03728318678292609
-0.0389528938107736
-0.02065726184734484
-0.011424894885571614
-0.042431375844523875
0.0017500019532293784
0.06078582114420753
0.06733175395598288
0.01195075132705706
-0.03207917683587953
-0.02318157223087616
0.09228374064047537
-0.021539865997531688
-0.01662100888120059
-0.011682147912170902
0.05157773080380835
-0.056597203617541586
0.043825834457539264
-0.08857187321175847
0.08836440767967785
-0.045279592829806425
-0.013989096586325939
0.02152927523979014
-0.007711271856814077
0.014674008454342361
0.023545407822825205
0.03340885556390594
-0.014607553311255923
-0.03421573549766935
-0.05688942056709184
-0.06309765512567293
-0.0754700721154024
-0.06872882089755794
-0.0031503708043575393
-0.08003054406442014
-0.026418756923852954
-0.013521743101450769
0.0008336321081612447
-0.020793528553636982
0.039319288111344164
0.008955787129334696
-0.03385877092672416
-0.0005416489736967426
-0.014672291333994895
0.0020945147782025844
-0.007740394930218022
0.019327542198768213
0.023974632711702575
0.07043047794598263
0.019739253576263664
-0.0184619496767114
-0.02557088447859486
-0.0023086018940377886
0.011282908844620323
0.04332710395050132
-0.001226756434383313
0.0008173211223241675
0.052979624371570985
0.006951206788869936
-0.005611846807458359
-0.0071314639826727914
0.008730466799343792
0.002753212672529539
0.1072680679230115
0.03642561081564959
-0.006382904145347614
0.009901845962093876
-0.010848943635966344
-0.0037978810447128544
0.0023537391308537034
-0.0033325523080058074
0.017606109855313586
-0.03439915714679429
0.019972689027175222
0.08353532268379561
-0.024594347223358713
0.0004529778151720898
0.005850036084239604
POINT_DATA 5568
SCALARS single_curvature float 1
LOOKUP_TABLE default
0.03106914981948868
0.03273611830898358
0.007694207072966558
0.006304106314941916
0.0034168473982755833
0.002171111341477117
0.002421340193595954
0.002694581975912769
0.004138883479968076
0.00608152880750734
0.007964304582464537
0.010226788826650976
0.010860272082846659
0.009609108227906218
0.0114546158311706
0.015534224919324718
0.021700399444771985
0.037551943472994335
0.05940560343242402
0.1045095990541965
0.16706053907140236
0.19851642736874184
0.19665159200808452
0.1596974706488994
0.10846090729532747
0.08950134457530735
0.09790820381098067
0.13380669055688935
0.18058074908860813
0.21968588378679643
0.27226037961690225
0.2861452630765527
0.2692259667485259
0.22486456038511463
0.14393617351880642
0.19623962521154772
0.26115942973151174
0.4785497488089974
0.657311276331126
0.7238650085946934
0.7111654442303394
0.5811581543581995
0.40555433116665224
0.20980013559927924
0.15036368265309302
0.13964114203993802
0.15023992987630444
0.17218957900637427
0.20094529103811523
0.22077311402287556
0.22339675341810375
0.2112246605277647
0.18059851114181577
0.14368079241702972
0.1172431330808038
0.104859948256562
0.10495578740298332
0.10841859505229412
0.11264816552449416
0.11503782478477273
0.08619669142878358
0.05735555807279444
0.028514424716805292
-0.0003267086391838536
0.03627384711272937
0.037999969526123334
0.007731271940039041
0.0063000024351672285
0.003281643571577493
0.001991863141836437
0.0021708413626437524
0.0022528122584318726
0.003374994198683687
0.005127435755388794
0.007105928395954656
0.009339347822696785
0.010047600464399547
0.008737923199363415
0.010538174129556498
0.01432046575568684
0.01954885627682548
0.032972464678824566
0.05371896852038777
0.09743896951909045
0.15902479093830452
0.19568800193564898
0.1988071136033552
0.16444856008341785
0.11383499399215706
0.08826101824794712
0.0939351191199852
0.1336351015283393
0.18282007212243306
0.23694074216156796
0.2975848978325708
0.3062662923643186
0.28480899453218267
0.22666151239334087
0.13763356902408078
0.15800541767452408
0.2602979398501356
0.4935449013381948
0.6548228886113339
0.7314246205013044
0.7002438292666322
0.5537057617986744
0.38950132274153104
0.20563365432781042
0.15080984268518408
0.1412400563449737
0.15215622944364768
0.17533547111978953
0.20707329061065777
0.23006426030028948
0.23390663300311917
0.22009660376287904
0.18642073011990615
0.1468778756562053
0.11984407145607454
0.10706714766255632
0.1060542290738926
0.10873964885477988
0.11170948118454023
0.11405726533730112
0.085325660559756
0.056594055782210884
0.027862451004665764
-0.0008691537728793552
0.03062612539879003
0.03228881226048495
0.007702079884417241
0.006315106500436568
0.003437467837322146
0.0021949463892226764
0.0024424912425520793
0.0027326608605748475
0.004200789275561898
0.006157838180228307
0.008032469639448077
0.010294615632520668
0.010922354958819823
0.009677454972450324
0.011529449001446439
0.01563459494401378
0.02187202762165122
0.03790843520428589
0.05984346173834032
0.10505107647649345
0.16767637501940535
0.19875005173181082
0.19656638588183792
0.15947720645612137
0.10819238405300984
0.08972698963669486
0.09827964097779726
0.13380245383055953
0.18037998092705937
0.2183080854578298
0.2702593110214648
0.2845605553397244
0.2680026410553382
0.2247236694603271
0.14441501739265067
0.19964120526028303
0.26165032592004395
0.47769914329563823
0.6577377955016921
0.7231848334456441
0.7119175345810672
0.5831491439928317
0.4066871878806568
0.2101224362213568
0.15034593863719467
0.13953250444163684
0.15009836737701074
0.1719509999773663
0.20048751702176215
0.22008344148325415
0.2226194013241466
0.21057156156625897
0.180169707651084
0.14344374842955424
0.11704851075531378
0.10469403805307578
0.10487348971893135
0.10839469422373631
0.11271865415304246
0.11511190841259468
0.08626271799601874
0.057413527579442805
0.028564337162866868
-0.0002848532537090692
0.042539210582164054
0.044378850079420745
0.008479778101817666
0.0069890902866933235
0.003725024098560191
0.002352345617124976
0.0020467960315593966
0.0022253148720805882
0.002790066922955752
0.004218843598580936
0.006140686179057335
0.007887928315185857
0.008702238399358367
0.007517696124767765
0.009438992348428288
0.012944633969027071
0.016605228843410202
0.025809564870708034
0.04449281767444715
0.0857155976285004
0.1457325400297066
0.19192051206138053
0.20586585186602568
0.17887360698354998
0.12934175556260064
0.09242504521262056
0.09084783173934169
0.13267482569213515
0.18515459502552478
0.26265112259599904
0.33616070456531283
0.33708295900204155
0.3088214047497596
0.2290940462777821
0.12665470328927134
0.11374395549392963
0.2728125677909969
0.525814900884699
0.6575372489095892
0.7378887836086893
0.6772620670229583
0.5024816253061535
0.3584938269484489
0.1988133711727967
0.1523609285016744
0.14465740764200297
0.15564866806832509
0.18073718488994608
0.2180325416393095
0.24693865131653905
0.2531646720562301
0.23656052584586393
0.19722397947266307
0.1527120307138119
0.12447051307836193
0.11094540424399335
0.10799765620211364
0.10931559029744808
0.11005274885565242
0.1123545566756905
0.08382595094006258
0.05529734520443466
0.026768739468806743
-0.001759866266821175
0.046012275125897305
0.04806064670067541
0.010117106719902486
0.008690573251189037
0.004966994161086852
0.003445880158988943
0.002842292568630353
0.004048529664710261
0.00407659188670812
0.005046222031321921
0.0062296523231297465
0.006276182515021397
0.006966733323136828
0.006752071741974514
0.009418717265746312
0.01340090917024258
0.015266185125650015
0.018003117869301987
0.03306974006359197
0.06983185033473627
0.12733754121788818
0.18885634477626392
0.22157567741989678
0.2082896853646421
0.16063804986076627
0.10747676188600178
0.09133212230280399
0.13052617526551408
0.1857861597306486
0.2932794415433032
0.38296424554195685
0.37427294746080764
0.33781538205289946
0.22949737074888685
0.1094997492899699
0.07487544605069861
0.3014137289263734
0.5685226668928719
0.6614538842950431
0.7331508700696839
0.6311398696605613
0.4177312293370967
0.3070925655181897
0.18880658213323806
0.15603233274741451
0.15132471202141248
0.16151528767676018
0.1891484451059682
0.23644124435489505
0.27595392074613945
0.2867490631381536
0.26593476945160555
0.2165678074472463
0.16288950309196049
0.1321510480730332
0.11723939584401455
0.11117455632515257
0.1102718170213807
0.10732837776623029
0.10963530155925998
0.08146508052712899
0.053294859494998
0.025124638462867013
-0.0030455825692639743
0.030415869644880567
0.03207655733265076
0.007706005714354553
0.0063204980956495386
0.003447357682814612
0.0022063385106698744
0.002452496845273797
0.0027506778293613244
0.004229951822861892
0.006193757179540367
0.008064544366720834
0.010326458049845819
0.010951501815768984
0.009709604296636955
0.011564780977164388
0.015682036993851844
0.021952905717508155
0.03807610920867593
0.060049194697110515
0.10530537576501231
0.1679656093478124
0.1988606061521572
0.19653061314607057
0.15938099704620717
0.10807345351433241
0.0898394013278719
0.0984571316038819
0.13379950800922713
0.1802841717629842
0.2176582240740685
0.2693165772627514
0.28381425694636503
0.2674267439654481
0.2246574678468406
0.14464000363959806
0.20126469694423937
0.26190667420746183
0.4773189954259312
0.6579526692696225
0.7228611695041354
0.7122666771978093
0.5840785848256405
0.40721414301369574
0.2102739797756214
0.15033843603528801
0.1394821547658224
0.15003212969398153
0.17183905305517902
0.20027304527265138
0.21976053770645948
0.22225558108629237
0.21026604047715206
0.1799690990509353
0.14333277475628778
0.11695731424404572
0.10461626009823757
0.10483492286608213
0.10838350147863807
0.11275169657866159
0.11514665746231119
0.08629369841298223
0.05744073936365328
0.028587780314324324
-0.0002651787350046314
0.03950653802224274
0.04128192492577748
0.008017455929756251
0.006556106154058801
0.003430600565895802
0.0021046082820538633
0.002040986633300659
0.0020677829983679844
0.0029353064951970296
0.004540918759789865
0.006552972921197256
0.008668381791804918
0.009430466958509005
0.008127576149533931
0.009949208406242306
0.013563333376491868
0.018073773119110362
0.029614467134019135
0.04945742105254697
0.09207597199554801
0.15294007507074503
0.19381960232165585
0.2015633194103054
0.17017059569906406
0.12003663515352554
0.08930920081540206
0.09203026005984526
0.13327738485833265
0.18408570790528553
0.24913511399370863
0.3157647770211521
0.3207735577784927
0.29609554978263825
0.22789831532504773
0.1327118787308735
0.1353448397192618
0.26453108045670637
0.507811555431477
0.6554741825971458
0.7353428572203795
0.6905370675844295
0.5311459461035984
0.3759333347286132
0.20251102024632536
0.15140022660130456
0.14268089929338668
0.15370010917973173
0.17777000497228557
0.21194004097928087
0.23751832641390924
0.2423873644844132
0.22731344979447154
0.19115526741001732
0.14944963687669108
0.12190295363854012
0.10880079472827137
0.10692113565147666
0.1089954451935099
0.11097036029454475
0.11329316208016313
0.08465063776799497
0.05600811345582682
0.027365589143658664
-0.001276935168509491
0.03626086420980016
0.037986813380474174
0.007730573158120126
0.006299417451788656
0.003281438073042536
0.0019917856939013507
0.0021714475363359014
0.0022538241721731522
0.0033769269402544864
0.005129902744490349
0.007108178081331117
0.009341815459523332
0.010049863350682916
0.008740265953288634
0.010540532980482848
0.014323544119242883
0.019554558699634964
0.03298497854488745
0.053734685593340395
0.0974586289415997
0.15904711395943785
0.1956952926295677
0.19879864941004657
0.16443072721541796
0.11381542784497105
0.0882601771332747
0.09394382671169003
0.1336360963099429
0.18281477840079707
0.23689464309420744
0.29751660216280024
0.3062118792973839
0.28476673545854597
0.22665671321253064
0.1376513423232538
0.1580974796903397
0.26028873346462017
0.4934957871203536
0.6548235633692131
0.7314072974773853
0.7002770909548515
0.5537857497367527
0.38954898672822025
0.20564514613829718
0.15080806642185388
0.14123514114641558
0.15215071981936226
0.17532663396015885
0.20705582897417815
0.23003763302421323
0.2338764150203462
0.22007098215941173
0.1864039208079827
0.1468687013265083
0.11983667281042032
0.10706089588834466
0.10605110901658767
0.10873873184916683
0.11171214313123316
0.11406003009321658
0.0853281089369998
0.056596187780783014
0.02786426662456623
-0.0008676545316505524
0.038721165705626975
0.04048327907129191
0.007929415424266957
0.0064756689905090675
0.00337890505314316
0.0020626313328811264
0.0020664217984886707
0.0020945392196823156
0.003029121663346209
0.004673312018801681
0.006683123731620606
0.008843117968481447
0.009591643814841714
0.00828059462322179
0.01009149494555468
0.013743745272157496
0.018442091416619642
0.030480570687979415
0.05056562606815468
0.09347750195088408
0.15452928852874243
0.19428460428741615
0.20076061925391706
0.1685179660338894
0.1182569669435381
0.08888377976700673
0.09244045104844376
0.1333862467761492
0.18378843661647165
0.24602086665076542
0.3111007982983831
0.3170479056101624
0.2931934979853706
0.22759105099662102
0.134012975295239
0.1408236021501064
0.26312784333270167
0.5039496162078535
0.6551674524219436
0.7344748181798421
0.6931980551921598
0.5371830021994245
0.3795843959138006
0.20332524960933368
0.1512259327275199
0.1422849479734146
0.1532885383131076
0.17712882210368947
0.21064719541133922
0.235531870610181
0.24012316607204037
0.22538157611475917
0.18988785025825627
0.1487635497617187
0.12135665845446944
0.10834198659959529
0.10669139368245452
0.10892746722195656
0.11116616784996551
0.11349489308392234
0.08482853238710276
0.05616217169028319
0.027495810993463612
-0.0011705497033559636
0.021995385577455537
0.023589439127697023
0.007902380393778934
0.0065674108296442865
0.0038463150537263904
0.0026558857212544396
0.0028331093104775216
0.003430822421765414
0.005288485728793908
0.007489815128335522
0.009219889613103287
0.011455241437458671
0.011985855692310197
0.010868257597205545
0.01288810319409162
0.017478234465190257
0.02492843426803255
0.044145259532121076
0.06741731143462391
0.11437153263739055
0.17827727314039635
0.2031513939766735
0.19715071151267446
0.15891774351989654
0.10676097179552894
0.0963922886499062
0.10581850016174942
0.13324106035752648
0.1761869188349535
0.1933181890621281
0.23452568122298628
0.2564041000259142
0.24637550691160945
0.22234570278037757
0.15316939065009041
0.27171942817795347
0.28639341181426375
0.47604177156266936
0.6741596338216151
0.7108056952420291
0.7230346733777315
0.6147985894345039
0.42369210256781076
0.21575813523506981
0.15042923584830228
0.13796359090628435
0.1477694837531329
0.1678829917375188
0.19282241815223555
0.20863032242009968
0.20976896766825506
0.19983589708855815
0.17311366615768575
0.13951015781405293
0.1137845264900064
0.10189649533664652
0.1034923859727322
0.10799721315108647
0.11390673784710026
0.11636982430614129
0.08738849658036738
0.05840716885459346
0.029425841128819546
0.00044451340304563214
0.021068021916967338
0.02265598139708316
0.007925737168374967
0.006595529371542961
0.0038884977958908175
0.0027027496308031545
0.0028726089493218586
0.00350048572701302
0.005393429818174301
0.007617795954966444
0.009333924220261565
0.011565590793748012
0.012087143820247758
0.010982972933004386
0.013023832538116288
0.01766413695667185
0.025229113839888986
0.04475116194664992
0.06814566540151729
0.11526420289105317
0.17929194131648593
0.20361071487818203
0.19741824189954726
0.15916840774215166
0.10692224979928512
0.09727961894679786
0.10662249691379978
0.13313258263896216
0.17570662181484245
0.19079833100727042
0.23098241729161023
0.25362720480533774
0.2442543851443134
0.22212972394271116
0.15414717516493745
0.28018895191459375
0.2911813877071942
0.4778923797382315
0.6770458674927937
0.7098351208008443
0.7239195160992346
0.6175614581015187
0.4250510781916794
0.21630721673172376
0.1504769900694855
0.13784273810189904
0.14755673062305089
0.16749653684425236
0.1921074372605878
0.207571395122437
0.20858660160075979
0.19885378641772902
0.17246727429939732
0.1391465910302478
0.11347967725520977
0.10163378675875599
0.10336338755888214
0.10796046359297841
0.11401832414903935
0.11648885028770216
0.08749547602787633
0.0585021017680505
0.02950872750822467
0.0005153532483988393
0.03017246754976878
0.03183086652568837
0.007710683330958951
0.006326857982737744
0.003458872269939771
0.002219573982443933
0.0024640525859710334
0.002771486788164956
0.0042635362185521036
0.0062351011076926454
0.008101455739606116
0.010363048107605848
0.010984995414020019
0.009746594666508429
0.01160553590008689
0.015736801774463977
0.022046078453913556
0.03826902935498422
0.060285739732939145
0.10559766799167242
0.1682980654359916
0.19898833707517746
0.1964928790518629
0.15927613096079052
0.10794242362766612
0.08997367845508715
0.0986635061120103
0.13379535588788652
0.18017283861986297
0.2169090652039634
0.26823067529953154
0.2829548468791636
0.2667637319504327
0.2245813624489232
0.14489873425897154
0.2031515703105432
0.26222236405084104
0.47689794472145824
0.6582115298808443
0.7224859441915924
0.7126647759219134
0.5851424439533643
0.4078157778883767
0.21044830694210076
0.15033047089403268
0.13942481160730544
0.14995618903132615
0.17171045785720504
0.20002693446246156
0.21939016822925198
0.22183838687621601
0.20991581224576175
0.17973912432145722
0.14320549590167708
0.11685265353166938
0.10452697124735813
0.10479065930651672
0.10837066164711759
0.11278962746570306
0.11518656429228194
0.0863292855406365
0.05747200678899106
0.02861472803734562
-0.00024255071429982178
0.03390907645353368
0.03560602514300862
0.007668263618537292
0.0062567706222083535
0.003302663448271271
0.0020345221052926158
0.002284162566150453
0.0024489967463229485
0.0037282560435321793
0.005572510701236604
0.007508377435279301
0.009765653809149424
0.010438173226645248
0.009150170313495782
0.010962603618496367
0.014878599896813484
0.020558855695280362
0.03515255815507813
0.056441482294764284
0.10083384551979625
0.16288143619721612
0.19699446918426514
0.19754119366271874
0.16174130974065054
0.11082930022053962
0.08846439217941429
0.0956335304345755
0.13376672617905666
0.181830858598874
0.22882588968421969
0.2856147069853598
0.2967410944640852
0.2774208014957416
0.22581293655348736
0.1406784523652485
0.17501586945250708
0.2595702147636957
0.48558309923597465
0.6553930850253438
0.7281194790287503
0.7057456027111306
0.5672193072120922
0.39749010632075094
0.20762509933673576
0.15054672330421948
0.14043030537341322
0.15122010363258614
0.1738173854438381
0.20409444240378719
0.22553427431159195
0.22877380437645753
0.21575389982549456
0.1835713541041389
0.14531815242977325
0.11858081610121603
0.10599747715005232
0.10552109186298343
0.10858336318482152
0.11216464613367233
0.11453133365988373
0.0857461047683937
0.05696087587690367
0.028175646985413638
-0.0006095819060763924
0.019072562353697264
0.020648044774187222
0.007976317669720926
0.006655924381430709
0.003977724656592378
0.0028015920190067774
0.002956082490056725
0.0036470749865266786
0.005612651619765434
0.007884958828484731
0.009572001335393897
0.011795687590026369
0.012298466333370058
0.011222758842752357
0.0133099482727406
0.018056794728371402
0.025860864096364396
0.046021426027479974
0.06966905923812305
0.11712964754164477
0.18141151755049617
0.20459194880693946
0.19809546601212294
0.1598464042633149
0.10740905360850564
0.09925023120078266
0.10832819289902132
0.13287121303342664
0.1746549636947345
0.18546161603812392
0.22351501529738327
0.24778385465554303
0.23979839121766858
0.22168933000881783
0.15632388040719014
0.2988949450494513
0.30333882184883765
0.48358770544557667
0.6842232105514792
0.7082809907513652
0.7256674897820766
0.6231789457820742
0.4277248806038719
0.21746012835444006
0.1505998941905871
0.13760647245892185
0.1471177159033899
0.16669035896821108
0.1906229387556644
0.20537803984877662
0.20614076489799465
0.19682518309194819