# vtk DataFile Version 3.0
vtk output
ASCII
DATASET POLYDATA
POINTS 5568 float
9.02210727695263 0.38666933739507564 -22.614166572897563
8.439449291180498 0.32932577166889837 -21.613344353337673
7.930574705753473 0.32448996628111326 -20.83458291551532
7.421298640483958 0.3169546723437213 -20.05869481704322
6.900474183718598 0.30222915107626425 -19.291937419795985
6.372686107642321 0.28790153571128785 -18.530375719251158
5.841200535670685 0.27703499949055155 -17.769943019611315
5.308463669059794 0.26744469418819533 -17.008337402343017
4.773760317724297 0.2577356749577775 -16.245955785799378
4.234191479899697 0.24873702029332126 -15.48600405839196
3.6894214099639013 0.24214512932596824 -14.729313678606859
3.141125385356853 0.2388568199608066 -13.97515265641511
2.5910892931233205 0.2438512006694143 -13.222744087145376
2.0420660957721934 0.26023320023415014 -12.470397041359323
1.495163596024116 0.2848582096023454 -11.716128949984917
0.9477812398136672 0.31504282548698864 -10.964581437299643
0.404429462602211 0.34892286395711875 -10.215008460816337
-0.14434001368043792 0.3816534811507033 -9.470009259143986
-0.7068856741194413 0.4236351806074958 -8.73396224141716
-1.2896849013849783 0.47559332336070204 -8.012868131866695
-1.8883083581158093 0.5209995266980358 -7.308679807232662
-2.488014706798236 0.544014302875603 -6.612422862466512
-3.0522454729251702 0.5286836659991446 -5.898775730638227
-3.4850105918273004 0.45734025492581964 -5.138746980178695
-3.6664680509288288 0.3200315915319252 -4.341870569742671
-3.6088294876714766 0.11474180890610211 -3.515866876968047
-3.3787489819731342 -0.12808491908090508 -2.7044680809628865
-3.063230416989534 -0.3442516866576829 -1.9404744175486712
-2.713846962505985 -0.5257049375837316 -1.2107525001637813
-2.3625669492585994 -0.7132188176203645 -0.4591366238062048
-2.0443776394200177 -0.8461725103956762 0.32846205347178514
-1.8116722852737195 -0.8722217318732794 1.1914112083766328
-1.715153146169 -0.7014707507438116 2.057611811184595
-1.7302522599723684 -0.3530077399100651 2.8159311690375963
-1.8581319980564572 0.13626432046577652 3.428211327000245
-2.0607539435082405 0.7350102206707416 3.9146526398775703
-2.293625157785025 1.40751834948657 4.272190693831553
-2.529320521268399 2.127904925216881 4.537618104428327
-2.747680711216978 2.8672735582733844 4.765356306439011
-2.9508072903397435 3.348833398289351 4.909622545900667
-3.1630878289075155 3.815365762101036 5.11888057141735
-3.304664964750828 4.1563890809700945 5.509313901799052
-3.4735650334499257 4.252928650809185 6.096771182598538
-3.5735539447405222 3.867475862583047 6.532751141940029
-3.6100317609551995 3.1835580768322185 6.894326430963961
-3.5831854282296276 2.3293679315533287 7.15954500117855
-3.491063260528744 1.4072741582779609 7.348648591256525
-3.3272279252868113 0.47941540359878254 7.483466225605017
-3.0750722878217824 -0.40890627754923015 7.602370161231021
-2.727692053613883 -1.2230746774666659 7.732010452587709
-2.3104978751404546 -1.9308850466853498 7.866797858496254
-1.8061844541138843 -2.5403548291731406 8.011898465910289
-1.197435565466956 -2.997525622907027 8.215889046042548
-0.5121966848928104 -3.262317338993283 8.52934166955398
0.18365703047147786 -3.3714509125215217 8.940120078409386
0.8929036717740838 -3.3861723683188165 9.431820026066054
1.6197461266193978 -3.331711115453146 9.980471646679657
2.362694069447663 -3.22269913072243 10.537819640127893
3.1396805546748627 -3.065071578641077 11.08462136566271
3.943932427340557 -2.8528432598285596 11.586814669379647
4.766450286902649 -2.5846298049910015 12.010322947801615
5.680148391338416 -2.2129174217361025 12.36068036703419
6.640921115818996 -1.7200542862519523 12.558763283387584
7.514618817547157 -1.1858527606538196 12.583074482245864
9.115859064948 0.14956412428455446 -23.22571722340963
8.298797340945729 0.15686934811987227 -21.804518287597404
7.7913165842010415 0.17824274821207073 -21.033482994323894
7.283959947733842 0.19324094518559648 -20.262811931095072
6.765965471210974 0.2054775602572018 -19.49980176454397
6.242538427214999 0.2190361281566747 -18.73970396252144
5.718290473899256 0.23237793795493286 -17.978817418397902
5.193799526813991 0.24416616141240738 -17.217305122351476
4.670635284068475 0.2542220240357562 -16.455128652868286
4.148660061062475 0.26499254539216893 -15.693753328738339
3.6273268459701082 0.27669052591449017 -14.933486557290806
3.106887828637242 0.28982026427705415 -14.172753796849355
2.588111151882898 0.30865705666687976 -13.410438191681346
2.0725272267757777 0.33390098819779745 -12.64569025377231
1.559894397451495 0.36600433893191753 -11.878108242301384
1.0511142031756204 0.4062744571762101 -11.110088688617237
0.5488366892082988 0.45211463823777037 -10.341783303621261
0.045816806622330564 0.5001647388451252 -9.574811179900275
-0.4685398629153268 0.5561230872498059 -8.812917303498745
-1.0026442034143126 0.6192853964783943 -8.06074418459056
-1.5554767239392189 0.6744404078771967 -7.323403943493796
-2.093422127527159 0.6889409324664784 -6.609377768423293
-2.5783375858481867 0.6540640375962811 -5.881429897945517
-2.9428787359579953 0.5461506344817696 -5.122534860216085
-3.1313850623021433 0.35692998078743376 -4.349556225594029
-3.1730569775077453 0.11509060139481028 -3.563983997283252
-3.123874713067203 -0.1406820458449686 -2.780145593633628
-3.028657564544236 -0.38091158735188646 -1.997568678262044
-2.9167955247572723 -0.5760882435709189 -1.2057055844523588
-2.80612692935896 -0.7121590734524651 -0.41055566595065096
-2.7103257801751943 -0.764455708711676 0.3822603617015399
-2.6452967194826056 -0.6913028416173698 1.1513148931623984
-2.610011454104309 -0.4844553835219868 1.8556167645532646
-2.5928993788445043 -0.16109507453930072 2.4487263352614397
-2.593416276071296 0.25916645704656815 2.913886560646823
-2.6016793986796993 0.7671615468224605 3.3087476737771695
-2.6072504528297324 1.3558915546125605 3.6494360984929277
-2.603733665348427 2.0163747401865453 3.971629317992577
-2.609417894615324 2.702997976608034 4.315148360385746
-2.6876345994826685 3.2375495847649023 4.6752857216603205
-2.822618545460676 3.5858778561172895 5.068881877747438
-2.9750339056484894 3.7114317708306963 5.459670282470486
-3.1175644348903573 3.642570796898328 5.880299893325495
-3.246212237951127 3.2677251907694513 6.226957190639784
-3.33267971130199 2.6526887513664748 6.518742792868265
-3.3471725993566754 1.8847343872869766 6.746429329534522
-3.2756113984499273 1.0311522572783067 6.912601291585018
-3.1173894210257482 0.16488527721575919 7.031972773270893
-2.8694954949496294 -0.6639918934531996 7.138372246723703
-2.529691901870279 -1.421510865698101 7.256782254930424
-2.1071959899863244 -2.0861862489107725 7.394874244049113
-1.6019936554720882 -2.6510849097310607 7.565127281564062
-1.0194244719169068 -3.0892185632275266 7.791106579871192
-0.3772677045833174 -3.3895151769658587 8.087555370096437
0.30148660783430903 -3.5695279800959527 8.44774023228615
1.0207684734478346 -3.646464361309428 8.860856148507374
1.7733530012666057 -3.633775580111531 9.307096119014789
2.556139166594158 -3.5417609103127567 9.753516226966923
3.3602026154172036 -3.3765901783546 10.166745761807416
4.181561907398893 -3.139665140016915 10.524253728244702
5.0274089900148295 -2.825922286725049 10.812059549610748
5.936132427243404 -2.4086869797801755 11.026522708471967
6.88350693051841 -1.8767750835136265 11.135778836954145
7.766399613208492 -1.2815853502426577 11.132869409704364
9.188986507151883 -0.03538059131740964 -23.702733564178278
8.160264972520512 0.03911685911238201 -21.900163079878045
7.653585085478631 0.08082012823331555 -21.134692399610394
7.1475130461079805 0.11331822420140425 -20.367759345112827
6.631414420313401 0.14650965434423943 -19.607214420589397
6.111046853895518 0.18176498740598906 -18.847772648185146
5.592163448669642 0.21393838694516923 -18.08615065043383
5.073868295499496 0.24233759978332703 -17.324406784100884
4.559456001818047 0.26772045677365613 -16.56210664255883
4.050845130738694 0.2937930079241054 -15.799266365049776
3.547308262158232 0.31963003907829307 -15.035780340416574
3.0480020555896394 0.3454561441577018 -14.269395494771098
2.552926192773908 0.3750170064208147 -13.498715402713552
2.0627113004186466 0.4071472967975852 -12.723595865089019
1.5760785479266244 0.44507721266217615 -11.94488655536394
1.0964838520983848 0.49322252920171955 -11.162991400201552
0.6252055881680296 0.548421214205523 -10.37882446671859
0.15656605811410879 0.6084703911702298 -9.59307278126052
-0.32165355891282044 0.6754348238374164 -8.809140601285145
-0.819304368855479 0.7475041404407732 -8.030649676062236
-1.3378753672961456 0.8104153933373011 -7.265463931675178
-1.8302149072865201 0.8184584256290021 -6.5358357539500185
-2.257328845380766 0.7686153370050354 -5.793654130798599
-2.57164590872883 0.6323758530056354 -5.032107616489197
-2.7662191505984044 0.40238844833972276 -4.27508879700172
-2.884316300686642 0.12974313587601172 -3.5111392365877236
-2.9714639609744378 -0.1436397252870033 -2.724556071497702
-3.0461498249433623 -0.4145754216635114 -1.889325753333143
-3.122722808437225 -0.6327783888143067 -0.9987305277729116
-3.196989006452568 -0.7362955557435578 -0.11946163753076944
-3.2677342214463447 -0.7291469449180178 0.7206946874693035
-3.3198704350631947 -0.5831668924522456 1.4471694011768497
-3.325162199399099 -0.352845016335078 2.0429932219320945
-3.2874461530345287 -0.04875543297979468 2.5239270480010596
-3.206120454538158 0.33048551858455855 2.8982270322459613
-3.083852807603065 0.796272054959167 3.246115933166377
-2.9257342188037714 1.3600397253156924 3.595185075266254
-2.7367718096252065 2.02214755448015 3.9847395004630886
-2.5726198758290724 2.713639903336049 4.444487103881403
-2.533200312314369 3.33738547142903 5.042201508685308
-2.6180572981583126 3.6261131925158603 5.641333975281748
-2.7962727423034064 3.6088550165876563 6.078215163211703
-2.9309693138946846 3.4310038821567135 6.419378045456151
-3.081014621913393 3.060766138672278 6.7052053610628795
[...]
CELL_DATA 87
SCALARS quad_param_group int 1
LOOKUP_TABLE default
3
1
1
1
2
2
1
3
3
3
3
0
0
2
2
2
0
1
0
3
1
3
1
0
3
0
3
1
1
0
3
1
2
3
1
2
2
0
0
0
0
0
1
1
1
2
2
1
3
3
2
2
1
1
3
3
3
0
3
1
3
2
2
2
3
3
3
1
0
2
3
3
0
0
1
3
3
2
2
2
2
2
0
0
0
1
3
SCALARS single_component_feature float 1
LOOKUP_TABLE default
0.06052811583767164
0.007177538254592587
-0.03443650839103659
-0.02018524941309389
0.03382653300437943
-0.016748405695440064
0.023849919097342482
0.015857602333300986
0.010622721749895536
0.04557261696792403
0.022488256110152482
-0.03964263826971235
-0.0019883339719980464
-0.02048045613849029
-0.02137703653722176
0.008456993835562598
-0.022766094224213905
0.002047980731140623
-0.007010779756291809
0.046092704521155325
0.04228650197919023
-0.021091809130697095
-0.017744887194808132
0.0051452349302677225
0.01245034980886394
-0.035153946737818784
0.026672050062190783
0.09587811330345161
0.016110248041084504
0.004071098573333768
0.01850725931523555
-0.020835110876472534
-0.02344600642753007
0.02748594953184786
-0.012156196176735079
0.005200536728981471
-0.0077063557179090116
0.011800625420792642
-0.03929047546952312
-0.03906800165810284
-0.021014291140244563
0.019084285042354675
-0.05031095867060153
0.030210114618814742
0.06517367523959414
-0.02705583314538819
-0.07418702703902577
-0.023893535921344494
-0.028703984582562063
-0.008175819923219457
0.017074047280642688
0.043937919577387796
0.02985614591520464
0.005723685427255722
0.01984050098628193
-0.022075826549168485
0.08497103832221073
0.04746518815219476
0.018482199432104593
0.008688094359030354
-0.03574328481654967
-0.014740741307818439
0.029326040384567924
-0.02025491393778779
-0.02189858392413495
-0.04593549832186319
-0.016234093388565064
0.006908452609009505
-0.005703718305564076
0.03737435708611604
-0.04139788031700599
-0.057049485489522
0.018050212550500554
-0.04179435006538442
-0.06501307516113627
-0.03658063020544843
-0.00593190723773134
0.014457757756985257
0.030605697134071283
0.032465987280232644
-0.0044877739603257655
0.054781980381755274
0.0428386254906581
-0.0221479748799615
-0.004240599280405424
-0.0386000610891494
-0.0651448147183275
POINT_DATA 5568
SCALARS single_curvature float 1
LOOKUP_TABLE default
0.02845919238992392
0.03098737930577283
0.009721836405522339
0.009145594865379298
0.004724586333953537
0.003754411203972253
0.004178189939265033
0.00535843060845731
0.007506860312716696
0.00923789506880949
0.009851443854666906
0.010005202917116204
0.008794895715597556
0.007593033007718499
0.010545718643302653
0.016658618368599307
0.022354459941617524
0.027080708858816922
0.03807125540223874
0.07843108276434056
0.16555357393058384
0.23896833820478044
0.2757210838694199
0.26256938592308715
0.19085791835830432
0.11200030172030633
0.08089177475602248
0.09319717699700666
0.14794590301930846
0.22668990319305815
0.2896987758759069
0.3120898909990117
0.29766877027757893
0.2566992207480094
0.18604629227732813
0.18922609071760554
0.18339166496698941
0.33091879685600906
0.46594738399666075
0.6465698336669913
0.6678774147101969
0.5762316014084917
0.46835466338857706
0.1913058985697122
0.12988532336384764
0.11862252080250896
0.1301139554720048
0.15533351238459736
0.2037455399848051
0.25426422030382323
0.2786283549441849
0.26673886719032947
0.21448466783096448
0.1417311068970825
0.08892362764646436
0.07121653101506226
0.07519519625793364
0.08900009913126174
0.11361568237011517
0.13878527244020994
0.11273984831291074
0.08669442418561155
0.06064900005831235
0.03460357593101315
0.03613443160155509
0.03797041241261891
0.007739161153291551
0.0063282678282313085
0.0030568015807937382
0.0014825646552585753
0.0016660882484738893
0.0017216294968980504
0.002859837909602358
0.004812600727190408
0.00685753162021322
0.008968674728816425
0.009537325029532619
0.008096753305253201
0.010044250961240802
0.014088292245819511
0.019099328742437367
0.030905273258567987
0.05011336122128683
0.09297717664615573
0.15715081120203758
0.20040551048204044
0.2100278489908798
0.17936710338492967
0.1260991463751222
0.09141356196944882
0.09087389031573846
0.126853078329788
0.17671926802650223
0.23745713625478065
0.30043374140877943
0.31119383862491545
0.2912918602655274
0.23260940487326912
0.1400095650178289
0.15127839842181584
0.2525544731733248
0.4746959547301608
0.6323964300361354
0.7208354174922886
0.6883237590431792
0.5471017208908828
0.3938876550047355
0.20257281190971207
0.14805707791953013
0.13875455457866503
0.14994640154951008
0.17373135034415682
0.20846496368948242
0.23600465120294095
0.24279288095977705
0.22861644062437003
0.19154351458921215
0.14697899724927907
0.11661305810919122
0.10336331631979737
0.10288746958710823
0.1066471807410686
0.1117688531892748
0.11652705564384289
0.08802461137148872
0.05952216709913455
0.03101972282678038
0.002517278554426211
0.047246974800922985
0.04860007751405484
0.008796851109462635
0.0071594491409931
0.005003798418909707
0.0051880038035222314
0.0053945001665859325
0.005805496000626755
0.006509678687387181
0.007034353938034951
0.007905409137769754
0.010167449199339821
0.01136676927646728
0.0110073586146296
0.0120935466349154
0.014078084165088585
0.01850861458114326
0.034374337696111
0.06027361890327742
0.1054426103480265
0.15414771864158308
0.16866365798193292
0.1518408653770122
0.10897766701168896
0.07106413525515683
0.07421466363047759
0.10101613879128425
0.1642482432478857
0.22488211454011098
0.28657492667409745
0.35704010978294926
0.34262711600124385
0.29446487307030367
0.20508655181120924
0.10939830434494946
0.11840835208330752
0.26939780008874664
0.575043065762023
0.7268338746710443
0.7722653182519509
0.7273459578817276
0.5310806776539853
0.33515480837123723
0.21304994389321144
0.167594603998012
0.15808102332545654
0.16735516446333368
0.1898089752697565
0.21298109599511159
0.21969801271214345
0.21212344665209057
0.19718036490459018
0.17409743592307375
0.15377251080082532
0.14081249447860175
0.12847998576801814
0.12199329704431501
0.11830097374024337
0.10910075378698438
0.10142483233232961
0.07232169397409127
0.04321855561585293
0.014115417257614588
-0.014987721100623755
0.043026832083150585
0.04453545016179976
0.008360225475057277
0.0068073579543716164
0.0042948809803765985
0.0038577309021357617
0.0039768626079027215
0.004197770403312253
0.0049709716934165935
0.005916810432961079
0.007290963050254138
0.009551311825480654
0.010617657945849249
0.0098619043083615
0.011249421552718998
0.013953319328159039
0.01858408431248071
0.03314559834556439
0.056749034692091
0.10109778113363078
0.15466280148116662
0.1792391385078192
0.17125294071625566
0.13182086971855467
0.08914878416333766
0.08004046340236844
0.09823968274765638
0.15217561765707163
0.20581614090923195
0.26370715963061503
0.32994523049344143
0.3247438467227087
0.2893473069224279
0.21287394842559043
0.12074448274697182
0.1318594225190387
0.27305669184945913
0.554270317522555
0.7052234108219498
0.761670672123421
0.7175348884458416
0.5361738113644916
0.3550675858018922
0.20924916329511278
0.16027311328583782
0.15108266299520814
0.16120030783030148
0.1841478043057915
0.2113565726963772
0.22544521110998494
0.22270326105211727
0.20794325194779903
0.17995003065229645
0.1512062069949941
0.1325203759869502
0.12014831954795431
0.11588779837812822
0.11464505800674496
0.11013215107592285
0.10624161637918389
0.07720736243825468
0.04817310849732548
0.019138854556396273
-0.009895399384532932
0.031230037783328113
0.0334063145567151
0.00859106125924445
0.007283032846522657
0.0032387601602466677
0.0017936819379355871
0.0020810721606312164
0.0028717595207097004
0.004633870935363781
0.006580738157262595
0.007960153980899979
0.009153585312137816
0.008927735677804855
0.007496678094209292
0.009961841840203572
0.015180730137903112
0.020549413895652596
0.02889286139148394
0.04391203654470487
0.0854589803808217
0.16090993453867689
0.22053699848522115
0.2454967561192385
0.22425018901658877
0.1608966619073036
0.10128704492223918
0.08338087161357713
0.10501695541385729
0.15722018742189564
0.22773300998440466
0.29099282551872613
0.3111743350264682
0.29711578769831093
0.24958409123688344
0.1644660095171767
0.16818051378060098
0.2114429700922046
0.38544422038518505
0.5398918540385264
0.6750584361749693
0.6693626832125639
0.5607990779454988
0.43178936409438146
0.1967012439118746
0.13815879049028015
0.12807902126301562
0.1396926054109889
0.16421017046376699
0.20594992027402978
0.24554142984895286
0.2614303363833105
0.24820552063060944
0.20302953653165787
0.14383093904678249
0.10194875030876291
0.08686665014449507
0.08918715152873251
0.09800568390996317
0.11289483964590594
0.12740340329710628
0.09991368070305928
0.07242395810901228
0.04493423551496528
0.01744451292091828
0.042070319487876935
0.043618267340435016
0.008262916903541022
0.006729533477868119
0.0041266105338219955
0.0035392804964916934
0.003640205140246017
0.003819905331494684
0.004621170973957219
0.005682756619475918
0.007176045518552501
0.009433545807357757
0.0104559061111819
0.009598497164317614
0.011057763927160704
0.013933787855173789
0.018612696455509174
0.03285537643422667
0.05590464278929308
0.10006005275141977
0.1548769537520415
0.1818637522780781
0.17609638273492467
0.137633749756082
0.09370868175718998
0.08150146250874596
0.09744310007146631
0.14907579342498878
0.20162328379044836
0.2592206553118483
0.32471207433017046
0.3217129186981793
0.2888976567212438
0.21511374595236063
0.12340953196680511
0.13488906635931383
0.2726067904070032
0.5469393977072085
0.6982299719757674
0.7578327760562923
0.7142985659573383
0.5374060068166729
0.35990721353222616
0.20836830902076542
0.15861091261636737
0.14945523536242628
0.1597461934111426
0.18280591523482767
0.21097679605803804
0.22680876709362713
0.22525376664372235
0.21054838504770507
0.18138499826173093
0.15062364308778378
0.13050913536151412
0.11808508126320819
0.11433946702944597
0.11370593756036287
0.11036384832339205
0.10746644900824866
0.0784699679762027
0.04947348694415675
0.020477005912110796
-0.008519475119935158
0.032833372039699715
0.034880552642820854
0.008222678811048718
0.006877899084534588
0.0031163526053936256
0.0015045121346594923
0.00174528586140723
0.0021689356101253685
0.00367999060752324
0.005726309345566653
0.007391077700081485
0.00900320693494033
0.00910500872077402
0.007611793800741691
0.009886621726435825
0.014688943413882927
0.01992600245572245
0.02962489820020498
0.046196429650275685
0.08822082269570589
0.15938109663231692
0.21314862566045328
0.23271458647668977
0.20799094210840302
0.14823727070226939
0.09774444246817796
0.08599798079892398
0.11245945200437937
0.16355311323863456
0.23002581276541795
0.29305991884387794
0.31059258325540334
0.295213827707568
0.2440928364696445
0.15322153672969896
0.16047453905133574
0.2262992294059932
0.4157204451200253
0.5748757705493583
0.6911002700473624
0.6741093975673738
0.5553591839241767
0.41766814815569697
0.19883630416428724
0.14165604467457224
0.13192683956565024
0.14345000190062332
0.16769927266580967
0.20685551324365972
0.24206482577493965
0.25460027654341405
0.2409720227285576
0.19872294614524963
0.1448907500772924
0.10728534022405357
0.092994188346161
0.09438927419567623
0.10130840352773748
0.11252570488331724
0.12325932873718182
0.09533596834951047
0.06741260796183912
0.039489247574167774
0.011565887186496426
0.03432291105324246
0.036268032035219465
0.007949193371955106
0.00657517431933268
0.003049080617423149
0.0013484127497283547
0.0015618265507772579
0.0017507468163726087
0.003071488914328417
0.00516967214763274
0.007049802560506144
0.008951670212471634
0.009291346109247449
0.007787390940892017
0.009906709746827268
0.014353531128664472
0.01948301258855083
0.030230127473991102
0.04805979254207144
0.09048014366081489
0.15825650027948593
0.20708819036860132
0.22201320876935668
0.19443822924713963
0.13774064782772888
0.09477538584296864
0.08829619651870997
0.11911472597269256
0.16945428387143016
0.232949662469597
0.29585874381504285
0.3104988984331165
0.2933466739848803
0.23885949717912647
0.1452185504753204
0.15481255001921135
0.23834102805837842
0.4426566358096982
0.6030221523562846
0.705180354892843
0.6800394427637603
0.5512522001305005
0.4062796429927148
0.20059970245282469
0.14463399439324043
0.13513698333003488
0.1465302489059802
0.1705599749943433
0.20761224289393151
0.2391978398088938
0.24899551446721685
0.23508483858458631
0.19527602299464428
0.14584340242440608
0.11170220433475382
0.09795600064904113
0.09850192248116739
0.10390129706006104
0.11218540445704797
0.11999797387219306
0.09177362596361949
0.06354927805504591
0.03532493014647234
0.007100582237898764
0.03539207632078029
0.03727114043943109
0.007793876906821998
0.006398211705665388
0.0030261292361285124
0.0013621991966223195
0.0015666626000404962
0.0016580135418456977
0.002865196536826203
0.004912286741584848
0.0069091890649971765
0.00895259566338795
0.00943425942717371
0.007957090225481713
0.009973142077887624
0.014178845362236776
0.01923706701062447
0.03063513929654942
0.04929479007121565
0.09198093261466962
0.1575742453136402
0.20306762693554603
0.21482312046831367
0.18538088457821436
0.1307428353695182
0.09276513562269255
0.08984842861446847
0.12373128348800683
0.17372728139637933
0.23548653841946957
0.29840134379445815
0.3107889769454133
0.2920877736278468
0.23514125687168816
0.14204524843505847
0.15276354860578786
0.24722120708594666
0.46208533822611725
0.6209619005623728
0.7146382597757671
0.6848433414189891
0.5487078979064295
0.39880619114885835
0.20178213942733372
0.14667416792682353
0.13730220210154886
0.14858166581303403
0.17246467213240546
0.20812270385508938
0.2372817442814303
0.24526791152223743
0.23119191616215062
0.193023103611611
0.14651591385018062
0.11465156310444323
0.10121695834258576
0.10115846567877264
0.10556708104999891
0.11194012426859594
0.11789500161352319
0.08949675420676183
0.061098506800000466
0.0327002593932391
0.004302011986477741
0.0297298482737623
0.032060000402624717
0.009059336183701524
0.008051337169981784
0.0037516769712164586
0.0025153183100253165
0.002862510874504142
0.0038569843962492894
0.005865154014168795
0.007705829205331365
0.008746241362550646
0.00944855167040469
0.00880355303014711
0.007471063898180227
0.01015471778125499
0.015813010238121233
0.021331354914662856
0.028067199270423386
0.04128932868460632
0.08229800535648307
0.16286346804051732
0.22891432007978416
0.25956535389513036
0.2421555933935486
0.17491901506499266
0.10527571235963833
0.08090131910678056
0.09779269471379173
0.15126017988012122
0.22654658863204435
0.28993143770760493
0.31189591040232617
0.29829816424556643
0.25417800490688125
0.17567711522200394
0.17613450377626882
0.19452900019834027
0.3549210122705265
0.5019596654072077
0.6595552062269593
0.6671954518230424
0.5675071610948086
0.4481597360435562
0.19427386598045043
0.13433385681379673
0.12377055139712496
0.13539329539675277
0.16022140027788234
0.20494037518552954
0.2494846624370098
0.269203325606703
0.25652315956141725
0.2080898542029794
0.1427730749578576
0.09596984834967444
0.07981442921996808
0.08301729592591764
0.09405677334961658
0.1132560847707178
0.13236632764675954
0.10546435902925796
0.07856239041175639
0.05166042179425481
0.024758453176753237
0.03307458931021893
0.03510428827879065
0.00817450100647242
0.00682506732280319
0.0031034606857489404
0.0014714121176832972
0.0017065810452920292
0.002084635577479828
0.00356210522417394
0.005621165719824023
0.007324028451443282
0.008990008236390751
0.009134016580930368
0.0076356545841831346
0.009884175547966435
0.01462714820027342
0.019845996910674825
0.029726862619736515
0.04651189831225884
0.08860290624138384
0.15918283469188324
0.21212395742074644
0.23091789923885858
0.20571059908430211
0.14646810368128255
0.0972470185484506
0.08637996051197418
0.11355425333328519
0.16450602959717317
0.23044959121879002
0.2934551887456009
0.31054310769391336
0.294909801250732
0.24324714693739255
0.15163418064163525
0.15933194705686143
0.22822952134986604
0.4200551831803175
0.5797001860329206
0.6934425089825488
0.6749883891915909
0.5546419481177163
0.4157311292297468
0.1991332907907443
0.1421520295759407
0.13246566456760625
0.14397037324065567
0.16818257227846387
0.20698248968475366
0.2415814479476849
0.253653288834777
0.2399743418734982
0.1981352852936128
0.14504662764039297
0.10802968500693277
0.09383713206694044
0.09509409119066982
0.10175393628708175
0.11247059548152886
0.12269970926833165
0.09472209113128346
0.06674447299423528
0.03876685485718709
0.0107892367201389
0.04888650782843724
0.05018644560711641
0.008970182323228174
0.007300596352746048
0.005267423357816262
0.005676744502572473
0.005917973977749805
0.006403309459533864
0.007098917791874146
0.007493265066770735
0.008179184883746287
0.010439823216670975
0.011670208212262664
0.011439792561325216
0.012414505297872792
0.014135034779445069
0.018492273318576287
0.03483301205158228
0.061568193601561724
0.10704361864950337
0.1541276763656144
0.16498068441186822
0.1452385016222061
0.1013884159515428
0.06500317606086656
0.07234424582147288
0.10181183844610549
0.16825395832546208
0.23250800105501782
0.29673046331616904
0.36914811429199257
0.35145287731840674
0.29782002365646304
0.202940452617165
0.10522862840987593
0.11331888638055652
0.2661639449306597
0.5787584904776637
0.731785323452284
0.773878965723582
0.7291543183681034
0.5290847229967289
0.3279617607524405
0.21450245525116676
0.17045009240709744
0.16073992186174554
0.1696541116474611
0.19191456906511994
0.21359443302247313
0.2175675601584314
0.208277041933104
0.19328089531853182
0.17200764955331996
0.15476927630120588
0.14380330435119548
0.13141615583745966
0.12408636290358659
0.11953337146078331
0.10869907421407912
0.09978453371210537
0.07069078410240054
0.04159703449269571
0.012503284882990878
-0.016590464726713952
0.03825235943072543
0.03997545700865956
0.00788296636760992
0.006428261655951702
0.0034200168368047276
0.002196775822933358
0.0022654407644389436
0.0023148736985383984
0.0032940991574361093
0.004904453930759502
0.006861045916744102
0.009073047224636996
0.009846815910658386
0.00857789927126773
0.010340796747206383
0.013945323561194378
0.01882990852720054
0.03163737347177119
0.05231159360648377
0.09565853199797719
0.1561328032970599
0.19328793636141997
0.19709376580551957
0.1632736278945909
0.11365991445352211
0.08771108672831374
0.09355121855174567
0.13535776951588038
0.1853924072254907
0.24400541331450212
0.3074542356945323
0.31338325538156636
0.2895256082705632
0.22573067786130172
0.1341504950534926
0.1461813851761094
0.26383859264040393
0.5061510991881826
0.6607961271349634
0.7366650879803658
0.698350592024343
0.5431003833519636
0.3808216279020188
0.20472752278642653
0.1518983127642448
0.14272576745723548
0.15363401265840998
0.17715122858252802
0.20939961654859204
0.23254703244789954
0.23613547029943274
0.2217229888702486
0.18762360046852303
0.14828825042739863
0.12189408016342769
0.1090561599844036
0.10739970890792877
0.10944956984138061
0.11127483736535757
0.11295772505181623
0.08421831890306834
0.05547891275432046
0.026739506605572574
-0.0019998995431753097
0.043110131897566975
0.04461540126652954
0.008368726878321957
0.006814167892444652
0.004309384153553145
0.0038851385243736615
0.00400590784573605
0.004230466416135276
0.005001478905727942
0.005937625940075929
0.0073014801762501
0.00956200791877612
0.01063190153943055
0.009884828719778041
0.011266165562038027
0.013955246510173805
0.01858187287643297
0.033170639928176475
0.056821680248085274
0.10118711839644738
0.15464592216451137
0.1790147066847012
0.17083877559899951
0.13132576731279202
0.08875964963339464
0.07991525849373339
0.09830589449078106
0.15243914455366073
0.20618365611729758
0.2641104152255539
0.3304176635554058
0.3250259823363811
0.2893987137829636
0.21268724175100923
0.12051360791002048
0.13159400703473415
0.27306921462646205
0.5548587330113419
0.7057920793096798
0.7619782991840948
0.7177997903699115
0.5360688683652582
0.3546524911742929
0.20932544304548872
0.16041770681247464
0.15122353133005723
0.1613257545611635
0.1842634980660422
0.2113894120283359
0.22532764508636355
0.2224840434154355
0.20771955482816823
0.1798271473696796
0.15125691401563296
0.13269305126436437
0.12032468341396868